<event>
12    1  0.2736842E-001  0.1837043E+03  0.7546771E-02  0.1165914E+00
         21   -1    0    0  502  503  0.00000000000E+00  0.00000000000E+00  0.42691613573E+03  0.42691613573E+03  0.00000000000E+00 0.  1.
         21   -1    0    0  503  504 -0.00000000000E+00 -0.00000000000E+00 -0.81661198390E+02  0.81661198390E+02  0.00000000000E+00 0.  1.
         -6    2    1    2    0  504 -0.21173870086E+02 -0.53914857283E+02  0.10949781758E+03  0.21386216963E+03  0.17433333282E+03 0.  0.
        -24    2    3    3    0    0  0.47211992603E+02 -0.17329762715E+02  0.94897816983E+02  0.13480304379E+03  0.81467613358E+02 0.  0.
          6    2    1    2  502    0  0.21173870086E+02  0.53914857283E+02  0.23575711975E+03  0.29471516449E+03  0.16709417720E+03 0.  0.
         24    2    5    5    0    0  0.76576870250E+00 -0.33196310121E+02  0.10635490086E+03  0.13732434410E+03  0.80274710447E+02 0.  0.
          2    1    6    6  501    0 -0.68181568404E+01 -0.48094754091E+02  0.25700351528E+02  0.54955442883E+02  0.00000000000E+00 0. -1.
         -1    1    6    6    0  501  0.75839255429E+01  0.14898443970E+02  0.80654549331E+02  0.82368901213E+02  0.00000000000E+00 0.  1.
          5    1    5    5  502    0  0.20408101383E+02  0.87111167404E+02  0.12940221890E+03  0.15739082039E+03  0.47000000000E+01 0. -1.
         11    1    4    4    0    0  0.29063414951E+02 -0.42170939117E+02  0.22117328996E+02  0.55787511475E+02  0.00000000000E+00 0. -1.
        -12    1    4    4    0    0  0.18148577652E+02  0.24841176402E+02  0.72780487987E+02  0.79015532318E+02  0.00000000000E+00 0.  1.
         -5    1    3    3    0  504 -0.68385862689E+02 -0.36585094568E+02  0.14600000599E+02  0.79059125835E+02  0.47000000000E+01 0.  1.
<mgrwt>
<rscale>  2 0.18196596E+03</rscale>
<asrwt>0</asrwt>
<pdfrwt beam="1">  1       21 0.65679405E-01 0.18370426E+03</pdfrwt>
<pdfrwt beam="2">  1       21 0.12563261E-01 0.18370426E+03</pdfrwt>
<totfact> 0.11554293E+05</totfact>
</mgrwt>
</event>
<event>
12    1  0.2736842E-001  0.1923083E+03  0.7546771E-02  0.1156832E+00
         21   -1    0    0  502  503  0.00000000000E+00  0.00000000000E+00  0.25561934377E+03  0.25561934377E+03  0.00000000000E+00 0. -1.
         21   -1    0    0  503  504 -0.00000000000E+00 -0.00000000000E+00 -0.14322591324E+03  0.14322591324E+03  0.00000000000E+00 0. -1.
         -6    2    1    2    0  504  0.67224302300E+02 -0.40522164701E+02  0.58015483429E+02  0.19899668634E+03  0.17341491345E+03 0.  0.
        -24    2    3    3    0    0 -0.19757053833E+02 -0.58980784524E+02  0.26732098553E+02  0.10461863206E+03  0.79758253257E+02 0.  0.
          6    2    1    2  502    0 -0.67224302300E+02  0.40522164701E+02  0.54377947102E+02  0.19984857066E+03  0.17556006781E+03 0.  0.
         24    2    5    5    0    0 -0.19461144025E+02  0.88148998159E+02  0.17860919849E+02  0.12300315549E+03  0.81619739023E+02 0.  0.
          4    1    6    6  501    0 -0.19495664070E+02  0.59730684323E+02  0.49856575506E+02  0.80209187057E+02  0.00000000000E+00 0. -1.
         -3    1    6    6    0  501  0.34520044757E-01  0.28418313836E+02 -0.31995655657E+02  0.42793968428E+02  0.00000000000E+00 0.  1.
          5    1    5    5  502    0 -0.47763158274E+02 -0.47626833458E+02  0.36517027253E+02  0.76845415172E+02  0.47000000000E+01 0. -1.
         11    1    4    4    0    0  0.59514363060E+01 -0.64630238359E+02 -0.29196420224E+01  0.64969312864E+02  0.00000000000E+00 0. -1.
        -12    1    4    4    0    0 -0.25708490139E+02  0.56494538350E+01  0.29651740575E+02  0.39649319200E+02  0.00000000000E+00 0.  1.
         -5    1    3    3    0  504  0.86981356133E+02  0.18458619823E+02  0.31283384876E+02  0.94378054281E+02  0.47000000000E+01 0.  1.
<mgrwt>
<rscale>  2 0.19181736E+03</rscale>
<asrwt>0</asrwt>
<pdfrwt beam="1">  1       21 0.39326053E-01 0.19230832E+03</pdfrwt>
<pdfrwt beam="2">  1       21 0.22034756E-01 0.19230832E+03</pdfrwt>
<totfact> 0.11999326E+05</totfact>
</mgrwt>
</event>
<event>
12    1  0.2736842E-001  0.2046848E+03  0.7546771E-02  0.1146014E+00
         21   -1    0    0  502  503  0.00000000000E+00  0.00000000000E+00  0.14106279848E+03  0.14106279848E+03  0.00000000000E+00 0.  1.
         21   -1    0    0  503  504 -0.00000000000E+00 -0.00000000000E+00 -0.29990615352E+03  0.29990615352E+03  0.00000000000E+00 0.  1.
         -6    2    1    2    0  504 -0.83107585469E+02 -0.68686764935E+02 -0.53508800948E+02  0.21077072713E+03  0.17302128538E+03 0.  0.
        -24    2    3    3    0    0 -0.73792934405E+02 -0.94076335575E+02 -0.84640625428E+02  0.16926562482E+03  0.84800130840E+02 0.  0.
          6    2    1    2  502    0  0.83107585469E+02  0.68686764935E+02 -0.10533455410E+03  0.23019822488E+03  0.17398595349E+03 0.  0.
         24    2    5    5    0    0  0.11971694717E+03  0.64392334366E+02 -0.11054874636E+03  0.19267536119E+03  0.80151414977E+02 0.  0.
          2    1    6    6  501    0  0.38191118651E+02 -0.16550921736E+02 -0.18898587081E+02  0.45712702258E+02  0.00000000000E+00 0. -1.
         -1    1    6    6    0  501  0.81525828523E+02  0.80943256102E+02 -0.91650159278E+02  0.14696265893E+03  0.00000000000E+00 0.  1.
          5    1    5    5  502    0 -0.36609361704E+02  0.42944305694E+01  0.52141922634E+01  0.37522863687E+02  0.47000000000E+01 0. -1.
         13    1    4    4    0    0 -0.10802047090E+01 -0.69940405953E+02 -0.38958152320E+02  0.80066003143E+02  0.00000000000E+00 0. -1.
        -14    1    4    4    0    0 -0.72712729696E+02 -0.24135929622E+02 -0.45682473108E+02  0.89199621680E+02  0.00000000000E+00 0.  1.
         -5    1    3    3    0  504 -0.93146510646E+01  0.25389570640E+02  0.31131824480E+02  0.41505102303E+02  0.47000000000E+01 0.  1.
<mgrwt>
<rscale>  2 0.20447962E+03</rscale>
<asrwt>0</asrwt>
<pdfrwt beam="1">  1       21 0.21701969E-01 0.20468477E+03</pdfrwt>
<pdfrwt beam="2">  1       21 0.46139408E-01 0.20468477E+03</pdfrwt>
<totfact> 0.88697843E+04</totfact>
</mgrwt>
</event>
<event>
12    1  0.2736842E-001  0.2034722E+03  0.7546771E-02  0.1147023E+00
         21   -1    0    0  502  503  0.00000000000E+00  0.00000000000E+00  0.59922070252E+02  0.59922070252E+02  0.00000000000E+00 0.  1.
         21   -1    0    0  503  504 -0.00000000000E+00 -0.00000000000E+00 -0.74968085813E+03  0.74968085813E+03  0.00000000000E+00 0.  1.
         -6    2    1    2    0  504 -0.48289246471E+02  0.95891855270E+02 -0.22940173284E+03  0.30663674706E+03  0.17284050564E+03 0.  0.
        -24    2    3    3    0    0 -0.94900888258E+02  0.66478361265E+02 -0.12918574331E+03  0.19216782842E+03  0.82546755817E+02 0.  0.
          6    2    1    2  502    0  0.48289246471E+02 -0.95891855270E+02 -0.46035705504E+03  0.50296618131E+03  0.17181170563E+03 0.  0.
         24    2    5    5    0    0  0.75245656019E+02 -0.44006251392E+02 -0.40177529082E+03  0.42006457093E+03  0.86211371200E+02 0.  0.
          4    1    6    6  501    0  0.17709839977E+02  0.26065834541E+02 -0.11951990932E+03  0.12360450997E+03  0.00000000000E+00 0. -1.
         -3    1    6    6    0  501  0.57535816042E+02 -0.70072085933E+02 -0.28225538151E+03  0.29646006096E+03  0.00000000000E+00 0.  1.
          5    1    5    5  502    0 -0.26956409548E+02 -0.51885603878E+02 -0.58581764216E+02  0.82901610383E+02  0.47000000000E+01 0. -1.
         11    1    4    4    0    0 -0.31991715470E+02 -0.14745593396E+02 -0.14226021738E+02  0.37990552481E+02  0.00000000000E+00 0. -1.
        -12    1    4    4    0    0 -0.62909172788E+02  0.81223954661E+02 -0.11495972157E+03  0.15417727594E+03  0.00000000000E+00 0.  1.
         -5    1    3    3    0  504  0.46611641787E+02  0.29413494005E+02 -0.10021598952E+03  0.11446891864E+03  0.47000000000E+01 0.  1.
<mgrwt>
<rscale>  2 0.20325356E+03</rscale>
<asrwt>0</asrwt>
<pdfrwt beam="1">  1       21 0.92187803E-02 0.20347221E+03</pdfrwt>
<pdfrwt beam="2">  1       21 0.11533551E+00 0.20347221E+03</pdfrwt>
<totfact> 0.54209646E+04</totfact>
</mgrwt>
</event>
<event>
12    1  0.2736842E-001  0.2579017E+03  0.7546771E-02  0.1108750E+00
         21   -1    0    0  502  503  0.00000000000E+00  0.00000000000E+00  0.99789974945E+02  0.99789974945E+02  0.00000000000E+00 0. -1.
         21   -1    0    0  503  504 -0.00000000000E+00 -0.00000000000E+00 -0.66125288767E+03  0.66125288767E+03  0.00000000000E+00 0.  1.
         -6    2    1    2    0  504 -0.70423983191E+02 -0.17514759505E+03 -0.26953717300E+03  0.37151245030E+03  0.17243838217E+03 0.  0.
        -24    2    3    3    0    0 -0.39666812897E+02 -0.18923953632E+03 -0.18214632449E+03  0.27768368747E+03  0.80906666006E+02 0.  0.
          6    2    1    2  502    0  0.70423983191E+02  0.17514759505E+03 -0.29192573973E+03  0.38953041231E+03  0.17571877288E+03 0.  0.
         24    2    5    5    0    0  0.85493717654E+02  0.63564728260E+02 -0.10072633963E+03  0.16759093035E+03  0.81186661480E+02 0.  0.
          2    1    6    6  501    0  0.30456295912E+02 -0.18074628098E+02 -0.24292959626E+02  0.42946781357E+02  0.00000000000E+00 0. -1.
         -1    1    6    6    0  501  0.55037421743E+02  0.81639356358E+02 -0.76433380002E+02  0.12464414899E+03  0.00000000000E+00 0.  1.
          5    1    5    5  502    0 -0.15069734464E+02  0.11158286679E+03 -0.19119940010E+03  0.22193948197E+03  0.47000000000E+01 0. -1.
         11    1    4    4    0    0 -0.10269352989E+02 -0.16893288164E+03 -0.17016337669E+03  0.23999865182E+03  0.00000000000E+00 0. -1.
        -12    1    4    4    0    0 -0.29397459908E+02 -0.20306654684E+02 -0.11982947809E+02  0.37685035646E+02  0.00000000000E+00 0.  1.
         -5    1    3    3    0  504 -0.30757170294E+02  0.14091941278E+02 -0.87390848503E+02  0.93828762837E+02  0.47000000000E+01 0.  1.
<mgrwt>
<rscale>  2 0.25734398E+03</rscale>
<asrwt>0</asrwt>
<pdfrwt beam="1">  1       21 0.15352305E-01 0.25790173E+03</pdfrwt>
<pdfrwt beam="2">  1       21 0.10173121E+00 0.25790173E+03</pdfrwt>
<totfact> 0.28648507E+04</totfact>
</mgrwt>
</event>
<event>
12    1  0.2736842E-001  0.1970745E+03  0.7546771E-02  0.1152451E+00
         21   -1    0    0  502  503  0.00000000000E+00  0.00000000000E+00  0.11308928625E+03  0.11308928625E+03  0.00000000000E+00 0.  1.
         21   -1    0    0  503  504 -0.00000000000E+00 -0.00000000000E+00 -0.51201163593E+03  0.51201163593E+03  0.00000000000E+00 0.  1.
         -6    2    1    2    0  504 -0.93044447818E+02  0.39746617771E+01 -0.37940141091E+03  0.42706201827E+03  0.17252092523E+03 0.  0.
        -24    2    3    3    0    0 -0.12215856921E+03  0.25553469157E+02 -0.35135199900E+03  0.38099536546E+03  0.78316955316E+02 0.  0.
          6    2    1    2  502    0  0.93044447818E+02 -0.39746617771E+01 -0.19520938771E+02  0.19803890391E+03  0.17368152811E+03 0.  0.
         24    2    5    5    0    0  0.51343622004E+01 -0.47075510206E+02  0.16035100046E+02  0.93769118333E+02  0.79328795422E+02 0.  0.
          2    1    6    6  501    0 -0.22393887507E+02 -0.58300479662E+02  0.13774610772E+02  0.63954452764E+02  0.00000000000E+00 0. -1.
         -1    1    6    6    0  501  0.27528249707E+02  0.11224969456E+02  0.22604892737E+01  0.29814665569E+02  0.00000000000E+00 0.  1.
          5    1    5    5  502    0  0.87910085617E+02  0.43100848429E+02 -0.35556038817E+02  0.10426978558E+03  0.47000000000E+01 0. -1.
         11    1    4    4    0    0 -0.43237676901E+02 -0.24655258376E+02 -0.82674557479E+02  0.96501092863E+02  0.00000000000E+00 0. -1.
        -12    1    4    4    0    0 -0.78920892305E+02  0.50208727533E+02 -0.26867744152E+03  0.28449427260E+03  0.00000000000E+00 0.  1.
         -5    1    3    3    0  504  0.29114121388E+02 -0.21578807380E+02 -0.28049411914E+02  0.46066652808E+02  0.47000000000E+01 0.  1.
<mgrwt>
<rscale>  2 0.19681844E+03</rscale>
<asrwt>0</asrwt>
<pdfrwt beam="1">  1       21 0.17398352E-01 0.19707445E+03</pdfrwt>
<pdfrwt beam="2">  1       21 0.78771021E-01 0.19707445E+03</pdfrwt>
<totfact> 0.42480226E+04</totfact>
</mgrwt>
</event>
<event>
12    1  0.2736842E-001  0.1950841E+03  0.7546771E-02  0.1154247E+00
         21   -1    0    0  502  503  0.00000000000E+00  0.00000000000E+00  0.70765651866E+03  0.70765651866E+03  0.00000000000E+00 0. -1.
         21   -1    0    0  503  504 -0.00000000000E+00 -0.00000000000E+00 -0.53991336472E+02  0.53991336472E+02  0.00000000000E+00 0.  1.
         -6    2    1    2    0  504 -0.63168632555E+02  0.58945867363E+02  0.28622910821E+03  0.34563455218E+03  0.17341063940E+03 0.  0.
        -24    2    3    3    0    0 -0.10226209598E+03  0.10683250394E+02  0.16844587455E+03  0.21239582204E+03  0.78525820294E+02 0.  0.
          6    2    1    2  502    0  0.63168632555E+02 -0.58945867363E+02  0.36743607398E+03  0.41601330295E+03  0.17490828554E+03 0.  0.
         24    2    5    5    0    0  0.98813130370E+02 -0.31180153702E+02  0.33602481273E+03  0.36078448427E+03  0.80725043213E+02 0.  0.
          2    1    6    6  501    0  0.48341133291E+02 -0.49660681106E+02  0.24930480641E+03  0.25875844898E+03  0.00000000000E+00 0. -1.
         -1    1    6    6    0  501  0.50471997079E+02  0.18480527403E+02  0.86720006311E+02  0.10202603529E+03  0.00000000000E+00 0.  1.
          5    1    5    5  502    0 -0.35644497816E+02 -0.27765713660E+02  0.31411261255E+02  0.55228818684E+02  0.47000000000E+01 0. -1.
         11    1    4    4    0    0 -0.57842079083E+02 -0.75101104101E+01  0.15005386045E+03  0.16099151812E+03  0.00000000000E+00 0. -1.
        -12    1    4    4    0    0 -0.44420016900E+02  0.18193360804E+02  0.18392014104E+02  0.51404303920E+02  0.00000000000E+00 0.  1.
         -5    1    3    3    0  504  0.39093463428E+02  0.48262616969E+02  0.11778323365E+03  0.13323873014E+03  0.47000000000E+01 0.  1.
<mgrwt>
<rscale>  2 0.19474781E+03</rscale>
<asrwt>0</asrwt>
<pdfrwt beam="1">  1       21 0.10887023E+00 0.19508408E+03</pdfrwt>
<pdfrwt beam="2">  1       21 0.83063599E-02 0.19508408E+03</pdfrwt>
<totfact> 0.75177080E+04</totfact>
</mgrwt>
</event>
<event>
12    1  0.2736842E-001  0.2329651E+03  0.7546771E-02  0.1125259E+00
         21   -1    0    0  502  503  0.00000000000E+00  0.00000000000E+00  0.10981848611E+03  0.10981848611E+03  0.00000000000E+00 0.  1.
         21   -1    0    0  503  504 -0.00000000000E+00 -0.00000000000E+00 -0.50273250720E+03  0.50273250720E+03  0.00000000000E+00 0.  1.
         -6    2    1    2    0  504  0.14949921801E+03 -0.26983553617E+02 -0.25091716279E+03  0.33972162019E+03  0.17138619632E+03 0.  0.
        -24    2    3    3    0    0  0.58960698190E+02 -0.21046971782E+02 -0.36825383774E+02  0.10714938105E+03  0.78775262726E+02 0.  0.
          6    2    1    2  502    0 -0.14949921801E+03  0.26983553617E+02 -0.14199685831E+03  0.27282937312E+03  0.17662001788E+03 0.  0.
         24    2    5    5    0    0 -0.16311348786E+03  0.59782019356E+02 -0.13932829296E+03  0.23690864179E+03  0.80829645393E+02 0.  0.
          4    1    6    6  501    0 -0.12018188929E+03  0.79551160697E+02 -0.10970831954E+03  0.18112975752E+03  0.00000000000E+00 0. -1.
         -3    1    6    6    0  501 -0.42931598570E+02 -0.19769141341E+02 -0.29619973421E+02  0.55778884272E+02  0.00000000000E+00 0.  1.
          5    1    5    5  502    0  0.13614269849E+02 -0.32798465739E+02 -0.26685653462E+01  0.35920731331E+02  0.47000000000E+01 0. -1.
         13    1    4    4    0    0 -0.10736127588E+02  0.17703977319E+02 -0.10165986558E+02  0.23066047152E+02  0.00000000000E+00 0. -1.
        -14    1    4    4    0    0  0.69696825779E+02 -0.38750949102E+02 -0.26659397216E+02  0.84083333901E+02  0.00000000000E+00 0.  1.
         -5    1    3    3    0  504  0.90538519819E+02 -0.59365818343E+01 -0.21409177901E+03  0.23257223914E+03  0.47000000000E+01 0.  1.
<mgrwt>
<rscale>  2 0.23197319E+03</rscale>
<asrwt>0</asrwt>
<pdfrwt beam="1">  1       21 0.16895152E-01 0.23296515E+03</pdfrwt>
<pdfrwt beam="2">  1       21 0.77343460E-01 0.23296515E+03</pdfrwt>
<totfact> 0.45929877E+04</totfact>
</mgrwt>
</event>
<event>
12    1  0.2736842E-001  0.1913832E+03  0.7546771E-02  0.1158219E+00
         21   -1    0    0  502  503  0.00000000000E+00  0.00000000000E+00  0.13952789513E+03  0.13952789513E+03  0.00000000000E+00 0.  1.
         21   -1    0    0  503  504 -0.00000000000E+00 -0.00000000000E+00 -0.41403103000E+03  0.41403103000E+03  0.00000000000E+00 0. -1.
         -6    2    1    2    0  504 -0.75769431810E+02  0.28610934242E+02  0.34466597348E+02  0.19011729231E+03  0.16851423130E+03 0.  0.
        -24    2    3    3    0    0 -0.78679971600E+02 -0.14416867357E+01 -0.31671249899E+02  0.11726170840E+03  0.80960631140E+02 0.  0.
          6    2    1    2  502    0  0.75769431810E+02 -0.28610934242E+02 -0.30896973222E+03  0.36344163282E+03  0.17340107462E+03 0.  0.
         24    2    5    5    0    0  0.28499842528E+02  0.20262659830E+02 -0.57568540452E+02  0.10296573855E+03  0.77878046065E+02 0.  0.
          4    1    6    6  501    0  0.53533583145E+02  0.68426797376E+00 -0.37822565335E+02  0.65550432459E+02  0.00000000000E+00 0. -1.
         -3    1    6    6    0  501 -0.25033740617E+02  0.19578391856E+02 -0.19745975116E+02  0.37415306096E+02  0.00000000000E+00 0.  1.
          5    1    5    5  502    0  0.47269589282E+02 -0.48873594072E+02 -0.25140119177E+03  0.26047589426E+03  0.47000000000E+01 0. -1.
         11    1    4    4    0    0 -0.77643373201E+02  0.22574052252E+02 -0.41979826660E+02  0.91106460163E+02  0.00000000000E+00 0. -1.
        -12    1    4    4    0    0 -0.10365983990E+01 -0.24015738987E+02  0.10308576761E+02  0.26155248234E+02  0.00000000000E+00 0.  1.
         -5    1    3    3    0  504  0.29105397899E+01  0.30052620977E+02  0.66137847247E+02  0.72855583917E+02  0.47000000000E+01 0.  1.
<mgrwt>
<rscale>  2 0.19026944E+03</rscale>
<asrwt>0</asrwt>
<pdfrwt beam="1">  1       21 0.21465830E-01 0.19138319E+03</pdfrwt>
<pdfrwt beam="2">  1       21 0.63697080E-01 0.19138319E+03</pdfrwt>
<totfact> 0.46075664E+04</totfact>
</mgrwt>
</event>
<event>
12    1  0.2736842E-001  0.2504192E+03  0.7546771E-02  0.1113154E+00
         21   -1    0    0  502  503  0.00000000000E+00  0.00000000000E+00  0.11167363842E+04  0.11167363842E+04  0.00000000000E+00 0.  1.
         21   -1    0    0  503  504 -0.00000000000E+00 -0.00000000000E+00 -0.85669466541E+02  0.85669466541E+02  0.00000000000E+00 0. -1.
         -6    2    1    2    0  504  0.10784096017E+03  0.14511289327E+03  0.16119660138E+03  0.29720743800E+03  0.17222221815E+03 0.  0.
        -24    2    3    3    0    0  0.31072923489E+01  0.21412778456E+02  0.32601882854E+02  0.90254421080E+02  0.81331515490E+02 0.  0.
          6    2    1    2  502    0 -0.10784096017E+03 -0.14511289327E+03  0.86987031632E+03  0.90519841278E+03  0.17326965918E+03 0.  0.
         24    2    5    5    0    0 -0.21342176433E+02 -0.13368171015E+03  0.45574730660E+03  0.48195773808E+03  0.79065578487E+02 0.  0.
          2    1    6    6  501    0  0.26860808447E+02 -0.80507709870E+02  0.23705861491E+03  0.25179313192E+03  0.00000000000E+00 0. -1.
         -1    1    6    6    0  501 -0.48202984880E+02 -0.53174000276E+02  0.21868869169E+03  0.23016460616E+03  0.00000000000E+00 0.  1.
          5    1    5    5  502    0 -0.86498783739E+02 -0.11431183126E+02  0.41412300972E+03  0.42324067470E+03  0.47000000000E+01 0. -1.
         13    1    4    4    0    0  0.12064557249E+02 -0.29780681526E+02  0.14083289103E+02  0.35082496572E+02  0.00000000000E+00 0. -1.
        -14    1    4    4    0    0 -0.89572649001E+01  0.51193459982E+02  0.18518593750E+02  0.55171924508E+02  0.00000000000E+00 0.  1.
         -5    1    3    3    0  504  0.10473366782E+03  0.12370011482E+03  0.12859471852E+03  0.20695301692E+03  0.47000000000E+01 0.  1.
<mgrwt>
<rscale>  2 0.25023815E+03</rscale>
<asrwt>0</asrwt>
<pdfrwt beam="1">  1       21 0.17180559E+00 0.25041925E+03</pdfrwt>
<pdfrwt beam="2">  1       21 0.13179919E-01 0.25041925E+03</pdfrwt>
<totfact> 0.98625789E+03</totfact>
</mgrwt>
</event>
<event>
12    1  0.2736842E-001  0.1831684E+03  0.7546771E-02  0.1164974E+00
         21   -1    0    0  502  503  0.00000000000E+00  0.00000000000E+00  0.79492525519E+02  0.79492525519E+02  0.00000000000E+00 0. -1.
         21   -1    0    0  503  504 -0.00000000000E+00 -0.00000000000E+00 -0.64095523875E+03  0.64095523875E+03  0.00000000000E+00 0. -1.
         -6    2    1    2    0  504  0.54981211123E+02  0.51631425395E+01 -0.49175492145E+03  0.52446345366E+03  0.17375102829E+03 0.  0.
        -24    2    3    3    0    0  0.77815066250E+01  0.62412545462E+02 -0.22128481102E+03  0.24396126672E+03  0.81205014595E+02 0.  0.
          6    2    1    2  502    0 -0.54981211123E+02 -0.51631425395E+01 -0.69707791779E+02  0.19598431061E+03  0.17464559013E+03 0.  0.
         24    2    5    5    0    0 -0.32642472048E+02  0.52195885378E+02  0.16641369101E+01  0.10161736962E+03  0.80829320331E+02 0.  0.
          4    1    6    6  501    0  0.65771819939E+01  0.33160353399E+02  0.33532552564E+02  0.47616178363E+02  0.00000000000E+00 0. -1.
         -3    1    6    6    0  501 -0.39219654042E+02  0.19035531980E+02 -0.31868415654E+02  0.54001191257E+02  0.00000000000E+00 0.  1.
          5    1    5    5  502    0 -0.22338739075E+02 -0.57359027918E+02 -0.71371928689E+02  0.94366940990E+02  0.47000000000E+01 0. -1.
         11    1    4    4    0    0 -0.15486193973E+02  0.40404429896E+02 -0.20198619299E+03  0.20656902555E+03  0.00000000000E+00 0. -1.
        -12    1    4    4    0    0  0.23267700598E+02  0.22008115565E+02 -0.19298618034E+02  0.37392241172E+02  0.00000000000E+00 0.  1.
         -5    1    3    3    0  504  0.47199704498E+02 -0.57249402922E+02 -0.27047011043E+03  0.28050218694E+03  0.47000000000E+01 0.  1.
<mgrwt>
<rscale>  2 0.18295487E+03</rscale>
<asrwt>0</asrwt>
<pdfrwt beam="1">  1       21 0.12229619E-01 0.18316843E+03</pdfrwt>
<pdfrwt beam="2">  1       21 0.98608503E-01 0.18316843E+03</pdfrwt>
<totfact> 0.48366248E+04</totfact>
</mgrwt>
</event>
<event>
12    1  0.2736842E-001  0.2752302E+03  0.7546771E-02  0.1098337E+00
         21   -1    0    0  502  503  0.00000000000E+00  0.00000000000E+00  0.29902326956E+03  0.29902326956E+03  0.00000000000E+00 0.  1.
         21   -1    0    0  503  504 -0.00000000000E+00 -0.00000000000E+00 -0.43077454774E+03  0.43077454774E+03  0.00000000000E+00 0.  1.
         -6    2    1    2    0  504  0.32916259239E+02 -0.21134660449E+03 -0.30012401814E+03  0.40715091334E+03  0.17305078046E+03 0.  0.
        -24    2    3    3    0    0  0.83584889415E+02 -0.14250265617E+03 -0.16304640752E+03  0.24553667932E+03  0.80066779211E+02 0.  0.
          6    2    1    2  502    0 -0.32916259239E+02  0.21134660449E+03  0.16837273996E+03  0.32264690396E+03  0.17320732582E+03 0.  0.
         24    2    5    5    0    0 -0.78079771379E+02  0.11450031023E+03  0.55102352405E+02  0.16685467617E+03  0.74816054284E+02 0.  0.
          2    1    6    6  501    0  0.12506416923E+02  0.24294659445E+02 -0.77787243716E+00  0.27335801201E+02  0.00000000000E+00 0. -1.
         -1    1    6    6    0  501 -0.90586188302E+02  0.90205650787E+02  0.55880224842E+02  0.13951887497E+03  0.00000000000E+00 0.  1.
          5    1    5    5  502    0  0.45163512140E+02  0.96846294255E+02  0.11327038756E+03  0.15579222778E+03  0.47000000000E+01 0. -1.
         11    1    4    4    0    0  0.25234183236E+02 -0.48994122078E+02 -0.11039349257E+03  0.12338521469E+03  0.00000000000E+00 0. -1.
        -12    1    4    4    0    0  0.58350706179E+02 -0.93508534092E+02 -0.52652914953E+02  0.12215146464E+03  0.00000000000E+00 0.  1.
         -5    1    3    3    0  504 -0.50668630176E+02 -0.68843948317E+02 -0.13707761062E+03  0.16161423401E+03  0.47000000000E+01 0.  1.
<mgrwt>
<rscale>  2 0.27520554E+03</rscale>
<asrwt>0</asrwt>
<pdfrwt beam="1">  1       21 0.46003580E-01 0.27523017E+03</pdfrwt>
<pdfrwt beam="2">  1       21 0.66273007E-01 0.27523017E+03</pdfrwt>
<totfact> 0.90017561E+03</totfact>
</mgrwt>
</event>
<event>
12    1  0.2736842E-001  0.2270587E+03  0.7546771E-02  0.1129054E+00
         21   -1    0    0  502  503  0.00000000000E+00  0.00000000000E+00  0.21278196585E+03  0.21278196585E+03  0.00000000000E+00 0.  1.
         21   -1    0    0  503  504 -0.00000000000E+00 -0.00000000000E+00 -0.24878466522E+03  0.24878466522E+03  0.00000000000E+00 0.  1.
         -6    2    1    2    0  504  0.14746700965E+03  0.79580043503E+01 -0.60543959509E+02  0.23499199387E+03  0.17246975787E+03 0.  0.
        -24    2    3    3    0    0  0.16410625708E+03  0.42735107301E+02 -0.54172230382E+02  0.19563465178E+03  0.81124185191E+02 0.  0.
          6    2    1    2  502    0 -0.14746700965E+03 -0.79580043503E+01  0.24541260138E+02  0.22657463720E+03  0.17007040896E+03 0.  0.
         24    2    5    5    0    0 -0.85464109690E+02 -0.21255945951E+01 -0.51838205919E+02  0.12791213448E+03  0.79785226432E+02 0.  0.
          4    1    6    6  501    0 -0.61615549664E+02  0.24976207224E+02 -0.61471197036E+02  0.90548301766E+02  0.00000000000E+00 0. -1.
         -3    1    6    6    0  501 -0.23848560025E+02 -0.27101801819E+02  0.96329911170E+01  0.37363832713E+02  0.00000000000E+00 0.  1.
          5    1    5    5  502    0 -0.62002899964E+02 -0.58324097552E+01  0.76379466056E+02  0.98662502718E+02  0.47000000000E+01 0. -1.
         13    1    4    4    0    0  0.65635301928E+02  0.33600828870E+02  0.14614785261E+02  0.75170476306E+02  0.00000000000E+00 0. -1.
        -14    1    4    4    0    0  0.98470955152E+02  0.91342784314E+01 -0.68787015643E+02  0.12046417547E+03  0.00000000000E+00 0.  1.
         -5    1    3    3    0  504 -0.16639247427E+02 -0.34777102951E+02 -0.63717291276E+01  0.39357342094E+02  0.47000000000E+01 0.  1.
<mgrwt>
<rscale>  2 0.22660308E+03</rscale>
<asrwt>0</asrwt>
<pdfrwt beam="1">  1       21 0.32735687E-01 0.22705873E+03</pdfrwt>
<pdfrwt beam="2">  1       21 0.38274564E-01 0.22705873E+03</pdfrwt>
<totfact> 0.58220135E+04</totfact>
</mgrwt>
</event>
<event>
12    1  0.2736842E-001  0.2163154E+03  0.7546771E-02  0.1136846E+00
         21   -1    0    0  502  503  0.00000000000E+00  0.00000000000E+00  0.17228916881E+03  0.17228916881E+03  0.00000000000E+00 0.  1.
         21   -1    0    0  503  504 -0.00000000000E+00 -0.00000000000E+00 -0.30386956882E+03  0.30386956882E+03  0.00000000000E+00 0. -1.
         -6    2    1    2    0  504  0.89679401025E+02  0.93601641835E+02 -0.14470616164E+03  0.25944548816E+03  0.17195472017E+03 0.  0.
        -24    2    3    3    0    0  0.77087505769E+02  0.89892205182E+02 -0.17566847871E+03  0.22548859159E+03  0.77217863400E+02 0.  0.
          6    2    1    2  502    0 -0.89679401025E+02 -0.93601641835E+02  0.13125761631E+02  0.21671324947E+03  0.17317241280E+03 0.  0.
         24    2    5    5    0    0 -0.94304173088E+02 -0.16907082986E+02 -0.29323330836E+02  0.12880728082E+03  0.80946472085E+02 0.  0.
          4    1    6    6  501    0 -0.58081308727E+02 -0.27702759062E+02 -0.53715469929E+02  0.83822628166E+02  0.00000000000E+00 0. -1.
         -3    1    6    6    0  501 -0.36222864361E+02  0.10795676076E+02  0.24392139093E+02  0.44984652650E+02  0.00000000000E+00 0.  1.
          5    1    5    5  502    0  0.46247720626E+01 -0.76694558850E+02  0.42449092466E+02  0.87905968654E+02  0.47000000000E+01 0. -1.
         13    1    4    4    0    0 -0.15502435710E+02  0.70744728457E+01 -0.18442589448E+02  0.25109814506E+02  0.00000000000E+00 0. -1.
        -14    1    4    4    0    0  0.92589941479E+02  0.82817732336E+02 -0.15722588926E+03  0.20037877709E+03  0.00000000000E+00 0.  1.
         -5    1    3    3    0  504  0.12591895257E+02  0.37094366539E+01  0.30962317067E+02  0.33956896569E+02  0.47000000000E+01 0.  1.
<mgrwt>
<rscale>  2 0.21607158E+03</rscale>
<asrwt>0</asrwt>
<pdfrwt beam="1">  1       21 0.26506026E-01 0.21631539E+03</pdfrwt>
<pdfrwt beam="2">  1       21 0.46749164E-01 0.21631539E+03</pdfrwt>
<totfact> 0.58682579E+04</totfact>
</mgrwt>
</event>
<event>
12    1  0.2736842E-001  0.4436532E+03  0.7546771E-02  0.1029740E+00
         21   -1    0    0  502  503  0.00000000000E+00  0.00000000000E+00  0.21434539140E+04  0.21434539140E+04  0.00000000000E+00 0.  1.
         21   -1    0    0  503  504 -0.00000000000E+00 -0.00000000000E+00 -0.13893471985E+03  0.13893471985E+03  0.00000000000E+00 0. -1.
         -6    2    1    2    0  504  0.38810429878E+03 -0.12316521931E+03  0.33674877718E+03  0.55698104686E+03  0.17616336071E+03 0.  0.
        -24    2    3    3    0    0  0.30634837525E+03 -0.15680711985E+03  0.24903396816E+03  0.43235445971E+03  0.80465282440E+02 0.  0.
          6    2    1    2  502    0 -0.38810429878E+03  0.12316521931E+03  0.16677704170E+04  0.17254075870E+04  0.17256465315E+03 0.  0.
         24    2    5    5    0    0 -0.36608408465E+03  0.66043791215E+02  0.15061514847E+04  0.15525188463E+04  0.58678223781E+02 0.  0.
          2    1    6    6  501    0 -0.23717762413E+03  0.51770751912E+02  0.10861440738E+04  0.11129431186E+04  0.00000000000E+00 0. -1.
         -1    1    6    6    0  501 -0.12890646052E+03  0.14273039304E+02  0.42000741088E+03  0.43957572773E+03  0.00000000000E+00 0.  1.
          5    1    5    5  502    0 -0.22020214124E+02  0.57121428091E+02  0.16161893231E+03  0.17288874070E+03  0.47000000000E+01 0. -1.
         13    1    4    4    0    0  0.21549400529E+03 -0.97047104920E+02  0.12485826730E+03  0.26729271184E+03  0.00000000000E+00 0. -1.
        -14    1    4    4    0    0  0.90854369957E+02 -0.59760014934E+02  0.12417570086E+03  0.16506174787E+03  0.00000000000E+00 0.  1.
         -5    1    3    3    0  504  0.81755923529E+02  0.33641900548E+02  0.87714809014E+02  0.12462658715E+03  0.47000000000E+01 0.  1.
<mgrwt>
<rscale>  2 0.44329860E+03</rscale>
<asrwt>0</asrwt>
<pdfrwt beam="1">  1       21 0.32976212E+00 0.44365318E+03</pdfrwt>
<pdfrwt beam="2">  1       21 0.21374574E-01 0.44365318E+03</pdfrwt>
<totfact> 0.36900846E+02</totfact>
</mgrwt>
</event>
<event>
12    1  0.2736842E-001  0.2052623E+03  0.7546771E-02  0.1145387E+00
         21   -1    0    0  502  503  0.00000000000E+00  0.00000000000E+00  0.22992700375E+02  0.22992700375E+02  0.00000000000E+00 0. -1.
         21   -1    0    0  503  504 -0.00000000000E+00 -0.00000000000E+00 -0.18516113626E+04  0.18516113626E+04  0.00000000000E+00 0.  1.
         -6    2    1    2    0  504  0.35898871976E+01  0.10995474795E+03 -0.10110363531E+04  0.10316488759E+04  0.17321074450E+03 0.  0.
        -24    2    3    3    0    0 -0.82649544144E+01  0.50917251820E+02 -0.24250618301E+03  0.26074896312E+03  0.80745878935E+02 0.  0.
          6    2    1    2  502    0 -0.35898871976E+01 -0.10995474795E+03 -0.81758230914E+03  0.84295518706E+03  0.17329074211E+03 0.  0.
         24    2    5    5    0    0 -0.58199810652E+02 -0.87426291152E+02 -0.68604028927E+03  0.69868055972E+03  0.80452915937E+02 0.  0.
          2    1    6    6  501    0 -0.62325819831E+02 -0.21365135043E+02 -0.36254760288E+03  0.36848574080E+03  0.00000000000E+00 0. -1.
         -1    1    6    6    0  501  0.41260091790E+01 -0.66061156109E+02 -0.32349268638E+03  0.33019481892E+03  0.00000000000E+00 0.  1.
          5    1    5    5  502    0  0.54609923455E+02 -0.22528456798E+02 -0.13154201987E+03  0.14427462735E+03  0.47000000000E+01 0. -1.
         13    1    4    4    0    0 -0.38591656952E+02  0.38313747123E+02 -0.93479872731E+02  0.10814687148E+03  0.00000000000E+00 0. -1.
        -14    1    4    4    0    0  0.30326702537E+02  0.12603504697E+02 -0.14902631028E+03  0.15260209164E+03  0.00000000000E+00 0.  1.
         -5    1    3    3    0  504  0.11854841612E+02  0.59037496130E+02 -0.76853017007E+03  0.77089991278E+03  0.47000000000E+01 0.  1.
<mgrwt>
<rscale>  2 0.20524542E+03</rscale>
<asrwt>0</asrwt>
<pdfrwt beam="1">  1       21 0.35373370E-02 0.20526231E+03</pdfrwt>
<pdfrwt beam="2">  1       21 0.28486341E+00 0.20526231E+03</pdfrwt>
<totfact> 0.19841019E+04</totfact>
</mgrwt>
</event>
<event>
12    1  0.2736842E-001  0.2423887E+03  0.7546771E-02  0.1118375E+00
         21   -1    0    0  502  503  0.00000000000E+00  0.00000000000E+00  0.61642364591E+03  0.61642364591E+03  0.00000000000E+00 0. -1.
         21   -1    0    0  503  504 -0.00000000000E+00 -0.00000000000E+00 -0.21732511630E+03  0.21732511630E+03  0.00000000000E+00 0.  1.
         -6    2    1    2    0  504 -0.13542104235E+03  0.10234955507E+03 -0.11312818768E+03  0.26748878704E+03  0.17302593509E+03 0.  0.
        -24    2    3    3    0    0 -0.16558638345E+03  0.72958991998E+02 -0.88935653410E+02  0.21869204827E+03  0.84704171273E+02 0.  0.
          6    2    1    2  502    0  0.13542104235E+03 -0.10234955507E+03  0.51222671728E+03  0.56625997517E+03  0.17163874691E+03 0.  0.
         24    2    5    5    0    0  0.33827728392E+02 -0.11020204745E+03  0.32784553551E+03  0.35554364151E+03  0.75098464653E+02 0.  0.
          4    1    6    6  501    0  0.31126517932E+02 -0.54868805439E+02  0.26202755337E+03  0.26951416411E+03  0.00000000000E+00 0. -1.
         -3    1    6    6    0  501  0.27012104599E+01 -0.55333242006E+02  0.65817982139E+02  0.86029477400E+02  0.00000000000E+00 0.  1.
          5    1    5    5  502    0  0.10159331396E+03  0.78524923763E+01  0.18438118177E+03  0.21071633366E+03  0.47000000000E+01 0. -1.
         11    1    4    4    0    0 -0.43735953781E+02 -0.17882299318E+02 -0.14283895880E+02  0.49362333449E+02  0.00000000000E+00 0. -1.
        -12    1    4    4    0    0 -0.12185042967E+03  0.90841291316E+02 -0.74651757530E+02  0.16932971482E+03  0.00000000000E+00 0.  1.
         -5    1    3    3    0  504  0.30165341096E+02  0.29390563071E+02 -0.24192534266E+02  0.48796738777E+02  0.47000000000E+01 0.  1.
<mgrwt>
<rscale>  2 0.24214122E+03</rscale>
<asrwt>0</asrwt>
<pdfrwt beam="1">  1       21 0.94834406E-01 0.24238866E+03</pdfrwt>
<pdfrwt beam="2">  1       21 0.33434634E-01 0.24238866E+03</pdfrwt>
<totfact> 0.77492101E+03</totfact>
</mgrwt>
</event>
<event>
12    1  0.2736842E-001  0.2898611E+03  0.7546771E-02  0.1090561E+00
         21   -1    0    0  502  503  0.00000000000E+00  0.00000000000E+00  0.10600261230E+03  0.10600261230E+03  0.00000000000E+00 0. -1.
         21   -1    0    0  503  504 -0.00000000000E+00 -0.00000000000E+00 -0.10099357592E+04  0.10099357592E+04  0.00000000000E+00 0. -1.
         -6    2    1    2    0  504 -0.21327955807E+03  0.91821936671E+02 -0.71186978569E+03  0.76822037647E+03  0.17171056196E+03 0.  0.
        -24    2    3    3    0    0 -0.19875674337E+03  0.12069913110E+03 -0.54350243353E+03  0.59671393408E+03  0.81241003134E+02 0.  0.
          6    2    1    2  502    0  0.21327955807E+03 -0.91821936671E+02 -0.19206336117E+03  0.34771799500E+03  0.17349360623E+03 0.  0.
         24    2    5    5    0    0  0.74577487027E+02  0.89574640237E+01 -0.11658989988E+03  0.16033313576E+03  0.80445459375E+02 0.  0.
          4    1    6    6  501    0  0.64789528220E+02 -0.25057430173E+02 -0.52334369342E+02  0.86973812083E+02  0.00000000000E+00 0. -1.
         -3    1    6    6    0  501  0.97879588071E+01  0.34014894197E+02 -0.64255530543E+02  0.73359323676E+02  0.00000000000E+00 0.  1.
          5    1    5    5  502    0  0.13870207104E+03 -0.10077940069E+03 -0.75473461281E+02  0.18738485924E+03  0.47000000000E+01 0. -1.
         13    1    4    4    0    0 -0.12531325048E+03  0.11886500660E+03 -0.39011462474E+03  0.42664003677E+03  0.00000000000E+00 0. -1.
        -14    1    4    4    0    0 -0.73443492891E+02  0.18341244969E+01 -0.15338780879E+03  0.17007389731E+03  0.00000000000E+00 0.  1.
         -5    1    3    3    0  504 -0.14522814701E+02 -0.28877194428E+02 -0.16836735216E+03  0.17150644238E+03  0.47000000000E+01 0.  1.
<mgrwt>
<rscale>  2 0.28959483E+03</rscale>
<asrwt>0</asrwt>
<pdfrwt beam="1">  1       21 0.16308094E-01 0.28986112E+03</pdfrwt>
<pdfrwt beam="2">  1       21 0.15537474E+00 0.28986112E+03</pdfrwt>
<totfact> 0.86074911E+03</totfact>
</mgrwt>
</event>
<event>
12    1  0.2736842E-001  0.1901029E+03  0.7546771E-02  0.1158481E+00
         21   -1    0    0  502  503  0.00000000000E+00  0.00000000000E+00  0.20261843993E+04  0.20261843993E+04  0.00000000000E+00 0.  1.
         21   -1    0    0  503  504 -0.00000000000E+00 -0.00000000000E+00 -0.17849609873E+02  0.17849609873E+02  0.00000000000E+00 0.  1.
         -6    2    1    2    0  504  0.18049086572E+02  0.75860875353E+02  0.94347788713E+03  0.96234120765E+03  0.17282775961E+03 0.  0.
        -24    2    3    3    0    0  0.51149634259E+02  0.66078453368E+02  0.89579682050E+03  0.90329109204E+03  0.80623856714E+02 0.  0.
          6    2    1    2  502    0 -0.18049086572E+02 -0.75860875353E+02  0.10648569023E+04  0.10816928016E+04  0.17337373670E+03 0.  0.
         24    2    5    5    0    0  0.57873862659E+02 -0.43837782823E+02  0.58960776209E+03  0.59933027402E+03  0.79298985251E+02 0.  0.
          4    1    6    6  501    0  0.58390201228E+02  0.45306681219E+01  0.35349876836E+03  0.35831734787E+03  0.00000000000E+00 0. -1.
         -3    1    6    6    0  501 -0.51633856860E+00 -0.48368450945E+02  0.23610899373E+03  0.24101292615E+03  0.00000000000E+00 0.  1.
          5    1    5    5  502    0 -0.75922949231E+02 -0.32023092530E+02  0.47524914024E+03  0.48236252754E+03  0.47000000000E+01 0. -1.
         11    1    4    4    0    0 -0.20036051754E+02  0.22182258165E+02  0.32935996720E+03  0.33071359806E+03  0.00000000000E+00 0. -1.
        -12    1    4    4    0    0  0.71185686013E+02  0.43896195203E+02  0.56643685329E+03  0.57257749398E+03  0.00000000000E+00 0.  1.
         -5    1    3    3    0  504 -0.33100547687E+02  0.97824219857E+01  0.47681066638E+02  0.59050115604E+02  0.47000000000E+01 0.  1.
<mgrwt>
<rscale>  2 0.18997828E+03</rscale>
<asrwt>0</asrwt>
<pdfrwt beam="1">  1       21 0.31172049E+00 0.19010285E+03</pdfrwt>
<pdfrwt beam="2">  1       21 0.27460954E-02 0.19010285E+03</pdfrwt>
<totfact> 0.21452156E+04</totfact>
</mgrwt>
</event>
<event>
12    1  0.2736842E-001  0.2080159E+03  0.7546771E-02  0.1143373E+00
         21   -1    0    0  502  503  0.00000000000E+00  0.00000000000E+00  0.58595954271E+02  0.58595954271E+02  0.00000000000E+00 0. -1.
         21   -1    0    0  503  504 -0.00000000000E+00 -0.00000000000E+00 -0.93286181094E+03  0.93286181094E+03  0.00000000000E+00 0. -1.
         -6    2    1    2    0  504  0.13666443649E+01  0.11337540186E+03 -0.66480956565E+03  0.69625860794E+03  0.17305617896E+03 0.  0.
        -24    2    3    3    0    0 -0.27526977925E+02  0.51773897208E+02 -0.57420575497E+03  0.58285346125E+03  0.81040960643E+02 0.  0.
          6    2    1    2  502    0 -0.13666443649E+01 -0.11337540186E+03 -0.20945629102E+03  0.29519915728E+03  0.17439826589E+03 0.  0.
         24    2    5    5    0    0  0.55338612762E+02 -0.71139944857E+02 -0.18357978330E+03  0.21976041613E+03  0.80435376817E+02 0.  0.
          2    1    6    6  501    0  0.21608491018E+02 -0.74086631894E+02 -0.16245094169E+03  0.17985011639E+03  0.00000000000E+00 0. -1.
         -1    1    6    6    0  501  0.33730121744E+02  0.29466870367E+01 -0.21128841608E+02  0.39910299737E+02  0.00000000000E+00 0.  1.
          5    1    5    5  502    0 -0.56705257127E+02 -0.42235457007E+02 -0.25876507717E+02  0.75438741148E+02  0.47000000000E+01 0. -1.
         11    1    4    4    0    0 -0.22366087823E+02  0.63093344981E+02 -0.55993219146E+03  0.56391938351E+03  0.00000000000E+00 0. -1.
        -12    1    4    4    0    0 -0.51608901026E+01 -0.11319447774E+02 -0.14273563516E+02  0.18934077744E+02  0.00000000000E+00 0.  1.
         -5    1    3    3    0  504  0.28893622290E+02  0.61601504656E+02 -0.90603810679E+02  0.11340514668E+03  0.47000000000E+01 0.  1.
<mgrwt>
<rscale>  2 0.20773433E+03</rscale>
<asrwt>0</asrwt>
<pdfrwt beam="1">  1       21 0.90147624E-02 0.20801588E+03</pdfrwt>
<pdfrwt beam="2">  1       21 0.14351720E+00 0.20801588E+03</pdfrwt>
<totfact> 0.32379431E+04</totfact>
</mgrwt>
</event>
<event>
12    1  0.2736842E-001  0.2171011E+03  0.7546771E-02  0.1136117E+00
         21   -1    0    0  502  503  0.00000000000E+00  0.00000000000E+00  0.70036174542E+03  0.70036174542E+03  0.00000000000E+00 0. -1.
         21   -1    0    0  503  504 -0.00000000000E+00 -0.00000000000E+00 -0.15236139936E+03  0.15236139936E+03  0.00000000000E+00 0. -1.
         -6    2    1    2    0  504 -0.13024858507E+03 -0.77827689569E+01 -0.44661378690E+02  0.22164727857E+03  0.17351545161E+03 0.  0.
        -24    2    3    3    0    0 -0.13025395830E+03  0.45030847046E+02 -0.13636971609E+02  0.16021534958E+03  0.80555076869E+02 0.  0.
          6    2    1    2  502    0  0.13024858507E+03  0.77827689569E+01  0.59266172475E+03  0.63107586622E+03  0.17315762625E+03 0.  0.
         24    2    5    5    0    0  0.77192765563E+02 -0.50231111792E+02  0.21852001506E+03  0.24873486753E+03  0.75074294511E+02 0.  0.
          4    1    6    6  501    0  0.32492646356E+02 -0.61327563217E+02  0.15891163909E+03  0.17340631798E+03  0.00000000000E+00 0. -1.
         -3    1    6    6    0  501  0.44700119207E+02  0.11096451426E+02  0.59608375966E+02  0.75328549546E+02  0.00000000000E+00 0.  1.
          5    1    5    5  502    0  0.53055819502E+02  0.58013880749E+02  0.37414170970E+03  0.38234099869E+03  0.47000000000E+01 0. -1.
         13    1    4    4    0    0 -0.40311584797E+02 -0.13481056477E+02 -0.29513017178E+02  0.51747279499E+02  0.00000000000E+00 0. -1.
        -14    1    4    4    0    0 -0.89942373501E+02  0.58511903523E+02  0.15876045569E+02  0.10846807008E+03  0.00000000000E+00 0.  1.
         -5    1    3    3    0  504  0.53732327958E-02 -0.52813616003E+02 -0.31024407081E+02  0.61431928986E+02  0.47000000000E+01 0.  1.
<mgrwt>
<rscale>  2 0.21702957E+03</rscale>
<asrwt>0</asrwt>
<pdfrwt beam="1">  1       21 0.10774796E+00 0.21710108E+03</pdfrwt>
<pdfrwt beam="2">  1       21 0.23440216E-01 0.21710108E+03</pdfrwt>
<totfact> 0.11563125E+04</totfact>
</mgrwt>
</event>
<event>
12    1  0.2736842E-001  0.1752097E+03  0.7546771E-02  0.1172673E+00
         21   -1    0    0  502  503  0.00000000000E+00  0.00000000000E+00  0.58600615324E+02  0.58600615324E+02  0.00000000000E+00 0.  1.
         21   -1    0    0  503  504 -0.00000000000E+00 -0.00000000000E+00 -0.53713979318E+03  0.53713979318E+03  0.00000000000E+00 0.  1.
         -6    2    1    2    0  504  0.23981616464E+02  0.57122533946E+01 -0.18974846773E+03  0.25826909586E+03  0.17346670315E+03 0.  0.
        -24    2    3    3    0    0 -0.50171032842E+02 -0.20585964178E+02 -0.10829707536E+03  0.14492611651E+03  0.79588995846E+02 0.  0.
          6    2    1    2  502    0 -0.23981616464E+02 -0.57122533946E+01 -0.28879071012E+03  0.33747131264E+03  0.17285561847E+03 0.  0.
         24    2    5    5    0    0  0.17846331402E+02 -0.62531515205E+02 -0.16651640896E+03  0.19622294820E+03  0.80913836926E+02 0.  0.
          2    1    6    6  501    0  0.81647832375E+01 -0.59405080846E+02 -0.46773436476E+02  0.76048548148E+02  0.00000000000E+00 0. -1.
         -1    1    6    6    0  501  0.96815481646E+01 -0.31264343590E+01 -0.11974297249E+03  0.12017440005E+03  0.00000000000E+00 0.  1.
          5    1    5    5  502    0 -0.41827947866E+02  0.56819261811E+02 -0.12227430116E+03  0.14124836445E+03  0.47000000000E+01 0. -1.
         13    1    4    4    0    0 -0.45769340354E+02 -0.44030751572E+02 -0.10216456126E+03  0.12029603974E+03  0.00000000000E+00 0. -1.
        -14    1    4    4    0    0 -0.44016924874E+01  0.23444787394E+02 -0.61325140993E+01  0.24630076774E+02  0.00000000000E+00 0.  1.
         -5    1    3    3    0  504  0.74152649306E+02  0.26298217573E+02 -0.81451392374E+02  0.11334297934E+03  0.47000000000E+01 0.  1.
<mgrwt>
<rscale>  2 0.17505827E+03</rscale>
<asrwt>0</asrwt>
<pdfrwt beam="1">  1       21 0.90154796E-02 0.17520972E+03</pdfrwt>
<pdfrwt beam="2">  1       21 0.82636889E-01 0.17520972E+03</pdfrwt>
<totfact> 0.12525567E+05</totfact>
</mgrwt>
</event>
<event>
12    1  0.2736842E-001  0.2927211E+03  0.7546771E-02  0.1089033E+00
         21   -1    0    0  502  503  0.00000000000E+00  0.00000000000E+00  0.30809030547E+03  0.30809030547E+03  0.00000000000E+00 0.  1.
         21   -1    0    0  503  504 -0.00000000000E+00 -0.00000000000E+00 -0.28750947243E+03  0.28750947243E+03  0.00000000000E+00 0. -1.
         -6    2    1    2    0  504 -0.90924399535E+02  0.21785112605E+03 -0.45521235618E+02  0.29550793861E+03  0.17183247463E+03 0.  0.
        -24    2    3    3    0    0 -0.50650016224E+02  0.74444922701E+02 -0.76929425401E+02  0.14320583916E+03  0.80512764322E+02 0.  0.
          6    2    1    2  502    0  0.90924399535E+02 -0.21785112605E+03  0.66102068659E+02  0.30009183929E+03  0.17308746048E+03 0.  0.
         24    2    5    5    0    0  0.12914756865E+03 -0.16403081688E+03  0.67462138297E+02  0.23389836434E+03  0.81068497959E+02 0.  0.
          2    1    6    6  501    0  0.20484822420E+02 -0.23030741223E+02  0.44899724843E+02  0.54461254869E+02  0.00000000000E+00 0. -1.
         -1    1    6    6    0  501  0.10866274623E+03 -0.14100007565E+03  0.22562413454E+02  0.17943710947E+03  0.00000000000E+00 0.  1.
          5    1    5    5  502    0 -0.38223169118E+02 -0.53820309177E+02 -0.13600696381E+01  0.66193474955E+02  0.47000000000E+01 0. -1.
         13    1    4    4    0    0  0.14617068776E+02  0.40012089861E+02 -0.10398969026E+02  0.43849339693E+02  0.00000000000E+00 0. -1.
        -14    1    4    4    0    0 -0.65267085000E+02  0.34432832840E+02 -0.66530456375E+02  0.99356499472E+02  0.00000000000E+00 0.  1.
         -5    1    3    3    0  504 -0.40274383311E+02  0.14340620335E+03  0.31408189783E+02  0.15230209945E+03  0.47000000000E+01 0.  1.
<mgrwt>
<rscale>  2 0.29253582E+03</rscale>
<asrwt>0</asrwt>
<pdfrwt beam="1">  1       21 0.47398509E-01 0.29272108E+03</pdfrwt>
<pdfrwt beam="2">  1       21 0.44232226E-01 0.29272108E+03</pdfrwt>
<totfact> 0.19880256E+04</totfact>
</mgrwt>
</event>
<event>
12    1  0.2736842E-001  0.1745788E+03  0.7546771E-02  0.1173399E+00
         21   -1    0    0  502  503  0.00000000000E+00  0.00000000000E+00  0.26776009599E+02  0.26776009599E+02  0.00000000000E+00 0. -1.
         21   -1    0    0  503  504 -0.00000000000E+00 -0.00000000000E+00 -0.12760341968E+04  0.12760341968E+04  0.00000000000E+00 0. -1.
         -6    2    1    2    0  504 -0.18993346096E+02  0.99927631770E+00 -0.84196654014E+03  0.85968014884E+03  0.17257044311E+03 0.  0.
        -24    2    3    3    0    0 -0.30041425578E+01  0.63756383679E+02 -0.40276967148E+03  0.41570932930E+03  0.80727547177E+02 0.  0.
          6    2    1    2  502    0  0.18993346096E+02 -0.99927631770E+00 -0.40729164705E+03  0.44313005756E+03  0.17353966809E+03 0.  0.
         24    2    5    5    0    0  0.33765856980E+02  0.74203785367E+01 -0.41331252736E+03  0.42448981439E+03  0.90383417322E+02 0.  0.
          2    1    6    6  501    0  0.27491189405E+02  0.18311855975E+02 -0.41021683753E+03  0.41154458247E+03  0.00000000000E+00 0. -1.
         -1    1    6    6    0  501  0.62746675748E+01 -0.10891477438E+02 -0.30956898353E+01  0.12945231922E+02  0.00000000000E+00 0.  1.
          5    1    5    5  502    0 -0.14772510883E+02 -0.84196548544E+01  0.60208803125E+01  0.18640243169E+02  0.47000000000E+01 0. -1.
         13    1    4    4    0    0  0.25096192315E+02  0.56909558234E+02 -0.35045940848E+03  0.35593582803E+03  0.00000000000E+00 0. -1.
        -14    1    4    4    0    0 -0.28100334873E+02  0.68468254454E+01 -0.52310262998E+02  0.59773501266E+02  0.00000000000E+00 0.  1.
         -5    1    3    3    0  504 -0.15989203539E+02 -0.62757107361E+02 -0.43919686867E+03  0.44397081954E+03  0.47000000000E+01 0.  1.
<mgrwt>
<rscale>  2 0.17433746E+03</rscale>
<asrwt>0</asrwt>
<pdfrwt beam="1">  1       21 0.41193855E-02 0.17457881E+03</pdfrwt>
<pdfrwt beam="2">  1       21 0.19631298E+00 0.17457881E+03</pdfrwt>
<totfact> 0.53525724E+04</totfact>
</mgrwt>
</event>
<event>
12    1  0.2736842E-001  0.1799396E+03  0.7546771E-02  0.1168150E+00
         21   -1    0    0  502  503  0.00000000000E+00  0.00000000000E+00  0.68239933274E+03  0.68239933274E+03  0.00000000000E+00 0. -1.
         21   -1    0    0  503  504 -0.00000000000E+00 -0.00000000000E+00 -0.76749958205E+02  0.76749958205E+02  0.00000000000E+00 0. -1.
         -6    2    1    2    0  504  0.43781282503E+02  0.16213980825E+02  0.66423539873E+02  0.19069280932E+03  0.17254555052E+03 0.  0.
        -24    2    3    3    0    0  0.97059351839E+01  0.19501794769E+02 -0.29706222376E+02  0.88541156343E+02  0.80514294021E+02 0.  0.
          6    2    1    2  502    0 -0.43781282503E+02 -0.16213980825E+02  0.53922583466E+03  0.56845648163E+03  0.17377737731E+03 0.  0.
         24    2    5    5    0    0 -0.29136449580E+02 -0.31630707008E+02  0.12869654562E+03  0.15735000668E+03  0.79666739792E+02 0.  0.
          4    1    6    6  501    0  0.17294419663E+01  0.13149417714E+02  0.89084765312E+02  0.90066606277E+02  0.00000000000E+00 0. -1.
         -3    1    6    6    0  501 -0.30865891547E+02 -0.44780124722E+02  0.39611780306E+02  0.67283400405E+02  0.00000000000E+00 0.  1.
          5    1    5    5  502    0 -0.14644832923E+02  0.15416726184E+02  0.41052928904E+03  0.41110647494E+03  0.47000000000E+01 0. -1.
         11    1    4    4    0    0 -0.28051705221E+02 -0.73176580971E+01  0.65535857380E+01  0.29721974561E+02  0.00000000000E+00 0. -1.
        -12    1    4    4    0    0  0.37757640404E+02  0.26819452866E+02 -0.36259808114E+02  0.58819181781E+02  0.00000000000E+00 0.  1.
         -5    1    3    3    0  504  0.34075347320E+02 -0.32878139445E+01  0.96129762249E+02  0.10215165298E+03  0.47000000000E+01 0.  1.
<mgrwt>
<rscale>  2 0.17964155E+03</rscale>
<asrwt>0</asrwt>
<pdfrwt beam="1">  1       21 0.10498451E+00 0.17993963E+03</pdfrwt>
<pdfrwt beam="2">  1       21 0.11807686E-01 0.17993963E+03</pdfrwt>
<totfact> 0.44438523E+04</totfact>
</mgrwt>
</event>
<event>
12    1  0.2736842E-001  0.2363828E+03  0.7546771E-02  0.1122588E+00
         21   -1    0    0  502  503  0.00000000000E+00  0.00000000000E+00  0.17576508453E+03  0.17576508453E+03  0.00000000000E+00 0. -1.
         21   -1    0    0  503  504 -0.00000000000E+00 -0.00000000000E+00 -0.34060225079E+03  0.34060225079E+03  0.00000000000E+00 0.  1.
         -6    2    1    2    0  504 -0.11589370159E+03  0.11051957475E+03 -0.15345771228E+03  0.28182637948E+03  0.17387038920E+03 0.  0.
        -24    2    3    3    0    0 -0.26097204207E+01  0.75960658292E+02 -0.76199068638E+02  0.14033939381E+03  0.90066726069E+02 0.  0.
          6    2    1    2  502    0  0.11589370159E+03 -0.11051957475E+03 -0.11379453982E+02  0.23454095584E+03  0.17097965237E+03 0.  0.
         24    2    5    5    0    0  0.26300938055E+02 -0.18083834418E+00  0.25827381891E+02  0.87544565868E+02  0.79405448885E+02 0.  0.
          4    1    6    6  501    0 -0.10501032208E+02 -0.32808174262E+02  0.11525741571E+02  0.36324794488E+02  0.00000000000E+00 0. -1.
         -3    1    6    6    0  501  0.36801970263E+02  0.32627335918E+02  0.14301640320E+02  0.51219771380E+02  0.00000000000E+00 0.  1.
          5    1    5    5  502    0  0.89592763538E+02 -0.11033873641E+03 -0.37206835873E+02  0.14699638998E+03  0.47000000000E+01 0. -1.
         11    1    4    4    0    0 -0.31035950283E+02  0.42675010342E+02 -0.35262908616E+00  0.52768466578E+02  0.00000000000E+00 0. -1.
        -12    1    4    4    0    0  0.28426229863E+02  0.33285647950E+02 -0.75846439552E+02  0.87570927233E+02  0.00000000000E+00 0.  1.
         -5    1    3    3    0  504 -0.11328398117E+03  0.34558916459E+02 -0.77258643637E+02  0.14148698567E+03  0.47000000000E+01 0.  1.
<mgrwt>
<rscale>  2 0.23585151E+03</rscale>
<asrwt>0</asrwt>
<pdfrwt beam="1">  1       21 0.27040783E-01 0.23638282E+03</pdfrwt>
<pdfrwt beam="2">  1       21 0.52400345E-01 0.23638282E+03</pdfrwt>
<totfact> 0.44093388E+04</totfact>
</mgrwt>
</event>
<event>
12    1  0.2736842E-001  0.2067122E+03  0.7546771E-02  0.1144334E+00
         21   -1    0    0  502  503  0.00000000000E+00  0.00000000000E+00  0.33634902659E+03  0.33634902659E+03  0.00000000000E+00 0.  1.
         21   -1    0    0  503  504 -0.00000000000E+00 -0.00000000000E+00 -0.13403408413E+03  0.13403408413E+03  0.00000000000E+00 0. -1.
         -6    2    1    2    0  504 -0.90533763764E+02 -0.65829649618E+02  0.46012968442E+02  0.21177141392E+03  0.17378156789E+03 0.  0.
        -24    2    3    3    0    0  0.11300755404E+01  0.16473869507E+02  0.88041580153E+01  0.82997525768E+02  0.80860439264E+02 0.  0.
          6    2    1    2  502    0  0.90533763764E+02  0.65829649618E+02  0.15630197401E+03  0.25861169680E+03  0.17297340111E+03 0.  0.
         24    2    5    5    0    0  0.20372150068E+02  0.79728143380E+02  0.14648187465E+03  0.18626292682E+03  0.80407319083E+02 0.  0.
          2    1    6    6  501    0 -0.18675062729E+02  0.46505401942E+02  0.28568149536E+02  0.57685782872E+02  0.00000000000E+00 0. -1.
         -1    1    6    6    0  501  0.39047212797E+02  0.33222741439E+02  0.11791372512E+03  0.12857714395E+03  0.00000000000E+00 0.  1.
          5    1    5    5  502    0  0.70161613696E+02 -0.13898493763E+02  0.98200993611E+01  0.72348769974E+02  0.47000000000E+01 0. -1.
         13    1    4    4    0    0 -0.18664020585E+02  0.99343754586E+01 -0.31315655434E+02  0.37785020252E+02  0.00000000000E+00 0. -1.
        -14    1    4    4    0    0  0.19794096126E+02  0.65394940479E+01  0.40119813449E+02  0.45212505516E+02  0.00000000000E+00 0.  1.
         -5    1    3    3    0  504 -0.91663839304E+02 -0.82303519124E+02  0.37208810426E+02  0.12877388815E+03  0.47000000000E+01 0.  1.
<mgrwt>
<rscale>  2 0.20654226E+03</rscale>
<asrwt>0</asrwt>
<pdfrwt beam="1">  1       21 0.51746004E-01 0.20671221E+03</pdfrwt>
<pdfrwt beam="2">  1       21 0.20620628E-01 0.20671221E+03</pdfrwt>
<totfact> 0.76845375E+04</totfact>
</mgrwt>
</event>
<event>
12    1  0.2736842E-001  0.2991102E+03  0.7546771E-02  0.1086601E+00
         21   -1    0    0  502  503  0.00000000000E+00  0.00000000000E+00  0.54655099733E+03  0.54655099733E+03  0.00000000000E+00 0.  1.
         21   -1    0    0  503  504 -0.00000000000E+00 -0.00000000000E+00 -0.16461803812E+03  0.16461803812E+03  0.00000000000E+00 0. -1.
         -6    2    1    2    0  504  0.23015984543E+03  0.45044630929E+02  0.12774094116E+03  0.31863813742E+03  0.17381007264E+03 0.  0.
        -24    2    3    3    0    0  0.98100508700E+02  0.27662640813E+01 -0.47764581321E+01  0.12677860590E+03  0.80116404927E+02 0.  0.
          6    2    1    2  502    0 -0.23015984543E+03 -0.45044630929E+02  0.25419201805E+03  0.39253089803E+03  0.18564576656E+03 0.  0.
         24    2    5    5    0    0 -0.18791368056E+03  0.32977023200E+02  0.20324272024E+03  0.29011001194E+03  0.80356582161E+02 0.  0.
          4    1    6    6  501    0 -0.87075312472E+02  0.10894753208E+02  0.38794087492E+02  0.95946792098E+02  0.00000000000E+00 0. -1.
         -3    1    6    6    0  501 -0.10083836809E+03  0.22082269992E+02  0.16444863275E+03  0.19416321984E+03  0.00000000000E+00 0.  1.
          5    1    5    5  502    0 -0.42246164872E+02 -0.78021654129E+02  0.50949297809E+02  0.10242088609E+03  0.47000000000E+01 0. -1.
         11    1    4    4    0    0  0.65163170217E+02  0.39305777557E+02 -0.12057643656E+02  0.77049138040E+02  0.00000000000E+00 0. -1.
        -12    1    4    4    0    0  0.32937338482E+02 -0.36539513476E+02  0.72811855242E+01  0.49729467864E+02  0.00000000000E+00 0.  1.
         -5    1    3    3    0  504  0.13205933673E+03  0.42278366848E+02  0.13251739929E+03  0.19185953152E+03  0.47000000000E+01 0.  1.
<mgrwt>
<rscale>  2 0.29729415E+03</rscale>
<asrwt>0</asrwt>
<pdfrwt beam="1">  1       21 0.84084768E-01 0.29911022E+03</pdfrwt>
<pdfrwt beam="2">  1       21 0.25325852E-01 0.29911022E+03</pdfrwt>
<totfact> 0.17178033E+04</totfact>
</mgrwt>
</event>
<event>
12    1  0.2736842E-001  0.1966579E+03  0.7546771E-02  0.1152796E+00
         21   -1    0    0  502  503  0.00000000000E+00  0.00000000000E+00  0.73805375967E+03  0.73805375967E+03  0.00000000000E+00 0.  1.
         21   -1    0    0  503  504 -0.00000000000E+00 -0.00000000000E+00 -0.68454390197E+02  0.68454390197E+02  0.00000000000E+00 0.  1.
         -6    2    1    2    0  504 -0.84726210033E+02 -0.38100853905E+02  0.13859781504E+03  0.24059027911E+03  0.17333240416E+03 0.  0.
        -24    2    3    3    0    0 -0.63505432461E+02 -0.92487150998E+02  0.10417182243E+03  0.17265332539E+03  0.79815970393E+02 0.  0.
          6    2    1    2  502    0  0.84726210033E+02  0.38100853905E+02  0.53100155443E+03  0.56591787076E+03  0.17225034080E+03 0.  0.
         24    2    5    5    0    0  0.12563791875E+03  0.37289843199E+02  0.40069409225E+03  0.42925569476E+03  0.80803941057E+02 0.  0.
          2    1    6    6  501    0  0.19143663055E+02 -0.24149203349E+02  0.89389309329E+02  0.94552168034E+02  0.00000000000E+00 0. -1.
         -1    1    6    6    0  501  0.10649425569E+03  0.61439046548E+02  0.31130478292E+03  0.33470352673E+03  0.00000000000E+00 0.  1.
          5    1    5    5  502    0 -0.40911708716E+02  0.81101070565E+00  0.13030746218E+03  0.13666217600E+03  0.47000000000E+01 0. -1.
         11    1    4    4    0    0 -0.13126657805E+01 -0.37953706915E+02  0.76542106189E+02  0.85445309876E+02  0.00000000000E+00 0. -1.
        -12    1    4    4    0    0 -0.62192766681E+02 -0.54533444083E+02  0.27629716239E+02  0.87208015517E+02  0.00000000000E+00 0.  1.
         -5    1    3    3    0  504 -0.21220777571E+02  0.54386297093E+02  0.34425992615E+02  0.67936953713E+02  0.47000000000E+01 0.  1.
<mgrwt>
<rscale>  2 0.19641920E+03</rscale>
<asrwt>0</asrwt>
<pdfrwt beam="1">  1       21 0.11354673E+00 0.19665790E+03</pdfrwt>
<pdfrwt beam="2">  1       21 0.10531445E-01 0.19665790E+03</pdfrwt>
<totfact> 0.44676264E+04</totfact>
</mgrwt>
</event>
<event>
12    1  0.2736842E-001  0.2396672E+03  0.7546771E-02  0.1121631E+00
         21   -1    0    0  502  503  0.00000000000E+00  0.00000000000E+00  0.20331607441E+03  0.20331607441E+03  0.00000000000E+00 0. -1.
         21   -1    0    0  503  504 -0.00000000000E+00 -0.00000000000E+00 -0.87987504798E+03  0.87987504798E+03  0.00000000000E+00 0. -1.
         -6    2    1    2    0  504  0.14922072513E+03  0.37780180949E+02 -0.79072317428E+03  0.82624662393E+03  0.18370132917E+03 0.  0.
        -24    2    3    3    0    0  0.10452574496E+03 -0.52454954863E+02 -0.55976496412E+03  0.57424700919E+03  0.52399034968E+02 0.  0.
          6    2    1    2  502    0 -0.14922072513E+03 -0.37780180949E+02  0.11416420071E+03  0.25694449847E+03  0.17115152260E+03 0.  0.
         24    2    5    5    0    0 -0.75733658345E+01 -0.10864743780E+02  0.16666509457E+02  0.82828718156E+02  0.80046395836E+02 0.  0.
          2    1    6    6  501    0 -0.21413443646E+02  0.20215529171E+02  0.33722274602E+02  0.44770470098E+02  0.00000000000E+00 0. -1.
         -1    1    6    6    0  501  0.13840077812E+02 -0.31080272950E+02 -0.17055765146E+02  0.38058248057E+02  0.00000000000E+00 0.  1.
          5    1    5    5  502    0 -0.14164735930E+03 -0.26915437170E+02  0.97497691250E+02  0.17411578031E+03  0.47000000000E+01 0. -1.
         13    1    4    4    0    0  0.33746250689E+02  0.55664172693E+01 -0.10732084964E+03  0.11263906607E+03  0.00000000000E+00 0. -1.
        -14    1    4    4    0    0  0.70779494269E+02 -0.58021372133E+02 -0.45244411448E+03  0.46160794313E+03  0.00000000000E+00 0.  1.
         -5    1    3    3    0  504  0.44694980173E+02  0.90235135813E+02 -0.23095821016E+03  0.25199961473E+03  0.47000000000E+01 0.  1.
<mgrwt>
<rscale>  2 0.23726166E+03</rscale>
<asrwt>0</asrwt>
<pdfrwt beam="1">  1       21 0.31279396E-01 0.23966716E+03</pdfrwt>
<pdfrwt beam="2">  1       21 0.13536539E+00 0.23966716E+03</pdfrwt>
<totfact> 0.36914929E+03</totfact>
</mgrwt>
</event>
<event>
12    1  0.2736842E-001  0.3258375E+03  0.7546771E-02  0.1073008E+00
         21   -1    0    0  502  503  0.00000000000E+00  0.00000000000E+00  0.53948237047E+03  0.53948237047E+03  0.00000000000E+00 0. -1.
         21   -1    0    0  503  504 -0.00000000000E+00 -0.00000000000E+00 -0.23008703193E+03  0.23008703193E+03  0.00000000000E+00 0.  1.
         -6    2    1    2    0  504 -0.13827822010E+03  0.23891475182E+03  0.81510149902E+01  0.32581472520E+03  0.17288051167E+03 0.  0.
        -24    2    3    3    0    0 -0.43307539666E+02  0.65693322947E+02  0.50816300505E+02  0.12365758297E+03  0.80732556989E+02 0.  0.
          6    2    1    2  502    0  0.13827822010E+03 -0.23891475182E+03  0.30124432355E+03  0.44375467721E+03  0.17311541318E+03 0.  0.
         24    2    5    5    0    0 -0.13781771062E+00 -0.90456698300E+02  0.89316618063E+02  0.15026833079E+03  0.80129143985E+02 0.  0.
          4    1    6    6  501    0 -0.21826786008E+02 -0.85696406324E+02  0.92343508361E+02  0.12785775761E+03  0.00000000000E+00 0. -1.
         -3    1    6    6    0  501  0.21688968298E+02 -0.47602919762E+01 -0.30268902986E+01  0.22410573183E+02  0.00000000000E+00 0.  1.
          5    1    5    5  502    0  0.13841603781E+03 -0.14845805352E+03  0.21192770549E+03  0.29348634642E+03  0.47000000000E+01 0. -1.
         13    1    4    4    0    0  0.10454254675E+02  0.25842959232E+02 -0.13381574111E+02  0.30922750659E+02  0.00000000000E+00 0. -1.
        -14    1    4    4    0    0 -0.53761794342E+02  0.39850363715E+02  0.64197874616E+02  0.92734832314E+02  0.00000000000E+00 0.  1.
         -5    1    3    3    0  504 -0.94970680435E+02  0.17322142887E+03 -0.42665285515E+02  0.20215714222E+03  0.47000000000E+01 0.  1.
<mgrwt>
<rscale>  2 0.32580630E+03</rscale>
<asrwt>0</asrwt>
<pdfrwt beam="1">  1       21 0.82997288E-01 0.32583749E+03</pdfrwt>
<pdfrwt beam="2">  1       21 0.35398005E-01 0.32583749E+03</pdfrwt>
<totfact> 0.90472788E+03</totfact>
</mgrwt>
</event>
<event>
12    1  0.2736842E-001  0.1833058E+03  0.7546771E-02  0.1164660E+00
         21   -1    0    0  502  503  0.00000000000E+00  0.00000000000E+00  0.40749609672E+03  0.40749609672E+03  0.00000000000E+00 0. -1.
         21   -1    0    0  503  504 -0.00000000000E+00 -0.00000000000E+00 -0.12353284640E+03  0.12353284640E+03  0.00000000000E+00 0.  1.
         -6    2    1    2    0  504  0.34189046658E+02 -0.50437509010E+02 -0.11210483664E+02  0.18356882030E+03  0.17279757989E+03 0.  0.
        -24    2    3    3    0    0  0.37682585041E+02 -0.79981205588E+02 -0.53527216354E+02  0.13162817453E+03  0.81509772272E+02 0.  0.
          6    2    1    2  502    0 -0.34189046658E+02  0.50437509010E+02  0.29517373398E+03  0.34746012282E+03  0.17288195537E+03 0.  0.
         24    2    5    5    0    0  0.83115190667E+01  0.50696549401E+02  0.28821720495E+03  0.30413751343E+03  0.82409030880E+02 0.  0.
          4    1    6    6  501    0 -0.22198715928E+02 -0.10263847712E+02  0.12302590246E+03  0.12543325809E+03  0.00000000000E+00 0. -1.
         -3    1    6    6    0  501  0.30510234994E+02  0.60960397112E+02  0.16519130249E+03  0.17870425533E+03  0.00000000000E+00 0.  1.
          5    1    5    5  502    0 -0.42500565724E+02 -0.25904039053E+00  0.69565290281E+01  0.43322609397E+02  0.47000000000E+01 0. -1.
         11    1    4    4    0    0  0.48208265137E+01 -0.17142161928E+02  0.21816810436E+02  0.28161450627E+02  0.00000000000E+00 0. -1.
        -12    1    4    4    0    0  0.32861758527E+02 -0.62839043660E+02 -0.75344026789E+02  0.10346672390E+03  0.00000000000E+00 0.  1.
         -5    1    3    3    0  504 -0.34935383830E+01  0.29543696578E+02  0.42316732689E+02  0.51940645774E+02  0.47000000000E+01 0.  1.
<mgrwt>
<rscale>  2 0.18328587E+03</rscale>
<asrwt>0</asrwt>
<pdfrwt beam="1">  1       21 0.62691707E-01 0.18330577E+03</pdfrwt>
<pdfrwt beam="2">  1       21 0.19005053E-01 0.18330577E+03</pdfrwt>
<totfact> 0.60095075E+04</totfact>
</mgrwt>
</event>
<event>
12    1  0.2736842E-001  0.1860234E+03  0.7546771E-02  0.1162161E+00
         21   -1    0    0  502  503  0.00000000000E+00  0.00000000000E+00  0.14806666268E+03  0.14806666268E+03  0.00000000000E+00 0.  1.
         21   -1    0    0  503  504 -0.00000000000E+00 -0.00000000000E+00 -0.55668347609E+03  0.55668347609E+03  0.00000000000E+00 0.  1.
         -6    2    1    2    0  504  0.66890450152E+02 -0.11269483392E+02 -0.47278886769E+03  0.50796915454E+03  0.17292199101E+03 0.  0.
        -24    2    3    3    0    0 -0.36293538666E+01  0.35209169793E+02 -0.33696757348E+03  0.34796033628E+03  0.79223684581E+02 0.  0.
          6    2    1    2  502    0 -0.66890450152E+02  0.11269483392E+02  0.64172054290E+02  0.19678098423E+03  0.17321480775E+03 0.  0.
         24    2    5    5    0    0 -0.64475870140E+02  0.27034135977E+02  0.10673072735E+03  0.15108979120E+03  0.80924004523E+02 0.  0.
          4    1    6    6  501    0 -0.23747205199E+02 -0.28369305321E+02  0.48387293728E+02  0.60910404969E+02  0.00000000000E+00 0. -1.
         -3    1    6    6    0  501 -0.40728664941E+02  0.55403441297E+02  0.58343433617E+02  0.90179386235E+02  0.00000000000E+00 0.  1.
          5    1    5    5  502    0 -0.24145800121E+01 -0.15764652584E+02 -0.42558673056E+02  0.45691193024E+02  0.47000000000E+01 0. -1.
         11    1    4    4    0    0  0.22006232701E+02  0.13745081327E+02 -0.32146227082E+02  0.41310791011E+02  0.00000000000E+00 0. -1.
        -12    1    4    4    0    0 -0.25635586567E+02  0.21464088466E+02 -0.30482134640E+03  0.30664954527E+03  0.00000000000E+00 0.  1.
         -5    1    3    3    0  504  0.70519804018E+02 -0.46478653186E+02 -0.13582129421E+03  0.16000881826E+03  0.47000000000E+01 0.  1.
<mgrwt>
<rscale>  2 0.18595520E+03</rscale>
<asrwt>0</asrwt>
<pdfrwt beam="1">  1       21 0.22779487E-01 0.18602339E+03</pdfrwt>
<pdfrwt beam="2">  1       21 0.85643612E-01 0.18602339E+03</pdfrwt>
<totfact> 0.21371725E+04</totfact>
</mgrwt>
</event>
<event>
12    1  0.2736842E-001  0.1725224E+03  0.7546771E-02  0.1175410E+00
         21   -1    0    0  502  503  0.00000000000E+00  0.00000000000E+00  0.12764376621E+03  0.12764376621E+03  0.00000000000E+00 0.  1.
         21   -1    0    0  503  504 -0.00000000000E+00 -0.00000000000E+00 -0.28313089428E+03  0.28313089428E+03  0.00000000000E+00 0.  1.
         -6    2    1    2    0  504 -0.57516404058E+01 -0.64443955972E+01 -0.16489189207E+03  0.23864891887E+03  0.17230600339E+03 0.  0.
        -24    2    3    3    0    0 -0.63541766239E+01  0.22655033235E+02 -0.13733883461E+02  0.84642511936E+02  0.80138063243E+02 0.  0.
          6    2    1    2  502    0  0.57516404058E+01  0.64443955972E+01  0.94047640032E+01  0.17212574162E+03  0.17165141928E+03 0.  0.
         24    2    5    5    0    0 -0.60813280302E+02  0.22201272269E+02  0.96939731092E+01  0.10355941262E+03  0.80246042116E+02 0.  0.
          4    1    6    6  501    0 -0.33344113099E+02  0.47528538543E+02 -0.13466692703E+02  0.59599862976E+02  0.00000000000E+00 0. -1.
         -3    1    6    6    0  501 -0.27469167203E+02 -0.25327266273E+02  0.23160665812E+02  0.43959549640E+02  0.00000000000E+00 0.  1.
          5    1    5    5  502    0  0.66564920708E+02 -0.15756876672E+02 -0.28920910599E+00  0.68566329005E+02  0.47000000000E+01 0. -1.
         11    1    4    4    0    0 -0.37435705389E+02  0.23760075335E+02 -0.25780906191E+02  0.51289651412E+02  0.00000000000E+00 0. -1.
        -12    1    4    4    0    0  0.31081528765E+02 -0.11050420998E+01  0.12047022731E+02  0.33352860524E+02  0.00000000000E+00 0.  1.
         -5    1    3    3    0  504  0.60253621811E+00 -0.29099428832E+02 -0.15115800861E+03  0.15400640693E+03  0.47000000000E+01 0.  1.
<mgrwt>
<rscale>  2 0.17235870E+03</rscale>
<asrwt>0</asrwt>
<pdfrwt beam="1">  1       21 0.19637503E-01 0.17252238E+03</pdfrwt>
<pdfrwt beam="2">  1       21 0.43558598E-01 0.17252238E+03</pdfrwt>
<totfact> 0.12185880E+05</totfact>
</mgrwt>
</event>
<event>
12    1  0.2736842E-001  0.1932084E+03  0.7546771E-02  0.1155969E+00
         21   -1    0    0  502  503  0.00000000000E+00  0.00000000000E+00  0.36352493059E+03  0.36352493059E+03  0.00000000000E+00 0. -1.
         21   -1    0    0  503  504 -0.00000000000E+00 -0.00000000000E+00 -0.19733435317E+03  0.19733435317E+03  0.00000000000E+00 0. -1.
         -6    2    1    2    0  504 -0.82714978781E+02 -0.16881776711E+02 -0.11220835890E+03  0.22198550082E+03  0.17193046463E+03 0.  0.
        -24    2    3    3    0    0 -0.72380605847E+02 -0.34908641968E+02 -0.14561090729E+03  0.18236748251E+03  0.74818426659E+02 0.  0.
          6    2    1    2  502    0  0.82714978781E+02  0.16881776711E+02  0.27839893631E+03  0.33887378295E+03  0.17378927162E+03 0.  0.
         24    2    5    5    0    0 -0.10013017830E+02  0.99082632483E+00  0.20119162272E+03  0.21707861501E+03  0.80893842660E+02 0.  0.
          2    1    6    6  501    0  0.18091555233E+02  0.11332651730E+02  0.17780467414E+03  0.17908164483E+03  0.00000000000E+00 0. -1.
         -1    1    6    6    0  501 -0.28104573063E+02 -0.10341825405E+02  0.23386948578E+02  0.37996970189E+02  0.00000000000E+00 0.  1.
          5    1    5    5  502    0  0.92727996611E+02  0.15890950387E+02  0.77207313592E+02  0.12179516793E+03  0.47000000000E+01 0. -1.
         13    1    4    4    0    0 -0.79707720982E+02 -0.68002131008E+01 -0.96921608378E+02  0.12567164299E+03  0.00000000000E+00 0. -1.
        -14    1    4    4    0    0  0.73271151348E+01 -0.28108428867E+02 -0.48689298916E+02  0.56695839517E+02  0.00000000000E+00 0.  1.
         -5    1    3    3    0  504 -0.10334372934E+02  0.18026865257E+02  0.33402548398E+02  0.39618018305E+02  0.47000000000E+01 0.  1.
<mgrwt>
<rscale>  2 0.19278944E+03</rscale>
<asrwt>0</asrwt>
<pdfrwt beam="1">  1       21 0.55926912E-01 0.19320837E+03</pdfrwt>
<pdfrwt beam="2">  1       21 0.30359131E-01 0.19320837E+03</pdfrwt>
<totfact> 0.31339283E+04</totfact>
</mgrwt>
</event>
<event>
12    1  0.2736842E-001  0.1880310E+03  0.7546771E-02  0.1160817E+00
         21   -1    0    0  502  503  0.00000000000E+00  0.00000000000E+00  0.15274492987E+04  0.15274492987E+04  0.00000000000E+00 0.  1.
         21   -1    0    0  503  504 -0.00000000000E+00 -0.00000000000E+00 -0.33151777671E+02  0.33151777671E+02  0.00000000000E+00 0.  1.
         -6    2    1    2    0  504 -0.63246931440E+02  0.35640896253E+02  0.31545710419E+03  0.36724495485E+03  0.17345092809E+03 0.  0.
        -24    2    3    3    0    0 -0.22602577333E+02  0.81784448747E+02  0.25371572315E+03  0.27997938838E+03  0.82566441051E+02 0.  0.
          6    2    1    2  502    0  0.63246931440E+02 -0.35640896253E+02  0.11788404169E+04  0.11933561216E+04  0.17077369991E+03 0.  0.
         24    2    5    5    0    0  0.75282824148E+02 -0.47963356623E+01  0.45540713946E+03  0.46915031759E+03  0.83760667234E+02 0.  0.
          4    1    6    6  501    0  0.35596376071E+02  0.10128972781E+02  0.53736855006E+02  0.65248353733E+02  0.00000000000E+00 0. -1.
         -3    1    6    6    0  501  0.39686448076E+02 -0.14925308443E+02  0.40167028446E+03  0.40390196386E+03  0.00000000000E+00 0.  1.
          5    1    5    5  502    0 -0.12035892707E+02 -0.30844560590E+02  0.72343327741E+03  0.72420580397E+03  0.47000000000E+01 0. -1.
         13    1    4    4    0    0  0.73658851519E+01  0.21562822392E+02  0.17482814797E+03  0.17630681466E+03  0.00000000000E+00 0. -1.
        -14    1    4    4    0    0 -0.29968462485E+02  0.60221626356E+02  0.78887575180E+02  0.10367257372E+03  0.00000000000E+00 0.  1.
         -5    1    3    3    0  504 -0.40644354107E+02 -0.46143552495E+02  0.61741381044E+02  0.87265566467E+02  0.47000000000E+01 0.  1.
<mgrwt>
<rscale>  2 0.18741129E+03</rscale>
<asrwt>0</asrwt>
<pdfrwt beam="1">  1       21 0.23499214E+00 0.18803104E+03</pdfrwt>
<pdfrwt beam="2">  1       21 0.51002747E-02 0.18803104E+03</pdfrwt>
<totfact> 0.21308457E+04</totfact>
</mgrwt>
</event>
<event>
12    1  0.2736842E-001  0.3055493E+03  0.7546771E-02  0.1082511E+00
         21   -1    0    0  502  503  0.00000000000E+00  0.00000000000E+00  0.29713815816E+03  0.29713815816E+03  0.00000000000E+00 0.  1.
         21   -1    0    0  503  504 -0.00000000000E+00 -0.00000000000E+00 -0.34155206420E+03  0.34155206420E+03  0.00000000000E+00 0. -1.
         -6    2    1    2    0  504  0.24461399298E+03 -0.63708333630E+02 -0.11274762032E+03  0.32559298329E+03  0.17147596782E+03 0.  0.
        -24    2    3    3    0    0  0.99528424205E+02  0.15169113583E+02 -0.74123772851E+01  0.12966167550E+03  0.81370741206E+02 0.  0.
          6    2    1    2  502    0 -0.24461399298E+03  0.63708333630E+02  0.68333714286E+02  0.31309723907E+03  0.17165554831E+03 0.  0.
         24    2    5    5    0    0 -0.85803010808E+02  0.77627112888E+02  0.60772252685E+02  0.15342906385E+03  0.80368436700E+02 0.  0.
          4    1    6    6  501    0 -0.64780404715E+02  0.83804212355E+02  0.20947175044E+02  0.10797421445E+03  0.00000000000E+00 0. -1.
         -3    1    6    6    0  501 -0.21022606093E+02 -0.61770994672E+01  0.39825077641E+02  0.45454849399E+02  0.00000000000E+00 0.  1.
          5    1    5    5  502    0 -0.15881098218E+03 -0.13918779258E+02  0.75614616012E+01  0.15966817522E+03  0.47000000000E+01 0. -1.
         13    1    4    4    0    0  0.19067145251E+02  0.15678398208E+02  0.31715053174E+02  0.40189710079E+02  0.00000000000E+00 0. -1.
        -14    1    4    4    0    0  0.80461278954E+02 -0.50928462540E+00 -0.39127430459E+02  0.89471965420E+02  0.00000000000E+00 0.  1.
         -5    1    3    3    0  504  0.14508556878E+03 -0.78877447213E+02 -0.10533524304E+03  0.19593130779E+03  0.47000000000E+01 0.  1.
<mgrwt>
<rscale>  2 0.30552410E+03</rscale>
<asrwt>0</asrwt>
<pdfrwt beam="1">  1       21 0.45713563E-01 0.30554932E+03</pdfrwt>
<pdfrwt beam="2">  1       21 0.52546472E-01 0.30554932E+03</pdfrwt>
<totfact> 0.14862642E+04</totfact>
</mgrwt>
</event>
<event>
12    1  0.2736842E-001  0.3274823E+03  0.7546771E-02  0.1072420E+00
         21   -1    0    0  502  503  0.00000000000E+00  0.00000000000E+00  0.13503476232E+03  0.13503476232E+03  0.00000000000E+00 0. -1.
         21   -1    0    0  503  504 -0.00000000000E+00 -0.00000000000E+00 -0.79075287061E+03  0.79075287061E+03  0.00000000000E+00 0.  1.
         -6    2    1    2    0  504  0.21123480110E+03  0.17936662603E+03 -0.33381046352E+03  0.46762601081E+03  0.17450539448E+03 0.  0.
        -24    2    3    3    0    0  0.75686728415E+02  0.64764616808E+01 -0.10307128843E+03  0.14899307803E+03  0.76189378431E+02 0.  0.
          6    2    1    2  502    0 -0.21123480110E+03 -0.17936662603E+03 -0.32190764477E+03  0.45816162212E+03  0.17174112058E+03 0.  0.
         24    2    5    5    0    0 -0.71449908632E+02 -0.76723430778E+02 -0.22059508064E+03  0.25725923950E+03  0.80799458125E+02 0.  0.
          2    1    6    6  501    0 -0.80758399794E+02 -0.84329376353E+02 -0.17704694977E+03  0.21208249639E+03  0.00000000000E+00 0. -1.
         -1    1    6    6    0  501  0.93084911617E+01  0.76059455746E+01 -0.43548130869E+02  0.45176743110E+02  0.00000000000E+00 0.  1.
          5    1    5    5  502    0 -0.13978489246E+03 -0.10264319525E+03 -0.10131256413E+03  0.20090238262E+03  0.47000000000E+01 0. -1.
         13    1    4    4    0    0  0.87199394747E+02  0.16829041093E+02 -0.72190532933E+02  0.11444834692E+03  0.00000000000E+00 0. -1.
        -14    1    4    4    0    0 -0.11512666332E+02 -0.10352579412E+02 -0.30880755502E+02  0.34544731102E+02  0.00000000000E+00 0.  1.
         -5    1    3    3    0  504  0.13554807268E+03  0.17289016435E+03 -0.23073917509E+03  0.31863293278E+03  0.47000000000E+01 0.  1.
<mgrwt>
<rscale>  2 0.32711554E+03</rscale>
<asrwt>0</asrwt>
<pdfrwt beam="1">  1       21 0.20774579E-01 0.32748231E+03</pdfrwt>
<pdfrwt beam="2">  1       21 0.12165429E+00 0.32748231E+03</pdfrwt>
<totfact> 0.10175693E+04</totfact>
</mgrwt>
</event>
<event>
12    1  0.2736842E-001  0.1793766E+03  0.7546771E-02  0.1168823E+00
         21   -1    0    0  502  503  0.00000000000E+00  0.00000000000E+00  0.28454810352E+03  0.28454810352E+03  0.00000000000E+00 0.  1.
         21   -1    0    0  503  504 -0.00000000000E+00 -0.00000000000E+00 -0.16976199957E+03  0.16976199957E+03  0.00000000000E+00 0. -1.
         -6    2    1    2    0  504 -0.20735530732E+02 -0.37317534606E+02 -0.75278517928E+02  0.19296642296E+03  0.17247209776E+03 0.  0.
        -24    2    3    3    0    0 -0.79522615688E+02 -0.34851807252E+02 -0.51975340478E+02  0.12950675665E+03  0.80821217057E+02 0.  0.
          6    2    1    2  502    0  0.20735530732E+02  0.37317534606E+02  0.19006462189E+03  0.26134368013E+03  0.17422226616E+03 0.  0.
         24    2    5    5    0    0  0.79993416114E+02  0.17853195318E+02  0.10319379024E+03  0.15429701332E+03  0.80255384680E+02 0.  0.
          4    1    6    6  501    0  0.23328830910E+02  0.45814824049E+02  0.42936657012E+02  0.66983497741E+02  0.00000000000E+00 0. -1.
         -3    1    6    6    0  501  0.56664585204E+02 -0.27961628731E+02  0.60257133232E+02  0.87313515580E+02  0.00000000000E+00 0.  1.
          5    1    5    5  502    0 -0.59257885381E+02  0.19464339288E+02  0.86870831642E+02  0.10704666680E+03  0.47000000000E+01 0. -1.
         13    1    4    4    0    0 -0.23510448800E+02 -0.38133962563E+02 -0.57764700117E+02  0.73100621632E+02  0.00000000000E+00 0. -1.
        -14    1    4    4    0    0 -0.56012166889E+02  0.32821553101E+01  0.57893596384E+01  0.56406135022E+02  0.00000000000E+00 0.  1.
         -5    1    3    3    0  504  0.58787084956E+02 -0.24657273530E+01 -0.23303177450E+02  0.63459666311E+02  0.47000000000E+01 0.  1.
<mgrwt>
<rscale>  2 0.17895022E+03</rscale>
<asrwt>0</asrwt>
<pdfrwt beam="1">  1       21 0.43776631E-01 0.17937658E+03</pdfrwt>
<pdfrwt beam="2">  1       21 0.26117231E-01 0.17937658E+03</pdfrwt>
<totfact> 0.70246799E+04</totfact>
</mgrwt>
</event>
<event>
12    1  0.2736842E-001  0.2091769E+03  0.7546771E-02  0.1142434E+00
         21   -1    0    0  502  503  0.00000000000E+00  0.00000000000E+00  0.74295457805E+03  0.74295457805E+03  0.00000000000E+00 0.  1.
         21   -1    0    0  503  504 -0.00000000000E+00 -0.00000000000E+00 -0.18164443285E+03  0.18164443285E+03  0.00000000000E+00 0.  1.
         -6    2    1    2    0  504  0.59021381374E+02  0.10275947251E+03 -0.99615690207E+02  0.23168568543E+03  0.17237151286E+03 0.  0.
        -24    2    3    3    0    0  0.76229979782E+02  0.12556624870E+03 -0.10984191250E+03  0.20097818599E+03  0.82152862840E+02 0.  0.
          6    2    1    2  502    0 -0.59021381374E+02 -0.10275947251E+03  0.66092583542E+03  0.69291332547E+03  0.17106397647E+03 0.  0.
         24    2    5    5    0    0 -0.42835389143E+02 -0.13952478081E+03  0.47135295045E+03  0.49907410614E+03  0.74828634190E+02 0.  0.
          2    1    6    6  501    0 -0.35951476653E+02 -0.14737066230E+02  0.10200388220E+03  0.10915347809E+03  0.00000000000E+00 0. -1.
         -1    1    6    6    0  501 -0.68839124893E+01 -0.12478771458E+03  0.36934906825E+03  0.38992062805E+03  0.00000000000E+00 0.  1.
          5    1    5    5  502    0 -0.16185992232E+02  0.36765308296E+02  0.18957288497E+03  0.19383921934E+03  0.47000000000E+01 0. -1.
         11    1    4    4    0    0  0.35751754602E+02  0.35512725661E+01 -0.75977849354E+01  0.36722279748E+02  0.00000000000E+00 0. -1.
        -12    1    4    4    0    0  0.40478225181E+02  0.12201497613E+03 -0.10224412757E+03  0.16425590625E+03  0.00000000000E+00 0.  1.
         -5    1    3    3    0  504 -0.17208598408E+02 -0.22806776187E+02  0.10226222295E+02  0.30707499436E+02  0.47000000000E+01 0.  1.
<mgrwt>
<rscale>  2 0.20890733E+03</rscale>
<asrwt>0</asrwt>
<pdfrwt beam="1">  1       21 0.11430070E+00 0.20917689E+03</pdfrwt>
<pdfrwt beam="2">  1       21 0.27945298E-01 0.20917689E+03</pdfrwt>
<totfact> 0.71877754E+03</totfact>
</mgrwt>
</event>
<event>
12    1  0.2736842E-001  0.1837065E+03  0.7546771E-02  0.1164280E+00
         21   -1    0    0  502  503  0.00000000000E+00  0.00000000000E+00  0.23406078158E+03  0.23406078158E+03  0.00000000000E+00 0. -1.
         21   -1    0    0  503  504 -0.00000000000E+00 -0.00000000000E+00 -0.26060979416E+03  0.26060979416E+03  0.00000000000E+00 0. -1.
         -6    2    1    2    0  504  0.44833821356E+01  0.59213450795E+02 -0.17863028032E+03  0.25623591246E+03  0.17384398844E+03 0.  0.
        -24    2    3    3    0    0 -0.19991210147E+02  0.89605354365E+02 -0.17937070880E+03  0.21692545960E+03  0.80337014092E+02 0.  0.
          6    2    1    2  502    0 -0.44833821356E+01 -0.59213450795E+02  0.15208126775E+03  0.23843466328E+03  0.17377008713E+03 0.  0.
         24    2    5    5    0    0  0.40006418812E+02 -0.95297632952E+01  0.30453728879E+02  0.99642878925E+02  0.85498209239E+02 0.  0.
          2    1    6    6  501    0  0.45443151081E+02 -0.13109808951E+02  0.55988394604E+02  0.73291523393E+02  0.00000000000E+00 0. -1.
         -1    1    6    6    0  501 -0.54367322691E+01  0.35800456558E+01 -0.25534665725E+02  0.26351355532E+02  0.00000000000E+00 0.  1.
          5    1    5    5  502    0 -0.44489800948E+02 -0.49683687500E+02  0.12162753887E+03  0.13879178435E+03  0.47000000000E+01 0. -1.
         13    1    4    4    0    0 -0.62113716326E+01  0.87758788625E+02 -0.87760270176E+02  0.12426604983E+03  0.00000000000E+00 0. -1.
        -14    1    4    4    0    0 -0.13779838515E+02  0.18465657398E+01 -0.91610438621E+02  0.92659409769E+02  0.00000000000E+00 0.  1.
         -5    1    3    3    0  504  0.24474592283E+02 -0.30391903569E+02  0.74042847365E+00  0.39310452863E+02  0.47000000000E+01 0.  1.
<mgrwt>
<rscale>  2 0.18368898E+03</rscale>
<asrwt>0</asrwt>
<pdfrwt beam="1">  1       21 0.36009351E-01 0.18370647E+03</pdfrwt>
<pdfrwt beam="2">  1       21 0.40093815E-01 0.18370647E+03</pdfrwt>
<totfact> 0.44777258E+04</totfact>
</mgrwt>
</event>
<event>
12    1  0.2736842E-001  0.1872109E+03  0.7546771E-02  0.1161652E+00
         21   -1    0    0  502  503  0.00000000000E+00  0.00000000000E+00  0.26124179959E+03  0.26124179959E+03  0.00000000000E+00 0. -1.
         21   -1    0    0  503  504 -0.00000000000E+00 -0.00000000000E+00 -0.16343711917E+03  0.16343711917E+03  0.00000000000E+00 0. -1.
         -6    2    1    2    0  504  0.71855619745E+02 -0.66006043312E+01 -0.44291854485E+02  0.18964837167E+03  0.16969955344E+03 0.  0.
        -24    2    3    3    0    0  0.17991212057E+02 -0.27884204757E+02  0.38372985873E+02  0.88604164052E+02  0.72642957376E+02 0.  0.
          6    2    1    2  502    0 -0.71855619745E+02  0.66006043312E+01  0.14209653490E+03  0.23503054709E+03  0.17274586759E+03 0.  0.
         24    2    5    5    0    0 -0.38207171498E+02  0.46071938850E+02  0.20507379558E+02  0.10275728065E+03  0.80969714130E+02 0.  0.
          4    1    6    6  501    0 -0.48686620330E+02 -0.15832078813E+01 -0.25726694237E+01  0.48780243688E+02  0.00000000000E+00 0. -1.
         -3    1    6    6    0  501  0.10479448832E+02  0.47655146731E+02  0.23080048982E+02  0.53977036958E+02  0.00000000000E+00 0.  1.
          5    1    5    5  502    0 -0.33648448247E+02 -0.39471334519E+02  0.12158915535E+03  0.13227326645E+03  0.47000000000E+01 0. -1.
         13    1    4    4    0    0  0.25893224154E+02 -0.11630045717E+02 -0.15105559394E+02  0.32154236814E+02  0.00000000000E+00 0. -1.
        -14    1    4    4    0    0 -0.79020120972E+01 -0.16254159040E+02  0.53478545267E+02  0.56449927238E+02  0.00000000000E+00 0.  1.
         -5    1    3    3    0  504  0.53864407688E+02  0.21283600426E+02 -0.82664840358E+02  0.10104420762E+03  0.47000000000E+01 0.  1.
<mgrwt>
<rscale>  2 0.18650515E+03</rscale>
<asrwt>0</asrwt>
<pdfrwt beam="1">  1       21 0.40191046E-01 0.18721093E+03</pdfrwt>
<pdfrwt beam="2">  1       21 0.25144172E-01 0.18721093E+03</pdfrwt>
<totfact> 0.89565452E+04</totfact>
</mgrwt>
</event>
<event>
12    1  0.2736842E-001  0.1804883E+03  0.7546771E-02  0.1172804E+00
         21   -1    0    0  502  503  0.00000000000E+00  0.00000000000E+00  0.64870896940E+03  0.64870896940E+03  0.00000000000E+00 0.  1.
         21   -1    0    0  503  504 -0.00000000000E+00 -0.00000000000E+00 -0.55141094549E+02  0.55141094549E+02  0.00000000000E+00 0.  1.
         -6    2    1    2    0  504 -0.45334053785E+02  0.23432064069E+02  0.43630198267E+03  0.46445793734E+03  0.15085594925E+03 0.  0.
        -24    2    3    3    0    0 -0.19225444884E+02 -0.31922526516E+02  0.33192532036E+03  0.34336967287E+03  0.79621909835E+02 0.  0.
          6    2    1    2  502    0  0.45334053785E+02 -0.23432064069E+02  0.15726589219E+03  0.23939212661E+03  0.17312363033E+03 0.  0.
         24    2    5    5    0    0  0.71655656526E+02  0.21831823584E+02  0.14804715156E+03  0.18601871118E+03  0.84106124558E+02 0.  0.
          4    1    6    6  501    0  0.69955260253E+02  0.21693234104E-01  0.14848418951E+03  0.16413803167E+03  0.00000000000E+00 0. -1.
         -3    1    6    6    0  501  0.17003962724E+01  0.21810130350E+02 -0.43703794328E+00  0.21880679503E+02  0.00000000000E+00 0.  1.
          5    1    5    5  502    0 -0.26321602741E+02 -0.45263887653E+02  0.92187406252E+01  0.53373415433E+02  0.47000000000E+01 0. -1.
         13    1    4    4    0    0  0.26112736116E+02 -0.28476914875E+02  0.10381066964E+03  0.11076761620E+03  0.00000000000E+00 0. -1.
        -14    1    4    4    0    0 -0.45338181000E+02 -0.34456116405E+01  0.22811465072E+03  0.23260205668E+03  0.00000000000E+00 0.  1.
         -5    1    3    3    0  504 -0.26108608901E+02  0.55354590585E+02  0.10437666231E+03  0.12108826447E+03  0.47000000000E+01 0.  1.
<mgrwt>
<rscale>  2 0.17492796E+03</rscale>
<asrwt>0</asrwt>
<pdfrwt beam="1">  1       21 0.99801374E-01 0.18048831E+03</pdfrwt>
<pdfrwt beam="2">  1       21 0.84832458E-02 0.18048831E+03</pdfrwt>
<totfact> 0.89821965E+04</totfact>
</mgrwt>
</event>
<event>
12    1  0.2736842E-001  0.2899990E+03  0.7546771E-02  0.1090599E+00
         21   -1    0    0  502  503  0.00000000000E+00  0.00000000000E+00  0.30196807563E+03  0.30196807563E+03  0.00000000000E+00 0. -1.
         21   -1    0    0  503  504 -0.00000000000E+00 -0.00000000000E+00 -0.31744324159E+03  0.31744324159E+03  0.00000000000E+00 0. -1.
         -6    2    1    2    0  504  0.23254526835E+03  0.58600839683E+01  0.10327137555E+03  0.30604224789E+03  0.16995657701E+03 0.  0.
        -24    2    3    3    0    0  0.69678688643E+02  0.53607116831E+02  0.36102653153E+02  0.12345246394E+03  0.78792554615E+02 0.  0.
          6    2    1    2  502    0 -0.23254526835E+03 -0.58600839683E+01 -0.11874654151E+03  0.31336906933E+03  0.17316983016E+03 0.  0.
         24    2    5    5    0    0 -0.30262874399E+02 -0.20032739924E+02 -0.44112473513E+02  0.97240947182E+02  0.78693959449E+02 0.  0.
          4    1    6    6  501    0 -0.46182516858E+02 -0.36650873878E+02 -0.16356087407E+02  0.61185235266E+02  0.00000000000E+00 0. -1.
         -3    1    6    6    0  501  0.15919642458E+02  0.16618133954E+02 -0.27756386106E+02  0.36055711916E+02  0.00000000000E+00 0.  1.
          5    1    5    5  502    0 -0.20228239395E+03  0.14172655955E+02 -0.74634067998E+02  0.21612812215E+03  0.47000000000E+01 0. -1.
         11    1    4    4    0    0  0.29602398176E+02 -0.18402950818E+02  0.43109591992E+01  0.35122000880E+02  0.00000000000E+00 0. -1.
        -12    1    4    4    0    0  0.40076290467E+02  0.72010067649E+02  0.31791693954E+02  0.88330463063E+02  0.00000000000E+00 0.  1.
         -5    1    3    3    0  504  0.16286657971E+03 -0.47747032863E+02  0.67168722394E+02  0.18258978394E+03  0.47000000000E+01 0.  1.
<mgrwt>
<rscale>  2 0.28952103E+03</rscale>
<asrwt>0</asrwt>
<pdfrwt beam="1">  1       21 0.46456627E-01 0.28999902E+03</pdfrwt>
<pdfrwt beam="2">  1       21 0.48837422E-01 0.28999902E+03</pdfrwt>
<totfact> 0.16883420E+04</totfact>
</mgrwt>
</event>
<event>
12    1  0.2736842E-001  0.1897981E+03  0.7546771E-02  0.1159062E+00
         21   -1    0    0  502  503  0.00000000000E+00  0.00000000000E+00  0.40096914194E+02  0.40096914194E+02  0.00000000000E+00 0.  1.
         21   -1    0    0  503  504 -0.00000000000E+00 -0.00000000000E+00 -0.91935620570E+03  0.91935620570E+03  0.00000000000E+00 0.  1.
         -6    2    1    2    0  504  0.11319586894E+02 -0.73421149682E+02 -0.52370831872E+03  0.55641489961E+03  0.17265091701E+03 0.  0.
        -24    2    3    3    0    0 -0.52664558363E+02 -0.62635528055E+02 -0.24557873910E+03  0.27077797354E+03  0.79467155307E+02 0.  0.
          6    2    1    2  502    0 -0.11319586894E+02  0.73421149682E+02 -0.35555097279E+03  0.40303822029E+03  0.17465541644E+03 0.  0.
         24    2    5    5    0    0 -0.29255818077E+02  0.10036633532E+03 -0.17218431874E+03  0.21677719045E+03  0.80097481380E+02 0.  0.
          4    1    6    6  501    0 -0.31914248378E+02  0.23494958773E+01 -0.28672164892E+02  0.42966643108E+02  0.00000000000E+00 0. -1.
         -3    1    6    6    0  501  0.26584303009E+01  0.98016839439E+02 -0.14351215385E+03  0.17381054734E+03  0.00000000000E+00 0.  1.
          5    1    5    5  502    0  0.17936231183E+02 -0.26945185635E+02 -0.18336665405E+03  0.18626102983E+03  0.47000000000E+01 0. -1.
         11    1    4    4    0    0  0.75711010595E+00 -0.49662160513E+02 -0.63714231739E+02  0.80786179069E+02  0.00000000000E+00 0. -1.
        -12    1    4    4    0    0 -0.53421668469E+02 -0.12973367542E+02 -0.18186450736E+03  0.18999179447E+03  0.00000000000E+00 0.  1.
         -5    1    3    3    0  504  0.63984145256E+02 -0.10785621627E+02 -0.27812957961E+03  0.28563692607E+03  0.47000000000E+01 0.  1.
<mgrwt>
<rscale>  2 0.18933566E+03</rscale>
<asrwt>0</asrwt>
<pdfrwt beam="1">  1       21 0.61687560E-02 0.18979808E+03</pdfrwt>
<pdfrwt beam="2">  1       21 0.14143942E+00 0.18979808E+03</pdfrwt>
<totfact> 0.65621056E+04</totfact>
</mgrwt>
</event>
<event>
12    1  0.2736842E-001  0.1896709E+03  0.7546771E-02  0.1158955E+00
         21   -1    0    0  502  503  0.00000000000E+00  0.00000000000E+00  0.69764861275E+03  0.69764861275E+03  0.00000000000E+00 0. -1.
         21   -1    0    0  503  504 -0.00000000000E+00 -0.00000000000E+00 -0.65894755535E+02  0.65894755535E+02  0.00000000000E+00 0. -1.
         -6    2    1    2    0  504  0.71056884003E+02  0.27894063740E+02  0.13696049869E+03  0.23395136199E+03  0.17363151217E+03 0.  0.
        -24    2    3    3    0    0  0.80291022075E+02  0.67426716845E+02  0.14028732483E+03  0.19294821894E+03  0.80965865131E+02 0.  0.
          6    2    1    2  502    0 -0.71056884003E+02 -0.27894063740E+02  0.49479335852E+03  0.52959200629E+03  0.17268487466E+03 0.  0.
         24    2    5    5    0    0  0.30280278393E+01 -0.51248395314E+02  0.16434108256E+03  0.19010003929E+03  0.80588253169E+02 0.  0.
          4    1    6    6  501    0 -0.41694362485E+01  0.21746280352E+02  0.35315307747E+02  0.41682800639E+02  0.00000000000E+00 0. -1.
         -3    1    6    6    0  501  0.71974640878E+01 -0.72994675666E+02  0.12902577481E+03  0.14841723865E+03  0.00000000000E+00 0.  1.
          5    1    5    5  502    0 -0.74084911842E+02  0.23354331574E+02  0.33045227596E+03  0.33949196700E+03  0.47000000000E+01 0. -1.
         13    1    4    4    0    0  0.36889747241E+02  0.99999728566E+00  0.94236920732E+02  0.10120499333E+03  0.00000000000E+00 0. -1.
        -14    1    4    4    0    0  0.43401274834E+02  0.66426719560E+02  0.46050404095E+02  0.91743225614E+02  0.00000000000E+00 0.  1.
         -5    1    3    3    0  504 -0.92341380717E+01 -0.39532653106E+02 -0.33268261357E+01  0.41003143046E+02  0.47000000000E+01 0.  1.
<mgrwt>
<rscale>  2 0.18945401E+03</rscale>
<asrwt>0</asrwt>
<pdfrwt beam="1">  1       21 0.10733055E+00 0.18967093E+03</pdfrwt>
<pdfrwt beam="2">  1       21 0.10137655E-01 0.18967093E+03</pdfrwt>
<totfact> 0.54974651E+04</totfact>
</mgrwt>
</event>
<event>
12    1  0.2736842E-001  0.2396141E+03  0.7546771E-02  0.1120144E+00
         21   -1    0    0  502  503  0.00000000000E+00  0.00000000000E+00  0.54086263709E+02  0.54086263709E+02  0.00000000000E+00 0.  1.
         21   -1    0    0  503  504 -0.00000000000E+00 -0.00000000000E+00 -0.12409226032E+04  0.12409226032E+04  0.00000000000E+00 0.  1.
         -6    2    1    2    0  504 -0.14140643598E+03 -0.85711774324E+02 -0.84070060034E+03  0.87402801796E+03  0.17264179208E+03 0.  0.
        -24    2    3    3    0    0 -0.47275469576E+02  0.17626557660E+02 -0.26336937550E+03  0.27999697258E+03  0.80555640068E+02 0.  0.
          6    2    1    2  502    0  0.14140643598E+03  0.85711774324E+02 -0.34613573913E+03  0.42098084893E+03  0.17341463856E+03 0.  0.
         24    2    5    5    0    0  0.46394375867E+02  0.78776176378E+02 -0.10224768731E+03  0.15910518013E+03  0.80633396976E+02 0.  0.
          2    1    6    6  501    0 -0.90008137179E+00  0.73126693231E+02 -0.72324508926E+02  0.10285503391E+03  0.00000000000E+00 0. -1.
         -1    1    6    6    0  501  0.47294457238E+02  0.56494831463E+01 -0.29923178381E+02  0.56250146220E+02  0.00000000000E+00 0.  1.
          5    1    5    5  502    0  0.95012060117E+02  0.69355979465E+01 -0.24388805183E+03  0.26187566880E+03  0.47000000000E+01 0. -1.
         11    1    4    4    0    0 -0.98751653647E+01 -0.62019660152E+01  0.12128574607E+01  0.11724090440E+02  0.00000000000E+00 0. -1.
        -12    1    4    4    0    0 -0.37400304211E+02  0.23828523675E+02 -0.26458223296E+03  0.26827288214E+03  0.00000000000E+00 0.  1.
         -5    1    3    3    0  504 -0.94130966408E+02 -0.10333833198E+03 -0.57733122484E+03  0.59403104538E+03  0.47000000000E+01 0.  1.
<mgrwt>
<rscale>  2 0.23947431E+03</rscale>
<asrwt>0</asrwt>
<pdfrwt beam="1">  1       21 0.83209640E-02 0.23961412E+03</pdfrwt>
<pdfrwt beam="2">  1       21 0.19091116E+00 0.23961412E+03</pdfrwt>
<totfact> 0.16674716E+04</totfact>
</mgrwt>
</event>
<event>
12    1  0.2736842E-001  0.1971755E+03  0.7546771E-02  0.1152242E+00
         21   -1    0    0  502  503  0.00000000000E+00  0.00000000000E+00  0.43330070328E+03  0.43330070328E+03  0.00000000000E+00 0.  1.
         21   -1    0    0  503  504 -0.00000000000E+00 -0.00000000000E+00 -0.12965067383E+03  0.12965067383E+03  0.00000000000E+00 0.  1.
         -6    2    1    2    0  504  0.74523073135E+02 -0.55072728957E+02 -0.48981168518E+01  0.19678185201E+03  0.17352928234E+03 0.  0.
        -24    2    3    3    0    0  0.10335431768E+03 -0.75678126599E+02 -0.28179404045E+02  0.15412119793E+03  0.80931891180E+02 0.  0.
          6    2    1    2  502    0 -0.74523073135E+02  0.55072728957E+02  0.30854814630E+03  0.36616952510E+03  0.17404444438E+03 0.  0.
         24    2    5    5    0    0 -0.26567620500E+02 -0.25517649551E+02  0.74306149465E+02  0.11380879592E+03  0.77936187255E+02 0.  0.
          2    1    6    6  501    0  0.19821333168E+02  0.11043097478E+02  0.59254469109E+01  0.23450931145E+02  0.00000000000E+00 0. -1.
         -1    1    6    6    0  501 -0.46388953667E+02 -0.36560747030E+02  0.68380702554E+02  0.90357864780E+02  0.00000000000E+00 0.  1.
          5    1    5    5  502    0 -0.47955452636E+02  0.80590378508E+02  0.23424199684E+03  0.25236072917E+03  0.47000000000E+01 0. -1.
         13    1    4    4    0    0  0.62185721549E+01 -0.54415446543E+01  0.22507416365E+02  0.23976339155E+02  0.00000000000E+00 0. -1.
        -14    1    4    4    0    0  0.97135745521E+02 -0.70236581944E+02 -0.50686820410E+02  0.13014485877E+03  0.00000000000E+00 0.  1.
         -5    1    3    3    0  504 -0.28831244541E+02  0.20605397642E+02  0.23281287193E+02  0.42660654087E+02  0.47000000000E+01 0.  1.
<mgrwt>
<rscale>  2 0.19706172E+03</rscale>
<asrwt>0</asrwt>
<pdfrwt beam="1">  1       21 0.66661646E-01 0.19717546E+03</pdfrwt>
<pdfrwt beam="2">  1       21 0.19946258E-01 0.19717546E+03</pdfrwt>
<totfact> 0.47747049E+04</totfact>
</mgrwt>
</event>
<event>
12    1  0.2736842E-001  0.2330840E+03  0.7546771E-02  0.1124595E+00
         21   -1    0    0  502  503  0.00000000000E+00  0.00000000000E+00  0.17564791215E+04  0.17564791215E+04  0.00000000000E+00 0. -1.
         21   -1    0    0  503  504 -0.00000000000E+00 -0.00000000000E+00 -0.30850000038E+02  0.30850000038E+02  0.00000000000E+00 0. -1.
         -6    2    1    2    0  504 -0.13954182261E+03 -0.70693497563E+02  0.85517031102E+03  0.88620387847E+03  0.17196384068E+03 0.  0.
        -24    2    3    3    0    0 -0.11700491113E+03 -0.58897583401E+02  0.37448947760E+03  0.40482750847E+03  0.80522470307E+02 0.  0.
          6    2    1    2  502    0  0.13954182261E+03  0.70693497563E+02  0.87045881043E+03  0.90112524307E+03  0.17279662083E+03 0.  0.
         24    2    5    5    0    0  0.16302094823E+03  0.89836112193E+02  0.76957822694E+03  0.79568952255E+03  0.78897479668E+02 0.  0.
          2    1    6    6  501    0  0.16296207761E+03  0.84759829350E+02  0.76893699882E+03  0.79057256186E+03  0.00000000000E+00 0. -1.
         -1    1    6    6    0  501  0.58870622757E-01  0.50762828429E+01  0.64122812577E+00  0.51169606956E+01  0.00000000000E+00 0.  1.
          5    1    5    5  502    0 -0.23479125618E+02 -0.19142614631E+02  0.10088058349E+03  0.10543572051E+03  0.47000000000E+01 0. -1.
         13    1    4    4    0    0 -0.11775519281E+03 -0.33127853291E+02  0.34282295596E+03  0.36399357031E+03  0.00000000000E+00 0. -1.
        -14    1    4    4    0    0  0.75028168639E+00 -0.25769730110E+02  0.31666521640E+02  0.40833938156E+02  0.00000000000E+00 0.  1.
         -5    1    3    3    0  504 -0.22536911485E+02 -0.11795914162E+02  0.48068083343E+03  0.48137637000E+03  0.47000000000E+01 0.  1.
<mgrwt>
<rscale>  2 0.23292970E+03</rscale>
<asrwt>0</asrwt>
<pdfrwt beam="1">  1       21 0.27022748E+00 0.23308403E+03</pdfrwt>
<pdfrwt beam="2">  1       21 0.47461552E-02 0.23308403E+03</pdfrwt>
<totfact> 0.14360099E+04</totfact>
</mgrwt>
</event>
<event>
12    1  0.2736842E-001  0.2723108E+03  0.7546771E-02  0.1100203E+00
         21   -1    0    0  502  503  0.00000000000E+00  0.00000000000E+00  0.69940811070E+03  0.69940811070E+03  0.00000000000E+00 0.  1.
         21   -1    0    0  503  504 -0.00000000000E+00 -0.00000000000E+00 -0.13147650418E+03  0.13147650418E+03  0.00000000000E+00 0.  1.
         -6    2    1    2    0  504 -0.15927881716E+03 -0.13890850381E+03  0.98134810099E+02  0.28787243582E+03  0.16904077711E+03 0.  0.
        -24    2    3    3    0    0 -0.43839257197E+02 -0.11745082452E+03  0.43624345864E+02  0.15833400633E+03  0.86313367195E+02 0.  0.
          6    2    1    2  502    0  0.15927881716E+03  0.13890850381E+03  0.46979679642E+03  0.54301217907E+03  0.17172036181E+03 0.  0.
         24    2    5    5    0    0  0.80390661862E+02  0.11445650379E+03  0.17955228556E+03  0.24120891958E+03  0.79873461549E+02 0.  0.
          2    1    6    6  501    0 -0.12835315336E+02  0.39226201061E+02  0.45788381720E+02  0.61644270374E+02  0.00000000000E+00 0. -1.
         -1    1    6    6    0  501  0.93225977198E+02  0.75230302733E+02  0.13376390385E+03  0.17956464921E+03  0.00000000000E+00 0.  1.
          5    1    5    5  502    0  0.78888155297E+02  0.24452000015E+02  0.29024451086E+03  0.30180325948E+03  0.47000000000E+01 0. -1.
         11    1    4    4    0    0 -0.58572285069E+00  0.53372285129E+01  0.26488791964E+02  0.27027489324E+02  0.00000000000E+00 0. -1.
        -12    1    4    4    0    0 -0.43253534346E+02 -0.12278805303E+03  0.17135553900E+02  0.13130651700E+03  0.00000000000E+00 0.  1.
         -5    1    3    3    0  504 -0.11543955996E+03 -0.21457679294E+02  0.54510464235E+02  0.12953842950E+03  0.47000000000E+01 0.  1.
<mgrwt>
<rscale>  2 0.27188943E+03</rscale>
<asrwt>0</asrwt>
<pdfrwt beam="1">  1       21 0.10760125E+00 0.27231085E+03</pdfrwt>
<pdfrwt beam="2">  1       21 0.20227155E-01 0.27231085E+03</pdfrwt>
<totfact> 0.14873052E+04</totfact>
</mgrwt>
</event>
<event>
12    1  0.2736842E-001  0.2260524E+03  0.7546771E-02  0.1129637E+00
         21   -1    0    0  502  503  0.00000000000E+00  0.00000000000E+00  0.39530636469E+03  0.39530636469E+03  0.00000000000E+00 0. -1.
         21   -1    0    0  503  504 -0.00000000000E+00 -0.00000000000E+00 -0.36213833652E+03  0.36213833652E+03  0.00000000000E+00 0. -1.
         -6    2    1    2    0  504 -0.12507246384E+03 -0.70760436711E+02 -0.28751390482E+03  0.36509713877E+03  0.17315170995E+03 0.  0.
        -24    2    3    3    0    0 -0.48810178244E+02 -0.96792243633E+02 -0.22986213592E+03  0.26590335050E+03  0.78210091069E+02 0.  0.
          6    2    1    2  502    0  0.12507246384E+03  0.70760436711E+02  0.32068193298E+03  0.39234756243E+03  0.17449798564E+03 0.  0.
         24    2    5    5    0    0  0.16883645871E+02 -0.22371965020E+02  0.10160469774E+03  0.13082244015E+03  0.77494734829E+02 0.  0.
          4    1    6    6  501    0  0.33704955167E+02 -0.40665384488E+02  0.46488292967E+02  0.70362339936E+02  0.00000000000E+00 0. -1.
         -3    1    6    6    0  501 -0.16821309295E+02  0.18293419468E+02  0.55116404775E+02  0.60460100211E+02  0.00000000000E+00 0.  1.
          5    1    5    5  502    0  0.10818881797E+03  0.93132401731E+02  0.21907723524E+03  0.26152512229E+03  0.47000000000E+01 0. -1.
         11    1    4    4    0    0 -0.58437467567E+01 -0.16848024397E+02 -0.12896687408E+03  0.13019393193E+03  0.00000000000E+00 0. -1.
        -12    1    4    4    0    0 -0.42966431487E+02 -0.79944219235E+02 -0.10089526185E+03  0.13570941856E+03  0.00000000000E+00 0.  1.
         -5    1    3    3    0  504 -0.76262285598E+02  0.26031806921E+02 -0.57651768898E+02  0.99193788280E+02  0.47000000000E+01 0.  1.
<mgrwt>
<rscale>  2 0.22579259E+03</rscale>
<asrwt>0</asrwt>
<pdfrwt beam="1">  1       21 0.60816364E-01 0.22605244E+03</pdfrwt>
<pdfrwt beam="2">  1       21 0.55713590E-01 0.22605244E+03</pdfrwt>
<totfact> 0.74647484E+03</totfact>
</mgrwt>
</event>
<event>
12    1  0.2736842E-001  0.2097474E+03  0.7546771E-02  0.1141876E+00
         21   -1    0    0  502  503  0.00000000000E+00  0.00000000000E+00  0.48899257342E+02  0.48899257342E+02  0.00000000000E+00 0.  1.
         21   -1    0    0  503  504 -0.00000000000E+00 -0.00000000000E+00 -0.12935326999E+04  0.12935326999E+04  0.00000000000E+00 0.  1.
         -6    2    1    2    0  504 -0.10704999053E+03 -0.42826378050E+02 -0.99437798661E+03  0.10162586102E+04  0.17521467781E+03 0.  0.
        -24    2    3    3    0    0 -0.10099165961E+03 -0.35161949528E+02 -0.40033908687E+03  0.42212078839E+03  0.80491599011E+02 0.  0.
          6    2    1    2  502    0  0.10704999053E+03  0.42826378050E+02 -0.25025545591E+03  0.32617334705E+03  0.17454930531E+03 0.  0.
         24    2    5    5    0    0  0.10925065285E+03  0.12764633547E+02 -0.26036278621E+03  0.29403614862E+03  0.81054520108E+02 0.  0.
          2    1    6    6  501    0  0.58172658835E+02 -0.19667670404E+02 -0.19732868354E+03  0.20666273211E+03  0.00000000000E+00 0. -1.
         -1    1    6    6    0  501  0.51077994017E+02  0.32432303951E+02 -0.63034102674E+02  0.87373416508E+02  0.00000000000E+00 0.  1.
          5    1    5    5  502    0 -0.22006623204E+01  0.30061744503E+02  0.10107330308E+02  0.32137198433E+02  0.47000000000E+01 0. -1.
         11    1    4    4    0    0 -0.72402332580E+02  0.71336355429E+01 -0.15104571506E+03  0.16765379375E+03  0.00000000000E+00 0. -1.
        -12    1    4    4    0    0 -0.28589327033E+02 -0.42295585071E+02 -0.24929337181E+03  0.25446699465E+03  0.00000000000E+00 0.  1.
         -5    1    3    3    0  504 -0.60583309190E+01 -0.76644285212E+01 -0.59403889974E+03  0.59413782176E+03  0.47000000000E+01 0.  1.
<mgrwt>
<rscale>  2 0.20960841E+03</rscale>
<asrwt>0</asrwt>
<pdfrwt beam="1">  1       21 0.75229636E-02 0.20974743E+03</pdfrwt>
<pdfrwt beam="2">  1       21 0.19900501E+00 0.20974743E+03</pdfrwt>
<totfact> 0.17960964E+04</totfact>
</mgrwt>
</event>
<event>
12    1  0.2736842E-001  0.2477528E+03  0.7546771E-02  0.1114908E+00
         21   -1    0    0  502  503  0.00000000000E+00  0.00000000000E+00  0.12084499482E+03  0.12084499482E+03  0.00000000000E+00 0. -1.
         21   -1    0    0  503  504 -0.00000000000E+00 -0.00000000000E+00 -0.56792386216E+03  0.56792386216E+03  0.00000000000E+00 0. -1.
         -6    2    1    2    0  504 -0.13241725604E+02  0.17520990801E+03 -0.10999043498E+03  0.27107077214E+03  0.17466428530E+03 0.  0.
        -24    2    3    3    0    0 -0.48936227027E+02  0.55500021234E+02 -0.95546885054E+02  0.14523254044E+03  0.80549841004E+02 0.  0.
          6    2    1    2  502    0  0.13241725604E+02 -0.17520990801E+03 -0.33708843235E+03  0.41769808484E+03  0.17311621442E+03 0.  0.
         24    2    5    5    0    0  0.60812825743E+02 -0.13651580863E+03 -0.17397545954E+03  0.24337604150E+03  0.81422793334E+02 0.  0.
          4    1    6    6  501    0  0.38184669345E+02 -0.13279121353E+03 -0.11388019626E+03  0.17905383119E+03  0.00000000000E+00 0. -1.
         -3    1    6    6    0  501  0.22628156398E+02 -0.37245950979E+01 -0.60095263277E+02  0.64322210308E+02  0.00000000000E+00 0.  1.
          5    1    5    5  502    0 -0.47571100139E+02 -0.38694099379E+02 -0.16311297281E+03  0.17432204334E+03  0.47000000000E+01 0. -1.
         13    1    4    4    0    0  0.75454450298E+01  0.24226407952E+01 -0.59019516180E+02  0.59549191592E+02  0.00000000000E+00 0. -1.
        -14    1    4    4    0    0 -0.56481672056E+02  0.53077380439E+02 -0.36527368875E+02  0.85683348846E+02  0.00000000000E+00 0.  1.
         -5    1    3    3    0  504  0.35694501423E+02  0.11970988677E+03 -0.14443549930E+02  0.12583823170E+03  0.47000000000E+01 0.  1.
<mgrwt>
<rscale>  2 0.24748015E+03</rscale>
<asrwt>0</asrwt>
<pdfrwt beam="1">  1       21 0.18591538E-01 0.24775284E+03</pdfrwt>
<pdfrwt beam="2">  1       21 0.87372901E-01 0.24775284E+03</pdfrwt>
<totfact> 0.28907952E+04</totfact>
</mgrwt>
</event>
<event>
12    1  0.2736842E-001  0.1905352E+03  0.7546771E-02  0.1159422E+00
         21   -1    0    0  502  503  0.00000000000E+00  0.00000000000E+00  0.19142315914E+03  0.19142315914E+03  0.00000000000E+00 0.  1.
         21   -1    0    0  503  504 -0.00000000000E+00 -0.00000000000E+00 -0.19856684153E+03  0.19856684153E+03  0.00000000000E+00 0.  1.
         -6    2    1    2    0  504  0.54065674708E+02  0.32464247621E+02  0.50213142569E+02  0.19704069405E+03  0.17979613697E+03 0.  0.
        -24    2    3    3    0    0  0.52879565674E+02 -0.49293602747E+02  0.35083417659E+02  0.11375353101E+03  0.80516531747E+02 0.  0.
          6    2    1    2  502    0 -0.54065674708E+02 -0.32464247621E+02 -0.57356824962E+02  0.19294930662E+03  0.17309709703E+03 0.  0.
         24    2    5    5    0    0 -0.58082779561E+02 -0.79518195947E+02 -0.74917892806E+02  0.14234602325E+03  0.70377176017E+02 0.  0.
          2    1    6    6  501    0 -0.57799768237E+02 -0.19489321093E+02 -0.38640456888E+02  0.72206175314E+02  0.00000000000E+00 0. -1.
         -1    1    6    6    0  501 -0.28301132414E+00 -0.60028874854E+02 -0.36277435918E+02  0.70139847935E+02  0.00000000000E+00 0.  1.
          5    1    5    5  502    0  0.40171048533E+01  0.47053948326E+02  0.17561067843E+02  0.50603283374E+02  0.47000000000E+01 0. -1.
         11    1    4    4    0    0  0.52546154621E+02 -0.43973272116E+02 -0.92153654405E+01  0.69135157382E+02  0.00000000000E+00 0. -1.
        -12    1    4    4    0    0  0.33341105296E+00 -0.53203306307E+01  0.44298783100E+02  0.44618373627E+02  0.00000000000E+00 0.  1.
         -5    1    3    3    0  504  0.11861090344E+01  0.81757850368E+02  0.15129724909E+02  0.83287163040E+02  0.47000000000E+01 0.  1.
<mgrwt>
<rscale>  2 0.18893824E+03</rscale>
<asrwt>0</asrwt>
<pdfrwt beam="1">  1       21 0.29449717E-01 0.19053523E+03</pdfrwt>
<pdfrwt beam="2">  1       21 0.30548745E-01 0.19053523E+03</pdfrwt>
<totfact> 0.11372164E+05</totfact>
</mgrwt>
</event>
<event>
12    1  0.2736842E-001  0.1926960E+03  0.7546771E-02  0.1157747E+00
         21   -1    0    0  502  503  0.00000000000E+00  0.00000000000E+00  0.36321127880E+03  0.36321127880E+03  0.00000000000E+00 0.  1.
         21   -1    0    0  503  504 -0.00000000000E+00 -0.00000000000E+00 -0.11726736252E+04  0.11726736252E+04  0.00000000000E+00 0.  1.
         -6    2    1    2    0  504  0.51068122987E+02 -0.55599131424E+02 -0.11404451803E+04  0.11566101162E+04  0.17729223073E+03 0.  0.
        -24    2    3    3    0    0  0.62900948507E+02 -0.98077200302E+02 -0.91125424023E+03  0.92316851944E+03  0.90995375800E+02 0.  0.
          6    2    1    2  502    0 -0.51068122987E+02  0.55599131424E+02  0.33098283388E+03  0.37927478781E+03  0.16911685826E+03 0.  0.
         24    2    5    5    0    0 -0.16044952645E+02  0.23338860028E+01  0.63472016006E+02  0.10423308823E+03  0.81073746286E+02 0.  0.
          4    1    6    6  501    0 -0.36608962164E+02  0.13661376426E+02  0.27977121226E+01  0.39174947475E+02  0.00000000000E+00 0. -1.
         -3    1    6    6    0  501  0.20564009518E+02 -0.11327490424E+02  0.60674303884E+02  0.65058140755E+02  0.00000000000E+00 0.  1.
          5    1    5    5  502    0 -0.35023170342E+02  0.53265245421E+02  0.26751081787E+03  0.27504169958E+03  0.47000000000E+01 0. -1.
         13    1    4    4    0    0  0.39825404530E+02  0.54761935453E+01 -0.31422478992E+03  0.31678584271E+03  0.00000000000E+00 0. -1.
        -14    1    4    4    0    0  0.23075543977E+02 -0.10355339385E+03 -0.59702945031E+03  0.60638267673E+03  0.00000000000E+00 0.  1.
         -5    1    3    3    0  504 -0.11832825519E+02  0.42478068879E+02 -0.22919094007E+03  0.23344159677E+03  0.47000000000E+01 0.  1.
<mgrwt>
<rscale>  2 0.19079451E+03</rscale>
<asrwt>0</asrwt>
<pdfrwt beam="1">  1       21 0.55878658E-01 0.19269601E+03</pdfrwt>
<pdfrwt beam="2">  1       21 0.18041133E+00 0.19269601E+03</pdfrwt>
<totfact> 0.54529993E+02</totfact>
</mgrwt>
</event>
<event>
12    1  0.2736842E-001  0.2160969E+03  0.7546771E-02  0.1137108E+00
         21   -1    0    0  502  503  0.00000000000E+00  0.00000000000E+00  0.13433588440E+03  0.13433588440E+03  0.00000000000E+00 0.  1.
         21   -1    0    0  503  504 -0.00000000000E+00 -0.00000000000E+00 -0.85893450995E+03  0.85893450995E+03  0.00000000000E+00 0.  1.
         -6    2    1    2    0  504 -0.34742392731E+02  0.12334709868E+03 -0.74685796211E+03  0.77749256689E+03  0.17400096378E+03 0.  0.
        -24    2    3    3    0    0  0.29974398498E+02  0.77753915964E+02 -0.59431590794E+03  0.60556767147E+03  0.80973268912E+02 0.  0.
          6    2    1    2  502    0  0.34742392731E+02 -0.12334709868E+03  0.22259336562E+02  0.21577782746E+03  0.17217157766E+03 0.  0.
         24    2    5    5    0    0  0.79353050112E+02 -0.12136447408E+03 -0.52657805509E+00  0.16542577232E+03  0.79618884266E+02 0.  0.
          4    1    6    6  501    0  0.66527881118E+02 -0.30643491814E+02 -0.69670949427E+01  0.73576646896E+02  0.00000000000E+00 0. -1.
         -3    1    6    6    0  501  0.12825168995E+02 -0.90720982264E+02  0.64405168876E+01  0.91849125420E+02  0.00000000000E+00 0.  1.
          5    1    5    5  502    0 -0.44610657381E+02 -0.19826245978E+01  0.22785914617E+02  0.50352055144E+02  0.47000000000E+01 0. -1.
         11    1    4    4    0    0  0.50372485475E+01  0.16010779799E+02 -0.15225356143E+02  0.22661209420E+02  0.00000000000E+00 0. -1.
        -12    1    4    4    0    0  0.24937149951E+02  0.61743136165E+02 -0.57909055180E+03  0.58290646204E+03  0.00000000000E+00 0.  1.
         -5    1    3    3    0  504 -0.64716791229E+02  0.45593182711E+02 -0.15254205417E+03  0.17192489543E+03  0.47000000000E+01 0.  1.
<mgrwt>
<rscale>  2 0.21572840E+03</rscale>
<asrwt>0</asrwt>
<pdfrwt beam="1">  1       21 0.20667059E-01 0.21609691E+03</pdfrwt>
<pdfrwt beam="2">  1       21 0.13214377E+00 0.21609691E+03</pdfrwt>
<totfact> 0.88509802E+03</totfact>
</mgrwt>
</event>
<event>
12    1  0.2736842E-001  0.2441099E+03  0.7546771E-02  0.1117115E+00
         21   -1    0    0  502  503  0.00000000000E+00  0.00000000000E+00  0.10746062221E+03  0.10746062221E+03  0.00000000000E+00 0. -1.
         21   -1    0    0  503  504 -0.00000000000E+00 -0.00000000000E+00 -0.76392074035E+03  0.76392074035E+03  0.00000000000E+00 0.  1.
         -6    2    1    2    0  504  0.10569221705E+03  0.13584885284E+03 -0.55647498243E+03  0.60758849782E+03  0.17283987114E+03 0.  0.
        -24    2    3    3    0    0  0.62396454008E+02  0.58513473180E+01 -0.35418924494E+03  0.36322097926E+03  0.50516361729E+02 0.  0.
          6    2    1    2  502    0 -0.10569221705E+03 -0.13584885284E+03 -0.99985135713E+02  0.26379286474E+03  0.17310081618E+03 0.  0.
         24    2    5    5    0    0  0.23392794876E+01 -0.25206672134E+02 -0.60577633520E+02  0.10414469650E+03  0.80843178913E+02 0.  0.
          2    1    6    6  501    0  0.73267784507E+01  0.24694733673E+02 -0.33652151602E+00  0.25760916140E+02  0.00000000000E+00 0. -1.
         -1    1    6    6    0  501 -0.49874989631E+01 -0.49901405807E+02 -0.60241112004E+02  0.78383780356E+02  0.00000000000E+00 0.  1.
          5    1    5    5  502    0 -0.10803149654E+03 -0.11064218070E+03 -0.39407502193E+02  0.15964816825E+03  0.47000000000E+01 0. -1.
         13    1    4    4    0    0  0.14751440732E+02  0.17501680333E+02 -0.48598281885E+02  0.53718775306E+02  0.00000000000E+00 0. -1.
        -14    1    4    4    0    0  0.47645013276E+02 -0.11650333015E+02 -0.30559096305E+03  0.30950220395E+03  0.00000000000E+00 0.  1.
         -5    1    3    3    0  504  0.43295763042E+02  0.12999750552E+03 -0.20228573749E+03  0.24436751857E+03  0.47000000000E+01 0.  1.
<mgrwt>
<rscale>  2 0.24406365E+03</rscale>
<asrwt>0</asrwt>
<pdfrwt beam="1">  1       21 0.16532403E-01 0.24410991E+03</pdfrwt>
<pdfrwt beam="2">  1       21 0.11752627E+00 0.24410991E+03</pdfrwt>
<totfact> 0.17703241E+04</totfact>
</mgrwt>
</event>
<event>
12    1  0.2736842E-001  0.2542020E+03  0.7546771E-02  0.1110741E+00
         21   -1    0    0  502  503  0.00000000000E+00  0.00000000000E+00  0.60464772338E+02  0.60464772338E+02  0.00000000000E+00 0. -1.
         21   -1    0    0  503  504 -0.00000000000E+00 -0.00000000000E+00 -0.13308330872E+04  0.13308330872E+04  0.00000000000E+00 0.  1.
         -6    2    1    2    0  504  0.16940699083E+03 -0.74258245807E+02 -0.94534782630E+03  0.97892857108E+03  0.17437207054E+03 0.  0.
        -24    2    3    3    0    0  0.13434878867E+03 -0.25851305602E+02 -0.85951387988E+03  0.87422964198E+03  0.82434641887E+02 0.  0.
          6    2    1    2  502    0 -0.16940699083E+03  0.74258245807E+02 -0.32502048855E+03  0.41236928844E+03  0.17377311777E+03 0.  0.
         24    2    5    5    0    0 -0.19597429256E+03  0.80947085235E+02 -0.31000405673E+03  0.38077585053E+03  0.62684760578E+02 0.  0.
          2    1    6    6  501    0 -0.87682090007E+02  0.64120742607E+02 -0.12366299033E+03  0.16459694322E+03  0.00000000000E+00 0. -1.
         -1    1    6    6    0  501 -0.10829220255E+03  0.16826342627E+02 -0.18634106640E+03  0.21617890731E+03  0.00000000000E+00 0.  1.
          5    1    5    5  502    0  0.26567301732E+02 -0.66888394279E+01 -0.15016431822E+02  0.31593437908E+02  0.47000000000E+01 0. -1.
         13    1    4    4    0    0  0.19578322778E+02  0.21061449586E+02 -0.82093653864E+02  0.86984270913E+02  0.00000000000E+00 0. -1.
        -14    1    4    4    0    0  0.11477046589E+03 -0.46912755188E+02 -0.77742022602E+03  0.78724537106E+03  0.00000000000E+00 0.  1.
         -5    1    3    3    0  504  0.35058202160E+02 -0.48406940205E+02 -0.85833946415E+02  0.10469892911E+03  0.47000000000E+01 0.  1.
<mgrwt>
<rscale>  2 0.25409927E+03</rscale>
<asrwt>0</asrwt>
<pdfrwt beam="1">  1       21 0.93022732E-02 0.25420196E+03</pdfrwt>
<pdfrwt beam="2">  1       21 0.20474354E+00 0.25420196E+03</pdfrwt>
<totfact> 0.11024341E+04</totfact>
</mgrwt>
</event>
<event>
12    1  0.2736842E-001  0.2083973E+03  0.7546771E-02  0.1144762E+00
         21   -1    0    0  502  503  0.00000000000E+00  0.00000000000E+00  0.19411231966E+03  0.19411231966E+03  0.00000000000E+00 0.  1.
         21   -1    0    0  503  504 -0.00000000000E+00 -0.00000000000E+00 -0.34201176500E+03  0.34201176500E+03  0.00000000000E+00 0. -1.
         -6    2    1    2    0  504  0.98051698248E+02  0.36171945203E+02 -0.23699494800E+03  0.30948017653E+03  0.16937777049E+03 0.  0.
        -24    2    3    3    0    0  0.37226640960E+01  0.62726025426E+02 -0.12856217820E+03  0.16325144670E+03  0.78577278474E+02 0.  0.
          6    2    1    2  502    0 -0.98051698248E+02 -0.36171945203E+02  0.89095502659E+02  0.22664390813E+03  0.18029672029E+03 0.  0.
         24    2    5    5    0    0 -0.11837514239E+02 -0.71805724351E+02  0.77518418403E+02  0.13252286574E+03  0.79101301876E+02 0.  0.
          4    1    6    6  501    0 -0.11618009953E+02 -0.88386850557E+02  0.55698291999E+02  0.10511666489E+03  0.00000000000E+00 0. -1.
         -3    1    6    6    0  501 -0.21950428597E+00  0.16581126206E+02  0.21820126404E+02  0.27406200843E+02  0.00000000000E+00 0.  1.
          5    1    5    5  502    0 -0.86214184010E+02  0.35633779147E+02  0.11577084257E+02  0.94121042390E+02  0.47000000000E+01 0. -1.
         11    1    4    4    0    0  0.12598257967E+02  0.11621487971E+02 -0.10480997802E+03  0.10620219668E+03  0.00000000000E+00 0. -1.
        -12    1    4    4    0    0 -0.88755938711E+01  0.51104537455E+02 -0.23752200185E+02  0.57049250027E+02  0.00000000000E+00 0.  1.
         -5    1    3    3    0  504  0.94329034152E+02 -0.26554080223E+02 -0.10843276980E+03  0.14622872982E+03  0.47000000000E+01 0.  1.
<mgrwt>
<rscale>  2 0.20601395E+03</rscale>
<asrwt>0</asrwt>
<pdfrwt beam="1">  1       21 0.29863434E-01 0.20839734E+03</pdfrwt>
<pdfrwt beam="2">  1       21 0.52617195E-01 0.20839734E+03</pdfrwt>
<totfact> 0.36515609E+04</totfact>
</mgrwt>
</event>
<event>
12    1  0.2736842E-001  0.2009147E+03  0.7546771E-02  0.1152026E+00
         21   -1    0    0  502  503  0.00000000000E+00  0.00000000000E+00  0.96123462309E+02  0.96123462309E+02  0.00000000000E+00 0.  1.
         21   -1    0    0  503  504 -0.00000000000E+00 -0.00000000000E+00 -0.51123371882E+03  0.51123371882E+03  0.00000000000E+00 0.  1.
         -6    2    1    2    0  504  0.62399652044E+02  0.21703974534E+02 -0.36040860193E+03  0.41262702786E+03  0.18974173154E+03 0.  0.
        -24    2    3    3    0    0  0.96616507379E+02 -0.43700951926E+02 -0.19212241322E+03  0.22880393653E+03  0.64774200211E+02 0.  0.
          6    2    1    2  502    0 -0.62399652044E+02 -0.21703974534E+02 -0.54701654579E+02  0.19473015327E+03  0.17482214532E+03 0.  0.
         24    2    5    5    0    0  0.18720458731E+02 -0.12471029403E+02  0.18500309824E+02  0.84974345951E+02  0.79827287670E+02 0.  0.
          2    1    6    6  501    0  0.16255523655E+02  0.10998717713E+02  0.45237844518E+02  0.49312031162E+02  0.00000000000E+00 0. -1.
         -1    1    6    6    0  501  0.24649350766E+01 -0.23469747116E+02 -0.26737534694E+02  0.35662314790E+02  0.00000000000E+00 0.  1.
          5    1    5    5  502    0 -0.81120110775E+02 -0.92329451306E+01 -0.73201964403E+02  0.10975580732E+03  0.47000000000E+01 0. -1.
         11    1    4    4    0    0  0.10632101242E+02 -0.36335382243E+02 -0.54409134733E+02  0.66284655252E+02  0.00000000000E+00 0. -1.
        -12    1    4    4    0    0  0.85984406137E+02 -0.73655696836E+01 -0.13771327849E+03  0.16251928128E+03  0.00000000000E+00 0.  1.
         -5    1    3    3    0  504 -0.34216855335E+02  0.65404926460E+02 -0.16828618871E+03  0.18382309133E+03  0.47000000000E+01 0.  1.
<mgrwt>
<rscale>  2 0.19731258E+03</rscale>
<asrwt>0</asrwt>
<pdfrwt beam="1">  1       21 0.14788225E-01 0.20091467E+03</pdfrwt>
<pdfrwt beam="2">  1       21 0.78651340E-01 0.20091467E+03</pdfrwt>
<totfact> 0.57303203E+04</totfact>
</mgrwt>
</event>
<event>
12    1  0.2736842E-001  0.2175957E+03  0.7546771E-02  0.1135931E+00
         21   -1    0    0  502  503  0.00000000000E+00  0.00000000000E+00  0.71159302574E+02  0.71159302574E+02  0.00000000000E+00 0.  1.
         21   -1    0    0  503  504 -0.00000000000E+00 -0.00000000000E+00 -0.68306048416E+03  0.68306048416E+03  0.00000000000E+00 0.  1.
         -6    2    1    2    0  504  0.11441228159E+03 -0.63344250448E+02 -0.23977694431E+03  0.32379143278E+03  0.17391160018E+03 0.  0.
        -24    2    3    3    0    0 -0.38459840395E+01 -0.13948392743E+02 -0.13552140372E+03  0.15851507061E+03  0.80942124335E+02 0.  0.
          6    2    1    2  502    0 -0.11441228159E+03  0.63344250448E+02 -0.37212423727E+03  0.43042835395E+03  0.17230628448E+03 0.  0.
         24    2    5    5    0    0 -0.92263827130E+02  0.79002049490E+02 -0.37517754086E+03  0.40273118137E+03  0.81732977829E+02 0.  0.
          4    1    6    6  501    0 -0.66720434658E+02  0.10466631041E+02 -0.23641821680E+03  0.24587545628E+03  0.00000000000E+00 0. -1.
         -3    1    6    6    0  501 -0.25543392471E+02  0.68535418449E+02 -0.13875932406E+03  0.15685572509E+03  0.00000000000E+00 0.  1.
          5    1    5    5  502    0 -0.22148454464E+02 -0.15657799042E+02  0.30533035845E+01  0.27697172576E+02  0.47000000000E+01 0. -1.
         13    1    4    4    0    0 -0.26930870815E+02 -0.45470680856E+01 -0.78280957241E+01  0.28411735492E+02  0.00000000000E+00 0. -1.
        -14    1    4    4    0    0  0.23084886775E+02 -0.94013246578E+01 -0.12769330799E+03  0.13010333512E+03  0.00000000000E+00 0.  1.
         -5    1    3    3    0  504  0.11825826563E+03 -0.49395857705E+02 -0.10425554059E+03  0.16527636217E+03  0.47000000000E+01 0.  1.
<mgrwt>
<rscale>  2 0.21727482E+03</rscale>
<asrwt>0</asrwt>
<pdfrwt beam="1">  1       21 0.10947585E-01 0.21759575E+03</pdfrwt>
<pdfrwt beam="2">  1       21 0.10508623E+00 0.21759575E+03</pdfrwt>
<totfact> 0.49767070E+04</totfact>
</mgrwt>
</event>
<event>
12    1  0.2736842E-001  0.1889776E+03  0.7546771E-02  0.1159446E+00
         21   -1    0    0  502  503  0.00000000000E+00  0.00000000000E+00  0.39424719814E+02  0.39424719814E+02  0.00000000000E+00 0. -1.
         21   -1    0    0  503  504 -0.00000000000E+00 -0.00000000000E+00 -0.91715414956E+03  0.91715414956E+03  0.00000000000E+00 0.  1.
         -6    2    1    2    0  504  0.35803247051E+02  0.67286374631E+02 -0.38319715463E+03  0.42726174439E+03  0.17292544692E+03 0.  0.
        -24    2    3    3    0    0  0.35253758567E+02  0.26429138606E+00 -0.93039180059E+02  0.12942621631E+03  0.82776561288E+02 0.  0.
          6    2    1    2  502    0 -0.35803247051E+02 -0.67286374631E+02 -0.49453227512E+03  0.52931712499E+03  0.17264159105E+03 0.  0.
         24    2    5    5    0    0  0.41911206194E+02 -0.76802414262E+02 -0.35341805290E+03  0.36786928522E+03  0.52614929931E+02 0.  0.
          4    1    6    6  501    0  0.23948635250E+02 -0.35634166945E+01 -0.12506045680E+03  0.12738270261E+03  0.00000000000E+00 0. -1.
         -3    1    6    6    0  501  0.17962570944E+02 -0.73238997568E+02 -0.22835759610E+03  0.24048658262E+03  0.00000000000E+00 0.  1.
          5    1    5    5  502    0 -0.77714453245E+02  0.95160396314E+01 -0.14111422222E+03  0.16144783977E+03  0.47000000000E+01 0. -1.
         11    1    4    4    0    0  0.57171106466E+02  0.19544576688E+02 -0.68033521425E+02  0.90989482524E+02  0.00000000000E+00 0. -1.
        -12    1    4    4    0    0 -0.21917347899E+02 -0.19280285302E+02 -0.25005658634E+02  0.38436733784E+02  0.00000000000E+00 0.  1.
         -5    1    3    3    0  504  0.54948848437E+00  0.67022083245E+02 -0.29015797457E+03  0.29783552808E+03  0.47000000000E+01 0.  1.
<mgrwt>
<rscale>  2 0.18891265E+03</rscale>
<asrwt>0</asrwt>
<pdfrwt beam="1">  1       21 0.60653418E-02 0.18897761E+03</pdfrwt>
<pdfrwt beam="2">  1       21 0.14110063E+00 0.18897761E+03</pdfrwt>
<totfact> 0.67997854E+04</totfact>
</mgrwt>
</event>
<event>
12    1  0.2736842E-001  0.2556482E+03  0.7546771E-02  0.1109848E+00
         21   -1    0    0  502  503  0.00000000000E+00  0.00000000000E+00  0.12412667829E+03  0.12412667829E+03  0.00000000000E+00 0.  1.
         21   -1    0    0  503  504 -0.00000000000E+00 -0.00000000000E+00 -0.11570623482E+04  0.11570623482E+04  0.00000000000E+00 0.  1.
         -6    2    1    2    0  504  0.10519084632E+03  0.15604904942E+03 -0.98984688858E+03  0.10223271907E+04  0.17303063916E+03 0.  0.
        -24    2    3    3    0    0  0.11920450943E+03  0.11281158584E+03 -0.54806388269E+03  0.57818737568E+03  0.83608928489E+02 0.  0.
          6    2    1    2  502    0 -0.10519084632E+03 -0.15604904942E+03 -0.43088781356E+02  0.25886183579E+03  0.17244241641E+03 0.  0.
         24    2    5    5    0    0 -0.13815631206E+03 -0.13957366858E+03 -0.54076182465E+02  0.22011944185E+03  0.83428769894E+02 0.  0.
          4    1    6    6  501    0 -0.32109034912E+02  0.63091567996E+01 -0.12540496753E+02  0.35043681903E+02  0.00000000000E+00 0. -1.
         -3    1    6    6    0  501 -0.10604727715E+03 -0.14588282538E+03 -0.41535685712E+02  0.18507575994E+03  0.00000000000E+00 0.  1.
          5    1    5    5  502    0  0.32965465740E+02 -0.16475380840E+02  0.10987401109E+02  0.38742393943E+02  0.47000000000E+01 0. -1.
         13    1    4    4    0    0  0.11256918263E+03  0.12567468880E+03 -0.51870425130E+03  0.54545398394E+03  0.00000000000E+00 0. -1.
        -14    1    4    4    0    0  0.66353268037E+01 -0.12863102960E+02 -0.29359631393E+02  0.32733391744E+02  0.00000000000E+00 0.  1.
         -5    1    3    3    0  504 -0.14013663111E+02  0.43237463575E+02 -0.44178300589E+03  0.44413981504E+03  0.47000000000E+01 0.  1.
<mgrwt>
<rscale>  2 0.25554874E+03</rscale>
<asrwt>0</asrwt>
<pdfrwt beam="1">  1       21 0.19096413E-01 0.25564824E+03</pdfrwt>
<pdfrwt beam="2">  1       21 0.17800959E+00 0.25564824E+03</pdfrwt>
<totfact> 0.44929127E+03</totfact>
</mgrwt>
</event>
<event>
12    1  0.2736842E-001  0.2228527E+03  0.7546771E-02  0.1132683E+00
         21   -1    0    0  502  503  0.00000000000E+00  0.00000000000E+00  0.63388875567E+03  0.63388875567E+03  0.00000000000E+00 0.  1.
         21   -1    0    0  503  504 -0.00000000000E+00 -0.00000000000E+00 -0.22974536084E+03  0.22974536084E+03  0.00000000000E+00 0.  1.
         -6    2    1    2    0  504  0.65788014174E+01 -0.13988061408E+03 -0.15118633088E+03  0.26525763851E+03  0.16701629059E+03 0.  0.
        -24    2    3    3    0    0  0.16028387033E+02 -0.14347589667E+03 -0.63457110036E+02  0.17682276465E+03  0.79982767945E+02 0.  0.
          6    2    1    2  502    0 -0.65788014174E+01  0.13988061408E+03  0.55532972571E+03  0.59837647801E+03  0.17335927537E+03 0.  0.
         24    2    5    5    0    0  0.21840588248E+02  0.96788002747E+02  0.52046745898E+03  0.53590966681E+03  0.80423046118E+02 0.  0.
          4    1    6    6  501    0  0.17909242100E+02  0.42537251732E+02  0.41190943473E+03  0.41448708201E+03  0.00000000000E+00 0. -1.
         -3    1    6    6    0  501  0.39313461482E+01  0.54250751014E+02  0.10855802426E+03  0.12142258480E+03  0.00000000000E+00 0.  1.
          5    1    5    5  502    0 -0.28419389666E+02  0.43092611330E+02  0.34862266723E+02  0.62466811198E+02  0.47000000000E+01 0. -1.
         11    1    4    4    0    0 -0.16503704046E+02  0.11534509916E+01 -0.94218747854E+01  0.19038761013E+02  0.00000000000E+00 0. -1.
        -12    1    4    4    0    0  0.32532091079E+02 -0.14462934766E+03 -0.54035235251E+02  0.15778400364E+03  0.00000000000E+00 0.  1.
         -5    1    3    3    0  504 -0.94495856156E+01  0.35952825927E+01 -0.87729220841E+02  0.88434873860E+02  0.47000000000E+01 0.  1.
<mgrwt>
<rscale>  2 0.22161797E+03</rscale>
<asrwt>0</asrwt>
<pdfrwt beam="1">  1       21 0.97521347E-01 0.22285265E+03</pdfrwt>
<pdfrwt beam="2">  1       21 0.35345440E-01 0.22285265E+03</pdfrwt>
<totfact> 0.65768501E+03</totfact>
</mgrwt>
</event>
<event>
12    1  0.2736842E-001  0.2444320E+03  0.7546771E-02  0.1117204E+00
         21   -1    0    0  502  503  0.00000000000E+00  0.00000000000E+00  0.75401046158E+03  0.75401046158E+03  0.00000000000E+00 0.  1.
         21   -1    0    0  503  504 -0.00000000000E+00 -0.00000000000E+00 -0.10816909694E+03  0.10816909694E+03  0.00000000000E+00 0. -1.
         -6    2    1    2    0  504 -0.13735884276E+03  0.92057104338E+02  0.98453431569E+02  0.26351485800E+03  0.18001399961E+03 0.  0.
        -24    2    3    3    0    0  0.17748203729E+01  0.61886580387E+02  0.50749157122E+02  0.11329427175E+03  0.80168673710E+02 0.  0.
          6    2    1    2  502    0  0.13735884276E+03 -0.92057104338E+02  0.54738793307E+03  0.59866470052E+03  0.17726791090E+03 0.  0.
         24    2    5    5    0    0  0.97802501543E+02 -0.91911729363E+02  0.22434844559E+03  0.27317840935E+03  0.79253536175E+02 0.  0.
          4    1    6    6  501    0  0.95516550268E+02 -0.66639510194E+02  0.12588248497E+03  0.17149529357E+03  0.00000000000E+00 0. -1.
         -3    1    6    6    0  501  0.22859512749E+01 -0.25272219169E+02  0.98465960622E+02  0.10168311579E+03  0.00000000000E+00 0.  1.
          5    1    5    5  502    0  0.39556341214E+02 -0.14537497509E+00  0.32303948748E+03  0.32548629117E+03  0.47000000000E+01 0. -1.
         11    1    4    4    0    0  0.16958663838E+02 -0.35594050720E+00 -0.14157019612E+02  0.22093985089E+02  0.00000000000E+00 0. -1.
        -12    1    4    4    0    0 -0.15183843465E+02  0.62242520894E+02  0.64906176734E+02  0.91200286665E+02  0.00000000000E+00 0.  1.
         -5    1    3    3    0  504 -0.13913366313E+03  0.30170523951E+02  0.47704274448E+02  0.15022058625E+03  0.47000000000E+01 0.  1.
<mgrwt>
<rscale>  2 0.24392662E+03</rscale>
<asrwt>0</asrwt>
<pdfrwt beam="1">  1       21 0.11600161E+00 0.24443200E+03</pdfrwt>
<pdfrwt beam="2">  1       21 0.16641400E-01 0.24443200E+03</pdfrwt>
<totfact> 0.18058401E+04</totfact>
</mgrwt>
</event>
<event>
12    1  0.2736842E-001  0.1806878E+03  0.7546771E-02  0.1167387E+00
         21   -1    0    0  502  503  0.00000000000E+00  0.00000000000E+00  0.26247920574E+03  0.26247920574E+03  0.00000000000E+00 0. -1.
         21   -1    0    0  503  504 -0.00000000000E+00 -0.00000000000E+00 -0.24570596534E+03  0.24570596534E+03  0.00000000000E+00 0. -1.
         -6    2    1    2    0  504  0.46960634177E+02 -0.13081651816E+02 -0.17066843064E+03  0.24854736165E+03  0.17398749089E+03 0.  0.
        -24    2    3    3    0    0 -0.31015719151E+01 -0.51194165453E+02 -0.15872619124E+03  0.18433291423E+03  0.78448436310E+02 0.  0.
          6    2    1    2  502    0 -0.46960634177E+02  0.13081651816E+02  0.18744167104E+03  0.25963780943E+03  0.17291900203E+03 0.  0.
         24    2    5    5    0    0 -0.37059801059E+02  0.75964923887E+02  0.12994378777E+03  0.17372838629E+03  0.78435105066E+02 0.  0.
          4    1    6    6  501    0 -0.11833564893E+02  0.79804450458E+02  0.12332063164E+03  0.14736608077E+03  0.00000000000E+00 0. -1.
         -3    1    6    6    0  501 -0.25226236167E+02 -0.38395265712E+01  0.66231561258E+01  0.26362305523E+02  0.00000000000E+00 0.  1.
          5    1    5    5  502    0 -0.99008331171E+01 -0.62883272071E+02  0.57497883274E+02  0.85909423137E+02  0.47000000000E+01 0. -1.
         13    1    4    4    0    0 -0.36136638966E+02 -0.45436750317E+02 -0.80759144087E+02  0.99460516331E+02  0.00000000000E+00 0. -1.
        -14    1    4    4    0    0  0.33035067050E+02 -0.57574151367E+01 -0.77967047154E+02  0.84872397904E+02  0.00000000000E+00 0.  1.
         -5    1    3    3    0  504  0.50062206092E+02  0.38112513637E+02 -0.11942239404E+02  0.64214447412E+02  0.47000000000E+01 0.  1.
<mgrwt>
<rscale>  2 0.18043008E+03</rscale>
<asrwt>0</asrwt>
<pdfrwt beam="1">  1       21 0.40381416E-01 0.18068779E+03</pdfrwt>
<pdfrwt beam="2">  1       21 0.37800918E-01 0.18068779E+03</pdfrwt>
<totfact> 0.40120767E+04</totfact>
</mgrwt>
</event>
<event>
12    1  0.2736842E-001  0.1801730E+03  0.7546771E-02  0.1167670E+00
         21   -1    0    0  502  503  0.00000000000E+00  0.00000000000E+00  0.13056303467E+04  0.13056303467E+04  0.00000000000E+00 0.  1.
         21   -1    0    0  503  504 -0.00000000000E+00 -0.00000000000E+00 -0.16390350541E+03  0.16390350541E+03  0.00000000000E+00 0.  1.
         -6    2    1    2    0  504 -0.47464173480E+02  0.85138366761E+01 -0.10596448997E+03  0.20890069347E+03  0.17345227994E+03 0.  0.
        -24    2    3    3    0    0  0.19427202146E+02  0.29920179275E+02 -0.57860940240E+01  0.86465042405E+02  0.78549929108E+02 0.  0.
          6    2    1    2  502    0  0.47464173480E+02 -0.85138366761E+01  0.12476913312E+04  0.12606331586E+04  0.17360002704E+03 0.  0.
         24    2    5    5    0    0  0.25163223778E+01 -0.66688328790E+02  0.63116655434E+03  0.63972296271E+03  0.80128550664E+02 0.  0.
          4    1    6    6  501    0 -0.20900318709E+02 -0.59367273144E+02  0.25118564884E+03  0.25895081893E+03  0.00000000000E+00 0. -1.
         -3    1    6    6    0  501  0.23416641087E+02 -0.73210556455E+01  0.37998090550E+03  0.38077214378E+03  0.00000000000E+00 0.  1.
          5    1    5    5  502    0  0.44947851102E+02  0.58174492113E+02  0.61652477691E+03  0.62091019592E+03  0.47000000000E+01 0. -1.
         13    1    4    4    0    0  0.48233074480E+02  0.29329293837E+02  0.24361709745E+01  0.56502848422E+02  0.00000000000E+00 0. -1.
        -14    1    4    4    0    0 -0.28805872335E+02  0.59088543821E+00 -0.82222649985E+01  0.29962193983E+02  0.00000000000E+00 0.  1.
         -5    1    3    3    0  504 -0.66891375625E+02 -0.21406342599E+02 -0.10017839595E+03  0.12243565106E+03  0.47000000000E+01 0.  1.
<mgrwt>
<rscale>  2 0.18013738E+03</rscale>
<asrwt>0</asrwt>
<pdfrwt beam="1">  1       21 0.20086620E+00 0.18017298E+03</pdfrwt>
<pdfrwt beam="2">  1       21 0.25215925E-01 0.18017298E+03</pdfrwt>
<totfact> 0.20017996E+03</totfact>
</mgrwt>
</event>
<event>
12    1  0.2736842E-001  0.2352638E+03  0.7546771E-02  0.1125087E+00
         21   -1    0    0  502  503  0.00000000000E+00  0.00000000000E+00  0.57242978177E+03  0.57242978177E+03  0.00000000000E+00 0. -1.
         21   -1    0    0  503  504 -0.00000000000E+00 -0.00000000000E+00 -0.11519777015E+03  0.11519777015E+03  0.00000000000E+00 0.  1.
         -6    2    1    2    0  504  0.55735152359E+02  0.13376565363E+03  0.69110220622E+02  0.23376900066E+03  0.16991782065E+03 0.  0.
        -24    2    3    3    0    0  0.79054979501E+02  0.42801284596E+02  0.73910780854E+02  0.13962301747E+03  0.77137174781E+02 0.  0.
          6    2    1    2  502    0 -0.55735152359E+02 -0.13376565363E+03  0.38812179100E+03  0.45385855126E+03  0.18533591827E+03 0.  0.
         24    2    5    5    0    0 -0.58150907769E+02 -0.17196000753E+03  0.33591963526E+03  0.38896017218E+03  0.74136643583E+02 0.  0.
          4    1    6    6  501    0 -0.37830355093E+02 -0.31458747891E+02  0.12862469753E+03  0.13771383881E+03  0.00000000000E+00 0. -1.
         -3    1    6    6    0  501 -0.20320552676E+02 -0.14050125964E+03  0.20729493773E+03  0.25124633337E+03  0.00000000000E+00 0.  1.
          5    1    5    5  502    0  0.24157554100E+01  0.38194353895E+02  0.52202155743E+02  0.64898379085E+02  0.47000000000E+01 0. -1.
         13    1    4    4    0    0  0.53927009310E+02  0.57932390289E+02  0.76629675804E+02  0.11016529123E+03  0.00000000000E+00 0. -1.
        -14    1    4    4    0    0  0.25127970191E+02 -0.15131105693E+02 -0.27188949494E+01  0.29457726239E+02  0.00000000000E+00 0.  1.
         -5    1    3    3    0  504 -0.23319827142E+02  0.90964369038E+02 -0.48005602322E+01  0.94145983191E+02  0.47000000000E+01 0.  1.
<mgrwt>
<rscale>  2 0.23221921E+03</rscale>
<asrwt>0</asrwt>
<pdfrwt beam="1">  1       21 0.88066118E-01 0.23526381E+03</pdfrwt>
<pdfrwt beam="2">  1       21 0.17722734E-01 0.23526381E+03</pdfrwt>
<totfact> 0.31207687E+04</totfact>
</mgrwt>
</event>
<event>
12    1  0.2736842E-001  0.2277646E+03  0.7546771E-02  0.1129001E+00
         21   -1    0    0  502  503  0.00000000000E+00  0.00000000000E+00  0.12489454704E+03  0.12489454704E+03  0.00000000000E+00 0. -1.
         21   -1    0    0  503  504 -0.00000000000E+00 -0.00000000000E+00 -0.73325718721E+03  0.73325718721E+03  0.00000000000E+00 0.  1.
         -6    2    1    2    0  504 -0.14284480199E+03 -0.14206596102E+02 -0.59177342867E+03  0.63409185865E+03  0.17683390370E+03 0.  0.
        -24    2    3    3    0    0 -0.91614125146E+01  0.28282446787E+02 -0.27127911884E+03  0.28421293671E+03  0.79377608916E+02 0.  0.
          6    2    1    2  502    0  0.14284480199E+03  0.14206596102E+02 -0.16589211504E+02  0.22405987559E+03  0.17123422872E+03 0.  0.
         24    2    5    5    0    0  0.14998629530E+03  0.73783927290E+01  0.33039858580E+02  0.17323901486E+03  0.79810992714E+02 0.  0.
          4    1    6    6  501    0  0.13499005705E+03  0.33918173352E+02  0.31561650380E+02  0.14271964041E+03  0.00000000000E+00 0. -1.
         -3    1    6    6    0  501  0.14996238256E+02 -0.26539780623E+02  0.14782081997E+01  0.30519374450E+02  0.00000000000E+00 0.  1.
          5    1    5    5  502    0 -0.71414933099E+01  0.68282033733E+01 -0.49629070084E+02  0.50820860731E+02  0.47000000000E+01 0. -1.
         13    1    4    4    0    0  0.13346508979E+02  0.22750567116E+02 -0.23422827741E+02  0.35275295398E+02  0.00000000000E+00 0. -1.
        -14    1    4    4    0    0 -0.22507921494E+02  0.55318796708E+01 -0.24785629110E+03  0.24893764131E+03  0.00000000000E+00 0.  1.
         -5    1    3    3    0  504 -0.13368338948E+03 -0.42489042889E+02 -0.32049430983E+03  0.34987892194E+03  0.47000000000E+01 0.  1.
<mgrwt>
<rscale>  2 0.22667688E+03</rscale>
<asrwt>0</asrwt>
<pdfrwt beam="1">  1       21 0.19214546E-01 0.22776456E+03</pdfrwt>
<pdfrwt beam="2">  1       21 0.11280880E+00 0.22776456E+03</pdfrwt>
<totfact> 0.14944170E+04</totfact>
</mgrwt>
</event>
<event>
12    1  0.2736842E-001  0.2350599E+03  0.7546771E-02  0.1123212E+00
         21   -1    0    0  502  503  0.00000000000E+00  0.00000000000E+00  0.79249833185E+03  0.79249833185E+03  0.00000000000E+00 0.  1.
         21   -1    0    0  503  504 -0.00000000000E+00 -0.00000000000E+00 -0.74368641835E+02  0.74368641835E+02  0.00000000000E+00 0. -1.
         -6    2    1    2    0  504  0.15718821031E+03  0.17132339813E+01  0.24868194408E+03  0.34185805489E+03  0.17410672518E+03 0.  0.
        -24    2    3    3    0    0  0.11479487822E+02 -0.92597585990E+01  0.51438923442E+02  0.96341583826E+02  0.80113770098E+02 0.  0.
          6    2    1    2  502    0 -0.15718821031E+03 -0.17132339813E+01  0.46944774593E+03  0.52500891879E+03  0.17476301101E+03 0.  0.
         24    2    5    5    0    0 -0.63700267144E+02  0.34519387623E+02  0.12438997101E+03  0.16564871451E+03  0.81959255579E+02 0.  0.
          4    1    6    6  501    0 -0.49812489754E+02  0.34922777227E+02  0.25791824199E+02  0.66076491283E+02  0.00000000000E+00 0. -1.
         -3    1    6    6    0  501 -0.13887777390E+02 -0.40338960355E+00  0.98598146810E+02  0.99572223227E+02  0.00000000000E+00 0.  1.
          5    1    5    5  502    0 -0.93487943164E+02 -0.36232621604E+02  0.34505777492E+03  0.35936020428E+03  0.47000000000E+01 0. -1.
         11    1    4    4    0    0  0.65677179621E+01  0.35357299434E+02  0.28777810509E+02  0.46059048190E+02  0.00000000000E+00 0. -1.
        -12    1    4    4    0    0  0.49117698597E+01 -0.44617058033E+02  0.22661112932E+02  0.50282535636E+02  0.00000000000E+00 0.  1.
         -5    1    3    3    0  504  0.14570872249E+03  0.10972992580E+02  0.19724302064E+03  0.24551647107E+03  0.47000000000E+01 0.  1.
<mgrwt>
<rscale>  2 0.23493797E+03</rscale>
<asrwt>0</asrwt>
<pdfrwt beam="1">  1       21 0.12192281E+00 0.23505995E+03</pdfrwt>
<pdfrwt beam="2">  1       21 0.11441330E-01 0.23505995E+03</pdfrwt>
<totfact> 0.31687471E+04</totfact>
</mgrwt>
</event>
<event>
12    1  0.2736842E-001  0.2125195E+03  0.7546771E-02  0.1139692E+00
         21   -1    0    0  502  503  0.00000000000E+00  0.00000000000E+00  0.13133366900E+03  0.13133366900E+03  0.00000000000E+00 0.  1.
         21   -1    0    0  503  504 -0.00000000000E+00 -0.00000000000E+00 -0.10108053892E+04  0.10108053892E+04  0.00000000000E+00 0.  1.
         -6    2    1    2    0  504  0.75670056521E+02  0.96956691206E+02 -0.90371361827E+03  0.92824137065E+03  0.17264756275E+03 0.  0.
        -24    2    3    3    0    0  0.85811064327E+02  0.12874927324E+03 -0.68236250835E+03  0.70433957929E+03  0.80843899192E+02 0.  0.
          6    2    1    2  502    0 -0.75670056521E+02 -0.96956691206E+02  0.24241898041E+02  0.21389768758E+03  0.17331472445E+03 0.  0.
         24    2    5    5    0    0 -0.12074097228E+02 -0.11898564191E+03  0.28531109269E+02  0.14629437375E+03  0.79275802049E+02 0.  0.
          4    1    6    6  501    0  0.20093241739E+01 -0.91139272208E+02 -0.15354449179E+02  0.92445461932E+02  0.00000000000E+00 0. -1.
         -3    1    6    6    0  501 -0.14083421402E+02 -0.27846369707E+02  0.43885558448E+02  0.53848911823E+02  0.00000000000E+00 0.  1.
          5    1    5    5  502    0 -0.63595959294E+02  0.22028950708E+02 -0.42892112288E+01  0.67603313830E+02  0.47000000000E+01 0. -1.
         11    1    4    4    0    0 -0.32427787096E+01  0.35655373452E+02 -0.26884846337E+03  0.27122189721E+03  0.00000000000E+00 0. -1.
        -12    1    4    4    0    0  0.89053843037E+02  0.93093899787E+02 -0.41351404497E+03  0.43311768208E+03  0.00000000000E+00 0.  1.
         -5    1    3    3    0  504 -0.10141007806E+02 -0.31792582034E+02 -0.22135110992E+03  0.22390179136E+03  0.47000000000E+01 0.  1.
<mgrwt>
<rscale>  2 0.21238347E+03</rscale>
<asrwt>0</asrwt>
<pdfrwt beam="1">  1       21 0.20205180E-01 0.21251953E+03</pdfrwt>
<pdfrwt beam="2">  1       21 0.15550852E+00 0.21251953E+03</pdfrwt>
<totfact> 0.60550262E+03</totfact>
</mgrwt>
</event>
<event>
12    1  0.2736842E-001  0.1743786E+03  0.7546771E-02  0.1173573E+00
         21   -1    0    0  502  503  0.00000000000E+00  0.00000000000E+00  0.39337714840E+03  0.39337714840E+03  0.00000000000E+00 0. -1.
         21   -1    0    0  503  504 -0.00000000000E+00 -0.00000000000E+00 -0.76923766864E+02  0.76923766864E+02  0.00000000000E+00 0. -1.
         -6    2    1    2    0  504  0.20267024337E+02  0.35069977388E+01  0.15906772965E+03  0.23540065618E+03  0.17230169763E+03 0.  0.
        -24    2    3    3    0    0  0.45434455148E+02 -0.28731179003E+01  0.17595417641E+03  0.20407418920E+03  0.92810872114E+02 0.  0.
          6    2    1    2  502    0 -0.20267024337E+02 -0.35069977388E+01  0.15738565189E+03  0.23490025909E+03  0.17316130338E+03 0.  0.
         24    2    5    5    0    0  0.26128500787E+02  0.51760705537E+02  0.64602775063E+02  0.11726601233E+03  0.78841168884E+02 0.  0.
          2    1    6    6  501    0  0.52409195063E+01  0.91834699240E+01 -0.18658106589E+02  0.21445938977E+02  0.00000000000E+00 0. -1.
         -1    1    6    6    0  501  0.20887581280E+02  0.42577235613E+02  0.83260881651E+02  0.95820073354E+02  0.00000000000E+00 0.  1.
          5    1    5    5  502    0 -0.46395525123E+02 -0.55267703275E+02  0.92782876830E+02  0.11763424676E+03  0.47000000000E+01 0. -1.
         13    1    4    4    0    0  0.16241745535E+02 -0.33539468238E+02  0.14967015426E+03  0.15423957114E+03  0.00000000000E+00 0. -1.
        -14    1    4    4    0    0  0.29192709613E+02  0.30666350337E+02  0.26284022143E+02  0.49834618064E+02  0.00000000000E+00 0.  1.
         -5    1    3    3    0  504 -0.25167430811E+02  0.63801156391E+01 -0.16886446761E+02  0.31326466980E+02  0.47000000000E+01 0.  1.
<mgrwt>
<rscale>  2 0.17416479E+03</rscale>
<asrwt>0</asrwt>
<pdfrwt beam="1">  1       21 0.60519560E-01 0.17437858E+03</pdfrwt>
<pdfrwt beam="2">  1       21 0.11834426E-01 0.17437858E+03</pdfrwt>
<totfact> 0.15394738E+05</totfact>
</mgrwt>
</event>
<event>
12    1  0.2736842E-001  0.2003902E+03  0.7546771E-02  0.1150366E+00
         21   -1    0    0  502  503  0.00000000000E+00  0.00000000000E+00  0.43708857580E+03  0.43708857580E+03  0.00000000000E+00 0.  1.
         21   -1    0    0  503  504 -0.00000000000E+00 -0.00000000000E+00 -0.13670426209E+03  0.13670426209E+03  0.00000000000E+00 0. -1.
         -6    2    1    2    0  504  0.99366230137E+02 -0.19280471736E+02 -0.18920504163E+02  0.19681563274E+03  0.16772901816E+03 0.  0.
        -24    2    3    3    0    0  0.39936622506E+02  0.34175280529E+02  0.30380777108E+02  0.10278318064E+03  0.82936765001E+02 0.  0.
          6    2    1    2  502    0 -0.99366230137E+02  0.19280471736E+02  0.31930481787E+03  0.37697720514E+03  0.17294757065E+03 0.  0.
         24    2    5    5    0    0 -0.11998152395E+03  0.53106783702E+02  0.21208803462E+03  0.26257992225E+03  0.82164375351E+02 0.  0.
          4    1    6    6  501    0  0.94573041575E+00  0.32028416090E+02  0.42230580216E+02  0.53010713527E+02  0.00000000000E+00 0. -1.
         -3    1    6    6    0  501 -0.12092725436E+03  0.21078367612E+02  0.16985745440E+03  0.20956920872E+03  0.00000000000E+00 0.  1.
          5    1    5    5  502    0  0.20615293810E+02 -0.33826311966E+02  0.10721678326E+03  0.11439728289E+03  0.47000000000E+01 0. -1.
         11    1    4    4    0    0  0.16401805496E+02  0.27659040198E+02 -0.25992468170E+02  0.41347915664E+02  0.00000000000E+00 0. -1.
        -12    1    4    4    0    0  0.23534817010E+02  0.65162403309E+01  0.56373245278E+02  0.61435264978E+02  0.00000000000E+00 0.  1.
         -5    1    3    3    0  504  0.59429607631E+02 -0.53455752264E+02 -0.49301281271E+02  0.94032452102E+02  0.47000000000E+01 0.  1.
<mgrwt>
<rscale>  2 0.19925916E+03</rscale>
<asrwt>0</asrwt>
<pdfrwt beam="1">  1       21 0.67244396E-01 0.20039024E+03</pdfrwt>
<pdfrwt beam="2">  1       21 0.21031425E-01 0.20039024E+03</pdfrwt>
<totfact> 0.42349788E+04</totfact>
</mgrwt>
</event>
<event>
12    1  0.2736842E-001  0.1771039E+03  0.7546771E-02  0.1170823E+00
         21   -1    0    0  502  503  0.00000000000E+00  0.00000000000E+00  0.14591001811E+02  0.14591001811E+02  0.00000000000E+00 0.  1.
         21   -1    0    0  503  504 -0.00000000000E+00 -0.00000000000E+00 -0.24662342483E+04  0.24662342483E+04  0.00000000000E+00 0.  1.
         -6    2    1    2    0  504 -0.16119907544E+02 -0.20239294045E+02 -0.16743389100E+04  0.16836001744E+04  0.17443990740E+03 0.  0.
        -24    2    3    3    0    0 -0.63802981027E+02 -0.42367048092E+02 -0.77882118883E+03  0.78652860986E+03  0.78733873311E+02 0.  0.
          6    2    1    2  502    0  0.16119907544E+02  0.20239294045E+02 -0.77730433645E+03  0.79722507566E+03  0.17520362256E+03 0.  0.
         24    2    5    5    0    0  0.65213004713E+02 -0.15038831089E+02 -0.34026197466E+03  0.35599634326E+03  0.80475353909E+02 0.  0.
          2    1    6    6  501    0  0.65376865591E+02  0.17204611171E+02 -0.27521495535E+03  0.28339619766E+03  0.00000000000E+00 0. -1.
         -1    1    6    6    0  501 -0.16386087776E+00 -0.32243442260E+02 -0.65047019310E+02  0.72600145594E+02  0.00000000000E+00 0.  1.
          5    1    5    5  502    0 -0.49093097170E+02  0.35278125135E+02 -0.43704236178E+03  0.44122873240E+03  0.47000000000E+01 0. -1.
         11    1    4    4    0    0 -0.13098274742E+02 -0.51320370882E+02 -0.27277078637E+03  0.27786551993E+03  0.00000000000E+00 0. -1.
        -12    1    4    4    0    0 -0.50704706285E+02  0.89533227900E+01 -0.50605040246E+03  0.50866308993E+03  0.00000000000E+00 0.  1.
         -5    1    3    3    0  504  0.47683073483E+02  0.22127754046E+02 -0.89551772119E+03  0.89707156457E+03  0.47000000000E+01 0.  1.
<mgrwt>
<rscale>  2 0.17691472E+03</rscale>
<asrwt>0</asrwt>
<pdfrwt beam="1">  1       21 0.22447684E-02 0.17710390E+03</pdfrwt>
<pdfrwt beam="2">  1       21 0.37942084E+00 0.17710390E+03</pdfrwt>
<totfact> 0.12126541E+04</totfact>
</mgrwt>
</event>
<event>
12    1  0.2736842E-001  0.3130272E+03  0.7546771E-02  0.1079026E+00
         21   -1    0    0  502  503  0.00000000000E+00  0.00000000000E+00  0.20347864357E+03  0.20347864357E+03  0.00000000000E+00 0. -1.
         21   -1    0    0  503  504 -0.00000000000E+00 -0.00000000000E+00 -0.54043101664E+03  0.54043101664E+03  0.00000000000E+00 0. -1.
         -6    2    1    2    0  504 -0.25968801620E+03  0.78112056275E+01 -0.44316124439E+02  0.31614862736E+03  0.17460571297E+03 0.  0.
        -24    2    3    3    0    0 -0.27502910609E+03  0.27156759756E+02 -0.44491504763E+02  0.29101458149E+03  0.79570684591E+02 0.  0.
          6    2    1    2  502    0  0.25968801620E+03 -0.78112056275E+01 -0.29263624863E+03  0.42776103286E+03  0.17275603182E+03 0.  0.
         24    2    5    5    0    0  0.26697371616E+03 -0.34511870877E+02 -0.25983597849E+03  0.38458749154E+03  0.89032401872E+02 0.  0.
          2    1    6    6  501    0  0.13261856009E+03  0.12675847167E+01 -0.72051299728E+02  0.15093269707E+03  0.00000000000E+00 0. -1.
         -1    1    6    6    0  501  0.13435515607E+03 -0.35779455594E+02 -0.18778467876E+03  0.23365479447E+03  0.00000000000E+00 0.  1.
          5    1    5    5  502    0 -0.72856999542E+01  0.26700665250E+02 -0.32800270142E+02  0.43173541319E+02  0.47000000000E+01 0. -1.
         11    1    4    4    0    0 -0.16890820068E+03  0.20961281738E+02 -0.66011630918E+02  0.18255654194E+03  0.00000000000E+00 0. -1.
        -12    1    4    4    0    0 -0.10612090541E+03  0.61954780181E+01  0.21520126155E+02  0.10845803955E+03  0.00000000000E+00 0.  1.
         -5    1    3    3    0  504  0.15341089886E+02 -0.19345554128E+02  0.17538032400E+00  0.25134045868E+02  0.47000000000E+01 0.  1.
<mgrwt>
<rscale>  2 0.31276990E+03</rscale>
<asrwt>0</asrwt>
<pdfrwt beam="1">  1       21 0.31304406E-01 0.31302721E+03</pdfrwt>
<pdfrwt beam="2">  1       21 0.83143234E-01 0.31302721E+03</pdfrwt>
<totfact> 0.11579584E+04</totfact>
</mgrwt>
</event>
<event>
12    1  0.2736842E-001  0.1853461E+03  0.7546771E-02  0.1163007E+00
         21   -1    0    0  502  503  0.00000000000E+00  0.00000000000E+00  0.14836243886E+03  0.14836243886E+03  0.00000000000E+00 0.  1.
         21   -1    0    0  503  504 -0.00000000000E+00 -0.00000000000E+00 -0.34079921383E+03  0.34079921383E+03  0.00000000000E+00 0.  1.
         -6    2    1    2    0  504 -0.93067352964E+01  0.66857231794E+02 -0.23543042016E+03  0.29889442181E+03  0.17132976358E+03 0.  0.
        -24    2    3    3    0    0  0.37940220386E+02 -0.13762716658E+02 -0.12666621055E+03  0.15542458456E+03  0.80520804127E+02 0.  0.
          6    2    1    2  502    0  0.93067352964E+01 -0.66857231794E+02  0.42993645182E+02  0.19026723088E+03  0.17261709317E+03 0.  0.
         24    2    5    5    0    0  0.57798837507E+02 -0.19574159138E+02  0.63236774973E+02  0.11942199645E+03  0.80863280941E+02 0.  0.
          4    1    6    6  501    0 -0.14717883836E+02 -0.75577510711E+01  0.38435309970E+02  0.41845056558E+02  0.00000000000E+00 0. -1.
         -3    1    6    6    0  501  0.72516721343E+02 -0.12016408067E+02  0.24801465004E+02  0.77576939895E+02  0.00000000000E+00 0.  1.
          5    1    5    5  502    0 -0.48492102211E+02 -0.47283072657E+02 -0.20243129791E+02  0.70845234423E+02  0.47000000000E+01 0. -1.
         11    1    4    4    0    0 -0.20228308293E+02 -0.21299329640E+02 -0.58764348934E+02  0.65696990838E+02  0.00000000000E+00 0. -1.
        -12    1    4    4    0    0  0.58168528679E+02  0.75366129819E+01 -0.67901861614E+02  0.89727593719E+02  0.00000000000E+00 0.  1.
         -5    1    3    3    0  504 -0.47246955683E+02  0.80619948452E+02 -0.10876420961E+03  0.14346983725E+03  0.47000000000E+01 0.  1.
<mgrwt>
<rscale>  2 0.18504576E+03</rscale>
<asrwt>0</asrwt>
<pdfrwt beam="1">  1       21 0.22824991E-01 0.18534607E+03</pdfrwt>
<pdfrwt beam="2">  1       21 0.52430647E-01 0.18534607E+03</pdfrwt>
<totfact> 0.62325945E+04</totfact>
</mgrwt>
</event>
<event>
12    1  0.2736842E-001  0.1815153E+03  0.7546771E-02  0.1166461E+00
         21   -1    0    0  502  503  0.00000000000E+00  0.00000000000E+00  0.93232614811E+03  0.93232614811E+03  0.00000000000E+00 0.  1.
         21   -1    0    0  503  504 -0.00000000000E+00 -0.00000000000E+00 -0.61142641138E+02  0.61142641138E+02  0.00000000000E+00 0.  1.
         -6    2    1    2    0  504 -0.15244503730E+02 -0.54652165384E+02  0.11264524086E+03  0.21362758345E+03  0.17241966260E+03 0.  0.
        -24    2    3    3    0    0  0.52788185087E+02 -0.32703647334E+02  0.37944495031E+02  0.11012649351E+03  0.82655543291E+02 0.  0.
          6    2    1    2  502    0  0.15244503730E+02  0.54652165384E+02  0.75853826611E+03  0.77984120579E+03  0.17190913592E+03 0.  0.
         24    2    5    5    0    0  0.31486617587E+02  0.71211478033E+02  0.74344023439E+03  0.75176884109E+03  0.79940769535E+02 0.  0.
          4    1    6    6  501    0 -0.22644538197E+02  0.47126158771E+02  0.33612765430E+03  0.34016973695E+03  0.00000000000E+00 0. -1.
         -3    1    6    6    0  501  0.54131155785E+02  0.24085319262E+02  0.40731258009E+03  0.41159910414E+03  0.00000000000E+00 0.  1.
          5    1    5    5  502    0 -0.16242113858E+02 -0.16559312648E+02  0.15098031725E+02  0.28072364701E+02  0.47000000000E+01 0. -1.
         13    1    4    4    0    0  0.57025509985E+02 -0.46362899913E+02  0.43598148651E+01  0.73623605338E+02  0.00000000000E+00 0. -1.
        -14    1    4    4    0    0 -0.42373248973E+01  0.13659252579E+02  0.33584680166E+02  0.36502888175E+02  0.00000000000E+00 0.  1.
         -5    1    3    3    0  504 -0.68032688817E+02 -0.21948518051E+02  0.74700745824E+02  0.10350108994E+03  0.47000000000E+01 0.  1.
<mgrwt>
<rscale>  2 0.18139393E+03</rscale>
<asrwt>0</asrwt>
<pdfrwt beam="1">  1       21 0.14343478E+00 0.18151527E+03</pdfrwt>
<pdfrwt beam="2">  1       21 0.94065608E-02 0.18151527E+03</pdfrwt>
<totfact> 0.30580684E+04</totfact>
</mgrwt>
</event>
<event>
12    1  0.2736842E-001  0.1894710E+03  0.7546771E-02  0.1160543E+00
         21   -1    0    0  502  503  0.00000000000E+00  0.00000000000E+00  0.21956200940E+03  0.21956200940E+03  0.00000000000E+00 0. -1.
         21   -1    0    0  503  504 -0.00000000000E+00 -0.00000000000E+00 -0.16255548614E+03  0.16255548614E+03  0.00000000000E+00 0. -1.
         -6    2    1    2    0  504 -0.51069285985E+02 -0.22844604664E+02  0.61463487988E+02  0.19259406041E+03  0.17373762924E+03 0.  0.
        -24    2    3    3    0    0 -0.14069070266E+02 -0.84318769319E+02  0.57215588674E+02  0.12056473630E+03  0.62885916179E+02 0.  0.
          6    2    1    2  502    0  0.51069285985E+02  0.22844604664E+02 -0.44569647280E+01  0.18952343513E+03  0.18102298196E+03 0.  0.
         24    2    5    5    0    0  0.96514299584E+02  0.64480675092E+01  0.30421528142E+02  0.12975141027E+03  0.80952896752E+02 0.  0.
          4    1    6    6  501    0  0.98301327329E+02  0.22375054081E+02  0.65884180032E+01  0.10103069460E+03  0.00000000000E+00 0. -1.
         -3    1    6    6    0  501 -0.17870277444E+01 -0.15926986571E+02  0.23833110139E+02  0.28720715665E+02  0.00000000000E+00 0.  1.
          5    1    5    5  502    0 -0.45445013599E+02  0.16396537155E+02 -0.34878492870E+02  0.59772024866E+02  0.47000000000E+01 0. -1.
         11    1    4    4    0    0 -0.66123415258E+00 -0.28978941380E+02  0.56633890992E+02  0.63620860439E+02  0.00000000000E+00 0. -1.
        -12    1    4    4    0    0 -0.13407836114E+02 -0.55339827939E+02  0.58169768127E+00  0.56943875858E+02  0.00000000000E+00 0.  1.
         -5    1    3    3    0  504 -0.37000215719E+02  0.61474164655E+02  0.42478993145E+01  0.72029324110E+02  0.47000000000E+01 0.  1.
<mgrwt>
<rscale>  2 0.18770965E+03</rscale>
<asrwt>0</asrwt>
<pdfrwt beam="1">  1       21 0.33778771E-01 0.18947102E+03</pdfrwt>
<pdfrwt beam="2">  1       21 0.25008536E-01 0.18947102E+03</pdfrwt>
<totfact> 0.12794059E+05</totfact>
</mgrwt>
</event>
<event>
12    1  0.2736842E-001  0.2409612E+03  0.7546771E-02  0.1119441E+00
         21   -1    0    0  502  503  0.00000000000E+00  0.00000000000E+00  0.41598812849E+03  0.41598812849E+03  0.00000000000E+00 0. -1.
         21   -1    0    0  503  504 -0.00000000000E+00 -0.00000000000E+00 -0.14123668286E+03  0.14123668286E+03  0.00000000000E+00 0.  1.
         -6    2    1    2    0  504  0.16443943402E+03 -0.21190908760E+01  0.98689102771E+02  0.25879517189E+03  0.17375437831E+03 0.  0.
        -24    2    3    3    0    0  0.15673814215E+03 -0.19696603177E+02  0.14617728015E+02  0.17243334648E+03  0.67563152868E+02 0.  0.
          6    2    1    2  502    0 -0.16443943402E+03  0.21190908760E+01  0.17606234286E+03  0.29842963946E+03  0.17611781037E+03 0.  0.
         24    2    5    5    0    0 -0.99181195038E+02  0.23014577753E+02  0.18807544592E+03  0.22870400736E+03  0.81034371620E+02 0.  0.
          4    1    6    6  501    0 -0.10952657088E+03  0.20656470740E+02  0.13736412336E+03  0.17689449369E+03  0.00000000000E+00 0. -1.
         -3    1    6    6    0  501  0.10345375842E+02  0.23581070127E+01  0.50711322567E+02  0.51809513668E+02  0.00000000000E+00 0.  1.
          5    1    5    5  502    0 -0.65258238986E+02 -0.20895486877E+02 -0.12013103062E+02  0.69725632106E+02  0.47000000000E+01 0. -1.
         13    1    4    4    0    0 -0.54018913707E+01 -0.45983679976E+00 -0.57357504306E+01  0.78924465957E+01  0.00000000000E+00 0. -1.
        -14    1    4    4    0    0  0.16214003352E+03 -0.19236766378E+02  0.20353478446E+02  0.16454089988E+03  0.00000000000E+00 0.  1.
         -5    1    3    3    0  504  0.77012918769E+01  0.17577512301E+02  0.84071374756E+02  0.86361825413E+02  0.47000000000E+01 0.  1.
<mgrwt>
<rscale>  2 0.24052955E+03</rscale>
<asrwt>0</asrwt>
<pdfrwt beam="1">  1       21 0.63998173E-01 0.24096120E+03</pdfrwt>
<pdfrwt beam="2">  1       21 0.21728721E-01 0.24096120E+03</pdfrwt>
<totfact> 0.43539359E+04</totfact>
</mgrwt>
</event>
<event>
12    1  0.2736842E-001  0.2014736E+03  0.7546771E-02  0.1151042E+00
         21   -1    0    0  502  503  0.00000000000E+00  0.00000000000E+00  0.21814805762E+03  0.21814805762E+03  0.00000000000E+00 0. -1.
         21   -1    0    0  503  504 -0.00000000000E+00 -0.00000000000E+00 -0.20165386803E+03  0.20165386803E+03  0.00000000000E+00 0.  1.
         -6    2    1    2    0  504  0.81404980162E+02  0.19109421969E+02  0.83798530438E+02  0.20738377994E+03  0.17027594567E+03 0.  0.
        -24    2    3    3    0    0  0.79670489596E+02  0.71746637334E+02  0.74534879892E+02  0.15370333545E+03  0.81082057984E+02 0.  0.
          6    2    1    2  502    0 -0.81404980162E+02 -0.19109421969E+02 -0.67304340845E+02  0.21241814571E+03  0.18330208271E+03 0.  0.
         24    2    5    5    0    0 -0.51322281611E+02 -0.67463138232E+02  0.86718592048E+01  0.11735225486E+03  0.80691381009E+02 0.  0.
          4    1    6    6  501    0  0.15738409763E+02 -0.14914472762E+02  0.22264333893E+02  0.31077960090E+02  0.00000000000E+00 0. -1.
         -3    1    6    6    0  501 -0.67060691375E+02 -0.52548665470E+02 -0.13592474688E+02  0.86274294772E+02  0.00000000000E+00 0.  1.
          5    1    5    5  502    0 -0.30082698551E+02  0.48353716263E+02 -0.75976200050E+02  0.95065890847E+02  0.47000000000E+01 0. -1.
         13    1    4    4    0    0  0.16574152776E+02  0.32435388625E+01  0.56330194236E+02  0.58807430375E+02  0.00000000000E+00 0. -1.
        -14    1    4    4    0    0  0.63096336820E+02  0.68503098472E+02  0.18204685656E+02  0.94895905076E+02  0.00000000000E+00 0.  1.
         -5    1    3    3    0  504  0.17344905668E+01 -0.52637215365E+02  0.92636505460E+01  0.53680444487E+02  0.47000000000E+01 0.  1.
<mgrwt>
<rscale>  2 0.19846320E+03</rscale>
<asrwt>0</asrwt>
<pdfrwt beam="1">  1       21 0.33561240E-01 0.20147356E+03</pdfrwt>
<pdfrwt beam="2">  1       21 0.31023672E-01 0.20147356E+03</pdfrwt>
<totfact> 0.85027928E+04</totfact>
</mgrwt>
</event>
<event>
12    1  0.2736842E-001  0.1895112E+03  0.7546771E-02  0.1159090E+00
         21   -1    0    0  502  503  0.00000000000E+00  0.00000000000E+00  0.26769856325E+02  0.26769856325E+02  0.00000000000E+00 0. -1.
         21   -1    0    0  503  504 -0.00000000000E+00 -0.00000000000E+00 -0.15663447422E+04  0.15663447422E+04  0.00000000000E+00 0. -1.
         -6    2    1    2    0  504 -0.98495748529E+01 -0.74951786598E+02 -0.10768428895E+04  0.10933915621E+04  0.17378065220E+03 0.  0.
        -24    2    3    3    0    0  0.16918482234E+02  0.21711595309E+01 -0.26245529878E+03  0.27490899324E+03  0.80007635451E+02 0.  0.
          6    2    1    2  502    0  0.98495748529E+01  0.74951786598E+02 -0.46273199639E+03  0.49972303639E+03  0.17287980846E+03 0.  0.
         24    2    5    5    0    0  0.43706114491E+02  0.54043577113E+02 -0.44249730088E+03  0.45483482632E+03  0.78993197711E+02 0.  0.
          2    1    6    6  501    0  0.35314952555E+02  0.69259107569E+02 -0.25637445381E+03  0.26790265102E+03  0.00000000000E+00 0. -1.
         -1    1    6    6    0  501  0.83911619365E+01 -0.15215530457E+02 -0.18612284706E+03  0.18693217531E+03  0.00000000000E+00 0.  1.
          5    1    5    5  502    0 -0.33856539638E+02  0.20908209485E+02 -0.20234695516E+02  0.44888210064E+02  0.47000000000E+01 0. -1.
         13    1    4    4    0    0  0.12129442535E+02 -0.38699167439E+02 -0.12347315601E+03  0.12996295315E+03  0.00000000000E+00 0. -1.
        -14    1    4    4    0    0  0.47890396987E+01  0.40870326970E+02 -0.13898214278E+03  0.14494604010E+03  0.00000000000E+00 0.  1.
         -5    1    3    3    0  504 -0.26768057087E+02 -0.77122946129E+02 -0.81438759067E+03  0.81848256886E+03  0.47000000000E+01 0.  1.
<mgrwt>
<rscale>  2 0.18930444E+03</rscale>
<asrwt>0</asrwt>
<pdfrwt beam="1">  1       21 0.41184398E-02 0.18951121E+03</pdfrwt>
<pdfrwt beam="2">  1       21 0.24097609E+00 0.18951121E+03</pdfrwt>
<totfact> 0.28123012E+04</totfact>
</mgrwt>
</event>
<event>
12    1  0.2736842E-001  0.2039983E+03  0.7546771E-02  0.1146660E+00
         21   -1    0    0  502  503  0.00000000000E+00  0.00000000000E+00  0.21283608307E+03  0.21283608307E+03  0.00000000000E+00 0. -1.
         21   -1    0    0  503  504 -0.00000000000E+00 -0.00000000000E+00 -0.22606566049E+03  0.22606566049E+03  0.00000000000E+00 0. -1.
         -6    2    1    2    0  504  0.10347131535E+03  0.30862050703E+02 -0.88781895308E+02  0.22136220653E+03  0.17163980386E+03 0.  0.
        -24    2    3    3    0    0  0.74571333324E+02 -0.46683261098E+02 -0.62890075901E+02  0.13452350170E+03  0.80007501169E+02 0.  0.
          6    2    1    2  502    0 -0.10347131535E+03 -0.30862050703E+02  0.75552317889E+02  0.21753953703E+03  0.17307951398E+03 0.  0.
         24    2    5    5    0    0 -0.18029334545E+02 -0.72252173220E+02  0.48108654928E+02  0.11860158191E+03  0.78781083482E+02 0.  0.
          2    1    6    6  501    0  0.28216513293E+02 -0.31091145879E+02  0.36454776767E+02  0.55603792349E+02  0.00000000000E+00 0. -1.
         -1    1    6    6    0  501 -0.46245847838E+02 -0.41161027341E+02  0.11653878161E+02  0.62997789566E+02  0.00000000000E+00 0.  1.
          5    1    5    5  502    0 -0.85441980809E+02  0.41390122517E+02  0.27443662961E+02  0.98937955120E+02  0.47000000000E+01 0. -1.
         11    1    4    4    0    0  0.21517636308E+02  0.21663131527E+02 -0.27334544390E+02  0.40981425754E+02  0.00000000000E+00 0. -1.
        -12    1    4    4    0    0  0.53053697016E+02 -0.68346392625E+02 -0.35555531511E+02  0.93542075950E+02  0.00000000000E+00 0.  1.
         -5    1    3    3    0  504  0.28899982030E+02  0.77545311801E+02 -0.25891819407E+02  0.86838704826E+02  0.47000000000E+01 0.  1.
<mgrwt>
<rscale>  2 0.20369257E+03</rscale>
<asrwt>0</asrwt>
<pdfrwt beam="1">  1       21 0.32744013E-01 0.20399828E+03</pdfrwt>
<pdfrwt beam="2">  1       21 0.34779332E-01 0.20399828E+03</pdfrwt>
<totfact> 0.71178409E+04</totfact>
</mgrwt>
</event>
<event>
12    1  0.2736842E-001  0.1760237E+03  0.7546771E-02  0.1171964E+00
         21   -1    0    0  502  503  0.00000000000E+00  0.00000000000E+00  0.25891972675E+04  0.25891972675E+04  0.00000000000E+00 0.  1.
         21   -1    0    0  503  504 -0.00000000000E+00 -0.00000000000E+00 -0.11941773264E+02  0.11941773264E+02  0.00000000000E+00 0.  1.
         -6    2    1    2    0  504  0.79712924384E+01  0.29941931752E+02  0.12055068544E+04  0.12181427702E+04  0.17223522224E+03 0.  0.
        -24    2    3    3    0    0  0.21394379513E+02 -0.44900060669E+02  0.77245254055E+03  0.77843874264E+03  0.82524019075E+02 0.  0.
          6    2    1    2  502    0 -0.79712924384E+01 -0.29941931752E+02  0.13717486398E+04  0.13829962706E+04  0.17327519370E+03 0.  0.
         24    2    5    5    0    0  0.35034483644E+02 -0.71770999288E+02  0.81170086232E+03  0.81972478117E+03  0.81926403572E+02 0.  0.
          2    1    6    6  501    0  0.47789330867E+02 -0.60798092098E+02  0.38486222075E+03  0.39255465493E+03  0.00000000000E+00 0. -1.
         -1    1    6    6    0  501 -0.12754847223E+02 -0.10972907189E+02  0.42683864157E+03  0.42717012624E+03  0.00000000000E+00 0.  1.
          5    1    5    5  502    0 -0.43005776082E+02  0.41829067536E+02  0.56004777752E+03  0.56327148940E+03  0.47000000000E+01 0. -1.
         13    1    4    4    0    0  0.30730690881E+02  0.16062504427E+02  0.28164838818E+03  0.28377490018E+03  0.00000000000E+00 0. -1.
        -14    1    4    4    0    0 -0.93363113672E+01 -0.60962565096E+02  0.49080415237E+03  0.49466384246E+03  0.00000000000E+00 0.  1.
         -5    1    3    3    0  504 -0.13423087075E+02  0.74841992421E+02  0.43305431387E+03  0.43970402756E+03  0.47000000000E+01 0.  1.
<mgrwt>
<rscale>  2 0.17576726E+03</rscale>
<asrwt>0</asrwt>
<pdfrwt beam="1">  1       21 0.39833759E+00 0.17602373E+03</pdfrwt>
<pdfrwt beam="2">  1       21 0.18371980E-02 0.17602373E+03</pdfrwt>
<totfact> 0.12886795E+04</totfact>
</mgrwt>
</event>
<event>
12    1  0.2736842E-001  0.2087211E+03  0.7546771E-02  0.1142940E+00
         21   -1    0    0  502  503  0.00000000000E+00  0.00000000000E+00  0.79883393464E+03  0.79883393464E+03  0.00000000000E+00 0.  1.
         21   -1    0    0  503  504 -0.00000000000E+00 -0.00000000000E+00 -0.12980776930E+03  0.12980776930E+03  0.00000000000E+00 0. -1.
         -6    2    1    2    0  504 -0.11148811127E+03  0.29220272780E+02 -0.20751060293E+02  0.20797734523E+03  0.17187363478E+03 0.  0.
        -24    2    3    3    0    0 -0.89162273512E+01 -0.24198570820E+02  0.18544416866E+02  0.85744826044E+02  0.79644270708E+02 0.  0.
          6    2    1    2  502    0  0.11148811127E+03 -0.29220272780E+02  0.68977722563E+03  0.72066435870E+03  0.17401457872E+03 0.  0.
         24    2    5    5    0    0  0.96207070051E+02 -0.84186606730E+02  0.50177622751E+03  0.52414139978E+03  0.81250473157E+02 0.  0.
          4    1    6    6  501    0  0.64307189306E+02 -0.18422714224E+02  0.14136684525E+03  0.15639499970E+03  0.00000000000E+00 0. -1.
         -3    1    6    6    0  501  0.31899880745E+02 -0.65763892506E+02  0.36040938226E+03  0.36774640008E+03  0.00000000000E+00 0.  1.
          5    1    5    5  502    0  0.15281041219E+02  0.54966333950E+02  0.18800099812E+03  0.19652295892E+03  0.47000000000E+01 0. -1.
         11    1    4    4    0    0  0.12497758987E+02 -0.48552143910E+02  0.42806201536E+01  0.50317277021E+02  0.00000000000E+00 0. -1.
        -12    1    4    4    0    0 -0.21413986338E+02  0.24353573090E+02  0.14263796712E+02  0.35427549023E+02  0.00000000000E+00 0.  1.
         -5    1    3    3    0  504 -0.10257188392E+03  0.53418843600E+02 -0.39295477159E+02  0.12223251919E+03  0.47000000000E+01 0.  1.
<mgrwt>
<rscale>  2 0.20827427E+03</rscale>
<asrwt>0</asrwt>
<pdfrwt beam="1">  1       21 0.12289752E+00 0.20872110E+03</pdfrwt>
<pdfrwt beam="2">  1       21 0.19970427E-01 0.20872110E+03</pdfrwt>
<totfact> 0.11390551E+04</totfact>
</mgrwt>
</event>
<event>
12    1  0.2736842E-001  0.3541076E+03  0.7546771E-02  0.1060962E+00
         21   -1    0    0  502  503  0.00000000000E+00  0.00000000000E+00  0.71945039184E+03  0.71945039184E+03  0.00000000000E+00 0.  1.
         21   -1    0    0  503  504 -0.00000000000E+00 -0.00000000000E+00 -0.89689363355E+03  0.89689363355E+03  0.00000000000E+00 0. -1.
         -6    2    1    2    0  504 -0.25920813185E+03  0.16897728883E+03 -0.81417622720E+03  0.88776934834E+03  0.17178273240E+03 0.  0.
        -24    2    3    3    0    0 -0.10719715736E+03  0.11409676261E+03 -0.29148751184E+03  0.34064523839E+03  0.81024114263E+02 0.  0.
          6    2    1    2  502    0  0.25920813185E+03 -0.16897728883E+03  0.63673298550E+03  0.72857467705E+03  0.17219171134E+03 0.  0.
         24    2    5    5    0    0  0.22222779431E+03 -0.96964305895E+02  0.37023736238E+03  0.45001512827E+03  0.81551468325E+02 0.  0.
          4    1    6    6  501    0  0.17773727896E+03 -0.51600313655E+02  0.22397709577E+03  0.29054925939E+03  0.00000000000E+00 0. -1.
         -3    1    6    6    0  501  0.44490515345E+02 -0.45363992240E+02  0.14626026662E+03  0.15946586888E+03  0.00000000000E+00 0.  1.
          5    1    5    5  502    0  0.36980337543E+02 -0.72012982939E+02  0.26649562311E+03  0.27855954878E+03  0.47000000000E+01 0. -1.
         11    1    4    4    0    0 -0.49730794308E+02  0.42987109053E+02 -0.20312301535E+03  0.21349473720E+03  0.00000000000E+00 0. -1.
        -12    1    4    4    0    0 -0.57466363052E+02  0.71109653562E+02 -0.88364496488E+02  0.12715050119E+03  0.00000000000E+00 0.  1.
         -5    1    3    3    0  504 -0.15201097449E+03  0.54880526219E+02 -0.52268871536E+03  0.54712410995E+03  0.47000000000E+01 0.  1.
<mgrwt>
<rscale>  2 0.35405788E+03</rscale>
<asrwt>0</asrwt>
<pdfrwt beam="1">  1       21 0.11068468E+00 0.35410756E+03</pdfrwt>
<pdfrwt beam="2">  1       21 0.13798364E+00 0.35410756E+03</pdfrwt>
<totfact> 0.20639171E+02</totfact>
</mgrwt>
</event>
<event>
12    1  0.2736842E-001  0.1735259E+03  0.7546771E-02  0.1174393E+00
         21   -1    0    0  502  503  0.00000000000E+00  0.00000000000E+00  0.34827186825E+03  0.34827186825E+03  0.00000000000E+00 0.  1.
         21   -1    0    0  503  504 -0.00000000000E+00 -0.00000000000E+00 -0.19103474185E+03  0.19103474185E+03  0.00000000000E+00 0.  1.
         -6    2    1    2    0  504  0.15449910364E+02 -0.34245652390E+01 -0.12128466775E+03  0.21115170853E+03  0.17211811644E+03 0.  0.
        -24    2    3    3    0    0  0.62690685791E+02 -0.28974253345E+02 -0.38785899852E+02  0.11259911278E+03  0.80028649427E+02 0.  0.
          6    2    1    2  502    0 -0.15449910364E+02  0.34245652390E+01  0.27852179415E+03  0.32815490157E+03  0.17280284209E+03 0.  0.
         24    2    5    5    0    0  0.11233349882E+02  0.66412665332E+02  0.16600022728E+03  0.19638734054E+03  0.80467892977E+02 0.  0.
          2    1    6    6  501    0  0.19596182629E+01  0.35372524348E+02  0.96519334032E+01  0.36718052793E+02  0.00000000000E+00 0. -1.
         -1    1    6    6    0  501  0.92737316195E+01  0.31040140984E+02  0.15634829388E+03  0.15966928775E+03  0.00000000000E+00 0.  1.
          5    1    5    5  502    0 -0.26683260247E+02 -0.62988100093E+02  0.11252156686E+03  0.13176756103E+03  0.47000000000E+01 0. -1.
         11    1    4    4    0    0  0.14860431286E+01 -0.41140274007E+02 -0.45374371645E+01  0.41416407444E+02  0.00000000000E+00 0. -1.
        -12    1    4    4    0    0  0.61204642663E+02  0.12166020661E+02 -0.34248462687E+02  0.71182705334E+02  0.00000000000E+00 0.  1.
         -5    1    3    3    0  504 -0.47240775427E+02  0.25549688106E+02 -0.82498767897E+02  0.98552595754E+02  0.47000000000E+01 0.  1.
<mgrwt>
<rscale>  2 0.17335522E+03</rscale>
<asrwt>0</asrwt>
<pdfrwt beam="1">  1       21 0.53580287E-01 0.17352593E+03</pdfrwt>
<pdfrwt beam="2">  1       21 0.29389960E-01 0.17352593E+03</pdfrwt>
<totfact> 0.36924533E+04</totfact>
</mgrwt>
</event>
<event>
12    1  0.2736842E-001  0.2483476E+03  0.7546771E-02  0.1114470E+00
         21   -1    0    0  502  503  0.00000000000E+00  0.00000000000E+00  0.25703383039E+03  0.25703383039E+03  0.00000000000E+00 0.  1.
         21   -1    0    0  503  504 -0.00000000000E+00 -0.00000000000E+00 -0.24204148630E+03  0.24204148630E+03  0.00000000000E+00 0.  1.
         -6    2    1    2    0  504  0.12502519319E+03  0.12616677828E+03 -0.19318425807E+02  0.24836875217E+03  0.17252385517E+03 0.  0.
        -24    2    3    3    0    0  0.94723392215E+02  0.72707892432E+01 -0.12708384940E+02  0.12540437524E+03  0.80866364289E+02 0.  0.
          6    2    1    2  502    0 -0.12502519319E+03 -0.12616677828E+03  0.34310769899E+02  0.25070656453E+03  0.17357188047E+03 0.  0.
         24    2    5    5    0    0 -0.55537439392E+02 -0.13881650715E+03 -0.72005003855E+01  0.16864659177E+03  0.77687810354E+02 0.  0.
          2    1    6    6  501    0  0.95822757774E+01 -0.52517268219E+01  0.14838000086E+02  0.18427340834E+02  0.00000000000E+00 0. -1.
         -1    1    6    6    0  501 -0.65119715170E+02 -0.13356478033E+03 -0.22038500471E+02  0.15021925094E+03  0.00000000000E+00 0.  1.
          5    1    5    5  502    0 -0.69487753796E+02  0.12649728870E+02  0.41511270284E+02  0.82059972756E+02  0.47000000000E+01 0. -1.
         11    1    4    4    0    0  0.36036176634E+01 -0.11599422268E+02 -0.28537117441E+02  0.31014508364E+02  0.00000000000E+00 0. -1.
        -12    1    4    4    0    0  0.91119774552E+02  0.18870211511E+02  0.15828732501E+02  0.94389866879E+02  0.00000000000E+00 0.  1.
         -5    1    3    3    0  504  0.30301800973E+02  0.11889598904E+03 -0.66100408669E+01  0.12296437693E+03  0.47000000000E+01 0.  1.
<mgrwt>
<rscale>  2 0.24816461E+03</rscale>
<asrwt>0</asrwt>
<pdfrwt beam="1">  1       21 0.39543666E-01 0.24834764E+03</pdfrwt>
<pdfrwt beam="2">  1       21 0.37237152E-01 0.24834764E+03</pdfrwt>
<totfact> 0.41782537E+04</totfact>
</mgrwt>
</event>
<event>
12    1  0.2736842E-001  0.1744289E+03  0.7546771E-02  0.1173951E+00
         21   -1    0    0  502  503  0.00000000000E+00  0.00000000000E+00  0.32825888334E+03  0.32825888334E+03  0.00000000000E+00 0.  1.
         21   -1    0    0  503  504 -0.00000000000E+00 -0.00000000000E+00 -0.10872602634E+03  0.10872602634E+03  0.00000000000E+00 0.  1.
         -6    2    1    2    0  504  0.14519422219E+02 -0.13949934742E+02  0.21731055341E+02  0.17325967507E+03  0.17070811913E+03 0.  0.
        -24    2    3    3    0    0 -0.46203448747E+02 -0.42057154780E+02 -0.89613772639E+01  0.99493840862E+02  0.76910045786E+02 0.  0.
          6    2    1    2  502    0 -0.14519422219E+02  0.13949934742E+02  0.19780180166E+03  0.26372523462E+03  0.17326289947E+03 0.  0.
         24    2    5    5    0    0  0.29410851909E+02  0.19736030814E+02  0.35159048402E+02  0.95089226958E+02  0.80940059777E+02 0.  0.
          4    1    6    6  501    0  0.40789745287E+02  0.40191800427E+00  0.52677897579E+02  0.66625263617E+02  0.00000000000E+00 0. -1.
         -3    1    6    6    0  501 -0.11378893378E+02  0.19334112810E+02 -0.17518849176E+02  0.28463963342E+02  0.00000000000E+00 0.  1.
          5    1    5    5  502    0 -0.43930274128E+02 -0.57860960728E+01  0.16264275325E+03  0.16863600766E+03  0.47000000000E+01 0. -1.
         13    1    4    4    0    0 -0.15444870355E+02 -0.38912913737E+02 -0.38394375883E+02  0.56805694919E+02  0.00000000000E+00 0. -1.
        -14    1    4    4    0    0 -0.30758578392E+02 -0.31442410428E+01  0.29432998619E+02  0.42688145944E+02  0.00000000000E+00 0.  1.
         -5    1    3    3    0  504  0.60722870966E+02  0.28107220038E+02  0.30692432604E+02  0.73765834203E+02  0.47000000000E+01 0.  1.
<mgrwt>
<rscale>  2 0.17379106E+03</rscale>
<asrwt>0</asrwt>
<pdfrwt beam="1">  1       21 0.50501366E-01 0.17442892E+03</pdfrwt>
<pdfrwt beam="2">  1       21 0.16727081E-01 0.17442892E+03</pdfrwt>
<totfact> 0.12072621E+05</totfact>
</mgrwt>
</event>
<event>
12    1  0.2736842E-001  0.2017377E+03  0.7546771E-02  0.1148402E+00
         21   -1    0    0  502  503  0.00000000000E+00  0.00000000000E+00  0.26575228117E+03  0.26575228117E+03  0.00000000000E+00 0. -1.
         21   -1    0    0  503  504 -0.00000000000E+00 -0.00000000000E+00 -0.18060882941E+03  0.18060882941E+03  0.00000000000E+00 0. -1.
         -6    2    1    2    0  504 -0.10219702013E+03  0.10041455366E+02 -0.45203575298E+02  0.20617689998E+03  0.17297540032E+03 0.  0.
        -24    2    3    3    0    0 -0.12155483124E+03  0.41887750963E+02 -0.91995868291E+01  0.15414528863E+03  0.84533880360E+02 0.  0.
          6    2    1    2  502    0  0.10219702013E+03 -0.10041455366E+02  0.13034702706E+03  0.24018421059E+03  0.17364632390E+03 0.  0.
         24    2    5    5    0    0  0.17579643615E+02 -0.44068018048E+01 -0.25370053208E+01  0.82475283165E+02  0.80419351934E+02 0.  0.
          4    1    6    6  501    0  0.48237885419E+02 -0.37070182717E+01  0.99006854986E+01  0.49382781893E+02  0.00000000000E+00 0. -1.
         -3    1    6    6    0  501 -0.30658241804E+02 -0.69978353316E+00 -0.12437690819E+02  0.33092501272E+02  0.00000000000E+00 0.  1.
          5    1    5    5  502    0  0.84617376516E+02 -0.56346535613E+01  0.13288403238E+03  0.15770892743E+03  0.47000000000E+01 0. -1.
         11    1    4    4    0    0 -0.39352110525E+02 -0.25931442216E+02  0.56243762425E+00  0.47131142934E+02  0.00000000000E+00 0. -1.
        -12    1    4    4    0    0 -0.82202720720E+02  0.67819193179E+02 -0.97620244533E+01  0.10701414569E+03  0.00000000000E+00 0.  1.
         -5    1    3    3    0  504  0.19357811114E+02 -0.31846295597E+02 -0.36003988469E+02  0.52031611353E+02  0.47000000000E+01 0.  1.
<mgrwt>
<rscale>  2 0.20159326E+03</rscale>
<asrwt>0</asrwt>
<pdfrwt beam="1">  1       21 0.40884967E-01 0.20173772E+03</pdfrwt>
<pdfrwt beam="2">  1       21 0.27785974E-01 0.20173772E+03</pdfrwt>
<totfact> 0.70970436E+04</totfact>
</mgrwt>
</event>
<event>
12    1  0.2736842E-001  0.4172862E+03  0.7546771E-02  0.1038027E+00
         21   -1    0    0  502  503  0.00000000000E+00  0.00000000000E+00  0.62955083459E+03  0.62955083459E+03  0.00000000000E+00 0.  1.
         21   -1    0    0  503  504 -0.00000000000E+00 -0.00000000000E+00 -0.62061233547E+03  0.62061233547E+03  0.00000000000E+00 0.  1.
         -6    2    1    2    0  504 -0.14645634862E+03  0.34992921692E+03 -0.46132659279E+03  0.62145254829E+03  0.17170068624E+03 0.  0.
        -24    2    3    3    0    0 -0.10231935862E+03  0.20369449225E+03 -0.37399876820E+03  0.44543860699E+03  0.81115822494E+02 0.  0.
          6    2    1    2  502    0  0.14645634862E+03 -0.34992921692E+03  0.47026509192E+03  0.62871062177E+03  0.17386164140E+03 0.  0.
         24    2    5    5    0    0  0.22530852337E+02 -0.23109453466E+03  0.27422937513E+03  0.36807428011E+03  0.79778457255E+02 0.  0.
          2    1    6    6  501    0 -0.22413662362E+02 -0.21420808813E+02  0.31711830392E+02  0.44349334803E+02  0.00000000000E+00 0. -1.
         -1    1    6    6    0  501  0.44944514699E+02 -0.20967372584E+03  0.24251754474E+03  0.32372494531E+03  0.00000000000E+00 0.  1.
          5    1    5    5  502    0  0.12392549628E+03 -0.11883468226E+03  0.19603571679E+03  0.26063634166E+03  0.47000000000E+01 0. -1.
         13    1    4    4    0    0  0.10758371111E+02  0.54946320226E+01 -0.93431431590E+01  0.15271799308E+02  0.00000000000E+00 0. -1.
        -14    1    4    4    0    0 -0.11307772973E+03  0.19819986023E+03 -0.36465562504E+03  0.43016680768E+03  0.00000000000E+00 0.  1.
         -5    1    3    3    0  504 -0.44136990004E+02  0.14623472467E+03 -0.87327824591E+02  0.17601394130E+03  0.47000000000E+01 0.  1.
<mgrwt>
<rscale>  2 0.41706211E+03</rscale>
<asrwt>0</asrwt>
<pdfrwt beam="1">  1       21 0.96853975E-01 0.41728622E+03</pdfrwt>
<pdfrwt beam="2">  1       21 0.95478821E-01 0.41728622E+03</pdfrwt>
<totfact> 0.69334054E+02</totfact>
</mgrwt>
</event>
<event>
12    1  0.2736842E-001  0.1781346E+03  0.7546771E-02  0.1169857E+00
         21   -1    0    0  502  503  0.00000000000E+00  0.00000000000E+00  0.12706207938E+03  0.12706207938E+03  0.00000000000E+00 0.  1.
         21   -1    0    0  503  504 -0.00000000000E+00 -0.00000000000E+00 -0.28993407474E+03  0.28993407474E+03  0.00000000000E+00 0. -1.
         -6    2    1    2    0  504 -0.23170752282E+02  0.36057631429E+02 -0.16016854422E+03  0.23884099254E+03  0.17191282853E+03 0.  0.
        -24    2    3    3    0    0  0.39666894053E+02 -0.36223194670E+01 -0.13167348914E+03  0.15910940241E+03  0.79945672256E+02 0.  0.
          6    2    1    2  502    0  0.23170752282E+02 -0.36057631429E+02 -0.27034511423E+01  0.17815516158E+03  0.17290146443E+03 0.  0.
         24    2    5    5    0    0  0.18735599502E+02  0.37238290724E+02  0.34572460728E+02  0.95671548720E+02  0.78867466099E+02 0.  0.
          4    1    6    6  501    0 -0.28760547740E+02  0.22436206740E+02  0.26749135976E+01  0.36574685808E+02  0.00000000000E+00 0. -1.
         -3    1    6    6    0  501  0.47496147242E+02  0.14802083984E+02  0.31897547130E+02  0.59096862912E+02  0.00000000000E+00 0.  1.
          5    1    5    5  502    0  0.44351527803E+01 -0.73295922153E+02 -0.37275911870E+02  0.82483612859E+02  0.47000000000E+01 0. -1.
         13    1    4    4    0    0  0.42455764797E+01  0.29912725135E+02 -0.90060238483E+02  0.94992855523E+02  0.00000000000E+00 0. -1.
        -14    1    4    4    0    0  0.35421317573E+02 -0.33535044602E+02 -0.41613250653E+02  0.64116546889E+02  0.00000000000E+00 0.  1.
         -5    1    3    3    0  504 -0.62837646335E+02  0.39679950896E+02 -0.28495055083E+02  0.79731590127E+02  0.47000000000E+01 0.  1.
<mgrwt>
<rscale>  2 0.17789430E+03</rscale>
<asrwt>0</asrwt>
<pdfrwt beam="1">  1       21 0.19548012E-01 0.17813465E+03</pdfrwt>
<pdfrwt beam="2">  1       21 0.44605242E-01 0.17813465E+03</pdfrwt>
<totfact> 0.11683725E+05</totfact>
</mgrwt>
</event>
<event>
12    1  0.2736842E-001  0.1751226E+03  0.7546771E-02  0.1173094E+00
         21   -1    0    0  502  503  0.00000000000E+00  0.00000000000E+00  0.19199851120E+02  0.19199851120E+02  0.00000000000E+00 0. -1.
         21   -1    0    0  503  504 -0.00000000000E+00 -0.00000000000E+00 -0.16758198038E+04  0.16758198038E+04  0.00000000000E+00 0. -1.
         -6    2    1    2    0  504  0.16836018298E+02  0.18019408627E+02 -0.10355039782E+04  0.10502077909E+04  0.17337752031E+03 0.  0.
        -24    2    3    3    0    0 -0.35553866751E+02  0.57555160531E+02 -0.54000819041E+03  0.55036187317E+03  0.81930896365E+02 0.  0.
          6    2    1    2  502    0 -0.16836018298E+02 -0.18019408627E+02 -0.62111597445E+03  0.64481186402E+03  0.17143259801E+03 0.  0.
         24    2    5    5    0    0 -0.72972009322E+02 -0.26232572632E+02 -0.47724177477E+03  0.49008442339E+03  0.80062278544E+02 0.  0.
          4    1    6    6  501    0 -0.56143098510E+02 -0.26973146180E+02 -0.46526449878E+03  0.46941522339E+03  0.00000000000E+00 0. -1.
         -3    1    6    6    0  501 -0.16828910812E+02  0.74057354796E+00 -0.11977275995E+02  0.20669199998E+02  0.00000000000E+00 0.  1.
          5    1    5    5  502    0  0.56135991024E+02  0.82131640052E+01 -0.14387419968E+03  0.15472744063E+03  0.47000000000E+01 0. -1.
         13    1    4    4    0    0 -0.89906151730E+01  0.15267207321E+02 -0.15676418469E+02  0.23657321839E+02  0.00000000000E+00 0. -1.
        -14    1    4    4    0    0 -0.26563251578E+02  0.42287953211E+02 -0.52433177194E+03  0.52670455133E+03  0.00000000000E+00 0.  1.
         -5    1    3    3    0  504  0.52389885050E+02 -0.39535751904E+02 -0.49549578780E+03  0.49984591772E+03  0.47000000000E+01 0.  1.
<mgrwt>
<rscale>  2 0.17463924E+03</rscale>
<asrwt>0</asrwt>
<pdfrwt beam="1">  1       21 0.29538226E-02 0.17512257E+03</pdfrwt>
<pdfrwt beam="2">  1       21 0.25781848E+00 0.17512257E+03</pdfrwt>
<totfact> 0.39423603E+04</totfact>
</mgrwt>
</event>
<event>
12    1  0.2736842E-001  0.1841534E+03  0.7546771E-02  0.1164005E+00
         21   -1    0    0  502  503  0.00000000000E+00  0.00000000000E+00  0.47212307245E+02  0.47212307245E+02  0.00000000000E+00 0.  1.
         21   -1    0    0  503  504 -0.00000000000E+00 -0.00000000000E+00 -0.72903097404E+03  0.72903097404E+03  0.00000000000E+00 0.  1.
         -6    2    1    2    0  504 -0.42764385454E+01 -0.63114281333E+02 -0.39418399606E+03  0.43507872106E+03  0.17294730507E+03 0.  0.
        -24    2    3    3    0    0  0.31704958706E+02 -0.68790611172E+02 -0.38007679040E+03  0.39573428155E+03  0.80061866072E+02 0.  0.
          6    2    1    2  502    0  0.42764385454E+01  0.63114281333E+02 -0.28763467074E+03  0.34116456023E+03  0.17221455488E+03 0.  0.
         24    2    5    5    0    0 -0.55989889774E+02  0.50831046225E+02 -0.12065770022E+03  0.16315808036E+03  0.79646817555E+02 0.  0.
          2    1    6    6  501    0 -0.57177716414E+01  0.49066821895E+02 -0.25664087678E+02  0.55667686495E+02  0.00000000000E+00 0. -1.
         -1    1    6    6    0  501 -0.50272118133E+02  0.17642243299E+01 -0.94993612543E+02  0.10749039386E+03  0.00000000000E+00 0.  1.
          5    1    5    5  502    0  0.60266328320E+02  0.12283235108E+02 -0.16697697052E+03  0.17800647987E+03  0.47000000000E+01 0. -1.
         11    1    4    4    0    0  0.29532833338E+01 -0.14499949495E+02 -0.49400311287E+01  0.15600459139E+02  0.00000000000E+00 0. -1.
        -12    1    4    4    0    0  0.28751675372E+02 -0.54290661678E+02 -0.37513675927E+03  0.38013382241E+03  0.00000000000E+00 0.  1.
         -5    1    3    3    0  504 -0.35981397252E+02  0.56763298394E+01 -0.14107205660E+02  0.39344439507E+02  0.47000000000E+01 0.  1.
<mgrwt>
<rscale>  2 0.18398115E+03</rscale>
<asrwt>0</asrwt>
<pdfrwt beam="1">  1       21 0.72634327E-02 0.18415339E+03</pdfrwt>
<pdfrwt beam="2">  1       21 0.11215860E+00 0.18415339E+03</pdfrwt>
<totfact> 0.88743856E+04</totfact>
</mgrwt>
</event>
<event>
12    1  0.2736842E-001  0.2076026E+03  0.7546771E-02  0.1145869E+00
         21   -1    0    0  502  503  0.00000000000E+00  0.00000000000E+00  0.43714586352E+02  0.43714586352E+02  0.00000000000E+00 0.  1.
         21   -1    0    0  503  504 -0.00000000000E+00 -0.00000000000E+00 -0.13685377367E+04  0.13685377367E+04  0.00000000000E+00 0.  1.
         -6    2    1    2    0  504 -0.64222289551E+02  0.62389151596E+02 -0.10482712981E+04  0.10664492430E+04  0.17442581438E+03 0.  0.
        -24    2    3    3    0    0 -0.81151465620E+02  0.12317423498E+02 -0.40214583618E+03  0.41814840425E+03  0.79934567779E+02 0.  0.
          6    2    1    2  502    0  0.64222289551E+02 -0.62389151596E+02 -0.27655185229E+03  0.34580308011E+03  0.18730172049E+03 0.  0.
         24    2    5    5    0    0  0.11301408343E+03 -0.35967387865E+02 -0.15175843723E+03  0.20914937474E+03  0.81529145960E+02 0.  0.
          4    1    6    6  501    0  0.73199925126E+02 -0.32755809571E+02 -0.14887695394E+03  0.16910209789E+03  0.00000000000E+00 0. -1.
         -3    1    6    6    0  501  0.39814158308E+02 -0.32115782940E+01 -0.28814832910E+01  0.40047276847E+02  0.00000000000E+00 0.  1.
          5    1    5    5  502    0 -0.48791793883E+02 -0.26421763731E+02 -0.12479341506E+03  0.13665370537E+03  0.47000000000E+01 0. -1.
         13    1    4    4    0    0  0.58601336824E+01  0.25604797656E+02 -0.10538363094E+03  0.10860781049E+03  0.00000000000E+00 0. -1.
        -14    1    4    4    0    0 -0.87011599303E+02 -0.13287374158E+02 -0.29676220525E+03  0.30954059376E+03  0.00000000000E+00 0.  1.
         -5    1    3    3    0  504  0.16929176069E+02  0.50071728098E+02 -0.64612546190E+03  0.64830083871E+03  0.47000000000E+01 0.  1.
<mgrwt>
<rscale>  2 0.20465593E+03</rscale>
<asrwt>0</asrwt>
<pdfrwt beam="1">  1       21 0.67253213E-02 0.20760261E+03</pdfrwt>
<pdfrwt beam="2">  1       21 0.21054426E+00 0.20760261E+03</pdfrwt>
<totfact> 0.18444734E+04</totfact>
</mgrwt>
</event>
<event>
12    1  0.2736842E-001  0.1891332E+03  0.7546771E-02  0.1159729E+00
         21   -1    0    0  502  503  0.00000000000E+00  0.00000000000E+00  0.14382388797E+04  0.14382388797E+04  0.00000000000E+00 0.  1.
         21   -1    0    0  503  504 -0.00000000000E+00 -0.00000000000E+00 -0.50513437523E+02  0.50513437523E+02  0.00000000000E+00 0.  1.
         -6    2    1    2    0  504  0.15386146254E+01 -0.73316849789E+02  0.15874539205E+03  0.24530415456E+03  0.17203575486E+03 0.  0.
        -24    2    3    3    0    0 -0.41936906100E+02  0.93368872365E+01  0.98833434265E+02  0.13424879075E+03  0.80055034392E+02 0.  0.
          6    2    1    2  502    0 -0.15386146254E+01  0.73316849789E+02  0.12289800502E+04  0.12434481627E+04  0.17433772344E+03 0.  0.
         24    2    5    5    0    0 -0.52301224537E+02  0.22929184199E+02  0.96750721750E+03  0.97232846288E+03  0.78046513256E+02 0.  0.
          4    1    6    6  501    0 -0.44733445774E+02  0.50879281590E+02  0.68157377554E+03  0.68493254702E+03  0.00000000000E+00 0. -1.
         -3    1    6    6    0  501 -0.75677787625E+01 -0.27950097391E+02  0.28593344196E+03  0.28739591585E+03  0.00000000000E+00 0.  1.
          5    1    5    5  502    0  0.50762609911E+02  0.50387665590E+02  0.26147283266E+03  0.27111969981E+03  0.47000000000E+01 0. -1.
         11    1    4    4    0    0  0.11709451283E+02 -0.21971874146E+01  0.72341789691E+02  0.73316256162E+02  0.00000000000E+00 0. -1.
        -12    1    4    4    0    0 -0.53646357383E+02  0.11534074651E+02  0.26491644574E+02  0.60932534583E+02  0.00000000000E+00 0.  1.
         -5    1    3    3    0  504  0.43475520725E+02 -0.82653737025E+02  0.59911957781E+02  0.11105536381E+03  0.47000000000E+01 0.  1.
<mgrwt>
<rscale>  2 0.18860102E+03</rscale>
<asrwt>0</asrwt>
<pdfrwt beam="1">  1       21 0.22126749E+00 0.18913321E+03</pdfrwt>
<pdfrwt beam="2">  1       21 0.77712992E-02 0.18913321E+03</pdfrwt>
<totfact> 0.12509508E+04</totfact>
</mgrwt>
</event>
<event>
12    1  0.2736842E-001  0.3011102E+03  0.7546771E-02  0.1085135E+00
         21   -1    0    0  502  503  0.00000000000E+00  0.00000000000E+00  0.59043485607E+03  0.59043485607E+03  0.00000000000E+00 0.  1.
         21   -1    0    0  503  504 -0.00000000000E+00 -0.00000000000E+00 -0.28157675597E+03  0.28157675597E+03  0.00000000000E+00 0.  1.
         -6    2    1    2    0  504 -0.11821290028E+03  0.21265612219E+03 -0.14113924145E+03  0.33254715242E+03  0.17739900510E+03 0.  0.
        -24    2    3    3    0    0  0.11381489995E+02  0.84568186262E+02 -0.76514987624E+02  0.13915736597E+03  0.78923461221E+02 0.  0.
          6    2    1    2  502    0  0.11821290028E+03 -0.21265612219E+03  0.44999734155E+03  0.53946445962E+03  0.17125238595E+03 0.  0.
         24    2    5    5    0    0  0.13322755883E+03 -0.15421752609E+03  0.41510642291E+03  0.46960763684E+03  0.81764065776E+02 0.  0.
          2    1    6    6  501    0  0.11292098542E+03 -0.79768002979E+02  0.22048734506E+03  0.26024748333E+03  0.00000000000E+00 0. -1.
         -1    1    6    6    0  501  0.20306573411E+02 -0.74449523113E+02  0.19461907785E+03  0.20936015351E+03  0.00000000000E+00 0.  1.
          5    1    5    5  502    0 -0.15014658553E+02 -0.58438596095E+02  0.34890918641E+02  0.69856822778E+02  0.47000000000E+01 0.  1.
         13    1    4    4    0    0  0.17229952816E+02  0.90404682332E+02 -0.37669369988E+02  0.99442743812E+02  0.00000000000E+00 0. -1.
        -14    1    4    4    0    0 -0.58484628210E+01 -0.58364960702E+01 -0.38845617637E+02  0.39714622160E+02  0.00000000000E+00 0.  1.
         -5    1    3    3    0  504 -0.12959439027E+03  0.12808793593E+03 -0.64624253829E+02  0.19338978645E+03  0.47000000000E+01 0.  1.
<mgrwt>
<rscale>  2 0.30021118E+03</rscale>
<asrwt>0</asrwt>
<pdfrwt beam="1">  1       21 0.90836131E-01 0.30111015E+03</pdfrwt>
<pdfrwt beam="2">  1       21 0.43319501E-01 0.30111015E+03</pdfrwt>
<totfact> 0.49150478E+03</totfact>
</mgrwt>
</event>
<event>
12    1  0.2736842E-001  0.2057015E+03  0.7546771E-02  0.1145525E+00
         21   -1    0    0  502  503  0.00000000000E+00  0.00000000000E+00  0.88087739019E+02  0.88087739019E+02  0.00000000000E+00 0. -1.
         21   -1    0    0  503  504 -0.00000000000E+00 -0.00000000000E+00 -0.73457311643E+03  0.73457311643E+03  0.00000000000E+00 0. -1.
         -6    2    1    2    0  504 -0.27736458493E+01  0.11008679657E+03 -0.56668923213E+03  0.60202422133E+03  0.17079133864E+03 0.  0.
        -24    2    3    3    0    0  0.40491730816E+02  0.11396811937E+03 -0.31957283498E+03  0.35107490129E+03  0.80613131436E+02 0.  0.
          6    2    1    2  502    0  0.27736458493E+01 -0.11008679657E+03 -0.79796145282E+02  0.22063663413E+03  0.17374206062E+03 0.  0.
         24    2    5    5    0    0 -0.55211971543E+02 -0.28628155630E+02 -0.25893765847E+02  0.10694671146E+03  0.83061295954E+02 0.  0.
          4    1    6    6  501    0 -0.75873492800E+02 -0.22924080349E+02 -0.30667656191E+02  0.84987090230E+02  0.00000000000E+00 0. -1.
         -3    1    6    6    0  501  0.20661521257E+02 -0.57040752818E+01  0.47738903438E+01  0.21959621228E+02  0.00000000000E+00 0.  1.
          5    1    5    5  502    0  0.57985617392E+02 -0.81458640939E+02 -0.53902379435E+02  0.11368992267E+03  0.47000000000E+01 0. -1.
         13    1    4    4    0    0  0.14491801206E+01  0.67121820239E+02 -0.24857618887E+03  0.25748312672E+03  0.00000000000E+00 0. -1.
        -14    1    4    4    0    0  0.39042550695E+02  0.46846299133E+02 -0.70996646118E+02  0.93591774570E+02  0.00000000000E+00 0.  1.
         -5    1    3    3    0  504 -0.43265376665E+02 -0.38813228023E+01 -0.24711639715E+03  0.25094932003E+03  0.47000000000E+01 0.  1.
<mgrwt>
<rscale>  2 0.20507711E+03</rscale>
<asrwt>0</asrwt>
<pdfrwt beam="1">  1       21 0.13551960E-01 0.20570148E+03</pdfrwt>
<pdfrwt beam="2">  1       21 0.11301125E+00 0.20570148E+03</pdfrwt>
<totfact> 0.28626194E+04</totfact>
</mgrwt>
</event>
<event>
12    1  0.2736842E-001  0.1995646E+03  0.7546771E-02  0.1150463E+00
         21   -1    0    0  502  503  0.00000000000E+00  0.00000000000E+00  0.69193661310E+02  0.69193661310E+02  0.00000000000E+00 0.  1.
         21   -1    0    0  503  504 -0.00000000000E+00 -0.00000000000E+00 -0.61594626255E+03  0.61594626255E+03  0.00000000000E+00 0.  1.
         -6    2    1    2    0  504 -0.23932198202E+02  0.95987507659E+02 -0.36724454975E+03  0.41796483045E+03  0.17331961354E+03 0.  0.
        -24    2    3    3    0    0 -0.34141539659E+02  0.17174965193E+02 -0.43662538301E+02  0.84733595970E+02  0.61747395698E+02 0.  0.
          6    2    1    2  502    0  0.23932198202E+02 -0.95987507659E+02 -0.17950805150E+03  0.26717509341E+03  0.17138564190E+03 0.  0.
         24    2    5    5    0    0 -0.46334156295E+02 -0.57369941269E+02 -0.61041245067E+02  0.12404874631E+03  0.78891657742E+02 0.  0.
          4    1    6    6  501    0  0.78657137303E+01 -0.40288884056E+02 -0.52405282717E+02  0.66568590849E+02  0.00000000000E+00 0. -1.
         -3    1    6    6    0  501 -0.54199870025E+02 -0.17081057213E+02 -0.86359623503E+01  0.57480155462E+02  0.00000000000E+00 0.  1.
          5    1    5    5  502    0  0.70266354497E+02 -0.38617566390E+02 -0.11846680643E+03  0.14312634710E+03  0.47000000000E+01 0. -1.
         11    1    4    4    0    0  0.44073120390E+01 -0.69357093860E+01 -0.38042108852E+02  0.38919538923E+02  0.00000000000E+00 0. -1.
        -12    1    4    4    0    0 -0.38548851698E+02  0.24110674579E+02 -0.56204294488E+01  0.45814057047E+02  0.00000000000E+00 0.  1.
         -5    1    3    3    0  504  0.10209341457E+02  0.78812542466E+02 -0.32358201145E+03  0.33323123448E+03  0.47000000000E+01 0.  1.
<mgrwt>
<rscale>  2 0.19914397E+03</rscale>
<asrwt>0</asrwt>
<pdfrwt beam="1">  1       21 0.10645179E-01 0.19956463E+03</pdfrwt>
<pdfrwt beam="2">  1       21 0.94760958E-01 0.19956463E+03</pdfrwt>
<totfact> 0.67468723E+04</totfact>
</mgrwt>
</event>
<event>
12    1  0.2736842E-001  0.1751195E+03  0.7546771E-02  0.1173375E+00
         21   -1    0    0  502  503  0.00000000000E+00  0.00000000000E+00  0.83767853366E+02  0.83767853366E+02  0.00000000000E+00 0.  1.
         21   -1    0    0  503  504 -0.00000000000E+00 -0.00000000000E+00 -0.74137041440E+03  0.74137041440E+03  0.00000000000E+00 0.  1.
         -6    2    1    2    0  504  0.24412794523E+02 -0.13213345738E+02 -0.62615755688E+03  0.65018468085E+03  0.17290533866E+03 0.  0.
        -24    2    3    3    0    0 -0.16901949621E+02  0.47683187253E+02 -0.43646603852E+03  0.44666500624E+03  0.80297339794E+02 0.  0.
          6    2    1    2  502    0 -0.24412794523E+02  0.13213345738E+02 -0.31445004152E+02  0.17495358691E+03  0.16985108844E+03 0.  0.
         24    2    5    5    0    0 -0.79180308755E+02  0.15413651330E+01 -0.49464151835E+01  0.11282484184E+03  0.80206488595E+02 0.  0.
          2    1    6    6  501    0 -0.94920985249E+02 -0.41676817160E+01 -0.94625605931E+01  0.95482475170E+02  0.00000000000E+00 0. -1.
         -1    1    6    6    0  501  0.15740676495E+02  0.57090468490E+01  0.45161454096E+01  0.17342366673E+02  0.00000000000E+00 0.  1.
          5    1    5    5  502    0  0.54767514232E+02  0.11671980605E+02 -0.26498588969E+02  0.62128745068E+02  0.47000000000E+01 0. -1.
         11    1    4    4    0    0  0.10985651439E+02  0.54245885470E+01 -0.67732716483E+01  0.13999568110E+02  0.00000000000E+00 0. -1.
        -12    1    4    4    0    0 -0.27887601061E+02  0.42258598706E+02 -0.42969276687E+03  0.43266543813E+03  0.00000000000E+00 0.  1.
         -5    1    3    3    0  504  0.41314744144E+02 -0.60896532991E+02 -0.18969151836E+03  0.20351967461E+03  0.47000000000E+01 0.  1.
<mgrwt>
<rscale>  2 0.17436083E+03</rscale>
<asrwt>0</asrwt>
<pdfrwt beam="1">  1       21 0.12887363E-01 0.17511948E+03</pdfrwt>
<pdfrwt beam="2">  1       21 0.11405698E+00 0.17511948E+03</pdfrwt>
<totfact> 0.31199686E+04</totfact>
</mgrwt>
</event>
<event>
12    1  0.2736842E-001  0.1946018E+03  0.7546771E-02  0.1154404E+00
         21   -1    0    0  502  503  0.00000000000E+00  0.00000000000E+00  0.11906251378E+04  0.11906251378E+04  0.00000000000E+00 0.  1.
         21   -1    0    0  503  504 -0.00000000000E+00 -0.00000000000E+00 -0.53583340803E+02  0.53583340803E+02  0.00000000000E+00 0.  1.
         -6    2    1    2    0  504  0.57766904211E+02 -0.69228813183E+02  0.17161998995E+03  0.25936882626E+03  0.17230531996E+03 0.  0.
        -24    2    3    3    0    0  0.89391920787E+02 -0.71620334558E+02  0.82295935062E+02  0.16446499162E+03  0.84591516808E+02 0.  0.
          6    2    1    2  502    0 -0.57766904211E+02  0.69228813183E+02  0.96542180708E+03  0.98483965237E+03  0.17245356335E+03 0.  0.
         24    2    5    5    0    0  0.70540077187E+01  0.86487144746E+02  0.75078605471E+03  0.75991700606E+03  0.79147778982E+02 0.  0.
          2    1    6    6  501    0 -0.84734008455E+01  0.22458200027E+02  0.44469017183E+02  0.50533778402E+02  0.00000000000E+00 0. -1.
         -1    1    6    6    0  501  0.15527408564E+02  0.64028944719E+02  0.70631703753E+03  0.70938322766E+03  0.00000000000E+00 0.  1.
          5    1    5    5  502    0 -0.64820911929E+02 -0.17258331563E+02  0.21463575236E+03  0.22492264631E+03  0.47000000000E+01 0. -1.
         13    1    4    4    0    0 -0.17745615722E+00 -0.31475539556E+02  0.53674288035E+02  0.62222747264E+02  0.00000000000E+00 0. -1.
        -14    1    4    4    0    0  0.89569376944E+02 -0.40144795002E+02  0.28621647028E+02  0.10224224435E+03  0.00000000000E+00 0.  1.
         -5    1    3    3    0  504 -0.31625016576E+02  0.23915213754E+01  0.89324054890E+02  0.94903834643E+02  0.47000000000E+01 0.  1.
<mgrwt>
<rscale>  2 0.19456899E+03</rscale>
<asrwt>0</asrwt>
<pdfrwt beam="1">  1       21 0.18317308E+00 0.19460184E+03</pdfrwt>
<pdfrwt beam="2">  1       21 0.82435918E-02 0.19460184E+03</pdfrwt>
<totfact> 0.19696127E+04</totfact>
</mgrwt>
</event>
<event>
12    1  0.2736842E-001  0.2158343E+03  0.7546771E-02  0.1137040E+00
         21   -1    0    0  502  503  0.00000000000E+00  0.00000000000E+00  0.25631100010E+02  0.25631100010E+02  0.00000000000E+00 0.  1.
         21   -1    0    0  503  504 -0.00000000000E+00 -0.00000000000E+00 -0.19222540673E+04  0.19222540673E+04  0.00000000000E+00 0. -1.
         -6    2    1    2    0  504  0.54421906473E+02  0.11680922547E+03 -0.11764131893E+04  0.11960486809E+04  0.17314247345E+03 0.  0.
        -24    2    3    3    0    0  0.13478414642E+02  0.15009619372E+02 -0.79078830083E+03  0.79508961327E+03  0.80089949814E+02 0.  0.
          6    2    1    2  502    0 -0.54421906473E+02 -0.11680922547E+03 -0.72020977802E+03  0.75183648642E+03  0.17306021755E+03 0.  0.
         24    2    5    5    0    0 -0.30709191713E+02 -0.11504431941E+03 -0.71135736230E+03  0.72603216510E+03  0.83157428877E+02 0.  0.
          2    1    6    6  501    0 -0.45741938381E+02 -0.94692942843E+02 -0.66459521709E+03  0.67286393939E+03  0.00000000000E+00 0. -1.
         -1    1    6    6    0  501  0.15032746668E+02 -0.20351376569E+02 -0.46762145208E+02  0.53168225710E+02  0.00000000000E+00 0.  1.
          5    1    5    5  502    0 -0.23712714760E+02 -0.17649060546E+01 -0.88524157213E+01  0.25804321320E+02  0.47000000000E+01 0. -1.
         11    1    4    4    0    0  0.28646473000E+02 -0.18971661100E+02 -0.58182826819E+03  0.58284189794E+03  0.00000000000E+00 0. -1.
        -12    1    4    4    0    0 -0.15168058358E+02  0.33981280472E+02 -0.20896003265E+03  0.21224771533E+03  0.00000000000E+00 0.  1.
         -5    1    3    3    0  504  0.40943491831E+02  0.10179960609E+03 -0.38562488842E+03  0.40095906761E+03  0.47000000000E+01 0.  1.
<mgrwt>
<rscale>  2 0.21581783E+03</rscale>
<asrwt>0</asrwt>
<pdfrwt beam="1">  1       21 0.39432478E-02 0.21583432E+03</pdfrwt>
<pdfrwt beam="2">  1       21 0.29573127E+00 0.21583432E+03</pdfrwt>
<totfact> 0.14171230E+04</totfact>
</mgrwt>
</event>
<event>
12    1  0.2736842E-001  0.2312370E+03  0.7546771E-02  0.1125944E+00
         21   -1    0    0  502  503  0.00000000000E+00  0.00000000000E+00  0.16861404079E+03  0.16861404079E+03  0.00000000000E+00 0.  1.
         21   -1    0    0  503  504 -0.00000000000E+00 -0.00000000000E+00 -0.82149076844E+03  0.82149076844E+03  0.00000000000E+00 0.  1.
         -6    2    1    2    0  504 -0.15218547712E+03 -0.73369067848E+01 -0.71459267623E+03  0.75077366630E+03  0.17263880050E+03 0.  0.
        -24    2    3    3    0    0 -0.33662646414E+02 -0.18890943341E+02 -0.15812857271E+03  0.18169059182E+03  0.80726601205E+02 0.  0.
          6    2    1    2  502    0  0.15218547712E+03  0.73369067848E+01  0.61715948581E+02  0.23933114294E+03  0.17394334716E+03 0.  0.
         24    2    5    5    0    0  0.94078055710E+02  0.57023490727E+02  0.84368441626E+02  0.15945339579E+03  0.78771774304E+02 0.  0.
          2    1    6    6  501    0  0.12415841462E+02  0.37280659857E+02 -0.14976315715E+01  0.39322304343E+02  0.00000000000E+00 0. -1.
         -1    1    6    6    0  501  0.81662214248E+02  0.19742830870E+02  0.85866073198E+02  0.12013109145E+03  0.00000000000E+00 0.  1.
          5    1    5    5  502    0  0.58107421415E+02 -0.49686583942E+02 -0.22652493045E+02  0.79877747142E+02  0.47000000000E+01 0. -1.
         11    1    4    4    0    0  0.21004027202E+02  0.11317649575E+02 -0.24563795559E+02  0.34243808242E+02  0.00000000000E+00 0. -1.
        -12    1    4    4    0    0 -0.54666673616E+02 -0.30208592916E+02 -0.13356477715E+03  0.14744678358E+03  0.00000000000E+00 0.  1.
         -5    1    3    3    0  504 -0.11852283071E+03  0.11554036556E+02 -0.55646410351E+03  0.56908307448E+03  0.47000000000E+01 0.  1.
<mgrwt>
<rscale>  2 0.23099165E+03</rscale>
<asrwt>0</asrwt>
<pdfrwt beam="1">  1       21 0.25940622E-01 0.23123697E+03</pdfrwt>
<pdfrwt beam="2">  1       21 0.12638320E+00 0.23123697E+03</pdfrwt>
<totfact> 0.63653583E+03</totfact>
</mgrwt>
</event>
<event>
12    1  0.2736842E-001  0.2053410E+03  0.7546771E-02  0.1145389E+00
         21   -1    0    0  502  503  0.00000000000E+00  0.00000000000E+00  0.80907769778E+03  0.80907769778E+03  0.00000000000E+00 0. -1.
         21   -1    0    0  503  504 -0.00000000000E+00 -0.00000000000E+00 -0.52139263861E+02  0.52139263861E+02  0.00000000000E+00 0.  1.
         -6    2    1    2    0  504 -0.90033871677E+02 -0.64557000540E+02  0.35713616030E+03  0.41176533395E+03  0.17242606786E+03 0.  0.
        -24    2    3    3    0    0 -0.87725260585E+02  0.18696527469E+02  0.18335896411E+03  0.21900360661E+03  0.79352306223E+02 0.  0.
          6    2    1    2  502    0  0.90033871677E+02  0.64557000540E+02  0.39980227362E+03  0.44945162769E+03  0.17289072641E+03 0.  0.
         24    2    5    5    0    0  0.42358459108E+00  0.80179017170E+02  0.23786535785E+03  0.26365683324E+03  0.80660665969E+02 0.  0.
          2    1    6    6  501    0 -0.23777926438E+02  0.21071233279E+02  0.22267827556E+02  0.38797458701E+02  0.00000000000E+00 0. -1.
         -1    1    6    6    0  501  0.24201511029E+02  0.59107783891E+02  0.21559753029E+03  0.22485937454E+03  0.00000000000E+00 0.  1.
          5    1    5    5  502    0  0.89610287086E+02 -0.15622016630E+02  0.16193691577E+03  0.18579479445E+03  0.47000000000E+01 0. -1.
         13    1    4    4    0    0 -0.87104069888E+02  0.22419162511E+02  0.95955897667E+02  0.13151909419E+03  0.00000000000E+00 0. -1.
        -14    1    4    4    0    0 -0.62119069714E+00 -0.37226350418E+01  0.87403066445E+02  0.87484512421E+02  0.00000000000E+00 0.  1.
         -5    1    3    3    0  504 -0.23086110923E+01 -0.83253528009E+02  0.17377719619E+03  0.19276172734E+03  0.47000000000E+01 0.  1.
<mgrwt>
<rscale>  2 0.20524312E+03</rscale>
<asrwt>0</asrwt>
<pdfrwt beam="1">  1       21 0.12447348E+00 0.20534095E+03</pdfrwt>
<pdfrwt beam="2">  1       21 0.80214258E-02 0.20534095E+03</pdfrwt>
<totfact> 0.57204709E+04</totfact>
</mgrwt>
</event>
<event>
12    1  0.2736842E-001  0.1736956E+03  0.7546771E-02  0.1174086E+00
         21   -1    0    0  502  503  0.00000000000E+00  0.00000000000E+00  0.12494802395E+03  0.12494802395E+03  0.00000000000E+00 0. -1.
         21   -1    0    0  503  504 -0.00000000000E+00 -0.00000000000E+00 -0.40844181247E+03  0.40844181247E+03  0.00000000000E+00 0. -1.
         -6    2    1    2    0  504  0.18255120022E+02  0.10858002444E+02 -0.31241300855E+03  0.35745214574E+03  0.17239200374E+03 0.  0.
        -24    2    3    3    0    0  0.51428108907E+02 -0.19174990446E+01 -0.30774913965E+03  0.32129274443E+03  0.76622238807E+02 0.  0.
          6    2    1    2  502    0 -0.18255120022E+02 -0.10858002444E+02  0.28919220028E+02  0.17593769069E+03  0.17223996079E+03 0.  0.
         24    2    5    5    0    0  0.44410852137E+02  0.16064291723E+01  0.55017316462E+02  0.10675975519E+03  0.79973969609E+02 0.  0.
          2    1    6    6  501    0  0.16378184989E+02  0.28812353086E+02  0.58816680822E+02  0.67511469965E+02  0.00000000000E+00 0. -1.
         -1    1    6    6    0  501  0.28032667149E+02 -0.27205923913E+02 -0.37993643604E+01  0.39248285224E+02  0.00000000000E+00 0.  1.
          5    1    5    5  502    0 -0.62665972160E+02 -0.12464431616E+02 -0.26098096433E+02  0.69177935498E+02  0.47000000000E+01 0. -1.
         13    1    4    4    0    0  0.62704102148E+02  0.18437778187E+01 -0.14348016062E+03  0.15659425415E+03  0.00000000000E+00 0. -1.
        -14    1    4    4    0    0 -0.11275993241E+02 -0.37612768633E+01 -0.16426897903E+03  0.16469849028E+03  0.00000000000E+00 0.  1.
         -5    1    3    3    0  504 -0.33172988885E+02  0.12775501489E+02 -0.46638689050E+01  0.36159401309E+02  0.47000000000E+01 0.  1.
<mgrwt>
<rscale>  2 0.17365783E+03</rscale>
<asrwt>0</asrwt>
<pdfrwt beam="1">  1       21 0.19222773E-01 0.17369556E+03</pdfrwt>
<pdfrwt beam="2">  1       21 0.62837201E-01 0.17369556E+03</pdfrwt>
<totfact> 0.58806447E+04</totfact>
</mgrwt>
</event>
<event>
12    1  0.2736842E-001  0.1846772E+03  0.7546771E-02  0.1163444E+00
         21   -1    0    0  502  503  0.00000000000E+00  0.00000000000E+00  0.60735685968E+03  0.60735685968E+03  0.00000000000E+00 0.  1.
         21   -1    0    0  503  504 -0.00000000000E+00 -0.00000000000E+00 -0.83268116056E+02  0.83268116056E+02  0.00000000000E+00 0.  1.
         -6    2    1    2    0  504 -0.41043633641E+02 -0.52467302790E+02  0.64373140885E+02  0.19520181412E+03  0.17182098023E+03 0.  0.
        -24    2    3    3    0    0 -0.68664277524E+02 -0.72124847012E+02  0.87180971762E+02  0.15407267406E+03  0.78873889781E+02 0.  0.
          6    2    1    2  502    0  0.41043633641E+02  0.52467302790E+02  0.45971560274E+03  0.49542316161E+03  0.17224481396E+03 0.  0.
         24    2    5    5    0    0 -0.20172370041E+02  0.64422253579E+02  0.18219908694E+03  0.21094499637E+03  0.82122670102E+02 0.  0.
          2    1    6    6  501    0 -0.44700985315E+02  0.36212253162E+02  0.59862125382E+02  0.83023968964E+02  0.00000000000E+00 0. -1.
         -1    1    6    6    0  501  0.24528615274E+02  0.28210000417E+02  0.12233696156E+03  0.12792102741E+03  0.00000000000E+00 0.  1.
          5    1    5    5  502    0  0.61216003681E+02 -0.11954950789E+02  0.27751651580E+03  0.28447816524E+03  0.47000000000E+01 0. -1.
         13    1    4    4    0    0 -0.11616370637E+02 -0.66630358314E+02  0.60937279285E+02  0.91037886193E+02  0.00000000000E+00 0. -1.
        -14    1    4    4    0    0 -0.57047906887E+02 -0.54944886981E+01  0.26243692477E+02  0.63034787864E+02  0.00000000000E+00 0.  1.
         -5    1    3    3    0  504  0.27620643884E+02  0.19657544222E+02 -0.22807830877E+02  0.41129140068E+02  0.47000000000E+01 0.  1.
<mgrwt>
<rscale>  2 0.18457833E+03</rscale>
<asrwt>0</asrwt>
<pdfrwt beam="1">  1       21 0.93439514E-01 0.18467721E+03</pdfrwt>
<pdfrwt beam="2">  1       21 0.12810480E-01 0.18467721E+03</pdfrwt>
<totfact> 0.50452442E+04</totfact>
</mgrwt>
</event>
<event>
12    1  0.2736842E-001  0.1775849E+03  0.7546771E-02  0.1170440E+00
         21   -1    0    0  502  503  0.00000000000E+00  0.00000000000E+00  0.11218897253E+04  0.11218897253E+04  0.00000000000E+00 0. -1.
         21   -1    0    0  503  504 -0.00000000000E+00 -0.00000000000E+00 -0.28134721860E+02  0.28134721860E+02  0.00000000000E+00 0. -1.
         -6    2    1    2    0  504 -0.13423442507E+02  0.30828201332E+02  0.59401926701E+03  0.61967341582E+03  0.17322149372E+03 0.  0.
        -24    2    3    3    0    0  0.34602766511E+02  0.65194457141E+02  0.46339432642E+03  0.47624217307E+03  0.81391872838E+02 0.  0.
          6    2    1    2  502    0  0.13423442507E+02 -0.30828201332E+02  0.49973573645E+03  0.53035103137E+03  0.17437271397E+03 0.  0.
         24    2    5    5    0    0  0.20286609796E+01  0.46818591941E+02  0.30247884948E+03  0.31800406292E+03  0.86238237642E+02 0.  0.
          4    1    6    6  501    0  0.29513300931E+02  0.51127361221E+02  0.26400944101E+03  0.27052916098E+03  0.00000000000E+00 0. -1.
         -3    1    6    6    0  501 -0.27484639951E+02 -0.43087692800E+01  0.38469408470E+02  0.47474901938E+02  0.00000000000E+00 0.  1.
          5    1    5    5  502    0  0.11394781528E+02 -0.77646793273E+02  0.19725688697E+03  0.21234696845E+03  0.47000000000E+01 0. -1.
         11    1    4    4    0    0 -0.13243133758E+02  0.37041910972E+01  0.22540576307E+03  0.22582484285E+03  0.00000000000E+00 0. -1.
        -12    1    4    4    0    0  0.47845900269E+02  0.61490266043E+02  0.23798856334E+03  0.25041733022E+03  0.00000000000E+00 0.  1.
         -5    1    3    3    0  504 -0.48026209018E+02 -0.34366255809E+02  0.13062494059E+03  0.14343124275E+03  0.47000000000E+01 0.  1.
<mgrwt>
<rscale>  2 0.17730170E+03</rscale>
<asrwt>0</asrwt>
<pdfrwt beam="1">  1       21 0.17259838E+00 0.17758494E+03</pdfrwt>
<pdfrwt beam="2">  1       21 0.43284196E-02 0.17758494E+03</pdfrwt>
<totfact> 0.70830267E+04</totfact>
</mgrwt>
</event>
<event>
12    1  0.2736842E-001  0.1830894E+03  0.7546771E-02  0.1165604E+00
         21   -1    0    0  502  503  0.00000000000E+00  0.00000000000E+00  0.22130820971E+03  0.22130820971E+03  0.00000000000E+00 0. -1.
         21   -1    0    0  503  504 -0.00000000000E+00 -0.00000000000E+00 -0.15095371482E+03  0.15095371482E+03  0.00000000000E+00 0. -1.
         -6    2    1    2    0  504  0.47895790908E+01  0.36219780098E+02  0.12933769616E+02  0.18037950041E+03  0.17616659511E+03 0.  0.
        -24    2    3    3    0    0  0.58785546680E+02 -0.18124106037E+02  0.21167791178E+02  0.10318680913E+03  0.80095058999E+02 0.  0.
          6    2    1    2  502    0 -0.47895790908E+01 -0.36219780098E+02  0.57420725273E+02  0.19188242412E+03  0.17940711373E+03 0.  0.
         24    2    5    5    0    0 -0.43490330533E+02 -0.72562147747E+02  0.37448070236E+01  0.11624043810E+03  0.79631286159E+02 0.  0.
          4    1    6    6  501    0 -0.12021271353E+01 -0.49032236662E+02 -0.29769858532E+02  0.57374644389E+02  0.00000000000E+00 0. -1.
         -3    1    6    6    0  501 -0.42288203398E+02 -0.23529911084E+02  0.33514665556E+02  0.58865793714E+02  0.00000000000E+00 0.  1.
          5    1    5    5  502    0  0.38700751442E+02  0.36342367648E+02  0.53675918250E+02  0.75641986016E+02  0.47000000000E+01 0. -1.
         13    1    4    4    0    0 -0.17586001271E+02 -0.16345569369E+02  0.36217860135E+00  0.24012002250E+02  0.00000000000E+00 0. -1.
        -14    1    4    4    0    0  0.76371547951E+02 -0.17785366681E+01  0.20805612577E+02  0.79174806876E+02  0.00000000000E+00 0.  1.
         -5    1    3    3    0  504 -0.53995967590E+02  0.54343886136E+02 -0.82340215623E+01  0.77192691282E+02  0.47000000000E+01 0.  1.
<mgrwt>
<rscale>  2 0.18229063E+03</rscale>
<asrwt>0</asrwt>
<pdfrwt beam="1">  1       21 0.34047417E-01 0.18308939E+03</pdfrwt>
<pdfrwt beam="2">  1       21 0.23223648E-01 0.18308939E+03</pdfrwt>
<totfact> 0.14528964E+05</totfact>
</mgrwt>
</event>
<event>
12    1  0.2736842E-001  0.2415277E+03  0.7546771E-02  0.1118969E+00
         21   -1    0    0  502  503  0.00000000000E+00  0.00000000000E+00  0.10126946520E+03  0.10126946520E+03  0.00000000000E+00 0.  1.
         21   -1    0    0  503  504 -0.00000000000E+00 -0.00000000000E+00 -0.57464561941E+03  0.57464561941E+03  0.00000000000E+00 0. -1.
         -6    2    1    2    0  504  0.42621842041E+01  0.16838975953E+03 -0.25240572678E+03  0.34855660208E+03  0.17149278880E+03 0.  0.
        -24    2    3    3    0    0  0.10351092925E+02  0.17943504374E+03 -0.26484981637E+03  0.33022579526E+03  0.81237741061E+02 0.  0.
          6    2    1    2  502    0 -0.42621842041E+01 -0.16838975953E+03 -0.22097042743E+03  0.32735848253E+03  0.17309641520E+03 0.  0.
         24    2    5    5    0    0  0.23200666598E+02 -0.18867016427E+02 -0.10725415539E+03  0.13745129624E+03  0.80592615968E+02 0.  0.
          2    1    6    6  501    0 -0.82750408953E+01  0.11410455028E+02 -0.89010714531E+02  0.90119820723E+02  0.00000000000E+00 0. -1.
         -1    1    6    6    0  501  0.31475707493E+02 -0.30277471455E+02 -0.18243440863E+02  0.47331475515E+02  0.00000000000E+00 0.  1.
          5    1    5    5  502    0 -0.27462850802E+02 -0.14952274311E+03 -0.11371627204E+03  0.18990718629E+03  0.47000000000E+01 0. -1.
         11    1    4    4    0    0 -0.22837600620E+02  0.14216960227E+02 -0.53799624328E+02  0.60150457505E+02  0.00000000000E+00 0. -1.
        -12    1    4    4    0    0  0.33188693545E+02  0.16521808352E+03 -0.21105019205E+03  0.27007533775E+03  0.00000000000E+00 0.  1.
         -5    1    3    3    0  504 -0.60889087210E+01 -0.11045284211E+02  0.12444089595E+02  0.18330806817E+02  0.47000000000E+01 0.  1.
<mgrwt>
<rscale>  2 0.24124055E+03</rscale>
<asrwt>0</asrwt>
<pdfrwt beam="1">  1       21 0.15579918E-01 0.24152773E+03</pdfrwt>
<pdfrwt beam="2">  1       21 0.88407018E-01 0.24152773E+03</pdfrwt>
<totfact> 0.39120437E+04</totfact>
</mgrwt>
</event>
<event>
12    1  0.2736842E-001  0.2513668E+03  0.7546771E-02  0.1112461E+00
         21   -1    0    0  502  503  0.00000000000E+00  0.00000000000E+00  0.29269016287E+04  0.29269016287E+04  0.00000000000E+00 0. -1.
         21   -1    0    0  503  504 -0.00000000000E+00 -0.00000000000E+00 -0.37842025745E+02  0.37842025745E+02  0.00000000000E+00 0. -1.
         -6    2    1    2    0  504 -0.87398979212E+02 -0.16018582796E+03  0.47290708936E+03  0.53556173616E+03  0.17287908211E+03 0.  0.
        -24    2    3    3    0    0 -0.12276483952E+03 -0.15444021341E+03  0.37469816110E+03  0.43091547607E+03  0.79790038501E+02 0.  0.
          6    2    1    2  502    0  0.87398979212E+02  0.16018582796E+03  0.24161525136E+04  0.24291819182E+04  0.17272446870E+03 0.  0.
         24    2    5    5    0    0  0.89613200464E+02  0.34832548402E+02  0.13158899287E+04  0.13217893983E+04  0.79480041586E+02 0.  0.
          4    1    6    6  501    0  0.91791975894E+02  0.54471222484E+01  0.11099075030E+04  0.11137100624E+04  0.00000000000E+00 0. -1.
         -3    1    6    6    0  501 -0.21787754302E+01  0.29385426154E+02  0.20598242568E+03  0.20807933588E+03  0.00000000000E+00 0.  1.
          5    1    5    5  502    0 -0.22142212514E+01  0.12535327956E+03  0.11002625849E+04  0.11073925199E+04  0.47000000000E+01 0. -1.
         13    1    4    4    0    0 -0.21767767642E+02 -0.32951139332E+02  0.23844737508E+02  0.46132253340E+02  0.00000000000E+00 0. -1.
        -14    1    4    4    0    0 -0.10099707188E+03 -0.12148907408E+03  0.35085342359E+03  0.38478322273E+03  0.00000000000E+00 0.  1.
         -5    1    3    3    0  504  0.35365860311E+02 -0.57456145494E+01  0.98208928260E+02  0.10464626010E+03  0.47000000000E+01 0.  1.
<mgrwt>
<rscale>  2 0.25134020E+03</rscale>
<asrwt>0</asrwt>
<pdfrwt beam="1">  1       21 0.45029238E+00 0.25136678E+03</pdfrwt>
<pdfrwt beam="2">  1       21 0.58218524E-02 0.25136678E+03</pdfrwt>
<totfact> 0.79175783E+02</totfact>
</mgrwt>
</event>
<event>
12    1  0.2736842E-001  0.2981872E+03  0.7546771E-02  0.1086277E+00
         21   -1    0    0  502  503  0.00000000000E+00  0.00000000000E+00  0.14194348776E+03  0.14194348776E+03  0.00000000000E+00 0.  1.
         21   -1    0    0  503  504 -0.00000000000E+00 -0.00000000000E+00 -0.97794993286E+03  0.97794993286E+03  0.00000000000E+00 0.  1.
         -6    2    1    2    0  504 -0.34250061273E+02 -0.24039398301E+03 -0.75427565922E+03  0.81070813272E+03  0.17132884346E+03 0.  0.
        -24    2    3    3    0    0  0.13713059232E+02 -0.22642776000E+03 -0.54988264592E+03  0.60024647303E+03  0.80419684221E+02 0.  0.
          6    2    1    2  502    0  0.34250061273E+02  0.24039398301E+03 -0.81730785877E+02  0.30918528791E+03  0.17307017979E+03 0.  0.
         24    2    5    5    0    0 -0.20847887073E+02  0.21613118387E+03 -0.40148511150E+02  0.23586651197E+03  0.82908295612E+02 0.  0.
          4    1    6    6  501    0 -0.29446845483E+02  0.59567266080E+02  0.17651200409E+02  0.68752751022E+02  0.00000000000E+00 0. -1.
         -3    1    6    6    0  501  0.85989584100E+01  0.15656391779E+03 -0.57799711559E+02  0.16711376094E+03  0.00000000000E+00 0.  1.
          5    1    5    5  502    0  0.55097948346E+02  0.24262799138E+02 -0.41582274727E+02  0.73318775940E+02  0.47000000000E+01 0. -1.
         11    1    4    4    0    0 -0.59289211755E+01 -0.16214734969E+02 -0.86881419171E+01  0.19327533376E+02  0.00000000000E+00 0. -1.
        -12    1    4    4    0    0  0.19641980408E+02 -0.21021302503E+03 -0.54119450400E+03  0.58091893965E+03  0.00000000000E+00 0.  1.
         -5    1    3    3    0  504 -0.47963120505E+02 -0.13966223015E+02 -0.20439301330E+03  0.21046165969E+03  0.47000000000E+01 0.  1.
<mgrwt>
<rscale>  2 0.29793508E+03</rscale>
<asrwt>0</asrwt>
<pdfrwt beam="1">  1       21 0.21837460E-01 0.29818722E+03</pdfrwt>
<pdfrwt beam="2">  1       21 0.15045384E+00 0.29818722E+03</pdfrwt>
<totfact> 0.54036035E+03</totfact>
</mgrwt>
</event>
<event>
12    1  0.2736842E-001  0.1947422E+03  0.7546771E-02  0.1159875E+00
         21   -1    0    0  502  503  0.00000000000E+00  0.00000000000E+00  0.17381781786E+03  0.17381781786E+03  0.00000000000E+00 0. -1.
         21   -1    0    0  503  504 -0.00000000000E+00 -0.00000000000E+00 -0.39170663811E+03  0.39170663811E+03  0.00000000000E+00 0. -1.
         -6    2    1    2    0  504  0.95668372986E+01 -0.20423376123E+02 -0.31408327572E+03  0.36955762451E+03  0.19343188743E+03 0.  0.
        -24    2    3    3    0    0  0.83464649063E+02 -0.22009201393E+02 -0.22258166263E+03  0.25183746216E+03  0.80179537405E+02 0.  0.
          6    2    1    2  502    0 -0.95668372986E+01  0.20423376123E+02  0.96194455474E+02  0.19596683146E+03  0.16923648277E+03 0.  0.
         24    2    5    5    0    0 -0.10440962693E+01 -0.10392885804E+02  0.12662976066E+03  0.15157452452E+03  0.82647673801E+02 0.  0.
          2    1    6    6  501    0  0.77649663178E+01  0.34893561716E+02  0.69392350480E+02  0.78058655230E+02  0.00000000000E+00 0. -1.
         -1    1    6    6    0  501 -0.88090625871E+01 -0.45286447520E+02  0.57237410180E+02  0.73515869286E+02  0.00000000000E+00 0.  1.
          5    1    5    5  502    0 -0.85227410293E+01  0.30816261927E+02 -0.30435305186E+02  0.44392306941E+02  0.47000000000E+01 0. -1.
         13    1    4    4    0    0  0.24891325944E+02  0.27883411378E+02 -0.10368564209E+03  0.11021694567E+03  0.00000000000E+00 0. -1.
        -14    1    4    4    0    0  0.58573323119E+02 -0.49892612771E+02 -0.11889602054E+03  0.14162051649E+03  0.00000000000E+00 0.  1.
         -5    1    3    3    0  504 -0.73897811764E+02  0.15858252698E+01 -0.91501613092E+02  0.11772016235E+03  0.47000000000E+01 0.  1.
<mgrwt>
<rscale>  2 0.18844049E+03</rscale>
<asrwt>0</asrwt>
<pdfrwt beam="1">  1       21 0.26741203E-01 0.19474222E+03</pdfrwt>
<pdfrwt beam="2">  1       21 0.60262560E-01 0.19474222E+03</pdfrwt>
<totfact> 0.34139593E+04</totfact>
</mgrwt>
</event>
<event>
12    1  0.2736842E-001  0.2408947E+03  0.7546771E-02  0.1119330E+00
         21   -1    0    0  502  503  0.00000000000E+00  0.00000000000E+00  0.10296593426E+04  0.10296593426E+04  0.00000000000E+00 0.  1.
         21   -1    0    0  503  504 -0.00000000000E+00 -0.00000000000E+00 -0.14905531942E+03  0.14905531942E+03  0.00000000000E+00 0. -1.
         -6    2    1    2    0  504  0.16092183306E+03 -0.45459357498E+02 -0.25205100841E+02  0.24142044817E+03  0.17229668060E+03 0.  0.
        -24    2    3    3    0    0  0.17222856697E+03 -0.60554309839E+02 -0.53518481803E+02  0.20707751063E+03  0.81776303362E+02 0.  0.
          6    2    1    2  502    0 -0.16092183306E+03  0.45459357498E+02  0.90580912403E+03  0.93729421386E+03  0.17340093605E+03 0.  0.
         24    2    5    5    0    0 -0.18100034670E+03  0.46864546375E+02  0.65374186006E+03  0.68438095436E+03  0.77726828624E+02 0.  0.
          4    1    6    6  501    0 -0.13852731598E+03  0.16608841784E+02  0.36084762979E+03  0.38688070877E+03  0.00000000000E+00 0. -1.
         -3    1    6    6    0  501 -0.42473030719E+02  0.30255704591E+02  0.29289423027E+03  0.29750024559E+03  0.00000000000E+00 0.  1.
          5    1    5    5  502    0  0.20078513635E+02 -0.14051888769E+01  0.25206726397E+03  0.25291325950E+03  0.47000000000E+01 0. -1.
         13    1    4    4    0    0  0.62373086369E+02 -0.55996574337E+02  0.21271008169E+01  0.83848332116E+02  0.00000000000E+00 0. -1.
        -14    1    4    4    0    0  0.10985548060E+03 -0.45577355015E+01 -0.55645582620E+02  0.12322917851E+03  0.00000000000E+00 0.  1.
         -5    1    3    3    0  504 -0.11306733909E+02  0.15094952341E+02  0.28313380962E+02  0.34342937547E+02  0.47000000000E+01 0.  1.
<mgrwt>
<rscale>  2 0.24069608E+03</rscale>
<asrwt>0</asrwt>
<pdfrwt beam="1">  1       21 0.15840912E+00 0.24089474E+03</pdfrwt>
<pdfrwt beam="2">  1       21 0.22931588E-01 0.24089474E+03</pdfrwt>
<totfact> 0.44409222E+03</totfact>
</mgrwt>
</event>
<event>
12    1  0.2736842E-001  0.2018389E+03  0.7546771E-02  0.1148377E+00
         21   -1    0    0  502  503  0.00000000000E+00  0.00000000000E+00  0.92630046906E+03  0.92630046906E+03  0.00000000000E+00 0.  1.
         21   -1    0    0  503  504 -0.00000000000E+00 -0.00000000000E+00 -0.52858694892E+02  0.52858694892E+02  0.00000000000E+00 0.  1.
         -6    2    1    2    0  504  0.15518627209E+01  0.10278331985E+03  0.23474112379E+03  0.30958410764E+03  0.17370119570E+03 0.  0.
        -24    2    3    3    0    0 -0.22768692750E+02  0.18337770716E+02  0.19537669027E+03  0.21317773434E+03  0.80112471632E+02 0.  0.
          6    2    1    2  502    0 -0.15518627209E+01 -0.10278331985E+03  0.63870065038E+03  0.66957505631E+03  0.17270036514E+03 0.  0.
         24    2    5    5    0    0 -0.27234280911E+02 -0.12929657544E+03  0.40919417105E+03  0.43707160821E+03  0.78309709497E+02 0.  0.
          2    1    6    6  501    0 -0.61148913161E+01 -0.15311045134E+02  0.60029386931E+01  0.17545804965E+02  0.00000000000E+00 0. -1.
         -1    1    6    6    0  501 -0.21119389595E+02 -0.11398553031E+03  0.40319123236E+03  0.41952580324E+03  0.00000000000E+00 0.  1.
          5    1    5    5  502    0  0.25682418190E+02  0.26513255585E+02  0.22950647933E+03  0.23250344811E+03  0.47000000000E+01 0. -1.
         11    1    4    4    0    0  0.19768380624E+02  0.32345160971E+02  0.11602673632E+03  0.12206228677E+03  0.00000000000E+00 0. -1.
        -12    1    4    4    0    0 -0.42537073374E+02 -0.14007390255E+02  0.79349953955E+02  0.91115447569E+02  0.00000000000E+00 0.  1.
         -5    1    3    3    0  504  0.24320555471E+02  0.84445549138E+02  0.39364433517E+02  0.96406373305E+02  0.47000000000E+01 0.  1.
<mgrwt>
<rscale>  2 0.20162335E+03</rscale>
<asrwt>0</asrwt>
<pdfrwt beam="1">  1       21 0.14250775E+00 0.20183886E+03</pdfrwt>
<pdfrwt beam="2">  1       21 0.81321076E-02 0.20183886E+03</pdfrwt>
<totfact> 0.39643052E+04</totfact>
</mgrwt>
</event>
<event>
12    1  0.2736842E-001  0.1788498E+03  0.7546771E-02  0.1170059E+00
         21   -1    0    0  502  503  0.00000000000E+00  0.00000000000E+00  0.10994460158E+04  0.10994460158E+04  0.00000000000E+00 0.  1.
         21   -1    0    0  503  504 -0.00000000000E+00 -0.00000000000E+00 -0.28709164033E+02  0.28709164033E+02  0.00000000000E+00 0.  1.
         -6    2    1    2    0  504 -0.41939235610E+02  0.24100276466E+01  0.59153105041E+03  0.61666183416E+03  0.16910980572E+03 0.  0.
        -24    2    3    3    0    0 -0.32301828578E+01 -0.56465012419E+02  0.42568641026E+03  0.43640869057E+03  0.77748913911E+02 0.  0.
          6    2    1    2  502    0  0.41939235610E+02 -0.24100276466E+01  0.47920580134E+03  0.51149334565E+03  0.17384629676E+03 0.  0.
         24    2    5    5    0    0  0.24507699734E+01 -0.47587984066E+02  0.12671926000E+03  0.15390526071E+03  0.73201338243E+02 0.  0.
          4    1    6    6  501    0 -0.34797362660E+02 -0.30858826942E+02  0.66879497108E+02  0.81461590837E+02  0.00000000000E+00 0. -1.
         -3    1    6    6    0  501  0.37248132633E+02 -0.16729157125E+02  0.59839762888E+02  0.72443669877E+02  0.00000000000E+00 0.  1.
          5    1    5    5  502    0  0.39488465636E+02  0.45177956420E+02  0.35248654134E+03  0.35758808494E+03  0.47000000000E+01 0. -1.
         11    1    4    4    0    0 -0.32516560694E+02 -0.57787104688E+02  0.31521318119E+03  0.32211182186E+03  0.00000000000E+00 0. -1.
        -12    1    4    4    0    0  0.29286377836E+02  0.13220922697E+01  0.11047322907E+03  0.11429686870E+03  0.00000000000E+00 0.  1.
         -5    1    3    3    0  504 -0.38709052752E+02  0.58875040065E+02  0.16584464015E+03  0.18025314359E+03  0.47000000000E+01 0.  1.
<mgrwt>
<rscale>  2 0.17768841E+03</rscale>
<asrwt>0</asrwt>
<pdfrwt beam="1">  1       21 0.16914551E+00 0.17884978E+03</pdfrwt>
<pdfrwt beam="2">  1       21 0.44167953E-02 0.17884978E+03</pdfrwt>
<totfact> 0.72319313E+04</totfact>
</mgrwt>
</event>
<event>
12    1  0.2736842E-001  0.1966552E+03  0.7546771E-02  0.1152608E+00
         21   -1    0    0  502  503  0.00000000000E+00  0.00000000000E+00  0.36731106450E+03  0.36731106450E+03  0.00000000000E+00 0.  1.
         21   -1    0    0  503  504 -0.00000000000E+00 -0.00000000000E+00 -0.13527812275E+03  0.13527812275E+03  0.00000000000E+00 0.  1.
         -6    2    1    2    0  504  0.82022813041E+02 -0.43092275171E+02 -0.23647402811E+01  0.19666940355E+03  0.17346058993E+03 0.  0.
        -24    2    3    3    0    0  0.45581794009E+02 -0.73833440620E+02  0.47722066214E+02  0.12736034710E+03  0.80088610368E+02 0.  0.
          6    2    1    2  502    0 -0.82022813041E+02  0.43092275171E+02  0.23439768203E+03  0.30591978370E+03  0.17337806861E+03 0.  0.
         24    2    5    5    0    0 -0.45808900848E+02  0.77661337834E+02  0.22254561010E+03  0.25425713627E+03  0.83608635789E+02 0.  0.
          4    1    6    6  501    0  0.16690139237E+02  0.51385392808E+02  0.81779177412E+02  0.98014556061E+02  0.00000000000E+00 0. -1.
         -3    1    6    6    0  501 -0.62499040084E+02  0.26275945025E+02  0.14076643269E+03  0.15624258021E+03  0.00000000000E+00 0.  1.
          5    1    5    5  502    0 -0.36213912193E+02 -0.34569062663E+02  0.11852071930E+02  0.51662647423E+02  0.47000000000E+01 0. -1.
         11    1    4    4    0    0  0.42737714678E+02 -0.16801759786E+02  0.52866809949E+02  0.70026501998E+02  0.00000000000E+00 0. -1.
        -12    1    4    4    0    0  0.28440793307E+01 -0.57031680834E+02 -0.51447437357E+01  0.57333845102E+02  0.00000000000E+00 0.  1.
         -5    1    3    3    0  504  0.36441019032E+02  0.30741165449E+02 -0.50086806495E+02  0.69309056451E+02  0.47000000000E+01 0.  1.
<mgrwt>
<rscale>  2 0.19663699E+03</rscale>
<asrwt>0</asrwt>
<pdfrwt beam="1">  1       21 0.56509394E-01 0.19665519E+03</pdfrwt>
<pdfrwt beam="2">  1       21 0.20812019E-01 0.19665519E+03</pdfrwt>
<totfact> 0.62989332E+04</totfact>
</mgrwt>
</event>
<event>
12    1  0.2736842E-001  0.2165430E+03  0.7546771E-02  0.1136729E+00
         21   -1    0    0  502  503  0.00000000000E+00  0.00000000000E+00  0.40760420662E+03  0.40760420662E+03  0.00000000000E+00 0.  1.
         21   -1    0    0  503  504 -0.00000000000E+00 -0.00000000000E+00 -0.23881725702E+03  0.23881725702E+03  0.00000000000E+00 0.  1.
         -6    2    1    2    0  504 -0.13665699830E+02 -0.12586791390E+03 -0.14880608434E+03  0.26274348269E+03  0.17567414112E+03 0.  0.
        -24    2    3    3    0    0  0.53869875897E+02 -0.77869736496E+02 -0.11717925458E+03  0.17393343043E+03  0.86926412121E+02 0.  0.
          6    2    1    2  502    0  0.13665699830E+02  0.12586791390E+03  0.31759303394E+03  0.38367798096E+03  0.17410908870E+03 0.  0.
         24    2    5    5    0    0 -0.16963920137E+02  0.61665747095E+02  0.28881479214E+03  0.30679905640E+03  0.81370989271E+02 0.  0.
          2    1    6    6  501    0 -0.64467976455E+01 -0.19267281414E+02  0.38752887051E+02  0.43755863467E+02  0.00000000000E+00 0. -1.
         -1    1    6    6    0  501 -0.10517122491E+02  0.80933028509E+02  0.25006190509E+03  0.26304319293E+03  0.00000000000E+00 0.  1.
          5    1    5    5  502    0  0.30629619967E+02  0.64202166801E+02  0.28778241795E+02  0.76878924564E+02  0.47000000000E+01 0. -1.
         13    1    4    4    0    0  0.95549684402E+01 -0.34796720246E+00 -0.74237143921E+02  0.74850330932E+02  0.00000000000E+00 0. -1.
        -14    1    4    4    0    0  0.44314907457E+02 -0.77521769294E+02 -0.42942110660E+02  0.99083099494E+02  0.00000000000E+00 0.  1.
         -5    1    3    3    0  504 -0.67535575727E+02 -0.47998177400E+02 -0.31626829756E+02  0.88810052263E+02  0.47000000000E+01 0.  1.
<mgrwt>
<rscale>  2 0.21622541E+03</rscale>
<asrwt>0</asrwt>
<pdfrwt beam="1">  1       21 0.62708339E-01 0.21654304E+03</pdfrwt>
<pdfrwt beam="2">  1       21 0.36741117E-01 0.21654304E+03</pdfrwt>
<totfact> 0.16588436E+04</totfact>
</mgrwt>
</event>
<event>
12    1  0.2736842E-001  0.2043161E+03  0.7546771E-02  0.1146184E+00
         21   -1    0    0  502  503  0.00000000000E+00  0.00000000000E+00  0.32432359068E+02  0.32432359068E+02  0.00000000000E+00 0.  1.
         21   -1    0    0  503  504 -0.00000000000E+00 -0.00000000000E+00 -0.12891255148E+04  0.12891255148E+04  0.00000000000E+00 0.  1.
         -6    2    1    2    0  504 -0.83725061401E+02  0.68626431742E+02 -0.66092671293E+03  0.69178695867E+03  0.17327897533E+03 0.  0.
        -24    2    3    3    0    0 -0.43553764886E+02  0.68892803561E+02 -0.63302640826E+03  0.64265121794E+03  0.75066673928E+02 0.  0.
          6    2    1    2  502    0  0.83725061401E+02 -0.68626431742E+02 -0.59576644279E+03  0.62977091518E+03  0.17307304299E+03 0.  0.
         24    2    5    5    0    0  0.12624478376E+03 -0.56059863781E+02 -0.45984089528E+03  0.48671956117E+03  0.79761071300E+02 0.  0.
          4    1    6    6  501    0  0.86391208413E+02 -0.69832410862E+02 -0.26451310824E+03  0.28689229848E+03  0.00000000000E+00 0. -1.
         -3    1    6    6    0  501  0.39853575345E+02  0.13772547081E+02 -0.19532778705E+03  0.19982726269E+03  0.00000000000E+00 0.  1.
          5    1    5    5  502    0 -0.42519722358E+02 -0.12566567961E+02 -0.13592554751E+03  0.14305135401E+03  0.47000000000E+01 0. -1.
         13    1    4    4    0    0 -0.53308412677E+02  0.53503565918E+02 -0.60161889344E+03  0.60634124993E+03  0.00000000000E+00 0. -1.
        -14    1    4    4    0    0  0.97546477910E+01  0.15389237643E+02 -0.31407514827E+02  0.36309968003E+02  0.00000000000E+00 0.  1.
         -5    1    3    3    0  504 -0.40171296515E+02 -0.26637181889E+00 -0.27900304662E+02  0.49135740738E+02  0.47000000000E+01 0.  1.
<mgrwt>
<rscale>  2 0.20427245E+03</rscale>
<asrwt>0</asrwt>
<pdfrwt beam="1">  1       21 0.49895934E-02 0.20431612E+03</pdfrwt>
<pdfrwt beam="2">  1       21 0.19832701E+00 0.20431612E+03</pdfrwt>
<totfact> 0.36859431E+04</totfact>
</mgrwt>
</event>
<event>
12    1  0.2736842E-001  0.1908742E+03  0.7546771E-02  0.1158205E+00
         21   -1    0    0  502  503  0.00000000000E+00  0.00000000000E+00  0.12859641935E+04  0.12859641935E+04  0.00000000000E+00 0.  1.
         21   -1    0    0  503  504 -0.00000000000E+00 -0.00000000000E+00 -0.34695174410E+02  0.34695174410E+02  0.00000000000E+00 0.  1.
         -6    2    1    2    0  504  0.59678841038E+02  0.32567163284E+02  0.91916792120E+03  0.93877719733E+03  0.17835575312E+03 0.  0.
        -24    2    3    3    0    0 -0.31574452546E+02  0.14026186925E+02  0.28721905315E+03  0.29998740935E+03  0.79397615229E+02 0.  0.
          6    2    1    2  502    0 -0.59678841038E+02 -0.32567163284E+02  0.33210109790E+03  0.38188217059E+03  0.17584273882E+03 0.  0.
         24    2    5    5    0    0 -0.46749462696E+02 -0.87460588206E+02  0.19142244448E+03  0.23024764137E+03  0.80848978681E+02 0.  0.
          2    1    6    6  501    0 -0.28957384425E+02 -0.13806028712E+02  0.12637792493E+03  0.13038602859E+03  0.00000000000E+00 0. -1.
         -1    1    6    6    0  501 -0.17792078270E+02 -0.73654559494E+02  0.65044519546E+02  0.99861612777E+02  0.00000000000E+00 0.  1.
          5    1    5    5  502    0 -0.12929378342E+02  0.54893424922E+02  0.14067865342E+03  0.15163452922E+03  0.47000000000E+01 0. -1.
         13    1    4    4    0    0  0.10601892512E+02 -0.19004415409E+02  0.28928242849E+02  0.36199601713E+02  0.00000000000E+00 0. -1.
        -14    1    4    4    0    0 -0.42176345057E+02  0.33030602334E+02  0.25829081030E+03  0.26378780764E+03  0.00000000000E+00 0.  1.
         -5    1    3    3    0  504  0.91253293583E+02  0.18540976359E+02  0.63194886805E+03  0.63878978798E+03  0.47000000000E+01 0.  1.
<mgrwt>
<rscale>  2 0.19028496E+03</rscale>
<asrwt>0</asrwt>
<pdfrwt beam="1">  1       21 0.19784061E+00 0.19087420E+03</pdfrwt>
<pdfrwt beam="2">  1       21 0.53377201E-02 0.19087420E+03</pdfrwt>
<totfact> 0.33415622E+04</totfact>
</mgrwt>
</event>
<event>
12    1  0.2736842E-001  0.1803199E+03  0.7546771E-02  0.1170356E+00
         21   -1    0    0  502  503  0.00000000000E+00  0.00000000000E+00  0.51714351377E+02  0.51714351377E+02  0.00000000000E+00 0. -1.
         21   -1    0    0  503  504 -0.00000000000E+00 -0.00000000000E+00 -0.77677116838E+03  0.77677116838E+03  0.00000000000E+00 0.  1.
         -6    2    1    2    0  504  0.62108480268E+02  0.12862282588E+01 -0.57487934321E+03  0.60249609277E+03  0.16928131866E+03 0.  0.
        -24    2    3    3    0    0  0.24180444072E+02 -0.24299501156E+01 -0.55098569455E+03  0.55727063139E+03  0.79841859127E+02 0.  0.
          6    2    1    2  502    0 -0.62108480268E+02 -0.12862282588E+01 -0.15017747379E+03  0.22598942698E+03  0.15703130188E+03 0.  0.
         24    2    5    5    0    0 -0.19045540275E+01 -0.22682658251E+02 -0.13753137942E+03  0.16068756136E+03  0.79921722571E+02 0.  0.
          4    1    6    6  501    0  0.21374571781E+02 -0.33115437298E+02 -0.28313298007E+02  0.48529860399E+02  0.00000000000E+00 0. -1.
         -3    1    6    6    0  501 -0.23279125809E+02  0.10432779047E+02 -0.10921808142E+03  0.11215770096E+03  0.00000000000E+00 0.  1.
          5    1    5    5  502    0 -0.60203926241E+02  0.21396429992E+02 -0.12646094365E+02  0.65301865623E+02  0.47000000000E+01 0. -1.
         13    1    4    4    0    0 -0.13232588918E+02 -0.31099868347E+02 -0.29995445141E+03  0.30185257352E+03  0.00000000000E+00 0. -1.
        -14    1    4    4    0    0  0.37413032990E+02  0.28669918231E+02 -0.25103124315E+03  0.25541805787E+03  0.00000000000E+00 0.  1.
         -5    1    3    3    0  504  0.37928036196E+02  0.37161783744E+01 -0.23893648660E+02  0.45225461387E+02  0.47000000000E+01 0.  1.
<mgrwt>
<rscale>  2 0.17738733E+03</rscale>
<asrwt>0</asrwt>
<pdfrwt beam="1">  1       21 0.79560539E-02 0.18031994E+03</pdfrwt>
<pdfrwt beam="2">  1       21 0.11950326E+00 0.18031994E+03</pdfrwt>
<totfact> 0.65033546E+04</totfact>
</mgrwt>
</event>
<event>
12    1  0.2736842E-001  0.1898628E+03  0.7546771E-02  0.1159637E+00
         21   -1    0    0  502  503  0.00000000000E+00  0.00000000000E+00  0.95263531922E+02  0.95263531922E+02  0.00000000000E+00 0.  1.
         21   -1    0    0  503  504 -0.00000000000E+00 -0.00000000000E+00 -0.44316204664E+03  0.44316204664E+03  0.00000000000E+00 0.  1.
         -6    2    1    2    0  504  0.55594490825E+02 -0.47086134307E+02 -0.28208086448E+03  0.33747819654E+03  0.17033516248E+03 0.  0.
        -24    2    3    3    0    0  0.72060180349E+02 -0.46211602060E+02 -0.99786529543E+02  0.15437932082E+03  0.80916262035E+02 0.  0.
          6    2    1    2  502    0 -0.55594490825E+02  0.47086134307E+02 -0.65817650232E+02  0.20094738202E+03  0.17532836566E+03 0.  0.
         24    2    5    5    0    0 -0.78513862134E+02  0.72785987599E+02 -0.78314019554E+01  0.13334357274E+03  0.79100891246E+02 0.  0.
          4    1    6    6  501    0 -0.34385388659E+02  0.46655566796E+02  0.33971549923E+02  0.67180079417E+02  0.00000000000E+00 0. -1.
         -3    1    6    6    0  501 -0.44128473475E+02  0.26130420803E+02 -0.41802951879E+02  0.66163493320E+02  0.00000000000E+00 0.  1.
          5    1    5    5  502    0  0.22919371309E+02 -0.25699853292E+02 -0.57986248277E+02  0.67603809284E+02  0.47000000000E+01 0. -1.
         13    1    4    4    0    0 -0.56232041355E+00  0.19708018426E+02 -0.16788918007E+02  0.25895751821E+02  0.00000000000E+00 0. -1.
        -14    1    4    4    0    0  0.72622500763E+02 -0.65919620486E+02 -0.82997611536E+02  0.12848356900E+03  0.00000000000E+00 0.  1.
         -5    1    3    3    0  504 -0.16465689524E+02 -0.87453224731E+00 -0.18229433494E+03  0.18309887572E+03  0.47000000000E+01 0.  1.
<mgrwt>
<rscale>  2 0.18870194E+03</rscale>
<asrwt>0</asrwt>
<pdfrwt beam="1">  1       21 0.14655928E-01 0.18986281E+03</pdfrwt>
<pdfrwt beam="2">  1       21 0.68178777E-01 0.18986281E+03</pdfrwt>
<totfact> 0.80441997E+04</totfact>
</mgrwt>
</event>
<event>
12    1  0.2736842E-001  0.2475245E+03  0.7546771E-02  0.1115965E+00
         21   -1    0    0  502  503  0.00000000000E+00  0.00000000000E+00  0.31087320410E+03  0.31087320410E+03  0.00000000000E+00 0. -1.
         21   -1    0    0  503  504 -0.00000000000E+00 -0.00000000000E+00 -0.52413263403E+03  0.52413263403E+03  0.00000000000E+00 0.  1.
         -6    2    1    2    0  504  0.13653974436E+03 -0.11101904587E+03 -0.43853465742E+03  0.50031597121E+03  0.16442352313E+03 0.  0.
        -24    2    3    3    0    0  0.82980658631E+02 -0.35550985257E+01 -0.26601198832E+03  0.29007031253E+03  0.80498322023E+02 0.  0.
          6    2    1    2  502    0 -0.13653974436E+03  0.11101904587E+03  0.22527522749E+03  0.33468986692E+03  0.17406909136E+03 0.  0.
         24    2    5    5    0    0 -0.28643081882E+02  0.36179329611E+02  0.26797569090E+02  0.96660154940E+02  0.80595941667E+02 0.  0.
          4    1    6    6  501    0 -0.45152846815E+02  0.52777818598E+02  0.19698186765E+02  0.72196234482E+02  0.00000000000E+00 0. -1.
         -3    1    6    6    0  501  0.16509764933E+02 -0.16598488987E+02  0.70993823251E+01  0.24463920459E+02  0.00000000000E+00 0.  1.
          5    1    5    5  502    0 -0.10789666248E+03  0.74839716257E+02  0.19847765840E+03  0.23802971198E+03  0.47000000000E+01 0. -1.
         11    1    4    4    0    0  0.20925556372E+02 -0.33238385365E+02 -0.51306925780E+02  0.64614780075E+02  0.00000000000E+00 0. -1.
        -12    1    4    4    0    0  0.62055102260E+02  0.29683286839E+02 -0.21470506254E+03  0.22545553246E+03  0.00000000000E+00 0.  1.
         -5    1    3    3    0  504  0.53559085726E+02 -0.10746394734E+03 -0.17252266909E+03  0.21024565868E+03  0.47000000000E+01 0.  1.
<mgrwt>
<rscale>  2 0.24583593E+03</rscale>
<asrwt>0</asrwt>
<pdfrwt beam="1">  1       21 0.47826647E-01 0.24752450E+03</pdfrwt>
<pdfrwt beam="2">  1       21 0.80635790E-01 0.24752450E+03</pdfrwt>
<totfact> 0.54332671E+03</totfact>
</mgrwt>
</event>
<event>
12    1  0.2736842E-001  0.1986007E+03  0.7546771E-02  0.1151057E+00
         21   -1    0    0  502  503  0.00000000000E+00  0.00000000000E+00  0.39488656586E+03  0.39488656586E+03  0.00000000000E+00 0. -1.
         21   -1    0    0  503  504 -0.00000000000E+00 -0.00000000000E+00 -0.11061487202E+03  0.11061487202E+03  0.00000000000E+00 0.  1.
         -6    2    1    2    0  504  0.20170571798E+01 -0.96726018567E+02  0.62070740888E+02  0.20748212235E+03  0.17273118721E+03 0.  0.
        -24    2    3    3    0    0  0.44875893562E+02 -0.68759030999E+00  0.19428250271E+02  0.93900734949E+02  0.80159668862E+02 0.  0.
          6    2    1    2  502    0 -0.20170571798E+01  0.96726018567E+02  0.22220095295E+03  0.29801931553E+03  0.17344237588E+03 0.  0.
         24    2    5    5    0    0 -0.33564638231E+02 -0.63248091860E+01  0.11948963856E+03  0.14906822600E+03  0.82322379260E+02 0.  0.
          2    1    6    6  501    0 -0.41256033302E+02 -0.31783282946E+02  0.10838532253E+03  0.12024814135E+03  0.00000000000E+00 0. -1.
         -1    1    6    6    0  501  0.76913950712E+01  0.25458473760E+02  0.11104316032E+02  0.28820084643E+02  0.00000000000E+00 0.  1.
          5    1    5    5  502    0  0.31547581051E+02  0.10305082775E+03  0.10271131439E+03  0.14895108954E+03  0.47000000000E+01 0. -1.
         11    1    4    4    0    0 -0.22692401853E+02 -0.41844908407E+01 -0.13752429021E+01  0.23115933001E+02  0.00000000000E+00 0. -1.
        -12    1    4    4    0    0  0.67568295415E+02  0.34969005307E+01  0.20803493174E+02  0.70784801948E+02  0.00000000000E+00 0.  1.
         -5    1    3    3    0  504 -0.42858836382E+02 -0.96038428257E+02  0.42642490617E+02  0.11358138740E+03  0.47000000000E+01 0.  1.
<mgrwt>
<rscale>  2 0.19844535E+03</rscale>
<asrwt>0</asrwt>
<pdfrwt beam="1">  1       21 0.60751778E-01 0.19860073E+03</pdfrwt>
<pdfrwt beam="2">  1       21 0.17017673E-01 0.19860073E+03</pdfrwt>
<totfact> 0.78348769E+04</totfact>
</mgrwt>
</event>
<event>
12    1  0.2736842E-001  0.2499837E+03  0.7546771E-02  0.1113518E+00
         21   -1    0    0  502  503  0.00000000000E+00  0.00000000000E+00  0.63879043744E+03  0.63879043744E+03  0.00000000000E+00 0. -1.
         21   -1    0    0  503  504 -0.00000000000E+00 -0.00000000000E+00 -0.11031085471E+03  0.11031085471E+03  0.00000000000E+00 0.  1.
         -6    2    1    2    0  504  0.17871083610E+03 -0.27904403412E+02  0.13634049186E+03  0.28474650891E+03  0.17255615304E+03 0.  0.
        -24    2    3    3    0    0  0.12238624789E+03  0.23299248759E+02  0.21862665360E+02  0.14719093472E+03  0.75272481435E+02 0.  0.
          6    2    1    2  502    0 -0.17871083610E+03  0.27904403412E+02  0.39213909088E+03  0.46435478324E+03  0.17069293908E+03 0.  0.
         24    2    5    5    0    0 -0.57568288167E+02 -0.44179657722E+02  0.16575821010E+03  0.19763016501E+03  0.79472938446E+02 0.  0.
          2    1    6    6  501    0 -0.18110759378E+02 -0.93823126967E+01  0.13532280541E+03  0.13685133927E+03  0.00000000000E+00 0. -1.
         -1    1    6    6    0  501 -0.39457528789E+02 -0.34797345025E+02  0.30435404696E+02  0.60778825737E+02  0.00000000000E+00 0.  1.
          5    1    5    5  502    0 -0.12114254793E+03  0.72084061134E+02  0.22638088078E+03  0.26672461823E+03  0.47000000000E+01 0. -1.
         13    1    4    4    0    0  0.42026094370E+02  0.16054565813E+02  0.44613672783E+02  0.63358673366E+02  0.00000000000E+00 0. -1.
        -14    1    4    4    0    0  0.80360153523E+02  0.72446829463E+01 -0.22751007423E+02  0.83832261356E+02  0.00000000000E+00 0.  1.
         -5    1    3    3    0  504  0.56324588203E+02 -0.51203652171E+02  0.11447782650E+03  0.13755557419E+03  0.47000000000E+01 0.  1.
<mgrwt>
<rscale>  2 0.24966245E+03</rscale>
<asrwt>0</asrwt>
<pdfrwt beam="1">  1       21 0.98275449E-01 0.24998369E+03</pdfrwt>
<pdfrwt beam="2">  1       21 0.16970901E-01 0.24998369E+03</pdfrwt>
<totfact> 0.25962166E+04</totfact>
</mgrwt>
</event>
<event>
12    1  0.2736842E-001  0.1771434E+03  0.7546771E-02  0.1170874E+00
         21   -1    0    0  502  503  0.00000000000E+00  0.00000000000E+00  0.14038957715E+03  0.14038957715E+03  0.00000000000E+00 0.  1.
         21   -1    0    0  503  504 -0.00000000000E+00 -0.00000000000E+00 -0.47321944307E+03  0.47321944307E+03  0.00000000000E+00 0.  1.
         -6    2    1    2    0  504 -0.20844110777E+02  0.15314366389E+02 -0.38965849640E+03  0.42757328672E+03  0.17411537820E+03 0.  0.
        -24    2    3    3    0    0 -0.25905042261E+02  0.77133661685E+01 -0.85964198851E+02  0.12370538023E+03  0.84750282482E+02 0.  0.
          6    2    1    2  502    0  0.20844110777E+02 -0.15314366389E+02  0.56828630474E+02  0.18603573350E+03  0.17524495463E+03 0.  0.
         24    2    5    5    0    0  0.30145111900E+02 -0.19594476035E+02  0.10414634221E+03  0.13739538190E+03  0.82087508846E+02 0.  0.
          2    1    6    6  501    0 -0.12503147282E+02  0.22827603178E+02  0.15586109730E+02  0.30337352807E+02  0.00000000000E+00 0. -1.
         -1    1    6    6    0  501  0.42648259182E+02 -0.42422079213E+02  0.88560232477E+02  0.10705802909E+03  0.00000000000E+00 0.  1.
          5    1    5    5  502    0 -0.93010011229E+01  0.42801096467E+01 -0.47317711733E+02  0.48640351603E+02  0.47000000000E+01 0. -1.
         11    1    4    4    0    0 -0.18991440564E+02 -0.35912854202E+02 -0.60028380939E+02  0.72483201017E+02  0.00000000000E+00 0. -1.
        -12    1    4    4    0    0 -0.69136016965E+01  0.43626220370E+02 -0.25935817912E+02  0.51222179210E+02  0.00000000000E+00 0.  1.
         -5    1    3    3    0  504  0.50609314840E+01  0.76010002202E+01 -0.30369429755E+03  0.30386790649E+03  0.47000000000E+01 0.  1.
<mgrwt>
<rscale>  2 0.17686344E+03</rscale>
<asrwt>0</asrwt>
<pdfrwt beam="1">  1       21 0.21598397E-01 0.17714345E+03</pdfrwt>
<pdfrwt beam="2">  1       21 0.72802991E-01 0.17714345E+03</pdfrwt>
<totfact> 0.34230553E+04</totfact>
</mgrwt>
</event>
<event>
12    1  0.2736842E-001  0.2203238E+03  0.7546771E-02  0.1134528E+00
         21   -1    0    0  502  503  0.00000000000E+00  0.00000000000E+00  0.21961787706E+03  0.21961787706E+03  0.00000000000E+00 0.  1.
         21   -1    0    0  503  504 -0.00000000000E+00 -0.00000000000E+00 -0.22338537057E+03  0.22338537057E+03  0.00000000000E+00 0. -1.
         -6    2    1    2    0  504 -0.12821679901E+03  0.30089194209E+02 -0.41250115324E+02  0.22415202608E+03  0.17662856967E+03 0.  0.
        -24    2    3    3    0    0 -0.16767967054E+02  0.40543195448E+02  0.21400528788E+02  0.95788006606E+02  0.82416285774E+02 0.  0.
          6    2    1    2  502    0  0.12821679901E+03 -0.30089194209E+02  0.37482621805E+02  0.21885122155E+03  0.17072200526E+03 0.  0.
         24    2    5    5    0    0  0.12877360281E+03 -0.59948795118E+02  0.69903253229E+02  0.17452185049E+03  0.73450069227E+02 0.  0.
          2    1    6    6  501    0  0.47661680687E+02 -0.31225689539E+02  0.67644657771E+02  0.88444780615E+02  0.00000000000E+00 0. -1.
         -1    1    6    6    0  501  0.81111922126E+02 -0.28723105579E+02  0.22585954581E+01  0.86077069877E+02  0.00000000000E+00 0.  1.
          5    1    5    5  502    0 -0.55680380163E+00  0.29859600909E+02 -0.32420631423E+02  0.44329371063E+02  0.47000000000E+01 0. -1.
         11    1    4    4    0    0 -0.34252956770E+02  0.24114103283E+02 -0.21159902690E+02  0.46930762902E+02  0.00000000000E+00 0. -1.
        -12    1    4    4    0    0  0.17484989717E+02  0.16429092165E+02  0.42560431478E+02  0.48857243704E+02  0.00000000000E+00 0.  1.
         -5    1    3    3    0  504 -0.11144883196E+03 -0.10454001239E+02 -0.62650644112E+02  0.12836401947E+03  0.47000000000E+01 0.  1.
<mgrwt>
<rscale>  2 0.21913765E+03</rscale>
<asrwt>0</asrwt>
<pdfrwt beam="1">  1       21 0.33787366E-01 0.22032376E+03</pdfrwt>
<pdfrwt beam="2">  1       21 0.34366980E-01 0.22032376E+03</pdfrwt>
<totfact> 0.68027374E+04</totfact>
</mgrwt>
</event>
<event>
12    1  0.2736842E-001  0.1931289E+03  0.7546771E-02  0.1155911E+00
         21   -1    0    0  502  503  0.00000000000E+00  0.00000000000E+00  0.61991550267E+03  0.61991550267E+03  0.00000000000E+00 0. -1.
         21   -1    0    0  503  504 -0.00000000000E+00 -0.00000000000E+00 -0.18656584623E+03  0.18656584623E+03  0.00000000000E+00 0.  1.
         -6    2    1    2    0  504  0.82652703555E+02  0.10735921339E+02 -0.11548227060E+03  0.22502203063E+03  0.17421834012E+03 0.  0.
        -24    2    3    3    0    0  0.12488433882E+03  0.22371916713E+01 -0.10281770749E+03  0.17987537426E+03  0.78629295946E+02 0.  0.
          6    2    1    2  502    0 -0.82652703555E+02 -0.10735921339E+02  0.54883192704E+03  0.58145931827E+03  0.17300787626E+03 0.  0.
         24    2    5    5    0    0 -0.68073564003E+02 -0.32716149425E+02  0.54303913359E+03  0.55404895175E+03  0.79839738081E+02 0.  0.
          4    1    6    6  501    0 -0.70907679996E+02 -0.51986834241E+02  0.48275067126E+03  0.49069210368E+03  0.00000000000E+00 0. -1.
         -3    1    6    6    0  501  0.28341159929E+01  0.19270684816E+02  0.60288462328E+02  0.63356848064E+02  0.00000000000E+00 0.  1.
          5    1    5    5  502    0 -0.14579139552E+02  0.21980228085E+02  0.57927934562E+01  0.27410366521E+02  0.47000000000E+01 0. -1.
         13    1    4    4    0    0  0.33185133274E+02  0.36833572254E+02 -0.35344593447E+02  0.60886824530E+02  0.00000000000E+00 0. -1.
        -14    1    4    4    0    0  0.91699205545E+02 -0.34596380583E+02 -0.67473114045E+02  0.11898854973E+03  0.00000000000E+00 0.  1.
         -5    1    3    3    0  504 -0.42231635264E+02  0.84987296681E+01 -0.12664563104E+02  0.45146656373E+02  0.47000000000E+01 0.  1.
<mgrwt>
<rscale>  2 0.19285548E+03</rscale>
<asrwt>0</asrwt>
<pdfrwt beam="1">  1       21 0.95371615E-01 0.19312887E+03</pdfrwt>
<pdfrwt beam="2">  1       21 0.28702438E-01 0.19312887E+03</pdfrwt>
<totfact> 0.10656711E+04</totfact>
</mgrwt>
</event>
<event>
12    1  0.2736842E-001  0.2683968E+03  0.7546771E-02  0.1102244E+00
         21   -1    0    0  502  503  0.00000000000E+00  0.00000000000E+00  0.95354555450E+02  0.95354555450E+02  0.00000000000E+00 0.  1.
         21   -1    0    0  503  504 -0.00000000000E+00 -0.00000000000E+00 -0.86021223833E+03  0.86021223833E+03  0.00000000000E+00 0. -1.
         -6    2    1    2    0  504 -0.97276299333E+02 -0.18078778258E+03 -0.54964065466E+03  0.61153888142E+03  0.17241825162E+03 0.  0.
        -24    2    3    3    0    0 -0.13820787270E+01 -0.83578510728E+02 -0.35680572600E+03  0.37520703044E+03  0.80515290372E+02 0.  0.
          6    2    1    2  502    0  0.97276299333E+02  0.18078778258E+03 -0.21521702822E+03  0.34402791236E+03  0.17288705708E+03 0.  0.
         24    2    5    5    0    0  0.16697370673E+01  0.31450623263E+02 -0.10289911013E+03  0.13407647363E+03  0.79977147925E+02 0.  0.
          4    1    6    6  501    0  0.22808780985E+02 -0.18308050470E+02 -0.52851792006E+02  0.60404777296E+02  0.00000000000E+00 0. -1.
         -3    1    6    6    0  501 -0.21139043917E+02  0.49758673733E+02 -0.50047318126E+02  0.73671696336E+02  0.00000000000E+00 0.  1.
          5    1    5    5  502    0  0.95606562265E+02  0.14933715931E+03 -0.11231791809E+03  0.20995143873E+03  0.47000000000E+01 0. -1.
         13    1    4    4    0    0 -0.35883255005E+02 -0.38981882918E+02 -0.11071571374E+03  0.12274023160E+03  0.00000000000E+00 0. -1.
        -14    1    4    4    0    0  0.34501176278E+02 -0.44596627810E+02 -0.24609001226E+03  0.25246679883E+03  0.00000000000E+00 0.  1.
         -5    1    3    3    0  504 -0.95894220606E+02 -0.97209271849E+02 -0.19283492866E+03  0.23633185098E+03  0.47000000000E+01 0.  1.
<mgrwt>
<rscale>  2 0.26832132E+03</rscale>
<asrwt>0</asrwt>
<pdfrwt beam="1">  1       21 0.14669932E-01 0.26839679E+03</pdfrwt>
<pdfrwt beam="2">  1       21 0.13234034E+00 0.26839679E+03</pdfrwt>
<totfact> 0.16140208E+04</totfact>
</mgrwt>
</event>
<event>
12    1  0.2736842E-001  0.2110511E+03  0.7546771E-02  0.1140966E+00
         21   -1    0    0  502  503  0.00000000000E+00  0.00000000000E+00  0.49327128268E+02  0.49327128268E+02  0.00000000000E+00 0. -1.
         21   -1    0    0  503  504 -0.00000000000E+00 -0.00000000000E+00 -0.12155230351E+04  0.12155230351E+04  0.00000000000E+00 0. -1.
         -6    2    1    2    0  504 -0.28711069395E+02 -0.11215994455E+03 -0.90750705584E+03  0.93172508467E+03  0.17646075580E+03 0.  0.
        -24    2    3    3    0    0  0.33222293865E+02 -0.67324931635E+02 -0.73333176124E+03  0.74144885622E+03  0.79589993748E+02 0.  0.
          6    2    1    2  502    0  0.28711069395E+02  0.11215994455E+03 -0.25868885104E+03  0.33312507874E+03  0.17506632392E+03 0.  0.
         24    2    5    5    0    0 -0.45221427310E+02  0.95063340734E+02 -0.14013775028E+03  0.19228914078E+03  0.79085449794E+02 0.  0.
          2    1    6    6  501    0 -0.57030109987E+02  0.93607229358E+02 -0.14287738080E+03  0.18007968452E+03  0.00000000000E+00 0. -1.
         -1    1    6    6    0  501  0.11808682677E+02  0.14561113759E+01  0.27396305133E+01  0.12209456264E+02  0.00000000000E+00 0.  1.
          5    1    5    5  502    0  0.73932496705E+02  0.17096603813E+02 -0.11855110075E+03  0.14083593796E+03  0.47000000000E+01 0. -1.
         11    1    4    4    0    0 -0.23951651973E+02 -0.32903982389E+02 -0.34913759748E+03  0.35150165813E+03  0.00000000000E+00 0. -1.
        -12    1    4    4    0    0  0.57173945838E+02 -0.34420949246E+02 -0.38419416376E+03  0.38994719809E+03  0.00000000000E+00 0.  1.
         -5    1    3    3    0  504 -0.61933363260E+02 -0.44835012912E+02 -0.17417529459E+03  0.19027622845E+03  0.47000000000E+01 0.  1.
<mgrwt>
<rscale>  2 0.21075940E+03</rscale>
<asrwt>0</asrwt>
<pdfrwt beam="1">  1       21 0.75887884E-02 0.21105112E+03</pdfrwt>
<pdfrwt beam="2">  1       21 0.18700356E+00 0.21105112E+03</pdfrwt>
<totfact> 0.21192042E+04</totfact>
</mgrwt>
</event>
<event>
12    1  0.2736842E-001  0.1901638E+03  0.7546771E-02  0.1158453E+00
         21   -1    0    0  502  503  0.00000000000E+00  0.00000000000E+00  0.24810358087E+03  0.24810358087E+03  0.00000000000E+00 0.  1.
         21   -1    0    0  503  504 -0.00000000000E+00 -0.00000000000E+00 -0.21184454870E+03  0.21184454870E+03  0.00000000000E+00 0.  1.
         -6    2    1    2    0  504  0.63141213889E+02  0.45648421743E+02 -0.11080067367E+03  0.21955508465E+03  0.17279194024E+03 0.  0.
        -24    2    3    3    0    0  0.30023725986E+02  0.65248193958E+02 -0.13570778480E+03  0.17347501021E+03  0.80735527336E+02 0.  0.
          6    2    1    2  502    0 -0.63141213889E+02 -0.45648421743E+02  0.14705970584E+03  0.24039304492E+03  0.17346950067E+03 0.  0.
         24    2    5    5    0    0 -0.96564688871E+02 -0.14945094114E+02  0.56424998884E+02  0.13892106301E+03  0.81038177876E+02 0.  0.
          2    1    6    6  501    0 -0.64686860134E+02 -0.19145335434E+02  0.75728172188E+02  0.10141838988E+03  0.00000000000E+00 0. -1.
         -1    1    6    6    0  501 -0.31877828737E+02  0.42002413200E+01 -0.19303173304E+02  0.37502673128E+02  0.00000000000E+00 0.  1.
          5    1    5    5  502    0  0.33423474982E+02 -0.30703327629E+02  0.90634706956E+02  0.10147198191E+03  0.47000000000E+01 0. -1.
         11    1    4    4    0    0  0.34063646439E+02  0.18586412075E+02 -0.11660592160E+03  0.12289315552E+03  0.00000000000E+00 0. -1.
        -12    1    4    4    0    0 -0.40399204530E+01  0.46661781883E+02 -0.19101863205E+02  0.50581854687E+02  0.00000000000E+00 0.  1.
         -5    1    3    3    0  504  0.33117487903E+02 -0.19599772215E+02  0.24907111132E+02  0.46080074445E+02  0.47000000000E+01 0.  1.
<mgrwt>
<rscale>  2 0.19000911E+03</rscale>
<asrwt>0</asrwt>
<pdfrwt beam="1">  1       21 0.38169782E-01 0.19016377E+03</pdfrwt>
<pdfrwt beam="2">  1       21 0.32591469E-01 0.19016377E+03</pdfrwt>
<totfact> 0.60038199E+04</totfact>
</mgrwt>
</event>
<event>
12    1  0.2736842E-001  0.2466231E+03  0.7546771E-02  0.1115555E+00
         21   -1    0    0  502  503  0.00000000000E+00  0.00000000000E+00  0.36865712852E+03  0.36865712852E+03  0.00000000000E+00 0. -1.
         21   -1    0    0  503  504 -0.00000000000E+00 -0.00000000000E+00 -0.18228190865E+03  0.18228190865E+03  0.00000000000E+00 0.  1.
         -6    2    1    2    0  504 -0.14559062159E+03 -0.97054815670E+02  0.74512607652E+01  0.24673563420E+03  0.17380070643E+03 0.  0.
        -24    2    3    3    0    0 -0.88228964667E+02 -0.11672340361E+03  0.44974404358E+02  0.17527033254E+03  0.85371478036E+02 0.  0.
          6    2    1    2  502    0  0.14559062159E+03  0.97054815670E+02  0.17892395910E+03  0.30420340296E+03  0.17294409759E+03 0.  0.
         24    2    5    5    0    0  0.96564088191E+02  0.21139893958E+02  0.32389051219E+02  0.13197899835E+03  0.81227379137E+02 0.  0.
          4    1    6    6  501    0  0.47890820432E+01 -0.43907403841E+00  0.37266106972E+02  0.37575135684E+02  0.00000000000E+00 0. -1.
         -3    1    6    6    0  501  0.91775006148E+02  0.21578967996E+02 -0.48770557527E+01  0.94403862665E+02  0.00000000000E+00 0.  1.
          5    1    5    5  502    0  0.49026533403E+02  0.75914921713E+02  0.14653490788E+03  0.17222440461E+03  0.47000000000E+01 0. -1.
         11    1    4    4    0    0 -0.61176828768E+01  0.41883147712E+01  0.27015049518E+02  0.28013941616E+02  0.00000000000E+00 0. -1.
        -12    1    4    4    0    0 -0.82111281791E+02 -0.12091171839E+03  0.17959354840E+02  0.14725639092E+03  0.00000000000E+00 0.  1.
         -5    1    3    3    0  504 -0.57361656926E+02  0.19668587944E+02 -0.37523143593E+02  0.71465301665E+02  0.47000000000E+01 0.  1.
<mgrwt>
<rscale>  2 0.24647223E+03</rscale>
<asrwt>0</asrwt>
<pdfrwt beam="1">  1       21 0.56716481E-01 0.24662310E+03</pdfrwt>
<pdfrwt beam="2">  1       21 0.28043371E-01 0.24662310E+03</pdfrwt>
<totfact> 0.34572667E+04</totfact>
</mgrwt>
</event>
<event>
12    1  0.2736842E-001  0.2086459E+03  0.7546771E-02  0.1143462E+00
         21   -1    0    0  502  503  0.00000000000E+00  0.00000000000E+00  0.52992067069E+03  0.52992067069E+03  0.00000000000E+00 0.  1.
         21   -1    0    0  503  504 -0.00000000000E+00 -0.00000000000E+00 -0.87083890911E+02  0.87083890911E+02  0.00000000000E+00 0. -1.
         -6    2    1    2    0  504  0.92869706919E+02 -0.55915258749E+02  0.13898669162E+03  0.25069986053E+03  0.17827456633E+03 0.  0.
        -24    2    3    3    0    0  0.20760415206E+02 -0.80402690449E+02  0.32959234796E+02  0.12007330939E+03  0.80222820937E+02 0.  0.
          6    2    1    2  502    0 -0.92869706919E+02  0.55915258749E+02  0.30385008817E+03  0.36630470108E+03  0.17350204416E+03 0.  0.
         24    2    5    5    0    0  0.10452961054E+02  0.46966635716E+02  0.11774535348E+03  0.15320211112E+03  0.85391974571E+02 0.  0.
          4    1    6    6  501    0  0.36334698898E+02  0.58784304949E+02  0.76466052787E+02  0.10306726969E+03  0.00000000000E+00 0. -1.
         -3    1    6    6    0  501 -0.25881737844E+02 -0.11817669233E+02  0.41279300693E+02  0.50134841434E+02  0.00000000000E+00 0.  1.
          5    1    5    5  502    0 -0.10332266797E+03  0.89486230330E+01  0.18610473469E+03  0.21310258995E+03  0.47000000000E+01 0. -1.
         13    1    4    4    0    0 -0.28817348951E+02 -0.48184674977E+02  0.12611977357E+02  0.57543587619E+02  0.00000000000E+00 0. -1.
        -14    1    4    4    0    0  0.49577764156E+02 -0.32218015471E+02  0.20347257439E+02  0.62529721772E+02  0.00000000000E+00 0.  1.
         -5    1    3    3    0  504  0.72109291713E+02  0.24487431700E+02  0.10602745682E+03  0.13062655114E+03  0.47000000000E+01 0.  1.
<mgrwt>
<rscale>  2 0.20762272E+03</rscale>
<asrwt>0</asrwt>
<pdfrwt beam="1">  1       21 0.81526255E-01 0.20864592E+03</pdfrwt>
<pdfrwt beam="2">  1       21 0.13397522E-01 0.20864592E+03</pdfrwt>
<totfact> 0.62966970E+04</totfact>
</mgrwt>
</event>
<event>
12    1  0.2736842E-001  0.2494272E+03  0.7546771E-02  0.1113916E+00
         21   -1    0    0  502  503  0.00000000000E+00  0.00000000000E+00  0.30687737074E+03  0.30687737074E+03  0.00000000000E+00 0.  1.
         21   -1    0    0  503  504 -0.00000000000E+00 -0.00000000000E+00 -0.41299630560E+03  0.41299630560E+03  0.00000000000E+00 0.  1.
         -6    2    1    2    0  504  0.13897673124E+02 -0.17830069250E+03 -0.31073719065E+03  0.39846147279E+03  0.17386679208E+03 0.  0.
        -24    2    3    3    0    0  0.43889478749E+01 -0.14016779111E+02 -0.92026529815E+02  0.12471695100E+03  0.82883669777E+02 0.  0.
          6    2    1    2  502    0 -0.13897673124E+02  0.17830069250E+03  0.20461825578E+03  0.32141220354E+03  0.17161844809E+03 0.  0.
         24    2    5    5    0    0 -0.10839922462E+02  0.18746605981E+03  0.21997357563E+03  0.30267108179E+03  0.89220974432E+02 0.  0.
          2    1    6    6  501    0  0.15941222102E+02  0.15810568314E+01  0.37677393753E+02  0.40941522967E+02  0.00000000000E+00 0. -1.
         -1    1    6    6    0  501 -0.26781144564E+02  0.18588500298E+03  0.18229618187E+03  0.26172955882E+03  0.00000000000E+00 0.  1.
          5    1    5    5  502    0 -0.30577506623E+01 -0.91653673100E+01 -0.15355319845E+02  0.18741121754E+02  0.47000000000E+01 0. -1.
         11    1    4    4    0    0 -0.25117316024E+02  0.24780505181E+02 -0.35014842053E+02  0.49709075281E+02  0.00000000000E+00 0. -1.
        -12    1    4    4    0    0  0.29506263899E+02 -0.38797284292E+02 -0.57011687762E+02  0.75007875715E+02  0.00000000000E+00 0.  1.
         -5    1    3    3    0  504  0.95087252494E+01 -0.16428391339E+03 -0.21871066083E+03  0.27374452180E+03  0.47000000000E+01 0.  1.
<mgrwt>
<rscale>  2 0.24903581E+03</rscale>
<asrwt>0</asrwt>
<pdfrwt beam="1">  1       21 0.47211903E-01 0.24942723E+03</pdfrwt>
<pdfrwt beam="2">  1       21 0.63537893E-01 0.24942723E+03</pdfrwt>
<totfact> 0.94841191E+03</totfact>
</mgrwt>
</event>
<event>
12    1  0.2736842E-001  0.2027994E+03  0.7546771E-02  0.1147671E+00
         21   -1    0    0  502  503  0.00000000000E+00  0.00000000000E+00  0.13840093157E+03  0.13840093157E+03  0.00000000000E+00 0.  1.
         21   -1    0    0  503  504 -0.00000000000E+00 -0.00000000000E+00 -0.40715620568E+03  0.40715620568E+03  0.00000000000E+00 0.  1.
         -6    2    1    2    0  504  0.58003721826E+02 -0.83586566246E+02 -0.27707061573E+03  0.34258735520E+03  0.17391614082E+03 0.  0.
        -24    2    3    3    0    0  0.42628339537E+02 -0.82258008555E+01 -0.23734552390E+03  0.25589352461E+03  0.85227689703E+02 0.  0.
          6    2    1    2  502    0 -0.58003721826E+02  0.83586566246E+02  0.83153416220E+01  0.20296978204E+03  0.17543215701E+03 0.  0.
         24    2    5    5    0    0  0.67901859306E+01  0.97682648397E+02 -0.23311603272E+02  0.12935386218E+03  0.81246442325E+02 0.  0.
          2    1    6    6  501    0  0.18275483374E+02  0.43231073298E+02 -0.49182918577E+02  0.67984398731E+02  0.00000000000E+00 0. -1.
         -1    1    6    6    0  501 -0.11485297443E+02  0.54451575100E+02  0.25871315306E+02  0.61369463447E+02  0.00000000000E+00 0.  1.
          5    1    5    5  502    0 -0.64793907757E+02 -0.14096082151E+02  0.31626944894E+02  0.73615919866E+02  0.47000000000E+01 0. -1.
         11    1    4    4    0    0  0.69355413645E+01  0.74504901357E+01  0.43534773134E+01  0.11070876298E+02  0.00000000000E+00 0. -1.
        -12    1    4    4    0    0  0.35692798172E+02 -0.15676290991E+02 -0.24169900121E+03  0.24482264831E+03  0.00000000000E+00 0.  1.
         -5    1    3    3    0  504  0.15375382289E+02 -0.75360765390E+02 -0.39725091836E+02  0.86693830588E+02  0.47000000000E+01 0.  1.
<mgrwt>
<rscale>  2 0.20247108E+03</rscale>
<asrwt>0</asrwt>
<pdfrwt beam="1">  1       21 0.21292451E-01 0.20279938E+03</pdfrwt>
<pdfrwt beam="2">  1       21 0.62639416E-01 0.20279938E+03</pdfrwt>
<totfact> 0.48235586E+04</totfact>
</mgrwt>
</event>
<event>
12    1  0.2736842E-001  0.3907986E+03  0.7546771E-02  0.1047064E+00
         21   -1    0    0  502  503  0.00000000000E+00  0.00000000000E+00  0.48743255281E+03  0.48743255281E+03  0.00000000000E+00 0.  1.
         21   -1    0    0  503  504 -0.00000000000E+00 -0.00000000000E+00 -0.31313144787E+03  0.31313144787E+03  0.00000000000E+00 0. -1.
         -6    2    1    2    0  504 -0.26417809445E+03  0.22981326631E+03  0.98763136734E+02  0.40253195109E+03  0.17226030162E+03 0.  0.
        -24    2    3    3    0    0 -0.78585895398E+02  0.44110403024E+02  0.66780596119E+02  0.13800408737E+03  0.80399064063E+02 0.  0.
          6    2    1    2  502    0  0.26417809445E+03 -0.22981326631E+03  0.75537968211E+02  0.39803204958E+03  0.17354920021E+03 0.  0.
         24    2    5    5    0    0  0.25248674667E+03 -0.25106962846E+03  0.62309514428E+02  0.37000344751E+03  0.78959229950E+02 0.  0.
          2    1    6    6  501    0  0.95864343902E+02 -0.52198493874E+02 -0.62733051287E+00  0.10915607513E+03  0.00000000000E+00 0. -1.
         -1    1    6    6    0  501  0.15662240277E+03 -0.19887113459E+03  0.62936844941E+02  0.26084737237E+03  0.00000000000E+00 0.  1.
          5    1    5    5  502    0  0.11691347781E+02  0.21256362156E+02  0.13228453783E+02  0.28028602080E+02  0.47000000000E+01 0. -1.
         13    1    4    4    0    0 -0.87617907341E+02  0.43281818522E+02  0.33185312485E+02  0.10320600015E+03  0.00000000000E+00 0. -1.
        -14    1    4    4    0    0  0.90320119429E+01  0.82858450250E+00  0.33595283633E+02  0.34798087224E+02  0.00000000000E+00 0.  1.
         -5    1    3    3    0  504 -0.18559219906E+03  0.18570286328E+03  0.31982540615E+02  0.26452786373E+03  0.47000000000E+01 0.  1.
<mgrwt>
<rscale>  2 0.39065583E+03</rscale>
<asrwt>0</asrwt>
<pdfrwt beam="1">  1       21 0.74989623E-01 0.39079858E+03</pdfrwt>
<pdfrwt beam="2">  1       21 0.48174069E-01 0.39079858E+03</pdfrwt>
<totfact> 0.58970843E+03</totfact>
</mgrwt>
</event>
<event>
12    1  0.2736842E-001  0.1918136E+03  0.7546771E-02  0.1157129E+00
         21   -1    0    0  502  503  0.00000000000E+00  0.00000000000E+00  0.23748397441E+03  0.23748397441E+03  0.00000000000E+00 0. -1.
         21   -1    0    0  503  504 -0.00000000000E+00 -0.00000000000E+00 -0.25428497275E+03  0.25428497275E+03  0.00000000000E+00 0. -1.
         -6    2    1    2    0  504  0.57882722099E+02 -0.53304845715E+02 -0.16293457139E+03  0.25167467617E+03  0.17493042039E+03 0.  0.
        -24    2    3    3    0    0  0.86196896328E+02 -0.83553178458E+02 -0.98108494345E+02  0.17459572728E+03  0.80295409309E+02 0.  0.
          6    2    1    2  502    0 -0.57882722099E+02  0.53304845715E+02  0.14613357305E+03  0.24009427099E+03  0.17348896707E+03 0.  0.
         24    2    5    5    0    0 -0.62930146631E+02 -0.28370403591E+02  0.60630419405E+02  0.12164933810E+03  0.79733497031E+02 0.  0.
          2    1    6    6  501    0 -0.34967255840E+01 -0.17676787730E+02 -0.15990908178E+02  0.24091597262E+02  0.00000000000E+00 0. -1.
         -1    1    6    6    0  501 -0.59433421047E+02 -0.10693615861E+02  0.76621327583E+02  0.97557740841E+02  0.00000000000E+00 0.  1.
          5    1    5    5  502    0  0.50474245313E+01  0.81675249306E+02  0.85503153642E+02  0.11844493289E+03  0.47000000000E+01 0. -1.
         13    1    4    4    0    0 -0.14371371567E+01 -0.44216350551E+02 -0.51296936395E+02  0.67738664755E+02  0.00000000000E+00 0. -1.
        -14    1    4    4    0    0  0.87634033485E+02 -0.39336827907E+02 -0.46811557950E+02  0.10685706253E+03  0.00000000000E+00 0.  1.
         -5    1    3    3    0  504 -0.28314174228E+02  0.30248332743E+02 -0.64826077050E+02  0.77078948888E+02  0.47000000000E+01 0.  1.
<mgrwt>
<rscale>  2 0.19148437E+03</rscale>
<asrwt>0</asrwt>
<pdfrwt beam="1">  1       21 0.36535996E-01 0.19181363E+03</pdfrwt>
<pdfrwt beam="2">  1       21 0.39120765E-01 0.19181363E+03</pdfrwt>
<totfact> 0.45534072E+04</totfact>
</mgrwt>
</event>
<event>
12    1  0.2736842E-001  0.1942760E+03  0.7546771E-02  0.1154743E+00
         21   -1    0    0  502  503  0.00000000000E+00  0.00000000000E+00  0.84744284880E+02  0.84744284880E+02  0.00000000000E+00 0. -1.
         21   -1    0    0  503  504 -0.00000000000E+00 -0.00000000000E+00 -0.48694920206E+03  0.48694920206E+03  0.00000000000E+00 0. -1.
         -6    2    1    2    0  504 -0.76862052804E+02 -0.40601000555E+02 -0.28567153955E+03  0.34547268311E+03  0.17374386278E+03 0.  0.
        -24    2    3    3    0    0 -0.11909378344E+03 -0.47711923600E+02 -0.22955644861E+03  0.27472610912E+03  0.79489087454E+02 0.  0.
          6    2    1    2  502    0  0.76862052804E+02  0.40601000555E+02 -0.11653337762E+03  0.22622080383E+03  0.17331938027E+03 0.  0.
         24    2    5    5    0    0  0.86463541806E+02 -0.19979585136E+02 -0.11017085596E+03  0.16437609803E+03  0.83706369041E+02 0.  0.
          2    1    6    6  501    0  0.72649104293E+02 -0.31923507770E+02 -0.34493168591E+02  0.86526188997E+02  0.00000000000E+00 0. -1.
         -1    1    6    6    0  501  0.13814437513E+02  0.11943922634E+02 -0.75677687365E+02  0.77849909034E+02  0.00000000000E+00 0.  1.
          5    1    5    5  502    0 -0.96014890016E+01  0.60580585691E+02 -0.63625216679E+01  0.61844705801E+02  0.47000000000E+01 0. -1.
         13    1    4    4    0    0 -0.79402947963E+02 -0.31169799734E+02 -0.21156429194E+03  0.22811364314E+03  0.00000000000E+00 0. -1.
        -14    1    4    4    0    0 -0.39690835480E+02 -0.16542123866E+02 -0.17992156667E+02  0.46612465979E+02  0.00000000000E+00 0.  1.
         -5    1    3    3    0  504  0.42231730639E+02  0.71109230454E+01 -0.56115090944E+02  0.70746573988E+02  0.47000000000E+01 0.  1.
<mgrwt>
<rscale>  2 0.19418100E+03</rscale>
<asrwt>0</asrwt>
<pdfrwt beam="1">  1       21 0.13037582E-01 0.19427595E+03</pdfrwt>
<pdfrwt beam="2">  1       21 0.74915263E-01 0.19427595E+03</pdfrwt>
<totfact> 0.80548247E+04</totfact>
</mgrwt>
</event>
<event>
12    1  0.2736842E-001  0.2152642E+03  0.7546771E-02  0.1137884E+00
         21   -1    0    0  502  503  0.00000000000E+00  0.00000000000E+00  0.48457069455E+02  0.48457069455E+02  0.00000000000E+00 0.  1.
         21   -1    0    0  503  504 -0.00000000000E+00 -0.00000000000E+00 -0.16356202415E+04  0.16356202415E+04  0.00000000000E+00 0.  1.
         -6    2    1    2    0  504  0.18576640083E+02  0.12202137347E+03 -0.13377509409E+04  0.13546153973E+04  0.17369797803E+03 0.  0.
        -24    2    3    3    0    0  0.77875828635E+02  0.62806419287E+02 -0.81795151841E+03  0.82808302965E+03  0.81654923490E+02 0.  0.
          6    2    1    2  502    0 -0.18576640083E+02 -0.12202137347E+03 -0.24941223106E+03  0.32946191358E+03  0.17636435114E+03 0.  0.
         24    2    5    5    0    0 -0.26902677329E+02 -0.10741890638E+03 -0.27113769897E+03  0.30159363596E+03  0.71975648349E+02 0.  0.
          2    1    6    6  501    0 -0.36408687703E+02 -0.82756350464E+02 -0.25516977119E+03  0.27071353533E+03  0.00000000000E+00 0. -1.
         -1    1    6    6    0  501  0.95060103736E+01 -0.24662555913E+02 -0.15967927781E+02  0.30880100631E+02  0.00000000000E+00 0.  1.
          5    1    5    5  502    0  0.83260372466E+01 -0.14602467095E+02  0.21725467907E+02  0.27868277616E+02  0.47000000000E+01 0. -1.
         11    1    4    4    0    0  0.30402598479E+02  0.99233790602E+01 -0.54805285212E+03  0.54898517299E+03  0.00000000000E+00 0. -1.
        -12    1    4    4    0    0  0.47473230155E+02  0.52883040227E+02 -0.26989866629E+03  0.27909785665E+03  0.00000000000E+00 0.  1.
         -5    1    3    3    0  504 -0.59299188552E+02  0.59214954185E+02 -0.51979942254E+03  0.52653236770E+03  0.47000000000E+01 0.  1.
<mgrwt>
<rscale>  2 0.21471739E+03</rscale>
<asrwt>0</asrwt>
<pdfrwt beam="1">  1       21 0.74549359E-02 0.21526424E+03</pdfrwt>
<pdfrwt beam="2">  1       21 0.25163381E+00 0.21526424E+03</pdfrwt>
<totfact> 0.86373329E+03</totfact>
</mgrwt>
</event>
<event>
12    1  0.2736842E-001  0.1867820E+03  0.7546771E-02  0.1161568E+00
         21   -1    0    0  502  503  0.00000000000E+00  0.00000000000E+00  0.51770398367E+03  0.51770398367E+03  0.00000000000E+00 0. -1.
         21   -1    0    0  503  504 -0.00000000000E+00 -0.00000000000E+00 -0.12260685218E+03  0.12260685218E+03  0.00000000000E+00 0.  1.
         -6    2    1    2    0  504  0.71838577790E+02 -0.18592503310E+01 -0.17610265879E+02  0.18761030339E+03  0.17240436886E+03 0.  0.
        -24    2    3    3    0    0  0.23577229016E+01 -0.18964736827E+02 -0.61527393736E+02  0.10352111869E+03  0.81029511502E+02 0.  0.
          6    2    1    2  502    0 -0.71838577790E+02  0.18592503310E+01  0.41270739737E+03  0.45270053247E+03  0.17159877093E+03 0.  0.
         24    2    5    5    0    0 -0.15821826939E+02  0.41772054063E+02  0.12742927495E+03  0.15921014862E+03  0.84347001148E+02 0.  0.
          2    1    6    6  501    0  0.21758486925E+02  0.77656791997E+01  0.11405197254E+01  0.23130895183E+02  0.00000000000E+00 0. -1.
         -1    1    6    6    0  501 -0.37580313864E+02  0.34006374863E+02  0.12628875522E+03  0.13607925344E+03  0.00000000000E+00 0.  1.
          5    1    5    5  502    0 -0.56016750851E+02 -0.39912803732E+02  0.28527812242E+03  0.29349038384E+03  0.47000000000E+01 0. -1.
         11    1    4    4    0    0 -0.21806505259E+02 -0.23541188475E+01  0.11544089299E+02  0.24785712515E+02  0.00000000000E+00 0. -1.
        -12    1    4    4    0    0  0.24164228161E+02 -0.16610617979E+02 -0.73071483035E+02  0.78735406173E+02  0.00000000000E+00 0.  1.
         -5    1    3    3    0  504  0.69480854888E+02  0.17105486496E+02  0.43917127857E+02  0.84089184700E+02  0.47000000000E+01 0.  1.
<mgrwt>
<rscale>  2 0.18659586E+03</rscale>
<asrwt>0</asrwt>
<pdfrwt beam="1">  1       21 0.79646765E-01 0.18678197E+03</pdfrwt>
<pdfrwt beam="2">  1       21 0.18862593E-01 0.18678197E+03</pdfrwt>
<totfact> 0.35871989E+04</totfact>
</mgrwt>
</event>
<event>
12    1  0.2736842E-001  0.1942521E+03  0.7546771E-02  0.1158926E+00
         21   -1    0    0  502  503  0.00000000000E+00  0.00000000000E+00  0.39405383437E+03  0.39405383437E+03  0.00000000000E+00 0.  1.
         21   -1    0    0  503  504 -0.00000000000E+00 -0.00000000000E+00 -0.12305030636E+03  0.12305030636E+03  0.00000000000E+00 0.  1.
         -6    2    1    2    0  504 -0.17104553071E+02 -0.86737845264E+02  0.28024458356E+03  0.34098521047E+03  0.17296782245E+03 0.  0.
        -24    2    3    3    0    0  0.34579054059E+02 -0.77572389744E+02  0.10153573212E+03  0.15466788866E+03  0.79996651520E+02 0.  0.
          6    2    1    2  502    0  0.17104553071E+02  0.86737845264E+02 -0.92410555543E+01  0.17611893026E+03  0.15204098445E+03 0.  0.
         24    2    5    5    0    0  0.54140952596E+02  0.46960060524E+02  0.14624062860E+02  0.11657398148E+03  0.90769708117E+02 0.  0.
          2    1    6    6  501    0 -0.15119275513E+02  0.17287648567E+01  0.28869539711E+02  0.32634819489E+02  0.00000000000E+00 0. -1.
         -1    1    6    6    0  501  0.69260228109E+02  0.45231295668E+02 -0.14245476851E+02  0.83939161993E+02  0.00000000000E+00 0.  1.
          5    1    5    5  502    0 -0.37036399525E+02  0.39777784740E+02 -0.23865118414E+02  0.59544948782E+02  0.47000000000E+01 0. -1.
         11    1    4    4    0    0  0.34317075516E+01  0.55383504883E+01  0.53212811464E+02  0.53610197227E+02  0.00000000000E+00 0. -1.
        -12    1    4    4    0    0  0.31147346508E+02 -0.83110740233E+02  0.48322920654E+02  0.10105769143E+03  0.00000000000E+00 0.  1.
         -5    1    3    3    0  504 -0.51683607130E+02 -0.91654555198E+01  0.17870885145E+03  0.18631732181E+03  0.47000000000E+01 0.  1.
<mgrwt>
<rscale>  2 0.18948558E+03</rscale>
<asrwt>0</asrwt>
<pdfrwt beam="1">  1       21 0.60623666E-01 0.19425212E+03</pdfrwt>
<pdfrwt beam="2">  1       21 0.18930817E-01 0.19425212E+03</pdfrwt>
<totfact> 0.64759685E+04</totfact>
</mgrwt>
</event>
<event>
12    1  0.2736842E-001  0.1806155E+03  0.7546771E-02  0.1167528E+00
         21   -1    0    0  502  503  0.00000000000E+00  0.00000000000E+00  0.21028692466E+03  0.21028692466E+03  0.00000000000E+00 0.  1.
         21   -1    0    0  503  504 -0.00000000000E+00 -0.00000000000E+00 -0.28700238227E+03  0.28700238227E+03  0.00000000000E+00 0.  1.
         -6    2    1    2    0  504 -0.48031690996E+02  0.10256823826E+02 -0.20769781898E+03  0.27524596554E+03  0.17380941218E+03 0.  0.
        -24    2    3    3    0    0 -0.20345141150E+02  0.53476318941E+02 -0.52367633647E+02  0.11158770490E+03  0.80223471469E+02 0.  0.
          6    2    1    2  502    0  0.48031690996E+02 -0.10256823826E+02  0.13098236137E+03  0.22204334139E+03  0.17243729495E+03 0.  0.
         24    2    5    5    0    0  0.30647428065E+02 -0.70510041116E+02  0.63855403554E+02  0.13006083622E+03  0.83230870532E+02 0.  0.
          4    1    6    6  501    0  0.39507448973E+01 -0.43573334782E+02 -0.11900926027E+02  0.45341768046E+02  0.00000000000E+00 0. -1.
         -3    1    6    6    0  501  0.26696683168E+02 -0.26936706333E+02  0.75756329581E+02  0.84719068171E+02  0.00000000000E+00 0.  1.
          5    1    5    5  502    0  0.17384262931E+02  0.60253217289E+02  0.67126957821E+02  0.91982505172E+02  0.47000000000E+01 0. -1.
         13    1    4    4    0    0  0.20116341273E+02 -0.43125103030E+01  0.43992482184E+01  0.21038496054E+02  0.00000000000E+00 0. -1.
        -14    1    4    4    0    0 -0.40461482423E+02  0.57788829244E+02 -0.56766881865E+02  0.90549208843E+02  0.00000000000E+00 0.  1.
         -5    1    3    3    0  504 -0.27686549847E+02 -0.43219495115E+02 -0.15533018533E+03  0.16365826064E+03  0.47000000000E+01 0.  1.
<mgrwt>
<rscale>  2 0.18028458E+03</rscale>
<asrwt>0</asrwt>
<pdfrwt beam="1">  1       21 0.32351835E-01 0.18061550E+03</pdfrwt>
<pdfrwt beam="2">  1       21 0.44154213E-01 0.18061550E+03</pdfrwt>
<totfact> 0.45552902E+04</totfact>
</mgrwt>
</event>
<event>
12    1  0.2736842E-001  0.2648324E+03  0.7546771E-02  0.1104716E+00
         21   -1    0    0  502  503  0.00000000000E+00  0.00000000000E+00  0.49892938925E+03  0.49892938925E+03  0.00000000000E+00 0. -1.
         21   -1    0    0  503  504 -0.00000000000E+00 -0.00000000000E+00 -0.14684469512E+03  0.14684469512E+03  0.00000000000E+00 0.  1.
         -6    2    1    2    0  504 -0.10854635623E+03  0.16735659651E+03  0.10230094716E+03  0.28390439034E+03  0.17420010682E+03 0.  0.
        -24    2    3    3    0    0 -0.54543286590E+02  0.12652403467E+03  0.13459325506E+03  0.20874780189E+03  0.80479805073E+02 0.  0.
          6    2    1    2  502    0  0.10854635623E+03 -0.16735659651E+03  0.24978374697E+03  0.36186969403E+03  0.16960900141E+03 0.  0.
         24    2    5    5    0    0  0.85325244386E+02 -0.48329498133E+02  0.18507318163E+03  0.22433345353E+03  0.80357190689E+02 0.  0.
          2    1    6    6  501    0  0.72219385464E+02 -0.70097041570E+02  0.15679899547E+03  0.18632004684E+03  0.00000000000E+00 0. -1.
         -1    1    6    6    0  501  0.13105858922E+02  0.21767543437E+02  0.28274186163E+02  0.38013406695E+02  0.00000000000E+00 0.  1.
          5    1    5    5  502    0  0.23221111847E+02 -0.11902709838E+03  0.64710565339E+02  0.13753624050E+03  0.47000000000E+01 0. -1.
         11    1    4    4    0    0  0.16709029782E+02  0.12511361618E+02  0.37463993523E+02  0.42886788834E+02  0.00000000000E+00 0. -1.
        -12    1    4    4    0    0 -0.71252316372E+02  0.11401267305E+03  0.97129261537E+02  0.16586101305E+03  0.00000000000E+00 0.  1.
         -5    1    3    3    0  504 -0.54003069643E+02  0.40832561844E+02 -0.32292307903E+02  0.75156588450E+02  0.47000000000E+01 0.  1.
<mgrwt>
<rscale>  2 0.26407997E+03</rscale>
<asrwt>0</asrwt>
<pdfrwt beam="1">  1       21 0.76758367E-01 0.26483244E+03</pdfrwt>
<pdfrwt beam="2">  1       21 0.22591492E-01 0.26483244E+03</pdfrwt>
<totfact> 0.26725642E+04</totfact>
</mgrwt>
</event>
<event>
12    1  0.2736842E-001  0.2244578E+03  0.7546771E-02  0.1130872E+00
         21   -1    0    0  502  503  0.00000000000E+00  0.00000000000E+00  0.13525518978E+03  0.13525518978E+03  0.00000000000E+00 0.  1.
         21   -1    0    0  503  504 -0.00000000000E+00 -0.00000000000E+00 -0.43388276648E+03  0.43388276648E+03  0.00000000000E+00 0.  1.
         -6    2    1    2    0  504  0.97255004972E+02 -0.10202140057E+03 -0.25889192686E+03  0.34264606745E+03  0.17468370152E+03 0.  0.
        -24    2    3    3    0    0 -0.97398590084E+01 -0.80363497689E+02 -0.11657402472E+03  0.16322076002E+03  0.80612385202E+02 0.  0.
          6    2    1    2  502    0 -0.97255004972E+02  0.10202140057E+03 -0.39735649840E+02  0.22649188881E+03  0.17277948855E+03 0.  0.
         24    2    5    5    0    0 -0.48783317232E+02 -0.15395085177E+01  0.22749953796E+02  0.96104362323E+02  0.79600916660E+02 0.  0.
          2    1    6    6  501    0  0.21057029382E+02 -0.57390600056E+01  0.13154752674E+02  0.25482990682E+02  0.00000000000E+00 0. -1.
         -1    1    6    6    0  501 -0.69840346614E+02  0.41995514879E+01  0.95952011219E+01  0.70621371641E+02  0.00000000000E+00 0.  1.
          5    1    5    5  502    0 -0.48471687740E+02  0.10356090908E+03 -0.62485603636E+02  0.13038752649E+03  0.47000000000E+01 0. -1.
         13    1    4    4    0    0 -0.72519448283E+00  0.67263281251E+00  0.11419826704E+02  0.11462581903E+02  0.00000000000E+00 0. -1.
        -14    1    4    4    0    0 -0.90146645256E+01 -0.81036130502E+02 -0.12799385142E+03  0.15175817812E+03  0.00000000000E+00 0.  1.
         -5    1    3    3    0  504  0.10699486398E+03 -0.21657902876E+02 -0.14231790214E+03  0.17942530743E+03  0.47000000000E+01 0.  1.
<mgrwt>
<rscale>  2 0.22408718E+03</rscale>
<asrwt>0</asrwt>
<pdfrwt beam="1">  1       21 0.20808491E-01 0.22445779E+03</pdfrwt>
<pdfrwt beam="2">  1       21 0.66751194E-01 0.22445779E+03</pdfrwt>
<totfact> 0.43398325E+04</totfact>
</mgrwt>
</event>
<event>
12    1  0.2736842E-001  0.1834435E+03  0.7546771E-02  0.1165440E+00
         21   -1    0    0  502  503  0.00000000000E+00  0.00000000000E+00  0.75518178705E+03  0.75518178705E+03  0.00000000000E+00 0. -1.
         21   -1    0    0  503  504 -0.00000000000E+00 -0.00000000000E+00 -0.57907569320E+02  0.57907569320E+02  0.00000000000E+00 0. -1.
         -6    2    1    2    0  504 -0.23216431685E+02  0.53838217148E+02  0.14390168018E+03  0.23010335329E+03  0.16971241354E+03 0.  0.
        -24    2    3    3    0    0 -0.78878078689E+02  0.44091415388E+02  0.97829463939E+02  0.15704202151E+03  0.83221321172E+02 0.  0.
          6    2    1    2  502    0  0.23216431685E+02 -0.53838217148E+02  0.55337253756E+03  0.58298600308E+03  0.17382162738E+03 0.  0.
         24    2    5    5    0    0  0.77968206644E+02 -0.24239601421E+02  0.42392688106E+03  0.43927760771E+03  0.81143185976E+02 0.  0.
          2    1    6    6  501    0  0.34789016277E+02  0.22904072553E+02  0.26019304643E+03  0.26350577527E+03  0.00000000000E+00 0. -1.
         -1    1    6    6    0  501  0.43179190367E+02 -0.47143673974E+02  0.16373383463E+03  0.17577183244E+03  0.00000000000E+00 0.  1.
          5    1    5    5  502    0 -0.54751774959E+02 -0.29598615727E+02  0.12944565650E+03  0.14370839537E+03  0.47000000000E+01 0. -1.
         13    1    4    4    0    0  0.15603837160E+02 -0.18548620552E+01  0.23796862498E+02  0.28516853124E+02  0.00000000000E+00 0. -1.
        -14    1    4    4    0    0 -0.94481915848E+02  0.45946277443E+02  0.74032601441E+02  0.12852516839E+03  0.00000000000E+00 0.  1.
         -5    1    3    3    0  504  0.55661647004E+02  0.97468017601E+01  0.46072216239E+02  0.73061331776E+02  0.47000000000E+01 0.  1.
<mgrwt>
<rscale>  2 0.18246345E+03</rscale>
<asrwt>0</asrwt>
<pdfrwt beam="1">  1       21 0.11618181E+00 0.18344349E+03</pdfrwt>
<pdfrwt beam="2">  1       21 0.89088574E-02 0.18344349E+03</pdfrwt>
<totfact> 0.57122695E+04</totfact>
</mgrwt>
</event>
<event>
12    1  0.2736842E-001  0.2082801E+03  0.7546771E-02  0.1143053E+00
         21   -1    0    0  502  503  0.00000000000E+00  0.00000000000E+00  0.11320255418E+03  0.11320255418E+03  0.00000000000E+00 0. -1.
         21   -1    0    0  503  504 -0.00000000000E+00 -0.00000000000E+00 -0.40624294066E+03  0.40624294066E+03  0.00000000000E+00 0. -1.
         -6    2    1    2    0  504  0.10035788425E+02  0.11574307359E+03 -0.20998810795E+03  0.29576275831E+03  0.17286823764E+03 0.  0.
        -24    2    3    3    0    0 -0.34540693605E+02  0.46721098805E+01 -0.74075474698E+02  0.11460493869E+03  0.80201171408E+02 0.  0.
          6    2    1    2  502    0 -0.10035788425E+02 -0.11574307359E+03 -0.83052278520E+02  0.22368273654E+03  0.17216012756E+03 0.  0.
         24    2    5    5    0    0  0.21385553908E+02 -0.28903234402E+02 -0.94519159623E+02  0.13050528333E+03  0.82492536423E+02 0.  0.
          4    1    6    6  501    0  0.32778888942E+02 -0.13928546249E+02 -0.15479149016E+01  0.35649067329E+02  0.00000000000E+00 0. -1.
         -3    1    6    6    0  501 -0.11393335033E+02 -0.14974688154E+02 -0.92971244721E+02  0.94856215998E+02  0.00000000000E+00 0.  1.
          5    1    5    5  502    0 -0.31421342333E+02 -0.86839839188E+02  0.11466881103E+02  0.93177453209E+02  0.47000000000E+01 0. -1.
         13    1    4    4    0    0  0.42705056956E+01  0.32754485474E+02 -0.52587450221E+02  0.62100994021E+02  0.00000000000E+00 0. -1.
        -14    1    4    4    0    0 -0.38811199300E+02 -0.28082375593E+02 -0.21488024476E+02  0.52503944671E+02  0.00000000000E+00 0.  1.
         -5    1    3    3    0  504  0.44576482030E+02  0.11107096371E+03 -0.13591263325E+03  0.18115781961E+03  0.47000000000E+01 0.  1.
<mgrwt>
<rscale>  2 0.20813312E+03</rscale>
<asrwt>0</asrwt>
<pdfrwt beam="1">  1       21 0.17415778E-01 0.20828011E+03</pdfrwt>
<pdfrwt beam="2">  1       21 0.62498913E-01 0.20828011E+03</pdfrwt>
<totfact> 0.70317216E+04</totfact>
</mgrwt>
</event>
<event>
12    1  0.2736842E-001  0.2318492E+03  0.7546771E-02  0.1125416E+00
         21   -1    0    0  502  503  0.00000000000E+00  0.00000000000E+00  0.10099552361E+04  0.10099552361E+04  0.00000000000E+00 0.  1.
         21   -1    0    0  503  504 -0.00000000000E+00 -0.00000000000E+00 -0.58076569853E+02  0.58076569853E+02  0.00000000000E+00 0.  1.
         -6    2    1    2    0  504  0.13384089402E+03 -0.75628336772E+02  0.32047780806E+03  0.39555036663E+03  0.17355413232E+03 0.  0.
        -24    2    3    3    0    0  0.37640293201E+02 -0.24906520406E+02  0.68527909751E+02  0.12109071657E+03  0.89049204338E+02 0.  0.
          6    2    1    2  502    0 -0.13384089402E+03  0.75628336772E+02  0.63140085818E+03  0.67248143932E+03  0.17300639376E+03 0.  0.
         24    2    5    5    0    0 -0.67170691441E+02  0.57866395717E+02  0.18256773151E+03  0.21835186744E+03  0.80536574810E+02 0.  0.
          4    1    6    6  501    0  0.92196662168E+01  0.40202391934E+02  0.58251135127E+02  0.71375270969E+02  0.00000000000E+00 0. -1.
         -3    1    6    6    0  501 -0.76390357658E+02  0.17664003784E+02  0.12431659638E+03  0.14697659647E+03  0.00000000000E+00 0.  1.
          5    1    5    5  502    0 -0.66670202576E+02  0.17761941054E+02  0.44883312667E+03  0.45412957188E+03  0.47000000000E+01 0. -1.
         13    1    4    4    0    0  0.21791773186E+02  0.26101599673E+02  0.57116881913E+02  0.66471896946E+02  0.00000000000E+00 0. -1.
        -14    1    4    4    0    0  0.15848520015E+02 -0.51008120079E+02  0.11411027838E+02  0.54618819623E+02  0.00000000000E+00 0.  1.
         -5    1    3    3    0  504  0.96200600816E+02 -0.50721816366E+02  0.25194989831E+03  0.27445965006E+03  0.47000000000E+01 0.  1.
<mgrwt>
<rscale>  2 0.23174673E+03</rscale>
<asrwt>0</asrwt>
<pdfrwt beam="1">  1       21 0.15537772E+00 0.23184923E+03</pdfrwt>
<pdfrwt beam="2">  1       21 0.89348576E-02 0.23184923E+03</pdfrwt>
<totfact> 0.26297993E+04</totfact>
</mgrwt>
</event>
<event>
12    1  0.2736842E-001  0.1755938E+03  0.7546771E-02  0.1172163E+00
         21   -1    0    0  502  503  0.00000000000E+00  0.00000000000E+00  0.89555153807E+02  0.89555153807E+02  0.00000000000E+00 0. -1.
         21   -1    0    0  503  504 -0.00000000000E+00 -0.00000000000E+00 -0.35608202959E+03  0.35608202959E+03  0.00000000000E+00 0. -1.
         -6    2    1    2    0  504 -0.12360087799E+02 -0.27531167848E+02 -0.17419684719E+03  0.24734133554E+03  0.17298109065E+03 0.  0.
        -24    2    3    3    0    0 -0.32492009056E+02  0.56391289842E+02 -0.84328592062E+02  0.12265506349E+03  0.60804974609E+02 0.  0.
          6    2    1    2  502    0  0.12360087799E+02  0.27531167848E+02 -0.92330028593E+02  0.19829584786E+03  0.17287472957E+03 0.  0.
         24    2    5    5    0    0  0.37209381849E+02  0.12364592793E+02  0.13860878022E+02  0.88086451430E+02  0.77650999566E+02 0.  0.
          2    1    6    6  501    0  0.61356724779E+02  0.11923287917E+02  0.65176494691E+01  0.62843394442E+02  0.00000000000E+00 0. -1.
         -1    1    6    6    0  501 -0.24147342930E+02  0.44130487678E+00  0.73432285525E+01  0.25243056989E+02  0.00000000000E+00 0.  1.
          5    1    5    5  502    0 -0.24849294049E+02  0.15166575054E+02 -0.10619090661E+03  0.11020939643E+03  0.47000000000E+01 0. -1.
         13    1    4    4    0    0 -0.21315017342E+02 -0.67758419122E+01 -0.10077745806E+02  0.24531672557E+02  0.00000000000E+00 0. -1.
        -14    1    4    4    0    0 -0.11176991714E+02  0.63167131754E+02 -0.74250846256E+02  0.98123390930E+02  0.00000000000E+00 0.  1.
         -5    1    3    3    0  504  0.20131921256E+02 -0.83922457690E+02 -0.89868255131E+02  0.12468627205E+03  0.47000000000E+01 0.  1.
<mgrwt>
<rscale>  2 0.17556763E+03</rscale>
<asrwt>0</asrwt>
<pdfrwt beam="1">  1       21 0.13777716E-01 0.17559383E+03</pdfrwt>
<pdfrwt beam="2">  1       21 0.54781851E-01 0.17559383E+03</pdfrwt>
<totfact> 0.14479761E+05</totfact>
</mgrwt>
</event>
<event>
12    1  0.2736842E-001  0.3988876E+03  0.7546771E-02  0.1044183E+00
         21   -1    0    0  502  503  0.00000000000E+00  0.00000000000E+00  0.14890107500E+03  0.14890107500E+03  0.00000000000E+00 0.  1.
         21   -1    0    0  503  504 -0.00000000000E+00 -0.00000000000E+00 -0.21999956384E+04  0.21999956384E+04  0.00000000000E+00 0.  1.
         -6    2    1    2    0  504 -0.34881321864E+03 -0.84499433674E+02 -0.18678633909E+04  0.19099377728E+04  0.17360251540E+03 0.  0.
        -24    2    3    3    0    0 -0.17215729462E+03  0.18463305403E+02 -0.10260029779E+04  0.10435892945E+04  0.80109156921E+02 0.  0.
          6    2    1    2  502    0  0.34881321864E+03  0.84499433674E+02 -0.18323117253E+03  0.43895894056E+03  0.17407031086E+03 0.  0.
         24    2    5    5    0    0  0.20250913172E+03  0.66622963340E+02 -0.35959920631E+02  0.23054741095E+03  0.80065130530E+02 0.  0.
          4    1    6    6  501    0  0.99591931128E+02  0.57447836245E+02  0.13919392536E+02  0.11581259052E+03  0.00000000000E+00 0. -1.
         -3    1    6    6    0  501  0.10291720060E+03  0.91751270949E+01 -0.49879313167E+02  0.11473482042E+03  0.00000000000E+00 0.  1.
          5    1    5    5  502    0  0.14630408691E+03  0.17876470334E+02 -0.14727125190E+03  0.20841152961E+03  0.47000000000E+01 0. -1.
         11    1    4    4    0    0 -0.31709058691E+02  0.30722484741E+02 -0.36888779088E+03  0.37152057511E+03  0.00000000000E+00 0. -1.
        -12    1    4    4    0    0 -0.14044823593E+03 -0.12259179338E+02 -0.65711518706E+03  0.67206871935E+03  0.00000000000E+00 0.  1.
         -5    1    3    3    0  504 -0.17665592401E+03 -0.10296273908E+03 -0.84186041293E+03  0.86634847837E+03  0.47000000000E+01 0.  1.
<mgrwt>
<rscale>  2 0.39883657E+03</rscale>
<asrwt>0</asrwt>
<pdfrwt beam="1">  1       21 0.22907858E-01 0.39888756E+03</pdfrwt>
<pdfrwt beam="2">  1       21 0.33846086E+00 0.39888756E+03</pdfrwt>
<totfact> 0.29471503E+02</totfact>
</mgrwt>
</event>
<event>
12    1  0.2736842E-001  0.2629489E+03  0.7546771E-02  0.1105444E+00
         21   -1    0    0  502  503  0.00000000000E+00  0.00000000000E+00  0.55064885066E+02  0.55064885066E+02  0.00000000000E+00 0. -1.
         21   -1    0    0  503  504 -0.00000000000E+00 -0.00000000000E+00 -0.13728886278E+04  0.13728886278E+04  0.00000000000E+00 0. -1.
         -6    2    1    2    0  504  0.12079407778E+03  0.15567579711E+03 -0.86879410629E+03  0.90759812251E+03  0.17350789560E+03 0.  0.
        -24    2    3    3    0    0  0.92892465135E+02  0.28467141191E+02 -0.52007623846E+03  0.53532566386E+03  0.81577474644E+02 0.  0.
          6    2    1    2  502    0 -0.12079407778E+03 -0.15567579711E+03 -0.44902963641E+03  0.52035539032E+03  0.17411477487E+03 0.  0.
         24    2    5    5    0    0 -0.32704170128E+02 -0.12113801892E+03 -0.36336813519E+03  0.39263431632E+03  0.79883179142E+02 0.  0.
          4    1    6    6  501    0 -0.38076787286E+02 -0.13138034328E+03 -0.34192725666E+03  0.36827284067E+03  0.00000000000E+00 0. -1.
         -3    1    6    6    0  501  0.53726171588E+01  0.10242324365E+02 -0.21440878534E+02  0.24361475650E+02  0.00000000000E+00 0.  1.
          5    1    5    5  502    0 -0.88089907650E+02 -0.34537778189E+02 -0.85661501220E+02  0.12772107400E+03  0.47000000000E+01 0. -1.
         13    1    4    4    0    0  0.38424187988E+02  0.49831767330E+02 -0.34612272514E+03  0.35179619685E+03  0.00000000000E+00 0. -1.
        -14    1    4    4    0    0  0.54468277147E+02 -0.21364626139E+02 -0.17395351333E+03  0.18352946702E+03  0.00000000000E+00 0.  1.
         -5    1    3    3    0  504  0.27901612643E+02  0.12720865592E+03 -0.34871786782E+03  0.37227245865E+03  0.47000000000E+01 0.  1.
<mgrwt>
<rscale>  2 0.26284847E+03</rscale>
<asrwt>0</asrwt>
<pdfrwt beam="1">  1       21 0.84715212E-02 0.26294889E+03</pdfrwt>
<pdfrwt beam="2">  1       21 0.21121362E+00 0.26294889E+03</pdfrwt>
<totfact> 0.11756532E+04</totfact>
</mgrwt>
</event>
<event>
12    1  0.2736842E-001  0.2133444E+03  0.7546771E-02  0.1139134E+00
         21   -1    0    0  502  503  0.00000000000E+00  0.00000000000E+00  0.19611518246E+02  0.19611518246E+02  0.00000000000E+00 0. -1.
         21   -1    0    0  503  504 -0.00000000000E+00 -0.00000000000E+00 -0.24663149967E+04  0.24663149967E+04  0.00000000000E+00 0. -1.
         -6    2    1    2    0  504  0.10882020652E+03 -0.57407111181E+02 -0.15386306165E+04  0.15533512241E+04  0.17429411251E+03 0.  0.
        -24    2    3    3    0    0  0.17089284577E+02  0.20601970991E+02 -0.42646049286E+03  0.43467144291E+03  0.79713402002E+02 0.  0.
          6    2    1    2  502    0 -0.10882020652E+03  0.57407111181E+02 -0.90807286194E+03  0.93257529082E+03  0.17309805515E+03 0.  0.
         24    2    5    5    0    0 -0.10028616746E+03  0.10073275197E+03 -0.77353269677E+03  0.79089576860E+03  0.83419908373E+02 0.  0.
          2    1    6    6  501    0 -0.92760138499E+02  0.93430503848E+02 -0.49633787850E+03  0.51350266988E+03  0.00000000000E+00 0. -1.
         -1    1    6    6    0  501 -0.75260289625E+01  0.73022481236E+01 -0.27719481828E+03  0.27739309872E+03  0.00000000000E+00 0.  1.
          5    1    5    5  502    0 -0.85340390597E+01 -0.43325640791E+02 -0.13454016516E+03  0.14167952221E+03  0.47000000000E+01 0. -1.
         11    1    4    4    0    0  0.98257215108E+01 -0.11366215935E+02 -0.36238656576E+03  0.36269788904E+03  0.00000000000E+00 0. -1.
        -12    1    4    4    0    0  0.72635630666E+01  0.31968186926E+02 -0.64073927093E+02  0.71973553871E+02  0.00000000000E+00 0.  1.
         -5    1    3    3    0  504  0.91730921944E+02 -0.78009082172E+02 -0.11121701236E+04  0.11186797812E+04  0.47000000000E+01 0.  1.
<mgrwt>
<rscale>  2 0.21310002E+03</rscale>
<asrwt>0</asrwt>
<pdfrwt beam="1">  1       21 0.30171570E-02 0.21334444E+03</pdfrwt>
<pdfrwt beam="2">  1       21 0.37943303E+00 0.21334444E+03</pdfrwt>
<totfact> 0.71230654E+03</totfact>
</mgrwt>
</event>
<event>
12    1  0.2736842E-001  0.1805888E+03  0.7546771E-02  0.1167777E+00
         21   -1    0    0  502  503  0.00000000000E+00  0.00000000000E+00  0.48147808214E+03  0.48147808214E+03  0.00000000000E+00 0.  1.
         21   -1    0    0  503  504 -0.00000000000E+00 -0.00000000000E+00 -0.83402070116E+02  0.83402070116E+02  0.00000000000E+00 0.  1.
         -6    2    1    2    0  504  0.25633577109E+02 -0.35784941249E+02  0.72404175375E+02  0.19248995259E+03  0.17283626627E+03 0.  0.
        -24    2    3    3    0    0 -0.17700130769E+02  0.29235689333E+02  0.73799737783E+02  0.11419863612E+03  0.80167992581E+02 0.  0.
          6    2    1    2  502    0 -0.25633577109E+02  0.35784941249E+02  0.32567183665E+03  0.37239019967E+03  0.17514186629E+03 0.  0.
         24    2    5    5    0    0 -0.32889551676E+02  0.44226217134E+02  0.79550134161E+02  0.12597208601E+03  0.80641563207E+02 0.  0.
          2    1    6    6  501    0 -0.67663353759E+01  0.54848124003E+02  0.17754207879E+02  0.58045774165E+02  0.00000000000E+00 0. -1.
         -1    1    6    6    0  501 -0.26123216300E+02 -0.10621906869E+02  0.61795926282E+02  0.67926311842E+02  0.00000000000E+00 0.  1.
          5    1    5    5  502    0  0.72559745670E+01 -0.84412758847E+01  0.24612170249E+03  0.24641811366E+03  0.47000000000E+01 0. -1.
         13    1    4    4    0    0 -0.33869620704E+02 -0.68358445305E+01  0.50847546747E+01  0.34924700531E+02  0.00000000000E+00 0. -1.
        -14    1    4    4    0    0  0.16169489935E+02  0.36071533864E+02  0.68714983108E+02  0.79273935588E+02  0.00000000000E+00 0.  1.
         -5    1    3    3    0  504  0.43333707878E+02 -0.65020630583E+02 -0.13955624077E+01  0.78291316468E+02  0.47000000000E+01 0.  1.
<mgrwt>
<rscale>  2 0.18002740E+03</rscale>
<asrwt>0</asrwt>
<pdfrwt beam="1">  1       21 0.74073549E-01 0.18058880E+03</pdfrwt>
<pdfrwt beam="2">  1       21 0.12831088E-01 0.18058880E+03</pdfrwt>
<totfact> 0.85489265E+04</totfact>
</mgrwt>
</event>
<event>
12    1  0.2736842E-001  0.1773529E+03  0.7546771E-02  0.1171535E+00
         21   -1    0    0  502  503  0.00000000000E+00  0.00000000000E+00  0.93313922742E+03  0.93313922742E+03  0.00000000000E+00 0. -1.
         21   -1    0    0  503  504 -0.00000000000E+00 -0.00000000000E+00 -0.92136604572E+02  0.92136604572E+02  0.00000000000E+00 0.  1.
         -6    2    1    2    0  504  0.22415916666E+02 -0.27439178383E+02  0.73101767442E+01  0.17292781182E+03  0.16910117559E+03 0.  0.
        -24    2    3    3    0    0 -0.19295568467E+02 -0.56965630662E+01  0.59677098882E+02  0.10238014108E+03  0.80719064437E+02 0.  0.
          6    2    1    2  502    0 -0.22415916666E+02  0.27439178383E+02  0.83369244610E+03  0.85234802017E+03  0.17377764807E+03 0.  0.
         24    2    5    5    0    0  0.22034123131E+01 -0.74425620931E+00  0.16758987642E+03  0.18517852095E+03  0.78735690772E+02 0.  0.
          2    1    6    6  501    0 -0.14340664414E+02 -0.36263564336E+02  0.94914336071E+02  0.10261302035E+03  0.00000000000E+00 0. -1.
         -1    1    6    6    0  501  0.16544076728E+02  0.35519308127E+02  0.72675540347E+02  0.82565500600E+02  0.00000000000E+00 0.  1.
          5    1    5    5  502    0 -0.24619328979E+02  0.28183434592E+02  0.66610256969E+03  0.66716949922E+03  0.47000000000E+01 0. -1.
         11    1    4    4    0    0  0.24502130094E+02 -0.39742578959E+01 -0.39318464740E+01  0.25131822888E+02  0.00000000000E+00 0. -1.
        -12    1    4    4    0    0 -0.43797698561E+02 -0.17223051703E+01  0.63608945355E+02  0.77248318193E+02  0.00000000000E+00 0.  1.
         -5    1    3    3    0  504  0.41711485133E+02 -0.21742615317E+02 -0.52366922137E+02  0.70547670741E+02  0.47000000000E+01 0.  1.
<mgrwt>
<rscale>  2 0.17619673E+03</rscale>
<asrwt>0</asrwt>
<pdfrwt beam="1">  1       21 0.14355987E+00 0.17735290E+03</pdfrwt>
<pdfrwt beam="2">  1       21 0.14174863E-01 0.17735290E+03</pdfrwt>
<totfact> 0.14735712E+04</totfact>
</mgrwt>
</event>
<event>
12    1  0.2736842E-001  0.2497477E+03  0.7546771E-02  0.1113528E+00
         21   -1    0    0  502  503  0.00000000000E+00  0.00000000000E+00  0.39928032943E+03  0.39928032943E+03  0.00000000000E+00 0. -1.
         21   -1    0    0  503  504 -0.00000000000E+00 -0.00000000000E+00 -0.17853705505E+03  0.17853705505E+03  0.00000000000E+00 0. -1.
         -6    2    1    2    0  504 -0.10228833807E+03 -0.14874649403E+03  0.75673893845E+01  0.24946109654E+03  0.17200334216E+03 0.  0.
        -24    2    3    3    0    0 -0.11974959230E+03 -0.61041945872E+02  0.26251620808E+02  0.15798337428E+03  0.78762395467E+02 0.  0.
          6    2    1    2  502    0  0.10228833807E+03  0.14874649403E+03  0.21317588500E+03  0.32835628795E+03  0.17258467574E+03 0.  0.
         24    2    5    5    0    0  0.13777696773E+02  0.11322258220E+03  0.17933501632E+03  0.22704796486E+03  0.79878358892E+02 0.  0.
          4    1    6    6  501    0  0.35500823831E+02  0.10775348925E+03  0.12801813349E+03  0.17105486091E+03  0.00000000000E+00 0. -1.
         -3    1    6    6    0  501 -0.21723127058E+02  0.54690929557E+01  0.51316882828E+02  0.55993103952E+02  0.00000000000E+00 0.  1.
          5    1    5    5  502    0  0.88510641295E+02  0.35523911825E+02  0.33840868676E+02  0.10130832309E+03  0.47000000000E+01 0. -1.
         13    1    4    4    0    0 -0.86971388337E+00 -0.23174427035E+02 -0.13752190457E+02  0.26961699001E+02  0.00000000000E+00 0. -1.
        -14    1    4    4    0    0 -0.11887987842E+03 -0.37867518837E+02  0.40003811265E+02  0.13102167528E+03  0.00000000000E+00 0.  1.
         -5    1    3    3    0  504  0.17461254236E+02 -0.87704548155E+02 -0.18684231423E+02  0.91477722263E+02  0.47000000000E+01 0.  1.
<mgrwt>
<rscale>  2 0.24964726E+03</rscale>
<asrwt>0</asrwt>
<pdfrwt beam="1">  1       21 0.61427743E-01 0.24974766E+03</pdfrwt>
<pdfrwt beam="2">  1       21 0.27467239E-01 0.24974766E+03</pdfrwt>
<totfact> 0.30267326E+04</totfact>
</mgrwt>
</event>
<event>
12    1  0.2736842E-001  0.1922550E+03  0.7546771E-02  0.1156714E+00
         21   -1    0    0  502  503  0.00000000000E+00  0.00000000000E+00  0.40623313189E+03  0.40623313189E+03  0.00000000000E+00 0.  1.
         21   -1    0    0  503  504 -0.00000000000E+00 -0.00000000000E+00 -0.12599771214E+03  0.12599771214E+03  0.00000000000E+00 0.  1.
         -6    2    1    2    0  504 -0.67695115554E+02 -0.45827862794E+02 -0.98769300578E+00  0.19225755495E+03  0.17400910959E+03 0.  0.
        -24    2    3    3    0    0 -0.92284194383E+01 -0.12724672605E+02 -0.54920824482E+02  0.10597286091E+03  0.89257320538E+02 0.  0.
          6    2    1    2  502    0  0.67695115554E+02  0.45827862794E+02  0.28122311276E+03  0.33997328907E+03  0.17266318790E+03 0.  0.
         24    2    5    5    0    0 -0.38405664385E+01 -0.32800247234E+01  0.22283692109E+03  0.23528338606E+03  0.75342350926E+02 0.  0.
          4    1    6    6  501    0 -0.27872021221E+02  0.20900752563E+02  0.64389868297E+02  0.73210287283E+02  0.00000000000E+00 0. -1.
         -3    1    6    6    0  501  0.24031454783E+02 -0.24180777287E+02  0.15844705279E+03  0.16207309878E+03  0.00000000000E+00 0.  1.
          5    1    5    5  502    0  0.71535681992E+02  0.49107887518E+02  0.58386191667E+02  0.10468990301E+03  0.47000000000E+01 0. -1.
         13    1    4    4    0    0  0.32713839759E+02 -0.30774584166E+02 -0.25379581398E+02  0.51588695413E+02  0.00000000000E+00 0. -1.
        -14    1    4    4    0    0 -0.41942259198E+02  0.18049911562E+02 -0.29541243084E+02  0.54384165498E+02  0.00000000000E+00 0.  1.
         -5    1    3    3    0  504 -0.58466696115E+02 -0.33103190190E+02  0.53933131476E+02  0.86284694044E+02  0.47000000000E+01 0.  1.
<mgrwt>
<rscale>  2 0.19194996E+03</rscale>
<asrwt>0</asrwt>
<pdfrwt beam="1">  1       21 0.62497404E-01 0.19225502E+03</pdfrwt>
<pdfrwt beam="2">  1       21 0.19384264E-01 0.19225502E+03</pdfrwt>
<totfact> 0.58085710E+04</totfact>
</mgrwt>
</event>
<event>
12    1  0.2736842E-001  0.2045746E+03  0.7546771E-02  0.1145976E+00
         21   -1    0    0  502  503  0.00000000000E+00  0.00000000000E+00  0.91406934479E+03  0.91406934479E+03  0.00000000000E+00 0. -1.
         21   -1    0    0  503  504 -0.00000000000E+00 -0.00000000000E+00 -0.72922305916E+02  0.72922305916E+02  0.00000000000E+00 0. -1.
         -6    2    1    2    0  504 -0.85150414314E+02  0.67415974491E+02  0.11940731745E+03  0.23687313678E+03  0.17336455460E+03 0.  0.
        -24    2    3    3    0    0 -0.97176779347E+02 -0.43413523199E+01  0.45791972338E+02  0.13326301931E+03  0.78739785366E+02 0.  0.
          6    2    1    2  502    0  0.85150414314E+02 -0.67415974491E+02  0.72173972143E+03  0.75011851393E+03  0.17313016138E+03 0.  0.
         24    2    5    5    0    0  0.12632561346E+03 -0.57062531989E+02  0.61873553255E+03  0.63860822865E+03  0.75977083981E+02 0.  0.
          2    1    6    6  501    0  0.12338920867E+03 -0.68451000190E+02  0.50744791891E+03  0.52670088917E+03  0.00000000000E+00 0. -1.
         -1    1    6    6    0  501  0.29364047880E+01  0.11388468201E+02  0.11128761364E+03  0.11190733948E+03  0.00000000000E+00 0.  1.
          5    1    5    5  502    0 -0.41175199145E+02 -0.10353442501E+02  0.10300418888E+03  0.11151028527E+03  0.47000000000E+01 0. -1.
         13    1    4    4    0    0 -0.44612744389E+02 -0.32392155346E+02  0.48771047093E+02  0.73608177022E+02  0.00000000000E+00 0. -1.
        -14    1    4    4    0    0 -0.52564034958E+02  0.28050803026E+02 -0.29790747548E+01  0.59654842284E+02  0.00000000000E+00 0.  1.
         -5    1    3    3    0  504  0.12026365033E+02  0.71757326811E+02  0.73615345109E+02  0.10361011747E+03  0.47000000000E+01 0.  1.
<mgrwt>
<rscale>  2 0.20452495E+03</rscale>
<asrwt>0</asrwt>
<pdfrwt beam="1">  1       21 0.14062605E+00 0.20457462E+03</pdfrwt>
<pdfrwt beam="2">  1       21 0.11218817E-01 0.20457462E+03</pdfrwt>
<totfact> 0.23228416E+04</totfact>
</mgrwt>
</event>
<event>
12    1  0.2736842E-001  0.1835979E+03  0.7546771E-02  0.1164523E+00
         21   -1    0    0  502  503  0.00000000000E+00  0.00000000000E+00  0.29561773675E+03  0.29561773675E+03  0.00000000000E+00 0.  1.
         21   -1    0    0  503  504 -0.00000000000E+00 -0.00000000000E+00 -0.24781052855E+03  0.24781052855E+03  0.00000000000E+00 0.  1.
         -6    2    1    2    0  504  0.43943872342E+02 -0.41430133010E+02 -0.17606726597E+03  0.25389768509E+03  0.17267551219E+03 0.  0.
        -24    2    3    3    0    0 -0.36138296234E+02 -0.37643725506E+02 -0.13034530171E+03  0.16148513929E+03  0.79777979470E+02 0.  0.
          6    2    1    2  502    0 -0.43943872342E+02  0.41430133010E+02  0.22387447416E+03  0.28953058021E+03  0.17338009360E+03 0.  0.
         24    2    5    5    0    0 -0.46835845835E+02  0.63907726867E+02  0.23686551576E+03  0.26298886026E+03  0.82341205097E+02 0.  0.
          4    1    6    6  501    0  0.77648396392E+00  0.66523162335E+02  0.14212753445E+03  0.15692727648E+03  0.00000000000E+00 0. -1.
         -3    1    6    6    0  501 -0.47612329799E+02 -0.26154354679E+01  0.94737981308E+02  0.10606158378E+03  0.00000000000E+00 0.  1.
          5    1    5    5  502    0  0.28919734931E+01 -0.22477593858E+02 -0.12991041592E+02  0.26541719951E+02  0.47000000000E+01 0. -1.
         11    1    4    4    0    0 -0.25519670679E+02 -0.46016039650E+02 -0.30686171417E+02  0.60912811566E+02  0.00000000000E+00 0. -1.
        -12    1    4    4    0    0 -0.10618625555E+02  0.83723141438E+01 -0.99659130290E+02  0.10057232772E+03  0.00000000000E+00 0.  1.
         -5    1    3    3    0  504  0.80082168576E+02 -0.37864075036E+01 -0.45721964259E+02  0.92412545800E+02  0.47000000000E+01 0.  1.
<mgrwt>
<rscale>  2 0.18343133E+03</rscale>
<asrwt>0</asrwt>
<pdfrwt beam="1">  1       21 0.45479652E-01 0.18359787E+03</pdfrwt>
<pdfrwt beam="2">  1       21 0.38124697E-01 0.18359787E+03</pdfrwt>
<totfact> 0.30911334E+04</totfact>
</mgrwt>
</event>
<event>
12    1  0.2736842E-001  0.2628465E+03  0.7546771E-02  0.1106065E+00
         21   -1    0    0  502  503  0.00000000000E+00  0.00000000000E+00  0.99009939234E+02  0.99009939234E+02  0.00000000000E+00 0. -1.
         21   -1    0    0  503  504 -0.00000000000E+00 -0.00000000000E+00 -0.78423330160E+03  0.78423330160E+03  0.00000000000E+00 0. -1.
         -6    2    1    2    0  504 -0.17309188576E+03  0.85132805098E+02 -0.50065108426E+03  0.56545538784E+03  0.17854941067E+03 0.  0.
        -24    2    3    3    0    0 -0.15293798295E+03  0.89096288206E+02 -0.26392514325E+03  0.32779354795E+03  0.80398716612E+02 0.  0.
          6    2    1    2  502    0  0.17309188576E+03 -0.85132805098E+02 -0.18457227811E+03  0.31778785300E+03  0.17237690752E+03 0.  0.
         24    2    5    5    0    0  0.27416927152E+02 -0.71560580399E+02 -0.11119502280E+03  0.15404503500E+03  0.74114338366E+02 0.  0.
          4    1    6    6  501    0  0.21061357335E+02 -0.83250720778E+02 -0.70109331075E+02  0.11085838528E+03  0.00000000000E+00 0. -1.
         -3    1    6    6    0  501  0.63555698171E+01  0.11690140379E+02 -0.41085691721E+02  0.43186649720E+02  0.00000000000E+00 0.  1.
          5    1    5    5  502    0  0.14567495861E+03 -0.13572224699E+02 -0.73377255314E+02  0.16374281800E+03  0.47000000000E+01 0. -1.
         11    1    4    4    0    0 -0.12017380696E+03  0.70266393958E+02 -0.25247019442E+03  0.28830592965E+03  0.00000000000E+00 0. -1.
        -12    1    4    4    0    0 -0.32764175998E+02  0.18829894248E+02 -0.11454948828E+02  0.39487618298E+02  0.00000000000E+00 0.  1.
         -5    1    3    3    0  504 -0.20153902806E+02 -0.39634831081E+01 -0.23672594101E+03  0.23766183989E+03  0.47000000000E+01 0.  1.
<mgrwt>
<rscale>  2 0.26180198E+03</rscale>
<asrwt>0</asrwt>
<pdfrwt beam="1">  1       21 0.15232298E-01 0.26284651E+03</pdfrwt>
<pdfrwt beam="2">  1       21 0.12065128E+00 0.26284651E+03</pdfrwt>
<totfact> 0.19097536E+04</totfact>
</mgrwt>
</event>
<event>
12    1  0.2736842E-001  0.3702123E+03  0.7546771E-02  0.1054631E+00
         21   -1    0    0  502  503  0.00000000000E+00  0.00000000000E+00  0.35177516038E+03  0.35177516038E+03  0.00000000000E+00 0.  1.
         21   -1    0    0  503  504 -0.00000000000E+00 -0.00000000000E+00 -0.40500736442E+03  0.40500736442E+03  0.00000000000E+00 0. -1.
         -6    2    1    2    0  504 -0.30999734870E+03 -0.10499501990E+03  0.47658721458E+02  0.37306888096E+03  0.17258831307E+03 0.  0.
        -24    2    3    3    0    0 -0.28066046700E+03 -0.70095123894E+02 -0.84462688023E+01  0.30062224335E+03  0.81355820988E+02 0.  0.
          6    2    1    2  502    0  0.30999734870E+03  0.10499501990E+03 -0.10089092550E+03  0.38371364384E+03  0.17301696802E+03 0.  0.
         24    2    5    5    0    0  0.18668414093E+03  0.12435524146E+03 -0.26126509617E+02  0.23813626487E+03  0.75571764473E+02 0.  0.
          2    1    6    6  501    0  0.15616372366E+02  0.24702183477E+02  0.19289882328E+02  0.35016689087E+02  0.00000000000E+00 0. -1.
         -1    1    6    6    0  501  0.17106776857E+03  0.99653057987E+02 -0.45416391944E+02  0.20311957578E+03  0.00000000000E+00 0.  1.
          5    1    5    5  502    0  0.12331320776E+03 -0.19360221560E+02 -0.74764415881E+02  0.14557737897E+03  0.47000000000E+01 0. -1.
         11    1    4    4    0    0 -0.28071087882E+03 -0.78983872338E+02 -0.84438661208E+01  0.29173335163E+03  0.00000000000E+00 0. -1.
        -12    1    4    4    0    0  0.50411817437E-01  0.88887484448E+01 -0.24026815237E-02  0.88888917217E+01  0.00000000000E+00 0.  1.
         -5    1    3    3    0  504 -0.29336881694E+02 -0.34899896010E+02  0.56104990260E+02  0.72446637611E+02  0.47000000000E+01 0.  1.
<mgrwt>
<rscale>  2 0.37016230E+03</rscale>
<asrwt>0</asrwt>
<pdfrwt beam="1">  1       21 0.54119255E-01 0.37021235E+03</pdfrwt>
<pdfrwt beam="2">  1       21 0.62308826E-01 0.37021235E+03</pdfrwt>
<totfact> 0.70192187E+03</totfact>
</mgrwt>
</event>
<event>
12    1  0.2736842E-001  0.1968995E+03  0.7546771E-02  0.1152801E+00
         21   -1    0    0  502  503  0.00000000000E+00  0.00000000000E+00  0.21162621759E+03  0.21162621759E+03  0.00000000000E+00 0.  1.
         21   -1    0    0  503  504 -0.00000000000E+00 -0.00000000000E+00 -0.18320829546E+03  0.18320829546E+03  0.00000000000E+00 0. -1.
         -6    2    1    2    0  504  0.16846978773E+02  0.90804575428E+02  0.33908016066E+02  0.19979780301E+03  0.17389685714E+03 0.  0.
        -24    2    3    3    0    0 -0.39092510180E+02  0.87859048751E+02 -0.13303037052E+02  0.12638883838E+03  0.80930407593E+02 0.  0.
          6    2    1    2  502    0 -0.16846978773E+02 -0.90804575428E+02 -0.54900939342E+01  0.19503671004E+03  0.17169707487E+03 0.  0.
         24    2    5    5    0    0  0.26715095228E+02 -0.37070407408E+02 -0.58933941020E+02  0.10749614861E+03  0.77422872226E+02 0.  0.
          2    1    6    6  501    0  0.36270092050E+02 -0.39712975167E+02 -0.72761875096E+02  0.90481658039E+02  0.00000000000E+00 0. -1.
         -1    1    6    6    0  501 -0.95549968220E+01  0.26425677590E+01  0.13827934076E+02  0.17014490573E+02  0.00000000000E+00 0.  1.
          5    1    5    5  502    0 -0.43562074001E+02 -0.53734168020E+02  0.53443847086E+02  0.87540561429E+02  0.47000000000E+01 0. -1.
         13    1    4    4    0    0 -0.28210357661E+02  0.55902581658E+02 -0.47302975594E+02  0.78476075433E+02  0.00000000000E+00 0. -1.
        -14    1    4    4    0    0 -0.10882152520E+02  0.31956467094E+02  0.33999938542E+02  0.47912762949E+02  0.00000000000E+00 0.  1.
         -5    1    3    3    0  504  0.55939488953E+02  0.29455266769E+01  0.47211053118E+02  0.73408964631E+02  0.47000000000E+01 0.  1.
<mgrwt>
<rscale>  2 0.19641267E+03</rscale>
<asrwt>0</asrwt>
<pdfrwt beam="1">  1       21 0.32557880E-01 0.19689949E+03</pdfrwt>
<pdfrwt beam="2">  1       21 0.28185891E-01 0.19689949E+03</pdfrwt>
<totfact> 0.10902323E+05</totfact>
</mgrwt>
</event>
<event>
12    1  0.2736842E-001  0.1743621E+03  0.7546771E-02  0.1173552E+00
         21   -1    0    0  502  503  0.00000000000E+00  0.00000000000E+00  0.37944027638E+03  0.37944027638E+03  0.00000000000E+00 0.  1.
         21   -1    0    0  503  504 -0.00000000000E+00 -0.00000000000E+00 -0.91293123075E+02  0.91293123075E+02  0.00000000000E+00 0.  1.
         -6    2    1    2    0  504  0.63338539020E+01 -0.11690554858E+02  0.22732928161E+03  0.28606895458E+03  0.17314750278E+03 0.  0.
        -24    2    3    3    0    0  0.77492568858E+01  0.59358185775E+02  0.15760818732E+03  0.18640427729E+03  0.79515839168E+02 0.  0.
          6    2    1    2  502    0 -0.63338539020E+01  0.11690554858E+02  0.60817871697E+02  0.18466444488E+03  0.17385441296E+03 0.  0.
         24    2    5    5    0    0  0.48398079023E+02  0.11470143314E+02  0.82059305590E+02  0.12576689334E+03  0.81299714552E+02 0.  0.
          4    1    6    6  501    0  0.54997085942E+02  0.23883633221E+02  0.91093665600E+02  0.10905578073E+03  0.00000000000E+00 0. -1.
         -3    1    6    6    0  501 -0.65990069181E+01 -0.12413489907E+02 -0.90343600099E+01  0.16711112613E+02  0.00000000000E+00 0.  1.
          5    1    5    5  502    0 -0.54731932925E+02  0.22041154447E+00 -0.21241433893E+02  0.58897551535E+02  0.47000000000E+01 0. -1.
         11    1    4    4    0    0  0.26559976829E+02 -0.40939029409E+01  0.19327310255E+02  0.33101923391E+02  0.00000000000E+00 0. -1.
        -12    1    4    4    0    0 -0.18810719944E+02  0.63452088716E+02  0.13828087707E+03  0.15330235390E+03  0.00000000000E+00 0.  1.
         -5    1    3    3    0  504 -0.14154029837E+01 -0.71048740634E+02  0.69721094284E+02  0.99664677291E+02  0.47000000000E+01 0.  1.
<mgrwt>
<rscale>  2 0.17418563E+03</rscale>
<asrwt>0</asrwt>
<pdfrwt beam="1">  1       21 0.58375426E-01 0.17436211E+03</pdfrwt>
<pdfrwt beam="2">  1       21 0.14045096E-01 0.17436211E+03</pdfrwt>
<totfact> 0.12228647E+05</totfact>
</mgrwt>
</event>
<event>
12    1  0.2736842E-001  0.2143281E+03  0.7546771E-02  0.1139298E+00
         21   -1    0    0  502  503  0.00000000000E+00  0.00000000000E+00  0.26172313513E+03  0.26172313513E+03  0.00000000000E+00 0. -1.
         21   -1    0    0  503  504 -0.00000000000E+00 -0.00000000000E+00 -0.17216318443E+03  0.17216318443E+03  0.00000000000E+00 0.  1.
         -6    2    1    2    0  504  0.96115825544E+02  0.64073673692E+02  0.26671971375E+02  0.21598127942E+03  0.18053484823E+03 0.  0.
        -24    2    3    3    0    0  0.27426346463E+02  0.10015236010E+03  0.39182929911E+02  0.13725053427E+03  0.80744705372E+02 0.  0.
          6    2    1    2  502    0 -0.96115825544E+02 -0.64073673692E+02  0.62887979322E+02  0.21790504014E+03  0.17373549147E+03 0.  0.
         24    2    5    5    0    0 -0.26605477691E+02  0.20030989201E+01  0.84798389882E+02  0.11941654118E+03  0.79735058359E+02 0.  0.
          2    1    6    6  501    0 -0.36655070475E+02  0.26441060028E+01  0.96922442355E+02  0.10365589863E+03  0.00000000000E+00 0. -1.
         -1    1    6    6    0  501  0.10049592784E+02 -0.64100708270E+00 -0.12124052473E+02  0.15760642550E+02  0.00000000000E+00 0.  1.
          5    1    5    5  502    0 -0.69510347853E+02 -0.66076772612E+02 -0.21910410560E+02  0.98488498965E+02  0.47000000000E+01 0. -1.
         13    1    4    4    0    0 -0.16850247864E+02 -0.24096462199E-01  0.19841035982E+02  0.26030715368E+02  0.00000000000E+00 0. -1.
        -14    1    4    4    0    0  0.44276594327E+02  0.10017645656E+03  0.19341893929E+02  0.11121981890E+03  0.00000000000E+00 0.  1.
         -5    1    3    3    0  504  0.68689479081E+02 -0.36078686410E+02 -0.12510958536E+02  0.78730745157E+02  0.47000000000E+01 0.  1.
<mgrwt>
<rscale>  2 0.21288987E+03</rscale>
<asrwt>0</asrwt>
<pdfrwt beam="1">  1       21 0.40265098E-01 0.21432806E+03</pdfrwt>
<pdfrwt beam="2">  1       21 0.26486644E-01 0.21432806E+03</pdfrwt>
<totfact> 0.79863765E+04</totfact>
</mgrwt>
</event>
<event>
12    1  0.2736842E-001  0.1819603E+03  0.7546771E-02  0.1165955E+00
         21   -1    0    0  502  503  0.00000000000E+00  0.00000000000E+00  0.92393978907E+03  0.92393978907E+03  0.00000000000E+00 0.  1.
         21   -1    0    0  503  504 -0.00000000000E+00 -0.00000000000E+00 -0.39696941390E+02  0.39696941390E+02  0.00000000000E+00 0.  1.
         -6    2    1    2    0  504 -0.45910465010E+02  0.33667153675E+02  0.59280826474E+03  0.62006187776E+03  0.17266686269E+03 0.  0.
        -24    2    3    3    0    0 -0.74637927758E+02 -0.28210457681E+02  0.37034586305E+03  0.38732658591E+03  0.80617465207E+02 0.  0.
          6    2    1    2  502    0  0.45910465010E+02 -0.33667153675E+02  0.29143458293E+03  0.34357485270E+03  0.17282452153E+03 0.  0.
         24    2    5    5    0    0  0.53700358621E+02 -0.81353394162E+02  0.24997629781E+03  0.27973490141E+03  0.79128770655E+02 0.  0.
          4    1    6    6  501    0  0.42276662883E+02 -0.39447327465E+02  0.21868984050E+03  0.22620489430E+03  0.00000000000E+00 0. -1.
         -3    1    6    6    0  501  0.11423695738E+02 -0.41906066697E+02  0.31286457306E+02  0.53530007108E+02  0.00000000000E+00 0.  1.
          5    1    5    5  502    0 -0.77898936108E+01  0.47686240487E+02  0.41458285128E+02  0.63839951284E+02  0.47000000000E+01 0. -1.
         11    1    4    4    0    0 -0.38498614120E+02  0.22544738725E+02  0.94087454971E+02  0.10412904358E+03  0.00000000000E+00 0. -1.
        -12    1    4    4    0    0 -0.36139313637E+02 -0.50755196406E+02  0.27625840808E+03  0.28319754234E+03  0.00000000000E+00 0.  1.
         -5    1    3    3    0  504  0.28727462748E+02  0.61877611357E+02  0.22246240170E+03  0.23273529185E+03  0.47000000000E+01 0.  1.
<mgrwt>
<rscale>  2 0.18192289E+03</rscale>
<asrwt>0</asrwt>
<pdfrwt beam="1">  1       21 0.14214457E+00 0.18196033E+03</pdfrwt>
<pdfrwt beam="2">  1       21 0.61072224E-02 0.18196033E+03</pdfrwt>
<totfact> 0.66168158E+04</totfact>
</mgrwt>
</event>
<event>
12    1  0.2736842E-001  0.2760678E+03  0.7546771E-02  0.1098245E+00
         21   -1    0    0  502  503  0.00000000000E+00  0.00000000000E+00  0.19968753793E+04  0.19968753793E+04  0.00000000000E+00 0.  1.
         21   -1    0    0  503  504 -0.00000000000E+00 -0.00000000000E+00 -0.37857970194E+02  0.37857970194E+02  0.00000000000E+00 0.  1.
         -6    2    1    2    0  504  0.16457629572E+03  0.13718385506E+03  0.10199793169E+04  0.10559555670E+04  0.16964546948E+03 0.  0.
        -24    2    3    3    0    0  0.15794819136E+03  0.11529928059E+03  0.61678438708E+03  0.65208540492E+03  0.80937259047E+02 0.  0.
          6    2    1    2  502    0 -0.16457629572E+03 -0.13718385506E+03  0.93903809220E+03  0.97877778252E+03  0.17409377284E+03 0.  0.
         24    2    5    5    0    0 -0.59571827098E+01 -0.55192276888E+02  0.36239844343E+03  0.37510732900E+03  0.79317091612E+02 0.  0.
          4    1    6    6  501    0  0.69797496924E+01 -0.24541053890E+02  0.23842246492E+02  0.34920380147E+02  0.00000000000E+00 0. -1.
         -3    1    6    6    0  501 -0.12936932402E+02 -0.30651222998E+02  0.33855619693E+03  0.34018694886E+03  0.00000000000E+00 0.  1.
          5    1    5    5  502    0 -0.15861911301E+03 -0.81991578170E+02  0.57663964878E+03  0.60367045351E+03  0.47000000000E+01 0. -1.
         13    1    4    4    0    0  0.75380439485E+01  0.57123001460E+00  0.67664909590E+00  0.75898790701E+01  0.00000000000E+00 0. -1.
        -14    1    4    4    0    0  0.15041014741E+03  0.11472805058E+03  0.61610773799E+03  0.64449552585E+03  0.00000000000E+00 0.  1.
         -5    1    3    3    0  504  0.66281043627E+01  0.21884574466E+02  0.40319492980E+03  0.40387016203E+03  0.47000000000E+01 0.  1.
<mgrwt>
<rscale>  2 0.27536927E+03</rscale>
<asrwt>0</asrwt>
<pdfrwt beam="1">  1       21 0.30721151E+00 0.27606776E+03</pdfrwt>
<pdfrwt beam="2">  1       21 0.58243047E-02 0.27606776E+03</pdfrwt>
<totfact> 0.59380053E+03</totfact>
</mgrwt>
</event>
<event>
12    1  0.2736842E-001  0.2347004E+03  0.7546771E-02  0.1123502E+00
         21   -1    0    0  502  503  0.00000000000E+00  0.00000000000E+00  0.10575522241E+04  0.10575522241E+04  0.00000000000E+00 0.  1.
         21   -1    0    0  503  504 -0.00000000000E+00 -0.00000000000E+00 -0.58678372301E+02  0.58678372301E+02  0.00000000000E+00 0. -1.
         -6    2    1    2    0  504  0.15789104179E+03 -0.14931333415E+02  0.30934076755E+03  0.38784872956E+03  0.17199535097E+03 0.  0.
        -24    2    3    3    0    0  0.13119465123E+03  0.14982291081E+02  0.30295340058E+03  0.34697807192E+03  0.10571903287E+03 0.  0.
          6    2    1    2  502    0 -0.15789104179E+03  0.14931333415E+02  0.68953308430E+03  0.72838186689E+03  0.17300793010E+03 0.  0.
         24    2    5    5    0    0 -0.93398893978E+02 -0.39363209795E+01  0.61656272829E+03  0.62907432253E+03  0.82740904779E+02 0.  0.
          4    1    6    6  501    0 -0.65201363193E+02 -0.40102173161E+02  0.44249043724E+03  0.44906256703E+03  0.00000000000E+00 0. -1.
         -3    1    6    6    0  501 -0.28197530785E+02  0.36165852182E+02  0.17407229105E+03  0.18001175550E+03  0.00000000000E+00 0.  1.
          5    1    5    5  502    0 -0.64492147815E+02  0.18867654395E+02  0.72970356003E+02  0.99307544363E+02  0.47000000000E+01 0. -1.
         11    1    4    4    0    0  0.10111811926E+03  0.52188652306E+02  0.16080410621E+03  0.19699362946E+03  0.00000000000E+00 0. -1.
        -12    1    4    4    0    0  0.30076531976E+02 -0.37206361225E+02  0.14214929436E+03  0.14998444246E+03  0.00000000000E+00 0.  1.
         -5    1    3    3    0  504  0.26696390559E+02 -0.29913624496E+02  0.63873669728E+01  0.40870657644E+02  0.47000000000E+01 0.  1.
<mgrwt>
<rscale>  2 0.23451381E+03</rscale>
<asrwt>0</asrwt>
<pdfrwt beam="1">  1       21 0.16270033E+00 0.23470038E+03</pdfrwt>
<pdfrwt beam="2">  1       21 0.90274427E-02 0.23470038E+03</pdfrwt>
<totfact> 0.22754779E+04</totfact>
</mgrwt>
</event>
<event>
12    1  0.2736842E-001  0.2103738E+03  0.7546771E-02  0.1141944E+00
         21   -1    0    0  502  503  0.00000000000E+00  0.00000000000E+00  0.46814824855E+03  0.46814824855E+03  0.00000000000E+00 0. -1.
         21   -1    0    0  503  504 -0.00000000000E+00 -0.00000000000E+00 -0.12432695147E+03  0.12432695147E+03  0.00000000000E+00 0. -1.
         -6    2    1    2    0  504 -0.11163831881E+03  0.20733329674E+02  0.22226508337E+02  0.20818321271E+03  0.17307006442E+03 0.  0.
        -24    2    3    3    0    0 -0.98580024114E+02  0.69956862952E+02  0.45279386333E+02  0.15208508019E+03  0.80421794069E+02 0.  0.
          6    2    1    2  502    0  0.11163831881E+03 -0.20733329674E+02  0.32159478874E+03  0.38429198731E+03  0.17709923257E+03 0.  0.
         24    2    5    5    0    0  0.75272706488E+02 -0.68823053117E+02  0.28503391078E+03  0.31362468895E+03  0.81936086319E+02 0.  0.
          4    1    6    6  501    0  0.89310727318E+02 -0.62535749776E+02  0.20564620122E+03  0.23276057676E+03  0.00000000000E+00 0. -1.
         -3    1    6    6    0  501 -0.14038020830E+02 -0.62873033405E+01  0.79387709555E+02  0.80864112191E+02  0.00000000000E+00 0.  1.
          5    1    5    5  502    0  0.36365612319E+02  0.48089723442E+02  0.36560877965E+02  0.70667298361E+02  0.47000000000E+01 0. -1.
         13    1    4    4    0    0 -0.10701579299E+03  0.60416047756E+02  0.21007187988E+02  0.12467469961E+03  0.00000000000E+00 0. -1.
        -14    1    4    4    0    0  0.84357688743E+01  0.95408151957E+01  0.24272198345E+02  0.27410380581E+02  0.00000000000E+00 0.  1.
         -5    1    3    3    0  504 -0.13058294693E+02 -0.49223533278E+02 -0.23052877996E+02  0.56098132523E+02  0.47000000000E+01 0.  1.
<mgrwt>
<rscale>  2 0.20952352E+03</rscale>
<asrwt>0</asrwt>
<pdfrwt beam="1">  1       21 0.72022806E-01 0.21037377E+03</pdfrwt>
<pdfrwt beam="2">  1       21 0.19127224E-01 0.21037377E+03</pdfrwt>
<totfact> 0.43252864E+04</totfact>
</mgrwt>
</event>
<event>
12    1  0.2736842E-001  0.2223254E+03  0.7546771E-02  0.1132185E+00
         21   -1    0    0  502  503  0.00000000000E+00  0.00000000000E+00  0.18248773262E+03  0.18248773262E+03  0.00000000000E+00 0.  1.
         21   -1    0    0  503  504 -0.00000000000E+00 -0.00000000000E+00 -0.35211700828E+03  0.35211700828E+03  0.00000000000E+00 0.  1.
         -6    2    1    2    0  504 -0.49154854533E+02 -0.13064146226E+03 -0.21332929484E+03  0.30802527643E+03  0.17287796708E+03 0.  0.
        -24    2    3    3    0    0  0.25577696070E+02 -0.23469089130E+02 -0.61626393299E+02  0.10775862415E+03  0.81296322471E+02 0.  0.
          6    2    1    2  502    0  0.49154854533E+02  0.13064146226E+03  0.43700019172E+02  0.22657946446E+03  0.17304672968E+03 0.  0.
         24    2    5    5    0    0  0.59100845509E+02  0.48267534325E+02  0.78001174798E+02  0.13667370259E+03  0.82297344434E+02 0.  0.
          4    1    6    6  501    0  0.59653307021E+02 -0.41392429309E+01  0.42957188871E+02  0.73627239839E+02  0.00000000000E+00 0. -1.
         -3    1    6    6    0  501 -0.55246151275E+00  0.52406777256E+02  0.35043985927E+02  0.63046462753E+02  0.00000000000E+00 0.  1.
          5    1    5    5  502    0 -0.99459909759E+01  0.82373927935E+02 -0.34301155626E+02  0.89905761868E+02  0.47000000000E+01 0. -1.
         13    1    4    4    0    0  0.40178324262E+02 -0.27122884450E+02 -0.45021596026E+01  0.48684885154E+02  0.00000000000E+00 0. -1.
        -14    1    4    4    0    0 -0.14600628192E+02  0.36537953203E+01 -0.57124233697E+02  0.59073738998E+02  0.00000000000E+00 0.  1.
         -5    1    3    3    0  504 -0.74732550602E+02 -0.10717237313E+03 -0.15170290154E+03  0.20026665228E+03  0.47000000000E+01 0.  1.
<mgrwt>
<rscale>  2 0.22229251E+03</rscale>
<asrwt>0</asrwt>
<pdfrwt beam="1">  1       21 0.28075036E-01 0.22232535E+03</pdfrwt>
<pdfrwt beam="2">  1       21 0.54171847E-01 0.22232535E+03</pdfrwt>
<totfact> 0.38459316E+04</totfact>
</mgrwt>
</event>
<event>
12    1  0.2736842E-001  0.2136801E+03  0.7546771E-02  0.1139111E+00
         21   -1    0    0  502  503  0.00000000000E+00  0.00000000000E+00  0.56712855763E+02  0.56712855763E+02  0.00000000000E+00 0.  1.
         21   -1    0    0  503  504 -0.00000000000E+00 -0.00000000000E+00 -0.93703461492E+03  0.93703461492E+03  0.00000000000E+00 0.  1.
         -6    2    1    2    0  504  0.12547545992E+03 -0.12332746618E+02 -0.63426439349E+03  0.66929105834E+03  0.17251959956E+03 0.  0.
        -24    2    3    3    0    0  0.55783248032E+01  0.31134274397E+02 -0.24869952131E+03  0.26315430108E+03  0.79989208845E+02 0.  0.
          6    2    1    2  502    0 -0.12547545992E+03  0.12332746618E+02 -0.24605736567E+03  0.32445641235E+03  0.16979855310E+03 0.  0.
         24    2    5    5    0    0 -0.82328932195E+02 -0.18543052017E+02 -0.24538656127E+03  0.27118843158E+03  0.78782632070E+02 0.  0.
          2    1    6    6  501    0 -0.58268570320E+02  0.23211612675E+02 -0.10018907961E+03  0.11820260963E+03  0.00000000000E+00 0. -1.
         -1    1    6    6    0  501 -0.24060361875E+02 -0.41754664692E+02 -0.14519748167E+03  0.15298582196E+03  0.00000000000E+00 0.  1.
          5    1    5    5  502    0 -0.43146527727E+02  0.30875798635E+02 -0.67080439113E+00  0.53267980765E+02  0.47000000000E+01 0. -1.
         11    1    4    4    0    0  0.23300435937E+02  0.45640532814E+02 -0.22264032810E+03  0.22846155967E+03  0.00000000000E+00 0. -1.
        -12    1    4    4    0    0 -0.17722111134E+02 -0.14506258417E+02 -0.26059193207E+02  0.34692741415E+02  0.00000000000E+00 0.  1.
         -5    1    3    3    0  504  0.11989713512E+03 -0.43467021015E+02 -0.38556487219E+03  0.40613675725E+03  0.47000000000E+01 0.  1.
<mgrwt>
<rscale>  2 0.21313031E+03</rscale>
<asrwt>0</asrwt>
<pdfrwt beam="1">  1       21 0.87250551E-02 0.21368013E+03</pdfrwt>
<pdfrwt beam="2">  1       21 0.14415916E+00 0.21368013E+03</pdfrwt>
<totfact> 0.33782140E+04</totfact>
</mgrwt>
</event>
<event>
12    1  0.2736842E-001  0.2267888E+03  0.7546771E-02  0.1129843E+00
         21   -1    0    0  502  503  0.00000000000E+00  0.00000000000E+00  0.78099796051E+02  0.78099796051E+02  0.00000000000E+00 0.  1.
         21   -1    0    0  503  504 -0.00000000000E+00 -0.00000000000E+00 -0.86063286715E+03  0.86063286715E+03  0.00000000000E+00 0.  1.
         -6    2    1    2    0  504  0.13669259742E+03  0.47918602786E+02 -0.63012806199E+03  0.66969735924E+03  0.17450535748E+03 0.  0.
        -24    2    3    3    0    0  0.15355181918E+03  0.23833109298E+02 -0.41230397490E+03  0.44984793971E+03  0.90677576434E+02 0.  0.
          6    2    1    2  502    0 -0.13669259742E+03 -0.47918602786E+02 -0.15240500911E+03  0.26903530395E+03  0.16784412200E+03 0.  0.
         24    2    5    5    0    0 -0.15735062444E+03 -0.11768933032E+02 -0.11136453234E+03  0.21038410246E+03  0.83436710779E+02 0.  0.
          4    1    6    6  501    0 -0.89207389364E+02  0.27738390617E+02 -0.87707950746E+02  0.12814078685E+03  0.00000000000E+00 0. -1.
         -3    1    6    6    0  501 -0.68143235081E+02 -0.39507323648E+02 -0.23656581598E+02  0.82243315607E+02  0.00000000000E+00 0.  1.
          5    1    5    5  502    0  0.20658027024E+02 -0.36149669755E+02 -0.41040476763E+02  0.58651201495E+02  0.47000000000E+01 0. -1.
         13    1    4    4    0    0  0.10688685990E+03 -0.23214702540E+02 -0.30166595948E+03  0.32088327215E+03  0.00000000000E+00 0. -1.
        -14    1    4    4    0    0  0.46664959282E+02  0.47047811838E+02 -0.11063801542E+03  0.12896466756E+03  0.00000000000E+00 0.  1.
         -5    1    3    3    0  504 -0.16859221759E+02  0.24085493488E+02 -0.21782408708E+03  0.21984941953E+03  0.47000000000E+01 0.  1.
<mgrwt>
<rscale>  2 0.22550683E+03</rscale>
<asrwt>0</asrwt>
<pdfrwt beam="1">  1       21 0.12015354E-01 0.22678884E+03</pdfrwt>
<pdfrwt beam="2">  1       21 0.13240505E+00 0.22678884E+03</pdfrwt>
<totfact> 0.23668102E+04</totfact>
</mgrwt>
</event>
<event>
12    1  0.2736842E-001  0.2742772E+03  0.7546771E-02  0.1099076E+00
         21   -1    0    0  502  503  0.00000000000E+00  0.00000000000E+00  0.11500386999E+03  0.11500386999E+03  0.00000000000E+00 0.  1.
         21   -1    0    0  503  504 -0.00000000000E+00 -0.00000000000E+00 -0.10080395526E+04  0.10080395526E+04  0.00000000000E+00 0. -1.
         -6    2    1    2    0  504 -0.19058510038E+03  0.90338801870E+02 -0.78179353846E+03  0.82851018438E+03  0.17534026700E+03 0.  0.
        -24    2    3    3    0    0 -0.10240063507E+03  0.10176226614E+03 -0.34348479855E+03  0.38124780396E+03  0.80787575255E+02 0.  0.
          6    2    1    2  502    0  0.19058510038E+03 -0.90338801870E+02 -0.11124214419E+03  0.29453323825E+03  0.17289081579E+03 0.  0.
         24    2    5    5    0    0  0.17661048761E+03 -0.12518289319E+03 -0.11252879173E+03  0.25667632390E+03  0.79736975107E+02 0.  0.
          2    1    6    6  501    0  0.27953592090E+02 -0.48307667231E+02 -0.58403515588E+02  0.80783690539E+02  0.00000000000E+00 0. -1.
         -1    1    6    6    0  501  0.14865689552E+03 -0.76875225963E+02 -0.54125276147E+02  0.17589263336E+03  0.00000000000E+00 0.  1.
          5    1    5    5  502    0  0.13974612762E+02  0.34844091324E+02  0.12866475486E+01  0.37856914348E+02  0.47000000000E+01 0. -1.
         13    1    4    4    0    0 -0.10381004102E+03  0.11106953989E+03 -0.33731572341E+03  0.36999306016E+03  0.00000000000E+00 0. -1.
        -14    1    4    4    0    0  0.14094059521E+01 -0.93072737531E+01 -0.61690751434E+01  0.11254743799E+02  0.00000000000E+00 0.  1.
         -5    1    3    3    0  504 -0.88184465307E+02 -0.11423464266E+02 -0.43830873991E+03  0.44726238042E+03  0.47000000000E+01 0.  1.
<mgrwt>
<rscale>  2 0.27388653E+03</rscale>
<asrwt>0</asrwt>
<pdfrwt beam="1">  1       21 0.17692903E-01 0.27427721E+03</pdfrwt>
<pdfrwt beam="2">  1       21 0.15508301E+00 0.27427721E+03</pdfrwt>
<totfact> 0.75011651E+03</totfact>
</mgrwt>
</event>
<event>
12    1  0.2736842E-001  0.2043588E+03  0.7546771E-02  0.1146349E+00
         21   -1    0    0  502  503  0.00000000000E+00  0.00000000000E+00  0.55688388579E+02  0.55688388579E+02  0.00000000000E+00 0. -1.
         21   -1    0    0  503  504 -0.00000000000E+00 -0.00000000000E+00 -0.80646012717E+03  0.80646012717E+03  0.00000000000E+00 0. -1.
         -6    2    1    2    0  504 -0.26699957543E+02 -0.10162771625E+03 -0.49466654397E+03  0.53521724218E+03  0.17527528679E+03 0.  0.
        -24    2    3    3    0    0 -0.17644466971E+02 -0.14107591274E+03 -0.41962080880E+03  0.44982336369E+03  0.77754067253E+02 0.  0.
          6    2    1    2  502    0  0.26699957543E+02  0.10162771625E+03 -0.25610519462E+03  0.32693127357E+03  0.17393420159E+03 0.  0.
         24    2    5    5    0    0  0.31105908134E+02  0.11638971829E+03 -0.26984504391E+03  0.30576047852E+03  0.78479159373E+02 0.  0.
          4    1    6    6  501    0 -0.15693589941E+02  0.60685235405E+02 -0.74817890132E+02  0.97604832079E+02  0.00000000000E+00 0. -1.
         -3    1    6    6    0  501  0.46799498075E+02  0.55704482889E+02 -0.19502715378E+03  0.20815564644E+03  0.00000000000E+00 0.  1.
          5    1    5    5  502    0 -0.44059505904E+01 -0.14762002044E+02  0.13739849285E+02  0.21170795056E+02  0.47000000000E+01 0. -1.
         11    1    4    4    0    0 -0.28115641662E+02 -0.26294974166E+02 -0.17806940443E+03  0.18218295136E+03  0.00000000000E+00 0. -1.
        -12    1    4    4    0    0  0.10471174691E+02 -0.11478093857E+03 -0.24155140437E+03  0.26764041233E+03  0.00000000000E+00 0.  1.
         -5    1    3    3    0  504 -0.90554905723E+01  0.39448196491E+02 -0.75045735167E+02  0.85393878485E+02  0.47000000000E+01 0.  1.
<mgrwt>
<rscale>  2 0.20407090E+03</rscale>
<asrwt>0</asrwt>
<pdfrwt beam="1">  1       21 0.85674450E-02 0.20435877E+03</pdfrwt>
<pdfrwt beam="2">  1       21 0.12407078E+00 0.20435877E+03</pdfrwt>
<totfact> 0.51429735E+04</totfact>
</mgrwt>
</event>
<event>
12    1  0.2736842E-001  0.1999189E+03  0.7546771E-02  0.1151994E+00
         21   -1    0    0  502  503  0.00000000000E+00  0.00000000000E+00  0.15448441157E+03  0.15448441157E+03  0.00000000000E+00 0.  1.
         21   -1    0    0  503  504 -0.00000000000E+00 -0.00000000000E+00 -0.32420205927E+03  0.32420205927E+03  0.00000000000E+00 0.  1.
         -6    2    1    2    0  504 -0.45075873873E+02 -0.86522455017E+02 -0.20416589738E+03  0.28574686580E+03  0.17449810325E+03 0.  0.
        -24    2    3    3    0    0 -0.81059429010E+01 -0.39438793945E+02 -0.27018309203E+02  0.98698730469E+02  0.85967002890E+02 0.  0.
          6    2    1    2  502    0  0.45075873873E+02  0.86522455017E+02  0.34448249675E+02  0.19293960503E+03  0.16285281593E+03 0.  0.
         24    2    5    5    0    0 -0.34063058747E+02  0.54596301704E+02  0.26114781127E+02  0.10706884971E+03  0.81490543338E+02 0.  0.
          2    1    6    6  501    0 -0.36901244314E+02  0.22434494893E+01 -0.15543461600E+02  0.40104040894E+02  0.00000000000E+00 0. -1.
         -1    1    6    6    0  501  0.28381855670E+01  0.52352852214E+02  0.41658242727E+02  0.66964808813E+02  0.00000000000E+00 0.  1.
          5    1    5    5  502    0  0.79138932620E+02  0.31926153314E+02  0.83334685477E+01  0.85870755323E+02  0.47000000000E+01 0. -1.
         13    1    4    4    0    0 -0.12321330810E+02  0.16204639362E+02 -0.36790220195E+02  0.42046710118E+02  0.00000000000E+00 0. -1.
        -14    1    4    4    0    0  0.42153879091E+01 -0.55643433307E+02  0.97719109917E+01  0.56652020351E+02  0.00000000000E+00 0.  1.
         -5    1    3    3    0  504 -0.36969930972E+02 -0.47083661072E+02 -0.17714758817E+03  0.18704813533E+03  0.47000000000E+01 0.  1.
<mgrwt>
<rscale>  2 0.19734992E+03</rscale>
<asrwt>0</asrwt>
<pdfrwt beam="1">  1       21 0.23766833E-01 0.19991888E+03</pdfrwt>
<pdfrwt beam="2">  1       21 0.49877239E-01 0.19991888E+03</pdfrwt>
<totfact> 0.63665006E+04</totfact>
</mgrwt>
</event>
<event>
12    1  0.2736842E-001  0.2107896E+03  0.7546771E-02  0.1141076E+00
         21   -1    0    0  502  503  0.00000000000E+00  0.00000000000E+00  0.76384994330E+02  0.76384994330E+02  0.00000000000E+00 0.  1.
         21   -1    0    0  503  504 -0.00000000000E+00 -0.00000000000E+00 -0.79524601292E+03  0.79524601292E+03  0.00000000000E+00 0.  1.
         -6    2    1    2    0  504 -0.97516432171E+02 -0.70040729316E+02 -0.58668758027E+03  0.62340563067E+03  0.17325445217E+03 0.  0.
        -24    2    3    3    0    0 -0.71964830981E+02 -0.11492994600E+03 -0.46224540484E+03  0.48858771226E+03  0.81604588662E+02 0.  0.
          6    2    1    2  502    0  0.97516432171E+02  0.70040729316E+02 -0.13217343832E+03  0.24822537658E+03  0.17242639437E+03 0.  0.
         24    2    5    5    0    0  0.83339802504E+02  0.22498408238E+02 -0.13498337045E+02  0.11951205643E+03  0.81542783092E+02 0.  0.
          4    1    6    6  501    0  0.34655407137E+01  0.20436088183E+02  0.23607217835E+02  0.31415671353E+02  0.00000000000E+00 0. -1.
         -3    1    6    6    0  501  0.79874261790E+02  0.20623200545E+01 -0.37105554880E+02  0.88096385076E+02  0.00000000000E+00 0.  1.
          5    1    5    5  502    0  0.14176629667E+02  0.47542321078E+02 -0.11867510127E+03  0.12871332015E+03  0.47000000000E+01 0. -1.
         13    1    4    4    0    0 -0.23863414936E+02 -0.66921882224E+02 -0.11832766473E+03  0.13801969835E+03  0.00000000000E+00 0. -1.
        -14    1    4    4    0    0 -0.48101416045E+02 -0.48008063774E+02 -0.34391774011E+03  0.35056801391E+03  0.00000000000E+00 0.  1.
         -5    1    3    3    0  504 -0.25551601190E+02  0.44889216683E+02 -0.12444217543E+03  0.13481791841E+03  0.47000000000E+01 0.  1.
<mgrwt>
<rscale>  2 0.21061939E+03</rscale>
<asrwt>0</asrwt>
<pdfrwt beam="1">  1       21 0.11751538E-01 0.21078962E+03</pdfrwt>
<pdfrwt beam="2">  1       21 0.12234554E+00 0.21078962E+03</pdfrwt>
<totfact> 0.30336307E+04</totfact>
</mgrwt>
</event>
<event>
12    1  0.2736842E-001  0.2100390E+03  0.7546771E-02  0.1142046E+00
         21   -1    0    0  502  503  0.00000000000E+00  0.00000000000E+00  0.97857093887E+03  0.97857093887E+03  0.00000000000E+00 0.  1.
         21   -1    0    0  503  504 -0.00000000000E+00 -0.00000000000E+00 -0.52475312421E+02  0.52475312421E+02  0.00000000000E+00 0.  1.
         -6    2    1    2    0  504  0.11548904313E+03 -0.31744864508E+01  0.26007863531E+03  0.33269462316E+03  0.17232823127E+03 0.  0.
        -24    2    3    3    0    0  0.14649648101E+03  0.20368893876E+02  0.21275215239E+03  0.27123213098E+03  0.80170317074E+02 0.  0.
          6    2    1    2  502    0 -0.11548904313E+03  0.31744864508E+01  0.66601699115E+03  0.69835162813E+03  0.17540971345E+03 0.  0.
         24    2    5    5    0    0 -0.13466154357E+03 -0.22602411891E+02  0.62973725047E+03  0.64966546126E+03  0.82774431957E+02 0.  0.
          2    1    6    6  501    0 -0.47303443278E+02  0.30743545531E+02  0.19178587624E+03  0.19991148957E+03  0.00000000000E+00 0. -1.
         -1    1    6    6    0  501 -0.87358100289E+02 -0.53345957422E+02  0.43795137422E+03  0.44975397168E+03  0.00000000000E+00 0.  1.
          5    1    5    5  502    0  0.19172500440E+02  0.25776898342E+02  0.36279740680E+02  0.48686166876E+02  0.47000000000E+01 0. -1.
         11    1    4    4    0    0  0.10551699492E+02 -0.22872985058E+02  0.38882313428E+02  0.46328674762E+02  0.00000000000E+00 0. -1.
        -12    1    4    4    0    0  0.13594478151E+03  0.43241878934E+02  0.17386983897E+03  0.22490345621E+03  0.00000000000E+00 0.  1.
         -5    1    3    3    0  504 -0.31007437880E+02 -0.23543380327E+02  0.47326482912E+02  0.61462492188E+02  0.47000000000E+01 0.  1.
<mgrwt>
<rscale>  2 0.20939437E+03</rscale>
<asrwt>0</asrwt>
<pdfrwt beam="1">  1       21 0.15054936E+00 0.21003896E+03</pdfrwt>
<pdfrwt beam="2">  1       21 0.80731257E-02 0.21003896E+03</pdfrwt>
<totfact> 0.34601282E+04</totfact>
</mgrwt>
</event>
<event>
12    1  0.2736842E-001  0.1861038E+03  0.7546771E-02  0.1162514E+00
         21   -1    0    0  502  503  0.00000000000E+00  0.00000000000E+00  0.39729883595E+02  0.39729883595E+02  0.00000000000E+00 0.  1.
         21   -1    0    0  503  504 -0.00000000000E+00 -0.00000000000E+00 -0.86416528223E+03  0.86416528223E+03  0.00000000000E+00 0.  1.
         -6    2    1    2    0  504  0.64050216546E+01  0.68074075924E+02 -0.39152843462E+03  0.43350794074E+03  0.17308817249E+03 0.  0.
        -24    2    3    3    0    0 -0.11876982434E+02  0.84118773945E+02 -0.39166557237E+03  0.40873350201E+03  0.80275302792E+02 0.  0.
          6    2    1    2  502    0 -0.64050216546E+01 -0.68074075924E+02 -0.43290696401E+03  0.47038722508E+03  0.17082329440E+03 0.  0.
         24    2    5    5    0    0 -0.40722709799E+02 -0.25566752455E+02 -0.38882654225E+03  0.40003276643E+03  0.80796883240E+02 0.  0.
          4    1    6    6  501    0  0.11606574547E+02 -0.37366405446E+02 -0.19693242783E+03  0.20078182676E+03  0.00000000000E+00 0. -1.
         -3    1    6    6    0  501 -0.52329284346E+02  0.11799652991E+02 -0.19189411442E+03  0.19925093967E+03  0.00000000000E+00 0.  1.
          5    1    5    5  502    0  0.34317688145E+02 -0.42507323469E+02 -0.44080421766E+02  0.70354458645E+02  0.47000000000E+01 0. -1.
         13    1    4    4    0    0 -0.25995033445E+02  0.11277702156E+02 -0.21866578667E+03  0.22049411464E+03  0.00000000000E+00 0. -1.
        -14    1    4    4    0    0  0.14118051011E+02  0.72841071789E+02 -0.17299978570E+03  0.18823938737E+03  0.00000000000E+00 0.  1.
         -5    1    3    3    0  504  0.18282004088E+02 -0.16044698021E+02  0.13713775188E+00  0.24774438739E+02  0.47000000000E+01 0.  1.
<mgrwt>
<rscale>  2 0.18557539E+03</rscale>
<asrwt>0</asrwt>
<pdfrwt beam="1">  1       21 0.61122892E-02 0.18610379E+03</pdfrwt>
<pdfrwt beam="2">  1       21 0.13294852E+00 0.18610379E+03</pdfrwt>
<totfact> 0.78258284E+04</totfact>
</mgrwt>
</event>
<event>
12    1  0.2736842E-001  0.2063536E+03  0.7546771E-02  0.1144629E+00
         21   -1    0    0  502  503  0.00000000000E+00  0.00000000000E+00  0.12998252607E+04  0.12998252607E+04  0.00000000000E+00 0.  1.
         21   -1    0    0  503  504 -0.00000000000E+00 -0.00000000000E+00 -0.24818811703E+03  0.24818811703E+03  0.00000000000E+00 0.  1.
         -6    2    1    2    0  504  0.70238798357E+02 -0.85855158330E+02 -0.19536691390E+03  0.28416550964E+03  0.17400347357E+03 0.  0.
        -24    2    3    3    0    0  0.29739122876E+02 -0.58437614547E+00 -0.16232187816E+03  0.18403861817E+03  0.81468177363E+02 0.  0.
          6    2    1    2  502    0 -0.70238798357E+02  0.85855158330E+02  0.12470040575E+04  0.12638478681E+04  0.17316961950E+03 0.  0.
         24    2    5    5    0    0 -0.38806795390E+02  0.63827163958E+02  0.11890105859E+04  0.11941446680E+04  0.81580883328E+02 0.  0.
          2    1    6    6  501    0 -0.28463722004E+02  0.70603368458E+02  0.57590932371E+03  0.58091872774E+03  0.00000000000E+00 0. -1.
         -1    1    6    6    0  501 -0.10343073386E+02 -0.67762044991E+01  0.61310126222E+03  0.61322594029E+03  0.00000000000E+00 0.  1.
          5    1    5    5  502    0 -0.31432002967E+02  0.22027994372E+02  0.57993471622E+02  0.69703200051E+02  0.47000000000E+01 0. -1.
         11    1    4    4    0    0  0.51825860169E+01 -0.32013246383E+02 -0.24732413752E+02  0.40784794125E+02  0.00000000000E+00 0. -1.
        -12    1    4    4    0    0  0.24556536859E+02  0.31428870238E+02 -0.13758946440E+03  0.14325382404E+03  0.00000000000E+00 0.  1.
         -5    1    3    3    0  504  0.40499675481E+02 -0.85270782185E+02 -0.33045035739E+02  0.10012689147E+03  0.47000000000E+01 0.  1.
<mgrwt>
<rscale>  2 0.20617771E+03</rscale>
<asrwt>0</asrwt>
<pdfrwt beam="1">  1       21 0.19997311E+00 0.20635359E+03</pdfrwt>
<pdfrwt beam="2">  1       21 0.38182788E-01 0.20635359E+03</pdfrwt>
<totfact> 0.87495877E+02</totfact>
</mgrwt>
</event>
<event>
12    1  0.2736842E-001  0.2146495E+03  0.7546771E-02  0.1137989E+00
         21   -1    0    0  502  503  0.00000000000E+00  0.00000000000E+00  0.77983704969E+03  0.77983704969E+03  0.00000000000E+00 0.  1.
         21   -1    0    0  503  504 -0.00000000000E+00 -0.00000000000E+00 -0.19222880255E+03  0.19222880255E+03  0.00000000000E+00 0. -1.
         -6    2    1    2    0  504  0.12644523464E+03  0.15615341678E+02 -0.11075576334E+03  0.24153932608E+03  0.17274886591E+03 0.  0.
        -24    2    3    3    0    0  0.34816462365E+02 -0.38320363596E+01 -0.11957017145E+03  0.14733839078E+03  0.78642895055E+02 0.  0.
          6    2    1    2  502    0 -0.12644523464E+03 -0.15615341678E+02  0.69836401048E+03  0.73052652616E+03  0.17240788274E+03 0.  0.
         24    2    5    5    0    0 -0.11923432116E+02  0.10821550574E+02  0.16382427808E+03  0.18319758664E+03  0.80397061332E+02 0.  0.
          2    1    6    6  501    0  0.32820114064E+02 -0.37331647046E+01  0.87602196785E+02  0.93622867332E+02  0.00000000000E+00 0. -1.
         -1    1    6    6    0  501 -0.44743546180E+02  0.14554715279E+02  0.76222081300E+02  0.89574719309E+02  0.00000000000E+00 0.  1.
          5    1    5    5  502    0 -0.11452180253E+03 -0.26436892252E+02  0.53453973240E+03  0.54732893952E+03  0.47000000000E+01 0. -1.
         11    1    4    4    0    0  0.59084696135E+02 -0.10669667495E+02 -0.93107620174E+02  0.11078750858E+03  0.00000000000E+00 0. -1.
        -12    1    4    4    0    0 -0.24268233770E+02  0.68376311358E+01 -0.26462551277E+02  0.36550882205E+02  0.00000000000E+00 0.  1.
         -5    1    3    3    0  504  0.91628772278E+02  0.19447378037E+02  0.88144081144E+01  0.94200935304E+02  0.47000000000E+01 0.  1.
<mgrwt>
<rscale>  2 0.21458088E+03</rscale>
<asrwt>0</asrwt>
<pdfrwt beam="1">  1       21 0.11997493E+00 0.21464950E+03</pdfrwt>
<pdfrwt beam="2">  1       21 0.29573662E-01 0.21464950E+03</pdfrwt>
<totfact> 0.56921454E+03</totfact>
</mgrwt>
</event>
<event>
12    1  0.2736842E-001  0.2208305E+03  0.7546771E-02  0.1133685E+00
         21   -1    0    0  502  503  0.00000000000E+00  0.00000000000E+00  0.55563261265E+02  0.55563261265E+02  0.00000000000E+00 0.  1.
         21   -1    0    0  503  504 -0.00000000000E+00 -0.00000000000E+00 -0.88163405542E+03  0.88163405542E+03  0.00000000000E+00 0. -1.
         -6    2    1    2    0  504 -0.71747434540E+02 -0.11245702429E+03 -0.35431972861E+03  0.41631807885E+03  0.17315887510E+03 0.  0.
        -24    2    3    3    0    0 -0.77737149678E+02 -0.41561125474E+02 -0.11245129191E+03  0.16415833618E+03  0.80822488788E+02 0.  0.
          6    2    1    2  502    0  0.71747434540E+02  0.11245702429E+03 -0.47175106555E+03  0.52087923783E+03  0.17598816972E+03 0.  0.
         24    2    5    5    0    0  0.72697040956E+01  0.65396429715E+02 -0.11250482837E+03  0.15284116071E+03  0.79834468641E+02 0.  0.
          2    1    6    6  501    0 -0.18590919901E+02  0.70343379857E+02 -0.10006528339E+03  0.12372095349E+03  0.00000000000E+00 0. -1.
         -1    1    6    6    0  501  0.25860623997E+02 -0.49469501412E+01 -0.12439544980E+02  0.29120207220E+02  0.00000000000E+00 0.  1.
          5    1    5    5  502    0  0.64477730444E+02  0.47060594571E+02 -0.35924623718E+03  0.36803807712E+03  0.47000000000E+01 0. -1.
         13    1    4    4    0    0  0.54073377796E+01 -0.19526167778E+02 -0.60196662460E+02  0.63514948644E+02  0.00000000000E+00 0. -1.
        -14    1    4    4    0    0 -0.83144487458E+02 -0.22034957696E+02 -0.52254629448E+02  0.10064338753E+03  0.00000000000E+00 0.  1.
         -5    1    3    3    0  504  0.59897151387E+01 -0.70895898812E+02 -0.24186843670E+03  0.25215974268E+03  0.47000000000E+01 0.  1.
<mgrwt>
<rscale>  2 0.22026633E+03</rscale>
<asrwt>0</asrwt>
<pdfrwt beam="1">  1       21 0.85481945E-02 0.22083051E+03</pdfrwt>
<pdfrwt beam="2">  1       21 0.13563600E+00 0.22083051E+03</pdfrwt>
<totfact> 0.40851590E+04</totfact>
</mgrwt>
</event>
<event>
12    1  0.2736842E-001  0.3771593E+03  0.7546771E-02  0.1052114E+00
         21   -1    0    0  502  503  0.00000000000E+00  0.00000000000E+00  0.54843512367E+03  0.54843512367E+03  0.00000000000E+00 0. -1.
         21   -1    0    0  503  504 -0.00000000000E+00 -0.00000000000E+00 -0.35283953101E+03  0.35283953101E+03  0.00000000000E+00 0.  1.
         -6    2    1    2    0  504 -0.33458593157E+03  0.35042970262E+01 -0.13540110929E+03  0.39946998905E+03  0.17112213780E+03 0.  0.
        -24    2    3    3    0    0 -0.20506925765E+03 -0.54929843756E+02 -0.11883084624E+03  0.25634144106E+03  0.80743273498E+02 0.  0.
          6    2    1    2  502    0  0.33458593157E+03 -0.35042970262E+01  0.33099670195E+03  0.50180466564E+03  0.17403758230E+03 0.  0.
         24    2    5    5    0    0  0.13963093740E+03  0.23186603451E+02  0.73231334426E+02  0.17748240520E+03  0.78120154605E+02 0.  0.
          2    1    6    6  501    0  0.44471162251E+02  0.33329077233E+02 -0.22175445831E+01  0.55618604487E+02  0.00000000000E+00 0. -1.
         -1    1    6    6    0  501  0.95159775146E+02 -0.10142473782E+02  0.75448879009E+02  0.12186380071E+03  0.00000000000E+00 0.  1.
          5    1    5    5  502    0  0.19495499418E+03 -0.26690900477E+02  0.25776536752E+03  0.32432226044E+03  0.47000000000E+01 0. -1.
         13    1    4    4    0    0 -0.86642142955E+02 -0.49922906629E+02 -0.19919725950E+02  0.10196054641E+03  0.00000000000E+00 0. -1.
        -14    1    4    4    0    0 -0.11842711470E+03 -0.50069371270E+01 -0.98911120289E+02  0.15438089465E+03  0.00000000000E+00 0.  1.
         -5    1    3    3    0  504 -0.12951667392E+03  0.58434140782E+02 -0.16570263051E+02  0.14312854799E+03  0.47000000000E+01 0.  1.
<mgrwt>
<rscale>  2 0.37682471E+03</rscale>
<asrwt>0</asrwt>
<pdfrwt beam="1">  1       21 0.84374634E-01 0.37715926E+03</pdfrwt>
<pdfrwt beam="2">  1       21 0.54283005E-01 0.37715926E+03</pdfrwt>
<totfact> 0.35072633E+03</totfact>
</mgrwt>
</event>
<event>
12    1  0.2736842E-001  0.4724401E+03  0.7546771E-02  0.1021239E+00
         21   -1    0    0  502  503  0.00000000000E+00  0.00000000000E+00  0.15668703822E+04  0.15668703822E+04  0.00000000000E+00 0. -1.
         21   -1    0    0  503  504 -0.00000000000E+00 -0.00000000000E+00 -0.21251849542E+03  0.21251849542E+03  0.00000000000E+00 0.  1.
         -6    2    1    2    0  504 -0.63897618621E+02 -0.43477740366E+03  0.16626882886E+03  0.50084425919E+03  0.17345129609E+03 0.  0.
        -24    2    3    3    0    0 -0.54484769212E+02 -0.30023275969E+03  0.51934588880E+02  0.32396782948E+03  0.95653818276E+02 0.  0.
          6    2    1    2  502    0  0.63897618621E+02  0.43477740366E+03  0.11880830579E+04  0.12785446184E+04  0.17326480422E+03 0.  0.
         24    2    5    5    0    0 -0.14502134915E+02  0.10374078837E+03  0.33868150798E+03  0.36353814574E+03  0.80513082594E+02 0.  0.
          4    1    6    6  501    0  0.70736914878E+01  0.17544560788E+01  0.13061885663E+03  0.13082202007E+03  0.00000000000E+00 0. -1.
         -3    1    6    6    0  501 -0.21575826403E+02  0.10198633229E+03  0.20806265136E+03  0.23271612567E+03  0.00000000000E+00 0.  1.
          5    1    5    5  502    0  0.78399753536E+02  0.33103661529E+03  0.84940154991E+03  0.91500647266E+03  0.47000000000E+01 0. -1.
         11    1    4    4    0    0 -0.10730833971E+02  0.44740047693E+01 -0.79049069692E+00  0.11652999268E+02  0.00000000000E+00 0. -1.
        -12    1    4    4    0    0 -0.43753935241E+02 -0.30470676446E+03  0.52725079577E+02  0.31231483021E+03  0.00000000000E+00 0.  1.
         -5    1    3    3    0  504 -0.94128494082E+01 -0.13454464397E+03  0.11433423998E+03  0.17687642971E+03  0.47000000000E+01 0.  1.
<mgrwt>
<rscale>  2 0.47242299E+03</rscale>
<asrwt>0</asrwt>
<pdfrwt beam="1">  1       21 0.24105697E+00 0.47244010E+03</pdfrwt>
<pdfrwt beam="2">  1       21 0.32695154E-01 0.47244010E+03</pdfrwt>
<totfact> 0.54449647E+02</totfact>
</mgrwt>
</event>
<event>
12    1  0.2736842E-001  0.2802176E+03  0.7546771E-02  0.1095828E+00
         21   -1    0    0  502  503  0.00000000000E+00  0.00000000000E+00  0.11446200701E+04  0.11446200701E+04  0.00000000000E+00 0. -1.
         21   -1    0    0  503  504 -0.00000000000E+00 -0.00000000000E+00 -0.84153943410E+02  0.84153943410E+02  0.00000000000E+00 0. -1.
         -6    2    1    2    0  504  0.20222064354E+03  0.85018710366E+02  0.26367906913E+03  0.38477079741E+03  0.17435752136E+03 0.  0.
        -24    2    3    3    0    0  0.19715024224E+03  0.95462729867E+02  0.27983421370E+03  0.36432904581E+03  0.80293932853E+02 0.  0.
          6    2    1    2  502    0 -0.20222064354E+03 -0.85018710366E+02  0.79678705759E+03  0.84400321613E+03  0.17131971256E+03 0.  0.
         24    2    5    5    0    0 -0.29156159718E+02 -0.35039319170E+02  0.19790522780E+03  0.21859871410E+03  0.80876962603E+02 0.  0.
          2    1    6    6  501    0 -0.22066001706E+02 -0.50658137927E+02  0.68248826444E+02  0.87812628252E+02  0.00000000000E+00 0. -1.
         -1    1    6    6    0  501 -0.70901580126E+01  0.15618818756E+02  0.12965640136E+03  0.13078608585E+03  0.00000000000E+00 0.  1.
          5    1    5    5  502    0 -0.17306448382E+03 -0.49979391196E+02  0.59888182979E+03  0.62540450203E+03  0.47000000000E+01 0. -1.
         11    1    4    4    0    0  0.87008557591E+02  0.86619102743E+02  0.14439484210E+03  0.18953424092E+03  0.00000000000E+00 0. -1.
        -12    1    4    4    0    0  0.11014168465E+03  0.88436271231E+01  0.13543937159E+03  0.17479480489E+03  0.00000000000E+00 0.  1.
         -5    1    3    3    0  504  0.50704012996E+01 -0.10444019501E+02 -0.16155144566E+02  0.20441751604E+02  0.47000000000E+01 0.  1.
<mgrwt>
<rscale>  2 0.27974643E+03</rscale>
<asrwt>0</asrwt>
<pdfrwt beam="1">  1       21 0.17609538E+00 0.28021762E+03</pdfrwt>
<pdfrwt beam="2">  1       21 0.12946761E-01 0.28021762E+03</pdfrwt>
<totfact> 0.93350403E+03</totfact>
</mgrwt>
</event>
<event>
12    1  0.2736842E-001  0.1964240E+03  0.7546771E-02  0.1153092E+00
         21   -1    0    0  502  503  0.00000000000E+00  0.00000000000E+00  0.10334394316E+04  0.10334394316E+04  0.00000000000E+00 0. -1.
         21   -1    0    0  503  504 -0.00000000000E+00 -0.00000000000E+00 -0.79796550980E+02  0.79796550980E+02  0.00000000000E+00 0. -1.
         -6    2    1    2    0  504  0.73138126097E+02 -0.56631669965E+02  0.70311377348E+02  0.20862908330E+03  0.17328033091E+03 0.  0.
        -24    2    3    3    0    0  0.11790645074E+01  0.16381081520E+02 -0.31665064486E+01  0.82414750388E+02  0.80699654853E+02 0.  0.
          6    2    1    2  502    0 -0.73138126097E+02  0.56631669965E+02  0.88333150330E+03  0.90460689931E+03  0.17170546301E+03 0.  0.
         24    2    5    5    0    0  0.29177443646E+01 -0.23074807625E+02  0.36605494507E+03  0.37570733825E+03  0.81356138198E+02 0.  0.
          2    1    6    6  501    0  0.22336406157E+02  0.14736010965E+02  0.49131244299E+02  0.55945904457E+02  0.00000000000E+00 0. -1.
         -1    1    6    6    0  501 -0.19418661792E+02 -0.37810818590E+02  0.31692370077E+03  0.31976143379E+03  0.00000000000E+00 0.  1.
          5    1    5    5  502    0 -0.76055870461E+02  0.79706477590E+02  0.51727655823E+03  0.52889956107E+03  0.47000000000E+01 0. -1.
         11    1    4    4    0    0  0.60327728935E+00 -0.31927623846E+02 -0.10356036273E+02  0.33570591226E+02  0.00000000000E+00 0. -1.
        -12    1    4    4    0    0  0.57578721808E+00  0.48308705367E+02  0.71895298249E+01  0.48844159162E+02  0.00000000000E+00 0.  1.
         -5    1    3    3    0  504  0.71959061589E+02 -0.73012751485E+02  0.73477883797E+02  0.12621433291E+03  0.47000000000E+01 0.  1.
<mgrwt>
<rscale>  2 0.19607615E+03</rscale>
<asrwt>0</asrwt>
<pdfrwt beam="1">  1       21 0.15899067E+00 0.19642404E+03</pdfrwt>
<pdfrwt beam="2">  1       21 0.12276393E-01 0.19642404E+03</pdfrwt>
<totfact> 0.14384296E+04</totfact>
</mgrwt>
</event>
<event>
12    1  0.2736842E-001  0.1972674E+03  0.7546771E-02  0.1153640E+00
         21   -1    0    0  502  503  0.00000000000E+00  0.00000000000E+00  0.59556294182E+03  0.59556294182E+03  0.00000000000E+00 0.  1.
         21   -1    0    0  503  504 -0.00000000000E+00 -0.00000000000E+00 -0.66533245023E+02  0.66533245023E+02  0.00000000000E+00 0.  1.
         -6    2    1    2    0  504  0.56924336696E+02  0.53405875533E+02  0.18338426007E+03  0.26411978976E+03  0.17331159468E+03 0.  0.
        -24    2    3    3    0    0 -0.18545256596E+02  0.40538691218E+02  0.37800535990E+02  0.99566045770E+02  0.80605241277E+02 0.  0.
          6    2    1    2  502    0 -0.56924336696E+02 -0.53405875533E+02  0.34564543673E+03  0.39797639708E+03  0.18116809061E+03 0.  0.
         24    2    5    5    0    0 -0.98009187161E+02 -0.46214579442E+02  0.32305898827E+03  0.35031176312E+03  0.81299651617E+02 0.  0.
          2    1    6    6  501    0 -0.73424232821E+02 -0.63375331454E+02  0.18337385804E+03  0.20744522751E+03  0.00000000000E+00 0. -1.
         -1    1    6    6    0  501 -0.24584954340E+02  0.17160752012E+02  0.13968513023E+03  0.14286653561E+03  0.00000000000E+00 0.  1.
          5    1    5    5  502    0  0.41084850465E+02 -0.71912960907E+01  0.22586448451E+02  0.47664633963E+02  0.47000000000E+01 0. -1.
         11    1    4    4    0    0 -0.29425099291E+02  0.26638243478E+02  0.59543255987E+02  0.71559987545E+02  0.00000000000E+00 0. -1.
        -12    1    4    4    0    0  0.10879842695E+02  0.13900447739E+02 -0.21742719997E+02  0.28006058225E+02  0.00000000000E+00 0.  1.
         -5    1    3    3    0  504  0.75469593293E+02  0.12867184315E+02  0.14558372408E+03  0.16455374399E+03  0.47000000000E+01 0.  1.
<mgrwt>
<rscale>  2 0.19544487E+03</rscale>
<asrwt>0</asrwt>
<pdfrwt beam="1">  1       21 0.91625064E-01 0.19726744E+03</pdfrwt>
<pdfrwt beam="2">  1       21 0.10235884E-01 0.19726744E+03</pdfrwt>
<totfact> 0.78318622E+04</totfact>
</mgrwt>
</event>
<event>
12    1  0.2736842E-001  0.1921658E+03  0.7546771E-02  0.1157270E+00
         21   -1    0    0  502  503  0.00000000000E+00  0.00000000000E+00  0.70097026687E+03  0.70097026687E+03  0.00000000000E+00 0.  1.
         21   -1    0    0  503  504 -0.00000000000E+00 -0.00000000000E+00 -0.52040750874E+02  0.52040750874E+02  0.00000000000E+00 0.  1.
         -6    2    1    2    0  504  0.36763019196E+02  0.70994292524E+02  0.30019889377E+03  0.35643662787E+03  0.17474548554E+03 0.  0.
        -24    2    3    3    0    0 -0.12622182382E+02 -0.10009906880E+01  0.58425545247E+02  0.99340029303E+02  0.79338361553E+02 0.  0.
          6    2    1    2  502    0 -0.36763019196E+02 -0.70994292524E+02  0.34873062222E+03  0.39657438987E+03  0.17107451790E+03 0.  0.
         24    2    5    5    0    0 -0.15120803581E+02 -0.10964418104E+03  0.29527663726E+03  0.32699265457E+03  0.86518313059E+02 0.  0.
          4    1    6    6  501    0  0.20638471725E+02 -0.91265364990E+01  0.15000141915E+02  0.27096945236E+02  0.00000000000E+00 0. -1.
         -3    1    6    6    0  501 -0.35759275306E+02 -0.10051764454E+03  0.28027649535E+03  0.29989570934E+03  0.00000000000E+00 0.  1.
          5    1    5    5  502    0 -0.21642215616E+02  0.38649888514E+02  0.53453984961E+02  0.69581735298E+02  0.47000000000E+01 0. -1.
         11    1    4    4    0    0 -0.38539153754E+02  0.57724302395E+01  0.61046987330E+02  0.72424595166E+02  0.00000000000E+00 0. -1.
        -12    1    4    4    0    0  0.25916971372E+02 -0.67734209275E+01 -0.26214420831E+01  0.26915434136E+02  0.00000000000E+00 0.  1.
         -5    1    3    3    0  504  0.49385201579E+02  0.71995283212E+02  0.24177334852E+03  0.25709659857E+03  0.47000000000E+01 0.  1.
<mgrwt>
<rscale>  2 0.19132732E+03</rscale>
<asrwt>0</asrwt>
<pdfrwt beam="1">  1       21 0.10784157E+00 0.19216580E+03</pdfrwt>
<pdfrwt beam="2">  1       21 0.80062699E-02 0.19216580E+03</pdfrwt>
<totfact> 0.82127286E+04</totfact>
</mgrwt>
</event>
<event>
12    1  0.2736842E-001  0.2630191E+03  0.7546771E-02  0.1105431E+00
         21   -1    0    0  502  503  0.00000000000E+00  0.00000000000E+00  0.86198234431E+03  0.86198234431E+03  0.00000000000E+00 0.  1.
         21   -1    0    0  503  504 -0.00000000000E+00 -0.00000000000E+00 -0.94007706276E+02  0.94007706276E+02  0.00000000000E+00 0.  1.
         -6    2    1    2    0  504  0.25083765633E+01  0.19794936273E+03  0.20033850741E+03  0.33062753680E+03  0.17317277032E+03 0.  0.
        -24    2    3    3    0    0  0.44228146928E+02  0.41375696508E+02  0.90190152230E+02  0.13464130682E+03  0.79535782516E+02 0.  0.
          6    2    1    2  502    0 -0.25083765633E+01 -0.19794936273E+03  0.56763613063E+03  0.62536251379E+03  0.17227087595E+03 0.  0.
         24    2    5    5    0    0  0.47400943737E+01 -0.16242767479E+03  0.26808798047E+03  0.32359188084E+03  0.80220459005E+02 0.  0.
          2    1    6    6  501    0 -0.37141598173E+02 -0.79659936601E+02  0.14322322926E+03  0.16804195076E+03  0.00000000000E+00 0. -1.
         -1    1    6    6    0  501  0.41881692547E+02 -0.82767738191E+02  0.12486475121E+03  0.15554993009E+03  0.00000000000E+00 0.  1.
          5    1    5    5  502    0 -0.72484709369E+01 -0.35521687938E+02  0.29954815016E+03  0.30177063294E+03  0.47000000000E+01 0. -1.
         13    1    4    4    0    0 -0.14943699589E+02  0.12093507989E+02  0.58171847944E+02  0.61266067167E+02  0.00000000000E+00 0. -1.
        -14    1    4    4    0    0  0.59171846517E+02  0.29282188519E+02  0.32018304286E+02  0.73375239652E+02  0.00000000000E+00 0.  1.
         -5    1    3    3    0  504 -0.41719770365E+02  0.15657366622E+03  0.11014835518E+03  0.19598622998E+03  0.47000000000E+01 0.  1.
<mgrwt>
<rscale>  2 0.26287075E+03</rscale>
<asrwt>0</asrwt>
<pdfrwt beam="1">  1       21 0.13261266E+00 0.26301911E+03</pdfrwt>
<pdfrwt beam="2">  1       21 0.14462725E-01 0.26301911E+03</pdfrwt>
<totfact> 0.16524109E+04</totfact>
</mgrwt>
</event>
<event>
12    1  0.2736842E-001  0.1996202E+03  0.7546771E-02  0.1150238E+00
         21   -1    0    0  502  503  0.00000000000E+00  0.00000000000E+00  0.18786511704E+03  0.18786511704E+03  0.00000000000E+00 0. -1.
         21   -1    0    0  503  504 -0.00000000000E+00 -0.00000000000E+00 -0.89288941089E+03  0.89288941089E+03  0.00000000000E+00 0. -1.
         -6    2    1    2    0  504 -0.82606495248E+02 -0.51821783896E+02 -0.82484397466E+03  0.84865528657E+03  0.17418060326E+03 0.  0.
        -24    2    3    3    0    0  0.23561462352E+02 -0.36806606441E+02 -0.39100403230E+03  0.40173664032E+03  0.81229958270E+02 0.  0.
          6    2    1    2  502    0  0.82606495248E+02  0.51821783896E+02  0.11981968081E+03  0.23209924136E+03  0.17321654536E+03 0.  0.
         24    2    5    5    0    0  0.48805737356E+02 -0.38412383806E+02  0.53260315992E+02  0.11489456867E+03  0.80663432991E+02 0.  0.
          2    1    6    6  501    0  0.42235598485E+02 -0.42011811965E+02  0.72741765065E+02  0.94022351113E+02  0.00000000000E+00 0. -1.
         -1    1    6    6    0  501  0.65701388711E+01  0.35994281590E+01 -0.19481449072E+02  0.20872217559E+02  0.00000000000E+00 0.  1.
          5    1    5    5  502    0  0.33800757891E+02  0.90234167703E+02  0.66559364822E+02  0.11720467269E+03  0.47000000000E+01 0. -1.
         13    1    4    4    0    0  0.25351656271E+02 -0.58505897669E+02 -0.21109054145E+03  0.22051046058E+03  0.00000000000E+00 0. -1.
        -14    1    4    4    0    0 -0.17901939192E+01  0.21699291228E+02 -0.17991349085E+03  0.18122617974E+03  0.00000000000E+00 0.  1.
         -5    1    3    3    0  504 -0.10616795760E+03 -0.15015177455E+02 -0.43383994237E+03  0.44691864625E+03  0.47000000000E+01 0.  1.
<mgrwt>
<rscale>  2 0.19940968E+03</rscale>
<asrwt>0</asrwt>
<pdfrwt beam="1">  1       21 0.28902326E-01 0.19962017E+03</pdfrwt>
<pdfrwt beam="2">  1       21 0.13736760E+00 0.19962017E+03</pdfrwt>
<totfact> 0.42801497E+03</totfact>
</mgrwt>
</event>
<event>
12    1  0.2736842E-001  0.1970128E+03  0.7546771E-02  0.1152328E+00
         21   -1    0    0  502  503  0.00000000000E+00  0.00000000000E+00  0.13501449811E+03  0.13501449811E+03  0.00000000000E+00 0.  1.
         21   -1    0    0  503  504 -0.00000000000E+00 -0.00000000000E+00 -0.44212353512E+03  0.44212353512E+03  0.00000000000E+00 0.  1.
         -6    2    1    2    0  504  0.18247946382E+02 -0.90910056799E+02  0.17326384372E+02  0.19756936384E+03  0.17359672796E+03 0.  0.
        -24    2    3    3    0    0  0.42574760389E+01  0.21824375512E+02  0.50747273161E+01  0.83214746138E+02  0.80028192837E+02 0.  0.
          6    2    1    2  502    0 -0.18247946382E+02  0.90910056799E+02 -0.32443542138E+03  0.37956866939E+03  0.17382866900E+03 0.  0.
         24    2    5    5    0    0  0.28115983308E+01  0.11868423889E+03 -0.17546584754E+03  0.22650354096E+03  0.80135739635E+02 0.  0.
          4    1    6    6  501    0 -0.25067805073E+02  0.10801829997E+03 -0.11915731695E+03  0.16277227701E+03  0.00000000000E+00 0. -1.
         -3    1    6    6    0  501  0.27879403404E+02  0.10665938918E+02 -0.56308530591E+02  0.63731263949E+02  0.00000000000E+00 0.  1.
          5    1    5    5  502    0 -0.21059544713E+02 -0.27774182089E+02 -0.14896957384E+03  0.15306512844E+03  0.47000000000E+01 0. -1.
         13    1    4    4    0    0 -0.31013512743E+02 -0.36752626346E+01  0.20135997854E+02  0.37159170303E+02  0.00000000000E+00 0. -1.
        -14    1    4    4    0    0  0.35270988782E+02  0.25499638147E+02 -0.15061270537E+02  0.46055575834E+02  0.00000000000E+00 0.  1.
         -5    1    3    3    0  504  0.13990470343E+02 -0.11273443231E+03  0.12251657056E+02  0.11435461770E+03  0.47000000000E+01 0.  1.
<mgrwt>
<rscale>  2 0.19696160E+03</rscale>
<asrwt>0</asrwt>
<pdfrwt beam="1">  1       21 0.20771461E-01 0.19701277E+03</pdfrwt>
<pdfrwt beam="2">  1       21 0.68019005E-01 0.19701277E+03</pdfrwt>
<totfact> 0.42349097E+04</totfact>
</mgrwt>
</event>
<event>
12    1  0.2736842E-001  0.1914159E+03  0.7546771E-02  0.1157504E+00
         21   -1    0    0  502  503  0.00000000000E+00  0.00000000000E+00  0.22089024407E+03  0.22089024407E+03  0.00000000000E+00 0. -1.
         21   -1    0    0  503  504 -0.00000000000E+00 -0.00000000000E+00 -0.32299707612E+03  0.32299707612E+03  0.00000000000E+00 0.  1.
         -6    2    1    2    0  504  0.44327105044E+02  0.60662079715E+02 -0.24154667974E+03  0.30819610625E+03  0.17605471097E+03 0.  0.
        -24    2    3    3    0    0  0.72962007248E+02  0.97266715287E+02 -0.16990124201E+03  0.22266824110E+03  0.77009383539E+02 0.  0.
          6    2    1    2  502    0 -0.44327105044E+02 -0.60662079715E+02  0.13943984769E+03  0.23569121394E+03  0.17453394239E+03 0.  0.
         24    2    5    5    0    0 -0.39351814674E+02 -0.64962250445E+02  0.17105945708E+03  0.20305481279E+03  0.78748078326E+02 0.  0.
          4    1    6    6  501    0  0.22613352814E+02 -0.25722232090E+02  0.72665238094E+02  0.80332022111E+02  0.00000000000E+00 0. -1.
         -3    1    6    6    0  501 -0.61965167488E+02 -0.39240018355E+02  0.98394218982E+02  0.12272279068E+03  0.00000000000E+00 0.  1.
          5    1    5    5  502    0 -0.49752903702E+01  0.43001707303E+01 -0.31619609384E+02  0.32636401152E+02  0.47000000000E+01 0. -1.
         13    1    4    4    0    0  0.51035123959E+02  0.45646449788E+02 -0.35698059008E+02  0.77217444096E+02  0.00000000000E+00 0. -1.
        -14    1    4    4    0    0  0.21926883289E+02  0.51620265499E+02 -0.13420318300E+03  0.14545079700E+03  0.00000000000E+00 0.  1.
         -5    1    3    3    0  504 -0.28634902204E+02 -0.36604635572E+02 -0.71645437734E+02  0.85527865153E+02  0.47000000000E+01 0.  1.
<mgrwt>
<rscale>  2 0.19106548E+03</rscale>
<asrwt>0</asrwt>
<pdfrwt beam="1">  1       21 0.33983115E-01 0.19141589E+03</pdfrwt>
<pdfrwt beam="2">  1       21 0.49691857E-01 0.19141589E+03</pdfrwt>
<totfact> 0.32224210E+04</totfact>
</mgrwt>
</event>
<event>
12    1  0.2736842E-001  0.1798972E+03  0.7546771E-02  0.1167959E+00
         21   -1    0    0  502  503  0.00000000000E+00  0.00000000000E+00  0.11428307519E+04  0.11428307519E+04  0.00000000000E+00 0. -1.
         21   -1    0    0  503  504 -0.00000000000E+00 -0.00000000000E+00 -0.33607635040E+02  0.33607635040E+02  0.00000000000E+00 0. -1.
         -6    2    1    2    0  504 -0.46655654649E+02 -0.13614117004E+02  0.32075268637E+03  0.36775710507E+03  0.17320770256E+03 0.  0.
        -24    2    3    3    0    0 -0.91353183584E+02 -0.12105066165E+02  0.16216315645E+03  0.20291513431E+03  0.79910735459E+02 0.  0.
          6    2    1    2  502    0  0.46655654649E+02  0.13614117004E+02  0.78847043049E+03  0.80868128187E+03  0.17296734256E+03 0.  0.
         24    2    5    5    0    0  0.55595599314E+02  0.45437624915E+02  0.32138357663E+03  0.34040264973E+03  0.86203898958E+02 0.  0.
          2    1    6    6  501    0  0.58452525133E+02 -0.32422981744E+01  0.12460660879E+03  0.13767358914E+03  0.00000000000E+00 0. -1.
         -1    1    6    6    0  501 -0.28569258182E+01  0.48679923089E+02  0.19677696783E+03  0.20272906059E+03  0.00000000000E+00 0.  1.
          5    1    5    5  502    0 -0.89399446658E+01 -0.31823507911E+02  0.46708685386E+03  0.46827863214E+03  0.47000000000E+01 0. -1.
         11    1    4    4    0    0 -0.89174415167E+02  0.18670506070E+02  0.12244128400E+03  0.15261891149E+03  0.00000000000E+00 0. -1.
        -12    1    4    4    0    0 -0.21787684173E+01 -0.30775572235E+02  0.39721872457E+02  0.50296222817E+02  0.00000000000E+00 0.  1.
         -5    1    3    3    0  504  0.44697528936E+02 -0.15090508392E+01  0.15858952992E+03  0.16484197077E+03  0.47000000000E+01 0.  1.
<mgrwt>
<rscale>  2 0.17983932E+03</rscale>
<asrwt>0</asrwt>
<pdfrwt beam="1">  1       21 0.17582009E+00 0.17989720E+03</pdfrwt>
<pdfrwt beam="2">  1       21 0.51704063E-02 0.17989720E+03</pdfrwt>
<totfact> 0.49778612E+04</totfact>
</mgrwt>
</event>
<event>
12    1  0.2736842E-001  0.2189470E+03  0.7546771E-02  0.1136255E+00
         21   -1    0    0  502  503  0.00000000000E+00  0.00000000000E+00  0.19212531085E+03  0.19212531085E+03  0.00000000000E+00 0.  1.
         21   -1    0    0  503  504 -0.00000000000E+00 -0.00000000000E+00 -0.36617002682E+03  0.36617002682E+03  0.00000000000E+00 0.  1.
         -6    2    1    2    0  504  0.32764034865E+02  0.12907077840E+03 -0.25184874895E+03  0.33371478820E+03  0.17379591392E+03 0.  0.
        -24    2    3    3    0    0  0.35968017715E+02  0.14572504189E+03 -0.13993500241E+03  0.22042574785E+03  0.80474960603E+02 0.  0.
          6    2    1    2  502    0 -0.32764034865E+02 -0.12907077840E+03  0.77804032977E+02  0.22458054947E+03  0.16324891373E+03 0.  0.
         24    2    5    5    0    0 -0.74879747547E+02 -0.12804304301E+03  0.63506155988E+02  0.17984455969E+03  0.79429442572E+02 0.  0.
          4    1    6    6  501    0 -0.76829690396E+02 -0.72378131707E+02  0.65296043913E+02  0.12411675401E+03  0.00000000000E+00 0. -1.
         -3    1    6    6    0  501  0.19499428496E+01 -0.55664911298E+02 -0.17898879253E+01  0.55727805679E+02  0.00000000000E+00 0.  1.
          5    1    5    5  502    0  0.42115712682E+02 -0.10277353949E+01  0.14297876990E+02  0.44735989775E+02  0.47000000000E+01 0. -1.
         13    1    4    4    0    0 -0.22253845626E+02  0.15751431700E+02 -0.29802139363E+02  0.40391939250E+02  0.00000000000E+00 0. -1.
        -14    1    4    4    0    0  0.58221863341E+02  0.12997361019E+03 -0.11013286305E+03  0.18003380860E+03  0.00000000000E+00 0.  1.
         -5    1    3    3    0  504 -0.32039828503E+01 -0.16654263489E+02 -0.11191374654E+03  0.11328904034E+03  0.47000000000E+01 0.  1.
<mgrwt>
<rscale>  2 0.21684839E+03</rscale>
<asrwt>0</asrwt>
<pdfrwt beam="1">  1       21 0.29557741E-01 0.21894695E+03</pdfrwt>
<pdfrwt beam="2">  1       21 0.56333849E-01 0.21894695E+03</pdfrwt>
<totfact> 0.32070674E+04</totfact>
</mgrwt>
</event>
<event>
12    1  0.2736842E-001  0.2542427E+03  0.7546771E-02  0.1110806E+00
         21   -1    0    0  502  503  0.00000000000E+00  0.00000000000E+00  0.16431259807E+04  0.16431259807E+04  0.00000000000E+00 0.  1.
         21   -1    0    0  503  504 -0.00000000000E+00 -0.00000000000E+00 -0.44788535964E+02  0.44788535964E+02  0.00000000000E+00 0.  1.
         -6    2    1    2    0  504  0.68662158386E+02  0.17354088366E+03  0.50205002164E+03  0.56275536174E+03  0.17265121676E+03 0.  0.
        -24    2    3    3    0    0  0.25027216110E+02  0.10490473329E+02  0.18339792861E+03  0.20212994544E+03  0.80531379267E+02 0.  0.
          6    2    1    2  502    0 -0.68662158386E+02 -0.17354088366E+03  0.10962874231E+04  0.11251591549E+04  0.17119018535E+03 0.  0.
         24    2    5    5    0    0 -0.27308383964E+02 -0.10847678146E+03  0.94763599446E+03  0.95763957609E+03  0.80911184315E+02 0.  0.
          4    1    6    6  501    0 -0.18853307907E+02 -0.27267174094E+02  0.58442868764E+03  0.58536812088E+03  0.00000000000E+00 0. -1.
         -3    1    6    6    0  501 -0.84550760573E+01 -0.81209607362E+02  0.36320730682E+03  0.37227145522E+03  0.00000000000E+00 0.  1.
          5    1    5    5  502    0 -0.41353774422E+02 -0.65064102204E+02  0.14865142863E+03  0.16751957882E+03  0.47000000000E+01 0. -1.
         11    1    4    4    0    0 -0.27356548009E+02 -0.42636928443E+01  0.39095939550E+02  0.47906703966E+02  0.00000000000E+00 0. -1.
        -12    1    4    4    0    0  0.52383764118E+02  0.14754166173E+02  0.14430198906E+03  0.15422324147E+03  0.00000000000E+00 0.  1.
         -5    1    3    3    0  504  0.43634942277E+02  0.16305041033E+03  0.31865209302E+03  0.36062541630E+03  0.47000000000E+01 0.  1.
<mgrwt>
<rscale>  2 0.25399491E+03</rscale>
<asrwt>0</asrwt>
<pdfrwt beam="1">  1       21 0.25278857E+00 0.25424274E+03</pdfrwt>
<pdfrwt beam="2">  1       21 0.68905453E-02 0.25424274E+03</pdfrwt>
<totfact> 0.94429892E+03</totfact>
</mgrwt>
</event>
<event>
12    1  0.2736842E-001  0.1889610E+03  0.7546771E-02  0.1159634E+00
         21   -1    0    0  502  503  0.00000000000E+00  0.00000000000E+00  0.84270567905E+03  0.84270567905E+03  0.00000000000E+00 0. -1.
         21   -1    0    0  503  504 -0.00000000000E+00 -0.00000000000E+00 -0.77798638665E+02  0.77798638665E+02  0.00000000000E+00 0. -1.
         -6    2    1    2    0  504 -0.93244939244E+01  0.72470979767E+02  0.71430137142E+02  0.20201115722E+03  0.17426202700E+03 0.  0.
        -24    2    3    3    0    0 -0.66251333877E+02  0.75509282847E+02  0.29514393149E+02  0.13109630696E+03  0.78893924099E+02 0.  0.
          6    2    1    2  502    0  0.93244939244E+01 -0.72470979767E+02  0.69347690324E+03  0.71849316050E+03  0.17315662636E+03 0.  0.
         24    2    5    5    0    0  0.27649483077E+02 -0.16157035103E+02  0.21965382911E+03  0.24096047976E+03  0.93747557117E+02 0.  0.
          2    1    6    6  501    0  0.18976316633E+02 -0.53218928024E+02  0.16461898542E+03  0.17404529655E+03  0.00000000000E+00 0. -1.
         -1    1    6    6    0  501  0.86731664435E+01  0.37061892921E+02  0.55034843696E+02  0.66915183208E+02  0.00000000000E+00 0.  1.
          5    1    5    5  502    0 -0.18324989152E+02 -0.56313944664E+02  0.47382307413E+03  0.47753268074E+03  0.47000000000E+01 0. -1.
         11    1    4    4    0    0  0.16748992346E+02  0.10826426760E+02 -0.46179050478E+01  0.20471084681E+02  0.00000000000E+00 0. -1.
        -12    1    4    4    0    0 -0.83000326223E+02  0.64682856087E+02  0.34132298197E+02  0.11062522228E+03  0.00000000000E+00 0.  1.
         -5    1    3    3    0  504  0.56926839952E+02 -0.30383030793E+01  0.41915743993E+02  0.70914850257E+02  0.47000000000E+01 0.  1.
<mgrwt>
<rscale>  2 0.18870571E+03</rscale>
<asrwt>0</asrwt>
<pdfrwt beam="1">  1       21 0.12964702E+00 0.18896096E+03</pdfrwt>
<pdfrwt beam="2">  1       21 0.11969022E-01 0.18896096E+03</pdfrwt>
<totfact> 0.25716538E+04</totfact>
</mgrwt>
</event>
<event>
12    1  0.2736842E-001  0.1879208E+03  0.7546771E-02  0.1162476E+00
         21   -1    0    0  502  503  0.00000000000E+00  0.00000000000E+00  0.25597487904E+03  0.25597487904E+03  0.00000000000E+00 0. -1.
         21   -1    0    0  503  504 -0.00000000000E+00 -0.00000000000E+00 -0.13423492412E+03  0.13423492412E+03  0.00000000000E+00 0. -1.
         -6    2    1    2    0  504 -0.59370827755E+02 -0.29560919445E+02  0.31024070900E+02  0.18153876468E+03  0.16611769008E+03 0.  0.
        -24    2    3    3    0    0 -0.56792125636E+02  0.16019991696E+02  0.67628670908E+02  0.12283394454E+03  0.83860331120E+02 0.  0.
          6    2    1    2  502    0  0.59370827755E+02  0.29560919445E+02  0.90715884014E+02  0.20867103848E+03  0.17582800557E+03 0.  0.
         24    2    5    5    0    0 -0.74167651783E+01  0.68179435490E+02  0.27928590324E+02  0.10909038474E+03  0.80107815193E+02 0.  0.
          2    1    6    6  501    0  0.10436045432E+02  0.77007806952E+02  0.38297946634E+02  0.86636286232E+02  0.00000000000E+00 0. -1.
         -1    1    6    6    0  501 -0.17852810610E+02 -0.88283714617E+01 -0.10369356310E+02  0.22454098504E+02  0.00000000000E+00 0.  1.
          5    1    5    5  502    0  0.66787592933E+02 -0.38618516045E+02  0.62787293690E+02  0.99580653745E+02  0.47000000000E+01 0. -1.
         11    1    4    4    0    0 -0.36804256934E+02 -0.24788523204E+02  0.38735930935E+01  0.44542439701E+02  0.00000000000E+00 0. -1.
        -12    1    4    4    0    0 -0.19987868702E+02  0.40808514900E+02  0.63755077814E+02  0.78291504843E+02  0.00000000000E+00 0.  1.
         -5    1    3    3    0  504 -0.25787021188E+01 -0.45580911141E+02 -0.36604600008E+02  0.58704820133E+02  0.47000000000E+01 0.  1.
<mgrwt>
<rscale>  2 0.18561558E+03</rscale>
<asrwt>0</asrwt>
<pdfrwt beam="1">  1       21 0.39380750E-01 0.18792081E+03</pdfrwt>
<pdfrwt beam="2">  1       21 0.20651527E-01 0.18792081E+03</pdfrwt>
<totfact> 0.13535347E+05</totfact>
</mgrwt>
</event>
<event>
12    1  0.2736842E-001  0.2176577E+03  0.7546771E-02  0.1136050E+00
         21   -1    0    0  502  503  0.00000000000E+00  0.00000000000E+00  0.34307392615E+03  0.34307392615E+03  0.00000000000E+00 0. -1.
         21   -1    0    0  503  504 -0.00000000000E+00 -0.00000000000E+00 -0.28692217022E+03  0.28692217022E+03  0.00000000000E+00 0.  1.
         -6    2    1    2    0  504  0.84533001367E+02  0.97250643038E+02 -0.19976048857E+03  0.29543043894E+03  0.17541771737E+03 0.  0.
        -24    2    3    3    0    0 -0.16684749536E+02  0.18021590483E+02 -0.53369057656E+02  0.10055915601E+03  0.81613289061E+02 0.  0.
          6    2    1    2  502    0 -0.84533001367E+02 -0.97250643038E+02  0.25591224449E+03  0.33456565743E+03  0.17274138577E+03 0.  0.
         24    2    5    5    0    0 -0.78485822415E+02 -0.13545006013E+03  0.19781866486E+03  0.26461769224E+03  0.79897157465E+02 0.  0.
          2    1    6    6  501    0 -0.16643789749E+02 -0.26914386785E+02  0.11936263375E+01  0.31667407489E+02  0.00000000000E+00 0. -1.
         -1    1    6    6    0  501 -0.61842032666E+02 -0.10853567334E+03  0.19662503852E+03  0.23295028475E+03  0.00000000000E+00 0.  1.
          5    1    5    5  502    0 -0.60471789519E+01  0.38199417089E+02  0.58093579636E+02  0.69947965189E+02  0.47000000000E+01 0. -1.
         11    1    4    4    0    0 -0.36206985241E+02 -0.20628416992E+02 -0.30075303120E+02  0.51390672555E+02  0.00000000000E+00 0. -1.
        -12    1    4    4    0    0  0.19522235706E+02  0.38650007475E+02 -0.23293754536E+02  0.49168483454E+02  0.00000000000E+00 0.  1.
         -5    1    3    3    0  504  0.10121775090E+03  0.79229052555E+02 -0.14639143092E+03  0.19487128293E+03  0.47000000000E+01 0.  1.
<mgrwt>
<rscale>  2 0.21711795E+03</rscale>
<asrwt>0</asrwt>
<pdfrwt beam="1">  1       21 0.52780604E-01 0.21765774E+03</pdfrwt>
<pdfrwt beam="2">  1       21 0.44141873E-01 0.21765774E+03</pdfrwt>
<totfact> 0.16518129E+04</totfact>
</mgrwt>
</event>
<event>
12    1  0.2736842E-001  0.1773605E+03  0.7546771E-02  0.1171179E+00
         21   -1    0    0  502  503  0.00000000000E+00  0.00000000000E+00  0.82447873858E+03  0.82447873858E+03  0.00000000000E+00 0. -1.
         21   -1    0    0  503  504 -0.00000000000E+00 -0.00000000000E+00 -0.40524919499E+02  0.40524919499E+02  0.00000000000E+00 0. -1.
         -6    2    1    2    0  504  0.15099550958E+02 -0.28366339223E+02  0.51404371310E+03  0.54378092259E+03  0.17442507606E+03 0.  0.
        -24    2    3    3    0    0 -0.51002276789E+02 -0.23000500740E+02  0.19262485266E+03  0.21555780077E+03  0.78933999887E+02 0.  0.
          6    2    1    2  502    0 -0.15099550958E+02  0.28366339223E+02  0.26991010599E+03  0.32122273549E+03  0.17117223736E+03 0.  0.
         24    2    5    5    0    0  0.44983151081E+02  0.35975421857E+02  0.99075030372E+02  0.13990935407E+03  0.80256157728E+02 0.  0.
          2    1    6    6  501    0  0.16637765900E+02  0.53261202591E+02  0.30194531812E+02  0.63445099945E+02  0.00000000000E+00 0. -1.
         -1    1    6    6    0  501  0.28345385181E+02 -0.17285780734E+02  0.68880498560E+02  0.76464254123E+02  0.00000000000E+00 0.  1.
          5    1    5    5  502    0 -0.60082702039E+02 -0.76090826344E+01  0.17083507561E+03  0.18131338142E+03  0.47000000000E+01 0. -1.
         13    1    4    4    0    0 -0.49730847748E+02 -0.41045016769E+02  0.18502122636E+03  0.19593546086E+03  0.00000000000E+00 0. -1.
        -14    1    4    4    0    0 -0.12714290407E+01  0.18044516029E+02  0.76036263000E+01  0.19622339907E+02  0.00000000000E+00 0.  1.
         -5    1    3    3    0  504  0.66101827747E+02 -0.53658384823E+01  0.32141886044E+03  0.32822312182E+03  0.47000000000E+01 0.  1.
<mgrwt>
<rscale>  2 0.17655555E+03</rscale>
<asrwt>0</asrwt>
<pdfrwt beam="1">  1       21 0.12684287E+00 0.17736052E+03</pdfrwt>
<pdfrwt beam="2">  1       21 0.62346036E-02 0.17736052E+03</pdfrwt>
<totfact> 0.85507129E+04</totfact>
</mgrwt>
</event>
<event>
12    1  0.2736842E-001  0.1800290E+03  0.7546771E-02  0.1168549E+00
         21   -1    0    0  502  503  0.00000000000E+00  0.00000000000E+00  0.72837433176E+03  0.72837433176E+03  0.00000000000E+00 0.  1.
         21   -1    0    0  503  504 -0.00000000000E+00 -0.00000000000E+00 -0.73359749099E+02  0.73359749099E+02  0.00000000000E+00 0.  1.
         -6    2    1    2    0  504  0.38136645300E+02  0.31795232731E+02  0.70963977373E+02  0.19056671779E+03  0.16974818793E+03 0.  0.
        -24    2    3    3    0    0 -0.17524308613E+02  0.54040072385E+02  0.42922204244E+02  0.12422362680E+03  0.10179274544E+03 0.  0.
          6    2    1    2  502    0 -0.38136645300E+02 -0.31795232731E+02  0.58405060529E+03  0.61116736306E+03  0.17304651282E+03 0.  0.
         24    2    5    5    0    0 -0.54764564697E+02 -0.99822713181E+01  0.16645526742E+03  0.19264585920E+03  0.79412012492E+02 0.  0.
          2    1    6    6  501    0 -0.18875322965E+02  0.33342250986E+02  0.89167271602E+02  0.97050429380E+02  0.00000000000E+00 0. -1.
         -1    1    6    6    0  501 -0.35889241732E+02 -0.43324522305E+02  0.77287995823E+02  0.95595429825E+02  0.00000000000E+00 0.  1.
          5    1    5    5  502    0  0.16627919397E+02 -0.21812961413E+02  0.41759533786E+03  0.41852150386E+03  0.47000000000E+01 0. -1.
         13    1    4    4    0    0 -0.41740368165E+01  0.67206699316E+02 -0.10002892720E+02  0.68075112038E+02  0.00000000000E+00 0. -1.
        -14    1    4    4    0    0 -0.13350271796E+02 -0.13166626931E+02  0.52925096964E+02  0.56148514766E+02  0.00000000000E+00 0.  1.
         -5    1    3    3    0  504  0.55660953912E+02 -0.22244839654E+02  0.28041773129E+02  0.66343090988E+02  0.47000000000E+01 0.  1.
<mgrwt>
<rscale>  2 0.17923169E+03</rscale>
<asrwt>0</asrwt>
<pdfrwt beam="1">  1       21 0.11205758E+00 0.18002899E+03</pdfrwt>
<pdfrwt beam="2">  1       21 0.11286116E-01 0.18002899E+03</pdfrwt>
<totfact> 0.41159505E+04</totfact>
</mgrwt>
</event>
<event>
12    1  0.2736842E-001  0.1917850E+03  0.7546771E-02  0.1156870E+00
         21   -1    0    0  502  503  0.00000000000E+00  0.00000000000E+00  0.14218915938E+03  0.14218915938E+03  0.00000000000E+00 0. -1.
         21   -1    0    0  503  504 -0.00000000000E+00 -0.00000000000E+00 -0.40486531904E+03  0.40486531904E+03  0.00000000000E+00 0. -1.
         -6    2    1    2    0  504 -0.57608866721E+01  0.83989347433E+02 -0.29571940118E+03  0.35244374942E+03  0.17227662051E+03 0.  0.
        -24    2    3    3    0    0 -0.23818760370E+01  0.11371007239E+03 -0.15268156114E+03  0.20623618159E+03  0.79284611317E+02 0.  0.
          6    2    1    2  502    0  0.57608866721E+01 -0.83989347433E+02  0.33043241529E+02  0.19461072900E+03  0.17231970791E+03 0.  0.
         24    2    5    5    0    0  0.33339387778E+02 -0.47599095710E+02  0.80424126604E+02  0.12864208180E+03  0.81875248878E+02 0.  0.
          2    1    6    6  501    0  0.35696258968E+02 -0.37969436340E+02  0.96547446701E+02  0.10971467753E+03  0.00000000000E+00 0. -1.
         -1    1    6    6    0  501 -0.23568711899E+01 -0.96296593698E+01 -0.16123320097E+02  0.18927404268E+02  0.00000000000E+00 0.  1.
          5    1    5    5  502    0 -0.27578501106E+02 -0.36390251724E+02 -0.47380885075E+02  0.65968647207E+02  0.47000000000E+01 0. -1.
         13    1    4    4    0    0  0.26134660854E+02  0.43177642015E+02 -0.22076232317E+02  0.55088014134E+02  0.00000000000E+00 0. -1.
        -14    1    4    4    0    0 -0.28516536891E+02  0.70532430373E+02 -0.13060532882E+03  0.15114816746E+03  0.00000000000E+00 0.  1.
         -5    1    3    3    0  504 -0.33790106350E+01 -0.29720724955E+02 -0.14303784005E+03  0.14620756783E+03  0.47000000000E+01 0.  1.
<mgrwt>
<rscale>  2 0.19177530E+03</rscale>
<asrwt>0</asrwt>
<pdfrwt beam="1">  1       21 0.21875256E-01 0.19178498E+03</pdfrwt>
<pdfrwt beam="2">  1       21 0.62286971E-01 0.19178498E+03</pdfrwt>
<totfact> 0.46665091E+04</totfact>
</mgrwt>
</event>
<event>
12    1  0.2736842E-001  0.1752999E+03  0.7546771E-02  0.1172659E+00
         21   -1    0    0  502  503  0.00000000000E+00  0.00000000000E+00  0.12485996708E+03  0.12485996708E+03  0.00000000000E+00 0.  1.
         21   -1    0    0  503  504 -0.00000000000E+00 -0.00000000000E+00 -0.25880344269E+03  0.25880344269E+03  0.00000000000E+00 0.  1.
         -6    2    1    2    0  504  0.24381076708E+02 -0.13848312931E+02 -0.22586478639E+02  0.17674893686E+03  0.17304284149E+03 0.  0.
        -24    2    3    3    0    0 -0.46735806018E+01 -0.16899601319E+02  0.41057058183E+02  0.10656294644E+03  0.96760222440E+02 0.  0.
          6    2    1    2  502    0 -0.24381076708E+02  0.13848312931E+02 -0.11135699698E+03  0.20691447291E+03  0.17212497103E+03 0.  0.
         24    2    5    5    0    0 -0.30221731517E+02 -0.41582492062E+02 -0.22966833374E+02  0.10231237727E+03  0.85427691088E+02 0.  0.
          4    1    6    6  501    0 -0.36571224601E+02 -0.59473414864E+02 -0.36705282075E+02  0.78878509599E+02  0.00000000000E+00 0. -1.
         -3    1    6    6    0  501  0.63494930844E+01  0.17890922801E+02  0.13738448701E+02  0.23433867667E+02  0.00000000000E+00 0.  1.
          5    1    5    5  502    0  0.58406548088E+01  0.55430804993E+02 -0.88390163607E+02  0.10460209564E+03  0.47000000000E+01 0. -1.
         13    1    4    4    0    0 -0.20640516490E+02  0.28574508487E+02 -0.97094838189E+01  0.36562378647E+02  0.00000000000E+00 0. -1.
        -14    1    4    4    0    0  0.15966935889E+02 -0.45474109806E+02  0.50766542002E+02  0.70000567792E+02  0.00000000000E+00 0.  1.
         -5    1    3    3    0  504  0.29054657310E+02  0.30512883888E+01 -0.63643536821E+02  0.70185990421E+02  0.47000000000E+01 0.  1.
<mgrwt>
<rscale>  2 0.17507291E+03</rscale>
<asrwt>0</asrwt>
<pdfrwt beam="1">  1       21 0.19209226E-01 0.17529985E+03</pdfrwt>
<pdfrwt beam="2">  1       21 0.39815914E-01 0.17529985E+03</pdfrwt>
<totfact> 0.15215630E+05</totfact>
</mgrwt>
</event>
<event>
12    1  0.2736842E-001  0.1873720E+03  0.7546771E-02  0.1161692E+00
         21   -1    0    0  502  503  0.00000000000E+00  0.00000000000E+00  0.27898982180E+03  0.27898982180E+03  0.00000000000E+00 0. -1.
         21   -1    0    0  503  504 -0.00000000000E+00 -0.00000000000E+00 -0.12663996533E+03  0.12663996533E+03  0.00000000000E+00 0. -1.
         -6    2    1    2    0  504 -0.72590412432E+02  0.81816116798E+01  0.10776946445E+03  0.21302742545E+03  0.16861233578E+03 0.  0.
        -24    2    3    3    0    0  0.22979472016E+02 -0.17361509104E+02  0.46705721719E+02  0.96679135778E+02  0.79598697986E+02 0.  0.
          6    2    1    2  502    0  0.72590412432E+02 -0.81816116798E+01  0.44580392024E+02  0.19260236168E+03  0.17254550596E+03 0.  0.
         24    2    5    5    0    0  0.86030287515E+02  0.25443226444E+02  0.77610624343E+02  0.14336471117E+03  0.80507535398E+02 0.  0.
          2    1    6    6  501    0  0.61600036390E+02  0.54730217842E+02  0.52844419469E+02  0.97890213491E+02  0.00000000000E+00 0. -1.
         -1    1    6    6    0  501  0.24430251125E+02 -0.29286991398E+02  0.24766204874E+02  0.45474497678E+02  0.00000000000E+00 0.  1.
          5    1    5    5  502    0 -0.13439875083E+02 -0.33624838124E+02 -0.33030232319E+02  0.49237650514E+02  0.47000000000E+01 0. -1.
         11    1    4    4    0    0 -0.10742938968E+02 -0.31442253625E+02  0.49949397196E+02  0.59991402142E+02  0.00000000000E+00 0. -1.
        -12    1    4    4    0    0  0.33722410984E+02  0.14080744521E+02 -0.32436754767E+01  0.36687733637E+02  0.00000000000E+00 0.  1.
         -5    1    3    3    0  504 -0.95569884448E+02  0.25543120784E+02  0.61063742733E+02  0.11634828967E+03  0.47000000000E+01 0.  1.
<mgrwt>
<rscale>  2 0.18646148E+03</rscale>
<asrwt>0</asrwt>
<pdfrwt beam="1">  1       21 0.42921511E-01 0.18737198E+03</pdfrwt>
<pdfrwt beam="2">  1       21 0.19483072E-01 0.18737198E+03</pdfrwt>
<totfact> 0.12676374E+05</totfact>
</mgrwt>
</event>
<event>
12    1  0.2736842E-001  0.2452877E+03  0.7546771E-02  0.1116969E+00
         21   -1    0    0  502  503  0.00000000000E+00  0.00000000000E+00  0.23608661940E+03  0.23608661940E+03  0.00000000000E+00 0.  1.
         21   -1    0    0  503  504 -0.00000000000E+00 -0.00000000000E+00 -0.47591574616E+03  0.47591574616E+03  0.00000000000E+00 0.  1.
         -6    2    1    2    0  504  0.12788798075E+03 -0.11143206185E+03 -0.36530630980E+03  0.44001679073E+03  0.17718249381E+03 0.  0.
        -24    2    3    3    0    0  0.82071770481E+02 -0.26638404582E+02 -0.89843852179E+02  0.14814225433E+03  0.80179982764E+02 0.  0.
          6    2    1    2  502    0 -0.12788798075E+03  0.11143206185E+03  0.12547718304E+03  0.27198557484E+03  0.17163679509E+03 0.  0.
         24    2    5    5    0    0 -0.14535111989E+03  0.13159146869E+03  0.97766825645E+02  0.23323874504E+03  0.79991857746E+02 0.  0.
          2    1    6    6  501    0 -0.89556298715E+02  0.37025007793E+02  0.71252733813E+02  0.12028355631E+03  0.00000000000E+00 0. -1.
         -1    1    6    6    0  501 -0.55794821173E+02  0.94566460893E+02  0.26514091832E+02  0.11295518873E+03  0.00000000000E+00 0.  1.
          5    1    5    5  502    0  0.17463139142E+02 -0.20159406836E+02  0.27710357396E+02  0.38746829802E+02  0.47000000000E+01 0. -1.
         13    1    4    4    0    0  0.47058253627E+01 -0.38924012082E+02 -0.34544080154E+02  0.52254348935E+02  0.00000000000E+00 0. -1.
        -14    1    4    4    0    0  0.77365945118E+02  0.12285607500E+02 -0.55299772025E+02  0.95887905398E+02  0.00000000000E+00 0.  1.
         -5    1    3    3    0  504  0.45816210265E+02 -0.84793657268E+02 -0.27546245762E+03  0.29187453639E+03  0.47000000000E+01 0.  1.
<mgrwt>
<rscale>  2 0.24428778E+03</rscale>
<asrwt>0</asrwt>
<pdfrwt beam="1">  1       21 0.36321018E-01 0.24528774E+03</pdfrwt>
<pdfrwt beam="2">  1       21 0.73217807E-01 0.24528774E+03</pdfrwt>
<totfact> 0.11873019E+04</totfact>
</mgrwt>
</event>
<event>
12    1  0.2736842E-001  0.2431414E+03  0.7546771E-02  0.1118011E+00
         21   -1    0    0  502  503  0.00000000000E+00  0.00000000000E+00  0.10083870067E+03  0.10083870067E+03  0.00000000000E+00 0.  1.
         21   -1    0    0  503  504 -0.00000000000E+00 -0.00000000000E+00 -0.93371597884E+03  0.93371597884E+03  0.00000000000E+00 0.  1.
         -6    2    1    2    0  504 -0.15697008826E+03  0.67876072811E+02 -0.73297294529E+03  0.77168854431E+03  0.17031471171E+03 0.  0.
        -24    2    3    3    0    0 -0.10190036877E+03 -0.21084122137E+02 -0.33276094044E+03  0.35799985807E+03  0.81276254467E+02 0.  0.
          6    2    1    2  502    0  0.15697008826E+03 -0.67876072811E+02 -0.99904332885E+02  0.26286613520E+03  0.17283217131E+03 0.  0.
         24    2    5    5    0    0  0.14787955268E+03  0.56196154509E+01 -0.65507603771E+02  0.18107689995E+03  0.81225952521E+02 0.  0.
          2    1    6    6  501    0  0.21635730406E+02  0.12263994044E+02 -0.47184348414E+02  0.53337351972E+02  0.00000000000E+00 0. -1.
         -1    1    6    6    0  501  0.12624382228E+03 -0.66443785927E+01 -0.18323255357E+02  0.12773954797E+03  0.00000000000E+00 0.  1.
          5    1    5    5  502    0  0.90905355743E+01 -0.73495688261E+02 -0.34396729114E+02  0.81789235256E+02  0.47000000000E+01 0. -1.
         11    1    4    4    0    0  0.14346923075E+01 -0.95660862953E+01 -0.12788303180E+03  0.12824834569E+03  0.00000000000E+00 0. -1.
        -12    1    4    4    0    0 -0.10333506108E+03 -0.11518035841E+02 -0.20487790864E+03  0.22975151239E+03  0.00000000000E+00 0.  1.
         -5    1    3    3    0  504 -0.55069719486E+02  0.88960194947E+02 -0.40021200485E+03  0.41368868623E+03  0.47000000000E+01 0.  1.
<mgrwt>
<rscale>  2 0.24269440E+03</rscale>
<asrwt>0</asrwt>
<pdfrwt beam="1">  1       21 0.15513646E-01 0.24314138E+03</pdfrwt>
<pdfrwt beam="2">  1       21 0.14364862E+00 0.24314138E+03</pdfrwt>
<totfact> 0.11939786E+04</totfact>
</mgrwt>
</event>
<event>
12    1  0.2736842E-001  0.1989158E+03  0.7546771E-02  0.1150882E+00
         21   -1    0    0  502  503  0.00000000000E+00  0.00000000000E+00  0.17499270861E+03  0.17499270861E+03  0.00000000000E+00 0. -1.
         21   -1    0    0  503  504 -0.00000000000E+00 -0.00000000000E+00 -0.57001286723E+03  0.57001286723E+03  0.00000000000E+00 0. -1.
         -6    2    1    2    0  504 -0.33237549578E+02 -0.90018880310E+02 -0.48756002185E+03  0.52657598837E+03  0.17423938447E+03 0.  0.
        -24    2    3    3    0    0 -0.77936810350E+02 -0.77818553761E+02 -0.43982663254E+03  0.45988687129E+03  0.76932398719E+02 0.  0.
          6    2    1    2  502    0  0.33237549578E+02  0.90018880310E+02  0.92539863238E+02  0.21842958748E+03  0.17303099400E+03 0.  0.
         24    2    5    5    0    0 -0.41472307708E+02  0.21922247440E+02  0.66685936522E+02  0.11398232945E+03  0.79651867878E+02 0.  0.
          4    1    6    6  501    0 -0.57129141190E+02  0.18359746268E+02  0.74878326980E+02  0.95956150962E+02  0.00000000000E+00 0. -1.
         -3    1    6    6    0  501  0.15656833482E+02  0.35625011725E+01 -0.81923904580E+01  0.18026178483E+02  0.00000000000E+00 0.  1.
          5    1    5    5  502    0  0.74709857286E+02  0.68096632869E+02  0.25853926716E+02  0.10444725803E+03  0.47000000000E+01 0. -1.
         11    1    4    4    0    0 -0.43768224169E+02 -0.65699921095E+02 -0.39201210277E+03  0.39988201485E+03  0.00000000000E+00 0. -1.
        -12    1    4    4    0    0 -0.34168586181E+02 -0.12118632666E+02 -0.47814529771E+02  0.60004856441E+02  0.00000000000E+00 0.  1.
         -5    1    3    3    0  504  0.44699260772E+02 -0.12200326549E+02 -0.47733389309E+02  0.66689117076E+02  0.47000000000E+01 0.  1.
<mgrwt>
<rscale>  2 0.19865087E+03</rscale>
<asrwt>0</asrwt>
<pdfrwt beam="1">  1       21 0.26921955E-01 0.19891580E+03</pdfrwt>
<pdfrwt beam="2">  1       21 0.87694288E-01 0.19891580E+03</pdfrwt>
<totfact> 0.14599680E+04</totfact>
</mgrwt>
</event>
<event>
12    1  0.2736842E-001  0.1944149E+03  0.7546771E-02  0.1154560E+00
         21   -1    0    0  502  503  0.00000000000E+00  0.00000000000E+00  0.29200305315E+03  0.29200305315E+03  0.00000000000E+00 0.  1.
         21   -1    0    0  503  504 -0.00000000000E+00 -0.00000000000E+00 -0.18482141981E+03  0.18482141981E+03  0.00000000000E+00 0. -1.
         -6    2    1    2    0  504 -0.86278038665E+02  0.23110059918E+02  0.18418374982E+03  0.26780741061E+03  0.17268231136E+03 0.  0.
        -24    2    3    3    0    0  0.19000720947E+02  0.18555848896E+02  0.10275935328E+03  0.13455434155E+03  0.82704529609E+02 0.  0.
          6    2    1    2  502    0  0.86278038665E+02 -0.23110059918E+02 -0.77002116487E+02  0.20901706235E+03  0.17257123626E+03 0.  0.
         24    2    5    5    0    0  0.98609636502E+02 -0.38536585450E+02 -0.10807687786E+03  0.17189864657E+03  0.81606398869E+02 0.  0.
          4    1    6    6  501    0  0.96767294138E+02 -0.58005983962E+02 -0.99928321440E+02  0.15071255029E+03  0.00000000000E+00 0. -1.
         -3    1    6    6    0  501  0.18423423634E+01  0.19469398512E+02 -0.81485564219E+01  0.21186096280E+02  0.00000000000E+00 0.  1.
          5    1    5    5  502    0 -0.12331597837E+02  0.15426525532E+02  0.31074761375E+02  0.37118415776E+02  0.47000000000E+01 0. -1.
         11    1    4    4    0    0  0.76850529176E+01 -0.28909773852E+02  0.13480786084E+02  0.32811075203E+02  0.00000000000E+00 0. -1.
        -12    1    4    4    0    0  0.11315668029E+02  0.47465622748E+02  0.89278567193E+02  0.10174326634E+03  0.00000000000E+00 0.  1.
         -5    1    3    3    0  504 -0.10527875961E+03  0.45542110224E+01  0.81424396544E+02  0.13325306907E+03  0.47000000000E+01 0.  1.
<mgrwt>
<rscale>  2 0.19439024E+03</rscale>
<asrwt>0</asrwt>
<pdfrwt beam="1">  1       21 0.44923547E-01 0.19441491E+03</pdfrwt>
<pdfrwt beam="2">  1       21 0.28434065E-01 0.19441491E+03</pdfrwt>
<totfact> 0.56192017E+04</totfact>
</mgrwt>
</event>
<event>
12    1  0.2736842E-001  0.2424519E+03  0.7546771E-02  0.1118486E+00
         21   -1    0    0  502  503  0.00000000000E+00  0.00000000000E+00  0.33595032059E+03  0.33595032059E+03  0.00000000000E+00 0. -1.
         21   -1    0    0  503  504 -0.00000000000E+00 -0.00000000000E+00 -0.24403790179E+03  0.24403790179E+03  0.00000000000E+00 0.  1.
         -6    2    1    2    0  504 -0.78679809087E+01  0.16814295529E+03 -0.10997526447E+03  0.26448618196E+03  0.17182672409E+03 0.  0.
        -24    2    3    3    0    0  0.54621780275E+02  0.13600504419E+03 -0.99319161915E+02  0.19325797052E+03  0.77481845098E+02 0.  0.
          6    2    1    2  502    0  0.78679809087E+01 -0.16814295529E+03  0.20188768327E+03  0.31550204042E+03  0.17449625301E+03 0.  0.
         24    2    5    5    0    0 -0.50883593056E+02 -0.66403299730E+02  0.14344758295E+03  0.18420070653E+03  0.79712941067E+02 0.  0.
          2    1    6    6  501    0 -0.33365135972E+02 -0.74388749346E+02  0.14339080219E+03  0.16494799326E+03  0.00000000000E+00 0. -1.
         -1    1    6    6    0  501 -0.17518457084E+02  0.79854496160E+01  0.56780762195E-01  0.19252713270E+02  0.00000000000E+00 0.  1.
          5    1    5    5  502    0  0.58751573965E+02 -0.10173965556E+03  0.58440100327E+02  0.13130133390E+03  0.47000000000E+01 0. -1.
         11    1    4    4    0    0  0.31896928851E+00  0.80358975123E+02 -0.21351322342E+02  0.83147733523E+02  0.00000000000E+00 0. -1.
        -12    1    4    4    0    0  0.54302810987E+02  0.55646069069E+02 -0.77967839573E+02  0.11011023700E+03  0.00000000000E+00 0.  1.
         -5    1    3    3    0  504 -0.62489761184E+02  0.32137911099E+02 -0.10656102556E+02  0.71228211435E+02  0.47000000000E+01 0.  1.
<mgrwt>
<rscale>  2 0.24197189E+03</rscale>
<asrwt>0</asrwt>
<pdfrwt beam="1">  1       21 0.51684664E-01 0.24245185E+03</pdfrwt>
<pdfrwt beam="2">  1       21 0.37544293E-01 0.24245185E+03</pdfrwt>
<totfact> 0.23686445E+04</totfact>
</mgrwt>
</event>
<event>
12    1  0.2736842E-001  0.1811791E+03  0.7546771E-02  0.1166882E+00
         21   -1    0    0  502  503  0.00000000000E+00  0.00000000000E+00  0.11535528969E+04  0.11535528969E+04  0.00000000000E+00 0. -1.
         21   -1    0    0  503  504 -0.00000000000E+00 -0.00000000000E+00 -0.40326736170E+02  0.40326736170E+02  0.00000000000E+00 0. -1.
         -6    2    1    2    0  504  0.44448688730E+02 -0.24969593746E+02  0.23180410428E+03  0.29420909789E+03  0.17385822954E+03 0.  0.
        -24    2    3    3    0    0  0.30979670402E+02 -0.31492259462E+02  0.25231089391E+03  0.26839092514E+03  0.80133632952E+02 0.  0.
          6    2    1    2  502    0 -0.44448688730E+02  0.24969593746E+02  0.88142205650E+03  0.89967053523E+03  0.17292502345E+03 0.  0.
         24    2    5    5    0    0  0.31268783631E+02 -0.23942514397E+02  0.44020162460E+03  0.44931169000E+03  0.80947783491E+02 0.  0.
          4    1    6    6  501    0 -0.20149137387E+01 -0.35109624156E+02  0.36061644286E+03  0.36232715113E+03  0.00000000000E+00 0. -1.
         -3    1    6    6    0  501  0.33283697370E+02  0.11167109759E+02  0.79585181733E+02  0.86984538870E+02  0.00000000000E+00 0.  1.
          5    1    5    5  502    0 -0.75717472362E+02  0.48912108143E+02  0.44122043190E+03  0.45035884522E+03  0.47000000000E+01 0. -1.
         13    1    4    4    0    0 -0.20924912089E+00 -0.16452114225E+02  0.30465919507E+01  0.16733127926E+02  0.00000000000E+00 0. -1.
        -14    1    4    4    0    0  0.31188919522E+02 -0.15040145237E+02  0.24926430196E+03  0.25165779722E+03  0.00000000000E+00 0.  1.
         -5    1    3    3    0  504  0.13469018329E+02  0.65226657160E+01 -0.20506789632E+02  0.25818172743E+02  0.47000000000E+01 0.  1.
<mgrwt>
<rscale>  2 0.18095481E+03</rscale>
<asrwt>0</asrwt>
<pdfrwt beam="1">  1       21 0.17746965E+00 0.18117906E+03</pdfrwt>
<pdfrwt beam="2">  1       21 0.62041141E-02 0.18117906E+03</pdfrwt>
<totfact> 0.35521429E+04</totfact>
</mgrwt>
</event>
<event>
12    1  0.2736842E-001  0.1810535E+03  0.7546771E-02  0.1167650E+00
         21   -1    0    0  502  503  0.00000000000E+00  0.00000000000E+00  0.17422132053E+03  0.17422132053E+03  0.00000000000E+00 0.  1.
         21   -1    0    0  503  504 -0.00000000000E+00 -0.00000000000E+00 -0.21977930689E+03  0.21977930689E+03  0.00000000000E+00 0.  1.
         -6    2    1    2    0  504 -0.53461281380E+02 -0.28633946227E+00  0.56358192957E+02  0.18623327588E+03  0.16925837212E+03 0.  0.
        -24    2    3    3    0    0 -0.63439320932E+01 -0.49771945114E+02 -0.37347143069E+01  0.95117320775E+02  0.80720905753E+02 0.  0.
          6    2    1    2  502    0  0.53461281380E+02  0.28633946227E+00 -0.10191617932E+03  0.20776735155E+03  0.17298027103E+03 0.  0.
         24    2    5    5    0    0  0.26848398682E+02 -0.60648732711E+02 -0.95217006550E+02  0.14077259458E+03  0.79696547955E+02 0.  0.
          2    1    6    6  501    0  0.38479767748E+02 -0.21984165548E+02 -0.89661610395E+02  0.10001600092E+03  0.00000000000E+00 0. -1.
         -1    1    6    6    0  501 -0.11631369066E+02 -0.38664567162E+02 -0.55553961548E+01  0.40756593658E+02  0.00000000000E+00 0.  1.
          5    1    5    5  502    0  0.26612882698E+02  0.60935072173E+02 -0.66991727692E+01  0.66994756974E+02  0.47000000000E+01 0. -1.
         13    1    4    4    0    0 -0.40409377155E+02 -0.43144825599E+02  0.50195067936E+01  0.59326125665E+02  0.00000000000E+00 0. -1.
        -14    1    4    4    0    0  0.34065445062E+02 -0.66271195153E+01 -0.87542211005E+01  0.35791195110E+02  0.00000000000E+00 0.  1.
         -5    1    3    3    0  504 -0.47117349287E+02  0.49485605652E+02  0.60092907264E+02  0.91115955101E+02  0.47000000000E+01 0.  1.
<mgrwt>
<rscale>  2 0.18015874E+03</rscale>
<asrwt>0</asrwt>
<pdfrwt beam="1">  1       21 0.26803280E-01 0.18105349E+03</pdfrwt>
<pdfrwt beam="2">  1       21 0.33812201E-01 0.18105349E+03</pdfrwt>
<totfact> 0.11215333E+05</totfact>
</mgrwt>
</event>
<event>
12    1  0.2736842E-001  0.2544112E+03  0.7546771E-02  0.1112321E+00
         21   -1    0    0  502  503  0.00000000000E+00  0.00000000000E+00  0.43853040176E+02  0.43853040176E+02  0.00000000000E+00 0. -1.
         21   -1    0    0  503  504 -0.00000000000E+00 -0.00000000000E+00 -0.19426039295E+04  0.19426039295E+04  0.00000000000E+00 0. -1.
         -6    2    1    2    0  504  0.15321892272E+03 -0.75612281568E+02 -0.14840653108E+04  0.15057140897E+04  0.18849885343E+03 0.  0.
        -24    2    3    3    0    0  0.21528890714E+02 -0.78507709881E+02 -0.75564014508E+03  0.76546010618E+03  0.91160252592E+02 0.  0.
          6    2    1    2  502    0 -0.15321892272E+03  0.75612281568E+02 -0.41468557845E+03  0.48074287992E+03  0.17307897682E+03 0.  0.
         24    2    5    5    0    0 -0.18181649973E+02  0.52864407570E+02 -0.23092060518E+03  0.25151769325E+03  0.82532455067E+02 0.  0.
          4    1    6    6  501    0 -0.25447825104E+02  0.71727550374E+02 -0.15120445313E+03  0.16927852767E+03  0.00000000000E+00 0. -1.
         -3    1    6    6    0  501  0.72661751308E+01 -0.18863142804E+02 -0.79716152054E+02  0.82239165583E+02  0.00000000000E+00 0.  1.
          5    1    5    5  502    0 -0.13503727274E+03  0.22747873998E+02 -0.18376497327E+03  0.22922518667E+03  0.47000000000E+01 0. -1.
         13    1    4    4    0    0  0.32822059604E+02 -0.93467363177E+02 -0.54035166970E+03  0.54935722670E+03  0.00000000000E+00 0. -1.
        -14    1    4    4    0    0 -0.11293168890E+02  0.14959653296E+02 -0.21528847538E+03  0.21610287948E+03  0.00000000000E+00 0.  1.
         -5    1    3    3    0  504  0.13169003200E+03  0.28954283124E+01 -0.72842516576E+03  0.74025398354E+03  0.47000000000E+01 0.  1.
<mgrwt>
<rscale>  2 0.25156266E+03</rscale>
<asrwt>0</asrwt>
<pdfrwt beam="1">  1       21 0.67466208E-02 0.25441123E+03</pdfrwt>
<pdfrwt beam="2">  1       21 0.29886217E+00 0.25441123E+03</pdfrwt>
<totfact> 0.52502584E+03</totfact>
</mgrwt>
</event>
<event>
12    1  0.2736842E-001  0.2338767E+03  0.7546771E-02  0.1125811E+00
         21   -1    0    0  502  503  0.00000000000E+00  0.00000000000E+00  0.47956884066E+03  0.47956884066E+03  0.00000000000E+00 0.  1.
         21   -1    0    0  503  504 -0.00000000000E+00 -0.00000000000E+00 -0.14584938434E+03  0.14584938434E+03  0.00000000000E+00 0.  1.
         -6    2    1    2    0  504 -0.91619094171E+02 -0.12619689663E+03  0.67064459800E+01  0.22337862734E+03  0.15979148788E+03 0.  0.
        -24    2    3    3    0    0 -0.38457336032E+02 -0.68529062197E+02  0.61183058105E+02  0.12776721104E+03  0.80036832514E+02 0.  0.
          6    2    1    2  502    0  0.91619094171E+02  0.12619689663E+03  0.32701301033E+03  0.40203959766E+03  0.17429461845E+03 0.  0.
         24    2    5    5    0    0  0.24377368037E+02 -0.64343685200E+00  0.16066301878E+03  0.18225713789E+03  0.82525078763E+02 0.  0.
          4    1    6    6  501    0  0.53604659045E+02 -0.11364329030E+02  0.97668581903E+02  0.11198999659E+03  0.00000000000E+00 0. -1.
         -3    1    6    6    0  501 -0.29227291008E+02  0.10720892178E+02  0.62994436872E+02  0.70267141294E+02  0.00000000000E+00 0.  1.
          5    1    5    5  502    0  0.67241726134E+02  0.12684033349E+03  0.16634999156E+03  0.21978245977E+03  0.47000000000E+01 0. -1.
         11    1    4    4    0    0  0.20101342666E+02 -0.26946992429E+02  0.41284523901E+02  0.53241114673E+02  0.00000000000E+00 0. -1.
        -12    1    4    4    0    0 -0.58558678697E+02 -0.41582069768E+02  0.19898534204E+02  0.74526096372E+02  0.00000000000E+00 0.  1.
         -5    1    3    3    0  504 -0.53161758140E+02 -0.57667834438E+02 -0.54476612125E+02  0.95611416295E+02  0.47000000000E+01 0.  1.
<mgrwt>
<rscale>  2 0.23118078E+03</rscale>
<asrwt>0</asrwt>
<pdfrwt beam="1">  1       21 0.73779821E-01 0.23387674E+03</pdfrwt>
<pdfrwt beam="2">  1       21 0.22438367E-01 0.23387674E+03</pdfrwt>
<totfact> 0.30013274E+04</totfact>
</mgrwt>
</event>
<event>
12    1  0.2736842E-001  0.2695249E+03  0.7546771E-02  0.1101683E+00
         21   -1    0    0  502  503  0.00000000000E+00  0.00000000000E+00  0.24507244435E+04  0.24507244435E+04  0.00000000000E+00 0. -1.
         21   -1    0    0  503  504 -0.00000000000E+00 -0.00000000000E+00 -0.55813454521E+02  0.55813454521E+02  0.00000000000E+00 0.  1.
         -6    2    1    2    0  504 -0.11287217946E+03  0.17167882002E+03  0.33653882448E+03  0.43059482155E+03  0.17303113542E+03 0.  0.
        -24    2    3    3    0    0 -0.10424743244E+03  0.57016891736E+02  0.24190014911E+03  0.28159712716E+03  0.81626017733E+02 0.  0.
          6    2    1    2  502    0  0.11287217946E+03 -0.17167882002E+03  0.20583721645E+04  0.20759430765E+04  0.17444180405E+03 0.  0.
         24    2    5    5    0    0 -0.12017722076E+02 -0.55178021293E+02  0.81014195312E+03  0.81607376808E+03  0.80357769177E+02 0.  0.
          4    1    6    6  501    0 -0.29194778976E+02 -0.15836067433E+02  0.11753140066E+03  0.12213413238E+03  0.00000000000E+00 0. -1.
         -3    1    6    6    0  501  0.17177056901E+02 -0.39341953860E+02  0.69261055246E+03  0.69393963570E+03  0.00000000000E+00 0.  1.
          5    1    5    5  502    0  0.12488990154E+03 -0.11650079873E+03  0.12482302114E+04  0.12598693084E+04  0.47000000000E+01 0. -1.
         11    1    4    4    0    0 -0.30054658904E+02 -0.36522254071E+01  0.12085159764E+02  0.32598655782E+02  0.00000000000E+00 0. -1.
        -12    1    4    4    0    0 -0.74192773539E+02  0.60669117143E+02  0.22981498934E+03  0.24899847137E+03  0.00000000000E+00 0.  1.
         -5    1    3    3    0  504 -0.86247470220E+01  0.11466192829E+03  0.94638675371E+02  0.14899769440E+03  0.47000000000E+01 0.  1.
<mgrwt>
<rscale>  2 0.26929693E+03</rscale>
<asrwt>0</asrwt>
<pdfrwt beam="1">  1       21 0.37703445E+00 0.26952493E+03</pdfrwt>
<pdfrwt beam="2">  1       21 0.85866872E-02 0.26952493E+03</pdfrwt>
<totfact> 0.11612607E+03</totfact>
</mgrwt>
</event>
<event>
12    1  0.2736842E-001  0.3747156E+03  0.7546771E-02  0.1053103E+00
         21   -1    0    0  502  503  0.00000000000E+00  0.00000000000E+00  0.14430432477E+04  0.14430432477E+04  0.00000000000E+00 0. -1.
         21   -1    0    0  503  504 -0.00000000000E+00 -0.00000000000E+00 -0.15528122396E+03  0.15528122396E+03  0.00000000000E+00 0.  1.
         -6    2    1    2    0  504 -0.15703736359E+03 -0.28931542431E+03  0.15439552180E+03  0.40527742166E+03  0.17901861091E+03 0.  0.
        -24    2    3    3    0    0 -0.15285654999E+03 -0.23082586209E+03  0.60199951185E+02  0.29422156358E+03  0.79351060925E+02 0.  0.
          6    2    1    2  502    0  0.15703736359E+03  0.28931542431E+03  0.11333665020E+04  0.11930470500E+04  0.17457802695E+03 0.  0.
         24    2    5    5    0    0  0.99060339954E+02  0.13242276158E+03  0.38999387392E+03  0.43107487402E+03  0.79884833204E+02 0.  0.
          2    1    6    6  501    0  0.10226640182E+02  0.34939731526E+02  0.28379598271E+02  0.46160270867E+02  0.00000000000E+00 0. -1.
         -1    1    6    6    0  501  0.88833699772E+02  0.97483030053E+02  0.36161427565E+03  0.38491460315E+03  0.00000000000E+00 0.  1.
          5    1    5    5  502    0  0.57977023635E+02  0.15689266273E+03  0.74337262804E+03  0.76197217601E+03  0.47000000000E+01 0. -1.
         11    1    4    4    0    0 -0.46972888778E+02 -0.14193583080E+03  0.25258098072E+02  0.15162520853E+03  0.00000000000E+00 0. -1.
        -12    1    4    4    0    0 -0.10588366121E+03 -0.88890031292E+02  0.34941853113E+02  0.14259635505E+03  0.00000000000E+00 0.  1.
         -5    1    3    3    0  504 -0.41808136008E+01 -0.58489562223E+02  0.94195570611E+02  0.11105585808E+03  0.47000000000E+01 0.  1.
<mgrwt>
<rscale>  2 0.37418927E+03</rscale>
<asrwt>0</asrwt>
<pdfrwt beam="1">  1       21 0.22200664E+00 0.37471564E+03</pdfrwt>
<pdfrwt beam="2">  1       21 0.23889420E-01 0.37471564E+03</pdfrwt>
<totfact> 0.13990889E+03</totfact>
</mgrwt>
</event>
<event>
12    1  0.2736842E-001  0.2465406E+03  0.7546771E-02  0.1115825E+00
         21   -1    0    0  502  503  0.00000000000E+00  0.00000000000E+00  0.72685744153E+02  0.72685744153E+02  0.00000000000E+00 0. -1.
         21   -1    0    0  503  504 -0.00000000000E+00 -0.00000000000E+00 -0.86528517368E+03  0.86528517368E+03  0.00000000000E+00 0.  1.
         -6    2    1    2    0  504 -0.11798375294E+02 -0.17364383006E+03 -0.48998020718E+03  0.54763688113E+03  0.17185508072E+03 0.  0.
        -24    2    3    3    0    0  0.17118623790E+02 -0.11559153750E+03 -0.15477107682E+03  0.20617895900E+03  0.70008757260E+02 0.  0.
          6    2    1    2  502    0  0.11798375294E+02  0.17364383006E+03 -0.30261922235E+03  0.39033403670E+03  0.17461639413E+03 0.  0.
         24    2    5    5    0    0  0.17572569907E+02  0.97260575564E+02 -0.28718921172E+03  0.31205301654E+03  0.71631187531E+02 0.  0.
          4    1    6    6  501    0  0.82251014295E+01 -0.10656614103E+02 -0.25607043172E+02  0.28929852707E+02  0.00000000000E+00 0. -1.
         -3    1    6    6    0  501  0.93474684779E+01  0.10791718967E+03 -0.26158216855E+03  0.28312316383E+03  0.00000000000E+00 0.  1.
          5    1    5    5  502    0 -0.57741946137E+01  0.76383254495E+02 -0.15430010628E+02  0.78281020169E+02  0.47000000000E+01 0. -1.
         13    1    4    4    0    0 -0.13095241166E+02 -0.82758656476E+02 -0.65405962975E+02  0.10629402879E+03  0.00000000000E+00 0. -1.
        -14    1    4    4    0    0  0.30213864956E+02 -0.32832881025E+02 -0.89365113841E+02  0.99884930214E+02  0.00000000000E+00 0.  1.
         -5    1    3    3    0  504 -0.28916999084E+02 -0.58052292558E+02 -0.33520913036E+03  0.34145792213E+03  0.47000000000E+01 0.  1.
<mgrwt>
<rscale>  2 0.24605215E+03</rscale>
<asrwt>0</asrwt>
<pdfrwt beam="1">  1       21 0.11182422E-01 0.24654060E+03</pdfrwt>
<pdfrwt beam="2">  1       21 0.13312080E+00 0.24654060E+03</pdfrwt>
<totfact> 0.26277285E+04</totfact>
</mgrwt>
</event>
<event>
12    1  0.2736842E-001  0.1939985E+03  0.7546771E-02  0.1155455E+00
         21   -1    0    0  502  503  0.00000000000E+00  0.00000000000E+00  0.75859562337E+02  0.75859562337E+02  0.00000000000E+00 0. -1.
         21   -1    0    0  503  504 -0.00000000000E+00 -0.00000000000E+00 -0.79359477554E+03  0.79359477554E+03  0.00000000000E+00 0. -1.
         -6    2    1    2    0  504  0.54879981131E+02 -0.60861876540E+02 -0.62641996652E+03  0.65503913356E+03  0.17308469514E+03 0.  0.
        -24    2    3    3    0    0 -0.20445150623E+02 -0.31961303106E+02 -0.46068854293E+03  0.47065336028E+03  0.88550115100E+02 0.  0.
          6    2    1    2  502    0 -0.54879981131E+02  0.60861876540E+02 -0.91315246685E+02  0.21441520432E+03  0.17583920275E+03 0.  0.
         24    2    5    5    0    0 -0.24240553527E+02 -0.36873813838E+02 -0.37498585662E+02  0.98616401647E+02  0.79823356012E+02 0.  0.
          2    1    6    6  501    0 -0.45151014187E+02 -0.20396851833E+02  0.35711924488E+01  0.49672920815E+02  0.00000000000E+00 0. -1.
         -1    1    6    6    0  501  0.20910460660E+02 -0.16476962005E+02 -0.41069778111E+02  0.48943480832E+02  0.00000000000E+00 0.  1.
          5    1    5    5  502    0 -0.30639427604E+02  0.97735690378E+02 -0.53816661023E+02  0.11579880268E+03  0.47000000000E+01 0. -1.
         11    1    4    4    0    0  0.27509919758E+02 -0.36916110451E+01 -0.28519217793E+03  0.28653970411E+03  0.00000000000E+00 0. -1.
        -12    1    4    4    0    0 -0.47955070381E+02 -0.28269692061E+02 -0.17549636500E+03  0.18411365618E+03  0.00000000000E+00 0.  1.
         -5    1    3    3    0  504  0.75325131754E+02 -0.28900573434E+02 -0.16573142360E+03  0.18438577327E+03  0.47000000000E+01 0.  1.
<mgrwt>
<rscale>  2 0.19337216E+03</rscale>
<asrwt>0</asrwt>
<pdfrwt beam="1">  1       21 0.11670701E-01 0.19399847E+03</pdfrwt>
<pdfrwt beam="2">  1       21 0.12209151E+00 0.19399847E+03</pdfrwt>
<totfact> 0.31177722E+04</totfact>
</mgrwt>
</event>
<event>
12    1  0.2736842E-001  0.2145641E+03  0.7546771E-02  0.1138030E+00
         21   -1    0    0  502  503  0.00000000000E+00  0.00000000000E+00  0.12763132936E+03  0.12763132936E+03  0.00000000000E+00 0. -1.
         21   -1    0    0  503  504 -0.00000000000E+00 -0.00000000000E+00 -0.36597121092E+03  0.36597121092E+03  0.00000000000E+00 0.  1.
         -6    2    1    2    0  504 -0.25361044365E+01 -0.12733970433E+03 -0.14948468005E+03  0.26150226640E+03  0.17267290939E+03 0.  0.
        -24    2    3    3    0    0  0.20380155995E+02 -0.12476079699E+03 -0.50560169936E+02  0.15981669979E+03  0.83692529673E+02 0.  0.
          6    2    1    2  502    0  0.25361044365E+01  0.12733970433E+03 -0.88855201509E+02  0.23210027389E+03  0.17249190758E+03 0.  0.
         24    2    5    5    0    0  0.48267840425E+02  0.18770871451E+02 -0.27583106170E+02  0.99228370101E+02  0.80020695152E+02 0.  0.
          2    1    6    6  501    0  0.82363476227E+01  0.45739404997E+02 -0.18970805697E+02  0.50197829241E+02  0.00000000000E+00 0. -1.
         -1    1    6    6    0  501  0.40031492802E+02 -0.26968533546E+02 -0.86123004730E+01  0.49030540860E+02  0.00000000000E+00 0.  1.
          5    1    5    5  502    0 -0.45731735988E+02  0.10856883288E+03 -0.61272095339E+02  0.13287190379E+03  0.47000000000E+01 0. -1.
         11    1    4    4    0    0 -0.30367552202E+02 -0.44852259378E+02 -0.33334651889E+02  0.63601198217E+02  0.00000000000E+00 0. -1.
        -12    1    4    4    0    0  0.50747708197E+02 -0.79908537611E+02 -0.17225518047E+02  0.96215501570E+02  0.00000000000E+00 0.  1.
         -5    1    3    3    0  504 -0.22916260432E+02 -0.25789073377E+01 -0.98924510114E+02  0.10168556661E+03  0.47000000000E+01 0.  1.
<mgrwt>
<rscale>  2 0.21452771E+03</rscale>
<asrwt>0</asrwt>
<pdfrwt beam="1">  1       21 0.19635590E-01 0.21456413E+03</pdfrwt>
<pdfrwt beam="2">  1       21 0.56303262E-01 0.21456413E+03</pdfrwt>
<totfact> 0.70223061E+04</totfact>
</mgrwt>
</event>
<event>
12    1  0.2736842E-001  0.2489648E+03  0.7546771E-02  0.1114075E+00
         21   -1    0    0  502  503  0.00000000000E+00  0.00000000000E+00  0.19114779678E+03  0.19114779678E+03  0.00000000000E+00 0. -1.
         21   -1    0    0  503  504 -0.00000000000E+00 -0.00000000000E+00 -0.41511491393E+03  0.41511491393E+03  0.00000000000E+00 0.  1.
         -6    2    1    2    0  504 -0.14051805114E+03  0.11026461658E+03 -0.25438922645E+03  0.35544606300E+03  0.17240770516E+03 0.  0.
        -24    2    3    3    0    0 -0.16695613282E+02  0.36446933890E+02 -0.37368899560E+02  0.94867939052E+02  0.77436223519E+02 0.  0.
          6    2    1    2  502    0  0.14051805114E+03 -0.11026461658E+03  0.30422109304E+02  0.25081664771E+03  0.17343551445E+03 0.  0.
         24    2    5    5    0    0  0.30984646885E+02 -0.10669854196E+03  0.39484084397E+01  0.13797503140E+03  0.81712252208E+02 0.  0.
          4    1    6    6  501    0  0.17499181395E+02 -0.11840630101E+03  0.68222513609E+01  0.11988668226E+03  0.00000000000E+00 0. -1.
         -3    1    6    6    0  501  0.13485465490E+02  0.11707759052E+02 -0.28738429212E+01  0.18088349141E+02  0.00000000000E+00 0.  1.
          5    1    5    5  502    0  0.10953340425E+03 -0.35660746164E+01  0.26473700864E+02  0.11284161631E+03  0.47000000000E+01 0. -1.
         11    1    4    4    0    0 -0.36079373926E+02  0.31647831490E+02  0.47776996257E+01  0.48229999737E+02  0.00000000000E+00 0. -1.
        -12    1    4    4    0    0  0.19383760645E+02  0.47991024004E+01 -0.42146599186E+02  0.46637939315E+02  0.00000000000E+00 0.  1.
         -5    1    3    3    0  504 -0.12382243785E+03  0.73817682687E+02 -0.21702032689E+03  0.26057812394E+03  0.47000000000E+01 0.  1.
<mgrwt>
<rscale>  2 0.24878591E+03</rscale>
<asrwt>0</asrwt>
<pdfrwt beam="1">  1       21 0.29407353E-01 0.24896483E+03</pdfrwt>
<pdfrwt beam="2">  1       21 0.63863833E-01 0.24896483E+03</pdfrwt>
<totfact> 0.24354725E+04</totfact>
</mgrwt>
</event>
<event>
12    1  0.2736842E-001  0.1831232E+03  0.7546771E-02  0.1165030E+00
         21   -1    0    0  502  503  0.00000000000E+00  0.00000000000E+00  0.66446906462E+03  0.66446906462E+03  0.00000000000E+00 0. -1.
         21   -1    0    0  503  504 -0.00000000000E+00 -0.00000000000E+00 -0.50316328489E+02  0.50316328489E+02  0.00000000000E+00 0. -1.
         -6    2    1    2    0  504  0.57870153510E+02 -0.31345929178E+01  0.29039521504E+03  0.34282700834E+03  0.17274894034E+03 0.  0.
        -24    2    3    3    0    0  0.10532489199E+03  0.11819108748E+02  0.22374000944E+03  0.25951691392E+03  0.77822956657E+02 0.  0.
          6    2    1    2  502    0 -0.57870153510E+02  0.31345929178E+01  0.32375752109E+03  0.37195838477E+03  0.17371046945E+03 0.  0.
         24    2    5    5    0    0  0.21447385173E+01 -0.46325230736E+02  0.10423223689E+03  0.13901740121E+03  0.79440869361E+02 0.  0.
          2    1    6    6  501    0 -0.92365999809E+01 -0.67349814494E+02  0.79883133875E+02  0.10489340956E+03  0.00000000000E+00 0. -1.
         -1    1    6    6    0  501  0.11381338498E+02  0.21024583757E+02  0.24349103019E+02  0.34123991648E+02  0.00000000000E+00 0.  1.
          5    1    5    5  502    0 -0.60014892028E+02  0.49459823654E+02  0.21952528420E+03  0.23294098356E+03  0.47000000000E+01 0. -1.
         11    1    4    4    0    0  0.76225671618E+02  0.43591774445E+02  0.13815605115E+03  0.16370000086E+03  0.00000000000E+00 0. -1.
        -12    1    4    4    0    0  0.29099220377E+02 -0.31772665697E+02  0.85583958295E+02  0.95816913066E+02  0.00000000000E+00 0.  1.
         -5    1    3    3    0  504 -0.47454738484E+02 -0.14953701666E+02  0.66655205604E+02  0.83310094420E+02  0.47000000000E+01 0.  1.
<mgrwt>
<rscale>  2 0.18289481E+03</rscale>
<asrwt>0</asrwt>
<pdfrwt beam="1">  1       21 0.10222600E+00 0.18312320E+03</pdfrwt>
<pdfrwt beam="2">  1       21 0.77409741E-02 0.18312320E+03</pdfrwt>
<totfact> 0.99378483E+04</totfact>
</mgrwt>
</event>
<event>
12    1  0.2736842E-001  0.1951687E+03  0.7546771E-02  0.1153968E+00
         21   -1    0    0  502  503  0.00000000000E+00  0.00000000000E+00  0.21231151958E+03  0.21231151958E+03  0.00000000000E+00 0. -1.
         21   -1    0    0  503  504 -0.00000000000E+00 -0.00000000000E+00 -0.23241484478E+03  0.23241484478E+03  0.00000000000E+00 0.  1.
         -6    2    1    2    0  504 -0.72563010003E+02 -0.53943529205E+02 -0.11662197381E+03  0.22735764166E+03  0.17296102937E+03 0.  0.
        -24    2    3    3    0    0  0.29033297644E+01  0.18756799941E+02 -0.83105703099E+02  0.11723981069E+03  0.80488312532E+02 0.  0.
          6    2    1    2  502    0  0.72563010003E+02  0.53943529205E+02  0.96518648598E+02  0.21736872270E+03  0.17250512259E+03 0.  0.
         24    2    5    5    0    0  0.47150591311E+02  0.98995429740E+02  0.57151455183E+02  0.15219717459E+03  0.88737916105E+02 0.  0.
          4    1    6    6  501    0  0.82592394686E+01  0.22338684637E+02  0.61681408679E+02  0.66119800700E+02  0.00000000000E+00 0. -1.
         -3    1    6    6    0  501  0.38891351843E+02  0.76656745103E+02 -0.45299534966E+01  0.86077373895E+02  0.00000000000E+00 0.  1.
          5    1    5    5  502    0  0.25412418692E+02 -0.45051900535E+02  0.39367193415E+02  0.65171548110E+02  0.47000000000E+01 0. -1.
         13    1    4    4    0    0 -0.26987112040E+01  0.15837579587E+02  0.13159608885E+02  0.20767457123E+02  0.00000000000E+00 0. -1.
        -14    1    4    4    0    0  0.56020409684E+01  0.29192203532E+01 -0.96265311984E+02  0.96472353563E+02  0.00000000000E+00 0.  1.
         -5    1    3    3    0  504 -0.75466339768E+02 -0.72700329145E+02 -0.33516270706E+02  0.11011783097E+03  0.47000000000E+01 0.  1.
<mgrwt>
<rscale>  2 0.19506762E+03</rscale>
<asrwt>0</asrwt>
<pdfrwt beam="1">  1       21 0.32663311E-01 0.19516868E+03</pdfrwt>
<pdfrwt beam="2">  1       21 0.35756130E-01 0.19516868E+03</pdfrwt>
<totfact> 0.67963283E+04</totfact>
</mgrwt>
</event>
<event>
12    1  0.2736842E-001  0.2103795E+03  0.7546771E-02  0.1142773E+00
         21   -1    0    0  502  503  0.00000000000E+00  0.00000000000E+00  0.30169736041E+03  0.30169736041E+03  0.00000000000E+00 0.  1.
         21   -1    0    0  503  504 -0.00000000000E+00 -0.00000000000E+00 -0.37206052153E+03  0.37206052153E+03  0.00000000000E+00 0.  1.
         -6    2    1    2    0  504  0.91136114153E+02  0.53050841610E+02 -0.30058197023E+03  0.36689106254E+03  0.18204215953E+03 0.  0.
        -24    2    3    3    0    0  0.85466027277E+02  0.99304759323E+02 -0.17368949624E+03  0.23163070344E+03  0.79491286496E+02 0.  0.
          6    2    1    2  502    0 -0.91136114153E+02 -0.53050841610E+02  0.23021880910E+03  0.30686681941E+03  0.17333886377E+03 0.  0.
         24    2    5    5    0    0 -0.83490692344E+02  0.29106354260E+02  0.14815336029E+03  0.19039757370E+03  0.80522930514E+02 0.  0.
          2    1    6    6  501    0  0.12480665451E+00  0.30318498435E+02  0.16739412419E+02  0.34632857985E+02  0.00000000000E+00 0. -1.
         -1    1    6    6    0  501 -0.83615498998E+02 -0.12121441757E+01  0.13141394787E+03  0.15576471571E+03  0.00000000000E+00 0.  1.
          5    1    5    5  502    0 -0.76454218094E+01 -0.82157195870E+02  0.82065448814E+02  0.11646924571E+03  0.47000000000E+01 0. -1.
         13    1    4    4    0    0  0.14517076650E+02 -0.13574972402E+02 -0.20645498988E+02  0.28657669456E+02  0.00000000000E+00 0. -1.
        -14    1    4    4    0    0  0.70948950627E+02  0.11287973173E+03 -0.15304399726E+03  0.20297303399E+03  0.00000000000E+00 0.  1.
         -5    1    3    3    0  504  0.56700868759E+01 -0.46253917713E+02 -0.12689247398E+03  0.13526035909E+03  0.47000000000E+01 0.  1.
<mgrwt>
<rscale>  2 0.20848298E+03</rscale>
<asrwt>0</asrwt>
<pdfrwt beam="1">  1       21 0.46414979E-01 0.21037949E+03</pdfrwt>
<pdfrwt beam="2">  1       21 0.57240080E-01 0.21037949E+03</pdfrwt>
<totfact> 0.12595464E+04</totfact>
</mgrwt>
</event>
<event>
12    1  0.2736842E-001  0.2536109E+03  0.7546771E-02  0.1111264E+00
         21   -1    0    0  502  503  0.00000000000E+00  0.00000000000E+00  0.14341903788E+04  0.14341903788E+04  0.00000000000E+00 0. -1.
         21   -1    0    0  503  504 -0.00000000000E+00 -0.00000000000E+00 -0.46383475623E+02  0.46383475623E+02  0.00000000000E+00 0.  1.
         -6    2    1    2    0  504  0.18258113138E+03  0.11253860675E+02  0.84104971894E+03  0.87845495514E+03  0.17565864502E+03 0.  0.
        -24    2    3    3    0    0  0.16003896595E+03  0.68871007763E+02  0.63323166884E+03  0.66157176813E+03  0.79618915060E+02 0.  0.
          6    2    1    2  502    0 -0.18258113138E+03 -0.11253860675E+02  0.54675718421E+03  0.60211889925E+03  0.17361230208E+03 0.  0.
         24    2    5    5    0    0 -0.12089174427E+02 -0.19294591180E+01  0.17556046834E+03  0.19350717191E+03  0.80459160973E+02 0.  0.
          4    1    6    6  501    0  0.19860404991E+02 -0.16394772942E+02  0.14412977323E+03  0.14641248511E+03  0.00000000000E+00 0. -1.
         -3    1    6    6    0  501 -0.31949579418E+02  0.14465313824E+02  0.31430695117E+02  0.47094686797E+02  0.00000000000E+00 0.  1.
          5    1    5    5  502    0 -0.17049195696E+03 -0.93244015574E+01  0.37119671586E+03  0.40861172734E+03  0.47000000000E+01 0. -1.
         11    1    4    4    0    0  0.96593578328E+02  0.10982321210E+00  0.36158819628E+03  0.37426775859E+03  0.00000000000E+00 0. -1.
        -12    1    4    4    0    0  0.63445387621E+02  0.68761184550E+02  0.27164347256E+03  0.28730400954E+03  0.00000000000E+00 0.  1.
         -5    1    3    3    0  504  0.22542165435E+02 -0.57617147087E+02  0.20781805010E+03  0.21688318701E+03  0.47000000000E+01 0.  1.
<mgrwt>
<rscale>  2 0.25325688E+03</rscale>
<asrwt>0</asrwt>
<pdfrwt beam="1">  1       21 0.22064464E+00 0.25361088E+03</pdfrwt>
<pdfrwt beam="2">  1       21 0.71359204E-02 0.25361088E+03</pdfrwt>
<totfact> 0.13931115E+04</totfact>
</mgrwt>
</event>
<event>
12    1  0.2736842E-001  0.1825144E+03  0.7546771E-02  0.1165404E+00
         21   -1    0    0  502  503  0.00000000000E+00  0.00000000000E+00  0.10031238647E+03  0.10031238647E+03  0.00000000000E+00 0. -1.
         21   -1    0    0  503  504 -0.00000000000E+00 -0.00000000000E+00 -0.10583115262E+04  0.10583115262E+04  0.00000000000E+00 0. -1.
         -6    2    1    2    0  504  0.31721163973E+02  0.47803576168E+02 -0.95890224653E+03  0.97610728670E+03  0.17320653168E+03 0.  0.
        -24    2    3    3    0    0 -0.96502990449E+01  0.63526753642E+02 -0.87666050773E+03  0.88259466797E+03  0.79441333126E+02 0.  0.
          6    2    1    2  502    0 -0.31721163973E+02 -0.47803576168E+02  0.90310683119E+00  0.18251662595E+03  0.17326306302E+03 0.  0.
         24    2    5    5    0    0  0.70914206993E+01  0.20502079367E+01  0.56840012619E+02  0.98001278536E+02  0.79491961607E+02 0.  0.
          4    1    6    6  501    0  0.66734549613E+01 -0.38511373030E+02  0.24562112923E+02  0.46162303289E+02  0.00000000000E+00 0. -1.
         -3    1    6    6    0  501  0.41796573796E+00  0.40561580966E+02  0.32277899696E+02  0.51838975247E+02  0.00000000000E+00 0.  1.
          5    1    5    5  502    0 -0.38812584672E+02 -0.49853784105E+02 -0.55936905788E+02  0.84515347409E+02  0.47000000000E+01 0. -1.
         11    1    4    4    0    0 -0.18004028382E+02  0.90226155016E+01 -0.60802537583E+03  0.60835878418E+03  0.00000000000E+00 0. -1.
        -12    1    4    4    0    0  0.83537293372E+01  0.54504138141E+02 -0.26863513190E+03  0.27423588379E+03  0.00000000000E+00 0.  1.
         -5    1    3    3    0  504  0.41371463018E+02 -0.15723177474E+02 -0.82241738795E+02  0.93512618733E+02  0.47000000000E+01 0.  1.
<mgrwt>
<rscale>  2 0.18250097E+03</rscale>
<asrwt>0</asrwt>
<pdfrwt beam="1">  1       21 0.15432675E-01 0.18251439E+03</pdfrwt>
<pdfrwt beam="2">  1       21 0.16281716E+00 0.18251439E+03</pdfrwt>
<totfact> 0.90151168E+03</totfact>
</mgrwt>
</event>
<event>
12    1  0.2736842E-001  0.2357260E+03  0.7546771E-02  0.1122712E+00
         21   -1    0    0  502  503  0.00000000000E+00  0.00000000000E+00  0.24605684957E+03  0.24605684957E+03  0.00000000000E+00 0.  1.
         21   -1    0    0  503  504 -0.00000000000E+00 -0.00000000000E+00 -0.41843197902E+03  0.41843197902E+03  0.00000000000E+00 0. -1.
         -6    2    1    2    0  504  0.17482506244E+01 -0.16142592227E+03 -0.31174832175E+03  0.39083723699E+03  0.17177119941E+03 0.  0.
        -24    2    3    3    0    0  0.29653829993E+02 -0.68723926390E+02 -0.25777993111E+03  0.27990005392E+03  0.79317208785E+02 0.  0.
          6    2    1    2  502    0 -0.17482506244E+01  0.16142592227E+03  0.13937319230E+03  0.27365159159E+03  0.17146113872E+03 0.  0.
         24    2    5    5    0    0 -0.36612197180E+02  0.27081515881E+02  0.32366032194E+02  0.98333205193E+02  0.80919699201E+02 0.  0.
          2    1    6    6  501    0 -0.64713214670E+01 -0.27405260776E+02  0.64102459460E-02  0.28158948148E+02  0.00000000000E+00 0. -1.
         -1    1    6    6    0  501 -0.30140875713E+02  0.54486776657E+02  0.32359621948E+02  0.70174257045E+02  0.00000000000E+00 0.  1.
          5    1    5    5  502    0  0.34863946556E+02  0.13434440639E+03  0.10700716010E+03  0.17531838640E+03  0.47000000000E+01 0. -1.
         13    1    4    4    0    0  0.43928666420E+02 -0.58498529257E+02 -0.11671774974E+03  0.13774918789E+03  0.00000000000E+00 0. -1.
        -14    1    4    4    0    0 -0.14274836427E+02 -0.10225397133E+02 -0.14106218137E+03  0.14215086603E+03  0.00000000000E+00 0.  1.
         -5    1    3    3    0  504 -0.27905579368E+02 -0.92701995878E+02 -0.53968390637E+02  0.11093718307E+03  0.47000000000E+01 0.  1.
<mgrwt>
<rscale>  2 0.23566948E+03</rscale>
<asrwt>0</asrwt>
<pdfrwt beam="1">  1       21 0.37854900E-01 0.23572596E+03</pdfrwt>
<pdfrwt beam="2">  1       21 0.64374150E-01 0.23572596E+03</pdfrwt>
<totfact> 0.14597067E+04</totfact>
</mgrwt>
</event>
<event>
12    1  0.2736842E-001  0.1907716E+03  0.7546771E-02  0.1158231E+00
         21   -1    0    0  502  503  0.00000000000E+00  0.00000000000E+00  0.16842924816E+03  0.16842924816E+03  0.00000000000E+00 0. -1.
         21   -1    0    0  503  504 -0.00000000000E+00 -0.00000000000E+00 -0.21513436453E+03  0.21513436453E+03  0.00000000000E+00 0. -1.
         -6    2    1    2    0  504 -0.84733558562E+02  0.35518313244E+01 -0.38833966425E+02  0.19468409746E+03  0.17088425733E+03 0.  0.
        -24    2    3    3    0    0  0.46837233635E+01  0.42275987643E+02 -0.21936154811E+02  0.95675832010E+02  0.82846083474E+02 0.  0.
          6    2    1    2  502    0  0.84733558562E+02 -0.35518313244E+01 -0.78711499422E+01  0.18887951523E+03  0.16858566018E+03 0.  0.
         24    2    5    5    0    0  0.12173174350E+03  0.13992768548E+02 -0.33640078137E+01  0.14741768937E+03  0.81891657946E+02 0.  0.
          4    1    6    6  501    0  0.70426365113E+02 -0.28052777007E+02 -0.21223036623E+02  0.78722604659E+02  0.00000000000E+00 0. -1.
         -3    1    6    6    0  501  0.51305378392E+02  0.42045545554E+02  0.17859028809E+02  0.68695084707E+02  0.00000000000E+00 0.  1.
          5    1    5    5  502    0 -0.36998184942E+02 -0.17544599872E+02 -0.45071421285E+01  0.41461825862E+02  0.47000000000E+01 0. -1.
         11    1    4    4    0    0 -0.31819731201E+02  0.42507117788E+02 -0.19180699536E-01  0.53097558553E+02  0.00000000000E+00 0. -1.
        -12    1    4    4    0    0  0.36503454565E+02 -0.23113014504E+00 -0.21916974112E+02  0.42578273456E+02  0.00000000000E+00 0.  1.
         -5    1    3    3    0  504 -0.89417281926E+02 -0.38724156319E+02 -0.16897811614E+02  0.99008265448E+02  0.47000000000E+01 0.  1.
<mgrwt>
<rscale>  2 0.19025550E+03</rscale>
<asrwt>0</asrwt>
<pdfrwt beam="1">  1       21 0.25912192E-01 0.19077165E+03</pdfrwt>
<pdfrwt beam="2">  1       21 0.33097594E-01 0.19077165E+03</pdfrwt>
<totfact> 0.12439484E+05</totfact>
</mgrwt>
</event>
<event>
12    1  0.2736842E-001  0.2816449E+03  0.7546771E-02  0.1095011E+00
         21   -1    0    0  502  503  0.00000000000E+00  0.00000000000E+00  0.57662018562E+03  0.57662018562E+03  0.00000000000E+00 0.  1.
         21   -1    0    0  503  504 -0.00000000000E+00 -0.00000000000E+00 -0.81088540910E+03  0.81088540910E+03  0.00000000000E+00 0.  1.
         -6    2    1    2    0  504  0.18104269240E+03  0.12712997600E+03 -0.74961382343E+03  0.80021689606E+03  0.17171985675E+03 0.  0.
        -24    2    3    3    0    0  0.85662837497E+02  0.14674404173E+02 -0.46407558699E+03  0.47881722770E+03  0.79663838956E+02 0.  0.
          6    2    1    2  502    0 -0.18104269240E+03 -0.12712997600E+03  0.51534859996E+03  0.58728869866E+03  0.17431393754E+03 0.  0.
         24    2    5    5    0    0 -0.13808240721E+03 -0.11480382329E+03  0.50360751106E+03  0.54084019693E+03  0.81491867062E+02 0.  0.
          4    1    6    6  501    0 -0.28672571470E+02 -0.74571156472E+02  0.22803361295E+03  0.24162430004E+03  0.00000000000E+00 0. -1.
         -3    1    6    6    0  501 -0.10940983574E+03 -0.40232666822E+02  0.27557389811E+03  0.29921589689E+03  0.00000000000E+00 0.  1.
          5    1    5    5  502    0 -0.42960285189E+02 -0.12326152701E+02  0.11741088900E+02  0.46448501725E+02  0.47000000000E+01 0. -1.
         13    1    4    4    0    0  0.34854914736E+01  0.54471393609E-01 -0.23471921495E+03  0.23474509895E+03  0.00000000000E+00 0. -1.
        -14    1    4    4    0    0  0.82177346024E+02  0.14619932779E+02 -0.22935637204E+03  0.24407212875E+03  0.00000000000E+00 0.  1.
         -5    1    3    3    0  504  0.95379854900E+02  0.11245557182E+03 -0.28553823644E+03  0.32139966836E+03  0.47000000000E+01 0.  1.
<mgrwt>
<rscale>  2 0.28124450E+03</rscale>
<asrwt>0</asrwt>
<pdfrwt beam="1">  1       21 0.88710798E-01 0.28164488E+03</pdfrwt>
<pdfrwt beam="2">  1       21 0.12475160E+00 0.28164488E+03</pdfrwt>
<totfact> 0.47917742E+02</totfact>
</mgrwt>
</event>
<event>
12    1  0.2736842E-001  0.1839907E+03  0.7546771E-02  0.1164026E+00
         21   -1    0    0  502  503  0.00000000000E+00  0.00000000000E+00  0.26520402278E+03  0.26520402278E+03  0.00000000000E+00 0.  1.
         21   -1    0    0  503  504 -0.00000000000E+00 -0.00000000000E+00 -0.21232015812E+03  0.21232015812E+03  0.00000000000E+00 0.  1.
         -6    2    1    2    0  504 -0.48621453458E+02  0.38706841392E+02 -0.12442336837E+03  0.22200427072E+03  0.17303888671E+03 0.  0.
        -24    2    3    3    0    0 -0.51863992028E+02  0.74505778540E+02 -0.30701747690E+02  0.12151591249E+03  0.74716363477E+02 0.  0.
          6    2    1    2  502    0  0.48621453458E+02 -0.38706841392E+02  0.17730723303E+03  0.25551991018E+03  0.17317708944E+03 0.  0.
         24    2    5    5    0    0  0.20920110309E+02  0.41709573350E+01  0.14112506572E+02  0.84462964169E+02  0.80497090470E+02 0.  0.
          2    1    6    6  501    0  0.35955621782E+02  0.69226807569E+01 -0.23741555172E+02  0.43639336482E+02  0.00000000000E+00 0. -1.
         -1    1    6    6    0  501 -0.15035511474E+02 -0.27517234219E+01  0.37854061744E+02  0.40823627687E+02  0.00000000000E+00 0.  1.
          5    1    5    5  502    0  0.27701343149E+02 -0.42877798727E+02  0.16319472646E+03  0.17105694601E+03  0.47000000000E+01 0. -1.
         13    1    4    4    0    0 -0.10669224437E+01  0.62631014088E+02 -0.29737370007E+02  0.69340416960E+02  0.00000000000E+00 0. -1.
        -14    1    4    4    0    0 -0.50797069584E+02  0.11874764452E+02 -0.96437768303E+00  0.52175495526E+02  0.00000000000E+00 0.  1.
         -5    1    3    3    0  504  0.32425385702E+01 -0.35798937149E+02 -0.93721620682E+02  0.10048835823E+03  0.47000000000E+01 0.  1.
<mgrwt>
<rscale>  2 0.18395815E+03</rscale>
<asrwt>0</asrwt>
<pdfrwt beam="1">  1       21 0.40800619E-01 0.18399068E+03</pdfrwt>
<pdfrwt beam="2">  1       21 0.32664640E-01 0.18399068E+03</pdfrwt>
<totfact> 0.52406861E+04</totfact>
</mgrwt>
</event>
<event>
12    1  0.2736842E-001  0.1904830E+03  0.7546771E-02  0.1158189E+00
         21   -1    0    0  502  503  0.00000000000E+00  0.00000000000E+00  0.80184687708E+02  0.80184687708E+02  0.00000000000E+00 0. -1.
         21   -1    0    0  503  504 -0.00000000000E+00 -0.00000000000E+00 -0.13787781928E+04  0.13787781928E+04  0.00000000000E+00 0. -1.
         -6    2    1    2    0  504  0.26098491965E+02  0.74561640630E+02 -0.12481639235E+04  0.12626151215E+04  0.17332973059E+03 0.  0.
        -24    2    3    3    0    0  0.58307731842E+02  0.95618899546E+02 -0.70399452912E+03  0.71706653238E+03  0.77674637288E+02 0.  0.
          6    2    1    2  502    0 -0.26098491965E+02 -0.74561640630E+02 -0.50429581560E+02  0.19634775900E+03  0.17253617080E+03 0.  0.
         24    2    5    5    0    0  0.45134088111E+02 -0.54856894085E+02 -0.53727707507E+02  0.12221729876E+03  0.83690123816E+02 0.  0.
          4    1    6    6  501    0  0.21087339016E+01 -0.26027661048E+02  0.19454153191E+02  0.32563015442E+02  0.00000000000E+00 0. -1.
         -3    1    6    6    0  501  0.43025354210E+02 -0.28829233036E+02 -0.73181860698E+02  0.89654283320E+02  0.00000000000E+00 0.  1.
          5    1    5    5  502    0 -0.71232580077E+02 -0.19704746545E+02  0.32981259476E+01  0.74130460241E+02  0.47000000000E+01 0. -1.
         11    1    4    4    0    0 -0.17882397686E+02  0.12660672084E+02 -0.16339124039E+03  0.16485378431E+03  0.00000000000E+00 0. -1.
        -12    1    4    4    0    0  0.76190129527E+02  0.82958227462E+02 -0.54060328873E+03  0.55221274806E+03  0.00000000000E+00 0.  1.
         -5    1    3    3    0  504 -0.32209239876E+02 -0.21057258916E+02 -0.54416939437E+03  0.54554858908E+03  0.47000000000E+01 0.  1.
<mgrwt>
<rscale>  2 0.19030227E+03</rscale>
<asrwt>0</asrwt>
<pdfrwt beam="1">  1       21 0.12336106E-01 0.19048298E+03</pdfrwt>
<pdfrwt beam="2">  1       21 0.21211971E+00 0.19048298E+03</pdfrwt>
<totfact> 0.62987319E+03</totfact>
</mgrwt>
</event>
<event>
12    1  0.2736842E-001  0.1905998E+03  0.7546771E-02  0.1160132E+00
         21   -1    0    0  502  503  0.00000000000E+00  0.00000000000E+00  0.68571164917E+03  0.68571164917E+03  0.00000000000E+00 0.  1.
         21   -1    0    0  503  504 -0.00000000000E+00 -0.00000000000E+00 -0.11982531127E+03  0.11982531127E+03  0.00000000000E+00 0.  1.
         -6    2    1    2    0  504  0.38622407449E+02 -0.53642279412E+02 -0.20636778234E+02  0.19171369973E+03  0.17877103107E+03 0.  0.
        -24    2    3    3    0    0  0.67563446416E+02  0.19864085099E+02  0.56965320263E+01  0.10830924787E+03  0.82091665406E+02 0.  0.
          6    2    1    2  502    0 -0.38622407449E+02  0.53642279412E+02  0.58652311614E+03  0.61382326071E+03  0.16852431613E+03 0.  0.
         24    2    5    5    0    0  0.99164198537E+01  0.64172811073E+02  0.52051631831E+03  0.53108332348E+03  0.83040795942E+02 0.  0.
          2    1    6    6  501    0  0.46111516464E+02  0.28263598920E+02  0.24643743459E+03  0.25230242199E+03  0.00000000000E+00 0. -1.
         -1    1    6    6    0  501 -0.36195096610E+02  0.35909212153E+02  0.27407888372E+03  0.27878090149E+03  0.00000000000E+00 0.  1.
          5    1    5    5  502    0 -0.48538827302E+02 -0.10530531661E+02  0.66006797832E+02  0.82739937231E+02  0.47000000000E+01 0. -1.
         13    1    4    4    0    0 -0.18334992404E+02 -0.30011290153E+01  0.56518867634E+01  0.19419643298E+02  0.00000000000E+00 0. -1.
        -14    1    4    4    0    0  0.85898438820E+02  0.22865214114E+02  0.44645262934E-01  0.88889604574E+02  0.00000000000E+00 0.  1.
         -5    1    3    3    0  504 -0.28941038967E+02 -0.73506364511E+02 -0.26333310260E+02  0.83404451856E+02  0.47000000000E+01 0.  1.
<mgrwt>
<rscale>  2 0.18815930E+03</rscale>
<asrwt>0</asrwt>
<pdfrwt beam="1">  1       21 0.10549410E+00 0.19059975E+03</pdfrwt>
<pdfrwt beam="2">  1       21 0.18434664E-01 0.19059975E+03</pdfrwt>
<totfact> 0.19431520E+04</totfact>
</mgrwt>
</event>
<event>
12    1  0.2736842E-001  0.1769727E+03  0.7546771E-02  0.1170827E+00
         21   -1    0    0  502  503  0.00000000000E+00  0.00000000000E+00  0.42502670041E+03  0.42502670041E+03  0.00000000000E+00 0.  1.
         21   -1    0    0  503  504 -0.00000000000E+00 -0.00000000000E+00 -0.14233390529E+03  0.14233390529E+03  0.00000000000E+00 0.  1.
         -6    2    1    2    0  504  0.48389381939E+01  0.30712217085E+02 -0.55758149010E+02  0.18554868269E+03  0.17422022519E+03 0.  0.
        -24    2    3    3    0    0 -0.37928192540E+02  0.18651297639E+02  0.23675828620E+02  0.94409557985E+02  0.81032099104E+02 0.  0.
          6    2    1    2  502    0 -0.48389381939E+01 -0.30712217085E+02  0.33845094413E+03  0.38181192301E+03  0.17396737443E+03 0.  0.
         24    2    5    5    0    0 -0.32082994814E+02  0.40808294466E+02  0.22576214884E+03  0.24550977050E+03  0.81313369809E+02 0.  0.
          2    1    6    6  501    0 -0.53432638181E+01  0.49555065448E+02  0.20383461617E+03  0.20983995265E+03  0.00000000000E+00 0. -1.
         -1    1    6    6    0  501 -0.26739730996E+02 -0.87467709826E+01  0.21927532666E+02  0.35669817847E+02  0.00000000000E+00 0.  1.
          5    1    5    5  502    0  0.27244056620E+02 -0.71520511551E+02  0.11268879530E+03  0.13630215251E+03  0.47000000000E+01 0. -1.
         11    1    4    4    0    0 -0.45156153338E+02 -0.15360506209E+02 -0.67918465629E+01  0.48178340725E+02  0.00000000000E+00 0. -1.
        -12    1    4    4    0    0  0.72279607980E+01  0.34011803848E+02  0.30467675183E+02  0.46231217260E+02  0.00000000000E+00 0.  1.
         -5    1    3    3    0  504  0.42767130734E+02  0.12060919446E+02 -0.79433977631E+02  0.91139124701E+02  0.47000000000E+01 0.  1.
<mgrwt>
<rscale>  2 0.17691046E+03</rscale>
<asrwt>0</asrwt>
<pdfrwt beam="1">  1       21 0.65388722E-01 0.17697272E+03</pdfrwt>
<pdfrwt beam="2">  1       21 0.21897524E-01 0.17697272E+03</pdfrwt>
<totfact> 0.42226435E+04</totfact>
</mgrwt>
</event>
<event>
12    1  0.2736842E-001  0.1896317E+03  0.7546771E-02  0.1158834E+00
         21   -1    0    0  502  503  0.00000000000E+00  0.00000000000E+00  0.14811793718E+04  0.14811793718E+04  0.00000000000E+00 0.  1.
         21   -1    0    0  503  504 -0.00000000000E+00 -0.00000000000E+00 -0.20342292375E+03  0.20342292375E+03  0.00000000000E+00 0.  1.
         -6    2    1    2    0  504 -0.77913135153E+02 -0.68593781010E+01 -0.15157744832E+03  0.24276718627E+03  0.17275032906E+03 0.  0.
        -24    2    3    3    0    0 -0.25539877778E+02 -0.47418536056E+02 -0.21190319247E+02  0.96442558092E+02  0.77144892656E+02 0.  0.
          6    2    1    2  502    0  0.77913135153E+02  0.68593781010E+01  0.14293338963E+04  0.14418351092E+04  0.17255604117E+03 0.  0.
         24    2    5    5    0    0  0.65429529508E+02  0.35183324264E+02  0.13741272358E+04  0.13783689631E+04  0.78463040320E+02 0.  0.
          2    1    6    6  501    0  0.20215894498E+02 -0.42964599107E+01  0.92704454361E+03  0.92727489332E+03  0.00000000000E+00 0. -1.
         -1    1    6    6    0  501  0.45213635010E+02  0.39479784175E+02  0.44708269220E+03  0.45109406981E+03  0.00000000000E+00 0.  1.
          5    1    5    5  502    0  0.12483605645E+02 -0.28323946163E+02  0.55206660528E+02  0.63466146116E+02  0.47000000000E+01 0. -1.
         13    1    4    4    0    0  0.25145770129E+02 -0.29653946010E+02 -0.49109407614E+00  0.38883254014E+02  0.00000000000E+00 0. -1.
        -14    1    4    4    0    0 -0.50685647907E+02 -0.17764590046E+02 -0.20699225171E+02  0.57559304078E+02  0.00000000000E+00 0.  1.
         -5    1    3    3    0  504 -0.52373257375E+02  0.40559157955E+02 -0.13038712908E+03  0.14632462818E+03  0.47000000000E+01 0.  1.
<mgrwt>
<rscale>  2 0.18958745E+03</rscale>
<asrwt>0</asrwt>
<pdfrwt beam="1">  1       21 0.22787374E+00 0.18963171E+03</pdfrwt>
<pdfrwt beam="2">  1       21 0.31295835E-01 0.18963171E+03</pdfrwt>
<totfact> 0.88706277E+02</totfact>
</mgrwt>
</event>
<event>
12    1  0.2736842E-001  0.1715181E+03  0.7546771E-02  0.1176470E+00
         21   -1    0    0  502  503  0.00000000000E+00  0.00000000000E+00  0.40082207057E+02  0.40082207057E+02  0.00000000000E+00 0.  1.
         21   -1    0    0  503  504 -0.00000000000E+00 -0.00000000000E+00 -0.18726294493E+04  0.18726294493E+04  0.00000000000E+00 0.  1.
         -6    2    1    2    0  504  0.20530180882E+02  0.26684880604E+02 -0.16622924771E+04  0.16710400719E+04  0.16740690305E+03 0.  0.
        -24    2    3    3    0    0  0.44870997674E+02 -0.25146974431E+00 -0.15549747802E+04  0.15576503880E+04  0.79465052848E+02 0.  0.
          6    2    1    2  502    0 -0.20530180882E+02 -0.26684880604E+02 -0.17025476513E+03  0.24167158447E+03  0.16818114791E+03 0.  0.
         24    2    5    5    0    0 -0.42900552160E+02 -0.72865336094E+02 -0.98802088975E+02  0.15357707324E+03  0.81696083497E+02 0.  0.
          2    1    6    6  501    0 -0.63464245943E+02 -0.44012004917E+02 -0.86759794101E+02  0.11615519344E+03  0.00000000000E+00 0. -1.
         -1    1    6    6    0  501  0.20563693783E+02 -0.28853331176E+02 -0.12042294874E+02  0.37421879801E+02  0.00000000000E+00 0.  1.
          5    1    5    5  502    0  0.22370371278E+02  0.46180455489E+02 -0.71452676153E+02  0.88094511235E+02  0.47000000000E+01 0. -1.
         11    1    4    4    0    0  0.10985976836E+02 -0.28961343204E+02 -0.24879521659E+03  0.25071599647E+03  0.00000000000E+00 0. -1.
        -12    1    4    4    0    0  0.33885020838E+02  0.28709873460E+02 -0.13061795636E+04  0.13069343915E+04  0.00000000000E+00 0.  1.
         -5    1    3    3    0  504 -0.24340816793E+02  0.26936350349E+02 -0.10731769695E+03  0.11338968388E+03  0.47000000000E+01 0.  1.
<mgrwt>
<rscale>  2 0.17132804E+03</rscale>
<asrwt>0</asrwt>
<pdfrwt beam="1">  1       21 0.61664925E-02 0.17151813E+03</pdfrwt>
<pdfrwt beam="2">  1       21 0.28809688E+00 0.17151813E+03</pdfrwt>
<totfact> 0.77024172E+03</totfact>
</mgrwt>
</event>
<event>
12    1  0.2736842E-001  0.2074312E+03  0.7546771E-02  0.1146637E+00
         21   -1    0    0  502  503  0.00000000000E+00  0.00000000000E+00  0.27828601901E+03  0.27828601901E+03  0.00000000000E+00 0. -1.
         21   -1    0    0  503  504 -0.00000000000E+00 -0.00000000000E+00 -0.24734893608E+03  0.24734893608E+03  0.00000000000E+00 0. -1.
         -6    2    1    2    0  504 -0.81630168184E+02 -0.24377339567E+02 -0.15399544547E+03  0.25834527139E+03  0.18912943447E+03 0.  0.
        -24    2    3    3    0    0 -0.11233884886E+03  0.25341472929E+02 -0.69810940433E+02  0.15575821435E+03  0.78261399945E+02 0.  0.
          6    2    1    2  502    0  0.81630168184E+02  0.24377339567E+02  0.18493252840E+03  0.26728968370E+03  0.17316464971E+03 0.  0.
         24    2    5    5    0    0  0.31212457953E+02  0.45374145327E+02  0.26942123206E+02  0.10005969389E+03  0.79076126251E+02 0.  0.
          2    1    6    6  501    0 -0.16481958796E+02  0.15922511423E+02  0.36596261119E+02  0.43179481975E+02  0.00000000000E+00 0. -1.
         -1    1    6    6    0  501  0.47694416749E+02  0.29451633905E+02 -0.96541379132E+01  0.56880211915E+02  0.00000000000E+00 0.  1.
          5    1    5    5  502    0  0.50417710232E+02 -0.20996805760E+02  0.15799040520E+03  0.16722998981E+03  0.47000000000E+01 0. -1.
         13    1    4    4    0    0  0.87429063311E+01  0.13664231244E+02 -0.15862017771E+02  0.22688173888E+02  0.00000000000E+00 0. -1.
        -14    1    4    4    0    0 -0.12108175519E+03  0.11677241684E+02 -0.53948922661E+02  0.13307004046E+03  0.00000000000E+00 0.  1.
         -5    1    3    3    0  504  0.30708680672E+02 -0.49718812496E+02 -0.84184505033E+02  0.10258705704E+03  0.47000000000E+01 0.  1.
<mgrwt>
<rscale>  2 0.20372163E+03</rscale>
<asrwt>0</asrwt>
<pdfrwt beam="1">  1       21 0.42813234E-01 0.20743115E+03</pdfrwt>
<pdfrwt beam="2">  1       21 0.38053682E-01 0.20743115E+03</pdfrwt>
<totfact> 0.34672722E+04</totfact>
</mgrwt>
</event>
<event>
12    1  0.2736842E-001  0.1768576E+03  0.7546771E-02  0.1171127E+00
         21   -1    0    0  502  503  0.00000000000E+00  0.00000000000E+00  0.23518854332E+03  0.23518854332E+03  0.00000000000E+00 0. -1.
         21   -1    0    0  503  504 -0.00000000000E+00 -0.00000000000E+00 -0.10795649726E+04  0.10795649726E+04  0.00000000000E+00 0. -1.
         -6    2    1    2    0  504  0.31798554160E+02 -0.10781896714E+01 -0.10378395680E+04  0.10526340706E+04  0.17296013189E+03 0.  0.
        -24    2    3    3    0    0  0.79149369114E+02 -0.13364203649E+02 -0.44388710883E+03  0.45665197395E+03  0.71077671314E+02 0.  0.
          6    2    1    2  502    0 -0.31798554160E+02  0.10781896714E+01  0.19346313870E+03  0.26211944529E+03  0.17397214439E+03 0.  0.
         24    2    5    5    0    0  0.72249275720E+01  0.61953291898E+02  0.12817593339E+03  0.16458422409E+03  0.82270814776E+02 0.  0.
          4    1    6    6  501    0 -0.68209738253E+00  0.81649916409E+02  0.95863273114E+02  0.12592434728E+03  0.00000000000E+00 0. -1.
         -3    1    6    6    0  501  0.79070249545E+01 -0.19696624511E+02  0.32312660275E+02  0.38659876808E+02  0.00000000000E+00 0.  1.
          5    1    5    5  502    0 -0.39023481732E+02 -0.60875102226E+02  0.65287205312E+02  0.97535221202E+02  0.47000000000E+01 0. -1.
         11    1    4    4    0    0  0.72329540864E+02 -0.18178801682E+02 -0.44179519264E+03  0.44804578287E+03  0.00000000000E+00 0. -1.
        -12    1    4    4    0    0  0.68198282494E+01  0.48145980334E+01 -0.20919161940E+01  0.86061910819E+01  0.00000000000E+00 0.  1.
         -5    1    3    3    0  504 -0.47350814953E+02  0.12286013978E+02 -0.59395245913E+03  0.59598209665E+03  0.47000000000E+01 0.  1.
<mgrwt>
<rscale>  2 0.17660824E+03</rscale>
<asrwt>0</asrwt>
<pdfrwt beam="1">  1       21 0.36182852E-01 0.17685762E+03</pdfrwt>
<pdfrwt beam="2">  1       21 0.16608692E+00 0.17685762E+03</pdfrwt>
<totfact> 0.17030360E+03</totfact>
</mgrwt>
</event>
<event>
12    1  0.2736842E-001  0.2135230E+03  0.7546771E-02  0.1139067E+00
         21   -1    0    0  502  503  0.00000000000E+00  0.00000000000E+00  0.12903723800E+03  0.12903723800E+03  0.00000000000E+00 0. -1.
         21   -1    0    0  503  504 -0.00000000000E+00 -0.00000000000E+00 -0.40380667438E+03  0.40380667438E+03  0.00000000000E+00 0.  1.
         -6    2    1    2    0  504 -0.73668377025E+02  0.10066836102E+03 -0.23325523069E+03  0.31532265502E+03  0.17163690000E+03 0.  0.
        -24    2    3    3    0    0 -0.36995859901E+02  0.32769772294E+02 -0.21759958703E+03  0.23644121841E+03  0.78181314022E+02 0.  0.
          6    2    1    2  502    0  0.73668377025E+02 -0.10066836102E+03 -0.41514205689E+02  0.21752125737E+03  0.17329431453E+03 0.  0.
         24    2    5    5    0    0  0.35656928991E+02 -0.73932696579E+02 -0.92628007336E+02  0.14827981996E+03  0.81666988786E+02 0.  0.
          2    1    6    6  501    0  0.16372051984E+02 -0.77534014224E+02 -0.99761785235E+02  0.12740479285E+03  0.00000000000E+00 0. -1.
         -1    1    6    6    0  501  0.19284877007E+02  0.36013176448E+01  0.71337778991E+01  0.20875027115E+02  0.00000000000E+00 0.  1.
          5    1    5    5  502    0  0.38011448034E+02 -0.26735664439E+02  0.51113801647E+02  0.69241437401E+02  0.47000000000E+01 0. -1.
         11    1    4    4    0    0  0.21558371874E+02  0.24962241208E+02 -0.67241982773E+02  0.74895668307E+02  0.00000000000E+00 0. -1.
        -12    1    4    4    0    0 -0.58554231775E+02  0.78075310857E+01 -0.15035760426E+03  0.16154555010E+03  0.00000000000E+00 0.  1.
         -5    1    3    3    0  504 -0.36672517124E+02  0.67898588723E+02 -0.15655643660E+02  0.78881436608E+02  0.47000000000E+01 0.  1.
<mgrwt>
<rscale>  2 0.21318646E+03</rscale>
<asrwt>0</asrwt>
<pdfrwt beam="1">  1       21 0.19851883E-01 0.21352299E+03</pdfrwt>
<pdfrwt beam="2">  1       21 0.62124104E-01 0.21352299E+03</pdfrwt>
<totfact> 0.55720457E+04</totfact>
</mgrwt>
</event>
<event>
12    1  0.2736842E-001  0.1896691E+03  0.7546771E-02  0.1158986E+00
         21   -1    0    0  502  503  0.00000000000E+00  0.00000000000E+00  0.34947940320E+02  0.34947940320E+02  0.00000000000E+00 0.  1.
         21   -1    0    0  503  504 -0.00000000000E+00 -0.00000000000E+00 -0.12720685685E+04  0.12720685685E+04  0.00000000000E+00 0.  1.
         -6    2    1    2    0  504 -0.75322342082E+02 -0.16679870275E+02 -0.90847608061E+03  0.92806419482E+03  0.17327056120E+03 0.  0.
        -24    2    3    3    0    0 -0.78640341926E+02 -0.50063698905E+02 -0.40049329880E+03  0.41895312074E+03  0.80225667135E+02 0.  0.
          6    2    1    2  502    0  0.75322342082E+02  0.16679870275E+02 -0.32864454760E+03  0.37895231403E+03  0.17217997663E+03 0.  0.
         24    2    5    5    0    0  0.82286672992E+02  0.70325202915E+02 -0.22872695093E+03  0.26523362716E+03  0.79474072362E+02 0.  0.
          2    1    6    6  501    0 -0.15406947631E+01  0.41430494721E+02 -0.10606632510E+03  0.11388118789E+03  0.00000000000E+00 0. -1.
         -1    1    6    6    0  501  0.83827367755E+02  0.28894708194E+02 -0.12266062583E+03  0.15135243927E+03  0.00000000000E+00 0.  1.
          5    1    5    5  502    0 -0.69643309093E+01 -0.53645332640E+02 -0.99917596670E+02  0.11371868687E+03  0.47000000000E+01 0. -1.
         11    1    4    4    0    0 -0.37312679162E+01  0.16388990610E+02 -0.23532847412E+02  0.28919133472E+02  0.00000000000E+00 0. -1.
        -12    1    4    4    0    0 -0.74909074009E+02 -0.66452689515E+02 -0.37696045139E+03  0.39003398727E+03  0.00000000000E+00 0.  1.
         -5    1    3    3    0  504  0.33179998431E+01  0.33383828630E+02 -0.50798278181E+03  0.50911107409E+03  0.47000000000E+01 0.  1.
<mgrwt>
<rscale>  2 0.18941965E+03</rscale>
<asrwt>0</asrwt>
<pdfrwt beam="1">  1       21 0.53766055E-02 0.18966908E+03</pdfrwt>
<pdfrwt beam="2">  1       21 0.19570288E+00 0.18966908E+03</pdfrwt>
<totfact> 0.34102273E+04</totfact>
</mgrwt>
</event>
<event>
12    1  0.2736842E-001  0.1824414E+03  0.7546771E-02  0.1165550E+00
         21   -1    0    0  502  503  0.00000000000E+00  0.00000000000E+00  0.27839135543E+03  0.27839135543E+03  0.00000000000E+00 0. -1.
         21   -1    0    0  503  504 -0.00000000000E+00 -0.00000000000E+00 -0.12101952060E+03  0.12101952060E+03  0.00000000000E+00 0. -1.
         -6    2    1    2    0  504  0.52700657394E+02 -0.22470820120E+02  0.10229099917E+03  0.20883601689E+03  0.17281995369E+03 0.  0.
        -24    2    3    3    0    0  0.37267306448E+02  0.54280448833E+02  0.49279288537E+02  0.11417199483E+03  0.79193288037E+02 0.  0.
          6    2    1    2  502    0 -0.52700657394E+02  0.22470820120E+02  0.55080835658E+02  0.19057485915E+03  0.17321253256E+03 0.  0.
         24    2    5    5    0    0 -0.97730212179E+02  0.36935623929E+02  0.26913005420E+02  0.13532625723E+03  0.81691195041E+02 0.  0.
          4    1    6    6  501    0 -0.95323057291E+02  0.19720735570E+02  0.47557923605E+02  0.10833812238E+03  0.00000000000E+00 0. -1.
         -3    1    6    6    0  501 -0.24071548881E+01  0.17214888360E+02 -0.20644918185E+02  0.26988134851E+02  0.00000000000E+00 0.  1.
          5    1    5    5  502    0  0.45029554785E+02 -0.14464803810E+02  0.28167830237E+02  0.55248601916E+02  0.47000000000E+01 0. -1.
         13    1    4    4    0    0  0.31535195016E+01 -0.55467542896E+01 -0.17264628472E+02  0.18405938299E+02  0.00000000000E+00 0. -1.
        -14    1    4    4    0    0  0.34113786947E+02  0.59827203123E+02  0.66543917008E+02  0.95766056535E+02  0.00000000000E+00 0.  1.
         -5    1    3    3    0  504  0.15433350945E+02 -0.76751268953E+02  0.53011710628E+02  0.94664022052E+02  0.47000000000E+01 0.  1.
<mgrwt>
<rscale>  2 0.18234820E+03</rscale>
<asrwt>0</asrwt>
<pdfrwt beam="1">  1       21 0.42829439E-01 0.18244144E+03</pdfrwt>
<pdfrwt beam="2">  1       21 0.18618388E-01 0.18244144E+03</pdfrwt>
<totfact> 0.13875082E+05</totfact>
</mgrwt>
</event>
<event>
12    1  0.2736842E-001  0.2043701E+03  0.7546771E-02  0.1146602E+00
         21   -1    0    0  502  503  0.00000000000E+00  0.00000000000E+00  0.30984255898E+03  0.30984255898E+03  0.00000000000E+00 0. -1.
         21   -1    0    0  503  504 -0.00000000000E+00 -0.00000000000E+00 -0.19973171095E+03  0.19973171095E+03  0.00000000000E+00 0. -1.
         -6    2    1    2    0  504 -0.78464035666E+02  0.71288730456E+02 -0.91762632286E+02  0.22402575381E+03  0.17472398148E+03 0.  0.
        -24    2    3    3    0    0 -0.98611695938E+02 -0.22419611004E+01 -0.70154125157E+02  0.14464245333E+03  0.79186773283E+02 0.  0.
          6    2    1    2  502    0  0.78464035666E+02 -0.71288730456E+02  0.20187348032E+03  0.28554851612E+03  0.17189056118E+03 0.  0.
         24    2    5    5    0    0  0.32095297773E+02  0.13175262050E+02  0.15594836558E+03  0.17870549086E+03  0.80075364926E+02 0.  0.
          2    1    6    6  501    0  0.11659827936E+02 -0.70075963320E+01  0.14838099474E+03  0.14900328048E+03  0.00000000000E+00 0. -1.
         -1    1    6    6    0  501  0.20435469837E+02  0.20182858382E+02  0.75673708337E+01  0.29702210376E+02  0.00000000000E+00 0.  1.
          5    1    5    5  502    0  0.46368737894E+02 -0.84463992506E+02  0.45925114741E+02  0.10684302527E+03  0.47000000000E+01 0. -1.
         13    1    4    4    0    0 -0.57524089105E+02 -0.24410740378E+01 -0.83513489414E+02  0.10143708683E+03  0.00000000000E+00 0. -1.
        -14    1    4    4    0    0 -0.41087606833E+02  0.19911293749E+00  0.13359364257E+02  0.43205366502E+02  0.00000000000E+00 0.  1.
         -5    1    3    3    0  504  0.20147660272E+02  0.73530691556E+02 -0.21608507129E+02  0.79383300483E+02  0.47000000000E+01 0.  1.
<mgrwt>
<rscale>  2 0.20376319E+03</rscale>
<asrwt>0</asrwt>
<pdfrwt beam="1">  1       21 0.47668086E-01 0.20437015E+03</pdfrwt>
<pdfrwt beam="2">  1       21 0.30727956E-01 0.20437015E+03</pdfrwt>
<totfact> 0.42537389E+04</totfact>
</mgrwt>
</event>
<event>
12    1  0.2736842E-001  0.1922134E+03  0.7546771E-02  0.1156513E+00
         21   -1    0    0  502  503  0.00000000000E+00  0.00000000000E+00  0.95568078090E+03  0.95568078090E+03  0.00000000000E+00 0. -1.
         21   -1    0    0  503  504 -0.00000000000E+00 -0.00000000000E+00 -0.39288766593E+02  0.39288766593E+02  0.00000000000E+00 0. -1.
         -6    2    1    2    0  504  0.79626299008E+02 -0.21087514318E+02  0.39392557862E+03  0.43831879512E+03  0.17366915072E+03 0.  0.
        -24    2    3    3    0    0  0.92845777290E+02 -0.47291744387E+02  0.38583143295E+03  0.40751260299E+03  0.79647846762E+02 0.  0.
          6    2    1    2  502    0 -0.79626299008E+02  0.21087514318E+02  0.52246643569E+03  0.55665075237E+03  0.17350461937E+03 0.  0.
         24    2    5    5    0    0 -0.11093353473E+03 -0.21665873047E+02  0.37724073369E+03  0.40198792665E+03  0.80672565565E+02 0.  0.
          4    1    6    6  501    0 -0.58661262232E+02 -0.51947792868E+02  0.22051719475E+03  0.23402467829E+03  0.00000000000E+00 0. -1.
         -3    1    6    6    0  501 -0.52272272497E+02  0.30281919821E+02  0.15672353894E+03  0.16796324835E+03  0.00000000000E+00 0.  1.
          5    1    5    5  502    0  0.31307235721E+02  0.42753387365E+02  0.14522570200E+03  0.15466282572E+03  0.47000000000E+01 0. -1.
         11    1    4    4    0    0  0.34178733999E+02  0.21708376438E+02  0.12634187371E+03  0.13267143068E+03  0.00000000000E+00 0. -1.
        -12    1    4    4    0    0  0.58667043292E+02 -0.69000120826E+02  0.25948955924E+03  0.27484117231E+03  0.00000000000E+00 0.  1.
         -5    1    3    3    0  504 -0.13219478282E+02  0.26204230069E+02  0.80941456681E+01  0.30806192132E+02  0.47000000000E+01 0.  1.
<mgrwt>
<rscale>  2 0.19217626E+03</rscale>
<asrwt>0</asrwt>
<pdfrwt beam="1">  1       21 0.14702779E+00 0.19221344E+03</pdfrwt>
<pdfrwt beam="2">  1       21 0.60444264E-02 0.19221344E+03</pdfrwt>
<totfact> 0.61353096E+04</totfact>
</mgrwt>
</event>
<event>
12    1  0.2736842E-001  0.2390280E+03  0.7546771E-02  0.1121216E+00
         21   -1    0    0  502  503  0.00000000000E+00  0.00000000000E+00  0.16848903624E+04  0.16848903624E+04  0.00000000000E+00 0. -1.
         21   -1    0    0  503  504 -0.00000000000E+00 -0.00000000000E+00 -0.33263558668E+02  0.33263558668E+02  0.00000000000E+00 0. -1.
         -6    2    1    2    0  504 -0.11871452065E+03 -0.10540079488E+03  0.83344809822E+03  0.86704678835E+03  0.17869509165E+03 0.  0.
        -24    2    3    3    0    0 -0.12600217353E+03 -0.13294732501E+03  0.78945472118E+03  0.81442142916E+03  0.80572752878E+02 0.  0.
          6    2    1    2  502    0  0.11871452065E+03  0.10540079488E+03  0.81817870549E+03  0.85110713270E+03  0.17252388889E+03 0.  0.
         24    2    5    5    0    0  0.67604258317E+02 -0.11914760356E+02  0.36066333781E+03  0.37600966893E+03  0.81196863431E+02 0.  0.
          4    1    6    6  501    0  0.20465357264E+01  0.60327318300E+00  0.22310192168E+03  0.22311212362E+03  0.00000000000E+00 0. -1.
         -3    1    6    6    0  501  0.65557722591E+02 -0.12518033539E+02  0.13756141612E+03  0.15289754530E+03  0.00000000000E+00 0.  1.
          5    1    5    5  502    0  0.51110262335E+02  0.11731555524E+03  0.45751536769E+03  0.47509746378E+03  0.47000000000E+01 0. -1.
         13    1    4    4    0    0  0.47287352629E+01 -0.28135718876E+02  0.18439865816E+03  0.18659272426E+03  0.00000000000E+00 0. -1.
        -14    1    4    4    0    0 -0.13073090880E+03 -0.10481160614E+03  0.60505606302E+03  0.62782870490E+03  0.00000000000E+00 0.  1.
         -5    1    3    3    0  504  0.72876528801E+01  0.27546530133E+02  0.43993377034E+02  0.52625359188E+02  0.47000000000E+01 0.  1.
<mgrwt>
<rscale>  2 0.23787530E+03</rscale>
<asrwt>0</asrwt>
<pdfrwt beam="1">  1       21 0.25921384E+00 0.23902803E+03</pdfrwt>
<pdfrwt beam="2">  1       21 0.51174719E-02 0.23902803E+03</pdfrwt>
<totfact> 0.14595711E+04</totfact>
</mgrwt>
</event>
<event>
12    1  0.2736842E-001  0.1966918E+03  0.7546771E-02  0.1152686E+00
         21   -1    0    0  502  503  0.00000000000E+00  0.00000000000E+00  0.16440555486E+03  0.16440555486E+03  0.00000000000E+00 0. -1.
         21   -1    0    0  503  504 -0.00000000000E+00 -0.00000000000E+00 -0.23463239731E+03  0.23463239731E+03  0.00000000000E+00 0.  1.
         -6    2    1    2    0  504 -0.26945908919E+02 -0.89327854305E+02 -0.33937779808E+02  0.19959816747E+03  0.17315342329E+03 0.  0.
        -24    2    3    3    0    0 -0.67613495916E+02 -0.13425367355E+02 -0.39284755005E+01  0.10828722342E+03  0.83419808909E+02 0.  0.
          6    2    1    2  502    0  0.26945908919E+02  0.89327854305E+02 -0.36289062641E+02  0.19943978470E+03  0.17249285230E+03 0.  0.
         24    2    5    5    0    0  0.37414563742E+02  0.12634254404E+02 -0.72226607279E+02  0.11396991800E+03  0.78822493274E+02 0.  0.
          4    1    6    6  501    0  0.49890511094E+02  0.57038314861E+00 -0.12032784771E+02  0.51324227646E+02  0.00000000000E+00 0. -1.
         -3    1    6    6    0  501 -0.12475947352E+02  0.12063871256E+02 -0.60193822508E+02  0.62645690356E+02  0.00000000000E+00 0.  1.
          5    1    5    5  502    0 -0.10468654823E+02  0.76693599901E+02  0.35937544637E+02  0.85469866702E+02  0.47000000000E+01 0. -1.
         13    1    4    4    0    0 -0.13794498829E+02  0.19992058932E+02 -0.31011088484E+02  0.39391093248E+02  0.00000000000E+00 0. -1.
        -14    1    4    4    0    0 -0.53818997087E+02 -0.33417426288E+02  0.27082612984E+02  0.68896130176E+02  0.00000000000E+00 0.  1.
         -5    1    3    3    0  504  0.40667586997E+02 -0.75902486950E+02 -0.30009304308E+02  0.91310944045E+02  0.47000000000E+01 0.  1.
<mgrwt>
<rscale>  2 0.19654630E+03</rscale>
<asrwt>0</asrwt>
<pdfrwt beam="1">  1       21 0.25293162E-01 0.19669178E+03</pdfrwt>
<pdfrwt beam="2">  1       21 0.36097292E-01 0.19669178E+03</pdfrwt>
<totfact> 0.10945945E+05</totfact>
</mgrwt>
</event>
<event>
12    1  0.2736842E-001  0.2728311E+03  0.7546771E-02  0.1099708E+00
         21   -1    0    0  502  503  0.00000000000E+00  0.00000000000E+00  0.59816482828E+03  0.59816482828E+03  0.00000000000E+00 0.  1.
         21   -1    0    0  503  504 -0.00000000000E+00 -0.00000000000E+00 -0.35596230694E+03  0.35596230694E+03  0.00000000000E+00 0. -1.
         -6    2    1    2    0  504 -0.20628458008E+03  0.43433325167E+02 -0.26376219718E+03  0.37929056450E+03  0.17277457551E+03 0.  0.
        -24    2    3    3    0    0 -0.10807600357E+03 -0.33306452358E+02 -0.18536000293E+03  0.23197148217E+03  0.81625336372E+02 0.  0.
          6    2    1    2  502    0  0.20628458008E+03 -0.43433325167E+02  0.50596471851E+03  0.57483657073E+03  0.17319643458E+03 0.  0.
         24    2    5    5    0    0  0.49547625551E+02  0.29141176201E+02  0.16801074200E+03  0.19527299054E+03  0.81238882676E+02 0.  0.
          2    1    6    6  501    0  0.68333579955E+02  0.48190554065E+01  0.10899227447E+03  0.12873234768E+03  0.00000000000E+00 0. -1.
         -1    1    6    6    0  501 -0.18785954403E+02  0.24322120794E+02  0.59018467532E+02  0.66540642863E+02  0.00000000000E+00 0.  1.
          5    1    5    5  502    0  0.15673695453E+03 -0.72574501367E+02  0.33795397651E+03  0.37956358019E+03  0.47000000000E+01 0. -1.
         11    1    4    4    0    0 -0.72727435225E+02 -0.35707377741E+02 -0.57648799114E+02  0.99436817622E+02  0.00000000000E+00 0. -1.
        -12    1    4    4    0    0 -0.35348568343E+02  0.24009253831E+01 -0.12771120381E+03  0.13253466455E+03  0.00000000000E+00 0.  1.
         -5    1    3    3    0  504 -0.98208576515E+02  0.76739777525E+02 -0.78402194249E+02  0.14731908233E+03  0.47000000000E+01 0.  1.
<mgrwt>
<rscale>  2 0.27276413E+03</rscale>
<asrwt>0</asrwt>
<pdfrwt beam="1">  1       21 0.92025358E-01 0.27283106E+03</pdfrwt>
<pdfrwt beam="2">  1       21 0.54763432E-01 0.27283106E+03</pdfrwt>
<totfact> 0.29617420E+03</totfact>
</mgrwt>
</event>
<event>
12    1  0.2736842E-001  0.1798241E+03  0.7546771E-02  0.1168035E+00
         21   -1    0    0  502  503  0.00000000000E+00  0.00000000000E+00  0.39978406652E+02  0.39978406652E+02  0.00000000000E+00 0.  1.
         21   -1    0    0  503  504 -0.00000000000E+00 -0.00000000000E+00 -0.83162409315E+03  0.83162409315E+03  0.00000000000E+00 0.  1.
         -6    2    1    2    0  504  0.30506350172E+02  0.38648335166E+02 -0.46998530108E+03  0.50321256939E+03  0.17295194577E+03 0.  0.
        -24    2    3    3    0    0  0.80445039408E+01 -0.43241343420E+02 -0.29747905492E+03  0.31088225727E+03  0.78863565372E+02 0.  0.
          6    2    1    2  502    0 -0.30506350172E+02 -0.38648335166E+02 -0.32166038542E+03  0.36838993042E+03  0.17268875491E+03 0.  0.
         24    2    5    5    0    0  0.18436309460E+02 -0.39746785387E+02 -0.30613793788E+03  0.31681835974E+03  0.68802119171E+02 0.  0.
          4    1    6    6  501    0  0.13197748925E+02  0.12689737994E+02 -0.16758641618E+03  0.16858356063E+03  0.00000000000E+00 0. -1.
         -3    1    6    6    0  501  0.52385605349E+01 -0.52436523381E+02 -0.13855152170E+03  0.14823479911E+03  0.00000000000E+00 0.  1.
          5    1    5    5  502    0 -0.48942659632E+02  0.10984502211E+01 -0.15522447538E+02  0.51571570679E+02  0.47000000000E+01 0. -1.
         11    1    4    4    0    0 -0.93601154701E+01 -0.40176454288E+02 -0.60386579530E+02  0.73132060193E+02  0.00000000000E+00 0. -1.
        -12    1    4    4    0    0  0.17404619411E+02 -0.30648891324E+01 -0.23709247539E+03  0.23775019708E+03  0.00000000000E+00 0.  1.
         -5    1    3    3    0  504  0.22461846231E+02  0.81889678587E+02 -0.17250624616E+03  0.19233031212E+03  0.47000000000E+01 0.  1.
<mgrwt>
<rscale>  2 0.17976079E+03</rscale>
<asrwt>0</asrwt>
<pdfrwt beam="1">  1       21 0.61505238E-02 0.17982410E+03</pdfrwt>
<pdfrwt beam="2">  1       21 0.12794217E+00 0.17982410E+03</pdfrwt>
<totfact> 0.85546237E+04</totfact>
</mgrwt>
</event>
<event>
12    1  0.2736842E-001  0.2704107E+03  0.7546771E-02  0.1101080E+00
         21   -1    0    0  502  503  0.00000000000E+00  0.00000000000E+00  0.13136314565E+03  0.13136314565E+03  0.00000000000E+00 0. -1.
         21   -1    0    0  503  504 -0.00000000000E+00 -0.00000000000E+00 -0.60294837119E+03  0.60294837119E+03  0.00000000000E+00 0.  1.
         -6    2    1    2    0  504  0.19139005181E+03 -0.80500386812E+02 -0.33799903491E+03  0.43270381447E+03  0.17285479239E+03 0.  0.
        -24    2    3    3    0    0  0.14677911300E+02 -0.30611333672E+02 -0.99568651410E+02  0.13172667913E+03  0.79281188316E+02 0.  0.
          6    2    1    2  502    0 -0.19139005181E+03  0.80500386812E+02 -0.13358619064E+03  0.30160770237E+03  0.17323819322E+03 0.  0.
         24    2    5    5    0    0 -0.89732279450E+02 -0.25340448842E+02 -0.48788318991E+02  0.13205135714E+03  0.79769922455E+02 0.  0.
          4    1    6    6  501    0 -0.89096121078E+02 -0.44738883599E+02 -0.27879477118E+02  0.10352271123E+03  0.00000000000E+00 0. -1.
         -3    1    6    6    0  501 -0.63615837189E+00  0.19398434757E+02 -0.20908841873E+02  0.28528645901E+02  0.00000000000E+00 0.  1.
          5    1    5    5  502    0 -0.10165777236E+03  0.10584083565E+03 -0.84797871648E+02  0.16955634523E+03  0.47000000000E+01 0. -1.
         13    1    4    4    0    0  0.10011781340E+02 -0.46927534413E+02 -0.10369769058E+03  0.11426128077E+03  0.00000000000E+00 0. -1.
        -14    1    4    4    0    0  0.46661299597E+01  0.16316200741E+02  0.41290391659E+01  0.17465398360E+02  0.00000000000E+00 0.  1.
         -5    1    3    3    0  504  0.17671214051E+03 -0.49889053140E+02 -0.23843038350E+03  0.30097713535E+03  0.47000000000E+01 0.  1.
<mgrwt>
<rscale>  2 0.27034929E+03</rscale>
<asrwt>0</asrwt>
<pdfrwt beam="1">  1       21 0.20209715E-01 0.27041068E+03</pdfrwt>
<pdfrwt beam="2">  1       21 0.92761287E-01 0.27041068E+03</pdfrwt>
<totfact> 0.21276276E+04</totfact>
</mgrwt>
</event>
<event>
12    1  0.2736842E-001  0.2109996E+03  0.7546771E-02  0.1141169E+00
         21   -1    0    0  502  503  0.00000000000E+00  0.00000000000E+00  0.58325668973E+03  0.58325668973E+03  0.00000000000E+00 0.  1.
         21   -1    0    0  503  504 -0.00000000000E+00 -0.00000000000E+00 -0.77657690153E+02  0.77657690153E+02  0.00000000000E+00 0. -1.
         -6    2    1    2    0  504 -0.56164126415E+02 -0.10419212560E+03  0.19804814839E+03  0.28794205365E+03  0.17227056930E+03 0.  0.
        -24    2    3    3    0    0  0.13916896537E+01 -0.12422336993E+03  0.14615802998E+03  0.20776352098E+03  0.79813084684E+02 0.  0.
          6    2    1    2  502    0  0.56164126415E+02  0.10419212560E+03  0.30755085118E+03  0.37297232623E+03  0.17467232733E+03 0.  0.
         24    2    5    5    0    0 -0.30430875818E+02  0.83336669110E+02  0.21307104643E+03  0.24304092901E+03  0.76148432181E+02 0.  0.
          2    1    6    6  501    0  0.59817250419E+01  0.29132145702E+02  0.14762151715E+03  0.15058743398E+03  0.00000000000E+00 0. -1.
         -1    1    6    6    0  501 -0.36412600860E+02  0.54204523408E+02  0.65449529285E+02  0.92453495028E+02  0.00000000000E+00 0.  1.
          5    1    5    5  502    0  0.86595002233E+02  0.20855456489E+02  0.94479804753E+02  0.12993139722E+03  0.47000000000E+01 0. -1.
         13    1    4    4    0    0  0.13074364454E+02 -0.67302322930E+02  0.24263395789E+02  0.72727257977E+02  0.00000000000E+00 0. -1.
        -14    1    4    4    0    0 -0.11682674800E+02 -0.56921046999E+02  0.12189463419E+03  0.13503626300E+03  0.00000000000E+00 0.  1.
         -5    1    3    3    0  504 -0.57555816069E+02  0.20031244329E+02  0.51890118413E+02  0.80178532673E+02  0.47000000000E+01 0.  1.
<mgrwt>
<rscale>  2 0.21050186E+03</rscale>
<asrwt>0</asrwt>
<pdfrwt beam="1">  1       21 0.89731796E-01 0.21099960E+03</pdfrwt>
<pdfrwt beam="2">  1       21 0.11947337E-01 0.21099960E+03</pdfrwt>
<totfact> 0.62024888E+04</totfact>
</mgrwt>
</event>
<event>
12    1  0.2736842E-001  0.1761183E+03  0.7546771E-02  0.1171986E+00
         21   -1    0    0  502  503  0.00000000000E+00  0.00000000000E+00  0.52497192634E+02  0.52497192634E+02  0.00000000000E+00 0. -1.
         21   -1    0    0  503  504 -0.00000000000E+00 -0.00000000000E+00 -0.74090275788E+03  0.74090275788E+03  0.00000000000E+00 0. -1.
         -6    2    1    2    0  504 -0.37026035601E+02 -0.14663137155E+01 -0.52682543095E+03  0.55548418872E+03  0.17217599085E+03 0.  0.
        -24    2    3    3    0    0 -0.25065322050E+02 -0.37983678979E+02 -0.15062398903E+03  0.17729615143E+03  0.81702564250E+02 0.  0.
          6    2    1    2  502    0  0.37026035601E+02  0.14663137155E+01 -0.16158013429E+03  0.23791576180E+03  0.17065372110E+03 0.  0.
         24    2    5    5    0    0  0.29493596432E+02  0.63979730676E+02 -0.12914779050E+03  0.16693258165E+03  0.78892692047E+02 0.  0.
          4    1    6    6  501    0 -0.16306993789E+02  0.28544645176E+02 -0.98421356639E+01  0.34315921219E+02  0.00000000000E+00 0. -1.
         -3    1    6    6    0  501  0.45800590221E+02  0.35435085500E+02 -0.11930565483E+03  0.13261666043E+03  0.00000000000E+00 0.  1.
          5    1    5    5  502    0  0.75324391686E+01 -0.62513416960E+02 -0.32432343795E+02  0.70983180148E+02  0.47000000000E+01 0. -1.
         13    1    4    4    0    0 -0.36666059729E+02  0.14060970176E+02 -0.76439308869E+02  0.85936480953E+02  0.00000000000E+00 0. -1.
        -14    1    4    4    0    0  0.11600737679E+02 -0.52044649155E+02 -0.74184680157E+02  0.91359670481E+02  0.00000000000E+00 0.  1.
         -5    1    3    3    0  504 -0.11960713551E+02  0.36517365263E+02 -0.37620144193E+03  0.37818803728E+03  0.47000000000E+01 0.  1.
<mgrwt>
<rscale>  2 0.17574512E+03</rscale>
<asrwt>0</asrwt>
<pdfrwt beam="1">  1       21 0.80764918E-02 0.17611828E+03</pdfrwt>
<pdfrwt beam="2">  1       21 0.11398503E+00 0.17611828E+03</pdfrwt>
<totfact> 0.71261109E+04</totfact>
</mgrwt>
</event>
<event>
12    1  0.2736842E-001  0.1951117E+03  0.7546771E-02  0.1155013E+00
         21   -1    0    0  502  503  0.00000000000E+00  0.00000000000E+00  0.26339332103E+03  0.26339332103E+03  0.00000000000E+00 0.  1.
         21   -1    0    0  503  504 -0.00000000000E+00 -0.00000000000E+00 -0.48759137584E+03  0.48759137584E+03  0.00000000000E+00 0.  1.
         -6    2    1    2    0  504 -0.21797557691E+01 -0.79034536002E+02 -0.42829440846E+03  0.46863049175E+03  0.17299487930E+03 0.  0.
        -24    2    3    3    0    0  0.34517890977E+02 -0.77826736268E+02 -0.40395897886E+03  0.42433061375E+03  0.98107734107E+02 0.  0.
          6    2    1    2  502    0  0.21797557691E+01  0.79034536002E+02  0.20409635366E+03  0.28235420512E+03  0.17837423121E+03 0.  0.
         24    2    5    5    0    0  0.55116276315E+02  0.60290486698E+02  0.19391727447E+03  0.22508887316E+03  0.79927121674E+02 0.  0.
          2    1    6    6  501    0  0.31802144834E+02 -0.13976626516E+02  0.42990555950E+02  0.55271243931E+02  0.00000000000E+00 0. -1.
         -1    1    6    6    0  501  0.23314131482E+02  0.74267113214E+02  0.15092671852E+03  0.16981762923E+03  0.00000000000E+00 0.  1.
          5    1    5    5  502    0 -0.52936520546E+02  0.18744049304E+02  0.10179079180E+02  0.57265331963E+02  0.47000000000E+01 0. -1.
         13    1    4    4    0    0  0.12878763176E+02 -0.49809263644E+01 -0.26973192305E+03  0.27008513931E+03  0.00000000000E+00 0. -1.
        -14    1    4    4    0    0  0.21639127800E+02 -0.72845809904E+02 -0.13422705581E+03  0.15424547444E+03  0.00000000000E+00 0.  1.
         -5    1    3    3    0  504 -0.36697646746E+02 -0.12077997341E+01 -0.24335429600E+02  0.44299877999E+02  0.47000000000E+01 0.  1.
<mgrwt>
<rscale>  2 0.19387362E+03</rscale>
<asrwt>0</asrwt>
<pdfrwt beam="1">  1       21 0.40522050E-01 0.19511170E+03</pdfrwt>
<pdfrwt beam="2">  1       21 0.75014057E-01 0.19511170E+03</pdfrwt>
<totfact> 0.93093740E+03</totfact>
</mgrwt>
</event>
<event>
12    1  0.2736842E-001  0.2059852E+03  0.7546771E-02  0.1145416E+00
         21   -1    0    0  502  503  0.00000000000E+00  0.00000000000E+00  0.41705686639E+02  0.41705686639E+02  0.00000000000E+00 0. -1.
         21   -1    0    0  503  504 -0.00000000000E+00 -0.00000000000E+00 -0.16152583888E+04  0.16152583888E+04  0.00000000000E+00 0.  1.
         -6    2    1    2    0  504  0.92533260354E+02  0.52981818822E+02 -0.13008445362E+04  0.13170521616E+04  0.17623964236E+03 0.  0.
        -24    2    3    3    0    0  0.12119172003E+03  0.32051482754E+02 -0.12113229766E+04  0.12206385426E+04  0.83308868898E+02 0.  0.
          6    2    1    2  502    0 -0.92533260354E+02 -0.52981818822E+02 -0.27270816589E+03  0.33991191379E+03  0.17262933702E+03 0.  0.
         24    2    5    5    0    0 -0.93990400583E+02 -0.44482278008E+02 -0.29087419754E+03  0.31926100200E+03  0.80665482971E+02 0.  0.
          4    1    6    6  501    0 -0.10797067561E+03 -0.37947876172E+02 -0.23643867941E+03  0.26268033276E+03  0.00000000000E+00 0. -1.
         -3    1    6    6    0  501  0.13980275027E+02 -0.65344018365E+01 -0.54435518137E+02  0.56580669244E+02  0.00000000000E+00 0.  1.
          5    1    5    5  502    0  0.14571402293E+01 -0.84995408141E+01  0.18166031658E+02  0.20650911793E+02  0.47000000000E+01 0. -1.
         13    1    4    4    0    0  0.35879368825E+02 -0.28564243104E+02 -0.37106985529E+03  0.37389314329E+03  0.00000000000E+00 0. -1.
        -14    1    4    4    0    0  0.85312351206E+02  0.60615725858E+02 -0.84025312128E+03  0.84674539934E+03  0.00000000000E+00 0.  1.
         -5    1    3    3    0  504 -0.28658459677E+02  0.20930336069E+02 -0.89521559657E+02  0.96413618968E+02  0.47000000000E+01 0.  1.
<mgrwt>
<rscale>  2 0.20521072E+03</rscale>
<asrwt>0</asrwt>
<pdfrwt beam="1">  1       21 0.64162592E-02 0.20598517E+03</pdfrwt>
<pdfrwt beam="2">  1       21 0.24850130E+00 0.20598517E+03</pdfrwt>
<totfact> 0.11781638E+04</totfact>
</mgrwt>
</event>
<event>
12    1  0.2736842E-001  0.1829897E+03  0.7546771E-02  0.1165626E+00
         21   -1    0    0  502  503  0.00000000000E+00  0.00000000000E+00  0.44187360249E+02  0.44187360249E+02  0.00000000000E+00 0.  1.
         21   -1    0    0  503  504 -0.00000000000E+00 -0.00000000000E+00 -0.94408620512E+03  0.94408620512E+03  0.00000000000E+00 0.  1.
         -6    2    1    2    0  504 -0.48634587283E+02 -0.13318091903E+02 -0.67350133356E+03  0.69717038859E+03  0.17291561455E+03 0.  0.
        -24    2    3    3    0    0 -0.88470128821E+02  0.49275301509E+01 -0.33074203597E+03  0.35159000838E+03  0.79837305756E+02 0.  0.
          6    2    1    2  502    0  0.48634587283E+02  0.13318091903E+02 -0.22639751130E+03  0.29110317678E+03  0.17590489406E+03 0.  0.
         24    2    5    5    0    0  0.81631242354E+02  0.14487227955E+02 -0.23058810841E+03  0.25749072032E+03  0.79101553773E+02 0.  0.
          4    1    6    6  501    0  0.80979798976E+02 -0.15989629495E+02 -0.14808934498E+03  0.16954011381E+03  0.00000000000E+00 0. -1.
         -3    1    6    6    0  501  0.65144337859E+00  0.30476857450E+02 -0.82498763432E+02  0.87950606514E+02  0.00000000000E+00 0.  1.
          5    1    5    5  502    0 -0.32996655071E+02 -0.11691360517E+01  0.41905971074E+01  0.33612456457E+02  0.47000000000E+01 0. -1.
         13    1    4    4    0    0 -0.41819440345E+01 -0.14205605309E+02 -0.67628228449E+01  0.16279547013E+02  0.00000000000E+00 0. -1.
        -14    1    4    4    0    0 -0.84288184786E+02  0.19133135460E+02 -0.32397921313E+03  0.33531046137E+03  0.00000000000E+00 0.  1.
         -5    1    3    3    0  504  0.39835541537E+02 -0.18245622054E+02 -0.34275929759E+03  0.34558038020E+03  0.47000000000E+01 0.  1.
<mgrwt>
<rscale>  2 0.18226751E+03</rscale>
<asrwt>0</asrwt>
<pdfrwt beam="1">  1       21 0.67980558E-02 0.18298969E+03</pdfrwt>
<pdfrwt beam="2">  1       21 0.14524402E+00 0.18298969E+03</pdfrwt>
<totfact> 0.52020740E+04</totfact>
</mgrwt>
</event>
<event>
12    1  0.2736842E-001  0.2411075E+03  0.7546771E-02  0.1119146E+00
         21   -1    0    0  502  503  0.00000000000E+00  0.00000000000E+00  0.23327042221E+03  0.23327042221E+03  0.00000000000E+00 0. -1.
         21   -1    0    0  503  504 -0.00000000000E+00 -0.00000000000E+00 -0.30480674222E+03  0.30480674222E+03  0.00000000000E+00 0. -1.
         -6    2    1    2    0  504 -0.12537827529E+03 -0.11128390565E+03 -0.15127388228E+03  0.28463419225E+03  0.17328882354E+03 0.  0.
        -24    2    3    3    0    0 -0.98417821886E+02 -0.14833085178E+03 -0.12609699385E+03  0.23214316466E+03  0.79384430396E+02 0.  0.
          6    2    1    2  502    0  0.12537827529E+03  0.11128390565E+03  0.79737562268E+02  0.25344297219E+03  0.17254402841E+03 0.  0.
         24    2    5    5    0    0  0.47598719249E+02  0.93032526906E+02  0.11238819067E+03  0.16700845536E+03  0.65878901192E+02 0.  0.
          4    1    6    6  501    0  0.35497030882E+02  0.97629168887E+02  0.76944478069E+02  0.12927469406E+03  0.00000000000E+00 0. -1.
         -3    1    6    6    0  501  0.12101688367E+02 -0.45966419802E+01  0.35443712598E+02  0.37733761296E+02  0.00000000000E+00 0.  1.
          5    1    5    5  502    0  0.77779556045E+02  0.18251378741E+02 -0.32650628399E+02  0.86434516829E+02  0.47000000000E+01 0. -1.
         13    1    4    4    0    0  0.11293438453E+02 -0.35182979878E+02 -0.29592394527E+02  0.47340190526E+02  0.00000000000E+00 0. -1.
        -14    1    4    4    0    0 -0.10971126034E+03 -0.11314787190E+03 -0.96504599319E+02  0.18480297414E+03  0.00000000000E+00 0.  1.
         -5    1    3    3    0  504 -0.26960453409E+02  0.37046946131E+02 -0.25176888437E+02  0.52491027586E+02  0.47000000000E+01 0.  1.
<mgrwt>
<rscale>  2 0.24097372E+03</rscale>
<asrwt>0</asrwt>
<pdfrwt beam="1">  1       21 0.35887757E-01 0.24110752E+03</pdfrwt>
<pdfrwt beam="2">  1       21 0.46893345E-01 0.24110752E+03</pdfrwt>
<totfact> 0.31806348E+04</totfact>
</mgrwt>
</event>
<event>
12    1  0.2736842E-001  0.1823155E+03  0.7546771E-02  0.1166168E+00
         21   -1    0    0  502  503  0.00000000000E+00  0.00000000000E+00  0.31989911816E+02  0.31989911816E+02  0.00000000000E+00 0. -1.
         21   -1    0    0  503  504 -0.00000000000E+00 -0.00000000000E+00 -0.10421363598E+04  0.10421363598E+04  0.00000000000E+00 0. -1.
         -6    2    1    2    0  504  0.18987979569E+02 -0.39653249689E+02 -0.43981745236E+03  0.47610749803E+03  0.17693511438E+03 0.  0.
        -24    2    3    3    0    0 -0.16272277298E+02 -0.73198159524E+02 -0.39430793320E+03  0.40931114315E+03  0.80212892744E+02 0.  0.
          6    2    1    2  502    0 -0.18987979569E+02  0.39653249689E+02 -0.57032899566E+03  0.59801877363E+03  0.17440862002E+03 0.  0.
         24    2    5    5    0    0  0.22469304784E+02  0.49261573530E+02 -0.53236170210E+03  0.54079437591E+03  0.78217663449E+02 0.  0.
          2    1    6    6  501    0  0.50834698681E+02  0.23850883725E+02 -0.35258675722E+03  0.35703004441E+03  0.00000000000E+00 0. -1.
         -1    1    6    6    0  501 -0.28365393897E+02  0.25410689804E+02 -0.17977494488E+03  0.18376433151E+03  0.00000000000E+00 0.  1.
          5    1    5    5  502    0 -0.41457284353E+02 -0.96083238404E+01 -0.37967293566E+02  0.57224397713E+02  0.47000000000E+01 0. -1.
         11    1    4    4    0    0 -0.33165865151E+02 -0.62640691772E+01 -0.20603249539E+03  0.20877883593E+03  0.00000000000E+00 0. -1.
        -12    1    4    4    0    0  0.16893587854E+02 -0.66934090347E+02 -0.18827543781E+03  0.20053230723E+03  0.00000000000E+00 0.  1.
         -5    1    3    3    0  504  0.35260256866E+02  0.33544909834E+02 -0.45509519167E+02  0.66796354877E+02  0.47000000000E+01 0.  1.
<mgrwt>
<rscale>  2 0.18169971E+03</rscale>
<asrwt>0</asrwt>
<pdfrwt beam="1">  1       21 0.49215248E-02 0.18231555E+03</pdfrwt>
<pdfrwt beam="2">  1       21 0.16032867E+00 0.18231555E+03</pdfrwt>
<totfact> 0.69544184E+04</totfact>
</mgrwt>
</event>
<event>
12    1  0.2736842E-001  0.1883094E+03  0.7546771E-02  0.1160812E+00
         21   -1    0    0  502  503  0.00000000000E+00  0.00000000000E+00  0.91015472313E+03  0.91015472313E+03  0.00000000000E+00 0.  1.
         21   -1    0    0  503  504 -0.00000000000E+00 -0.00000000000E+00 -0.40238521628E+02  0.40238521628E+02  0.00000000000E+00 0.  1.
         -6    2    1    2    0  504 -0.47963417641E+02 -0.45646101537E+02  0.54501673995E+03  0.57663131356E+03  0.17628490843E+03 0.  0.
        -24    2    3    3    0    0 -0.63180826854E+01 -0.82586939833E+02  0.46831743872E+03  0.48174278809E+03  0.76774798377E+02 0.  0.
          6    2    1    2  502    0  0.47963417641E+02  0.45646101537E+02  0.32489946155E+03  0.37376193120E+03  0.17249424650E+03 0.  0.
         24    2    5    5    0    0  0.92054217852E+02  0.48328621356E+02  0.18120894195E+03  0.22336163200E+03  0.79019638940E+02 0.  0.
          4    1    6    6  501    0  0.10264118249E+03  0.55562051776E+02  0.17068040711E+03  0.20677077964E+03  0.00000000000E+00 0. -1.
         -3    1    6    6    0  501 -0.10586964643E+02 -0.72334304204E+01  0.10528534839E+02  0.16590852354E+02  0.00000000000E+00 0.  1.
          5    1    5    5  502    0 -0.44090800210E+02 -0.26825198183E+01  0.14369051960E+03  0.15040029920E+03  0.47000000000E+01 0. -1.
         13    1    4    4    0    0 -0.15295233371E+01 -0.58490303456E+02  0.13030320580E+03  0.14283690168E+03  0.00000000000E+00 0. -1.
        -14    1    4    4    0    0 -0.47885593483E+01 -0.24096636378E+02  0.33801423292E+03  0.33890588640E+03  0.00000000000E+00 0.  1.
         -5    1    3    3    0  504 -0.41645334956E+02  0.36940838296E+02  0.76699301229E+02  0.94888525474E+02  0.47000000000E+01 0.  1.
<mgrwt>
<rscale>  2 0.18741711E+03</rscale>
<asrwt>0</asrwt>
<pdfrwt beam="1">  1       21 0.14002379E+00 0.18830939E+03</pdfrwt>
<pdfrwt beam="2">  1       21 0.61905425E-02 0.18830939E+03</pdfrwt>
<totfact> 0.66994848E+04</totfact>
</mgrwt>
</event>
<event>
12    1  0.2736842E-001  0.2350862E+03  0.7546771E-02  0.1123193E+00
         21   -1    0    0  502  503  0.00000000000E+00  0.00000000000E+00  0.18712165697E+03  0.18712165697E+03  0.00000000000E+00 0.  1.
         21   -1    0    0  503  504 -0.00000000000E+00 -0.00000000000E+00 -0.42821242638E+03  0.42821242638E+03  0.00000000000E+00 0.  1.
         -6    2    1    2    0  504  0.13412151327E+03 -0.85265963661E+02 -0.29240285930E+03  0.37518655520E+03  0.17322428869E+03 0.  0.
        -24    2    3    3    0    0  0.39078517097E+02 -0.42454361047E+02 -0.23639425966E+03  0.25675911888E+03  0.81935925293E+02 0.  0.
          6    2    1    2  502    0 -0.13412151327E+03  0.85265963661E+02  0.51312089894E+02  0.24014752815E+03  0.17256604482E+03 0.  0.
         24    2    5    5    0    0 -0.85704323328E+02 -0.13251796805E+02 -0.17329167201E+01  0.11814000323E+03  0.80207332626E+02 0.  0.
          4    1    6    6  501    0 -0.13473781584E+02 -0.38911552452E+02 -0.45934543758E+01  0.41433700384E+02  0.00000000000E+00 0. -1.
         -3    1    6    6    0  501 -0.72230541744E+02  0.25659755647E+02  0.28605376557E+01  0.76706302845E+02  0.00000000000E+00 0.  1.
          5    1    5    5  502    0 -0.48417189946E+02  0.98517760467E+02  0.53045006614E+02  0.12200752492E+03  0.47000000000E+01 0. -1.
         13    1    4    4    0    0 -0.20894671040E+02 -0.11339620355E+02 -0.23608126529E+02  0.33503998357E+02  0.00000000000E+00 0. -1.
        -14    1    4    4    0    0  0.59973188138E+02 -0.31114740692E+02 -0.21278613314E+03  0.22325512052E+03  0.00000000000E+00 0.  1.
         -5    1    3    3    0  504  0.95042996176E+02 -0.42811602614E+02 -0.56008599637E+02  0.11842743632E+03  0.47000000000E+01 0.  1.
<mgrwt>
<rscale>  2 0.23496495E+03</rscale>
<asrwt>0</asrwt>
<pdfrwt beam="1">  1       21 0.28787948E-01 0.23508619E+03</pdfrwt>
<pdfrwt beam="2">  1       21 0.65878834E-01 0.23508619E+03</pdfrwt>
<totfact> 0.23878218E+04</totfact>
</mgrwt>
</event>
<event>
12    1  0.2736842E-001  0.1984821E+03  0.7546771E-02  0.1151400E+00
         21   -1    0    0  502  503  0.00000000000E+00  0.00000000000E+00  0.27741963876E+03  0.27741963876E+03  0.00000000000E+00 0.  1.
         21   -1    0    0  503  504 -0.00000000000E+00 -0.00000000000E+00 -0.43337739044E+03  0.43337739044E+03  0.00000000000E+00 0.  1.
         -6    2    1    2    0  504  0.61811640155E+02  0.70172976835E+02 -0.37012519245E+03  0.41998549035E+03  0.17507206653E+03 0.  0.
        -24    2    3    3    0    0  0.54930998943E+02  0.48039783232E+02 -0.96798573569E+02  0.14563762345E+03  0.80716281511E+02 0.  0.
          6    2    1    2  502    0 -0.61811640155E+02 -0.70172976835E+02  0.21416744078E+03  0.29081153884E+03  0.17308591190E+03 0.  0.
         24    2    5    5    0    0 -0.16592820396E+02 -0.10796281270E+03  0.12791433148E+03  0.18624336864E+03  0.79957648473E+02 0.  0.
          2    1    6    6  501    0 -0.19022676652E+02 -0.58338060753E+02  0.12154088592E+03  0.13615204189E+03  0.00000000000E+00 0. -1.
         -1    1    6    6    0  501  0.24298562558E+01 -0.49624751952E+02  0.63734455582E+01  0.50091326754E+02  0.00000000000E+00 0.  1.
          5    1    5    5  502    0 -0.45218819759E+02  0.37789835870E+02  0.86253109294E+02  0.10456817020E+03  0.47000000000E+01 0. -1.
         13    1    4    4    0    0 -0.18430359956E+02  0.33371542565E+01 -0.35381526021E+02  0.40033325495E+02  0.00000000000E+00 0. -1.
        -14    1    4    4    0    0  0.73361358898E+02  0.44702628975E+02 -0.61417047548E+02  0.10560429795E+03  0.00000000000E+00 0.  1.
         -5    1    3    3    0  504  0.68806412123E+01  0.22133193603E+02 -0.27332661889E+03  0.27434786690E+03  0.47000000000E+01 0.  1.
<mgrwt>
<rscale>  2 0.19804325E+03</rscale>
<asrwt>0</asrwt>
<pdfrwt beam="1">  1       21 0.42679945E-01 0.19848213E+03</pdfrwt>
<pdfrwt beam="2">  1       21 0.66673445E-01 0.19848213E+03</pdfrwt>
<totfact> 0.10845331E+04</totfact>
</mgrwt>
</event>
<event>
12    1  0.2736842E-001  0.1986133E+03  0.7546771E-02  0.1151777E+00
         21   -1    0    0  502  503  0.00000000000E+00  0.00000000000E+00  0.45042795141E+03  0.45042795141E+03  0.00000000000E+00 0.  1.
         21   -1    0    0  503  504 -0.00000000000E+00 -0.00000000000E+00 -0.36482759535E+03  0.36482759535E+03  0.00000000000E+00 0.  1.
         -6    2    1    2    0  504 -0.95825346076E+02 -0.21148811656E+02 -0.31356772173E+03  0.37117646263E+03  0.17267739027E+03 0.  0.
        -24    2    3    3    0    0 -0.13231024417E+03 -0.27378637844E+02 -0.23272611928E+03  0.28214044065E+03  0.84771405141E+02 0.  0.
          6    2    1    2  502    0  0.95825346076E+02  0.21148811656E+02  0.39916807779E+03  0.44407908413E+03  0.16805150833E+03 0.  0.
         24    2    5    5    0    0  0.78029047974E+02 -0.22709608143E+01  0.39870843464E+03  0.41428822579E+03  0.81071749638E+02 0.  0.
          2    1    6    6  501    0  0.82105062110E+02 -0.76723695309E+01  0.21223923871E+03  0.22769629098E+03  0.00000000000E+00 0. -1.
         -1    1    6    6    0  501 -0.40760141363E+01  0.54014087166E+01  0.18646919592E+03  0.18659193481E+03  0.00000000000E+00 0.  1.
          5    1    5    5  502    0  0.17796298102E+02  0.23419772471E+02  0.45964315328E+00  0.29790858338E+02  0.47000000000E+01 0. -1.
         11    1    4    4    0    0 -0.35758146646E+02 -0.36406230403E+02 -0.13563190406E+03  0.14491401610E+03  0.00000000000E+00 0. -1.
        -12    1    4    4    0    0 -0.96552097526E+02  0.90275925599E+01 -0.97094215224E+02  0.13722642455E+03  0.00000000000E+00 0.  1.
         -5    1    3    3    0  504  0.36484898097E+02  0.62298261872E+01 -0.80841602448E+02  0.89036021978E+02  0.47000000000E+01 0.  1.
<mgrwt>
<rscale>  2 0.19760355E+03</rscale>
<asrwt>0</asrwt>
<pdfrwt beam="1">  1       21 0.69296607E-01 0.19861332E+03</pdfrwt>
<pdfrwt beam="2">  1       21 0.56127323E-01 0.19861332E+03</pdfrwt>
<totfact> 0.56351452E+03</totfact>
</mgrwt>
</event>
<event>
12    1  0.2736842E-001  0.2307741E+03  0.7546771E-02  0.1126113E+00
         21   -1    0    0  502  503  0.00000000000E+00  0.00000000000E+00  0.31108427061E+03  0.31108427061E+03  0.00000000000E+00 0.  1.
         21   -1    0    0  503  504 -0.00000000000E+00 -0.00000000000E+00 -0.71497762235E+03  0.71497762235E+03  0.00000000000E+00 0.  1.
         -6    2    1    2    0  504 -0.83363331063E+02  0.12731193702E+03 -0.64937990988E+03  0.68913412533E+03  0.17336032149E+03 0.  0.
        -24    2    3    3    0    0 -0.44758696715E+02  0.86690504711E+02 -0.60332225820E+03  0.61644426473E+03  0.80543154517E+02 0.  0.
          6    2    1    2  502    0  0.83363331063E+02 -0.12731193702E+03  0.24548655815E+03  0.33692776763E+03  0.17349033430E+03 0.  0.
         24    2    5    5    0    0  0.24241072461E+02  0.52633499847E+01  0.87324558348E+02  0.12219780612E+03  0.81800934493E+02 0.  0.
          4    1    6    6  501    0 -0.28137282324E+02  0.96531166823E+01  0.48328333148E+02  0.56749600026E+02  0.00000000000E+00 0. -1.
         -3    1    6    6    0  501  0.52378354785E+02 -0.43897666976E+01  0.38996225200E+02  0.65448206098E+02  0.00000000000E+00 0.  1.
          5    1    5    5  502    0  0.59122258603E+02 -0.13257528701E+03  0.15816199980E+03  0.21472996150E+03  0.47000000000E+01 0. -1.
         13    1    4    4    0    0  0.22390324345E+02  0.35808530215E+02 -0.19495031130E+03  0.19947230719E+03  0.00000000000E+00 0. -1.
        -14    1    4    4    0    0 -0.67149021060E+02  0.50881974496E+02 -0.40837194690E+03  0.41697195754E+03  0.00000000000E+00 0.  1.
         -5    1    3    3    0  504 -0.38604634349E+02  0.40621432309E+02 -0.46057651680E+02  0.72689860602E+02  0.47000000000E+01 0.  1.
<mgrwt>
<rscale>  2 0.23074963E+03</rscale>
<asrwt>0</asrwt>
<pdfrwt beam="1">  1       21 0.47859119E-01 0.23077407E+03</pdfrwt>
<pdfrwt beam="2">  1       21 0.10999656E+00 0.23077407E+03</pdfrwt>
<totfact> 0.26410847E+03</totfact>
</mgrwt>
</event>
<event>
12    1  0.2736842E-001  0.1738490E+03  0.7546771E-02  0.1177957E+00
         21   -1    0    0  502  503  0.00000000000E+00  0.00000000000E+00  0.12031218442E+03  0.12031218442E+03  0.00000000000E+00 0. -1.
         21   -1    0    0  503  504 -0.00000000000E+00 -0.00000000000E+00 -0.10376886471E+04  0.10376886471E+04  0.00000000000E+00 0. -1.
         -6    2    1    2    0  504  0.40290518660E+01  0.24650408941E+01 -0.97417643264E+03  0.98956716965E+03  0.17378478540E+03 0.  0.
        -24    2    3    3    0    0 -0.11571194104E+02  0.63490432475E+02 -0.75255850298E+03  0.75912398177E+03  0.75894609400E+02 0.  0.
          6    2    1    2  502    0 -0.40290518660E+01 -0.24650408941E+01  0.56799969975E+02  0.16843366187E+03  0.15849716772E+03 0.  0.
         24    2    5    5    0    0  0.43739894159E+02  0.34832753463E+02  0.32550338342E+02  0.10298801799E+03  0.80128074160E+02 0.  0.
          4    1    6    6  501    0  0.50185042122E+02  0.31472411171E+02  0.54113399159E+02  0.80232855404E+02  0.00000000000E+00 0. -1.
         -3    1    6    6    0  501 -0.64451479626E+01  0.33603422919E+01 -0.21563060817E+02  0.22755162587E+02  0.00000000000E+00 0.  1.
          5    1    5    5  502    0 -0.47768946025E+02 -0.37297794357E+02  0.24249631632E+02  0.65445643878E+02  0.47000000000E+01 0. -1.
         13    1    4    4    0    0 -0.85247139739E+01  0.96494691366E+01 -0.52887612955E+03  0.52903283775E+03  0.00000000000E+00 0. -1.
        -14    1    4    4    0    0 -0.30464801304E+01  0.53840963338E+02 -0.22368237343E+03  0.23009114402E+03  0.00000000000E+00 0.  1.
         -5    1    3    3    0  504  0.15600245970E+02 -0.61025391580E+02 -0.22161792966E+03  0.23044318788E+03  0.47000000000E+01 0.  1.
<mgrwt>
<rscale>  2 0.16989580E+03</rscale>
<asrwt>0</asrwt>
<pdfrwt beam="1">  1       21 0.18509567E-01 0.17384896E+03</pdfrwt>
<pdfrwt beam="2">  1       21 0.15964441E+00 0.17384896E+03</pdfrwt>
<totfact> 0.68590727E+03</totfact>
</mgrwt>
</event>
<event>
12    1  0.2736842E-001  0.2686131E+03  0.7546771E-02  0.1102174E+00
         21   -1    0    0  502  503  0.00000000000E+00  0.00000000000E+00  0.62917461956E+03  0.62917461956E+03  0.00000000000E+00 0. -1.
         21   -1    0    0  503  504 -0.00000000000E+00 -0.00000000000E+00 -0.18033527022E+03  0.18033527022E+03  0.00000000000E+00 0.  1.
         -6    2    1    2    0  504 -0.12648539864E+03  0.16079623396E+03 -0.20164847510E+02  0.26936889550E+03  0.17406606752E+03 0.  0.
        -24    2    3    3    0    0 -0.11595506377E+02  0.40404912422E+02  0.29414252444E+02  0.95662433908E+02  0.80740883686E+02 0.  0.
          6    2    1    2  502    0  0.12648539864E+03 -0.16079623396E+03  0.46900419685E+03  0.54014099428E+03  0.17301263569E+03 0.  0.
         24    2    5    5    0    0  0.14676636652E+03 -0.81185271445E+02  0.33339132640E+03  0.38151513370E+03  0.79199785898E+02 0.  0.
          4    1    6    6  501    0  0.75027199071E+01  0.12301535113E+02  0.51671265385E+02  0.53642690450E+02  0.00000000000E+00 0. -1.
         -3    1    6    6    0  501  0.13926364661E+03 -0.93486806559E+02  0.28172006101E+03  0.32787244325E+03  0.00000000000E+00 0.  1.
          5    1    5    5  502    0 -0.20280967878E+02 -0.79610962515E+02  0.13561287046E+03  0.15862586058E+03  0.47000000000E+01 0. -1.
         11    1    4    4    0    0  0.18293731202E+02  0.16422508926E+00 -0.18714531760E+02  0.26171000558E+02  0.00000000000E+00 0. -1.
        -12    1    4    4    0    0 -0.29889237579E+02  0.40240687333E+02  0.48128784204E+02  0.69491433351E+02  0.00000000000E+00 0.  1.
         -5    1    3    3    0  504 -0.11488989226E+03  0.12039132154E+03 -0.49579099954E+02  0.17370646159E+03  0.47000000000E+01 0.  1.
<mgrwt>
<rscale>  2 0.26844255E+03</rscale>
<asrwt>0</asrwt>
<pdfrwt beam="1">  1       21 0.96796094E-01 0.26861307E+03</pdfrwt>
<pdfrwt beam="2">  1       21 0.27743888E-01 0.26861307E+03</pdfrwt>
<totfact> 0.10499667E+04</totfact>
</mgrwt>
</event>
<event>
12    1  0.2736842E-001  0.2159658E+03  0.7546771E-02  0.1137142E+00
         21   -1    0    0  502  503  0.00000000000E+00  0.00000000000E+00  0.14189099747E+04  0.14189099747E+04  0.00000000000E+00 0.  1.
         21   -1    0    0  503  504 -0.00000000000E+00 -0.00000000000E+00 -0.41246614760E+02  0.41246614760E+02  0.00000000000E+00 0. -1.
         -6    2    1    2    0  504  0.83102907668E+02 -0.98013869030E+02  0.10197317510E+04  0.10421180185E+04  0.17217522683E+03 0.  0.
        -24    2    3    3    0    0 -0.17802162930E+02 -0.34121349091E+02  0.55382621954E+03  0.56112514786E+03  0.81589010556E+02 0.  0.
          6    2    1    2  502    0 -0.83102907668E+02  0.98013869030E+02  0.35793160891E+03  0.41803857091E+03  0.17357533906E+03 0.  0.
         24    2    5    5    0    0  0.30658085084E+02  0.33640814941E+02  0.12757500885E+03  0.15313914329E+03  0.71446425473E+02 0.  0.
          4    1    6    6  501    0 -0.12866582269E+02 -0.46824658635E+01  0.70337689149E+02  0.71657971927E+02  0.00000000000E+00 0. -1.
         -3    1    6    6    0  501  0.43524667353E+02  0.38323280804E+02  0.57237319704E+02  0.81481171363E+02  0.00000000000E+00 0.  1.
          5    1    5    5  502    0 -0.11376099275E+03  0.64373054089E+02  0.23035660006E+03  0.26489942762E+03  0.47000000000E+01 0. -1.
         13    1    4    4    0    0 -0.45295966128E+02 -0.39591867651E+02  0.42846440745E+03  0.43266729595E+03  0.00000000000E+00 0. -1.
        -14    1    4    4    0    0  0.27493803198E+02  0.54705185603E+01  0.12536181209E+03  0.12845785191E+03  0.00000000000E+00 0.  1.
         -5    1    3    3    0  504  0.10090507060E+03 -0.63892519939E+02  0.46590553144E+03  0.48099287064E+03  0.47000000000E+01 0.  1.
<mgrwt>
<rscale>  2 0.21568429E+03</rscale>
<asrwt>0</asrwt>
<pdfrwt beam="1">  1       21 0.21829380E+00 0.21596576E+03</pdfrwt>
<pdfrwt beam="2">  1       21 0.63456341E-02 0.21596576E+03</pdfrwt>
<totfact> 0.18124999E+04</totfact>
</mgrwt>
</event>
<event>
12    1  0.2736842E-001  0.2410383E+03  0.7546771E-02  0.1119180E+00
         21   -1    0    0  502  503  0.00000000000E+00  0.00000000000E+00  0.27175617260E+03  0.27175617260E+03  0.00000000000E+00 0. -1.
         21   -1    0    0  503  504 -0.00000000000E+00 -0.00000000000E+00 -0.46742323511E+03  0.46742323511E+03  0.00000000000E+00 0. -1.
         -6    2    1    2    0  504  0.15927102348E+03  0.51140482298E+02 -0.37034623011E+03  0.44187759003E+03  0.17354211755E+03 0.  0.
        -24    2    3    3    0    0  0.11494519251E+03 -0.10192712169E+02 -0.13694463595E+03  0.19646990027E+03  0.80810269985E+02 0.  0.
          6    2    1    2  502    0 -0.15927102348E+03 -0.51140482298E+02  0.17467916760E+03  0.29730181768E+03  0.17289578175E+03 0.  0.
         24    2    5    5    0    0 -0.32187867660E+02 -0.33350497219E+02  0.13405186701E+03  0.16261967477E+03  0.79542071167E+02 0.  0.
          2    1    6    6  501    0 -0.52448742468E+02 -0.44578116263E+02  0.10287768262E+03  0.12378164895E+03  0.00000000000E+00 0. -1.
         -1    1    6    6    0  501  0.20260874808E+02  0.11227619044E+02  0.31174184386E+02  0.38838025819E+02  0.00000000000E+00 0.  1.
          5    1    5    5  502    0 -0.12708315582E+03 -0.17789985079E+02  0.40627300592E+02  0.13468214290E+03  0.47000000000E+01 0. -1.
         11    1    4    4    0    0  0.12344030924E+02  0.28456749710E+02 -0.34871654736E+02  0.46671126058E+02  0.00000000000E+00 0. -1.
        -12    1    4    4    0    0  0.10260116159E+03 -0.38649461878E+02 -0.10207298121E+03  0.14979877421E+03  0.00000000000E+00 0.  1.
         -5    1    3    3    0  504  0.44325830974E+02  0.61333194467E+02 -0.23340159416E+03  0.24540768976E+03  0.47000000000E+01 0.  1.
<mgrwt>
<rscale>  2 0.24092201E+03</rscale>
<asrwt>0</asrwt>
<pdfrwt beam="1">  1       21 0.41808642E-01 0.24103833E+03</pdfrwt>
<pdfrwt beam="2">  1       21 0.71911266E-01 0.24103833E+03</pdfrwt>
<totfact> 0.93185463E+03</totfact>
</mgrwt>
</event>
<event>
12    1  0.2736842E-001  0.2866546E+03  0.7546771E-02  0.1092123E+00
         21   -1    0    0  502  503  0.00000000000E+00  0.00000000000E+00  0.91536252468E+03  0.91536252468E+03  0.00000000000E+00 0. -1.
         21   -1    0    0  503  504 -0.00000000000E+00 -0.00000000000E+00 -0.10189828822E+03  0.10189828822E+03  0.00000000000E+00 0.  1.
         -6    2    1    2    0  504 -0.20094569326E+03  0.10887157186E+03  0.23093572644E+03  0.36802254179E+03  0.17284990806E+03 0.  0.
        -24    2    3    3    0    0 -0.60704423538E+02  0.10110173040E+03  0.14037134125E+03  0.20083407916E+03  0.81997725463E+02 0.  0.
          6    2    1    2  502    0  0.20094569326E+03 -0.10887157186E+03  0.58252851002E+03  0.64923827112E+03  0.17302796566E+03 0.  0.
         24    2    5    5    0    0  0.19789125023E+03 -0.10047111136E+03  0.38706472281E+03  0.45351377222E+03  0.81241927681E+02 0.  0.
          2    1    6    6  501    0  0.30755131731E+02 -0.28410703398E+02  0.14332899863E+03  0.14931928222E+03  0.00000000000E+00 0. -1.
         -1    1    6    6    0  501  0.16713611850E+03 -0.72060407960E+02  0.24373572418E+03  0.30419449000E+03  0.00000000000E+00 0.  1.
          5    1    5    5  502    0  0.30544430286E+01 -0.84004605062E+01  0.19546378721E+03  0.19572449890E+03  0.47000000000E+01 0. -1.
         11    1    4    4    0    0 -0.24110701753E+02  0.32816487489E+02  0.11056519011E+03  0.11782575717E+03  0.00000000000E+00 0. -1.
        -12    1    4    4    0    0 -0.36593721786E+02  0.68285242912E+02  0.29806151149E+02  0.83008321993E+02  0.00000000000E+00 0.  1.
         -5    1    3    3    0  504 -0.14024126972E+03  0.77698414625E+01  0.90564385185E+02  0.16718846262E+03  0.47000000000E+01 0.  1.
<mgrwt>
<rscale>  2 0.28662775E+03</rscale>
<asrwt>0</asrwt>
<pdfrwt beam="1">  1       21 0.14082500E+00 0.28665461E+03</pdfrwt>
<pdfrwt beam="2">  1       21 0.15676660E-01 0.28665461E+03</pdfrwt>
<totfact> 0.12049836E+04</totfact>
</mgrwt>
</event>
<event>
12    1  0.2736842E-001  0.1980581E+03  0.7546771E-02  0.1151389E+00
         21   -1    0    0  502  503  0.00000000000E+00  0.00000000000E+00  0.14275484763E+04  0.14275484763E+04  0.00000000000E+00 0.  1.
         21   -1    0    0  503  504 -0.00000000000E+00 -0.00000000000E+00 -0.41526585192E+02  0.41526585192E+02  0.00000000000E+00 0. -1.
         -6    2    1    2    0  504  0.87579791238E+02  0.43892860637E+02  0.26577744309E+03  0.33145839251E+03  0.17213428962E+03 0.  0.
        -24    2    3    3    0    0  0.93262468643E+02 -0.26217989689E+02  0.14577262212E+03  0.19227839678E+03  0.79599330826E+02 0.  0.
          6    2    1    2  502    0 -0.87579791238E+02 -0.43892860637E+02  0.11202444480E+04  0.11376166690E+04  0.17212570748E+03 0.  0.
         24    2    5    5    0    0 -0.56753201147E+02 -0.89276503808E+02  0.93294450503E+03  0.94239035834E+03  0.80764584106E+02 0.  0.
          4    1    6    6  501    0  0.17947151400E+02 -0.36754341544E+02  0.24099690365E+03  0.24444322334E+03  0.00000000000E+00 0. -1.
         -3    1    6    6    0  501 -0.74700352547E+02 -0.52522162263E+02  0.69194760138E+03  0.69794713500E+03  0.00000000000E+00 0.  1.
          5    1    5    5  502    0 -0.30826590091E+02  0.45383643171E+02  0.18729994298E+03  0.19522631064E+03  0.47000000000E+01 0. -1.
         13    1    4    4    0    0  0.29789560423E+02  0.20397824611E+02  0.13912886838E+02  0.38691828326E+02  0.00000000000E+00 0. -1.
        -14    1    4    4    0    0  0.63472908220E+02 -0.46615814300E+02  0.13185973529E+03  0.15358656846E+03  0.00000000000E+00 0.  1.
         -5    1    3    3    0  504 -0.56826774048E+01  0.70110850326E+02  0.12000482096E+03  0.13917999572E+03  0.47000000000E+01 0.  1.
<mgrwt>
<rscale>  2 0.19805625E+03</rscale>
<asrwt>0</asrwt>
<pdfrwt beam="1">  1       21 0.21962280E+00 0.19805811E+03</pdfrwt>
<pdfrwt beam="2">  1       21 0.63887065E-02 0.19805811E+03</pdfrwt>
<totfact> 0.17827719E+04</totfact>
</mgrwt>
</event>
<event>
12    1  0.2736842E-001  0.2823429E+03  0.7546771E-02  0.1094428E+00
         21   -1    0    0  502  503  0.00000000000E+00  0.00000000000E+00  0.24751715213E+03  0.24751715213E+03  0.00000000000E+00 0.  1.
         21   -1    0    0  503  504 -0.00000000000E+00 -0.00000000000E+00 -0.47907098371E+03  0.47907098371E+03  0.00000000000E+00 0. -1.
         -6    2    1    2    0  504 -0.21958797077E+03  0.42151889095E+02 -0.32383070542E+03  0.42963219756E+03  0.17240023417E+03 0.  0.
        -24    2    3    3    0    0 -0.12282233667E+03 -0.12967547782E+02 -0.27901341546E+03  0.30949719124E+03  0.51831859831E+02 0.  0.
          6    2    1    2  502    0  0.21958797077E+03 -0.42151889095E+02  0.92276873843E+02  0.29695593828E+03  0.17225605699E+03 0.  0.
         24    2    5    5    0    0  0.13361181956E+03  0.38944922139E+02  0.28115864086E+02  0.16239250884E+03  0.78816240876E+02 0.  0.
          2    1    6    6  501    0  0.83557714834E+02  0.20230340561E+02 -0.22415645875E+02  0.88846044186E+02  0.00000000000E+00 0. -1.
         -1    1    6    6    0  501  0.50054104731E+02  0.18714581579E+02  0.50531509961E+02  0.73546464653E+02  0.00000000000E+00 0.  1.
          5    1    5    5  502    0  0.85976151206E+02 -0.81096811234E+02  0.64161009757E+02  0.13456342944E+03  0.47000000000E+01 0. -1.
         13    1    4    4    0    0 -0.97797270545E+02 -0.25429389717E+02 -0.17795742547E+03  0.20464556010E+03  0.00000000000E+00 0. -1.
        -14    1    4    4    0    0 -0.25025066127E+02  0.12461841935E+02 -0.10105598999E+03  0.10485163114E+03  0.00000000000E+00 0.  1.
         -5    1    3    3    0  504 -0.96765634100E+02  0.55119436876E+02 -0.44817289959E+02  0.12013500632E+03  0.47000000000E+01 0.  1.
<mgrwt>
<rscale>  2 0.28232087E+03</rscale>
<asrwt>0</asrwt>
<pdfrwt beam="1">  1       21 0.38079562E-01 0.28234288E+03</pdfrwt>
<pdfrwt beam="2">  1       21 0.73703227E-01 0.28234288E+03</pdfrwt>
<totfact> 0.10435212E+04</totfact>
</mgrwt>
</event>
<event>
12    1  0.2736842E-001  0.3028964E+03  0.7546771E-02  0.1083938E+00
         21   -1    0    0  502  503  0.00000000000E+00  0.00000000000E+00  0.47766211835E+02  0.47766211835E+02  0.00000000000E+00 0.  1.
         21   -1    0    0  503  504 -0.00000000000E+00 -0.00000000000E+00 -0.19164084309E+04  0.19164084309E+04  0.00000000000E+00 0.  1.
         -6    2    1    2    0  504 -0.24638876879E+03  0.36456633359E+02 -0.97251415436E+03  0.10185921702E+04  0.17236506987E+03 0.  0.
        -24    2    3    3    0    0 -0.76637114394E+02 -0.33703394160E+02 -0.45918170410E+03  0.47336712667E+03  0.78863382817E+02 0.  0.
          6    2    1    2  502    0  0.24638876879E+03 -0.36456633359E+02 -0.89612806475E+03  0.94558247255E+03  0.17042356782E+03 0.  0.
         24    2    5    5    0    0  0.21896932411E+03 -0.16741636782E+02 -0.87245491667E+03  0.90407325699E+03  0.89123650551E+02 0.  0.
          4    1    6    6  501    0 -0.44760816861E+01  0.85361227732E+01 -0.71630748809E+02  0.72276309218E+02  0.00000000000E+00 0. -1.
         -3    1    6    6    0  501  0.22344540580E+03 -0.25277759555E+02 -0.80082416786E+03  0.83179694777E+03  0.00000000000E+00 0.  1.
          5    1    5    5  502    0  0.27419444678E+02 -0.19714996577E+02 -0.23673148083E+02  0.41509215563E+02  0.47000000000E+01 0. -1.
         13    1    4    4    0    0 -0.63184408241E+02 -0.50664530056E+02 -0.24379557698E+03  0.25689579094E+03  0.00000000000E+00 0. -1.
        -14    1    4    4    0    0 -0.13452706154E+02  0.16961135896E+02 -0.21538612712E+03  0.21647133572E+03  0.00000000000E+00 0.  1.
         -5    1    3    3    0  504 -0.16975165440E+03  0.70160027519E+02 -0.51333245026E+03  0.54522504356E+03  0.47000000000E+01 0.  1.
<mgrwt>
<rscale>  2 0.30262087E+03</rscale>
<asrwt>0</asrwt>
<pdfrwt beam="1">  1       21 0.73486496E-02 0.30289640E+03</pdfrwt>
<pdfrwt beam="2">  1       21 0.29483200E+00 0.30289640E+03</pdfrwt>
<totfact> 0.45970479E+03</totfact>
</mgrwt>
</event>
<event>
12    1  0.2736842E-001  0.2870174E+03  0.7546771E-02  0.1091994E+00
         21   -1    0    0  502  503  0.00000000000E+00  0.00000000000E+00  0.55572793090E+03  0.55572793090E+03  0.00000000000E+00 0.  1.
         21   -1    0    0  503  504 -0.00000000000E+00 -0.00000000000E+00 -0.30197327289E+03  0.30197327289E+03  0.00000000000E+00 0. -1.
         -6    2    1    2    0  504  0.20509625841E+03  0.10164416646E+03 -0.17935047999E+03  0.33844579183E+03  0.17315584756E+03 0.  0.
        -24    2    3    3    0    0  0.18612367853E+03  0.13476116632E+03 -0.17445947928E+03  0.29968103522E+03  0.81055643266E+02 0.  0.
          6    2    1    2  502    0 -0.20509625841E+03 -0.10164416646E+03  0.43310513801E+03  0.51925541196E+03  0.17219207442E+03 0.  0.
         24    2    5    5    0    0 -0.84383131899E+02  0.16483626205E+02  0.19915595243E+03  0.23067241568E+03  0.78450284155E+02 0.  0.
          4    1    6    6  501    0 -0.34703395483E+02  0.46523761905E+02  0.91386369211E+02  0.10826012450E+03  0.00000000000E+00 0. -1.
         -3    1    6    6    0  501 -0.49679736416E+02 -0.30040135700E+02  0.10776958322E+03  0.12241229118E+03  0.00000000000E+00 0.  1.
          5    1    5    5  502    0 -0.12071312651E+03 -0.11812779266E+03  0.23394918557E+03  0.28858299628E+03  0.47000000000E+01 0. -1.
         11    1    4    4    0    0  0.16315323187E+03  0.12442977716E+03 -0.11525373320E+03  0.23534053950E+03  0.00000000000E+00 0. -1.
        -12    1    4    4    0    0  0.22970446660E+02  0.10331389153E+02 -0.59205746075E+02  0.64340495723E+02  0.00000000000E+00 0.  1.
         -5    1    3    3    0  504  0.18972579880E+02 -0.33116999855E+02 -0.48910007106E+01  0.38764756605E+02  0.47000000000E+01 0.  1.
<mgrwt>
<rscale>  2 0.28687214E+03</rscale>
<asrwt>0</asrwt>
<pdfrwt beam="1">  1       21 0.85496605E-01 0.28701735E+03</pdfrwt>
<pdfrwt beam="2">  1       21 0.46457427E-01 0.28701735E+03</pdfrwt>
<totfact> 0.49325582E+03</totfact>
</mgrwt>
</event>
<event>
12    1  0.2736842E-001  0.1811415E+03  0.7546771E-02  0.1167137E+00
         21   -1    0    0  502  503  0.00000000000E+00  0.00000000000E+00  0.30717235665E+04  0.30717235665E+04  0.00000000000E+00 0. -1.
         21   -1    0    0  503  504 -0.00000000000E+00 -0.00000000000E+00 -0.10689636108E+02  0.10689636108E+02  0.00000000000E+00 0. -1.
         -6    2    1    2    0  504  0.42933988860E+02 -0.33749213246E+02  0.16816652454E+04  0.16912014276E+04  0.17082720565E+03 0.  0.
        -24    2    3    3    0    0 -0.22909348365E+02 -0.29651589324E+02  0.13588209734E+04  0.13616522665E+04  0.79362473326E+02 0.  0.
          6    2    1    2  502    0 -0.42933988860E+02  0.33749213246E+02  0.13793686850E+04  0.13912117751E+04  0.17271333797E+03 0.  0.
         24    2    5    5    0    0 -0.66938935718E+02 -0.15240006217E+02  0.11811561886E+04  0.11855750448E+04  0.75796874037E+02 0.  0.
          4    1    6    6  501    0 -0.59586542657E+02  0.15488342693E+02  0.98200627862E+03  0.98393433524E+03  0.00000000000E+00 0. -1.
         -3    1    6    6    0  501 -0.73523930605E+01 -0.30728348910E+02  0.19914990996E+03  0.20164070955E+03  0.00000000000E+00 0.  1.
          5    1    5    5  502    0  0.24004946858E+02  0.48989219463E+02  0.19821249643E+03  0.20563673027E+03  0.47000000000E+01 0. -1.
         13    1    4    4    0    0  0.94308423882E+01 -0.46662771586E+02  0.95341137747E+03  0.95459918800E+03  0.00000000000E+00 0. -1.
        -14    1    4    4    0    0 -0.32340190753E+02  0.17011182262E+02  0.40540959589E+03  0.40705307848E+03  0.00000000000E+00 0.  1.
         -5    1    3    3    0  504  0.65843337225E+02 -0.40976239223E+01  0.32284427206E+03  0.32954916110E+03  0.47000000000E+01 0.  1.
<mgrwt>
<rscale>  2 0.18069042E+03</rscale>
<asrwt>0</asrwt>
<pdfrwt beam="1">  1       21 0.47257215E+00 0.18114147E+03</pdfrwt>
<pdfrwt beam="2">  1       21 0.16445618E-02 0.18114147E+03</pdfrwt>
<totfact> 0.50456226E+03</totfact>
</mgrwt>
</event>
<event>
12    1  0.2736842E-001  0.3352415E+03  0.7546771E-02  0.1068890E+00
         21   -1    0    0  502  503  0.00000000000E+00  0.00000000000E+00  0.25871008150E+03  0.25871008150E+03  0.00000000000E+00 0.  1.
         21   -1    0    0  503  504 -0.00000000000E+00 -0.00000000000E+00 -0.49701645949E+03  0.49701645949E+03  0.00000000000E+00 0. -1.
         -6    2    1    2    0  504  0.27483626438E+03  0.81786044969E+02 -0.25395789806E+03  0.42057282335E+03  0.17367485822E+03 0.  0.
        -24    2    3    3    0    0  0.24843471671E+03  0.11282653364E+03 -0.18308795428E+03  0.33868758299E+03  0.82088030245E+02 0.  0.
          6    2    1    2  502    0 -0.27483626438E+03 -0.81786044969E+02  0.15651520072E+02  0.33515371765E+03  0.17279790220E+03 0.  0.
         24    2    5    5    0    0 -0.23501042313E+03 -0.11085201126E+03  0.47565866873E+02  0.27623391148E+03  0.80774963821E+02 0.  0.
          2    1    6    6  501    0 -0.99078196187E+02 -0.86224088875E+02  0.40827342325E+01  0.13140681558E+03  0.00000000000E+00 0. -1.
         -1    1    6    6    0  501 -0.13593222694E+03 -0.24627922382E+02  0.43483132640E+02  0.14482709590E+03  0.00000000000E+00 0.  1.
          5    1    5    5  502    0 -0.39825841254E+02  0.29065966287E+02 -0.31914346800E+02  0.58919806173E+02  0.47000000000E+01 0. -1.
         11    1    4    4    0    0  0.20604109724E+03  0.89960105661E+02 -0.18398744155E+03  0.29051184660E+03  0.00000000000E+00 0. -1.
        -12    1    4    4    0    0  0.42393619463E+02  0.22866427983E+02  0.89948726830E+00  0.48175736395E+02  0.00000000000E+00 0.  1.
         -5    1    3    3    0  504  0.26401547676E+02 -0.31040488675E+02 -0.70869943780E+02  0.81885240356E+02  0.47000000000E+01 0.  1.
<mgrwt>
<rscale>  2 0.33512811E+03</rscale>
<asrwt>0</asrwt>
<pdfrwt beam="1">  1       21 0.39801552E-01 0.33524153E+03</pdfrwt>
<pdfrwt beam="2">  1       21 0.76464070E-01 0.33524153E+03</pdfrwt>
<totfact> 0.85719948E+03</totfact>
</mgrwt>
</event>
<event>
12    1  0.2736842E-001  0.2395666E+03  0.7546771E-02  0.1120853E+00
         21   -1    0    0  502  503  0.00000000000E+00  0.00000000000E+00  0.25610943152E+03  0.25610943152E+03  0.00000000000E+00 0. -1.
         21   -1    0    0  503  504 -0.00000000000E+00 -0.00000000000E+00 -0.24196691176E+03  0.24196691176E+03  0.00000000000E+00 0. -1.
         -6    2    1    2    0  504 -0.11944469235E+03  0.11114305263E+03 -0.68304782627E+02  0.24471945038E+03  0.16912200739E+03 0.  0.
        -24    2    3    3    0    0 -0.86363186395E+02  0.11484481893E+03  0.45472309457E+01  0.16448482573E+03  0.79916507607E+02 0.  0.
          6    2    1    2  502    0  0.11944469235E+03 -0.11114305263E+03  0.82447302389E+02  0.25335689290E+03  0.17542048007E+03 0.  0.
         24    2    5    5    0    0  0.11288758541E+03 -0.14598723831E+03  0.55612787152E+02  0.20864342586E+03  0.79896285098E+02 0.  0.
          4    1    6    6  501    0  0.10993806635E+03 -0.12263684318E+03  0.72219663678E+02  0.17983840958E+03  0.00000000000E+00 0. -1.
         -3    1    6    6    0  501  0.29495190628E+01 -0.23350395123E+02 -0.16606876526E+02  0.28805016283E+02  0.00000000000E+00 0.  1.
          5    1    5    5  502    0  0.65571069388E+01  0.34844185672E+02  0.26834515237E+02  0.44713467038E+02  0.47000000000E+01 0. -1.
         11    1    4    4    0    0 -0.10968883194E+02  0.27709542404E+02 -0.31878461046E+02  0.43639104223E+02  0.00000000000E+00 0. -1.
        -12    1    4    4    0    0 -0.75394303201E+02  0.87135276526E+02  0.36425691991E+02  0.12084572151E+03  0.00000000000E+00 0.  1.
         -5    1    3    3    0  504 -0.33081505952E+02 -0.37017662970E+01 -0.72852013572E+02  0.80234624641E+02  0.47000000000E+01 0.  1.
<mgrwt>
<rscale>  2 0.23841512E+03</rscale>
<asrwt>0</asrwt>
<pdfrwt beam="1">  1       21 0.39401451E-01 0.23956660E+03</pdfrwt>
<pdfrwt beam="2">  1       21 0.37225679E-01 0.23956660E+03</pdfrwt>
<totfact> 0.42270242E+04</totfact>
</mgrwt>
</event>
<event>
12    1  0.2736842E-001  0.1876241E+03  0.7546771E-02  0.1161193E+00
         21   -1    0    0  502  503  0.00000000000E+00  0.00000000000E+00  0.29887488673E+03  0.29887488673E+03  0.00000000000E+00 0.  1.
         21   -1    0    0  503  504 -0.00000000000E+00 -0.00000000000E+00 -0.13192250271E+03  0.13192250271E+03  0.00000000000E+00 0.  1.
         -6    2    1    2    0  504 -0.66347760158E+02 -0.69573799704E+01  0.96923572873E+01  0.18787430414E+03  0.17536357077E+03 0.  0.
        -24    2    3    3    0    0  0.18545345882E+02 -0.34229301195E+02 -0.23118824351E+02  0.92746701520E+02  0.80943781041E+02 0.  0.
          6    2    1    2  502    0  0.66347760158E+02  0.69573799704E+01  0.15726002673E+03  0.24292308529E+03  0.17271502234E+03 0.  0.
         24    2    5    5    0    0  0.54979291578E+02  0.64543322349E+02  0.13591629701E+03  0.18028900801E+03  0.82718339296E+02 0.  0.
          2    1    6    6  501    0  0.59084190182E+02  0.21946079717E+02  0.38422485848E+02  0.73816389529E+02  0.00000000000E+00 0. -1.
         -1    1    6    6    0  501 -0.41048986045E+01  0.42597242633E+02  0.97493811157E+02  0.10647261848E+03  0.00000000000E+00 0.  1.
          5    1    5    5  502    0  0.11368468580E+02 -0.57585942379E+02  0.21343729729E+02  0.62634077276E+02  0.47000000000E+01 0. -1.
         13    1    4    4    0    0 -0.13061870168E+02 -0.33377387225E+02  0.18614942959E+02  0.40387851287E+02  0.00000000000E+00 0. -1.
        -14    1    4    4    0    0  0.31607216050E+02 -0.85191397013E+00 -0.41733767309E+02  0.52358850233E+02  0.00000000000E+00 0.  1.
         -5    1    3    3    0  504 -0.84893106040E+02  0.27271921225E+02  0.32811181638E+02  0.95127602624E+02  0.47000000000E+01 0.  1.
<mgrwt>
<rscale>  2 0.18700278E+03</rscale>
<asrwt>0</asrwt>
<pdfrwt beam="1">  1       21 0.45980752E-01 0.18762413E+03</pdfrwt>
<pdfrwt beam="2">  1       21 0.20295770E-01 0.18762413E+03</pdfrwt>
<totfact> 0.10199810E+05</totfact>
</mgrwt>
</event>
<event>
12    1  0.2736842E-001  0.1803715E+03  0.7546771E-02  0.1167465E+00
         21   -1    0    0  502  503  0.00000000000E+00  0.00000000000E+00  0.23259103699E+03  0.23259103699E+03  0.00000000000E+00 0. -1.
         21   -1    0    0  503  504 -0.00000000000E+00 -0.00000000000E+00 -0.14006106087E+03  0.14006106087E+03  0.00000000000E+00 0. -1.
         -6    2    1    2    0  504 -0.49793326453E+02  0.18183072146E+01  0.54204626781E+02  0.18834017024E+03  0.17335280950E+03 0.  0.
        -24    2    3    3    0    0 -0.95644959779E+02  0.24381755991E+02  0.38306982038E+02  0.13461581256E+03  0.83135815164E+02 0.  0.
          6    2    1    2  502    0  0.49793326453E+02 -0.18183072146E+01  0.38325349332E+02  0.18431192762E+03  0.17326099578E+03 0.  0.
         24    2    5    5    0    0  0.49082962952E+02 -0.68869560002E+02  0.47321419833E+02  0.11649309247E+03  0.64646502386E+02 0.  0.
          2    1    6    6  501    0 -0.10615666260E+02 -0.31220427024E+00  0.18135091737E+02  0.21015979491E+02  0.00000000000E+00 0. -1.
         -1    1    6    6    0  501  0.59698629212E+02 -0.68557355731E+02  0.29186328096E+02  0.95477112977E+02  0.00000000000E+00 0.  1.
          5    1    5    5  502    0  0.71036350071E+00  0.67051252787E+02 -0.89960705008E+01  0.67818835150E+02  0.47000000000E+01 0. -1.
         11    1    4    4    0    0 -0.39743018011E+02  0.47842477006E+02  0.40031854561E+02  0.73965934499E+02  0.00000000000E+00 0. -1.
        -12    1    4    4    0    0 -0.55901941768E+02 -0.23460721015E+02 -0.17248725233E+01  0.60649878064E+02  0.00000000000E+00 0.  1.
         -5    1    3    3    0  504  0.45851633326E+02 -0.22563448776E+02  0.15897644743E+02  0.53724357676E+02  0.47000000000E+01 0.  1.
<mgrwt>
<rscale>  2 0.18034944E+03</rscale>
<asrwt>0</asrwt>
<pdfrwt beam="1">  1       21 0.35783236E-01 0.18037150E+03</pdfrwt>
<pdfrwt beam="2">  1       21 0.21547856E-01 0.18037150E+03</pdfrwt>
<totfact> 0.15175792E+05</totfact>
</mgrwt>
</event>
<event>
12    1  0.2736842E-001  0.2530789E+03  0.7546771E-02  0.1111478E+00
         21   -1    0    0  502  503  0.00000000000E+00  0.00000000000E+00  0.94598575888E+03  0.94598575888E+03  0.00000000000E+00 0.  1.
         21   -1    0    0  503  504 -0.00000000000E+00 -0.00000000000E+00 -0.13102540755E+03  0.13102540755E+03  0.00000000000E+00 0.  1.
         -6    2    1    2    0  504 -0.17206509097E+03  0.67158319362E+02  0.78208172725E+03  0.82180551502E+03  0.17203441818E+03 0.  0.
        -24    2    3    3    0    0 -0.15418534900E+03  0.10915420628E+03  0.63054706670E+03  0.66347616512E+03  0.83206104170E+02 0.  0.
          6    2    1    2  502    0  0.17206509097E+03 -0.67158319362E+02  0.32878624070E+02  0.25520565140E+03  0.17300949454E+03 0.  0.
         24    2    5    5    0    0  0.17108934416E+03 -0.14427494177E+02  0.26271727149E+02  0.20184618089E+03  0.10282004095E+03 0.  0.
          2    1    6    6  501    0  0.12982574735E+03 -0.54831615150E+02  0.29579189282E+02  0.14400055255E+03  0.00000000000E+00 0. -1.
         -1    1    6    6    0  501  0.41263596806E+02  0.40404120973E+02 -0.33074621328E+01  0.57845628346E+02  0.00000000000E+00 0.  1.
          5    1    5    5  502    0  0.97574681097E+00 -0.52730825185E+02  0.66068969206E+01  0.53359470513E+02  0.47000000000E+01 0. -1.
         13    1    4    4    0    0 -0.41052802485E+02  0.54311592623E+02  0.12295322620E+03  0.14054386332E+03  0.00000000000E+00 0. -1.
        -14    1    4    4    0    0 -0.11313254652E+03  0.54842613659E+02  0.50759384050E+03  0.52293230180E+03  0.00000000000E+00 0.  1.
         -5    1    3    3    0  504 -0.17879741964E+02 -0.41995886921E+02  0.15153466055E+03  0.15832934990E+03  0.47000000000E+01 0.  1.
<mgrwt>
<rscale>  2 0.25291232E+03</rscale>
<asrwt>0</asrwt>
<pdfrwt beam="1">  1       21 0.14553627E+00 0.25307888E+03</pdfrwt>
<pdfrwt beam="2">  1       21 0.20157756E-01 0.25307888E+03</pdfrwt>
<totfact> 0.70501914E+03</totfact>
</mgrwt>
</event>
<event>
12    1  0.2736842E-001  0.2017430E+03  0.7546771E-02  0.1148284E+00
         21   -1    0    0  502  503  0.00000000000E+00  0.00000000000E+00  0.13618389654E+03  0.13618389654E+03  0.00000000000E+00 0.  1.
         21   -1    0    0  503  504 -0.00000000000E+00 -0.00000000000E+00 -0.33059190331E+03  0.33059190331E+03  0.00000000000E+00 0.  1.
         -6    2    1    2    0  504 -0.59834365202E+02  0.84903831548E+02 -0.16957384101E+03  0.26354416756E+03  0.17294920882E+03 0.  0.
        -24    2    3    3    0    0 -0.28160676701E+02  0.61036775062E+02 -0.17520471917E+02  0.10633355730E+03  0.80506812439E+02 0.  0.
          6    2    1    2  502    0  0.59834365202E+02 -0.84903831548E+02 -0.24834165767E+02  0.20323163229E+03  0.17290907640E+03 0.  0.
         24    2    5    5    0    0  0.70664715014E+02 -0.32625801318E+02  0.39505049699E+02  0.11949446271E+03  0.81610862065E+02 0.  0.
          2    1    6    6  501    0  0.20264662402E+02  0.25766369252E+02 -0.11141872286E+00  0.32780706838E+02  0.00000000000E+00 0. -1.
         -1    1    6    6    0  501  0.50400052612E+02 -0.58392170570E+02  0.39616468422E+02  0.86713755872E+02  0.00000000000E+00 0.  1.
          5    1    5    5  502    0 -0.10830349812E+02 -0.52278030230E+02 -0.64339215466E+02  0.83737169576E+02  0.47000000000E+01 0. -1.
         11    1    4    4    0    0  0.67400065273E+01  0.20475910894E+02  0.28515288343E+02  0.35746500308E+02  0.00000000000E+00 0. -1.
        -12    1    4    4    0    0 -0.34900683228E+02  0.40560864168E+02 -0.46035760260E+02  0.70587056990E+02  0.00000000000E+00 0.  1.
         -5    1    3    3    0  504 -0.31673688501E+02  0.23867056486E+02 -0.15205336909E+03  0.15721061027E+03  0.47000000000E+01 0.  1.
<mgrwt>
<rscale>  2 0.20173441E+03</rscale>
<asrwt>0</asrwt>
<pdfrwt beam="1">  1       21 0.20951369E-01 0.20174301E+03</pdfrwt>
<pdfrwt beam="2">  1       21 0.50860293E-01 0.20174301E+03</pdfrwt>
<totfact> 0.77498784E+04</totfact>
</mgrwt>
</event>
<event>
12    1  0.2736842E-001  0.2293831E+03  0.7546771E-02  0.1127078E+00
         21   -1    0    0  502  503  0.00000000000E+00  0.00000000000E+00  0.23192789210E+04  0.23192789210E+04  0.00000000000E+00 0.  1.
         21   -1    0    0  503  504 -0.00000000000E+00 -0.00000000000E+00 -0.11002371798E+03  0.11002371798E+03  0.00000000000E+00 0.  1.
         -6    2    1    2    0  504 -0.12655040886E+03  0.83779073430E+02  0.22403161320E+02  0.23045328730E+03  0.17196766226E+03 0.  0.
        -24    2    3    3    0    0 -0.48175361444E+02 -0.10187743815E+02  0.47106104938E+02  0.10553436870E+03  0.80584503972E+02 0.  0.
          6    2    1    2  502    0  0.12655040886E+03 -0.83779073430E+02  0.21868520417E+04  0.21988493517E+04  0.17199616249E+03 0.  0.
         24    2    5    5    0    0  0.13701083537E+03 -0.10002787131E+03  0.14999521621E+04  0.15116616200E+04  0.80540801796E+02 0.  0.
          2    1    6    6  501    0  0.89760962725E+02 -0.75740374027E+02  0.68629004199E+03  0.69626694336E+03  0.00000000000E+00 0. -1.
         -1    1    6    6    0  501  0.47249872647E+02 -0.24287497281E+02  0.81366212009E+03  0.81539467662E+03  0.00000000000E+00 0.  1.
          5    1    5    5  502    0 -0.10460426508E+02  0.16248797877E+02  0.68689987962E+03  0.68718773168E+03  0.47000000000E+01 0. -1.
         13    1    4    4    0    0  0.59081695527E+01  0.24750462767E+02 -0.51355869829E+00  0.25451043539E+02  0.00000000000E+00 0. -1.
        -14    1    4    4    0    0 -0.54083530997E+02 -0.34938206583E+02  0.47619663636E+02  0.80083325163E+02  0.00000000000E+00 0.  1.
         -5    1    3    3    0  504 -0.78375047420E+02  0.93966817246E+02 -0.24702943618E+02  0.12491891860E+03  0.47000000000E+01 0.  1.
<mgrwt>
<rscale>  2 0.22937778E+03</rscale>
<asrwt>0</asrwt>
<pdfrwt beam="1">  1       21 0.35681210E+00 0.22938313E+03</pdfrwt>
<pdfrwt beam="2">  1       21 0.16926728E-01 0.22938313E+03</pdfrwt>
<totfact> 0.47523122E+02</totfact>
</mgrwt>
</event>
<event>
12    1  0.2736842E-001  0.1814444E+03  0.7546771E-02  0.1166726E+00
         21   -1    0    0  502  503  0.00000000000E+00  0.00000000000E+00  0.74788525064E+02  0.74788525064E+02  0.00000000000E+00 0.  1.
         21   -1    0    0  503  504 -0.00000000000E+00 -0.00000000000E+00 -0.50134915544E+03  0.50134915544E+03  0.00000000000E+00 0.  1.
         -6    2    1    2    0  504  0.31179602921E+02  0.35893355920E+02 -0.31577718901E+03  0.36354644589E+03  0.17375351676E+03 0.  0.
        -24    2    3    3    0    0  0.40276744602E+02  0.33051517080E+02 -0.79811643080E+02  0.12734174039E+03  0.84447626006E+02 0.  0.
          6    2    1    2  502    0 -0.31179602921E+02 -0.35893355920E+02 -0.11078344136E+03  0.21259123461E+03  0.17510443031E+03 0.  0.
         24    2    5    5    0    0 -0.17247292051E+02 -0.65666813078E+02 -0.13494782121E+03  0.17152329954E+03  0.81238712519E+02 0.  0.
          4    1    6    6  501    0  0.18162581078E+02 -0.64729747372E+02 -0.67100604907E+02  0.94985844867E+02  0.00000000000E+00 0. -1.
         -3    1    6    6    0  501 -0.35409873129E+02 -0.93706570538E+00 -0.67847216304E+02  0.76537454670E+02  0.00000000000E+00 0.  1.
          5    1    5    5  502    0 -0.13932310870E+02  0.29773457158E+02  0.24164379850E+02  0.41067935069E+02  0.47000000000E+01 0. -1.
         13    1    4    4    0    0  0.15465477143E+01 -0.17420304220E+02  0.77329008272E+01  0.19122148524E+02  0.00000000000E+00 0. -1.
        -14    1    4    4    0    0  0.38730196888E+02  0.50471821300E+02 -0.87544543907E+02  0.10821959187E+03  0.00000000000E+00 0.  1.
         -5    1    3    3    0  504 -0.90971416810E+01  0.28418388403E+01 -0.23596554593E+03  0.23620470550E+03  0.47000000000E+01 0.  1.
<mgrwt>
<rscale>  2 0.18111766E+03</rscale>
<asrwt>0</asrwt>
<pdfrwt beam="1">  1       21 0.11505927E-01 0.18144438E+03</pdfrwt>
<pdfrwt beam="2">  1       21 0.77130636E-01 0.18144438E+03</pdfrwt>
<totfact> 0.94886344E+04</totfact>
</mgrwt>
</event>
<event>
12    1  0.2736842E-001  0.2679087E+03  0.7546771E-02  0.1102518E+00
         21   -1    0    0  502  503  0.00000000000E+00  0.00000000000E+00  0.11918936641E+04  0.11918936641E+04  0.00000000000E+00 0. -1.
         21   -1    0    0  503  504 -0.00000000000E+00 -0.00000000000E+00 -0.60184659549E+02  0.60184659549E+02  0.00000000000E+00 0. -1.
         -6    2    1    2    0  504 -0.20108503328E+03  0.38851125397E+02  0.55389807872E+03  0.61517915681E+03  0.17233024345E+03 0.  0.
        -24    2    3    3    0    0 -0.24541125539E+02  0.10760614563E+02  0.23603792170E+03  0.25046831576E+03  0.79387776451E+02 0.  0.
          6    2    1    2  502    0  0.20108503328E+03 -0.38851125397E+02  0.57781092583E+03  0.63689916684E+03  0.17271503166E+03 0.  0.
         24    2    5    5    0    0  0.79093524617E+02 -0.15549289654E+02  0.42405361113E+03  0.43919154038E+03  0.81056634465E+02 0.  0.
          4    1    6    6  501    0 -0.14757868747E+02 -0.61554745713E+01  0.11378897981E+03  0.11490699057E+03  0.00000000000E+00 0. -1.
         -3    1    6    6    0  501  0.93851393364E+02 -0.93938150829E+01  0.31026463132E+03  0.32428454981E+03  0.00000000000E+00 0.  1.
          5    1    5    5  502    0  0.12199150866E+03 -0.23301835742E+02  0.15375731470E+03  0.19770762645E+03  0.47000000000E+01 0. -1.
         11    1    4    4    0    0 -0.84232869549E+01 -0.27887766552E+02  0.16851825199E+03  0.17101777844E+03  0.00000000000E+00 0. -1.
        -12    1    4    4    0    0 -0.16117838584E+02  0.38648381115E+02  0.67519669705E+02  0.79450537321E+02  0.00000000000E+00 0.  1.
         -5    1    3    3    0  504 -0.17654390774E+03  0.28090510833E+02  0.31786015702E+03  0.36471084105E+03  0.47000000000E+01 0.  1.
<mgrwt>
<rscale>  2 0.26784672E+03</rscale>
<asrwt>0</asrwt>
<pdfrwt beam="1">  1       21 0.18336824E+00 0.26790872E+03</pdfrwt>
<pdfrwt beam="2">  1       21 0.92591793E-02 0.26790872E+03</pdfrwt>
<totfact> 0.15266992E+04</totfact>
</mgrwt>
</event>
<event>
12    1  0.2736842E-001  0.1784826E+03  0.7546771E-02  0.1169457E+00
         21   -1    0    0  502  503  0.00000000000E+00  0.00000000000E+00  0.46798822467E+03  0.46798822467E+03  0.00000000000E+00 0.  1.
         21   -1    0    0  503  504 -0.00000000000E+00 -0.00000000000E+00 -0.67894991307E+02  0.67894991307E+02  0.00000000000E+00 0.  1.
         -6    2    1    2    0  504 -0.38729043019E+02  0.16711260754E+02  0.19015336414E+03  0.26079556503E+03  0.17342669874E+03 0.  0.
        -24    2    3    3    0    0 -0.57387098997E+02  0.69225880805E+02  0.11725794755E+03  0.16891662221E+03  0.81840682381E+02 0.  0.
          6    2    1    2  502    0  0.38729043019E+02 -0.16711260754E+02  0.20993986922E+03  0.27508765095E+03  0.17268254691E+03 0.  0.
         24    2    5    5    0    0  0.91102716149E+02  0.88368783899E+01  0.13566132968E+03  0.18056199048E+03  0.76294434438E+02 0.  0.
          4    1    6    6  501    0  0.19768586644E+01  0.77635836439E+01 -0.81121064906E+01  0.11401204888E+02  0.00000000000E+00 0. -1.
         -3    1    6    6    0  501  0.89125857484E+02  0.10732947460E+01  0.14377343617E+03  0.16916078559E+03  0.00000000000E+00 0.  1.
          5    1    5    5  502    0 -0.52373673129E+02 -0.25548139144E+02  0.74278539535E+02  0.94525660465E+02  0.47000000000E+01 0. -1.
         13    1    4    4    0    0  0.11398906517E+02  0.27959611623E+02  0.68968118732E+02  0.75287956230E+02  0.00000000000E+00 0. -1.
        -14    1    4    4    0    0 -0.68786005515E+02  0.41266269183E+02  0.48289828814E+02  0.93628665983E+02  0.00000000000E+00 0.  1.
         -5    1    3    3    0  504  0.18658055978E+02 -0.52514620051E+02  0.72895416598E+02  0.91878942817E+02  0.47000000000E+01 0.  1.
<mgrwt>
<rscale>  2 0.17830154E+03</rscale>
<asrwt>0</asrwt>
<pdfrwt beam="1">  1       21 0.71998187E-01 0.17848256E+03</pdfrwt>
<pdfrwt beam="2">  1       21 0.10445384E-01 0.17848256E+03</pdfrwt>
<totfact> 0.13146192E+05</totfact>
</mgrwt>
</event>
<event>
12    1  0.2736842E-001  0.1939649E+03  0.7546771E-02  0.1155089E+00
         21   -1    0    0  502  503  0.00000000000E+00  0.00000000000E+00  0.53705361533E+02  0.53705361533E+02  0.00000000000E+00 0. -1.
         21   -1    0    0  503  504 -0.00000000000E+00 -0.00000000000E+00 -0.72204224169E+03  0.72204224169E+03  0.00000000000E+00 0.  1.
         -6    2    1    2    0  504 -0.60107620059E+02 -0.60271900241E+02 -0.40558654953E+03  0.44958072643E+03  0.17428927813E+03 0.  0.
        -24    2    3    3    0    0  0.27631278818E+01  0.19801114005E+02 -0.26457583918E+03  0.27559644844E+03  0.74520525487E+02 0.  0.
          6    2    1    2  502    0  0.60107620059E+02  0.60271900241E+02 -0.26275033063E+03  0.32616687679E+03  0.17349774444E+03 0.  0.
         24    2    5    5    0    0  0.70252390952E+02 -0.19463361258E+02 -0.12264387118E+03  0.16457313223E+03  0.82027896768E+02 0.  0.
          4    1    6    6  501    0  0.58132387918E+02 -0.72832912517E+01 -0.22171122246E+02  0.62641675569E+02  0.00000000000E+00 0. -1.
         -3    1    6    6    0  501  0.12120003035E+02 -0.12180070006E+02 -0.10047274893E+03  0.10193145666E+03  0.00000000000E+00 0.  1.
          5    1    5    5  502    0 -0.10144770893E+02  0.79735261499E+02 -0.14010645945E+03  0.16159374457E+03  0.47000000000E+01 0. -1.
         11    1    4    4    0    0 -0.93882368656E+01  0.22477045399E+02 -0.22373173691E+02  0.33074392849E+02  0.00000000000E+00 0. -1.
        -12    1    4    4    0    0  0.12151364747E+02 -0.26759313941E+01 -0.24220266549E+03  0.24252205559E+03  0.00000000000E+00 0.  1.
         -5    1    3    3    0  504 -0.62870747941E+02 -0.80073014246E+02 -0.14101071035E+03  0.17398427799E+03  0.47000000000E+01 0.  1.
<mgrwt>
<rscale>  2 0.19378692E+03</rscale>
<asrwt>0</asrwt>
<pdfrwt beam="1">  1       21 0.82623630E-02 0.19396489E+03</pdfrwt>
<pdfrwt beam="2">  1       21 0.11108343E+00 0.19396489E+03</pdfrwt>
<totfact> 0.72308860E+04</totfact>
</mgrwt>
</event>
<event>
12    1  0.2736842E-001  0.2347560E+03  0.7546771E-02  0.1123555E+00
         21   -1    0    0  502  503  0.00000000000E+00  0.00000000000E+00  0.29037808076E+03  0.29037808076E+03  0.00000000000E+00 0.  1.
         21   -1    0    0  503  504 -0.00000000000E+00 -0.00000000000E+00 -0.20305466677E+03  0.20305466677E+03  0.00000000000E+00 0. -1.
         -6    2    1    2    0  504 -0.71767674916E+02  0.14216886164E+03 -0.21911223640E+02  0.23450693826E+03  0.17073610629E+03 0.  0.
        -24    2    3    3    0    0 -0.85484525143E+01  0.26176353635E+02 -0.51417358001E+02  0.99068265948E+02  0.80078081171E+02 0.  0.
          6    2    1    2  502    0  0.71767674916E+02 -0.14216886164E+03  0.10923463762E+03  0.25892580927E+03  0.17247545990E+03 0.  0.
         24    2    5    5    0    0  0.74214903744E+02 -0.17191332924E+03  0.94776054077E+02  0.22543158708E+03  0.82309509299E+02 0.  0.
          2    1    6    6  501    0  0.52800020029E+02 -0.14370511578E+03  0.36743151357E+02  0.15744542416E+03  0.00000000000E+00 0. -1.
         -1    1    6    6    0  501  0.21414883715E+02 -0.28208213454E+02  0.58032902721E+02  0.67986162923E+02  0.00000000000E+00 0.  1.
          5    1    5    5  502    0 -0.24472288283E+01  0.29744467599E+02  0.14458583547E+02  0.33494222186E+02  0.47000000000E+01 0. -1.
         11    1    4    4    0    0 -0.30950964220E+02  0.21770502780E+02 -0.62981471703E+02  0.73475048522E+02  0.00000000000E+00 0. -1.
        -12    1    4    4    0    0  0.22402511706E+02  0.44058508551E+01  0.11564113702E+02  0.25593217426E+02  0.00000000000E+00 0.  1.
         -5    1    3    3    0  504 -0.63219222402E+02  0.11599250800E+03  0.29506134361E+02  0.13543867232E+03  0.47000000000E+01 0.  1.
<mgrwt>
<rscale>  2 0.23443659E+03</rscale>
<asrwt>0</asrwt>
<pdfrwt beam="1">  1       21 0.44673551E-01 0.23475598E+03</pdfrwt>
<pdfrwt beam="2">  1       21 0.31239179E-01 0.23475598E+03</pdfrwt>
<totfact> 0.46436705E+04</totfact>
</mgrwt>
</event>
<event>
12    1  0.2736842E-001  0.1972193E+03  0.7546771E-02  0.1152826E+00
         21   -1    0    0  502  503  0.00000000000E+00  0.00000000000E+00  0.94599664085E+02  0.94599664085E+02  0.00000000000E+00 0. -1.
         21   -1    0    0  503  504 -0.00000000000E+00 -0.00000000000E+00 -0.40721830053E+03  0.40721830053E+03  0.00000000000E+00 0. -1.
         -6    2    1    2    0  504  0.71713859784E+02  0.50167284069E+02 -0.13626789096E+03  0.23971733417E+03  0.17673660661E+03 0.  0.
        -24    2    3    3    0    0  0.67646154236E+02  0.13144281354E+02 -0.89837913112E+01  0.10701246997E+03  0.81376814310E+02 0.  0.
          6    2    1    2  502    0 -0.71713859784E+02 -0.50167284069E+02 -0.17635074549E+03  0.26210063045E+03  0.17302462533E+03 0.  0.
         24    2    5    5    0    0  0.25761777898E+02 -0.42710295271E+02 -0.68147479041E+02  0.11619948757E+03  0.79814807459E+02 0.  0.
          2    1    6    6  501    0  0.56225686181E+01 -0.33119074912E+01 -0.71526346744E+02  0.71823396520E+02  0.00000000000E+00 0. -1.
         -1    1    6    6    0  501  0.20139209280E+02 -0.39398387780E+02  0.33788677034E+01  0.44376091052E+02  0.00000000000E+00 0.  1.
          5    1    5    5  502    0 -0.97475637682E+02 -0.74569887976E+01 -0.10820326645E+03  0.14590114288E+03  0.47000000000E+01 0. -1.
         13    1    4    4    0    0  0.44087295346E+02  0.26559089192E+02  0.29965671279E+02  0.59556832395E+02  0.00000000000E+00 0. -1.
        -14    1    4    4    0    0  0.23558858890E+02 -0.13414807838E+02 -0.38949462590E+02  0.47455637575E+02  0.00000000000E+00 0.  1.
         -5    1    3    3    0  504  0.40677055473E+01  0.37023002715E+02 -0.12728409965E+03  0.13270486420E+03  0.47000000000E+01 0.  1.
<mgrwt>
<rscale>  2 0.19638417E+03</rscale>
<asrwt>0</asrwt>
<pdfrwt beam="1">  1       21 0.14553795E-01 0.19721933E+03</pdfrwt>
<pdfrwt beam="2">  1       21 0.62648969E-01 0.19721933E+03</pdfrwt>
<totfact> 0.97658505E+04</totfact>
</mgrwt>
</event>
<event>
12    1  0.2736842E-001  0.2634690E+03  0.7546771E-02  0.1105088E+00
         21   -1    0    0  502  503  0.00000000000E+00  0.00000000000E+00  0.11257243645E+03  0.11257243645E+03  0.00000000000E+00 0. -1.
         21   -1    0    0  503  504 -0.00000000000E+00 -0.00000000000E+00 -0.64480426095E+03  0.64480426095E+03  0.00000000000E+00 0.  1.
         -6    2    1    2    0  504 -0.16097405896E+03 -0.11629125783E+03 -0.34547957219E+03  0.43443350412E+03  0.17303187682E+03 0.  0.
        -24    2    3    3    0    0 -0.15296286002E+03 -0.57511625652E+02 -0.32249993322E+03  0.37064182539E+03  0.81632911111E+02 0.  0.
          6    2    1    2  502    0  0.16097405896E+03  0.11629125783E+03 -0.18675225231E+03  0.32294319328E+03  0.17314617536E+03 0.  0.
         24    2    5    5    0    0  0.76740403773E+02  0.13382286328E+03 -0.98140870056E+02  0.19934411189E+03  0.79427931250E+02 0.  0.
          2    1    6    6  501    0  0.44250733929E+02  0.20477227366E+02 -0.48662317798E+01  0.49001270449E+02  0.00000000000E+00 0. -1.
         -1    1    6    6    0  501  0.32489669844E+02  0.11334563592E+03 -0.93274638276E+02  0.15034284144E+03  0.00000000000E+00 0.  1.
          5    1    5    5  502    0  0.84233655186E+02 -0.17531605456E+02 -0.88611382254E+02  0.12359908139E+03  0.47000000000E+01 0. -1.
         13    1    4    4    0    0 -0.74608931444E+02 -0.53416316977E+02 -0.10511734186E+03  0.13953297507E+03  0.00000000000E+00 0. -1.
        -14    1    4    4    0    0 -0.78353928573E+02 -0.40953086759E+01 -0.21738259135E+03  0.23110885033E+03  0.00000000000E+00 0.  1.
         -5    1    3    3    0  504 -0.80111989418E+01 -0.58779632175E+02 -0.22979638975E+02  0.63791678725E+02  0.47000000000E+01 0.  1.
<mgrwt>
<rscale>  2 0.26345020E+03</rscale>
<asrwt>0</asrwt>
<pdfrwt beam="1">  1       21 0.17318836E-01 0.26346898E+03</pdfrwt>
<pdfrwt beam="2">  1       21 0.99200655E-01 0.26346898E+03</pdfrwt>
<totfact> 0.24299819E+04</totfact>
</mgrwt>
</event>
<event>
12    1  0.2736842E-001  0.1862277E+03  0.7546771E-02  0.1162437E+00
         21   -1    0    0  502  503  0.00000000000E+00  0.00000000000E+00  0.29227679927E+02  0.29227679927E+02  0.00000000000E+00 0.  1.
         21   -1    0    0  503  504 -0.00000000000E+00 -0.00000000000E+00 -0.15539999842E+04  0.15539999842E+04  0.00000000000E+00 0.  1.
         -6    2    1    2    0  504  0.13557719378E+02 -0.69536808315E+02 -0.11583032125E+04  0.11731781956E+04  0.17222533805E+03 0.  0.
        -24    2    3    3    0    0 -0.32009659169E+02  0.13405279024E+02 -0.33470467311E+03  0.34414718296E+03  0.72150852704E+02 0.  0.
          6    2    1    2  502    0 -0.13557719378E+02  0.69536808315E+02 -0.36646909183E+03  0.41004946858E+03  0.16976982051E+03 0.  0.
         24    2    5    5    0    0  0.56135573411E+02  0.39416992198E+02 -0.24759526339E+03  0.26892032393E+03  0.79434402467E+02 0.  0.
          4    1    6    6  501    0  0.16687574528E+02  0.15312113797E+02 -0.20439996016E+03  0.20565086843E+03  0.00000000000E+00 0. -1.
         -3    1    6    6    0  501  0.39447998883E+02  0.24104878402E+02 -0.43195303230E+02  0.63269455504E+02  0.00000000000E+00 0.  1.
          5    1    5    5  502    0 -0.69693292789E+02  0.30119816116E+02 -0.11887382844E+03  0.14112914465E+03  0.47000000000E+01 0. -1.
         13    1    4    4    0    0 -0.55358816830E+02  0.76237858264E+01 -0.22487357416E+03  0.23171285045E+03  0.00000000000E+00 0. -1.
        -14    1    4    4    0    0  0.23349157661E+02  0.57814931980E+01 -0.10983109896E+03  0.11243433250E+03  0.00000000000E+00 0.  1.
         -5    1    3    3    0  504  0.45567378547E+02 -0.82942087339E+02 -0.82359853934E+03  0.82903101259E+03  0.47000000000E+01 0.  1.
<mgrwt>
<rscale>  2 0.18565794E+03</rscale>
<asrwt>0</asrwt>
<pdfrwt beam="1">  1       21 0.44965667E-02 0.18622767E+03</pdfrwt>
<pdfrwt beam="2">  1       21 0.23907689E+00 0.18622767E+03</pdfrwt>
<totfact> 0.24966694E+04</totfact>
</mgrwt>
</event>
<event>
12    1  0.2736842E-001  0.1998009E+03  0.7546771E-02  0.1150074E+00
         21   -1    0    0  502  503  0.00000000000E+00  0.00000000000E+00  0.12932175504E+04  0.12932175504E+04  0.00000000000E+00 0.  1.
         21   -1    0    0  503  504 -0.00000000000E+00 -0.00000000000E+00 -0.31724885979E+02  0.31724885979E+02  0.00000000000E+00 0. -1.
         -6    2    1    2    0  504  0.99071879019E+02 -0.11901743495E+02  0.51567078278E+03  0.55302510615E+03  0.17309974903E+03 0.  0.
        -24    2    3    3    0    0  0.10739075337E+03 -0.51556373123E+02  0.29114391054E+03  0.32482322255E+03  0.80959963852E+02 0.  0.
          6    2    1    2  502    0 -0.99071879019E+02  0.11901743495E+02  0.74582188161E+03  0.77191733019E+03  0.17218942143E+03 0.  0.
         24    2    5    5    0    0 -0.85859576259E+02  0.52129143563E+02  0.35588498236E+03  0.37966016447E+03  0.86013983604E+02 0.  0.
          4    1    6    6  501    0 -0.54874366273E+01  0.34887569599E+02  0.40483916931E+02  0.53723384139E+02  0.00000000000E+00 0. -1.
         -3    1    6    6    0  501 -0.80372139631E+02  0.17241573964E+02  0.31540106543E+03  0.32593678033E+03  0.00000000000E+00 0.  1.
          5    1    5    5  502    0 -0.13212302761E+02 -0.40227400068E+02  0.38993689925E+03  0.39225716572E+03  0.47000000000E+01 0. -1.
         13    1    4    4    0    0 -0.99919543199E+01  0.33870042989E+00  0.49215900239E+01  0.11143424854E+02  0.00000000000E+00 0. -1.
        -14    1    4    4    0    0  0.11738270769E+03 -0.51895073553E+02  0.28622232052E+03  0.31367979770E+03  0.00000000000E+00 0.  1.
         -5    1    3    3    0  504 -0.83188743480E+01  0.39654629628E+02  0.22452687224E+03  0.22820188360E+03  0.47000000000E+01 0.  1.
<mgrwt>
<rscale>  2 0.19960360E+03</rscale>
<asrwt>0</asrwt>
<pdfrwt beam="1">  1       21 0.19895651E+00 0.19980093E+03</pdfrwt>
<pdfrwt beam="2">  1       21 0.48807527E-02 0.19980093E+03</pdfrwt>
<totfact> 0.38023736E+04</totfact>
</mgrwt>
</event>
<event>
12    1  0.2736842E-001  0.1829435E+03  0.7546771E-02  0.1166055E+00
         21   -1    0    0  502  503  0.00000000000E+00  0.00000000000E+00  0.39092388565E+02  0.39092388565E+02  0.00000000000E+00 0. -1.
         21   -1    0    0  503  504 -0.00000000000E+00 -0.00000000000E+00 -0.88107740826E+03  0.88107740826E+03  0.00000000000E+00 0. -1.
         -6    2    1    2    0  504 -0.50287535554E+02 -0.21836021476E+02 -0.31129291278E+03  0.35882993664E+03  0.16985287109E+03 0.  0.
        -24    2    3    3    0    0 -0.19498250863E+01  0.26358580516E+02 -0.25942752163E+03  0.27297329617E+03  0.80704428973E+02 0.  0.
          6    2    1    2  502    0  0.50287535554E+02  0.21836021476E+02 -0.53069210691E+03  0.56133986018E+03  0.17453560733E+03 0.  0.
         24    2    5    5    0    0 -0.34518627636E+02  0.12010494672E+02 -0.35897897021E+03  0.36951671870E+03  0.79629873226E+02 0.  0.
          2    1    6    6  501    0 -0.29001137420E+02  0.34984510512E+02 -0.32481608630E+03  0.32797937719E+03  0.00000000000E+00 0. -1.
         -1    1    6    6    0  501 -0.55174902158E+01 -0.22974015840E+02 -0.34162883910E+02  0.41537341503E+02  0.00000000000E+00 0.  1.
          5    1    5    5  502    0  0.84806163190E+02  0.98255268046E+01 -0.17171313671E+03  0.19182314149E+03  0.47000000000E+01 0. -1.
         11    1    4    4    0    0 -0.27006797284E+02 -0.91554157354E+01 -0.39068424785E+02  0.48368693925E+02  0.00000000000E+00 0. -1.
        -12    1    4    4    0    0  0.25056972197E+02  0.35513996251E+02 -0.22035909685E+03  0.22460460224E+03  0.00000000000E+00 0.  1.
         -5    1    3    3    0  504 -0.48337710468E+02 -0.48194601992E+02 -0.51865391150E+02  0.85856640475E+02  0.47000000000E+01 0.  1.
<mgrwt>
<rscale>  2 0.18181765E+03</rscale>
<asrwt>0</asrwt>
<pdfrwt beam="1">  1       21 0.60142135E-02 0.18294351E+03</pdfrwt>
<pdfrwt beam="2">  1       21 0.13555037E+00 0.18294351E+03</pdfrwt>
<totfact> 0.76711094E+04</totfact>
</mgrwt>
</event>
<event>
12    1  0.2736842E-001  0.2214670E+03  0.7546771E-02  0.1132911E+00
         21   -1    0    0  502  503  0.00000000000E+00  0.00000000000E+00  0.18043067921E+03  0.18043067921E+03  0.00000000000E+00 0.  1.
         21   -1    0    0  503  504 -0.00000000000E+00 -0.00000000000E+00 -0.27118886706E+03  0.27118886706E+03  0.00000000000E+00 0.  1.
         -6    2    1    2    0  504 -0.45856354935E+02  0.12881245216E+03 -0.40371485695E+02  0.22449303062E+03  0.17341225683E+03 0.  0.
        -24    2    3    3    0    0 -0.69805367129E+02  0.73648483376E+02  0.25168606235E+02  0.13541883521E+03  0.86069238447E+02 0.  0.
          6    2    1    2  502    0  0.45856354935E+02 -0.12881245216E+03 -0.50386702154E+02  0.22712651566E+03  0.17421877408E+03 0.  0.
         24    2    5    5    0    0 -0.27463908286E+01 -0.96605294275E+02  0.28685021138E+02  0.12877024824E+03  0.80117543965E+02 0.  0.
          4    1    6    6  501    0  0.11456549262E+02  0.11340884407E+02 -0.22070100363E+00  0.16121938130E+02  0.00000000000E+00 0. -1.
         -3    1    6    6    0  501 -0.14202940090E+02 -0.10794617868E+03  0.28905722141E+02  0.11264831012E+03  0.00000000000E+00 0.  1.
          5    1    5    5  502    0  0.48602745763E+02 -0.32207157885E+02 -0.79071723292E+02  0.98356267411E+02  0.47000000000E+01 0. -1.
         11    1    4    4    0    0 -0.37168808113E+02  0.67245770315E+02 -0.19935540789E+02  0.79378458717E+02  0.00000000000E+00 0. -1.
        -12    1    4    4    0    0 -0.32636559017E+02  0.64027130611E+01  0.45104147024E+02  0.56040376496E+02  0.00000000000E+00 0.  1.
         -5    1    3    3    0  504  0.23949012195E+02  0.55163968783E+02 -0.65540091930E+02  0.89074195406E+02  0.47000000000E+01 0.  1.
<mgrwt>
<rscale>  2 0.22130836E+03</rscale>
<asrwt>0</asrwt>
<pdfrwt beam="1">  1       21 0.27758566E-01 0.22146701E+03</pdfrwt>
<pdfrwt beam="2">  1       21 0.41721364E-01 0.22146701E+03</pdfrwt>
<totfact> 0.67663013E+04</totfact>
</mgrwt>
</event>
<event>
12    1  0.2736842E-001  0.1774625E+03  0.7546771E-02  0.1170762E+00
         21   -1    0    0  502  503  0.00000000000E+00  0.00000000000E+00  0.12445187193E+03  0.12445187193E+03  0.00000000000E+00 0. -1.
         21   -1    0    0  503  504 -0.00000000000E+00 -0.00000000000E+00 -0.71068213875E+03  0.71068213875E+03  0.00000000000E+00 0.  1.
         -6    2    1    2    0  504  0.19205288569E+02 -0.35843771777E+02 -0.62863095052E+03  0.65267649131E+03  0.17075160695E+03 0.  0.
        -24    2    3    3    0    0  0.55502842925E+02 -0.73493269042E+02 -0.40281272392E+03  0.42083396164E+03  0.79757799348E+02 0.  0.
          6    2    1    2  502    0 -0.19205288569E+02  0.35843771777E+02  0.42400683695E+02  0.18245751936E+03  0.17274058385E+03 0.  0.
         24    2    5    5    0    0  0.39543987874E+02  0.28766112994E+02  0.69098652021E+02  0.11736956157E+03  0.81300516845E+02 0.  0.
          2    1    6    6  501    0 -0.94860686775E+01  0.20675040765E+02  0.63392048804E+02  0.67349793327E+02  0.00000000000E+00 0. -1.
         -1    1    6    6    0  501  0.49030056551E+02  0.80910722289E+01  0.57066032171E+01  0.50019768247E+02  0.00000000000E+00 0.  1.
          5    1    5    5  502    0 -0.58749276443E+02  0.70776587827E+01 -0.26697968326E+02  0.65087957789E+02  0.47000000000E+01 0. -1.
         11    1    4    4    0    0 -0.61034274362E-01 -0.58205633588E+02 -0.26752197579E+03  0.27378076455E+03  0.00000000000E+00 0. -1.
        -12    1    4    4    0    0  0.55563877199E+02 -0.15287635453E+02 -0.13529074813E+03  0.14705319709E+03  0.00000000000E+00 0.  1.
         -5    1    3    3    0  504 -0.36297554356E+02  0.37649497265E+02 -0.22581822660E+03  0.23184252967E+03  0.47000000000E+01 0.  1.
<mgrwt>
<rscale>  2 0.17697661E+03</rscale>
<asrwt>0</asrwt>
<pdfrwt beam="1">  1       21 0.19146441E-01 0.17746247E+03</pdfrwt>
<pdfrwt beam="2">  1       21 0.10933572E+00 0.17746247E+03</pdfrwt>
<totfact> 0.16759745E+04</totfact>
</mgrwt>
</event>
<event>
12    1  0.2736842E-001  0.2100858E+03  0.7546771E-02  0.1142011E+00
         21   -1    0    0  502  503  0.00000000000E+00  0.00000000000E+00  0.53220358298E+03  0.53220358298E+03  0.00000000000E+00 0. -1.
         21   -1    0    0  503  504 -0.00000000000E+00 -0.00000000000E+00 -0.16142043971E+03  0.16142043971E+03  0.00000000000E+00 0.  1.
         -6    2    1    2    0  504 -0.66511152065E+02  0.96261225859E+02 -0.57419153190E+02  0.21779120419E+03  0.17448808703E+03 0.  0.
        -24    2    3    3    0    0 -0.53008290519E+02  0.12578897314E+03 -0.81948585227E+01  0.15863601579E+03  0.80408240701E+02 0.  0.
          6    2    1    2  502    0  0.66511152065E+02 -0.96261225859E+02  0.42820229646E+03  0.47583281850E+03  0.17137592455E+03 0.  0.
         24    2    5    5    0    0  0.83033066883E+02 -0.43788679309E+02  0.16156150649E+03  0.20353565971E+03  0.80701336805E+02 0.  0.
          4    1    6    6  501    0  0.62411782464E+02 -0.27664085020E+02  0.16360694839E+03  0.17727877976E+03  0.00000000000E+00 0. -1.
         -3    1    6    6    0  501  0.20621284419E+02 -0.16124594289E+02 -0.20454419043E+01  0.26256879949E+02  0.00000000000E+00 0.  1.
          5    1    5    5  502    0 -0.16521914818E+02 -0.52472546551E+02  0.26664078997E+03  0.27229715880E+03  0.47000000000E+01 0. -1.
         11    1    4    4    0    0 -0.34108995686E+02  0.32782774450E+01 -0.50495242737E+01  0.34636229371E+02  0.00000000000E+00 0. -1.
        -12    1    4    4    0    0 -0.18899294833E+02  0.12251069569E+03 -0.31453342490E+01  0.12399978642E+03  0.00000000000E+00 0.  1.
         -5    1    3    3    0  504 -0.13502861546E+02 -0.29527747276E+02 -0.49224294667E+02  0.59155188400E+02  0.47000000000E+01 0.  1.
<mgrwt>
<rscale>  2 0.20943843E+03</rscale>
<asrwt>0</asrwt>
<pdfrwt beam="1">  1       21 0.81877473E-01 0.21008581E+03</pdfrwt>
<pdfrwt beam="2">  1       21 0.24833914E-01 0.21008581E+03</pdfrwt>
<totfact> 0.19808975E+04</totfact>
</mgrwt>
</event>
<event>
12    1  0.2736842E-001  0.2694525E+03  0.7546771E-02  0.1101606E+00
         21   -1    0    0  502  503  0.00000000000E+00  0.00000000000E+00  0.11381850549E+04  0.11381850549E+04  0.00000000000E+00 0. -1.
         21   -1    0    0  503  504 -0.00000000000E+00 -0.00000000000E+00 -0.64752602059E+02  0.64752602059E+02  0.00000000000E+00 0.  1.
         -6    2    1    2    0  504 -0.59701908272E+02 -0.19670308104E+03  0.46269596941E+03  0.53543648985E+03  0.17420750446E+03 0.  0.
        -24    2    3    3    0    0 -0.65778650988E+02 -0.10590891581E+03  0.39435353152E+03  0.42153615597E+03  0.81452400762E+02 0.  0.
          6    2    1    2  502    0  0.59701908272E+02  0.19670308104E+03  0.61073648340E+03  0.66750116708E+03  0.17407566158E+03 0.  0.
         24    2    5    5    0    0  0.44376998000E+02  0.17156458455E+03  0.31835473591E+03  0.37360327130E+03  0.82619258187E+02 0.  0.
          2    1    6    6  501    0  0.19750386570E+01 -0.65025076248E+01  0.39216558035E+02  0.39801027716E+02  0.00000000000E+00 0. -1.
         -1    1    6    6    0  501  0.42401959343E+02  0.17806709218E+03  0.27913817788E+03  0.33380224358E+03  0.00000000000E+00 0.  1.
          5    1    5    5  502    0  0.15324910272E+02  0.25138496491E+02  0.29238174748E+03  0.29389789578E+03  0.47000000000E+01 0. -1.
         11    1    4    4    0    0 -0.54141243938E+02 -0.26577376429E+02  0.24164027692E+03  0.24905351767E+03  0.00000000000E+00 0. -1.
        -12    1    4    4    0    0 -0.11637407050E+02 -0.79331539382E+02  0.15271325460E+03  0.17248263830E+03  0.00000000000E+00 0.  1.
         -5    1    3    3    0  504  0.60767427154E+01 -0.90794165232E+02  0.68342437893E+02  0.11390033389E+03  0.47000000000E+01 0.  1.
<mgrwt>
<rscale>  2 0.26943124E+03</rscale>
<asrwt>0</asrwt>
<pdfrwt beam="1">  1       21 0.17510538E+00 0.26945255E+03</pdfrwt>
<pdfrwt beam="2">  1       21 0.99619396E-02 0.26945255E+03</pdfrwt>
<totfact> 0.15282354E+04</totfact>
</mgrwt>
</event>
<event>
12    1  0.2736842E-001  0.4219073E+03  0.7546771E-02  0.1036458E+00
         21   -1    0    0  502  503  0.00000000000E+00  0.00000000000E+00  0.23099566887E+03  0.23099566887E+03  0.00000000000E+00 0.  1.
         21   -1    0    0  503  504 -0.00000000000E+00 -0.00000000000E+00 -0.14526714897E+04  0.14526714897E+04  0.00000000000E+00 0. -1.
         -6    2    1    2    0  504  0.74786667605E+02  0.37714094036E+03 -0.11878365558E+04  0.12605401352E+04  0.17371647725E+03 0.  0.
        -24    2    3    3    0    0  0.46237294880E+02  0.17758606608E+03 -0.78331109048E+03  0.80854438668E+03  0.80579541272E+02 0.  0.
          6    2    1    2  502    0 -0.74786667605E+02 -0.37714094036E+03 -0.33839265012E+02  0.42312702341E+03  0.17338698779E+03 0.  0.
         24    2    5    5    0    0 -0.65343631966E+01 -0.26424472177E+03  0.25371623843E+02  0.27844823233E+03  0.83795751114E+02 0.  0.
          2    1    6    6  501    0  0.25557524058E+02 -0.20484076122E+03  0.31131880288E+00  0.20642921647E+03  0.00000000000E+00 0. -1.
         -1    1    6    6    0  501 -0.32091887254E+02 -0.59403960552E+02  0.25060305040E+02  0.72019015861E+02  0.00000000000E+00 0.  1.
          5    1    5    5  502    0 -0.68252304409E+02 -0.11289621860E+03 -0.59210888855E+02  0.14467879108E+03  0.47000000000E+01 0. -1.
         13    1    4    4    0    0  0.50442363678E+02  0.44516885596E+02 -0.25990144580E+03  0.26846777588E+03  0.00000000000E+00 0. -1.
        -14    1    4    4    0    0 -0.42050687987E+01  0.13306918048E+03 -0.52340964468E+03  0.54007661081E+03  0.00000000000E+00 0.  1.
         -5    1    3    3    0  504  0.28549372726E+02  0.19955487428E+03 -0.40452546537E+03  0.45199574850E+03  0.47000000000E+01 0.  1.
<mgrwt>
<rscale>  2 0.42187338E+03</rscale>
<asrwt>0</asrwt>
<pdfrwt beam="1">  1       21 0.35537796E-01 0.42190728E+03</pdfrwt>
<pdfrwt beam="2">  1       21 0.22348792E+00 0.42190728E+03</pdfrwt>
<totfact> 0.60871949E+02</totfact>
</mgrwt>
</event>
<event>
12    1  0.2736842E-001  0.2900310E+03  0.7546771E-02  0.1090499E+00
         21   -1    0    0  502  503  0.00000000000E+00  0.00000000000E+00  0.26240066612E+03  0.26240066612E+03  0.00000000000E+00 0. -1.
         21   -1    0    0  503  504 -0.00000000000E+00 -0.00000000000E+00 -0.39647511954E+03  0.39647511954E+03  0.00000000000E+00 0.  1.
         -6    2    1    2    0  504 -0.17013637711E+03 -0.15831432925E+03  0.78311887484E+02  0.30041760733E+03  0.17351706952E+03 0.  0.
        -24    2    3    3    0    0 -0.17023218399E+03 -0.18046557927E+03  0.53169410458E+02  0.26658092299E+03  0.81802081428E+02 0.  0.
          6    2    1    2  502    0  0.17013637711E+03  0.15831432925E+03 -0.21238634090E+03  0.35845817833E+03  0.17138988928E+03 0.  0.
         24    2    5    5    0    0  0.44222294367E+02  0.10068663558E+03 -0.15953866428E+03  0.21016699776E+03  0.81389014259E+02 0.  0.
          2    1    6    6  501    0  0.54511721382E+02  0.25245640459E+02 -0.80196885141E+02  0.10020184887E+03  0.00000000000E+00 0. -1.
         -1    1    6    6    0  501 -0.10289427014E+02  0.75440995122E+02 -0.79341779143E+02  0.10996514889E+03  0.00000000000E+00 0.  1.
          5    1    5    5  502    0  0.12591408274E+03  0.57627693669E+02 -0.52847676619E+02  0.14829118057E+03  0.47000000000E+01 0. -1.
         11    1    4    4    0    0 -0.98030328695E+02 -0.13414732260E+03  0.68001986854E+02  0.17952637611E+03  0.00000000000E+00 0. -1.
        -12    1    4    4    0    0 -0.72201855295E+02 -0.46318256670E+02 -0.14832576396E+02  0.87054546875E+02  0.00000000000E+00 0.  1.
         -5    1    3    3    0  504  0.95806883054E-01  0.22151250020E+02  0.25142477025E+02  0.33836684344E+02  0.47000000000E+01 0.  1.
<mgrwt>
<rscale>  2 0.28971359E+03</rscale>
<asrwt>0</asrwt>
<pdfrwt beam="1">  1       21 0.40369333E-01 0.29003101E+03</pdfrwt>
<pdfrwt beam="2">  1       21 0.60996172E-01 0.29003101E+03</pdfrwt>
<totfact> 0.14031550E+04</totfact>
</mgrwt>
</event>
<event>
12    1  0.2736842E-001  0.2608612E+03  0.7546771E-02  0.1106662E+00
         21   -1    0    0  502  503  0.00000000000E+00  0.00000000000E+00  0.19547482009E+03  0.19547482009E+03  0.00000000000E+00 0.  1.
         21   -1    0    0  503  504 -0.00000000000E+00 -0.00000000000E+00 -0.87266091088E+03  0.87266091088E+03  0.00000000000E+00 0. -1.
         -6    2    1    2    0  504  0.19382971895E+03  0.23319011648E+02 -0.75271656580E+03  0.79655995894E+03  0.17266094956E+03 0.  0.
        -24    2    3    3    0    0  0.57065801004E+02  0.67877456557E+02 -0.41678022078E+03  0.43109430779E+03  0.65365855173E+02 0.  0.
          6    2    1    2  502    0 -0.19382971895E+03 -0.23319011648E+02  0.75530475019E+02  0.27157577203E+03  0.17301679410E+03 0.  0.
         24    2    5    5    0    0 -0.20591329053E+03 -0.39564178614E+02  0.93660601694E+02  0.24399480676E+03  0.82435125815E+02 0.  0.
          4    1    6    6  501    0 -0.15223672964E+03 -0.20185869001E+02  0.26459410367E+02  0.15583193369E+03  0.00000000000E+00 0. -1.
         -3    1    6    6    0  501 -0.53676560889E+02 -0.19378309613E+02  0.67201191327E+02  0.88162873070E+02  0.00000000000E+00 0.  1.
          5    1    5    5  502    0  0.12083571581E+02  0.16245166966E+02 -0.18130126675E+02  0.27580965268E+02  0.47000000000E+01 0. -1.
         13    1    4    4    0    0  0.65898358894E+02  0.32669490942E+02 -0.26332518753E+03  0.27340454226E+03  0.00000000000E+00 0. -1.
        -14    1    4    4    0    0 -0.88325578896E+01  0.35207965615E+02 -0.15345503325E+03  0.15768976552E+03  0.00000000000E+00 0.  1.
         -5    1    3    3    0  504  0.13676391795E+03 -0.44558444909E+02 -0.33593634502E+03  0.36546565115E+03  0.47000000000E+01 0.  1.
<mgrwt>
<rscale>  2 0.26080218E+03</rscale>
<asrwt>0</asrwt>
<pdfrwt beam="1">  1       21 0.30073049E-01 0.26086116E+03</pdfrwt>
<pdfrwt beam="2">  1       21 0.13425552E+00 0.26086116E+03</pdfrwt>
<totfact> 0.40158515E+03</totfact>
</mgrwt>
</event>
<event>
12    1  0.2736842E-001  0.1902191E+03  0.7546771E-02  0.1159492E+00
         21   -1    0    0  502  503  0.00000000000E+00  0.00000000000E+00  0.47757080731E+03  0.47757080731E+03  0.00000000000E+00 0.  1.
         21   -1    0    0  503  504 -0.00000000000E+00 -0.00000000000E+00 -0.10013542222E+03  0.10013542222E+03  0.00000000000E+00 0.  1.
         -6    2    1    2    0  504  0.49797586549E+02 -0.63465439226E+02  0.38160535150E+02  0.18874514860E+03  0.16631549259E+03 0.  0.
        -24    2    3    3    0    0  0.33976725647E+02  0.26750486274E+02  0.35527874560E+02  0.96994215336E+02  0.79218946827E+02 0.  0.
          6    2    1    2  502    0 -0.49797586549E+02  0.63465439226E+02  0.33927484993E+03  0.38896108093E+03  0.17226618089E+03 0.  0.
         24    2    5    5    0    0 -0.11988666018E+02  0.99123261210E+02  0.15938377344E+03  0.20165415596E+03  0.72746562485E+02 0.  0.
          4    1    6    6  501    0 -0.39692302168E+02  0.66182959471E+02  0.78796739789E+02  0.11029319642E+03  0.00000000000E+00 0. -1.
         -3    1    6    6    0  501  0.27703636150E+02  0.32940301739E+02  0.80587033649E+02  0.91360959533E+02  0.00000000000E+00 0.  1.
          5    1    5    5  502    0 -0.37808920530E+02 -0.35657821984E+02  0.17989107650E+03  0.18730692497E+03  0.47000000000E+01 0. -1.
         13    1    4    4    0    0  0.32274256425E+02  0.73793371538E+01  0.58302793008E+02  0.67046982909E+02  0.00000000000E+00 0. -1.
        -14    1    4    4    0    0  0.17024692216E+01  0.19371149120E+02 -0.22774918449E+02  0.29947232427E+02  0.00000000000E+00 0.  1.
         -5    1    3    3    0  504  0.15820860902E+02 -0.90215925499E+02  0.26326605902E+01  0.91750933266E+02  0.47000000000E+01 0.  1.
<mgrwt>
<rscale>  2 0.18886166E+03</rscale>
<asrwt>0</asrwt>
<pdfrwt beam="1">  1       21 0.73472430E-01 0.19021908E+03</pdfrwt>
<pdfrwt beam="2">  1       21 0.15405450E-01 0.19021908E+03</pdfrwt>
<totfact> 0.62267758E+04</totfact>
</mgrwt>
</event>
<event>
12    1  0.2736842E-001  0.2784737E+03  0.7546771E-02  0.1096690E+00
         21   -1    0    0  502  503  0.00000000000E+00  0.00000000000E+00  0.24437122051E+03  0.24437122051E+03  0.00000000000E+00 0.  1.
         21   -1    0    0  503  504 -0.00000000000E+00 -0.00000000000E+00 -0.34223165049E+03  0.34223165049E+03  0.00000000000E+00 0. -1.
         -6    2    1    2    0  504 -0.44831471902E+01 -0.21768297096E+03 -0.13006693837E+03  0.30627295432E+03  0.17169665004E+03 0.  0.
        -24    2    3    3    0    0  0.31559178615E+02 -0.20391703482E+03 -0.14508475968E+03  0.26460551854E+03  0.79927180039E+02 0.  0.
          6    2    1    2  502    0  0.44831471902E+01  0.21768297096E+03  0.32206508391E+02  0.28032991668E+03  0.17361344576E+03 0.  0.
         24    2    5    5    0    0 -0.20398341725E+01  0.16043396046E+03  0.87232115458E+02  0.20051822630E+03  0.82794326604E+02 0.  0.
          2    1    6    6  501    0  0.23498760026E+02  0.65715780836E+02  0.73678980728E+02  0.10148570232E+03  0.00000000000E+00 0. -1.
         -1    1    6    6    0  501 -0.25538594199E+02  0.94718179623E+02  0.13553134730E+02  0.99032523979E+02  0.00000000000E+00 0.  1.
          5    1    5    5  502    0  0.65229813627E+01  0.57249010501E+02 -0.55025607067E+02  0.79811690386E+02  0.47000000000E+01 0. -1.
         11    1    4    4    0    0  0.55022851220E+02 -0.17804104563E+03 -0.12277328331E+03  0.22315780779E+03  0.00000000000E+00 0. -1.
        -12    1    4    4    0    0 -0.23463672605E+02 -0.25875989190E+02 -0.22311476367E+02  0.41447710749E+02  0.00000000000E+00 0.  1.
         -5    1    3    3    0  504 -0.36042325805E+02 -0.13765936143E+02  0.15017821308E+02  0.41667435776E+02  0.47000000000E+01 0.  1.
<mgrwt>
<rscale>  2 0.27817548E+03</rscale>
<asrwt>0</asrwt>
<pdfrwt beam="1">  1       21 0.37595573E-01 0.27847370E+03</pdfrwt>
<pdfrwt beam="2">  1       21 0.52651023E-01 0.27847370E+03</pdfrwt>
<totfact> 0.22349600E+04</totfact>
</mgrwt>
</event>
<event>
12    1  0.2736842E-001  0.2012448E+03  0.7546771E-02  0.1148917E+00
         21   -1    0    0  502  503  0.00000000000E+00  0.00000000000E+00  0.58502942350E+03  0.58502942350E+03  0.00000000000E+00 0.  1.
         21   -1    0    0  503  504 -0.00000000000E+00 -0.00000000000E+00 -0.11682004071E+03  0.11682004071E+03  0.00000000000E+00 0. -1.
         -6    2    1    2    0  504  0.10270933975E+03 -0.33485267939E+01  0.88875273847E+01  0.20037561503E+03  0.17178759516E+03 0.  0.
        -24    2    3    3    0    0  0.90337893121E+02 -0.52504292395E+02  0.40083311174E+02  0.14067126921E+03  0.85229680823E+02 0.  0.
          6    2    1    2  502    0 -0.10270933975E+03  0.33485267939E+01  0.45932185541E+03  0.50147384918E+03  0.17302899597E+03 0.  0.
         24    2    5    5    0    0 -0.10239455814E+03 -0.21501153919E+01  0.47040081243E+03  0.48823876543E+03  0.81307436291E+02 0.  0.
          2    1    6    6  501    0 -0.61977804351E+02 -0.41024841283E+02  0.28595100412E+03  0.29545264018E+03  0.00000000000E+00 0. -1.
         -1    1    6    6    0  501 -0.40416753785E+02  0.38874725891E+02  0.18444980831E+03  0.19278612524E+03  0.00000000000E+00 0.  1.
          5    1    5    5  502    0 -0.31478161205E+00  0.54986421858E+01 -0.11078957019E+02  0.13235083754E+02  0.47000000000E+01 0. -1.
         11    1    4    4    0    0  0.85511014010E+02 -0.17009771545E+02  0.53645663394E+02  0.10236856474E+03  0.00000000000E+00 0. -1.
        -12    1    4    4    0    0  0.48268791110E+01 -0.35494520850E+02 -0.13562352220E+02  0.38302704475E+02  0.00000000000E+00 0.  1.
         -5    1    3    3    0  504  0.12371446626E+02  0.49155765601E+02 -0.31195783789E+02  0.59704345819E+02  0.47000000000E+01 0.  1.
<mgrwt>
<rscale>  2 0.20097765E+03</rscale>
<asrwt>0</asrwt>
<pdfrwt beam="1">  1       21 0.90004525E-01 0.20124476E+03</pdfrwt>
<pdfrwt beam="2">  1       21 0.17972314E-01 0.20124476E+03</pdfrwt>
<totfact> 0.29432141E+04</totfact>
</mgrwt>
</event>
<event>
12    1  0.2736842E-001  0.1748461E+03  0.7546771E-02  0.1173274E+00
         21   -1    0    0  502  503  0.00000000000E+00  0.00000000000E+00  0.70664098583E+02  0.70664098583E+02  0.00000000000E+00 0. -1.
         21   -1    0    0  503  504 -0.00000000000E+00 -0.00000000000E+00 -0.56403354194E+03  0.56403354194E+03  0.00000000000E+00 0. -1.
         -6    2    1    2    0  504 -0.13020032362E+02  0.23919482967E+02 -0.40288517409E+03  0.43918974744E+03  0.17271221104E+03 0.  0.
        -24    2    3    3    0    0  0.44714985591E+02 -0.19118750682E+02 -0.15676945280E+03  0.18271234078E+03  0.80263201909E+02 0.  0.
          6    2    1    2  502    0  0.13020032362E+02 -0.23919482967E+02 -0.90484269265E+02  0.19550789309E+03  0.17115569043E+03 0.  0.
         24    2    5    5    0    0  0.82205687455E+01  0.51545172230E+02 -0.34711632236E+02  0.10143012698E+03  0.79741399008E+02 0.  0.
          2    1    6    6  501    0  0.34395285149E+02  0.47024538656E+02 -0.68704089571E+00  0.58265040131E+02  0.00000000000E+00 0. -1.
         -1    1    6    6    0  501 -0.26174716403E+02  0.45206335745E+01 -0.34024591340E+02  0.43165086848E+02  0.00000000000E+00 0.  1.
          5    1    5    5  502    0  0.47994636160E+01 -0.75464655197E+02 -0.55772637029E+02  0.94077766110E+02  0.47000000000E+01 0. -1.
         11    1    4    4    0    0  0.34227600146E+02  0.33133614002E+01 -0.15400320938E+03  0.15779573972E+03  0.00000000000E+00 0. -1.
        -12    1    4    4    0    0  0.10487385445E+02 -0.22432112082E+02 -0.27662434198E+01  0.24916601064E+02  0.00000000000E+00 0.  1.
         -5    1    3    3    0  504 -0.57735017953E+02  0.43038233649E+02 -0.24611572130E+03  0.25647740665E+03  0.47000000000E+01 0.  1.
<mgrwt>
<rscale>  2 0.17446052E+03</rscale>
<asrwt>0</asrwt>
<pdfrwt beam="1">  1       21 0.10871400E-01 0.17484613E+03</pdfrwt>
<pdfrwt beam="2">  1       21 0.86774390E-01 0.17484613E+03</pdfrwt>
<totfact> 0.80592481E+04</totfact>
</mgrwt>
</event>
<event>
12    1  0.2736842E-001  0.1855622E+03  0.7546771E-02  0.1162771E+00
         21   -1    0    0  502  503  0.00000000000E+00  0.00000000000E+00  0.10124019145E+04  0.10124019145E+04  0.00000000000E+00 0. -1.
         21   -1    0    0  503  504 -0.00000000000E+00 -0.00000000000E+00 -0.89307231044E+02  0.89307231044E+02  0.00000000000E+00 0. -1.
         -6    2    1    2    0  504 -0.31065338065E+02 -0.54575410478E+02  0.26846213322E+02  0.18645254425E+03  0.17349438443E+03 0.  0.
        -24    2    3    3    0    0 -0.26102087654E+02  0.28433355994E+02 -0.18379926839E+02  0.91676054972E+02  0.81098104982E+02 0.  0.
          6    2    1    2  502    0  0.31065338065E+02  0.54575410478E+02  0.89624847015E+03  0.91525660131E+03  0.17461327366E+03 0.  0.
         24    2    5    5    0    0  0.52570093981E+02  0.12050839472E+02  0.26681698746E+03  0.28400635374E+03  0.80990534325E+02 0.  0.
          2    1    6    6  501    0  0.67264653409E+02  0.23972482471E+02  0.15575840746E+03  0.17134729356E+03  0.00000000000E+00 0. -1.
         -1    1    6    6    0  501 -0.14694559428E+02 -0.11921642999E+02  0.11105858000E+03  0.11265906018E+03  0.00000000000E+00 0.  1.
          5    1    5    5  502    0 -0.21504755916E+02  0.42524571006E+02  0.62943148269E+03  0.63125024758E+03  0.47000000000E+01 0. -1.
         13    1    4    4    0    0 -0.24410981608E+02 -0.25604821590E+02 -0.32013232633E+01  0.35521139936E+02  0.00000000000E+00 0. -1.
        -14    1    4    4    0    0 -0.16911060459E+01  0.54038177584E+02 -0.15178603575E+02  0.56154915036E+02  0.00000000000E+00 0.  1.
         -5    1    3    3    0  504 -0.49632504105E+01 -0.83008766472E+02  0.45226140161E+02  0.94776489277E+02  0.47000000000E+01 0.  1.
<mgrwt>
<rscale>  2 0.18529851E+03</rscale>
<asrwt>0</asrwt>
<pdfrwt beam="1">  1       21 0.15575413E+00 0.18556219E+03</pdfrwt>
<pdfrwt beam="2">  1       21 0.13739575E-01 0.18556219E+03</pdfrwt>
<totfact> 0.12510959E+04</totfact>
</mgrwt>
</event>
<event>
12    1  0.2736842E-001  0.1843193E+03  0.7546771E-02  0.1163713E+00
         21   -1    0    0  502  503  0.00000000000E+00  0.00000000000E+00  0.46970630073E+03  0.46970630073E+03  0.00000000000E+00 0. -1.
         21   -1    0    0  503  504 -0.00000000000E+00 -0.00000000000E+00 -0.75210885887E+02  0.75210885887E+02  0.00000000000E+00 0. -1.
         -6    2    1    2    0  504  0.46696914023E+02  0.42190963500E+02  0.25103748454E+03  0.31143766085E+03  0.17324237002E+03 0.  0.
        -24    2    3    3    0    0  0.81946020363E+02 -0.16136669542E+02  0.17935274489E+03  0.21241542005E+03  0.77313396110E+02 0.  0.
          6    2    1    2  502    0 -0.46696914023E+02 -0.42190963500E+02  0.14345793031E+03  0.23347952577E+03  0.17312374767E+03 0.  0.
         24    2    5    5    0    0 -0.29287092572E+02  0.37122319740E+02  0.11466362443E+03  0.14719568701E+03  0.79265522718E+02 0.  0.
          4    1    6    6  501    0 -0.44980710514E+02  0.42701267528E+02  0.47841999173E+02  0.78329556693E+02  0.00000000000E+00 0. -1.
         -3    1    6    6    0  501  0.15693617942E+02 -0.55789477875E+01  0.66821625255E+02  0.68866130313E+02  0.00000000000E+00 0.  1.
          5    1    5    5  502    0 -0.17409821451E+02 -0.79313283240E+02  0.28794305880E+02  0.86283838767E+02  0.47000000000E+01 0. -1.
         11    1    4    4    0    0  0.33543121930E+02  0.31238994021E+02  0.65636268980E+02  0.80057077026E+02  0.00000000000E+00 0. -1.
        -12    1    4    4    0    0  0.48402898433E+02 -0.47375663563E+02  0.11371647591E+03  0.13235834303E+03  0.00000000000E+00 0.  1.
         -5    1    3    3    0  504 -0.35249106340E+02  0.58327633042E+02  0.71684739647E+02  0.99022240796E+02  0.47000000000E+01 0.  1.
<mgrwt>
<rscale>  2 0.18429140E+03</rscale>
<asrwt>0</asrwt>
<pdfrwt beam="1">  1       21 0.72262506E-01 0.18431928E+03</pdfrwt>
<pdfrwt beam="2">  1       21 0.11570906E-01 0.18431928E+03</pdfrwt>
<totfact> 0.10850042E+05</totfact>
</mgrwt>
</event>
<event>
12    1  0.2736842E-001  0.1755775E+03  0.7546771E-02  0.1172370E+00
         21   -1    0    0  502  503  0.00000000000E+00  0.00000000000E+00  0.36674372365E+03  0.36674372365E+03  0.00000000000E+00 0. -1.
         21   -1    0    0  503  504 -0.00000000000E+00 -0.00000000000E+00 -0.12994380467E+03  0.12994380467E+03  0.00000000000E+00 0. -1.
         -6    2    1    2    0  504 -0.14942715176E+02  0.31489615998E+02 -0.29652929806E+02  0.17806388684E+03  0.17208303489E+03 0.  0.
        -24    2    3    3    0    0  0.46619626308E+02 -0.12331118284E+02 -0.33877896907E+02  0.10223434781E+03  0.83538637397E+02 0.  0.
          6    2    1    2  502    0  0.14942715176E+02 -0.31489615998E+02  0.26645284878E+03  0.31862364148E+03  0.17119878397E+03 0.  0.
         24    2    5    5    0    0  0.40031872133E+02  0.56915334086E+01  0.65169951181E+02  0.11235004032E+03  0.82100333033E+02 0.  0.
          4    1    6    6  501    0  0.64001835692E+02 -0.61188003021E+01  0.51247045525E+02  0.82218820012E+02  0.00000000000E+00 0. -1.
         -3    1    6    6    0  501 -0.23969963559E+02  0.11810333711E+02  0.13922905655E+02  0.30131220309E+02  0.00000000000E+00 0.  1.
          5    1    5    5  502    0 -0.25089156957E+02 -0.37181149407E+02  0.20128289760E+03  0.20627360116E+03  0.47000000000E+01 0. -1.
         11    1    4    4    0    0  0.53721516630E+02  0.61259335717E+01 -0.52286893486E+02  0.75216006551E+02  0.00000000000E+00 0. -1.
        -12    1    4    4    0    0 -0.71018903219E+01 -0.18457051855E+02  0.18408996579E+02  0.27018341259E+02  0.00000000000E+00 0.  1.
         -5    1    3    3    0  504 -0.61562341484E+02  0.43820734282E+02  0.42249671003E+01  0.75829539027E+02  0.47000000000E+01 0.  1.
<mgrwt>
<rscale>  2 0.17536044E+03</rscale>
<asrwt>0</asrwt>
<pdfrwt beam="1">  1       21 0.56422111E-01 0.17557748E+03</pdfrwt>
<pdfrwt beam="2">  1       21 0.19991355E-01 0.17557748E+03</pdfrwt>
<totfact> 0.68770916E+04</totfact>
</mgrwt>
</event>
<event>
12    1  0.2736842E-001  0.1727186E+03  0.7546771E-02  0.1177184E+00
         21   -1    0    0  502  503  0.00000000000E+00  0.00000000000E+00  0.15945125819E+03  0.15945125819E+03  0.00000000000E+00 0.  1.
         21   -1    0    0  503  504 -0.00000000000E+00 -0.00000000000E+00 -0.17840823450E+03  0.17840823450E+03  0.00000000000E+00 0.  1.
         -6    2    1    2    0  504  0.87026234809E+00  0.20592506347E+02 -0.12468357334E+02  0.16501909628E+03  0.16325144266E+03 0.  0.
        -24    2    3    3    0    0  0.27274966823E+02  0.68185126761E+02 -0.22019395632E+02  0.10956119992E+03  0.78266643070E+02 0.  0.
          6    2    1    2  502    0 -0.87026234809E+00 -0.20592506347E+02 -0.64886189715E+01  0.17284039640E+03  0.17148437765E+03 0.  0.
         24    2    5    5    0    0 -0.18119251960E+01 -0.63938079005E+02 -0.48928613888E+02  0.11198837453E+03  0.77820471292E+02 0.  0.
          2    1    6    6  501    0 -0.32328797275E+02 -0.30313807933E+01 -0.13062932656E+02  0.34999723032E+02  0.00000000000E+00 0. -1.
         -1    1    6    6    0  501  0.30516872079E+02 -0.60906698212E+02 -0.35865681232E+02  0.76988651493E+02  0.00000000000E+00 0.  1.
          5    1    5    5  502    0  0.94166284787E+00  0.43345572658E+02  0.42439994917E+02  0.60852021877E+02  0.47000000000E+01 0. -1.
         11    1    4    4    0    0 -0.23684638726E+02  0.40149260833E+01 -0.12461693563E+02  0.27062437981E+02  0.00000000000E+00 0. -1.
        -12    1    4    4    0    0  0.50959605549E+02  0.64170200678E+02 -0.95577020686E+01  0.82498761940E+02  0.00000000000E+00 0.  1.
         -5    1    3    3    0  504 -0.26404704475E+02 -0.47592620414E+02  0.95510382981E+01  0.55457896362E+02  0.47000000000E+01 0.  1.
<mgrwt>
<rscale>  2 0.17063849E+03</rscale>
<asrwt>0</asrwt>
<pdfrwt beam="1">  1       21 0.24530963E-01 0.17271856E+03</pdfrwt>
<pdfrwt beam="2">  1       21 0.27447421E-01 0.17271856E+03</pdfrwt>
<totfact> 0.19997526E+05</totfact>
</mgrwt>
</event>
<event>
12    1  0.2736842E-001  0.1761648E+03  0.7546771E-02  0.1172068E+00
         21   -1    0    0  502  503  0.00000000000E+00  0.00000000000E+00  0.11060625911E+04  0.11060625911E+04  0.00000000000E+00 0.  1.
         21   -1    0    0  503  504 -0.00000000000E+00 -0.00000000000E+00 -0.47893032916E+02  0.47893032916E+02  0.00000000000E+00 0.  1.
         -6    2    1    2    0  504  0.15649128963E+02  0.23682995632E+02  0.15306466691E+03  0.23186619593E+03  0.17183527298E+03 0.  0.
        -24    2    3    3    0    0 -0.30653460388E+02  0.25149252340E+01  0.15705022489E+03  0.18058275165E+03  0.83662402376E+02 0.  0.
          6    2    1    2  502    0 -0.15649128963E+02 -0.23682995632E+02  0.90510489132E+03  0.92208942813E+03  0.17386278977E+03 0.  0.
         24    2    5    5    0    0  0.13729477114E+02 -0.30097692959E+02  0.87522936306E+03  0.87944100465E+03  0.79345277349E+02 0.  0.
          2    1    6    6  501    0 -0.29713477257E+02 -0.16442849329E+02  0.21730406173E+03  0.21994161332E+03  0.00000000000E+00 0. -1.
         -1    1    6    6    0  501  0.43442954371E+02 -0.13654843630E+02  0.65792530133E+03  0.65949939133E+03  0.00000000000E+00 0.  1.
          5    1    5    5  502    0 -0.29378606077E+02  0.64146973275E+01  0.29875528264E+02  0.42648423486E+02  0.47000000000E+01 0. -1.
         13    1    4    4    0    0 -0.23534629634E+02 -0.28210056891E+02  0.24087206532E+02  0.43930395175E+02  0.00000000000E+00 0. -1.
        -14    1    4    4    0    0 -0.71188307542E+01  0.30724982125E+02  0.13296301836E+03  0.13665235647E+03  0.00000000000E+00 0.  1.
         -5    1    3    3    0  504  0.46302589351E+02  0.21168070398E+02 -0.39855579809E+01  0.51283444281E+02  0.47000000000E+01 0.  1.
<mgrwt>
<rscale>  2 0.17566251E+03</rscale>
<asrwt>0</asrwt>
<pdfrwt beam="1">  1       21 0.17016346E+00 0.17616484E+03</pdfrwt>
<pdfrwt beam="2">  1       21 0.73681597E-02 0.17616484E+03</pdfrwt>
<totfact> 0.29786581E+04</totfact>
</mgrwt>
</event>
<event>
12    1  0.2736842E-001  0.2394809E+03  0.7546771E-02  0.1120218E+00
         21   -1    0    0  502  503  0.00000000000E+00  0.00000000000E+00  0.47841238435E+03  0.47841238435E+03  0.00000000000E+00 0. -1.
         21   -1    0    0  503  504 -0.00000000000E+00 -0.00000000000E+00 -0.15829517656E+03  0.15829517656E+03  0.00000000000E+00 0. -1.
         -6    2    1    2    0  504 -0.16593336452E+03 -0.21800812328E+02  0.26282251815E+01  0.23902635448E+03  0.17063860551E+03 0.  0.
        -24    2    3    3    0    0 -0.16788808571E+03 -0.51611041822E+02  0.33242454154E+02  0.19599390471E+03  0.80364425971E+02 0.  0.
          6    2    1    2  502    0  0.16593336452E+03  0.21800812328E+02  0.31748898261E+03  0.39768120644E+03  0.17129486565E+03 0.  0.
         24    2    5    5    0    0  0.10804016728E+03 -0.28978736371E+02  0.27627896802E+03  0.31021384021E+03  0.85965769819E+02 0.  0.
          4    1    6    6  501    0  0.56558509094E+02  0.25769464394E+02  0.90273144537E+02  0.10960004959E+03  0.00000000000E+00 0. -1.
         -3    1    6    6    0  501  0.51481658186E+02 -0.54748200765E+02  0.18600582348E+03  0.20061379062E+03  0.00000000000E+00 0.  1.
          5    1    5    5  502    0  0.57893197236E+02  0.50779548699E+02  0.41210014591E+02  0.87467366228E+02  0.47000000000E+01 0. -1.
         13    1    4    4    0    0 -0.23326408843E+02 -0.17753166764E+02 -0.22963847732E+02  0.37237542646E+02  0.00000000000E+00 0. -1.
        -14    1    4    4    0    0 -0.14456167687E+03 -0.33857875058E+02  0.56206301886E+02  0.15875636206E+03  0.00000000000E+00 0.  1.
         -5    1    3    3    0  504  0.19547211991E+01  0.29810229494E+02 -0.30614228972E+02  0.43032449768E+02  0.47000000000E+01 0.  1.
<mgrwt>
<rscale>  2 0.23936354E+03</rscale>
<asrwt>0</asrwt>
<pdfrwt beam="1">  1       21 0.73601905E-01 0.23948087E+03</pdfrwt>
<pdfrwt beam="2">  1       21 0.24353104E-01 0.23948087E+03</pdfrwt>
<totfact> 0.25747231E+04</totfact>
</mgrwt>
</event>
<event>
12    1  0.2736842E-001  0.1840501E+03  0.7546771E-02  0.1164566E+00
         21   -1    0    0  502  503  0.00000000000E+00  0.00000000000E+00  0.23270449754E+03  0.23270449754E+03  0.00000000000E+00 0. -1.
         21   -1    0    0  503  504 -0.00000000000E+00 -0.00000000000E+00 -0.15782185566E+03  0.15782185566E+03  0.00000000000E+00 0. -1.
         -6    2    1    2    0  504  0.62906635277E+02  0.60334772743E+01 -0.21165225508E+02  0.18526310632E+03  0.17286064961E+03 0.  0.
        -24    2    3    3    0    0  0.24986508575E+02 -0.55685977589E+02 -0.42095235053E+02  0.10971588654E+03  0.80872203096E+02 0.  0.
          6    2    1    2  502    0 -0.62906635277E+02 -0.60334772743E+01  0.96047867380E+02  0.20526324688E+03  0.17004164219E+03 0.  0.
         24    2    5    5    0    0  0.38053489267E+01  0.38875116826E+02  0.17264195757E+02  0.92585708854E+02  0.82148071433E+02 0.  0.
          4    1    6    6  501    0 -0.22602114384E+01  0.19638368030E+02 -0.32976271512E+02  0.38447477647E+02  0.00000000000E+00 0. -1.
         -3    1    6    6    0  501  0.60655603651E+01  0.19236748796E+02  0.50240467268E+02  0.54138231206E+02  0.00000000000E+00 0.  1.
          5    1    5    5  502    0 -0.66711984204E+02 -0.44908594100E+02  0.78783671624E+02  0.11267753802E+03  0.47000000000E+01 0. -1.
         11    1    4    4    0    0  0.44049621874E+02 -0.62394855615E+01 -0.34246720630E+02  0.56143906537E+02  0.00000000000E+00 0. -1.
        -12    1    4    4    0    0 -0.19063113299E+02 -0.49446492027E+02 -0.78485144231E+01  0.53571980000E+02  0.00000000000E+00 0.  1.
         -5    1    3    3    0  504  0.37920126702E+02  0.61719454863E+02  0.20930009545E+02  0.75547219785E+02  0.47000000000E+01 0.  1.
<mgrwt>
<rscale>  2 0.18338528E+03</rscale>
<asrwt>0</asrwt>
<pdfrwt beam="1">  1       21 0.35800692E-01 0.18405013E+03</pdfrwt>
<pdfrwt beam="2">  1       21 0.24280285E-01 0.18405013E+03</pdfrwt>
<totfact> 0.12084295E+05</totfact>
</mgrwt>
</event>
<event>
12    1  0.2736842E-001  0.3022462E+03  0.7546771E-02  0.1085344E+00
         21   -1    0    0  502  503  0.00000000000E+00  0.00000000000E+00  0.47712150427E+03  0.47712150427E+03  0.00000000000E+00 0. -1.
         21   -1    0    0  503  504 -0.00000000000E+00 -0.00000000000E+00 -0.25728591305E+03  0.25728591305E+03  0.00000000000E+00 0. -1.
         -6    2    1    2    0  504  0.15346907430E+03  0.19495858791E+03 -0.82906197578E+02  0.31341063018E+03  0.17260121017E+03 0.  0.
        -24    2    3    3    0    0  0.16433483447E+03  0.17670965724E+03 -0.29011830671E+02  0.25529194989E+03  0.78102833360E+02 0.  0.
          6    2    1    2  502    0 -0.15346907430E+03 -0.19495858791E+03  0.30274178880E+03  0.42099678713E+03  0.15499708489E+03 0.  0.
         24    2    5    5    0    0 -0.14978150648E+03 -0.10460800041E+03  0.23079362901E+03  0.30534448705E+03  0.81192506711E+02 0.  0.
          4    1    6    6  501    0 -0.88198318594E+02 -0.10171768105E+03  0.18376098934E+03  0.22780151722E+03  0.00000000000E+00 0. -1.
         -3    1    6    6    0  501 -0.61583187889E+02 -0.28903193590E+01  0.47032639661E+02  0.77542969830E+02  0.00000000000E+00 0.  1.
          5    1    5    5  502    0 -0.36875678142E+01 -0.90350587495E+02  0.71948159795E+02  0.11565230008E+03  0.47000000000E+01 0. -1.
         11    1    4    4    0    0  0.54654595084E+02  0.36141945669E+02 -0.39811779967E+02  0.76670351667E+02  0.00000000000E+00 0. -1.
        -12    1    4    4    0    0  0.10968023939E+03  0.14056771157E+03  0.10799949296E+02  0.17862159822E+03  0.00000000000E+00 0.  1.
         -5    1    3    3    0  504 -0.10865760173E+02  0.18248930668E+02 -0.53894366907E+02  0.58118680292E+02  0.47000000000E+01 0.  1.
<mgrwt>
<rscale>  2 0.29979254E+03</rscale>
<asrwt>0</asrwt>
<pdfrwt beam="1">  1       21 0.73403308E-01 0.30224623E+03</pdfrwt>
<pdfrwt beam="2">  1       21 0.39582448E-01 0.30224623E+03</pdfrwt>
<totfact> 0.96456108E+03</totfact>
</mgrwt>
</event>
<event>
12    1  0.2736842E-001  0.1940439E+03  0.7546771E-02  0.1155075E+00
         21   -1    0    0  502  503  0.00000000000E+00  0.00000000000E+00  0.11401138796E+03  0.11401138796E+03  0.00000000000E+00 0.  1.
         21   -1    0    0  503  504 -0.00000000000E+00 -0.00000000000E+00 -0.76882472771E+03  0.76882472771E+03  0.00000000000E+00 0.  1.
         -6    2    1    2    0  504  0.28773137507E+02  0.79811621711E+02 -0.66107124762E+03  0.68869137133E+03  0.17344400280E+03 0.  0.
        -24    2    3    3    0    0 -0.49984357455E+02  0.57606765452E+02 -0.39699837899E+03  0.41219115686E+03  0.80478950397E+02 0.  0.
          6    2    1    2  502    0 -0.28773137507E+02 -0.79811621711E+02  0.62579078675E+01  0.19414474435E+03  0.17451427433E+03 0.  0.
         24    2    5    5    0    0 -0.38173172114E+02 -0.52901385002E+02  0.68685448570E+02  0.12535659618E+03  0.82102605055E+02 0.  0.
          4    1    6    6  501    0 -0.53714895285E+02 -0.16934263038E+02  0.13915363547E+02  0.58014623870E+02  0.00000000000E+00 0. -1.
         -3    1    6    6    0  501  0.15541723171E+02 -0.35967121964E+02  0.54770085023E+02  0.67341972312E+02  0.00000000000E+00 0.  1.
          5    1    5    5  502    0  0.94000346068E+01 -0.26910236708E+02 -0.62427540703E+02  0.68788148169E+02  0.47000000000E+01 0. -1.
         13    1    4    4    0    0 -0.45520494500E+02  0.27431051177E+02 -0.36150466881E+03  0.36539048094E+03  0.00000000000E+00 0. -1.
        -14    1    4    4    0    0 -0.44638629544E+01  0.30175714275E+02 -0.35493710179E+02  0.46800675922E+02  0.00000000000E+00 0.  1.
         -5    1    3    3    0  504  0.78757494961E+02  0.22204856259E+02 -0.26407286863E+03  0.27650021447E+03  0.47000000000E+01 0.  1.
<mgrwt>
<rscale>  2 0.19380292E+03</rscale>
<asrwt>0</asrwt>
<pdfrwt beam="1">  1       21 0.17540214E-01 0.19404386E+03</pdfrwt>
<pdfrwt beam="2">  1       21 0.11828072E+00 0.19404386E+03</pdfrwt>
<totfact> 0.16103961E+04</totfact>
</mgrwt>
</event>
<event>
12    1  0.2736842E-001  0.1932656E+03  0.7546771E-02  0.1155843E+00
         21   -1    0    0  502  503  0.00000000000E+00  0.00000000000E+00  0.65253455736E+03  0.65253455736E+03  0.00000000000E+00 0.  1.
         21   -1    0    0  503  504 -0.00000000000E+00 -0.00000000000E+00 -0.57035324656E+02  0.57035324656E+02  0.00000000000E+00 0.  1.
         -6    2    1    2    0  504 -0.82717986141E+02 -0.39516562720E+01  0.31912156187E+03  0.37308195961E+03  0.17462444422E+03 0.  0.
        -24    2    3    3    0    0 -0.44218455922E+02  0.62688162412E+02  0.14597309018E+03  0.18354156152E+03  0.80587121777E+02 0.  0.
          6    2    1    2  502    0  0.82717986141E+02  0.39516562720E+01  0.27637767083E+03  0.33648792240E+03  0.17315202618E+03 0.  0.
         24    2    5    5    0    0  0.87933523655E+02  0.41417892667E+01  0.87239165609E+02  0.14721906036E+03  0.79456407645E+02 0.  0.
          4    1    6    6  501    0 -0.11316575913E+02  0.14628980251E+02  0.10047960112E+02  0.21048359936E+02  0.00000000000E+00 0. -1.
         -3    1    6    6    0  501  0.99250099568E+02 -0.10487190985E+02  0.77191205496E+02  0.12617070042E+03  0.00000000000E+00 0.  1.
          5    1    5    5  502    0 -0.52155375143E+01 -0.19013299464E+00  0.18913850522E+03  0.18926886205E+03  0.47000000000E+01 0. -1.
         11    1    4    4    0    0 -0.34465807887E+02  0.28387432368E+02  0.14054891065E+03  0.14747113112E+03  0.00000000000E+00 0. -1.
        -12    1    4    4    0    0 -0.97526480347E+01  0.34300730043E+02  0.54241795308E+01  0.36070430394E+02  0.00000000000E+00 0.  1.
         -5    1    3    3    0  504 -0.38499530219E+02 -0.66639818684E+02  0.17314847169E+03  0.18954039809E+03  0.47000000000E+01 0.  1.
<mgrwt>
<rscale>  2 0.19293236E+03</rscale>
<asrwt>0</asrwt>
<pdfrwt beam="1">  1       21 0.10038993E+00 0.19326556E+03</pdfrwt>
<pdfrwt beam="2">  1       21 0.87746658E-02 0.19326556E+03</pdfrwt>
<totfact> 0.83048302E+04</totfact>
</mgrwt>
</event>
<event>
12    1  0.2736842E-001  0.5332878E+03  0.7546771E-02  0.1005533E+00
         21   -1    0    0  502  503  0.00000000000E+00  0.00000000000E+00  0.16850409578E+03  0.16850409578E+03  0.00000000000E+00 0. -1.
         21   -1    0    0  503  504 -0.00000000000E+00 -0.00000000000E+00 -0.17690057308E+04  0.17690057308E+04  0.00000000000E+00 0.  1.
         -6    2    1    2    0  504  0.15393599931E+03  0.47896209442E+03 -0.10152375466E+04  0.11467794591E+04  0.17690356689E+03 0.  0.
        -24    2    3    3    0    0  0.22322411064E+02  0.17784666112E+03 -0.47220733942E+03  0.51203814430E+03  0.84116377180E+02 0.  0.
          6    2    1    2  502    0 -0.15393599931E+03 -0.47896209442E+03 -0.58526408848E+03  0.79073036755E+03  0.17210311191E+03 0.  0.
         24    2    5    5    0    0 -0.11406956055E+03 -0.30745250397E+03 -0.47648272623E+03  0.58370296037E+03  0.78322734237E+02 0.  0.
          4    1    6    6  501    0 -0.24110904991E+02 -0.14777611893E+03 -0.16939953280E+03  0.22608697171E+03  0.00000000000E+00 0. -1.
         -3    1    6    6    0  501 -0.89958655560E+02 -0.15967638504E+03 -0.30708319343E+03  0.35761598865E+03  0.00000000000E+00 0.  1.
          5    1    5    5  502    0 -0.39866438761E+02 -0.17150959044E+03 -0.10878136225E+03  0.20702740719E+03  0.47000000000E+01 0. -1.
         11    1    4    4    0    0  0.71350518846E+01  0.54292059771E+02 -0.59039789831E+02  0.80524738453E+02  0.00000000000E+00 0. -1.
        -12    1    4    4    0    0  0.15187359179E+02  0.12355460134E+03 -0.41316754959E+03  0.43151340585E+03  0.00000000000E+00 0.  1.
         -5    1    3    3    0  504  0.13161358825E+03  0.30111543330E+03 -0.54303020715E+03  0.63474131476E+03  0.47000000000E+01 0.  1.
<mgrwt>
<rscale>  2 0.53289406E+03</rscale>
<asrwt>0</asrwt>
<pdfrwt beam="1">  1       21 0.25923707E-01 0.53328778E+03</pdfrwt>
<pdfrwt beam="2">  1       21 0.27215472E+00 0.53328778E+03</pdfrwt>
<totfact> 0.54021615E+02</totfact>
</mgrwt>
</event>
<event>
12    1  0.2736842E-001  0.1922993E+03  0.7546771E-02  0.1156512E+00
         21   -1    0    0  502  503  0.00000000000E+00  0.00000000000E+00  0.90807330730E+02  0.90807330730E+02  0.00000000000E+00 0. -1.
         21   -1    0    0  503  504 -0.00000000000E+00 -0.00000000000E+00 -0.41559952382E+03  0.41559952382E+03  0.00000000000E+00 0.  1.
         -6    2    1    2    0  504 -0.19950968360E+02  0.82195940983E+02 -0.12410874057E+03  0.22846284593E+03  0.17215713354E+03 0.  0.
        -24    2    3    3    0    0 -0.56147357799E+02  0.61246328227E+02 -0.20781825850E+02  0.11689400535E+03  0.79553036969E+02 0.  0.
          6    2    1    2  502    0  0.19950968360E+02 -0.82195940983E+02 -0.20068345253E+03  0.27794400863E+03  0.17269861019E+03 0.  0.
         24    2    5    5    0    0  0.27193713379E+02 -0.89768764266E+02 -0.59906585647E+02  0.13669946446E+03  0.79372636946E+02 0.  0.
          2    1    6    6  501    0  0.15208675188E+02 -0.26850763324E+02  0.18093525839E+02  0.35772097637E+02  0.00000000000E+00 0. -1.
         -1    1    6    6    0  501  0.11985038191E+02 -0.62918000942E+02 -0.78000111486E+02  0.10092736683E+03  0.00000000000E+00 0.  1.
          5    1    5    5  502    0 -0.72427450187E+01  0.75728232828E+01 -0.14077686688E+03  0.14124454416E+03  0.47000000000E+01 0. -1.
         13    1    4    4    0    0 -0.67375417163E+02  0.72585597307E+02 -0.16851152948E+02  0.10045933073E+03  0.00000000000E+00 0. -1.
        -14    1    4    4    0    0  0.11228059365E+02 -0.11339269080E+02 -0.39306729020E+01  0.16434674619E+02  0.00000000000E+00 0.  1.
         -5    1    3    3    0  504  0.36196389438E+02  0.20949612756E+02 -0.10332691472E+03  0.11156884058E+03  0.47000000000E+01 0.  1.
<mgrwt>
<rscale>  2 0.19217766E+03</rscale>
<asrwt>0</asrwt>
<pdfrwt beam="1">  1       21 0.13970359E-01 0.19229931E+03</pdfrwt>
<pdfrwt beam="2">  1       21 0.63938388E-01 0.19229931E+03</pdfrwt>
<totfact> 0.10084586E+05</totfact>
</mgrwt>
</event>
<event>
12    1  0.2736842E-001  0.2084498E+03  0.7546771E-02  0.1142970E+00
         21   -1    0    0  502  503  0.00000000000E+00  0.00000000000E+00  0.28087615459E+03  0.28087615459E+03  0.00000000000E+00 0.  1.
         21   -1    0    0  503  504 -0.00000000000E+00 -0.00000000000E+00 -0.15407399267E+03  0.15407399267E+03  0.00000000000E+00 0.  1.
         -6    2    1    2    0  504  0.13339687306E+02 -0.11440675227E+03  0.64732087752E+02  0.21745526939E+03  0.17271276380E+03 0.  0.
        -24    2    3    3    0    0 -0.51203346200E+02 -0.94877352759E+02  0.18895087927E+02  0.13578323518E+03  0.80352771453E+02 0.  0.
          6    2    1    2  502    0 -0.13339687306E+02  0.11440675227E+03  0.62070074164E+02  0.21749487787E+03  0.17373679970E+03 0.  0.
         24    2    5    5    0    0 -0.30444454673E+02  0.71595218186E+02 -0.28862809416E+02  0.11543470036E+03  0.80245673980E+02 0.  0.
          4    1    6    6  501    0  0.37516171257E+01 -0.52402174296E+01 -0.30644019331E+02  0.31314380571E+02  0.00000000000E+00 0. -1.
         -3    1    6    6    0  501 -0.34196071799E+02  0.76835435616E+02  0.17812099153E+01  0.84120319789E+02  0.00000000000E+00 0.  1.
          5    1    5    5  502    0  0.17104767367E+02  0.42811534079E+02  0.90932883580E+02  0.10206017751E+03  0.47000000000E+01 0. -1.
         13    1    4    4    0    0 -0.19317529602E+02  0.11892614616E+02 -0.43787844150E+00  0.22689049558E+02  0.00000000000E+00 0. -1.
        -14    1    4    4    0    0 -0.31885816598E+02 -0.10676996738E+03  0.19332966368E+02  0.11309418562E+03  0.00000000000E+00 0.  1.
         -5    1    3    3    0  504  0.64543033506E+02 -0.19529399506E+02  0.45836999826E+02  0.81672034211E+02  0.47000000000E+01 0.  1.
<mgrwt>
<rscale>  2 0.20823631E+03</rscale>
<asrwt>0</asrwt>
<pdfrwt beam="1">  1       21 0.43211716E-01 0.20844982E+03</pdfrwt>
<pdfrwt beam="2">  1       21 0.23703691E-01 0.20844982E+03</pdfrwt>
<totfact> 0.85740411E+04</totfact>
</mgrwt>
</event>
<event>
12    1  0.2736842E-001  0.1953896E+03  0.7546771E-02  0.1154189E+00
         21   -1    0    0  502  503  0.00000000000E+00  0.00000000000E+00  0.81347867358E+03  0.81347867358E+03  0.00000000000E+00 0.  1.
         21   -1    0    0  503  504 -0.00000000000E+00 -0.00000000000E+00 -0.46526352281E+02  0.46526352281E+02  0.00000000000E+00 0.  1.
         -6    2    1    2    0  504 -0.74279949198E+02 -0.44352060945E+02  0.36181601291E+03  0.41120302694E+03  0.17519271104E+03 0.  0.
        -24    2    3    3    0    0 -0.11585057901E+03 -0.25356084652E+02  0.21727418525E+03  0.25953432772E+03  0.78010947982E+02 0.  0.
          6    2    1    2  502    0  0.74279949198E+02  0.44352060945E+02  0.40513630839E+03  0.44880199892E+03  0.17263600348E+03 0.  0.
         24    2    5    5    0    0  0.35533745386E+02  0.81180868511E+02  0.18885432503E+03  0.22596211088E+03  0.86832822119E+02 0.  0.
          4    1    6    6  501    0 -0.10152163548E+02  0.68245597446E+02  0.14812052007E+03  0.16340200875E+03  0.00000000000E+00 0. -1.
         -3    1    6    6    0  501  0.45685908934E+02  0.12935271065E+02  0.40733804955E+02  0.62560102132E+02  0.00000000000E+00 0.  1.
          5    1    5    5  502    0  0.38746203812E+02 -0.36828807567E+02  0.21628198336E+03  0.22283988804E+03  0.47000000000E+01 0. -1.
         13    1    4    4    0    0 -0.14706829411E+02  0.19255059009E+02  0.78259709389E+02  0.81924539928E+02  0.00000000000E+00 0. -1.
        -14    1    4    4    0    0 -0.10114374960E+03 -0.44611143661E+02  0.13901447586E+03  0.17760978780E+03  0.00000000000E+00 0.  1.
         -5    1    3    3    0  504  0.41570629813E+02 -0.18995976293E+02  0.14454182766E+03  0.15166869922E+03  0.47000000000E+01 0.  1.
<mgrwt>
<rscale>  2 0.19481481E+03</rscale>
<asrwt>0</asrwt>
<pdfrwt beam="1">  1       21 0.12515055E+00 0.19538962E+03</pdfrwt>
<pdfrwt beam="2">  1       21 0.71579009E-02 0.19538962E+03</pdfrwt>
<totfact> 0.69127173E+04</totfact>
</mgrwt>
</event>
<event>
12    1  0.2736842E-001  0.2086788E+03  0.7546771E-02  0.1142750E+00
         21   -1    0    0  502  503  0.00000000000E+00  0.00000000000E+00  0.70328102994E+03  0.70328102994E+03  0.00000000000E+00 0. -1.
         21   -1    0    0  503  504 -0.00000000000E+00 -0.00000000000E+00 -0.63186049044E+02  0.63186049044E+02  0.00000000000E+00 0. -1.
         -6    2    1    2    0  504  0.51549099163E+02 -0.10303970112E+03  0.26119805664E+03  0.33390526314E+03  0.17318721179E+03 0.  0.
        -24    2    3    3    0    0 -0.21450669727E+02 -0.79759429470E+02  0.87620894193E+02  0.14411048283E+03  0.79175200300E+02 0.  0.
          6    2    1    2  502    0 -0.51549099163E+02  0.10303970112E+03  0.37889692425E+03  0.43256181585E+03  0.17398952753E+03 0.  0.
         24    2    5    5    0    0 -0.64489313900E+02  0.75088458951E+02  0.13567299795E+03  0.18735029609E+03  0.83041091017E+02 0.  0.
          4    1    6    6  501    0 -0.64886479787E+02  0.26797961193E+02  0.41590465246E+02  0.81597504757E+02  0.00000000000E+00 0. -1.
         -3    1    6    6    0  501  0.39716588700E+00  0.48290497758E+02  0.94082532709E+02  0.10575279134E+03  0.00000000000E+00 0.  1.
          5    1    5    5  502    0  0.12940214736E+02  0.27951242165E+02  0.24322392630E+03  0.24521151975E+03  0.47000000000E+01 0. -1.
         11    1    4    4    0    0  0.94784717320E+01  0.37983549804E+01 -0.83250875148E+01  0.13174824821E+02  0.00000000000E+00 0. -1.
        -12    1    4    4    0    0 -0.30929141459E+02 -0.83557784451E+02  0.95945981708E+02  0.13093565801E+03  0.00000000000E+00 0.  1.
         -5    1    3    3    0  504  0.72999768890E+02 -0.23280271645E+02  0.17357716245E+03  0.18979478030E+03  0.47000000000E+01 0.  1.
<mgrwt>
<rscale>  2 0.20851149E+03</rscale>
<asrwt>0</asrwt>
<pdfrwt beam="1">  1       21 0.10819708E+00 0.20867881E+03</pdfrwt>
<pdfrwt beam="2">  1       21 0.97209311E-02 0.20867881E+03</pdfrwt>
<totfact> 0.57517909E+04</totfact>
</mgrwt>
</event>
<event>
12    1  0.2736842E-001  0.2140747E+03  0.7546771E-02  0.1138418E+00
         21   -1    0    0  502  503  0.00000000000E+00  0.00000000000E+00  0.76843443954E+03  0.76843443954E+03  0.00000000000E+00 0.  1.
         21   -1    0    0  503  504 -0.00000000000E+00 -0.00000000000E+00 -0.69746568322E+02  0.69746568322E+02  0.00000000000E+00 0.  1.
         -6    2    1    2    0  504 -0.12201391412E+03  0.30554672420E+02  0.18922409150E+03  0.28556784776E+03  0.17298050648E+03 0.  0.
        -24    2    3    3    0    0 -0.42244769056E+02 -0.26672592691E+02  0.30772992430E+02  0.99108959066E+02  0.79872154037E+02 0.  0.
          6    2    1    2  502    0  0.12201391412E+03 -0.30554672420E+02  0.50946377972E+03  0.55261316011E+03  0.17322522515E+03 0.  0.
         24    2    5    5    0    0  0.98812882936E+01  0.28496301308E+02  0.17291444139E+03  0.19296292668E+03  0.80159890122E+02 0.  0.
          4    1    6    6  501    0 -0.23437847537E+02  0.40868500342E+02  0.12277610692E+03  0.13150490276E+03  0.00000000000E+00 0. -1.
         -3    1    6    6    0  501  0.33319135830E+02 -0.12372199034E+02  0.50138334464E+02  0.61458023920E+02  0.00000000000E+00 0.  1.
          5    1    5    5  502    0  0.11213262583E+03 -0.59050973728E+02  0.33654933833E+03  0.35965023343E+03  0.47000000000E+01 0. -1.
         11    1    4    4    0    0 -0.74438940088E+00 -0.39959072270E+02  0.37753227175E+02  0.54978065939E+02  0.00000000000E+00 0. -1.
        -12    1    4    4    0    0 -0.41500379655E+02  0.13286479579E+02 -0.69802347444E+01  0.44130893127E+02  0.00000000000E+00 0.  1.
         -5    1    3    3    0  504 -0.79769145065E+02  0.57227265110E+02  0.15845109907E+03  0.18645888869E+03  0.47000000000E+01 0.  1.
<mgrwt>
<rscale>  2 0.21402515E+03</rscale>
<asrwt>0</asrwt>
<pdfrwt beam="1">  1       21 0.11822068E+00 0.21407466E+03</pdfrwt>
<pdfrwt beam="2">  1       21 0.10730242E-01 0.21407466E+03</pdfrwt>
<totfact> 0.38790233E+04</totfact>
</mgrwt>
</event>
<event>
12    1  0.2736842E-001  0.3384649E+03  0.7546771E-02  0.1067567E+00
         21   -1    0    0  502  503  0.00000000000E+00  0.00000000000E+00  0.57623909078E+03  0.57623909078E+03  0.00000000000E+00 0. -1.
         21   -1    0    0  503  504 -0.00000000000E+00 -0.00000000000E+00 -0.28049049895E+03  0.28049049895E+03  0.00000000000E+00 0. -1.
         -6    2    1    2    0  504  0.44970992854E+02 -0.28613959342E+03 -0.84017724276E+02  0.34873692550E+03  0.17510056566E+03 0.  0.
        -24    2    3    3    0    0  0.29499659458E+02 -0.29710408361E+03 -0.98488774847E+02  0.32442471649E+03  0.80064296011E+02 0.  0.
          6    2    1    2  502    0 -0.44970992854E+02  0.28613959342E+03  0.37976631611E+03  0.50799266422E+03  0.17301975303E+03 0.  0.
         24    2    5    5    0    0 -0.15498284195E+02  0.10219014437E+03  0.24617490914E+03  0.27870072286E+03  0.79931124182E+02 0.  0.
          2    1    6    6  501    0  0.69224201017E+01  0.10168085923E+03  0.22832257990E+03  0.25003623243E+03  0.00000000000E+00 0. -1.
         -1    1    6    6    0  501 -0.22420704296E+02  0.50928514520E+00  0.17852329233E+02  0.28664490429E+02  0.00000000000E+00 0.  1.
          5    1    5    5  502    0 -0.29472708659E+02  0.18394944904E+03  0.13359140697E+03  0.22929194137E+03  0.47000000000E+01 0. -1.
         13    1    4    4    0    0  0.68041211349E+01 -0.14781350753E+03 -0.75760075579E+01  0.14816384499E+03  0.00000000000E+00 0. -1.
        -14    1    4    4    0    0  0.22695538323E+02 -0.14929057608E+03 -0.90912767289E+02  0.17626087150E+03  0.00000000000E+00 0.  1.
         -5    1    3    3    0  504  0.15471333396E+02  0.10964490189E+02  0.14471050571E+02  0.24312209007E+02  0.47000000000E+01 0.  1.
<mgrwt>
<rscale>  2 0.33819660E+03</rscale>
<asrwt>0</asrwt>
<pdfrwt beam="1">  1       21 0.88652168E-01 0.33846487E+03</pdfrwt>
<pdfrwt beam="2">  1       21 0.43152385E-01 0.33846487E+03</pdfrwt>
<totfact> 0.51523862E+03</totfact>
</mgrwt>
</event>
<event>
12    1  0.2736842E-001  0.1845616E+03  0.7546771E-02  0.1163644E+00
         21   -1    0    0  502  503  0.00000000000E+00  0.00000000000E+00  0.84808971616E+02  0.84808971616E+02  0.00000000000E+00 0.  1.
         21   -1    0    0  503  504 -0.00000000000E+00 -0.00000000000E+00 -0.50970341037E+03  0.50970341037E+03  0.00000000000E+00 0.  1.
         -6    2    1    2    0  504  0.10819135885E+02  0.54908948529E+02 -0.35003664281E+03  0.39534743106E+03  0.17504826078E+03 0.  0.
        -24    2    3    3    0    0 -0.11438084504E+02 -0.97973411458E+01 -0.68112327571E+02  0.10519971470E+03  0.78745622960E+02 0.  0.
          6    2    1    2  502    0 -0.10819135885E+02 -0.54908948529E+02 -0.74857795939E+02  0.19916495092E+03  0.17587194698E+03 0.  0.
         24    2    5    5    0    0 -0.66000021581E+02 -0.70330295061E+02 -0.62140276970E+02  0.14028733749E+03  0.80726512286E+02 0.  0.
          4    1    6    6  501    0 -0.63685267993E+02 -0.71824297484E+02 -0.78310980085E+02  0.12388362551E+03  0.00000000000E+00 0. -1.
         -3    1    6    6    0  501 -0.23147535883E+01  0.14940024228E+01  0.16170703114E+02  0.16403711977E+02  0.00000000000E+00 0.  1.
          5    1    5    5  502    0  0.55180885696E+02  0.15421346532E+02 -0.12717518968E+02  0.58877613434E+02  0.47000000000E+01 0. -1.
         11    1    4    4    0    0 -0.40114846564E+02  0.14391830604E+02 -0.37842852748E+02  0.56994799825E+02  0.00000000000E+00 0. -1.
        -12    1    4    4    0    0  0.28676762060E+02 -0.24189171750E+02 -0.30269474823E+02  0.48204914876E+02  0.00000000000E+00 0.  1.
         -5    1    3    3    0  504  0.22257220389E+02  0.64706289675E+02 -0.28192431524E+03  0.29014771636E+03  0.47000000000E+01 0.  1.
<mgrwt>
<rscale>  2 0.18436511E+03</rscale>
<asrwt>0</asrwt>
<pdfrwt beam="1">  1       21 0.13047534E-01 0.18456161E+03</pdfrwt>
<pdfrwt beam="2">  1       21 0.78415909E-01 0.18456161E+03</pdfrwt>
<totfact> 0.72911854E+04</totfact>
</mgrwt>
</event>
<event>
12    1  0.2736842E-001  0.2350272E+03  0.7546771E-02  0.1124004E+00
         21   -1    0    0  502  503  0.00000000000E+00  0.00000000000E+00  0.35415365036E+03  0.35415365036E+03  0.00000000000E+00 0.  1.
         21   -1    0    0  503  504 -0.00000000000E+00 -0.00000000000E+00 -0.32609485067E+03  0.32609485067E+03  0.00000000000E+00 0.  1.
         -6    2    1    2    0  504  0.31398721195E+01  0.15129146474E+03 -0.23404110408E+03  0.32820570170E+03  0.17333429587E+03 0.  0.
        -24    2    3    3    0    0 -0.30699210150E+00  0.19722384275E+01 -0.98939492800E+02  0.12675434878E+03  0.79206424810E+02 0.  0.
          6    2    1    2  502    0 -0.31398721195E+01 -0.15129146474E+03  0.26209990377E+03  0.35204279933E+03  0.17982993885E+03 0.  0.
         24    2    5    5    0    0 -0.71457046461E+02 -0.83121985293E+02  0.18204879678E+03  0.22656537520E+03  0.78579455964E+02 0.  0.
          2    1    6    6  501    0 -0.32402861019E+02 -0.45543249555E+02  0.15739288695E+03  0.16702291413E+03  0.00000000000E+00 0. -1.
         -1    1    6    6    0  501 -0.39054185442E+02 -0.37578735738E+02  0.24655909836E+02  0.59542461068E+02  0.00000000000E+00 0.  1.
          5    1    5    5  502    0  0.68317174342E+02 -0.68169479448E+02  0.80051106984E+02  0.12547742414E+03  0.47000000000E+01 0. -1.
         13    1    4    4    0    0 -0.32701637822E+02 -0.17378219114E+02 -0.28081761239E+02  0.46475638028E+02  0.00000000000E+00 0. -1.
        -14    1    4    4    0    0  0.32394645720E+02  0.19350457542E+02 -0.70857731561E+02  0.80278710754E+02  0.00000000000E+00 0.  1.
         -5    1    3    3    0  504  0.34468642210E+01  0.14931922631E+03 -0.13510161128E+03  0.20145135291E+03  0.47000000000E+01 0.  1.
<mgrwt>
<rscale>  2 0.23378433E+03</rscale>
<asrwt>0</asrwt>
<pdfrwt beam="1">  1       21 0.54485177E-01 0.23502718E+03</pdfrwt>
<pdfrwt beam="2">  1       21 0.50168439E-01 0.23502718E+03</pdfrwt>
<totfact> 0.11724111E+04</totfact>
</mgrwt>
</event>
<event>
12    1  0.2736842E-001  0.1888336E+03  0.7546771E-02  0.1159887E+00
         21   -1    0    0  502  503  0.00000000000E+00  0.00000000000E+00  0.19213853090E+04  0.19213853090E+04  0.00000000000E+00 0. -1.
         21   -1    0    0  503  504 -0.00000000000E+00 -0.00000000000E+00 -0.27399067768E+02  0.27399067768E+02  0.00000000000E+00 0.  1.
         -6    2    1    2    0  504  0.50370483199E+02 -0.55559212500E+02  0.39130578108E+03  0.43448630997E+03  0.17330357056E+03 0.  0.
        -24    2    3    3    0    0  0.93864039866E+02 -0.61768029376E+02  0.24090356869E+03  0.27772804265E+03  0.80452401059E+02 0.  0.
          6    2    1    2  502    0 -0.50370483199E+02  0.55559212500E+02  0.15026804601E+04  0.15142980668E+04  0.17154025222E+03 0.  0.
         24    2    5    5    0    0 -0.49351386998E+02 -0.28962195016E+02  0.89840991785E+03  0.90412605402E+03  0.83840163015E+02 0.  0.
          2    1    6    6  501    0  0.18807523342E+01 -0.25346953445E+01  0.61016714725E+03  0.61017531046E+03  0.00000000000E+00 0. -1.
         -1    1    6    6    0  501 -0.51232139332E+02 -0.26427499672E+02  0.28824277060E+03  0.29395074357E+03  0.00000000000E+00 0.  1.
          5    1    5    5  502    0 -0.10190962015E+01  0.84521407516E+02  0.60427054230E+03  0.61017201277E+03  0.47000000000E+01 0. -1.
         11    1    4    4    0    0  0.68572786337E+02 -0.27205586999E+01  0.16231982866E+03  0.17623097129E+03  0.00000000000E+00 0. -1.
        -12    1    4    4    0    0  0.25291253529E+02 -0.59047470676E+02  0.78583740024E+02  0.10149707136E+03  0.00000000000E+00 0.  1.
         -5    1    3    3    0  504 -0.43493556667E+02  0.62088168759E+01  0.15040221239E+03  0.15675826731E+03  0.47000000000E+01 0.  1.
<mgrwt>
<rscale>  2 0.18842808E+03</rscale>
<asrwt>0</asrwt>
<pdfrwt beam="1">  1       21 0.29559763E+00 0.18883363E+03</pdfrwt>
<pdfrwt beam="2">  1       21 0.42152427E-02 0.18883363E+03</pdfrwt>
<totfact> 0.13037446E+04</totfact>
</mgrwt>
</event>
<event>
12    1  0.2736842E-001  0.1939346E+03  0.7546771E-02  0.1155194E+00
         21   -1    0    0  502  503  0.00000000000E+00  0.00000000000E+00  0.19413967604E+03  0.19413967604E+03  0.00000000000E+00 0. -1.
         21   -1    0    0  503  504 -0.00000000000E+00 -0.00000000000E+00 -0.27098686397E+03  0.27098686397E+03  0.00000000000E+00 0. -1.
         -6    2    1    2    0  504  0.67167041317E+02  0.59996893168E+02 -0.16352520956E+03  0.25367526063E+03  0.17175449067E+03 0.  0.
        -24    2    3    3    0    0  0.96205142011E+02  0.48282603861E+01 -0.83608447645E+02  0.15220818139E+03  0.83055502620E+02 0.  0.
          6    2    1    2  502    0 -0.67167041317E+02 -0.59996893168E+02  0.86678021632E+02  0.21145127938E+03  0.17055065373E+03 0.  0.
         24    2    5    5    0    0  0.11890695152E+02 -0.42084882798E+02  0.92374117349E+02  0.13005409689E+03  0.80427386944E+02 0.  0.
          2    1    6    6  501    0  0.33340770075E+02 -0.50105314934E+02  0.88198454259E+02  0.10677601260E+03  0.00000000000E+00 0. -1.
         -1    1    6    6    0  501 -0.21450074923E+02  0.80204321353E+01  0.41756630900E+01  0.23278084287E+02  0.00000000000E+00 0.  1.
          5    1    5    5  502    0 -0.79057736469E+02 -0.17912010370E+02 -0.56960957170E+01  0.81397182491E+02  0.47000000000E+01 0. -1.
         11    1    4    4    0    0  0.40695381791E+02  0.34592403145E+02 -0.69515131983E+02  0.87664713705E+02  0.00000000000E+00 0. -1.
        -12    1    4    4    0    0  0.55509760220E+02 -0.29764142759E+02 -0.14093315662E+02  0.64543467680E+02  0.00000000000E+00 0.  1.
         -5    1    3    3    0  504 -0.29038100694E+02  0.55168632782E+02 -0.79916761918E+02  0.10146707924E+03  0.47000000000E+01 0.  1.
<mgrwt>
<rscale>  2 0.19366775E+03</rscale>
<asrwt>0</asrwt>
<pdfrwt beam="1">  1       21 0.29867643E-01 0.19393464E+03</pdfrwt>
<pdfrwt beam="2">  1       21 0.41690286E-01 0.19393464E+03</pdfrwt>
<totfact> 0.59503264E+04</totfact>
</mgrwt>
</event>
<event>
12    1  0.2736842E-001  0.3554423E+03  0.7546771E-02  0.1061144E+00
         21   -1    0    0  502  503  0.00000000000E+00  0.00000000000E+00  0.12871473306E+03  0.12871473306E+03  0.00000000000E+00 0.  1.
         21   -1    0    0  503  504 -0.00000000000E+00 -0.00000000000E+00 -0.12411577248E+04  0.12411577248E+04  0.00000000000E+00 0.  1.
         -6    2    1    2    0  504 -0.29076303694E+03  0.10888223072E+03 -0.87685104582E+03  0.94344216995E+03  0.15753376674E+03 0.  0.
        -24    2    3    3    0    0 -0.17180351019E+03  0.47287713869E+01 -0.46065086358E+03  0.49819617750E+03  0.80382869843E+02 0.  0.
          6    2    1    2  502    0  0.29076303694E+03 -0.10888223072E+03 -0.23559194587E+03  0.42643028786E+03  0.17303393203E+03 0.  0.
         24    2    5    5    0    0  0.13582888295E+03 -0.25984561544E+02 -0.18229874913E+03  0.24274885047E+03  0.81052375569E+02 0.  0.
          2    1    6    6  501    0  0.86408408540E+02  0.24027296500E+02 -0.94820000986E+02  0.13051649946E+03  0.00000000000E+00 0. -1.
         -1    1    6    6    0  501  0.49420474413E+02 -0.50011858044E+02 -0.87478748143E+02  0.11223235101E+03  0.00000000000E+00 0.  1.
          5    1    5    5  502    0  0.15493415399E+03 -0.82897669175E+02 -0.53293196743E+02  0.18368143740E+03  0.47000000000E+01 0. -1.
         11    1    4    4    0    0 -0.82149150086E+02 -0.35385610017E+02 -0.25646080599E+03  0.27161143066E+03  0.00000000000E+00 0. -1.
        -12    1    4    4    0    0 -0.89654360104E+02  0.40114381404E+02 -0.20419005759E+03  0.22658474684E+03  0.00000000000E+00 0.  1.
         -5    1    3    3    0  504 -0.11895952675E+03  0.10415345933E+03 -0.41620018224E+03  0.44524599245E+03  0.47000000000E+01 0.  1.
<mgrwt>
<rscale>  2 0.35360756E+03</rscale>
<asrwt>0</asrwt>
<pdfrwt beam="1">  1       21 0.19802268E-01 0.35544230E+03</pdfrwt>
<pdfrwt beam="2">  1       21 0.19094733E+00 0.35544230E+03</pdfrwt>
<totfact> 0.32254080E+03</totfact>
</mgrwt>
</event>
<event>
12    1  0.2736842E-001  0.2816109E+03  0.7546771E-02  0.1094932E+00
         21   -1    0    0  502  503  0.00000000000E+00  0.00000000000E+00  0.92056022541E+02  0.92056022541E+02  0.00000000000E+00 0.  1.
         21   -1    0    0  503  504 -0.00000000000E+00 -0.00000000000E+00 -0.13504867357E+04  0.13504867357E+04  0.00000000000E+00 0.  1.
         -6    2    1    2    0  504 -0.71717323408E+01 -0.21924582245E+03 -0.10650545815E+04  0.11016560156E+04  0.17659147966E+03 0.  0.
        -24    2    3    3    0    0 -0.37984381029E+02 -0.23157184124E+03 -0.94313475048E+03  0.97521280598E+03  0.80427162867E+02 0.  0.
          6    2    1    2  502    0  0.71717323408E+01  0.21924582245E+03 -0.19337613168E+03  0.34088674268E+03  0.17518355695E+03 0.  0.
         24    2    5    5    0    0  0.39966590526E+02  0.22451445817E+03 -0.18806772544E+03  0.30692307941E+03  0.82633147319E+02 0.  0.
          4    1    6    6  501    0  0.38935915993E+02  0.11537666567E+03 -0.14560290044E+03  0.18981039263E+03  0.00000000000E+00 0. -1.
         -3    1    6    6    0  501  0.10306745330E+01  0.10913779250E+03 -0.42464825004E+02  0.11711268678E+03  0.00000000000E+00 0.  1.
          5    1    5    5  502    0 -0.32794858185E+02 -0.52686357241E+01 -0.53084062360E+01  0.33963663267E+02  0.47000000000E+01 0. -1.
         13    1    4    4    0    0 -0.59784358349E+02 -0.11825281318E+03 -0.48643145658E+03  0.50415618540E+03  0.00000000000E+00 0. -1.
        -14    1    4    4    0    0  0.21799977320E+02 -0.11331902806E+03 -0.45670329390E+03  0.47105662058E+03  0.00000000000E+00 0.  1.
         -5    1    3    3    0  504  0.30812648689E+02  0.12326018795E+02 -0.12191983102E+03  0.12644320960E+03  0.47000000000E+01 0.  1.
<mgrwt>
<rscale>  2 0.28139049E+03</rscale>
<asrwt>0</asrwt>
<pdfrwt beam="1">  1       21 0.14162465E-01 0.28161093E+03</pdfrwt>
<pdfrwt beam="2">  1       21 0.20776719E+00 0.28161093E+03</pdfrwt>
<totfact> 0.48637998E+03</totfact>
</mgrwt>
</event>
<event>
12    1  0.2736842E-001  0.2320937E+03  0.7546771E-02  0.1125881E+00
         21   -1    0    0  502  503  0.00000000000E+00  0.00000000000E+00  0.49968430605E+02  0.49968430605E+02  0.00000000000E+00 0.  1.
         21   -1    0    0  503  504 -0.00000000000E+00 -0.00000000000E+00 -0.13879796546E+04  0.13879796546E+04  0.00000000000E+00 0.  1.
         -6    2    1    2    0  504  0.94729467203E+02 -0.11467081223E+03 -0.10143353065E+04  0.10396597510E+04  0.17289654893E+03 0.  0.
        -24    2    3    3    0    0  0.90535801857E+02 -0.14716410253E+03 -0.92291547106E+03  0.94243281512E+03  0.80948377318E+02 0.  0.
          6    2    1    2  502    0 -0.94729467203E+02  0.11467081223E+03 -0.32367591745E+03  0.39828833420E+03  0.17816966769E+03 0.  0.
         24    2    5    5    0    0  0.56389892670E+01  0.17946548702E+02 -0.69354483341E+02  0.10823507692E+03  0.80937696443E+02 0.  0.
          2    1    6    6  501    0 -0.86385121531E+01  0.47850607070E+02 -0.31549757339E+02  0.57962847388E+02  0.00000000000E+00 0. -1.
         -1    1    6    6    0  501  0.14277501420E+02 -0.29904058368E+02 -0.37804726002E+02  0.50272229529E+02  0.00000000000E+00 0.  1.
          5    1    5    5  502    0 -0.10036845647E+03  0.96724263532E+02 -0.25432143411E+03  0.29005325728E+03  0.47000000000E+01 0. -1.
         13    1    4    4    0    0 -0.66615054750E+01 -0.59506724041E+02 -0.29881713233E+03  0.30475745181E+03  0.00000000000E+00 0. -1.
        -14    1    4    4    0    0  0.97197307332E+02 -0.87657378488E+02 -0.62409833873E+03  0.63767536330E+03  0.00000000000E+00 0.  1.
         -5    1    3    3    0  504  0.41936653462E+01  0.32493290296E+02 -0.91419835446E+02  0.97226935857E+02  0.47000000000E+01 0.  1.
<mgrwt>
<rscale>  2 0.23108139E+03</rscale>
<asrwt>0</asrwt>
<pdfrwt beam="1">  1       21 0.76874512E-02 0.23209373E+03</pdfrwt>
<pdfrwt beam="2">  1       21 0.21353532E+00 0.23209373E+03</pdfrwt>
<totfact> 0.13753613E+04</totfact>
</mgrwt>
</event>
<event>
12    1  0.2736842E-001  0.2082985E+03  0.7546771E-02  0.1143176E+00
         21   -1    0    0  502  503  0.00000000000E+00  0.00000000000E+00  0.23537399726E+03  0.23537399726E+03  0.00000000000E+00 0. -1.
         21   -1    0    0  503  504 -0.00000000000E+00 -0.00000000000E+00 -0.26249551347E+03  0.26249551347E+03  0.00000000000E+00 0. -1.
         -6    2    1    2    0  504  0.87062158349E+02  0.73554925673E+02 -0.15033890403E+03  0.25585545492E+03  0.17282963067E+03 0.  0.
        -24    2    3    3    0    0 -0.13851631862E+02  0.56153336809E+02 -0.10724947385E+03  0.14465654601E+03  0.77961540011E+02 0.  0.
          6    2    1    2  502    0 -0.87062158349E+02 -0.73554925673E+02  0.12321738782E+03  0.24201405582E+03  0.17435060093E+03 0.  0.
         24    2    5    5    0    0  0.85810116998E+00 -0.76374236745E+02  0.29731849644E+02  0.11356345676E+03  0.78606077707E+02 0.  0.
          4    1    6    6  501    0  0.30350327056E+01  0.11260795142E+02 -0.11773521065E+02  0.16572046615E+02  0.00000000000E+00 0. -1.
         -3    1    6    6    0  501 -0.21769315356E+01 -0.87635031886E+02  0.41505370709E+02  0.96991410147E+02  0.00000000000E+00 0.  1.
          5    1    5    5  502    0 -0.87920259519E+02  0.28193110720E+01  0.93485538180E+02  0.12845059905E+03  0.47000000000E+01 0. -1.
         13    1    4    4    0    0  0.70251680862E+01 -0.33604673554E+01  0.93040901853E+01  0.12133087887E+02  0.00000000000E+00 0. -1.
        -14    1    4    4    0    0 -0.20876799948E+02  0.59513804165E+02 -0.11655356404E+03  0.13252345812E+03  0.00000000000E+00 0.  1.
         -5    1    3    3    0  504  0.10091379021E+03  0.17401588863E+02 -0.43089430181E+02  0.11119890891E+03  0.47000000000E+01 0.  1.
<mgrwt>
<rscale>  2 0.20797995E+03</rscale>
<asrwt>0</asrwt>
<pdfrwt beam="1">  1       21 0.36211384E-01 0.20829853E+03</pdfrwt>
<pdfrwt beam="2">  1       21 0.40383925E-01 0.20829853E+03</pdfrwt>
<totfact> 0.43112233E+04</totfact>
</mgrwt>
</event>
<event>
12    1  0.2736842E-001  0.1735825E+03  0.7546771E-02  0.1174245E+00
         21   -1    0    0  502  503  0.00000000000E+00  0.00000000000E+00  0.87398596778E+02  0.87398596778E+02  0.00000000000E+00 0. -1.
         21   -1    0    0  503  504 -0.00000000000E+00 -0.00000000000E+00 -0.34656414475E+03  0.34656414475E+03  0.00000000000E+00 0. -1.
         -6    2    1    2    0  504  0.76107082271E+01 -0.22199253209E+01 -0.11120952778E+03  0.20587970986E+03  0.17307814684E+03 0.  0.
        -24    2    3    3    0    0 -0.37430193836E+02 -0.50278989887E+02 -0.39426041125E+02  0.10834348324E+03  0.79087934652E+02 0.  0.
          6    2    1    2  502    0 -0.76107082271E+01  0.22199253209E+01 -0.14795602019E+03  0.22808303168E+03  0.17340136816E+03 0.  0.
         24    2    5    5    0    0 -0.25368016235E+01 -0.57700917628E+02 -0.44047486281E+02  0.10793593280E+03  0.79838294597E+02 0.  0.
          2    1    6    6  501    0  0.36736352944E+02 -0.21193363206E+02 -0.75640827562E+01  0.43080548041E+02  0.00000000000E+00 0. -1.
         -1    1    6    6    0  501 -0.39273154567E+02 -0.36507554422E+02 -0.36483403524E+02  0.64855384759E+02  0.00000000000E+00 0.  1.
          5    1    5    5  502    0 -0.50739066037E+01  0.59920842949E+02 -0.10390853391E+03  0.12014709888E+03  0.47000000000E+01 0. -1.
         11    1    4    4    0    0 -0.34765646935E+02  0.11161525848E+02 -0.24732545101E+01  0.36597088053E+02  0.00000000000E+00 0. -1.
        -12    1    4    4    0    0 -0.26645469006E+01 -0.61440515735E+02 -0.36952786615E+02  0.71746395189E+02  0.00000000000E+00 0.  1.
         -5    1    3    3    0  504  0.45040902063E+02  0.48059064566E+02 -0.71783486657E+02  0.97536226615E+02  0.47000000000E+01 0.  1.
<mgrwt>
<rscale>  2 0.17350173E+03</rscale>
<asrwt>0</asrwt>
<pdfrwt beam="1">  1       21 0.13445938E-01 0.17358250E+03</pdfrwt>
<pdfrwt beam="2">  1       21 0.53317560E-01 0.17358250E+03</pdfrwt>
<totfact> 0.16028911E+05</totfact>
</mgrwt>
</event>
<event>
12    1  0.2736842E-001  0.2494783E+03  0.7546771E-02  0.1113659E+00
         21   -1    0    0  502  503  0.00000000000E+00  0.00000000000E+00  0.77968439645E+03  0.77968439645E+03  0.00000000000E+00 0.  1.
         21   -1    0    0  503  504 -0.00000000000E+00 -0.00000000000E+00 -0.11483226617E+03  0.11483226617E+03  0.00000000000E+00 0.  1.
         -6    2    1    2    0  504  0.16360544770E+03 -0.74577541752E+02  0.85240679502E+02  0.26349457951E+03  0.17272772717E+03 0.  0.
        -24    2    3    3    0    0  0.16312537459E+03 -0.48958010495E+02  0.11751618191E+03  0.22201700836E+03  0.80465671968E+02 0.  0.
          6    2    1    2  502    0 -0.16360544770E+03  0.74577541752E+02  0.57961145078E+03  0.63102208311E+03  0.17294763150E+03 0.  0.
         24    2    5    5    0    0 -0.68986830922E+02 -0.25068906756E+02  0.19075119336E+03  0.21857028332E+03  0.77455264882E+02 0.  0.
          4    1    6    6  501    0 -0.38320887854E+02  0.40437124815E+01  0.21518145327E+02  0.44134710092E+02  0.00000000000E+00 0. -1.
         -3    1    6    6    0  501 -0.30665943069E+02 -0.29112619238E+02  0.16923304803E+03  0.17443557323E+03  0.00000000000E+00 0.  1.
          5    1    5    5  502    0 -0.94618616782E+02  0.99646448508E+02  0.38886025743E+03  0.41245179979E+03  0.47000000000E+01 0. -1.
         11    1    4    4    0    0  0.73746161618E+01 -0.29933709972E+02  0.26290819579E+02  0.40516899566E+02  0.00000000000E+00 0. -1.
        -12    1    4    4    0    0  0.15575075843E+03 -0.19024300522E+02  0.91225362332E+02  0.18150010880E+03  0.00000000000E+00 0.  1.
         -5    1    3    3    0  504  0.48007311345E+00 -0.25619531257E+02 -0.32275502409E+02  0.41477571141E+02  0.47000000000E+01 0.  1.
<mgrwt>
<rscale>  2 0.24944022E+03</rscale>
<asrwt>0</asrwt>
<pdfrwt beam="1">  1       21 0.11995144E+00 0.24947833E+03</pdfrwt>
<pdfrwt beam="2">  1       21 0.17666503E-01 0.24947833E+03</pdfrwt>
<totfact> 0.14838986E+04</totfact>
</mgrwt>
</event>
<event>
12    1  0.2736842E-001  0.2769194E+03  0.7546771E-02  0.1097711E+00
         21   -1    0    0  502  503  0.00000000000E+00  0.00000000000E+00  0.49194374928E+03  0.49194374928E+03  0.00000000000E+00 0.  1.
         21   -1    0    0  503  504 -0.00000000000E+00 -0.00000000000E+00 -0.31161676462E+03  0.31161676462E+03  0.00000000000E+00 0.  1.
         -6    2    1    2    0  504 -0.17767936061E+03  0.12219101635E+03 -0.19526312881E+03  0.33692118764E+03  0.16996351829E+03 0.  0.
        -24    2    3    3    0    0 -0.32310556829E+02  0.70872454394E+02 -0.42205198313E+02  0.11963220035E+03  0.80397187269E+02 0.  0.
          6    2    1    2  502    0  0.17767936061E+03 -0.12219101635E+03  0.37559011347E+03  0.46663932626E+03  0.17373464771E+03 0.  0.
         24    2    5    5    0    0  0.11278217031E+03 -0.11312193183E+03  0.35599802788E+03  0.39808399518E+03  0.78866228264E+02 0.  0.
          4    1    6    6  501    0  0.10540907225E+03 -0.11374928250E+03  0.26693344824E+03  0.30871254845E+03  0.00000000000E+00 0. -1.
         -3    1    6    6    0  501  0.73730980675E+01  0.62735066842E+00  0.89064579638E+02  0.89371446727E+02  0.00000000000E+00 0.  1.
          5    1    5    5  502    0  0.64897190294E+02 -0.90690845226E+01  0.19592085587E+02  0.68555331082E+02  0.47000000000E+01 0. -1.
         11    1    4    4    0    0 -0.52640376566E+02  0.73353660962E+02 -0.27374906201E+02  0.94345928959E+02  0.00000000000E+00 0. -1.
        -12    1    4    4    0    0  0.20329819737E+02 -0.24812065685E+01 -0.14830292112E+02  0.25286271388E+02  0.00000000000E+00 0.  1.
         -5    1    3    3    0  504 -0.14536880378E+03  0.51318561957E+02 -0.15305793050E+03  0.21728898730E+03  0.47000000000E+01 0.  1.
<mgrwt>
<rscale>  2 0.27632991E+03</rscale>
<asrwt>0</asrwt>
<pdfrwt beam="1">  1       21 0.75683653E-01 0.27691935E+03</pdfrwt>
<pdfrwt beam="2">  1       21 0.47941041E-01 0.27691935E+03</pdfrwt>
<totfact> 0.61372832E+03</totfact>
</mgrwt>
</event>
<event>
12    1  0.2736842E-001  0.2580928E+03  0.7546771E-02  0.1109487E+00
         21   -1    0    0  502  503  0.00000000000E+00  0.00000000000E+00  0.19477385557E+03  0.19477385557E+03  0.00000000000E+00 0.  1.
         21   -1    0    0  503  504 -0.00000000000E+00 -0.00000000000E+00 -0.56114945747E+03  0.56114945747E+03  0.00000000000E+00 0. -1.
         -6    2    1    2    0  504 -0.15032140013E+03  0.12020703111E+03 -0.42314578883E+03  0.49166065152E+03  0.16009866951E+03 0.  0.
        -24    2    3    3    0    0 -0.23204897565E+02  0.77351045899E+02 -0.23459452769E+03  0.26021107003E+03  0.78444610850E+02 0.  0.
          6    2    1    2  502    0  0.15032140013E+03 -0.12020703111E+03  0.56770186935E+02  0.26426266152E+03  0.17194663847E+03 0.  0.
         24    2    5    5    0    0  0.10043106794E+03 -0.50983092927E+02  0.97793141808E+02  0.16946829623E+03  0.80438359447E+02 0.  0.
          2    1    6    6  501    0  0.82867160875E+01 -0.45281642045E+02  0.34717708423E+02  0.57657749245E+02  0.00000000000E+00 0. -1.
         -1    1    6    6    0  501  0.92144351853E+02 -0.57014508817E+01  0.63075433385E+02  0.11181054699E+03  0.00000000000E+00 0.  1.
          5    1    5    5  502    0  0.49890332191E+02 -0.69223938187E+02 -0.41022954873E+02  0.94794365290E+02  0.47000000000E+01 0. -1.
         13    1    4    4    0    0 -0.48238694003E+02  0.57863549594E+02 -0.12338435192E+03  0.14456438105E+03  0.00000000000E+00 0. -1.
        -14    1    4    4    0    0  0.25033796438E+02  0.19487496305E+02 -0.11121017577E+03  0.11564668898E+03  0.00000000000E+00 0.  1.
         -5    1    3    3    0  504 -0.12711650257E+03  0.42855985215E+02 -0.18855126114E+03  0.23144958148E+03  0.47000000000E+01 0.  1.
<mgrwt>
<rscale>  2 0.25613633E+03</rscale>
<asrwt>0</asrwt>
<pdfrwt beam="1">  1       21 0.29965209E-01 0.25809281E+03</pdfrwt>
<pdfrwt beam="2">  1       21 0.86330685E-01 0.25809281E+03</pdfrwt>
<totfact> 0.11873905E+04</totfact>
</mgrwt>
</event>
<event>
12    1  0.2736842E-001  0.2019125E+03  0.7546771E-02  0.1148425E+00
         21   -1    0    0  502  503  0.00000000000E+00  0.00000000000E+00  0.68630108778E+03  0.68630108778E+03  0.00000000000E+00 0. -1.
         21   -1    0    0  503  504 -0.00000000000E+00 -0.00000000000E+00 -0.63595606908E+02  0.63595606908E+02  0.00000000000E+00 0. -1.
         -6    2    1    2    0  504 -0.58166470041E+02  0.85793394056E+02  0.41317861793E+03  0.45987524325E+03  0.17327672762E+03 0.  0.
        -24    2    3    3    0    0 -0.13850437973E+02  0.85922940632E+02  0.14189252175E+03  0.18495313889E+03  0.80620031626E+02 0.  0.
          6    2    1    2  502    0  0.58166470041E+02 -0.85793394056E+02  0.20952686294E+03  0.29002145144E+03  0.17165981271E+03 0.  0.
         24    2    5    5    0    0 -0.18023084733E+02 -0.20554887885E+01  0.12899290334E+03  0.15100816544E+03  0.76388744592E+02 0.  0.
          4    1    6    6  501    0 -0.40088315158E+02 -0.13522108199E+02  0.38644811943E+02  0.57300452987E+02  0.00000000000E+00 0. -1.
         -3    1    6    6    0  501  0.22065230425E+02  0.11466619410E+02  0.90348091396E+02  0.93707712454E+02  0.00000000000E+00 0.  1.
          5    1    5    5  502    0  0.76189554774E+02 -0.83737905267E+02  0.80533959601E+02  0.13901328600E+03  0.47000000000E+01 0. -1.
         13    1    4    4    0    0 -0.44875486252E+02  0.50021703780E+02  0.10579435771E+03  0.12533326071E+03  0.00000000000E+00 0. -1.
        -14    1    4    4    0    0  0.31025048280E+02  0.35901236853E+02  0.36098164037E+02  0.59619878188E+02  0.00000000000E+00 0.  1.
         -5    1    3    3    0  504 -0.44316032069E+02 -0.12954657668E+00  0.27128609618E+03  0.27492210435E+03  0.47000000000E+01 0.  1.
<mgrwt>
<rscale>  2 0.20156516E+03</rscale>
<asrwt>0</asrwt>
<pdfrwt beam="1">  1       21 0.10558478E+00 0.20191253E+03</pdfrwt>
<pdfrwt beam="2">  1       21 0.97839400E-02 0.20191253E+03</pdfrwt>
<totfact> 0.60520781E+04</totfact>
</mgrwt>
</event>
<event>
12    1  0.2736842E-001  0.3205784E+03  0.7546771E-02  0.1076623E+00
         21   -1    0    0  502  503  0.00000000000E+00  0.00000000000E+00  0.59854218783E+03  0.59854218783E+03  0.00000000000E+00 0. -1.
         21   -1    0    0  503  504 -0.00000000000E+00 -0.00000000000E+00 -0.18530788836E+03  0.18530788836E+03  0.00000000000E+00 0.  1.
         -6    2    1    2    0  504  0.25774120751E+03  0.19706763266E+01  0.83459909929E+02  0.33126431851E+03  0.19062024693E+03 0.  0.
        -24    2    3    3    0    0  0.28091663579E+03 -0.59277261439E+01  0.87434283363E+02  0.30601811321E+03  0.83982364260E+02 0.  0.
          6    2    1    2  502    0 -0.25774120751E+03 -0.19706763266E+01  0.32977438955E+03  0.45258575768E+03  0.17218683586E+03 0.  0.
         24    2    5    5    0    0 -0.79211424676E+02  0.25517813786E+02  0.66080631961E+02  0.13292189010E+03  0.79849673315E+02 0.  0.
          4    1    6    6  501    0 -0.17391792739E+02 -0.11826581988E+02  0.56223569040E+02  0.60028594951E+02  0.00000000000E+00 0. -1.
         -3    1    6    6    0  501 -0.61819631937E+02  0.37344395775E+02  0.98570629209E+01  0.72893295151E+02  0.00000000000E+00 0.  1.
          5    1    5    5  502    0 -0.17852978283E+03 -0.27488490113E+02  0.26369375759E+03  0.31966386758E+03  0.47000000000E+01 0. -1.
         13    1    4    4    0    0  0.12958413283E+03 -0.22364006122E+01  0.84300875383E+02  0.15460817106E+03  0.00000000000E+00 0. -1.
        -14    1    4    4    0    0  0.15133250296E+03 -0.36913255317E+01  0.31334079802E+01  0.15140994215E+03  0.00000000000E+00 0.  1.
         -5    1    3    3    0  504 -0.23175428282E+02  0.78984024705E+01 -0.39743734346E+01  0.25246205296E+02  0.47000000000E+01 0.  1.
<mgrwt>
<rscale>  2 0.31789326E+03</rscale>
<asrwt>0</asrwt>
<pdfrwt beam="1">  1       21 0.92083413E-01 0.32057837E+03</pdfrwt>
<pdfrwt beam="2">  1       21 0.28508906E-01 0.32057837E+03</pdfrwt>
<totfact> 0.10936627E+04</totfact>
</mgrwt>
</event>
<event>
12    1  0.2736842E-001  0.2721579E+03  0.7546771E-02  0.1100125E+00
         21   -1    0    0  502  503  0.00000000000E+00  0.00000000000E+00  0.35047058363E+03  0.35047058363E+03  0.00000000000E+00 0.  1.
         21   -1    0    0  503  504 -0.00000000000E+00 -0.00000000000E+00 -0.24724759722E+03  0.24724759722E+03  0.00000000000E+00 0. -1.
         -6    2    1    2    0  504  0.47759718476E+02 -0.20307589337E+03 -0.62874041465E+02  0.27932608514E+03  0.17478303000E+03 0.  0.
        -24    2    3    3    0    0 -0.32746121943E+02 -0.57137304598E+02 -0.25353350022E+02  0.10841922653E+03  0.82310122376E+02 0.  0.
          6    2    1    2  502    0 -0.47759718476E+02  0.20307589337E+03  0.16609702788E+03  0.31839209571E+03  0.17396693584E+03 0.  0.
         24    2    5    5    0    0  0.76488537869E+01  0.39940258270E+02  0.99049548618E+02  0.13345751324E+03  0.79664079506E+02 0.  0.
          4    1    6    6  501    0  0.20937958066E+02 -0.66643027538E+01  0.77256893194E+02  0.80320847638E+02  0.00000000000E+00 0. -1.
         -3    1    6    6    0  501 -0.13289104280E+02  0.46604561024E+02  0.21792655424E+02  0.53136665601E+02  0.00000000000E+00 0.  1.
          5    1    5    5  502    0 -0.55408572263E+02  0.16313563510E+03  0.67047479257E+02  0.18493458247E+03  0.47000000000E+01 0. -1.
         11    1    4    4    0    0  0.11313482508E+02 -0.23557453562E+02 -0.42966103657E+02  0.50289507536E+02  0.00000000000E+00 0. -1.
        -12    1    4    4    0    0 -0.44059604451E+02 -0.33579851036E+02  0.17612753635E+02  0.58129718996E+02  0.00000000000E+00 0.  1.
         -5    1    3    3    0  504  0.80505840419E+02 -0.14593858877E+03 -0.37520691443E+02  0.17090685861E+03  0.47000000000E+01 0.  1.
<mgrwt>
<rscale>  2 0.27202695E+03</rscale>
<asrwt>0</asrwt>
<pdfrwt beam="1">  1       21 0.53918551E-01 0.27215789E+03</pdfrwt>
<pdfrwt beam="2">  1       21 0.38038092E-01 0.27215789E+03</pdfrwt>
<totfact> 0.20808247E+04</totfact>
</mgrwt>
</event>
<event>
12    1  0.2736842E-001  0.1850154E+03  0.7546771E-02  0.1165182E+00
         21   -1    0    0  502  503  0.00000000000E+00  0.00000000000E+00  0.15903027271E+03  0.15903027271E+03  0.00000000000E+00 0.  1.
         21   -1    0    0  503  504 -0.00000000000E+00 -0.00000000000E+00 -0.40962145205E+03  0.40962145205E+03  0.00000000000E+00 0.  1.
         -6    2    1    2    0  504  0.30868658838E+02  0.62518896184E+02  0.74096371406E+02  0.19930121823E+03  0.17137449301E+03 0.  0.
        -24    2    3    3    0    0  0.12510813088E+02 -0.29663590701E+02  0.14981445838E+02  0.88164879379E+02  0.80697913103E+02 0.  0.
          6    2    1    2  502    0 -0.30868658838E+02 -0.62518896184E+02 -0.32468755075E+03  0.36935050653E+03  0.16166726504E+03 0.  0.
         24    2    5    5    0    0  0.28051148246E+02 -0.39012383591E+02 -0.26776404700E+03  0.28398965438E+03  0.81508931641E+02 0.  0.
          2    1    6    6  501    0  0.27815010845E+02 -0.12851379449E+02 -0.25111902892E+03  0.25298142119E+03  0.00000000000E+00 0. -1.
         -1    1    6    6    0  501  0.23613740098E+00 -0.26161004142E+02 -0.16645018080E+02  0.31008233188E+02  0.00000000000E+00 0.  1.
          5    1    5    5  502    0 -0.58919807085E+02 -0.23506512594E+02 -0.56923503749E+02  0.85360852153E+02  0.47000000000E+01 0. -1.
         11    1    4    4    0    0  0.36037491117E+02 -0.20853443895E+02  0.36283274314E+02  0.55227193331E+02  0.00000000000E+00 0. -1.
        -12    1    4    4    0    0 -0.23526678029E+02 -0.88101468054E+01 -0.21301828476E+02  0.32937686048E+02  0.00000000000E+00 0.  1.
         -5    1    3    3    0  504  0.18357845751E+02  0.92182486885E+02  0.59114925568E+02  0.11113633885E+03  0.47000000000E+01 0.  1.
<mgrwt>
<rscale>  2 0.18273523E+03</rscale>
<asrwt>0</asrwt>
<pdfrwt beam="1">  1       21 0.24466196E-01 0.18501541E+03</pdfrwt>
<pdfrwt beam="2">  1       21 0.63018685E-01 0.18501541E+03</pdfrwt>
<totfact> 0.36934529E+04</totfact>
</mgrwt>
</event>
<event>
12    1  0.2736842E-001  0.2326687E+03  0.7546771E-02  0.1125885E+00
         21   -1    0    0  502  503  0.00000000000E+00  0.00000000000E+00  0.11104487803E+04  0.11104487803E+04  0.00000000000E+00 0. -1.
         21   -1    0    0  503  504 -0.00000000000E+00 -0.00000000000E+00 -0.72303431996E+02  0.72303431996E+02  0.00000000000E+00 0. -1.
         -6    2    1    2    0  504  0.10836685504E+03  0.99306644728E+02  0.16760816236E+03  0.28165860041E+03  0.17214495675E+03 0.  0.
        -24    2    3    3    0    0  0.70777574690E+02  0.11760916648E+03  0.67244751988E+02  0.17283378503E+03  0.80673908183E+02 0.  0.
          6    2    1    2  502    0 -0.10836685504E+03 -0.99306644728E+02  0.87053718590E+03  0.90109361184E+03  0.18035941980E+03 0.  0.
         24    2    5    5    0    0 -0.14318044469E+03 -0.52833986320E+02  0.65729577853E+03  0.68003777767E+03  0.84389387578E+02 0.  0.
          4    1    6    6  501    0 -0.87285417193E+02 -0.59173033760E+02  0.53677349376E+03  0.54703379748E+03  0.00000000000E+00 0. -1.
         -3    1    6    6    0  501 -0.55895027498E+02  0.63390474402E+01  0.12052228476E+03  0.13300398019E+03  0.00000000000E+00 0.  1.
          5    1    5    5  502    0  0.34813589647E+02 -0.46472658409E+02  0.21324140737E+03  0.22105583417E+03  0.47000000000E+01 0. -1.
         13    1    4    4    0    0  0.11439304448E+02 -0.25628813886E+01 -0.12292339536E+02  0.16986101923E+02  0.00000000000E+00 0. -1.
        -14    1    4    4    0    0  0.59338270242E+02  0.12017204786E+03  0.79537091525E+02  0.15584768311E+03  0.00000000000E+00 0.  1.
         -5    1    3    3    0  504  0.37589280354E+02 -0.18302521747E+02  0.10036341037E+03  0.10882481537E+03  0.47000000000E+01 0.  1.
<mgrwt>
<rscale>  2 0.23107532E+03</rscale>
<asrwt>0</asrwt>
<pdfrwt beam="1">  1       21 0.17083826E+00 0.23266866E+03</pdfrwt>
<pdfrwt beam="2">  1       21 0.11123606E-01 0.23266866E+03</pdfrwt>
<totfact> 0.13748364E+04</totfact>
</mgrwt>
</event>
<event>
12    1  0.2736842E-001  0.2104727E+03  0.7546771E-02  0.1141315E+00
         21   -1    0    0  502  503  0.00000000000E+00  0.00000000000E+00  0.15974718083E+04  0.15974718083E+04  0.00000000000E+00 0.  1.
         21   -1    0    0  503  504 -0.00000000000E+00 -0.00000000000E+00 -0.30913861835E+03  0.30913861835E+03  0.00000000000E+00 0. -1.
         -6    2    1    2    0  504  0.36165487777E+02  0.11342186692E+03 -0.26542397850E+03  0.33874570515E+03  0.17356930027E+03 0.  0.
        -24    2    3    3    0    0  0.28320182606E+02 -0.85187678584E+01 -0.13477048385E+03  0.15979461439E+03  0.80601695522E+02 0.  0.
          6    2    1    2  502    0 -0.36165487777E+02 -0.11342186692E+03  0.15537571685E+04  0.15678647215E+04  0.17281777699E+03 0.  0.
         24    2    5    5    0    0  0.13564336481E+02 -0.12038061176E+03  0.13544605855E+04  0.13622857889E+04  0.81139448510E+02 0.  0.
          2    1    6    6  501    0 -0.20183799345E+02 -0.56728571858E+02  0.91315508378E+03  0.91513808994E+03  0.00000000000E+00 0. -1.
         -1    1    6    6    0  501  0.33748135827E+02 -0.63652039902E+02  0.44130550168E+03  0.44714769894E+03  0.00000000000E+00 0.  1.
          5    1    5    5  502    0 -0.49729824259E+02  0.69587448408E+01  0.19929658302E+03  0.20557893266E+03  0.47000000000E+01 0. -1.
         11    1    4    4    0    0 -0.88124693340E+01  0.29546246730E+02 -0.34311507174E+02  0.46129381485E+02  0.00000000000E+00 0. -1.
        -12    1    4    4    0    0  0.37132651940E+02 -0.38065014589E+02 -0.10045897668E+03  0.11366523290E+03  0.00000000000E+00 0.  1.
         -5    1    3    3    0  504  0.78453051715E+01  0.12194063478E+03 -0.13065349465E+03  0.17895109077E+03  0.47000000000E+01 0.  1.
<mgrwt>
<rscale>  2 0.21031771E+03</rscale>
<asrwt>0</asrwt>
<pdfrwt beam="1">  1       21 0.24576489E+00 0.21047272E+03</pdfrwt>
<pdfrwt beam="2">  1       21 0.47559788E-01 0.21047272E+03</pdfrwt>
<totfact> 0.29076457E+02</totfact>
</mgrwt>
</event>
<event>
12    1  0.2736842E-001  0.2072633E+03  0.7546771E-02  0.1143915E+00
         21   -1    0    0  502  503  0.00000000000E+00  0.00000000000E+00  0.43451681950E+02  0.43451681950E+02  0.00000000000E+00 0.  1.
         21   -1    0    0  503  504 -0.00000000000E+00 -0.00000000000E+00 -0.10903992466E+04  0.10903992466E+04  0.00000000000E+00 0.  1.
         -6    2    1    2    0  504 -0.37442761387E+01 -0.11462185906E+03 -0.69898963483E+03  0.72884129232E+03  0.17167099232E+03 0.  0.
        -24    2    3    3    0    0 -0.52374854079E+02 -0.42679289192E+02 -0.24976460426E+03  0.27127612258E+03  0.81509079687E+02 0.  0.
          6    2    1    2  502    0  0.37442761387E+01  0.11462185906E+03 -0.34795792978E+03  0.40500963620E+03  0.17264383666E+03 0.  0.
         24    2    5    5    0    0  0.32970178648E+02  0.96234515648E+02 -0.12548921172E+03  0.17982822424E+03  0.79009703789E+02 0.  0.
          4    1    6    6  501    0  0.34059253907E+01  0.33384549887E+02  0.30785136339E+01  0.33698749904E+02  0.00000000000E+00 0. -1.
         -3    1    6    6    0  501  0.29564253257E+02  0.62849965761E+02 -0.12856772535E+03  0.14612947433E+03  0.00000000000E+00 0.  1.
          5    1    5    5  502    0 -0.29225902509E+02  0.18387343415E+02 -0.22246871806E+03  0.22518141196E+03  0.47000000000E+01 0. -1.
         13    1    4    4    0    0 -0.35539152073E+02 -0.67213234484E+02 -0.18428710310E+03  0.19935492617E+03  0.00000000000E+00 0. -1.
        -14    1    4    4    0    0 -0.16835702005E+02  0.24533945293E+02 -0.65477501163E+02  0.71921196404E+02  0.00000000000E+00 0.  1.
         -5    1    3    3    0  504  0.48630577940E+02 -0.71942569871E+02 -0.44922503057E+03  0.45756516974E+03  0.47000000000E+01 0.  1.
<mgrwt>
<rscale>  2 0.20706061E+03</rscale>
<asrwt>0</asrwt>
<pdfrwt beam="1">  1       21 0.66848746E-02 0.20726332E+03</pdfrwt>
<pdfrwt beam="2">  1       21 0.16775372E+00 0.20726332E+03</pdfrwt>
<totfact> 0.35914507E+04</totfact>
</mgrwt>
</event>
<event>
12    1  0.2736842E-001  0.2647652E+03  0.7546771E-02  0.1104883E+00
         21   -1    0    0  502  503  0.00000000000E+00  0.00000000000E+00  0.76151595521E+02  0.76151595521E+02  0.00000000000E+00 0. -1.
         21   -1    0    0  503  504 -0.00000000000E+00 -0.00000000000E+00 -0.11410347764E+04  0.11410347764E+04  0.00000000000E+00 0.  1.
         -6    2    1    2    0  504 -0.18384143960E+03  0.80115795853E+02 -0.80483905373E+03  0.84607509628E+03  0.16691599824E+03 0.  0.
        -24    2    3    3    0    0 -0.16422176939E+03  0.65681249697E+01 -0.51358287311E+03  0.54499961720E+03  0.79027118066E+02 0.  0.
          6    2    1    2  502    0  0.18384143960E+03 -0.80115795853E+02 -0.26004412717E+03  0.37111127566E+03  0.17287109414E+03 0.  0.
         24    2    5    5    0    0  0.21647818069E+02 -0.59583274225E+02 -0.10272423152E+03  0.14417517259E+03  0.78837922704E+02 0.  0.
          2    1    6    6  501    0  0.33025850310E+02 -0.72126888796E+02 -0.64057956440E+02  0.10196281999E+03  0.00000000000E+00 0. -1.
         -1    1    6    6    0  501 -0.11378032241E+02  0.12543614571E+02 -0.38666275077E+02  0.42212352605E+02  0.00000000000E+00 0.  1.
          5    1    5    5  502    0  0.16219362153E+03 -0.20532521628E+02 -0.15731989565E+03  0.22693610307E+03  0.47000000000E+01 0. -1.
         13    1    4    4    0    0 -0.16307989793E+03  0.22315834107E+02 -0.48719270098E+03  0.51424680597E+03  0.00000000000E+00 0. -1.
        -14    1    4    4    0    0 -0.11418714505E+01 -0.15747709137E+02 -0.26390172135E+02  0.30752811234E+02  0.00000000000E+00 0.  1.
         -5    1    3    3    0  504 -0.19619670217E+02  0.73547670883E+02 -0.29125618062E+03  0.30107547908E+03  0.47000000000E+01 0.  1.
<mgrwt>
<rscale>  2 0.26379764E+03</rscale>
<asrwt>0</asrwt>
<pdfrwt beam="1">  1       21 0.11715629E-01 0.26476524E+03</pdfrwt>
<pdfrwt beam="2">  1       21 0.17554382E+00 0.26476524E+03</pdfrwt>
<totfact> 0.11383691E+04</totfact>
</mgrwt>
</event>
<event>
12    1  0.2736842E-001  0.1778836E+03  0.7546771E-02  0.1170262E+00
         21   -1    0    0  502  503  0.00000000000E+00  0.00000000000E+00  0.35521513065E+03  0.35521513065E+03  0.00000000000E+00 0.  1.
         21   -1    0    0  503  504 -0.00000000000E+00 -0.00000000000E+00 -0.98196267605E+02  0.98196267605E+02  0.00000000000E+00 0.  1.
         -6    2    1    2    0  504 -0.39370176415E+02 -0.22218664543E+01  0.20107197992E+03  0.26846321976E+03  0.17345780978E+03 0.  0.
        -24    2    3    3    0    0 -0.12612022310E+02 -0.24894420215E+02  0.21441090251E+03  0.23064708086E+03  0.80294741616E+02 0.  0.
          6    2    1    2  502    0  0.39370176415E+02  0.22218664543E+01  0.55946883134E+02  0.18494817850E+03  0.17181626092E+03 0.  0.
         24    2    5    5    0    0  0.52693383941E+02 -0.40218164091E+02  0.82349786106E+02  0.13300717989E+03  0.80717589140E+02 0.  0.
          4    1    6    6  501    0  0.46625199874E+02  0.13406072303E+02  0.51895662716E+02  0.71040775943E+02  0.00000000000E+00 0. -1.
         -3    1    6    6    0  501  0.60681840670E+01 -0.53624236393E+02  0.30454123390E+02  0.61966403947E+02  0.00000000000E+00 0.  1.
          5    1    5    5  502    0 -0.13323207526E+02  0.42440030545E+02 -0.26402902972E+02  0.51940998612E+02  0.47000000000E+01 0. -1.
         11    1    4    4    0    0 -0.42985877314E+02 -0.62469028410E+01  0.74221072770E+02  0.85997541167E+02  0.00000000000E+00 0. -1.
        -12    1    4    4    0    0  0.30373855004E+02 -0.18647517374E+02  0.14018982974E+03  0.14464953969E+03  0.00000000000E+00 0.  1.
         -5    1    3    3    0  504 -0.26758154105E+02  0.22672553761E+02 -0.13338922592E+02  0.37816138897E+02  0.47000000000E+01 0.  1.
<mgrwt>
<rscale>  2 0.17748212E+03</rscale>
<asrwt>0</asrwt>
<pdfrwt beam="1">  1       21 0.54648481E-01 0.17788356E+03</pdfrwt>
<pdfrwt beam="2">  1       21 0.15107118E-01 0.17788356E+03</pdfrwt>
<totfact> 0.12307621E+05</totfact>
</mgrwt>
</event>
<event>
12    1  0.2736842E-001  0.2009892E+03  0.7546771E-02  0.1149541E+00
         21   -1    0    0  502  503  0.00000000000E+00  0.00000000000E+00  0.79669960429E+02  0.79669960429E+02  0.00000000000E+00 0.  1.
         21   -1    0    0  503  504 -0.00000000000E+00 -0.00000000000E+00 -0.68620038190E+03  0.68620038190E+03  0.00000000000E+00 0. -1.
         -6    2    1    2    0  504  0.30205913229E+02 -0.90248279250E+02 -0.50134061386E+03  0.53901894531E+03  0.17361412155E+03 0.  0.
        -24    2    3    3    0    0  0.37221190639E+01  0.68567355635E+01 -0.32180682567E+03  0.33314217063E+03  0.85809112612E+02 0.  0.
          6    2    1    2  502    0 -0.30205913229E+02  0.90248279250E+02 -0.10518980761E+03  0.22685139701E+03  0.17702969130E+03 0.  0.
         24    2    5    5    0    0  0.40141153690E+02  0.67798858391E+02 -0.33907748648E+02  0.12410944720E+03  0.89696276667E+02 0.  0.
          2    1    6    6  501    0  0.63317986485E+02  0.62575854618E+02 -0.42756014427E+02  0.98757185882E+02  0.00000000000E+00 0. -1.
         -1    1    6    6    0  501 -0.23176832794E+02  0.52230037732E+01  0.88482657789E+01  0.25352261321E+02  0.00000000000E+00 0.  1.
          5    1    5    5  502    0 -0.70347066919E+02  0.22449420859E+02 -0.71282058963E+02  0.10274194981E+03  0.47000000000E+01 0. -1.
         13    1    4    4    0    0 -0.30461030887E+02 -0.24626692200E+02 -0.12914695881E+03  0.13495660540E+03  0.00000000000E+00 0. -1.
        -14    1    4    4    0    0  0.34183149951E+02  0.31483427764E+02 -0.19265986687E+03  0.19818556523E+03  0.00000000000E+00 0.  1.
         -5    1    3    3    0  504  0.26483794165E+02 -0.97105014813E+02 -0.17953378818E+03  0.20587677469E+03  0.47000000000E+01 0.  1.
<mgrwt>
<rscale>  2 0.20023452E+03</rscale>
<asrwt>0</asrwt>
<pdfrwt beam="1">  1       21 0.12256917E-01 0.20098921E+03</pdfrwt>
<pdfrwt beam="2">  1       21 0.10556929E+00 0.20098921E+03</pdfrwt>
<totfact> 0.40561293E+04</totfact>
</mgrwt>
</event>
<event>
12    1  0.2736842E-001  0.1771993E+03  0.7546771E-02  0.1170610E+00
         21   -1    0    0  502  503  0.00000000000E+00  0.00000000000E+00  0.92721056587E+03  0.92721056587E+03  0.00000000000E+00 0. -1.
         21   -1    0    0  503  504 -0.00000000000E+00 -0.00000000000E+00 -0.39477526577E+02  0.39477526577E+02  0.00000000000E+00 0. -1.
         -6    2    1    2    0  504 -0.26287103575E+01 -0.36681746579E+02  0.26104901387E+03  0.31550938427E+03  0.17334106055E+03 0.  0.
        -24    2    3    3    0    0 -0.14308460668E+02  0.64729413162E+01  0.41606434367E+02  0.91509653578E+02  0.79976811022E+02 0.  0.
          6    2    1    2  502    0  0.26287103575E+01  0.36681746579E+02  0.62668402542E+03  0.65117870817E+03  0.17305600713E+03 0.  0.
         24    2    5    5    0    0  0.75246262858E+01  0.15392516628E+02  0.12810756255E+03  0.15210177960E+03  0.80186371689E+02 0.  0.
          2    1    6    6  501    0  0.22834789702E+02  0.22728849325E+02  0.11415201523E+02  0.34180916287E+02  0.00000000000E+00 0. -1.
         -1    1    6    6    0  501 -0.15310163417E+02 -0.73363326969E+01  0.11669236103E+03  0.11792086331E+03  0.00000000000E+00 0.  1.
          5    1    5    5  502    0 -0.48959159283E+01  0.21289229951E+02  0.49857646287E+03  0.49907692857E+03  0.47000000000E+01 0. -1.
         11    1    4    4    0    0  0.79554162676E+01  0.40259171562E+02  0.20482352385E+02  0.45865197068E+02  0.00000000000E+00 0. -1.
        -12    1    4    4    0    0 -0.22263876936E+02 -0.33786230246E+02  0.21124081982E+02  0.45644456509E+02  0.00000000000E+00 0.  1.
         -5    1    3    3    0  504  0.11679750310E+02 -0.43154687895E+02  0.21944257950E+03  0.22399973070E+03  0.47000000000E+01 0.  1.
<mgrwt>
<rscale>  2 0.17712953E+03</rscale>
<asrwt>0</asrwt>
<pdfrwt beam="1">  1       21 0.14264776E+00 0.17719928E+03</pdfrwt>
<pdfrwt beam="2">  1       21 0.60734663E-02 0.17719928E+03</pdfrwt>
<totfact> 0.66356223E+04</totfact>
</mgrwt>
</event>
<event>
12    1  0.2736842E-001  0.1911389E+03  0.7546771E-02  0.1157552E+00
         21   -1    0    0  502  503  0.00000000000E+00  0.00000000000E+00  0.34266173294E+03  0.34266173294E+03  0.00000000000E+00 0.  1.
         21   -1    0    0  503  504 -0.00000000000E+00 -0.00000000000E+00 -0.11497827238E+03  0.11497827238E+03  0.00000000000E+00 0.  1.
         -6    2    1    2    0  504  0.29020406352E+02  0.75358935713E+02  0.50967733510E+02  0.19732762491E+03  0.17268273949E+03 0.  0.
        -24    2    3    3    0    0 -0.15316155527E+02  0.27358929962E+01  0.71789641503E+02  0.10960374615E+03  0.81345920683E+02 0.  0.
          6    2    1    2  502    0 -0.29020406352E+02 -0.75358935713E+02  0.17671572705E+03  0.26031238041E+03  0.17324241406E+03 0.  0.
         24    2    5    5    0    0 -0.88031595577E+02 -0.45173737943E+02  0.12716597663E+03  0.17742248727E+03  0.74278697867E+02 0.  0.
          4    1    6    6  501    0 -0.72875549278E+02 -0.17409807189E+02  0.40515216532E+02  0.85178810978E+02  0.00000000000E+00 0. -1.
         -3    1    6    6    0  501 -0.15156046299E+02 -0.27763930754E+02  0.86650760094E+02  0.92243676288E+02  0.00000000000E+00 0.  1.
          5    1    5    5  502    0  0.59011189225E+02 -0.30185197770E+02  0.49549750429E+02  0.82889893146E+02  0.47000000000E+01 0. -1.
         13    1    4    4    0    0 -0.48405661574E+02 -0.52391616747E+01  0.44821591362E+02  0.66178032154E+02  0.00000000000E+00 0. -1.
        -14    1    4    4    0    0  0.33089506047E+02  0.79750546710E+01  0.26968050141E+02  0.43425713994E+02  0.00000000000E+00 0.  1.
         -5    1    3    3    0  504  0.44336561879E+02  0.72623042716E+02 -0.20821907993E+02  0.87723878762E+02  0.47000000000E+01 0.  1.
<mgrwt>
<rscale>  2 0.19101201E+03</rscale>
<asrwt>0</asrwt>
<pdfrwt beam="1">  1       21 0.52717189E-01 0.19113892E+03</pdfrwt>
<pdfrwt beam="2">  1       21 0.17688965E-01 0.19113892E+03</pdfrwt>
<totfact> 0.98956781E+04</totfact>
</mgrwt>
</event>
<event>
12    1  0.2736842E-001  0.1928210E+03  0.7546771E-02  0.1156212E+00
         21   -1    0    0  502  503  0.00000000000E+00  0.00000000000E+00  0.73738229671E+03  0.73738229671E+03  0.00000000000E+00 0. -1.
         21   -1    0    0  503  504 -0.00000000000E+00 -0.00000000000E+00 -0.50204214898E+02  0.50204214898E+02  0.00000000000E+00 0. -1.
         -6    2    1    2    0  504 -0.71497344165E+02  0.39660229377E+02  0.32700224003E+03  0.37961876929E+03  0.17462858012E+03 0.  0.
        -24    2    3    3    0    0 -0.10934140884E+03  0.19819677486E+02  0.29680082154E+03  0.32708272063E+03  0.80895087367E+02 0.  0.
          6    2    1    2  502    0  0.71497344165E+02 -0.39660229377E+02  0.36017584178E+03  0.40796774232E+03  0.17328080607E+03 0.  0.
         24    2    5    5    0    0  0.87549106322E+02 -0.69034831834E+02  0.19698879691E+03  0.24131652585E+03  0.83656592774E+02 0.  0.
          2    1    6    6  501    0  0.82015261353E+02 -0.14174826023E+02  0.13246195323E+03  0.15644039709E+03  0.00000000000E+00 0. -1.
         -1    1    6    6    0  501  0.55338449689E+01 -0.54860005811E+02  0.64526843681E+02  0.84876128760E+02  0.00000000000E+00 0.  1.
          5    1    5    5  502    0 -0.16051762158E+02  0.29374602457E+02  0.16318704487E+03  0.16665121647E+03  0.47000000000E+01 0. -1.
         11    1    4    4    0    0 -0.27854005524E+02 -0.48245373649E+01  0.18188194369E+03  0.18406564922E+03  0.00000000000E+00 0. -1.
        -12    1    4    4    0    0 -0.81487403316E+02  0.24644214851E+02  0.11491887786E+03  0.14301707140E+03  0.00000000000E+00 0.  1.
         -5    1    3    3    0  504  0.37844064676E+02  0.19840551891E+02  0.30201418488E+02  0.52536048664E+02  0.47000000000E+01 0.  1.
<mgrwt>
<rscale>  2 0.19251535E+03</rscale>
<asrwt>0</asrwt>
<pdfrwt beam="1">  1       21 0.11344342E+00 0.19282102E+03</pdfrwt>
<pdfrwt beam="2">  1       21 0.77237259E-02 0.19282102E+03</pdfrwt>
<totfact> 0.77308053E+04</totfact>
</mgrwt>
</event>
<event>
12    1  0.2736842E-001  0.2097050E+03  0.7546771E-02  0.1142507E+00
         21   -1    0    0  502  503  0.00000000000E+00  0.00000000000E+00  0.33842618014E+03  0.33842618014E+03  0.00000000000E+00 0.  1.
         21   -1    0    0  503  504 -0.00000000000E+00 -0.00000000000E+00 -0.14701265505E+03  0.14701265505E+03  0.00000000000E+00 0. -1.
         -6    2    1    2    0  504 -0.69711161776E+02  0.94987803187E+02  0.18423965650E+03  0.27914235357E+03  0.17347585913E+03 0.  0.
        -24    2    3    3    0    0 -0.10775326752E+03  0.89267247125E+02  0.17851956858E+03  0.23996664711E+03  0.78328457705E+02 0.  0.
          6    2    1    2  502    0  0.69711161776E+02 -0.94987803187E+02  0.71738685944E+01  0.20629648161E+03  0.16918760328E+03 0.  0.
         24    2    5    5    0    0  0.58781531688E+02 -0.96350479593E+02  0.60879598568E+02  0.15127185864E+03  0.80238184858E+02 0.  0.
          4    1    6    6  501    0  0.30975116201E+02 -0.91387967402E+02  0.15372560607E+02  0.97711483610E+02  0.00000000000E+00 0. -1.
         -3    1    6    6    0  501  0.27806415486E+02 -0.49625121907E+01  0.45507037961E+02  0.53560375031E+02  0.00000000000E+00 0.  1.
          5    1    5    5  502    0  0.10929630088E+02  0.13626764062E+01 -0.53705729974E+02  0.55024622969E+02  0.47000000000E+01 0. -1.
         13    1    4    4    0    0 -0.57741114499E+01 -0.45827731411E+01 -0.57831358156E+01  0.93694627680E+01  0.00000000000E+00 0. -1.
        -14    1    4    4    0    0 -0.10197915607E+03  0.93850020266E+02  0.18430270440E+03  0.23059718434E+03  0.00000000000E+00 0.  1.
         -5    1    3    3    0  504  0.38042105748E+02  0.57205560615E+01  0.57200879166E+01  0.39175706467E+02  0.47000000000E+01 0.  1.
<mgrwt>
<rscale>  2 0.20881607E+03</rscale>
<asrwt>0</asrwt>
<pdfrwt beam="1">  1       21 0.52065566E-01 0.20970504E+03</pdfrwt>
<pdfrwt beam="2">  1       21 0.22617332E-01 0.20970504E+03</pdfrwt>
<totfact> 0.63645870E+04</totfact>
</mgrwt>
</event>
<event>
12    1  0.2736842E-001  0.1967048E+03  0.7546771E-02  0.1153298E+00
         21   -1    0    0  502  503  0.00000000000E+00  0.00000000000E+00  0.33249587060E+03  0.33249587060E+03  0.00000000000E+00 0.  1.
         21   -1    0    0  503  504 -0.00000000000E+00 -0.00000000000E+00 -0.14061005649E+03  0.14061005649E+03  0.00000000000E+00 0. -1.
         -6    2    1    2    0  504  0.93600015224E+02  0.11771207531E+02 -0.56052933132E+01  0.19678469753E+03  0.17260728169E+03 0.  0.
        -24    2    3    3    0    0  0.12062692958E+03 -0.20595573313E+02 -0.29392166839E+02  0.14814348091E+03  0.78150864911E+02 0.  0.
          6    2    1    2  502    0 -0.93600015224E+02 -0.11771207531E+02  0.19749110743E+03  0.27632122956E+03  0.16867471719E+03 0.  0.
         24    2    5    5    0    0 -0.98590373262E+02 -0.17628170454E+02  0.21845746390E+03  0.25349830705E+03  0.80665445215E+02 0.  0.
          2    1    6    6  501    0 -0.70058300578E+02  0.71062603950E+01  0.66273968641E+02  0.96700068956E+02  0.00000000000E+00 0. -1.
         -1    1    6    6    0  501 -0.28532072684E+02 -0.24734430849E+02  0.15218349526E+03  0.15679823810E+03  0.00000000000E+00 0.  1.
          5    1    5    5  502    0  0.49903580375E+01  0.58569629232E+01 -0.20966356475E+02  0.22822922509E+02  0.47000000000E+01 0. -1.
         11    1    4    4    0    0  0.82744654870E+02  0.24507028759E+02 -0.17500874588E+02  0.88054261564E+02  0.00000000000E+00 0. -1.
        -12    1    4    4    0    0  0.37882274706E+02 -0.45102602072E+02 -0.11891292251E+02  0.60089219349E+02  0.00000000000E+00 0.  1.
         -5    1    3    3    0  504 -0.27026914352E+02  0.32366780844E+02  0.23786873526E+02  0.48641216614E+02  0.47000000000E+01 0.  1.
<mgrwt>
<rscale>  2 0.19583875E+03</rscale>
<asrwt>0</asrwt>
<pdfrwt beam="1">  1       21 0.51153211E-01 0.19670485E+03</pdfrwt>
<pdfrwt beam="2">  1       21 0.21632317E-01 0.19670485E+03</pdfrwt>
<totfact> 0.72265473E+04</totfact>
</mgrwt>
</event>
<event>
12    1  0.2736842E-001  0.2027294E+03  0.7546771E-02  0.1147581E+00
         21   -1    0    0  502  503  0.00000000000E+00  0.00000000000E+00  0.95834186814E+03  0.95834186814E+03  0.00000000000E+00 0. -1.
         21   -1    0    0  503  504 -0.00000000000E+00 -0.00000000000E+00 -0.63466416283E+02  0.63466416283E+02  0.00000000000E+00 0. -1.
         -6    2    1    2    0  504 -0.10387206590E+03  0.14147834782E+02  0.15605339328E+03  0.25583561795E+03  0.17352127984E+03 0.  0.
        -24    2    3    3    0    0 -0.10814847309E+03  0.39517105094E+02  0.55534061339E+02  0.15196977358E+03  0.82177164016E+02 0.  0.
          6    2    1    2  502    0  0.10387206590E+03 -0.14147834782E+02  0.73882205858E+03  0.76597266647E+03  0.17281933987E+03 0.  0.
         24    2    5    5    0    0  0.14124480732E+03 -0.18584034006E+02  0.60340589348E+03  0.62534539516E+03  0.81625541640E+02 0.  0.
          4    1    6    6  501    0  0.10476037933E+03  0.96809750709E+01  0.51480007837E+03  0.52544036679E+03  0.00000000000E+00 0. -1.
         -3    1    6    6    0  501  0.36484427989E+02 -0.28265009077E+02  0.88605815108E+02  0.99905028376E+02  0.00000000000E+00 0.  1.
          5    1    5    5  502    0 -0.37372741424E+02  0.44361992242E+01  0.13541616510E+03  0.14062727131E+03  0.47000000000E+01 0. -1.
         13    1    4    4    0    0 -0.76112254056E+00  0.26755559707E+02 -0.61606440514E+01  0.27466212296E+02  0.00000000000E+00 0. -1.
        -14    1    4    4    0    0 -0.10738735055E+03  0.12761545387E+02  0.61694705390E+02  0.12450356128E+03  0.00000000000E+00 0.  1.
         -5    1    3    3    0  504  0.42764071898E+01 -0.25369270312E+02  0.10051933194E+03  0.10386584437E+03  0.47000000000E+01 0.  1.
<mgrwt>
<rscale>  2 0.20257909E+03</rscale>
<asrwt>0</asrwt>
<pdfrwt beam="1">  1       21 0.14743720E+00 0.20272938E+03</pdfrwt>
<pdfrwt beam="2">  1       21 0.97640648E-02 0.20272938E+03</pdfrwt>
<totfact> 0.26299773E+04</totfact>
</mgrwt>
</event>
<event>
12    1  0.2736842E-001  0.1880993E+03  0.7546771E-02  0.1160448E+00
         21   -1    0    0  502  503  0.00000000000E+00  0.00000000000E+00  0.33970139578E+02  0.33970139578E+02  0.00000000000E+00 0.  1.
         21   -1    0    0  503  504 -0.00000000000E+00 -0.00000000000E+00 -0.32377611347E+04  0.32377611347E+04  0.00000000000E+00 0.  1.
         -6    2    1    2    0  504  0.70717689457E+02  0.13109013341E+02 -0.29526817641E+04  0.29586670867E+04  0.17380590322E+03 0.  0.
        -24    2    3    3    0    0  0.30923747672E+02  0.49364058731E+02 -0.25970251373E+04  0.25989286924E+04  0.80608288083E+02 0.  0.
          6    2    1    2  502    0 -0.70717689457E+02 -0.13109013341E+02 -0.25110923100E+03  0.31306418756E+03  0.17257028078E+03 0.  0.
         24    2    5    5    0    0 -0.96854581182E+02 -0.20189797327E+02 -0.82694331202E+02  0.14242145234E+03  0.60473794833E+02 0.  0.
          4    1    6    6  501    0 -0.31039297362E+01 -0.11856695863E+02 -0.34638175823E+02  0.36742602533E+02  0.00000000000E+00 0. -1.
         -3    1    6    6    0  501 -0.93750651446E+02 -0.83331014643E+01 -0.48056155379E+02  0.10567884981E+03  0.00000000000E+00 0.  1.
          5    1    5    5  502    0  0.26136891725E+02  0.70807839858E+01 -0.16841489980E+03  0.17064273522E+03  0.47000000000E+01 0. -1.
         13    1    4    4    0    0  0.22080246617E+02  0.24282530787E+01 -0.17140636472E+03  0.17283973956E+03  0.00000000000E+00 0. -1.
        -14    1    4    4    0    0  0.88435010546E+01  0.46935805652E+02 -0.24256187725E+04  0.24260889528E+04  0.00000000000E+00 0.  1.
         -5    1    3    3    0  504  0.39793941786E+02 -0.36255045390E+02 -0.35565662682E+03  0.35973839428E+03  0.47000000000E+01 0.  1.
<mgrwt>
<rscale>  2 0.18781332E+03</rscale>
<asrwt>0</asrwt>
<pdfrwt beam="1">  1       21 0.52261759E-02 0.18809926E+03</pdfrwt>
<pdfrwt beam="2">  1       21 0.49811704E+00 0.18809926E+03</pdfrwt>
<totfact> 0.49090612E+02</totfact>
</mgrwt>
</event>
<event>
12    1  0.2736842E-001  0.1757312E+03  0.7546771E-02  0.1172349E+00
         21   -1    0    0  502  503  0.00000000000E+00  0.00000000000E+00  0.61728566285E+03  0.61728566285E+03  0.00000000000E+00 0. -1.
         21   -1    0    0  503  504 -0.00000000000E+00 -0.00000000000E+00 -0.67768189512E+02  0.67768189512E+02  0.00000000000E+00 0. -1.
         -6    2    1    2    0  504 -0.32002385987E+01  0.20100924493E+02  0.98362226186E+02  0.20138660490E+03  0.17454841277E+03 0.  0.
        -24    2    3    3    0    0 -0.48471834863E+02  0.62446519933E+02  0.46036596300E+02  0.12012943030E+03  0.77862861487E+02 0.  0.
          6    2    1    2  502    0  0.32002385987E+01 -0.20100924493E+02  0.45115524716E+03  0.48366724746E+03  0.17314346808E+03 0.  0.
         24    2    5    5    0    0 -0.17662699592E+02  0.47572228418E+02  0.18930498520E+03  0.21236931621E+03  0.81787903582E+02 0.  0.
          4    1    6    6  501    0 -0.43648647066E+02  0.49674543901E+02  0.16010985378E+03  0.17322797112E+03  0.00000000000E+00 0. -1.
         -3    1    6    6    0  501  0.25985947474E+02 -0.21023154829E+01  0.29195131425E+02  0.39141345090E+02  0.00000000000E+00 0.  1.
          5    1    5    5  502    0  0.20862938191E+02 -0.67673152910E+02  0.26185026195E+03  0.27129793125E+03  0.47000000000E+01 0. -1.
         11    1    4    4    0    0 -0.16805856227E+02 -0.23965222415E+01 -0.17210114021E+02  0.24173707763E+02  0.00000000000E+00 0. -1.
        -12    1    4    4    0    0 -0.31665978637E+02  0.64843042174E+02  0.63246710321E+02  0.95955722539E+02  0.00000000000E+00 0.  1.
         -5    1    3    3    0  504  0.45271596265E+02 -0.42345595440E+02  0.52325629886E+02  0.81257174603E+02  0.47000000000E+01 0.  1.
<mgrwt>
<rscale>  2 0.17538125E+03</rscale>
<asrwt>0</asrwt>
<pdfrwt beam="1">  1       21 0.94967022E-01 0.17573115E+03</pdfrwt>
<pdfrwt beam="2">  1       21 0.10425876E-01 0.17573115E+03</pdfrwt>
<totfact> 0.70418897E+04</totfact>
</mgrwt>
</event>
<event>
12    1  0.2736842E-001  0.1860608E+03  0.7546771E-02  0.1162281E+00
         21   -1    0    0  502  503  0.00000000000E+00  0.00000000000E+00  0.42080458343E+03  0.42080458343E+03  0.00000000000E+00 0.  1.
         21   -1    0    0  503  504 -0.00000000000E+00 -0.00000000000E+00 -0.10494799485E+03  0.10494799485E+03  0.00000000000E+00 0.  1.
         -6    2    1    2    0  504  0.36631502868E+02 -0.45444062168E+02  0.28155852777E+03  0.33748160661E+03  0.17666805158E+03 0.  0.
        -24    2    3    3    0    0 -0.11521576517E+02 -0.68634954548E+02  0.96950668824E+02  0.14523518108E+03  0.82766671597E+02 0.  0.
          6    2    1    2  502    0 -0.36631502868E+02  0.45444062168E+02  0.34298060814E+02  0.18827097167E+03  0.17567746585E+03 0.  0.
         24    2    5    5    0    0 -0.80768208915E+02  0.45205788315E+02 -0.12023586815E+02  0.12411576428E+03  0.81811303836E+02 0.  0.
          4    1    6    6  501    0 -0.32781781727E+02  0.15400699499E+01  0.31899189457E+02  0.45766530529E+02  0.00000000000E+00 0. -1.
         -3    1    6    6    0  501 -0.47986427187E+02  0.43665718365E+02 -0.43922776272E+02  0.78349233755E+02  0.00000000000E+00 0.  1.
          5    1    5    5  502    0  0.44136706047E+02  0.23827385350E+00  0.46321647629E+02  0.64155207382E+02  0.47000000000E+01 0. -1.
         13    1    4    4    0    0 -0.54843987996E+01 -0.84642303381E+01 -0.14953273648E+02  0.18036690888E+02  0.00000000000E+00 0. -1.
        -14    1    4    4    0    0 -0.60371777172E+01 -0.60170724210E+02  0.11190394247E+03  0.12719849019E+03  0.00000000000E+00 0.  1.
         -5    1    3    3    0  504  0.48153079385E+02  0.23190892380E+02  0.18460785894E+03  0.19224642552E+03  0.47000000000E+01 0.  1.
<mgrwt>
<rscale>  2 0.18582530E+03</rscale>
<asrwt>0</asrwt>
<pdfrwt beam="1">  1       21 0.64739166E-01 0.18606082E+03</pdfrwt>
<pdfrwt beam="2">  1       21 0.16145846E-01 0.18606082E+03</pdfrwt>
<totfact> 0.75608133E+04</totfact>
</mgrwt>
</event>
<event>
12    1  0.2736842E-001  0.1850919E+03  0.7546771E-02  0.1163683E+00
         21   -1    0    0  502  503  0.00000000000E+00  0.00000000000E+00  0.10874823716E+03  0.10874823716E+03  0.00000000000E+00 0.  1.
         21   -1    0    0  503  504 -0.00000000000E+00 -0.00000000000E+00 -0.32346628324E+03  0.32346628324E+03  0.00000000000E+00 0.  1.
         -6    2    1    2    0  504  0.43538958285E+02  0.38961863548E+02 -0.62175642766E+02  0.19236414380E+03  0.17240790459E+03 0.  0.
        -24    2    3    3    0    0  0.40509904118E+02  0.80665758082E+02 -0.79714643834E+02  0.14677799955E+03  0.83912691844E+02 0.  0.
          6    2    1    2  502    0 -0.43538958285E+02 -0.38961863548E+02 -0.15254240332E+03  0.23985037661E+03  0.17562844488E+03 0.  0.
         24    2    5    5    0    0  0.77221701864E+01  0.10815623475E+02 -0.14650019073E+03  0.16798870505E+03  0.81125147255E+02 0.  0.
          2    1    6    6  501    0  0.34443261293E+02  0.19406495152E+02 -0.34327505136E+02  0.52357691999E+02  0.00000000000E+00 0. -1.
         -1    1    6    6    0  501 -0.26721091107E+02 -0.85908716763E+01 -0.11217268559E+03  0.11563101305E+03  0.00000000000E+00 0.  1.
          5    1    5    5  502    0 -0.51261128471E+02 -0.49777487023E+02 -0.60422125873E+01  0.71861671560E+02  0.47000000000E+01 0. -1.
         13    1    4    4    0    0  0.64304172377E+02  0.70569211064E+02 -0.51362314358E+02  0.10841184193E+03  0.00000000000E+00 0. -1.
        -14    1    4    4    0    0 -0.23794268259E+02  0.10096547018E+02 -0.28352329476E+02  0.38366157618E+02  0.00000000000E+00 0.  1.
         -5    1    3    3    0  504  0.30290541667E+01 -0.41703894534E+02  0.17539001068E+02  0.45586144243E+02  0.47000000000E+01 0.  1.
<mgrwt>
<rscale>  2 0.18432389E+03</rscale>
<asrwt>0</asrwt>
<pdfrwt beam="1">  1       21 0.16730498E-01 0.18509192E+03</pdfrwt>
<pdfrwt beam="2">  1       21 0.49764043E-01 0.18509192E+03</pdfrwt>
<totfact> 0.12395789E+05</totfact>
</mgrwt>
</event>
<event>
12    1  0.2736842E-001  0.2036990E+03  0.7546771E-02  0.1146669E+00
         21   -1    0    0  502  503  0.00000000000E+00  0.00000000000E+00  0.17849878384E+03  0.17849878384E+03  0.00000000000E+00 0.  1.
         21   -1    0    0  503  504 -0.00000000000E+00 -0.00000000000E+00 -0.23289041489E+03  0.23289041489E+03  0.00000000000E+00 0.  1.
         -6    2    1    2    0  504  0.84498074934E+02 -0.67086509886E+02 -0.36809392162E+02  0.20693278830E+03  0.17270125375E+03 0.  0.
        -24    2    3    3    0    0  0.63724640786E+02  0.12837097359E+02 -0.62004332538E+02  0.12046780358E+03  0.80264148504E+02 0.  0.
          6    2    1    2  502    0 -0.84498074934E+02  0.67086509886E+02 -0.17582238890E+02  0.20445641044E+03  0.17277952474E+03 0.  0.
         24    2    5    5    0    0 -0.46229922116E+02  0.10545483224E+03  0.15562473113E+02  0.14075993005E+03  0.79455899686E+02 0.  0.
          2    1    6    6  501    0 -0.68243218419E+02  0.86473377427E+02  0.66547812379E+01  0.11035881468E+03  0.00000000000E+00 0. -1.
         -1    1    6    6    0  501  0.22013296303E+02  0.18981454816E+02  0.89076918748E+01  0.30401115367E+02  0.00000000000E+00 0.  1.
          5    1    5    5  502    0 -0.38268152817E+02 -0.38368322356E+02 -0.33144712002E+02  0.63696480391E+02  0.47000000000E+01 0. -1.
         13    1    4    4    0    0  0.50392331451E+02 -0.14477575536E+02 -0.11480759756E+01  0.52443353639E+02  0.00000000000E+00 0. -1.
        -14    1    4    4    0    0  0.13332309335E+02  0.27314672895E+02 -0.60856256563E+02  0.68024449946E+02  0.00000000000E+00 0.  1.
         -5    1    3    3    0  504  0.20773434148E+02 -0.79923607245E+02  0.25194940376E+02  0.86464984716E+02  0.47000000000E+01 0.  1.
<mgrwt>
<rscale>  2 0.20368242E+03</rscale>
<asrwt>0</asrwt>
<pdfrwt beam="1">  1       21 0.27461351E-01 0.20369901E+03</pdfrwt>
<pdfrwt beam="2">  1       21 0.35829294E-01 0.20369901E+03</pdfrwt>
<totfact> 0.94587032E+04</totfact>
</mgrwt>
</event>
<event>
12    1  0.2736842E-001  0.1849040E+03  0.7546771E-02  0.1163507E+00
         21   -1    0    0  502  503  0.00000000000E+00  0.00000000000E+00  0.10681499357E+03  0.10681499357E+03  0.00000000000E+00 0. -1.
         21   -1    0    0  503  504 -0.00000000000E+00 -0.00000000000E+00 -0.37505518978E+03  0.37505518978E+03  0.00000000000E+00 0. -1.
         -6    2    1    2    0  504 -0.64790322272E+02  0.15523539123E+02 -0.40119008394E+02  0.18920634616E+03  0.17248402959E+03 0.  0.
        -24    2    3    3    0    0 -0.21405308796E+02  0.22472529474E+02 -0.88576045954E+02  0.12362645327E+03  0.80464788613E+02 0.  0.
          6    2    1    2  502    0  0.64790322272E+02 -0.15523539123E+02 -0.22812118781E+03  0.29266383719E+03  0.17080421289E+03 0.  0.
         24    2    5    5    0    0 -0.23403685542E+02  0.13780996530E+02 -0.14614525232E+03  0.16865140707E+03  0.79669404214E+02 0.  0.
          4    1    6    6  501    0 -0.41587290840E+02  0.28882993839E+02 -0.56168256234E+02  0.75621446038E+02  0.00000000000E+00 0. -1.
         -3    1    6    6    0  501  0.18183605298E+02 -0.15101997309E+02 -0.89976996091E+02  0.93029961033E+02  0.00000000000E+00 0.  1.
          5    1    5    5  502    0  0.88194007814E+02 -0.29304535653E+02 -0.81975935490E+02  0.12401243012E+03  0.47000000000E+01 0. -1.
         11    1    4    4    0    0 -0.34492754610E+02  0.30192728295E+02 -0.14604969391E+02  0.48110872923E+02  0.00000000000E+00 0. -1.
        -12    1    4    4    0    0  0.13087445814E+02 -0.77201988206E+01 -0.73971076563E+02  0.75515580351E+02  0.00000000000E+00 0.  1.
         -5    1    3    3    0  504 -0.43385013476E+02 -0.69489903513E+01  0.48457037560E+02  0.65579892882E+02  0.47000000000E+01 0.  1.
<mgrwt>
<rscale>  2 0.18451130E+03</rscale>
<asrwt>0</asrwt>
<pdfrwt beam="1">  1       21 0.16433076E-01 0.18490405E+03</pdfrwt>
<pdfrwt beam="2">  1       21 0.57700798E-01 0.18490405E+03</pdfrwt>
<totfact> 0.93821498E+04</totfact>
</mgrwt>
</event>
<event>
12    1  0.2736842E-001  0.1997545E+03  0.7546771E-02  0.1154091E+00
         21   -1    0    0  502  503  0.00000000000E+00  0.00000000000E+00  0.23709942450E+03  0.23709942450E+03  0.00000000000E+00 0. -1.
         21   -1    0    0  503  504 -0.00000000000E+00 -0.00000000000E+00 -0.58888635847E+03  0.58888635847E+03  0.00000000000E+00 0. -1.
         -6    2    1    2    0  504  0.43072618994E+02 -0.35467847183E+02 -0.52887698856E+03  0.55903496411E+03  0.17232528360E+03 0.  0.
        -24    2    3    3    0    0 -0.14675549557E+02 -0.69969187373E+02 -0.25322252062E+03  0.27525217896E+03  0.80814962340E+02 0.  0.
          6    2    1    2  502    0 -0.43072618994E+02  0.35467847183E+02  0.17709005459E+03  0.26695081886E+03  0.19180363282E+03 0.  0.
         24    2    5    5    0    0 -0.23943500879E+02  0.88979007569E+02  0.17986945217E+03  0.20986156859E+03  0.56553542104E+02 0.  0.
          4    1    6    6  501    0 -0.22545269775E+02  0.93095469253E+01  0.21237325709E+02  0.32341627301E+02  0.00000000000E+00 0. -1.
         -3    1    6    6    0  501 -0.13982311037E+01  0.79669460644E+02  0.15863212646E+03  0.17751994129E+03  0.00000000000E+00 0.  1.
          5    1    5    5  502    0 -0.19129118115E+02 -0.53511160386E+02 -0.27793975764E+01  0.57089250272E+02  0.47000000000E+01 0. -1.
         13    1    4    4    0    0 -0.44508883020E+02 -0.26186214103E+02 -0.91427895918E+02  0.10500389816E+03  0.00000000000E+00 0. -1.
        -14    1    4    4    0    0  0.29833333463E+02 -0.43782973270E+02 -0.16179462470E+03  0.17024828080E+03  0.00000000000E+00 0.  1.
         -5    1    3    3    0  504  0.57748168551E+02  0.34501340189E+02 -0.27565446795E+03  0.28378278515E+03  0.47000000000E+01 0.  1.
<mgrwt>
<rscale>  2 0.19492695E+03</rscale>
<asrwt>0</asrwt>
<pdfrwt beam="1">  1       21 0.36476835E-01 0.19975448E+03</pdfrwt>
<pdfrwt beam="2">  1       21 0.90597899E-01 0.19975448E+03</pdfrwt>
<totfact> 0.74596732E+03</totfact>
</mgrwt>
</event>
<event>
12    1  0.2736842E-001  0.2979174E+03  0.7546771E-02  0.1087030E+00
         21   -1    0    0  502  503  0.00000000000E+00  0.00000000000E+00  0.63329181475E+03  0.63329181475E+03  0.00000000000E+00 0.  1.
         21   -1    0    0  503  504 -0.00000000000E+00 -0.00000000000E+00 -0.13864695401E+03  0.13864695401E+03  0.00000000000E+00 0. -1.
         -6    2    1    2    0  504 -0.22781945238E+03  0.53966006626E+02  0.21336573840E+03  0.36644193729E+03  0.18423007987E+03 0.  0.
        -24    2    3    3    0    0 -0.19059313297E+03 -0.23079183715E+02  0.17613888475E+03  0.27300913339E+03  0.81551757421E+02 0.  0.
          6    2    1    2  502    0  0.22781945238E+03 -0.53966006626E+02  0.28127912235E+03  0.40549683148E+03  0.17463018902E+03 0.  0.
         24    2    5    5    0    0  0.21390217621E+03 -0.92344391760E+02  0.26149193530E+03  0.35988747067E+03  0.82821082133E+02 0.  0.
          4    1    6    6  501    0  0.21766086535E+03 -0.88373278641E+02  0.23298051729E+03  0.33085647964E+03  0.00000000000E+00 0. -1.
         -3    1    6    6    0  501 -0.37586891418E+01 -0.39711131193E+01  0.28511418016E+02  0.29030991040E+02  0.00000000000E+00 0.  1.
          5    1    5    5  502    0  0.13917276177E+02  0.38378385134E+02  0.19787187044E+02  0.45609360803E+02  0.47000000000E+01 0. -1.
         11    1    4    4    0    0 -0.96825518467E+02 -0.88962203497E+00  0.13973272126E+03  0.17000354657E+03  0.00000000000E+00 0. -1.
        -12    1    4    4    0    0 -0.93767614505E+02 -0.22189561680E+02  0.36406163484E+02  0.10300558683E+03  0.00000000000E+00 0.  1.
         -5    1    3    3    0  504 -0.37226319412E+02  0.77045190341E+02  0.37226853648E+02  0.93432803897E+02  0.47000000000E+01 0.  1.
<mgrwt>
<rscale>  2 0.29644674E+03</rscale>
<asrwt>0</asrwt>
<pdfrwt beam="1">  1       21 0.97429508E-01 0.29791736E+03</pdfrwt>
<pdfrwt beam="2">  1       21 0.21330301E-01 0.29791736E+03</pdfrwt>
<totfact> 0.16898758E+04</totfact>
</mgrwt>
</event>
<event>
12    1  0.2736842E-001  0.1791131E+03  0.7546771E-02  0.1168893E+00
         21   -1    0    0  502  503  0.00000000000E+00  0.00000000000E+00  0.72473890598E+02  0.72473890598E+02  0.00000000000E+00 0. -1.
         21   -1    0    0  503  504 -0.00000000000E+00 -0.00000000000E+00 -0.45407488733E+03  0.45407488733E+03  0.00000000000E+00 0. -1.
         -6    2    1    2    0  504  0.36681783946E+02  0.28456876969E+02 -0.14455061102E+03  0.22943873336E+03  0.17202298131E+03 0.  0.
        -24    2    3    3    0    0  0.82549125483E+02  0.27238414451E+02 -0.58322548900E+02  0.13164984663E+03  0.79836539682E+02 0.  0.
          6    2    1    2  502    0 -0.36681783946E+02 -0.28456876969E+02 -0.23705038571E+03  0.29711004456E+03  0.17299175153E+03 0.  0.
         24    2    5    5    0    0 -0.27757510505E+02 -0.76892430562E+02 -0.21161213097E+03  0.24147875559E+03  0.82760921711E+02 0.  0.
          2    1    6    6  501    0 -0.53446851202E+02 -0.71657730885E+02 -0.15167971180E+03  0.17606286170E+03  0.00000000000E+00 0. -1.
         -1    1    6    6    0  501  0.25689340697E+02 -0.52346996770E+01 -0.59932419170E+02  0.65415893892E+02  0.00000000000E+00 0.  1.
          5    1    5    5  502    0 -0.89242734412E+01  0.48435553592E+02 -0.25438254737E+02  0.55631288968E+02  0.47000000000E+01 0. -1.
         11    1    4    4    0    0  0.30862354949E+02 -0.18383905778E+02  0.70884436660E+01  0.36615556506E+02  0.00000000000E+00 0. -1.
        -12    1    4    4    0    0  0.51686770535E+02  0.45622320230E+02 -0.65410992566E+02  0.95034290126E+02  0.00000000000E+00 0.  1.
         -5    1    3    3    0  504 -0.45867341537E+02  0.12184625182E+01 -0.86228062123E+02  0.97788886731E+02  0.47000000000E+01 0.  1.
<mgrwt>
<rscale>  2 0.17887874E+03</rscale>
<asrwt>0</asrwt>
<pdfrwt beam="1">  1       21 0.11149829E-01 0.17911307E+03</pdfrwt>
<pdfrwt beam="2">  1       21 0.69857677E-01 0.17911307E+03</pdfrwt>
<totfact> 0.12513140E+05</totfact>
</mgrwt>
</event>
<event>
12    1  0.2736842E-001  0.4139057E+03  0.7546771E-02  0.1039129E+00
         21   -1    0    0  502  503  0.00000000000E+00  0.00000000000E+00  0.21331332576E+03  0.21331332576E+03  0.00000000000E+00 0.  1.
         21   -1    0    0  503  504 -0.00000000000E+00 -0.00000000000E+00 -0.12121189512E+04  0.12121189512E+04  0.00000000000E+00 0. -1.
         -6    2    1    2    0  504 -0.24534940320E+03 -0.28230887384E+03 -0.91382681145E+03  0.10028931623E+04  0.17555803525E+03 0.  0.
        -24    2    3    3    0    0 -0.24402291448E+03 -0.28228617411E+03 -0.77402002592E+03  0.86300110616E+03  0.80195023664E+02 0.  0.
          6    2    1    2  502    0  0.24534940320E+03  0.28230887384E+03 -0.84978813953E+02  0.42253911463E+03  0.17726611259E+03 0.  0.
         24    2    5    5    0    0  0.79939783435E+02  0.16384354064E+03  0.77316927920E+01  0.19890614403E+03  0.79175755591E+02 0.  0.
          2    1    6    6  501    0 -0.87634754658E+01  0.42671319159E+02  0.20597742140E+02  0.48186169824E+02  0.00000000000E+00 0. -1.
         -1    1    6    6    0  501  0.88703258901E+02  0.12117222148E+03 -0.12866049348E+02  0.15071997420E+03  0.00000000000E+00 0.  1.
          5    1    5    5  502    0  0.16540961976E+03  0.11846533320E+03 -0.92710506745E+02  0.22363297060E+03  0.47000000000E+01 0. -1.
         13    1    4    4    0    0 -0.15242035840E+03 -0.11533998153E+03 -0.39717808686E+03  0.44077852678E+03  0.00000000000E+00 0. -1.
        -14    1    4    4    0    0 -0.91602556087E+02 -0.16694619258E+03 -0.37684193906E+03  0.42222257938E+03  0.00000000000E+00 0.  1.
         -5    1    3    3    0  504 -0.13264887132E+01 -0.22699729866E-01 -0.13980678553E+03  0.13989205613E+03  0.47000000000E+01 0.  1.
<mgrwt>
<rscale>  2 0.41372339E+03</rscale>
<asrwt>0</asrwt>
<pdfrwt beam="1">  1       21 0.32817435E-01 0.41390567E+03</pdfrwt>
<pdfrwt beam="2">  1       21 0.18647984E+00 0.41390567E+03</pdfrwt>
<totfact> 0.12576246E+03</totfact>
</mgrwt>
</event>
<event>
12    1  0.2736842E-001  0.1764878E+03  0.7546771E-02  0.1171272E+00
         21   -1    0    0  502  503  0.00000000000E+00  0.00000000000E+00  0.27141569911E+03  0.27141569911E+03  0.00000000000E+00 0.  1.
         21   -1    0    0  503  504 -0.00000000000E+00 -0.00000000000E+00 -0.27858864423E+03  0.27858864423E+03  0.00000000000E+00 0.  1.
         -6    2    1    2    0  504 -0.92032082684E+00 -0.28408609412E+02 -0.21451662335E+03  0.27778646833E+03  0.17418393787E+03 0.  0.
        -24    2    3    3    0    0 -0.30518303592E+02 -0.40348569505E+02 -0.42962263982E+02  0.10322532875E+03  0.79059082051E+02 0.  0.
          6    2    1    2  502    0  0.92032082684E+00  0.28408609412E+02  0.20734367823E+03  0.27221787502E+03  0.17407835735E+03 0.  0.
         24    2    5    5    0    0 -0.37511113739E+02  0.74828615377E+02  0.15737221727E+03  0.19378937875E+03  0.76038827012E+02 0.  0.
          2    1    6    6  501    0 -0.46203914784E+02  0.78627477061E+02  0.98809942893E+02  0.13446370032E+03  0.00000000000E+00 0. -1.
         -1    1    6    6    0  501  0.86928010448E+01 -0.37988616832E+01  0.58562274379E+02  0.59325678424E+02  0.00000000000E+00 0.  1.
          5    1    5    5  502    0  0.38431434566E+02 -0.46420005966E+02  0.49971460958E+02  0.78428496268E+02  0.47000000000E+01 0. -1.
         11    1    4    4    0    0 -0.71951726595E+01 -0.57617411671E+02 -0.45956504894E+02  0.74050908025E+02  0.00000000000E+00 0. -1.
        -12    1    4    4    0    0 -0.23323130932E+02  0.17268842166E+02  0.29942409122E+01  0.29174420729E+02  0.00000000000E+00 0.  1.
         -5    1    3    3    0  504  0.29597982765E+02  0.11939960093E+02 -0.17155435937E+03  0.17456113957E+03  0.47000000000E+01 0.  1.
<mgrwt>
<rscale>  2 0.17646173E+03</rscale>
<asrwt>0</asrwt>
<pdfrwt beam="1">  1       21 0.41756261E-01 0.17648779E+03</pdfrwt>
<pdfrwt beam="2">  1       21 0.42859791E-01 0.17648779E+03</pdfrwt>
<totfact> 0.29163857E+04</totfact>
</mgrwt>
</event>
<event>
12    1  0.2736842E-001  0.3916617E+03  0.7546771E-02  0.1046750E+00
         21   -1    0    0  502  503  0.00000000000E+00  0.00000000000E+00  0.25156962929E+04  0.25156962929E+04  0.00000000000E+00 0. -1.
         21   -1    0    0  503  504 -0.00000000000E+00 -0.00000000000E+00 -0.78676700058E+02  0.78676700058E+02  0.00000000000E+00 0.  1.
         -6    2    1    2    0  504  0.35002237718E+03  0.22818732652E+02  0.60248753859E+03  0.71860292073E+03  0.17424857082E+03 0.  0.
        -24    2    3    3    0    0  0.20800328726E+03 -0.46040936230E+02  0.41604200722E+03  0.47427710942E+03  0.80390854161E+02 0.  0.
          6    2    1    2  502    0 -0.35002237718E+03 -0.22818732652E+02  0.18345320542E+04  0.18757700722E+04  0.17311599212E+03 0.  0.
         24    2    5    5    0    0 -0.10359734568E+03 -0.50004278070E+02  0.77909170322E+03  0.79159260770E+03  0.80013353098E+02 0.  0.
          4    1    6    6  501    0 -0.10880654274E+03 -0.53977907759E+02  0.77350289116E+03  0.78298097097E+03  0.00000000000E+00 0. -1.
         -3    1    6    6    0  501  0.52091970562E+01  0.39736296888E+01  0.55888120656E+01  0.86116367305E+01  0.00000000000E+00 0.  1.
          5    1    5    5  502    0 -0.24642503150E+03  0.27185545417E+02  0.10554403510E+04  0.10841774645E+04  0.47000000000E+01 0. -1.
         13    1    4    4    0    0  0.72183980219E+02  0.18375381353E+02  0.17515892740E+03  0.19033872830E+03  0.00000000000E+00 0. -1.
        -14    1    4    4    0    0  0.13581930705E+03 -0.64416317584E+02  0.24088307981E+03  0.28393838113E+03  0.00000000000E+00 0.  1.
         -5    1    3    3    0  504  0.14201908991E+03  0.68859668883E+02  0.18644553138E+03  0.24432581130E+03  0.47000000000E+01 0.  1.
<mgrwt>
<rscale>  2 0.39153604E+03</rscale>
<asrwt>0</asrwt>
<pdfrwt beam="1">  1       21 0.38703014E+00 0.39166175E+03</pdfrwt>
<pdfrwt beam="2">  1       21 0.12104110E-01 0.39166175E+03</pdfrwt>
<totfact> 0.48930018E+02</totfact>
</mgrwt>
</event>
<event>
12    1  0.2736842E-001  0.2079089E+03  0.7546771E-02  0.1143394E+00
         21   -1    0    0  502  503  0.00000000000E+00  0.00000000000E+00  0.12632614609E+03  0.12632614609E+03  0.00000000000E+00 0. -1.
         21   -1    0    0  503  504 -0.00000000000E+00 -0.00000000000E+00 -0.41560663763E+03  0.41560663763E+03  0.00000000000E+00 0.  1.
         -6    2    1    2    0  504 -0.63667117147E+02 -0.96548397513E+02 -0.25978067896E+03  0.33273428702E+03  0.17277444757E+03 0.  0.
        -24    2    3    3    0    0 -0.55734159389E+02 -0.13365276642E+03 -0.18607310815E+03  0.24970078772E+03  0.82206589268E+02 0.  0.
          6    2    1    2  502    0  0.63667117147E+02  0.96548397513E+02 -0.29499812578E+02  0.20919849670E+03  0.17181000323E+03 0.  0.
         24    2    5    5    0    0 -0.15401648153E+02  0.95431511374E+00 -0.64865067430E+01  0.82937653675E+02  0.81230894025E+02 0.  0.
          4    1    6    6  501    0 -0.47002022862E+02  0.26529763893E+01  0.86386655798E+01  0.47862876845E+02  0.00000000000E+00 0. -1.
         -3    1    6    6    0  501  0.31600374709E+02 -0.16986612755E+01 -0.15125172323E+02  0.35074776830E+02  0.00000000000E+00 0.  1.
          5    1    5    5  502    0  0.79068765301E+02  0.95594082399E+02 -0.23013305835E+02  0.12626084302E+03  0.47000000000E+01 0. -1.
         11    1    4    4    0    0  0.49355352103E+01 -0.81187316503E+02 -0.63375822965E+02  0.10311272863E+03  0.00000000000E+00 0. -1.
        -12    1    4    4    0    0 -0.60669694600E+02 -0.52465449918E+02 -0.12269728518E+03  0.14658805909E+03  0.00000000000E+00 0.  1.
         -5    1    3    3    0  504 -0.79329577579E+01  0.37104368909E+02 -0.73707570810E+02  0.83033499297E+02  0.47000000000E+01 0.  1.
<mgrwt>
<rscale>  2 0.20770840E+03</rscale>
<asrwt>0</asrwt>
<pdfrwt beam="1">  1       21 0.19434791E-01 0.20790889E+03</pdfrwt>
<pdfrwt beam="2">  1       21 0.63939484E-01 0.20790889E+03</pdfrwt>
<totfact> 0.54604229E+04</totfact>
</mgrwt>
</event>
<event>
12    1  0.2736842E-001  0.2112980E+03  0.7546771E-02  0.1141876E+00
         21   -1    0    0  502  503  0.00000000000E+00  0.00000000000E+00  0.30651564774E+03  0.30651564774E+03  0.00000000000E+00 0.  1.
         21   -1    0    0  503  504 -0.00000000000E+00 -0.00000000000E+00 -0.14151315734E+03  0.14151315734E+03  0.00000000000E+00 0.  1.
         -6    2    1    2    0  504 -0.63743504929E+01 -0.12048266738E+03  0.93375597303E+02  0.22492059049E+03  0.16526815898E+03 0.  0.
        -24    2    3    3    0    0 -0.17921026118E+02 -0.13216976547E+03  0.11790676418E+03  0.19502440131E+03  0.79639826644E+02 0.  0.
          6    2    1    2  502    0  0.63743504929E+01  0.12048266738E+03  0.71626893095E+02  0.22310821458E+03  0.17346514957E+03 0.  0.
         24    2    5    5    0    0  0.60836667593E+02  0.70706861916E+02  0.83032848278E+02  0.14830206104E+03  0.79990543006E+02 0.  0.
          2    1    6    6  501    0  0.62084718723E+02  0.32548013849E+02  0.17166597859E+02  0.72170475864E+02  0.00000000000E+00 0. -1.
         -1    1    6    6    0  501 -0.12480511300E+01  0.38158848068E+02  0.65866250419E+02  0.76131585178E+02  0.00000000000E+00 0.  1.
          5    1    5    5  502    0 -0.54462317100E+02  0.49775805468E+02 -0.11405955184E+02  0.74806153540E+02  0.47000000000E+01 0. -1.
         11    1    4    4    0    0  0.18217076222E+02 -0.11311564377E+01  0.68519583472E+01  0.19495915320E+02  0.00000000000E+00 0. -1.
        -12    1    4    4    0    0 -0.36138102340E+02 -0.13103860903E+03  0.11105480583E+03  0.17552848599E+03  0.00000000000E+00 0.  1.
         -5    1    3    3    0  504  0.11546675625E+02  0.11687098082E+02 -0.24531166872E+02  0.29896189184E+02  0.47000000000E+01 0.  1.
<mgrwt>
<rscale>  2 0.20960895E+03</rscale>
<asrwt>0</asrwt>
<pdfrwt beam="1">  1       21 0.47156253E-01 0.21129804E+03</pdfrwt>
<pdfrwt beam="2">  1       21 0.21771255E-01 0.21129804E+03</pdfrwt>
<totfact> 0.84051132E+04</totfact>
</mgrwt>
</event>
<event>
12    1  0.2736842E-001  0.3521236E+03  0.7546771E-02  0.1062146E+00
         21   -1    0    0  502  503  0.00000000000E+00  0.00000000000E+00  0.24272036968E+03  0.24272036968E+03  0.00000000000E+00 0. -1.
         21   -1    0    0  503  504 -0.00000000000E+00 -0.00000000000E+00 -0.50677646029E+03  0.50677646029E+03  0.00000000000E+00 0.  1.
         -6    2    1    2    0  504  0.26259443618E+03 -0.15015360377E+03 -0.11189048757E+03  0.36947325958E+03  0.18024723492E+03 0.  0.
        -24    2    3    3    0    0  0.11679539969E+03 -0.46753686168E+01 -0.15739336490E+02  0.14212240781E+03  0.79297084613E+02 0.  0.
          6    2    1    2  502    0 -0.26259443618E+03  0.15015360377E+03 -0.15216560304E+03  0.38002357039E+03  0.17251550848E+03 0.  0.
         24    2    5    5    0    0 -0.21152148443E+03  0.17830330482E+03 -0.13840385583E+03  0.31992092689E+03  0.81611060952E+02 0.  0.
          4    1    6    6  501    0 -0.10698655218E+03  0.12766232658E+03 -0.11224930754E+03  0.20085740967E+03  0.00000000000E+00 0. -1.
         -3    1    6    6    0  501 -0.10453493225E+03  0.50640978243E+02 -0.26154548290E+02  0.11906351723E+03  0.00000000000E+00 0.  1.
          5    1    5    5  502    0 -0.51072951751E+02 -0.28149701044E+02 -0.13761747211E+02  0.60102643500E+02  0.47000000000E+01 0. -1.
         11    1    4    4    0    0  0.54589814584E+01 -0.26311356136E+02  0.34469074949E+01  0.27091864305E+02  0.00000000000E+00 0. -1.
        -12    1    4    4    0    0  0.11133641824E+03  0.21635987519E+02 -0.19186243985E+02  0.11503054351E+03  0.00000000000E+00 0.  1.
         -5    1    3    3    0  504  0.14579903649E+03 -0.14547823516E+03 -0.96151151080E+02  0.22735085177E+03  0.47000000000E+01 0.  1.
<mgrwt>
<rscale>  2 0.35114590E+03</rscale>
<asrwt>0</asrwt>
<pdfrwt beam="1">  1       21 0.37341596E-01 0.35212357E+03</pdfrwt>
<pdfrwt beam="2">  1       21 0.77965608E-01 0.35212357E+03</pdfrwt>
<totfact> 0.92756991E+03</totfact>
</mgrwt>
</event>
<event>
12    1  0.2736842E-001  0.2044658E+03  0.7546771E-02  0.1146029E+00
         21   -1    0    0  502  503  0.00000000000E+00  0.00000000000E+00  0.56433991984E+03  0.56433991984E+03  0.00000000000E+00 0. -1.
         21   -1    0    0  503  504 -0.00000000000E+00 -0.00000000000E+00 -0.75826753395E+02  0.75826753395E+02  0.00000000000E+00 0.  1.
         -6    2    1    2    0  504 -0.89314738758E+02  0.63695732231E+02  0.19558827335E+03  0.28295059745E+03  0.17254564342E+03 0.  0.
        -24    2    3    3    0    0  0.17195716207E+02  0.29721416709E+02  0.12204628557E+03  0.14905046639E+03  0.78368937997E+02 0.  0.
          6    2    1    2  502    0  0.89314738758E+02 -0.63695732231E+02  0.29292489310E+03  0.35721607578E+03  0.17252264471E+03 0.  0.
         24    2    5    5    0    0  0.10250113780E+03  0.37075792870E+01  0.14983820192E+03  0.19843012327E+03  0.80017483535E+02 0.  0.
          2    1    6    6  501    0  0.70951158883E+01  0.28820223068E+02  0.21971178456E+02  0.36928019306E+02  0.00000000000E+00 0. -1.
         -1    1    6    6    0  501  0.95406021915E+02 -0.25112643781E+02  0.12786702346E+03  0.16150210396E+03  0.00000000000E+00 0.  1.
          5    1    5    5  502    0 -0.13186399045E+02 -0.67403311518E+02  0.14308669118E+03  0.15878595252E+03  0.47000000000E+01 0. -1.
         13    1    4    4    0    0  0.32766838733E+02 -0.44043605293E+00  0.10702819398E+03  0.11193254223E+03  0.00000000000E+00 0. -1.
        -14    1    4    4    0    0 -0.15571122525E+02  0.30161852761E+02  0.15018091592E+02  0.37117924157E+02  0.00000000000E+00 0.  1.
         -5    1    3    3    0  504 -0.10651045497E+03  0.33974315522E+02  0.73541987779E+02  0.13390013106E+03  0.47000000000E+01 0.  1.
<mgrwt>
<rscale>  2 0.20446096E+03</rscale>
<asrwt>0</asrwt>
<pdfrwt beam="1">  1       21 0.86821523E-01 0.20446581E+03</pdfrwt>
<pdfrwt beam="2">  1       21 0.11665655E-01 0.20446581E+03</pdfrwt>
<totfact> 0.70064326E+04</totfact>
</mgrwt>
</event>
<event>
12    1  0.2736842E-001  0.2145044E+03  0.7546771E-02  0.1138850E+00
         21   -1    0    0  502  503  0.00000000000E+00  0.00000000000E+00  0.20620023015E+03  0.20620023015E+03  0.00000000000E+00 0. -1.
         21   -1    0    0  503  504 -0.00000000000E+00 -0.00000000000E+00 -0.21888297560E+03  0.21888297560E+03  0.00000000000E+00 0.  1.
         -6    2    1    2    0  504  0.11794990077E+03 -0.19289049329E+02 -0.52560797366E+01  0.21456879171E+03  0.17812325364E+03 0.  0.
        -24    2    3    3    0    0  0.10505491767E+03 -0.67857003786E+01  0.61063238857E+02  0.14569966697E+03  0.80106756011E+02 0.  0.
          6    2    1    2  502    0 -0.11794990077E+03  0.19289049329E+02 -0.74266657111E+01  0.21051441404E+03  0.17313843201E+03 0.  0.
         24    2    5    5    0    0  0.90407387874E+01  0.19868169833E+02  0.11059503279E+02  0.82097957310E+02  0.78366337489E+02 0.  0.
          4    1    6    6  501    0  0.33828174893E+02 -0.16193726257E+02  0.32248293966E+01  0.37642817527E+02  0.00000000000E+00 0. -1.
         -3    1    6    6    0  501 -0.24787436106E+02  0.36061896091E+02  0.78346738820E+01  0.44455139784E+02  0.00000000000E+00 0.  1.
          5    1    5    5  502    0 -0.12699063956E+03 -0.57912050385E+00 -0.18486168990E+02  0.12841645673E+03  0.47000000000E+01 0. -1.
         13    1    4    4    0    0  0.64132578895E+02  0.26191682145E+02  0.59270403885E+01  0.69527848357E+02  0.00000000000E+00 0. -1.
        -14    1    4    4    0    0  0.40922338773E+02 -0.32977382524E+02  0.55136198469E+02  0.76171818610E+02  0.00000000000E+00 0.  1.
         -5    1    3    3    0  504  0.12894983100E+02 -0.12503348951E+02 -0.66319318594E+02  0.68869124743E+02  0.47000000000E+01 0.  1.
<mgrwt>
<rscale>  2 0.21346664E+03</rscale>
<asrwt>0</asrwt>
<pdfrwt beam="1">  1       21 0.31723112E-01 0.21450441E+03</pdfrwt>
<pdfrwt beam="2">  1       21 0.33674304E-01 0.21450441E+03</pdfrwt>
<totfact> 0.80412613E+04</totfact>
</mgrwt>
</event>
<event>
12    1  0.2736842E-001  0.2023204E+03  0.7546771E-02  0.1148118E+00
         21   -1    0    0  502  503  0.00000000000E+00  0.00000000000E+00  0.49608915725E+03  0.49608915725E+03  0.00000000000E+00 0. -1.
         21   -1    0    0  503  504 -0.00000000000E+00 -0.00000000000E+00 -0.16480071165E+03  0.16480071165E+03  0.00000000000E+00 0. -1.
         -6    2    1    2    0  504  0.49435771997E+00  0.10190330358E+03  0.39971907419E+03  0.44731011372E+03  0.17299269320E+03 0.  0.
        -24    2    3    3    0    0 -0.28261238788E+02  0.38807443615E+02  0.88117321582E+02  0.12805204554E+03  0.79548404799E+02 0.  0.
          6    2    1    2  502    0 -0.49435771997E+00 -0.10190330358E+03 -0.68430628581E+02  0.21357975518E+03  0.17478281730E+03 0.  0.
         24    2    5    5    0    0  0.19157506361E+02 -0.10250841657E+02 -0.84106637579E+02  0.11842621190E+03  0.80490691241E+02 0.  0.
          2    1    6    6  501    0  0.32853890727E+02 -0.36216973389E+02 -0.71160196667E+02  0.86341304641E+02  0.00000000000E+00 0. -1.
         -1    1    6    6    0  501 -0.13696384366E+02  0.25966131732E+02 -0.12946440912E+02  0.32084907264E+02  0.00000000000E+00 0.  1.
          5    1    5    5  502    0 -0.19651864081E+02 -0.91652461928E+02  0.15676008998E+02  0.95153543273E+02  0.47000000000E+01 0. -1.
         11    1    4    4    0    0 -0.15445390871E+02  0.11277994327E+02  0.95007946341E+02  0.96913689039E+02  0.00000000000E+00 0. -1.
        -12    1    4    4    0    0 -0.12815847917E+02  0.27529449288E+02 -0.68906247592E+01  0.31138356500E+02  0.00000000000E+00 0.  1.
         -5    1    3    3    0  504  0.28755596508E+02  0.63095859970E+02  0.31160175260E+03  0.31925806819E+03  0.47000000000E+01 0.  1.
<mgrwt>
<rscale>  2 0.20193322E+03</rscale>
<asrwt>0</asrwt>
<pdfrwt beam="1">  1       21 0.76321408E-01 0.20232044E+03</pdfrwt>
<pdfrwt beam="2">  1       21 0.25353956E-01 0.20232044E+03</pdfrwt>
<totfact> 0.22416718E+04</totfact>
</mgrwt>
</event>
<event>
12    1  0.2736842E-001  0.2553792E+03  0.7546771E-02  0.1109979E+00
         21   -1    0    0  502  503  0.00000000000E+00  0.00000000000E+00  0.36215833998E+03  0.36215833998E+03  0.00000000000E+00 0. -1.
         21   -1    0    0  503  504 -0.00000000000E+00 -0.00000000000E+00 -0.19968119868E+03  0.19968119868E+03  0.00000000000E+00 0.  1.
         -6    2    1    2    0  504 -0.17273849737E+03  0.73561857035E+02 -0.70239162044E+01  0.25547579376E+03  0.17311444341E+03 0.  0.
        -24    2    3    3    0    0 -0.18995901430E+03  0.28363707602E+02 -0.10359486002E+02  0.20676609307E+03  0.75868117618E+02 0.  0.
          6    2    1    2  502    0  0.17273849737E+03 -0.73561857035E+02  0.16950105750E+03  0.30636374489E+03  0.17285311801E+03 0.  0.
         24    2    5    5    0    0  0.15914475659E+03 -0.20220816949E+02  0.69998730003E+02  0.19255311479E+03  0.80255497167E+02 0.  0.
          2    1    6    6  501    0  0.59838677406E+02 -0.55284883075E+01  0.69880879680E+02  0.92165985274E+02  0.00000000000E+00 0. -1.
         -1    1    6    6    0  501  0.99306079187E+02 -0.14692328642E+02  0.11785032256E+00  0.10038712952E+03  0.00000000000E+00 0.  1.
          5    1    5    5  502    0  0.13593740775E+02 -0.53341040086E+02  0.99502327501E+02  0.11381063010E+03  0.47000000000E+01 0. -1.
         13    1    4    4    0    0 -0.18140532867E+02  0.28118407981E+02 -0.10078864177E+02  0.34947207373E+02  0.00000000000E+00 0. -1.
        -14    1    4    4    0    0 -0.17181848144E+03  0.24529962179E+00 -0.28062182478E+00  0.17181888570E+03  0.00000000000E+00 0.  1.
         -5    1    3    3    0  504  0.17220516934E+02  0.45198149433E+02  0.33355697977E+01  0.48709700692E+02  0.47000000000E+01 0.  1.
<mgrwt>
<rscale>  2 0.25533494E+03</rscale>
<asrwt>0</asrwt>
<pdfrwt beam="1">  1       21 0.55716667E-01 0.25537922E+03</pdfrwt>
<pdfrwt beam="2">  1       21 0.30720185E-01 0.25537922E+03</pdfrwt>
<totfact> 0.29931084E+04</totfact>
</mgrwt>
</event>
<event>
12    1  0.2736842E-001  0.2698234E+03  0.7546771E-02  0.1101539E+00
         21   -1    0    0  502  503  0.00000000000E+00  0.00000000000E+00  0.29359037779E+03  0.29359037779E+03  0.00000000000E+00 0.  1.
         21   -1    0    0  503  504 -0.00000000000E+00 -0.00000000000E+00 -0.27363508751E+03  0.27363508751E+03  0.00000000000E+00 0. -1.
         -6    2    1    2    0  504 -0.17887419391E+03 -0.10200108811E+03 -0.78539259328E+02  0.28102152115E+03  0.17436880705E+03 0.  0.
        -24    2    3    3    0    0 -0.19413309786E+03 -0.10469239139E+03 -0.39336786557E+02  0.23860688766E+03  0.82083540128E+02 0.  0.
          6    2    1    2  502    0  0.17887419391E+03  0.10200108811E+03  0.98494549606E+02  0.28620394414E+03  0.17265955554E+03 0.  0.
         24    2    5    5    0    0  0.34960892423E+02  0.24310564486E+02 -0.12057442254E+02  0.88743343745E+02  0.76920293816E+02 0.  0.
          2    1    6    6  501    0  0.22522380675E+02  0.22110430970E+02 -0.44140411343E+02  0.54263290561E+02  0.00000000000E+00 0. -1.
         -1    1    6    6    0  501  0.12438511748E+02  0.22001335162E+01  0.32082969089E+02  0.34480053184E+02  0.00000000000E+00 0.  1.
          5    1    5    5  502    0  0.14391330149E+03  0.77690523620E+02  0.11055199186E+03  0.19746060040E+03  0.47000000000E+01 0. -1.
         11    1    4    4    0    0 -0.54258851490E+02 -0.15139102830E+02 -0.45492012540E+02  0.72406758002E+02  0.00000000000E+00 0. -1.
        -12    1    4    4    0    0 -0.13987424637E+03 -0.89553288558E+02  0.61552259835E+01  0.16620012965E+03  0.00000000000E+00 0.  1.
         -5    1    3    3    0  504  0.15258903952E+02  0.26913032826E+01 -0.39202472772E+02  0.42414633496E+02  0.47000000000E+01 0.  1.
<mgrwt>
<rscale>  2 0.26954765E+03</rscale>
<asrwt>0</asrwt>
<pdfrwt beam="1">  1       21 0.45167750E-01 0.26982342E+03</pdfrwt>
<pdfrwt beam="2">  1       21 0.42097706E-01 0.26982342E+03</pdfrwt>
<totfact> 0.24569196E+04</totfact>
</mgrwt>
</event>
<event>
12    1  0.2736842E-001  0.1992865E+03  0.7546771E-02  0.1151406E+00
         21   -1    0    0  502  503  0.00000000000E+00  0.00000000000E+00  0.16987481284E+03  0.16987481284E+03  0.00000000000E+00 0.  1.
         21   -1    0    0  503  504 -0.00000000000E+00 -0.00000000000E+00 -0.49037374043E+03  0.49037374043E+03  0.00000000000E+00 0.  1.
         -6    2    1    2    0  504  0.45614939193E+02 -0.82667917261E+02 -0.40264755300E+03  0.44926626736E+03  0.17550048384E+03 0.  0.
        -24    2    3    3    0    0 -0.18915113053E+02 -0.48903811370E+02 -0.33766159818E+03  0.35154520098E+03  0.82579108623E+02 0.  0.
          6    2    1    2  502    0 -0.45614939193E+02  0.82667917261E+02  0.82148625402E+02  0.21098228591E+03  0.16985411708E+03 0.  0.
         24    2    5    5    0    0 -0.13183190771E+02  0.77978191464E+02  0.11756938017E+03  0.16250000356E+03  0.79556879917E+02 0.  0.
          4    1    6    6  501    0  0.30077198290E+02  0.56020646110E+02  0.69697455721E+02  0.94343446945E+02  0.00000000000E+00 0. -1.
         -3    1    6    6    0  501 -0.43260389061E+02  0.21957545353E+02  0.47871924445E+02  0.68156556616E+02  0.00000000000E+00 0.  1.
          5    1    5    5  502    0 -0.32431748422E+02  0.46897257973E+01 -0.35420754763E+02  0.48482282349E+02  0.47000000000E+01 0. -1.
         11    1    4    4    0    0 -0.27345508506E+02 -0.31067104204E+02 -0.58350718754E+02  0.71538438466E+02  0.00000000000E+00 0. -1.
        -12    1    4    4    0    0  0.84303954529E+01 -0.17836707166E+02 -0.27931087942E+03  0.28000676252E+03  0.00000000000E+00 0.  1.
         -5    1    3    3    0  504  0.64530052247E+02 -0.33764105891E+02 -0.64985954820E+02  0.97721066374E+02  0.47000000000E+01 0.  1.
<mgrwt>
<rscale>  2 0.19803632E+03</rscale>
<asrwt>0</asrwt>
<pdfrwt beam="1">  1       21 0.26134587E-01 0.19928655E+03</pdfrwt>
<pdfrwt beam="2">  1       21 0.75442112E-01 0.19928655E+03</pdfrwt>
<totfact> 0.21746298E+04</totfact>
</mgrwt>
</event>
<event>
12    1  0.2736842E-001  0.3062152E+03  0.7546771E-02  0.1082233E+00
         21   -1    0    0  502  503  0.00000000000E+00  0.00000000000E+00  0.85304067415E+03  0.85304067415E+03  0.00000000000E+00 0. -1.
         21   -1    0    0  503  504 -0.00000000000E+00 -0.00000000000E+00 -0.13063677751E+03  0.13063677751E+03  0.00000000000E+00 0. -1.
         -6    2    1    2    0  504  0.88569659465E+02  0.23698040466E+03  0.55810839819E+03  0.63659466088E+03  0.17252095917E+03 0.  0.
        -24    2    3    3    0    0  0.10775240045E+03  0.11669804318E+03  0.27033262832E+03  0.32406816958E+03  0.81923351475E+02 0.  0.
          6    2    1    2  502    0 -0.88569659465E+02 -0.23698040466E+03  0.16429549845E+03  0.34708279079E+03  0.17166582677E+03 0.  0.
         24    2    5    5    0    0 -0.13667232136E+02 -0.73225202286E+02  0.11894734832E+03  0.16132842437E+03  0.79559194020E+02 0.  0.
          4    1    6    6  501    0 -0.20332216483E+02 -0.77820394305E+02  0.12672935826E+03  0.15009911073E+03  0.00000000000E+00 0. -1.
         -3    1    6    6    0  501  0.66649843464E+01  0.45951920186E+01 -0.77820099430E+01  0.11229313638E+02  0.00000000000E+00 0.  1.
          5    1    5    5  502    0 -0.74902427329E+02 -0.16375520237E+03  0.45348150131E+02  0.18575436642E+03  0.47000000000E+01 0. -1.
         11    1    4    4    0    0  0.74180263200E+02  0.58048358294E+02  0.22148953079E+03  0.24068638432E+03  0.00000000000E+00 0. -1.
        -12    1    4    4    0    0  0.33572137252E+02  0.58649684881E+02  0.48843097529E+02  0.83381785257E+02  0.00000000000E+00 0.  1.
         -5    1    3    3    0  504 -0.19182740987E+02  0.12028236148E+03  0.28777576987E+03  0.31252649130E+03  0.47000000000E+01 0.  1.
<mgrwt>
<rscale>  2 0.30609494E+03</rscale>
<asrwt>0</asrwt>
<pdfrwt beam="1">  1       21 0.13123702E+00 0.30621525E+03</pdfrwt>
<pdfrwt beam="2">  1       21 0.20097966E-01 0.30621525E+03</pdfrwt>
<totfact> 0.90163115E+03</totfact>
</mgrwt>
</event>
<event>
12    1  0.2736842E-001  0.1985181E+03  0.7546771E-02  0.1151056E+00
         21   -1    0    0  502  503  0.00000000000E+00  0.00000000000E+00  0.92363503619E+03  0.92363503619E+03  0.00000000000E+00 0. -1.
         21   -1    0    0  503  504 -0.00000000000E+00 -0.00000000000E+00 -0.66802161188E+02  0.66802161188E+02  0.00000000000E+00 0. -1.
         -6    2    1    2    0  504  0.14062947019E+02 -0.95573248872E+02  0.13018493212E+03  0.23715992405E+03  0.17310315031E+03 0.  0.
        -24    2    3    3    0    0 -0.27626232405E+02 -0.14066048644E+02  0.11739547321E+02  0.87384056333E+02  0.80852296743E+02 0.  0.
          6    2    1    2  502    0 -0.14062947019E+02  0.95573248872E+02  0.72664794288E+03  0.75327727333E+03  0.17342838649E+03 0.  0.
         24    2    5    5    0    0  0.23710648497E+02 -0.74161121622E+01  0.23673328745E+03  0.25120943667E+03  0.80289090862E+02 0.  0.
          4    1    6    6  501    0  0.18105490781E+02 -0.34556765153E+02  0.20667586573E+03  0.21032568148E+03  0.00000000000E+00 0. -1.
         -3    1    6    6    0  501  0.56051577159E+01  0.27140652991E+02  0.30057421722E+02  0.40883755189E+02  0.00000000000E+00 0.  1.
          5    1    5    5  502    0 -0.37773595515E+02  0.10298936103E+03  0.48991465542E+03  0.50206783665E+03  0.47000000000E+01 0. -1.
         11    1    4    4    0    0 -0.37533561090E+02 -0.28286812178E+02  0.34840394790E+02  0.58504402060E+02  0.00000000000E+00 0. -1.
        -12    1    4    4    0    0  0.99073286847E+01  0.14220763534E+02 -0.23100847469E+02  0.28879654273E+02  0.00000000000E+00 0.  1.
         -5    1    3    3    0  504  0.41689179424E+02 -0.81507200228E+02  0.11844538480E+03  0.14977586772E+03  0.47000000000E+01 0.  1.
<mgrwt>
<rscale>  2 0.19844700E+03</rscale>
<asrwt>0</asrwt>
<pdfrwt beam="1">  1       21 0.14209769E+00 0.19851805E+03</pdfrwt>
<pdfrwt beam="2">  1       21 0.10277256E-01 0.19851805E+03</pdfrwt>
<totfact> 0.26521643E+04</totfact>
</mgrwt>
</event>
<event>
12    1  0.2736842E-001  0.2051293E+03  0.7546771E-02  0.1147652E+00
         21   -1    0    0  502  503  0.00000000000E+00  0.00000000000E+00  0.82409610230E+02  0.82409610230E+02  0.00000000000E+00 0. -1.
         21   -1    0    0  503  504 -0.00000000000E+00 -0.00000000000E+00 -0.16737134964E+04  0.16737134964E+04  0.00000000000E+00 0. -1.
         -6    2    1    2    0  504  0.87129743239E+02 -0.22280439960E+02 -0.15414708857E+04  0.15550596545E+04  0.18436384557E+03 0.  0.
        -24    2    3    3    0    0  0.96421375040E+02  0.44203216511E+02 -0.11549256589E+04  0.11627004908E+04  0.82268753684E+02 0.  0.
          6    2    1    2  502    0 -0.87129743239E+02  0.22280439960E+02 -0.49833000497E+02  0.20106345212E+03  0.17278649738E+03 0.  0.
         24    2    5    5    0    0 -0.22538409657E+02 -0.25707435019E+02 -0.76290668992E+02  0.11622846676E+03  0.80746134178E+02 0.  0.
          2    1    6    6  501    0 -0.50442289015E+02 -0.29555987460E+02 -0.59597243154E+02  0.83485401762E+02  0.00000000000E+00 0. -1.
         -1    1    6    6    0  501  0.27903879358E+02  0.38485524409E+01 -0.16693425838E+02  0.32743064996E+02  0.00000000000E+00 0.  1.
          5    1    5    5  502    0 -0.64591333582E+02  0.47987874979E+02  0.26457668494E+02  0.84834985360E+02  0.47000000000E+01 0. -1.
         11    1    4    4    0    0  0.97633948014E+02  0.32426206033E+02 -0.69030027385E+03  0.69792429010E+03  0.00000000000E+00 0. -1.
        -12    1    4    4    0    0 -0.12125729741E+01  0.11777010478E+02 -0.46462538508E+03  0.46477620074E+03  0.00000000000E+00 0.  1.
         -5    1    3    3    0  504 -0.92916318010E+01 -0.66483656471E+02 -0.38654522678E+03  0.39235916371E+03  0.47000000000E+01 0.  1.
<mgrwt>
<rscale>  2 0.20249417E+03</rscale>
<asrwt>0</asrwt>
<pdfrwt beam="1">  1       21 0.12678401E-01 0.20512932E+03</pdfrwt>
<pdfrwt beam="2">  1       21 0.25749439E+00 0.20512932E+03</pdfrwt>
<totfact> 0.31525428E+03</totfact>
</mgrwt>
</event>
<event>
12    1  0.2736842E-001  0.1891728E+03  0.7546771E-02  0.1159287E+00
         21   -1    0    0  502  503  0.00000000000E+00  0.00000000000E+00  0.34426250189E+03  0.34426250189E+03  0.00000000000E+00 0. -1.
         21   -1    0    0  503  504 -0.00000000000E+00 -0.00000000000E+00 -0.10708200684E+03  0.10708200684E+03  0.00000000000E+00 0. -1.
         -6    2    1    2    0  504  0.18599486396E+01  0.76336467316E+02  0.78758855445E+02  0.20459814440E+03  0.17270416245E+03 0.  0.
        -24    2    3    3    0    0 -0.22975020197E+02 -0.14325345904E+01  0.58357279341E+02  0.12031820822E+03  0.10266935019E+03 0.  0.
          6    2    1    2  502    0 -0.18599486396E+01 -0.76336467316E+02  0.15842163961E+03  0.24674636434E+03  0.17307696776E+03 0.  0.
         24    2    5    5    0    0  0.13939650667E+02 -0.36201168368E+02  0.17714368750E+03  0.19949094521E+03  0.83137914027E+02 0.  0.
          2    1    6    6  501    0 -0.18180551670E+02 -0.41481855141E+02  0.15128347030E+03  0.15791758975E+03  0.00000000000E+00 0. -1.
         -1    1    6    6    0  501  0.32120202338E+02  0.52806867724E+01  0.25860217194E+02  0.41573355461E+02  0.00000000000E+00 0.  1.
          5    1    5    5  502    0 -0.15799599307E+02 -0.40135298947E+02 -0.18722047892E+02  0.47255419130E+02  0.47000000000E+01 0. -1.
         11    1    4    4    0    0 -0.55246661098E+02  0.17658026259E+02  0.95658098545E+01  0.58783536572E+02  0.00000000000E+00 0. -1.
        -12    1    4    4    0    0  0.32271640900E+02 -0.19090560849E+02  0.48791469486E+02  0.61534671646E+02  0.00000000000E+00 0.  1.
         -5    1    3    3    0  504  0.24834968837E+02  0.77769001906E+02  0.20401576104E+02  0.84279936178E+02  0.47000000000E+01 0.  1.
<mgrwt>
<rscale>  2 0.18908750E+03</rscale>
<asrwt>0</asrwt>
<pdfrwt beam="1">  1       21 0.52963462E-01 0.18917281E+03</pdfrwt>
<pdfrwt beam="2">  1       21 0.16474155E-01 0.18917281E+03</pdfrwt>
<totfact> 0.11177625E+05</totfact>
</mgrwt>
</event>
<event>
12    1  0.2736842E-001  0.2672431E+03  0.7546771E-02  0.1103031E+00
         21   -1    0    0  502  503  0.00000000000E+00  0.00000000000E+00  0.10173689450E+04  0.10173689450E+04  0.00000000000E+00 0.  1.
         21   -1    0    0  503  504 -0.00000000000E+00 -0.00000000000E+00 -0.80456703349E+02  0.80456703349E+02  0.00000000000E+00 0.  1.
         -6    2    1    2    0  504  0.19245785658E+03 -0.61407034693E+02  0.27052591748E+03  0.38026723423E+03  0.17495155595E+03 0.  0.
        -24    2    3    3    0    0  0.21369516187E+03 -0.65658761125E+02  0.26859348596E+03  0.35802033320E+03  0.77842168280E+02 0.  0.
          6    2    1    2  502    0 -0.19245785658E+03  0.61407034693E+02  0.66638632421E+03  0.71755841416E+03  0.17322959957E+03 0.  0.
         24    2    5    5    0    0 -0.14962240453E+03  0.31577529596E+02  0.29080762029E+03  0.33834062955E+03  0.80754599068E+02 0.  0.
          4    1    6    6  501    0 -0.94299176113E+02 -0.74776591931E+01  0.10896176823E+03  0.14429454923E+03  0.00000000000E+00 0. -1.
         -3    1    6    6    0  501 -0.55323228421E+02  0.39055188789E+02  0.18184585206E+03  0.19404608031E+03  0.00000000000E+00 0.  1.
          5    1    5    5  502    0 -0.42835452045E+02  0.29829505098E+02  0.37557870393E+03  0.37921778461E+03  0.47000000000E+01 0. -1.
         13    1    4    4    0    0  0.35679409264E+02 -0.44354570746E+02  0.75074624107E+02  0.94215430670E+02  0.00000000000E+00 0. -1.
        -14    1    4    4    0    0  0.17801575261E+03 -0.21304190378E+02  0.19351886185E+03  0.26380490253E+03  0.00000000000E+00 0.  1.
         -5    1    3    3    0  504 -0.21237305296E+02  0.42517264315E+01  0.19324315207E+01  0.22246901030E+02  0.47000000000E+01 0.  1.
<mgrwt>
<rscale>  2 0.26696167E+03</rscale>
<asrwt>0</asrwt>
<pdfrwt beam="1">  1       21 0.15651829E+00 0.26724314E+03</pdfrwt>
<pdfrwt beam="2">  1       21 0.12377955E-01 0.26724314E+03</pdfrwt>
<totfact> 0.14140455E+04</totfact>
</mgrwt>
</event>
<event>
12    1  0.2736842E-001  0.1886786E+03  0.7546771E-02  0.1160231E+00
         21   -1    0    0  502  503  0.00000000000E+00  0.00000000000E+00  0.79778076941E+02  0.79778076941E+02  0.00000000000E+00 0.  1.
         21   -1    0    0  503  504 -0.00000000000E+00 -0.00000000000E+00 -0.61755942922E+03  0.61755942922E+03  0.00000000000E+00 0.  1.
         -6    2    1    2    0  504 -0.25536406049E+02 -0.68535889741E+02 -0.45438560371E+03  0.49105015958E+03  0.17121537941E+03 0.  0.
        -24    2    3    3    0    0  0.12425227143E+02 -0.68009087194E+02 -0.43588755850E+03  0.44855744501E+03  0.80163555320E+02 0.  0.
          6    2    1    2  502    0  0.25536406049E+02  0.68535889741E+02 -0.83395748566E+02  0.20628734658E+03  0.17392625525E+03 0.  0.
         24    2    5    5    0    0  0.73704130964E+02  0.22748538475E+02 -0.86150718772E+02  0.13960683128E+03  0.78219729429E+02 0.  0.
          2    1    6    6  501    0  0.67190153760E+01  0.24625206581E+02 -0.64205839778E+02  0.69093674301E+02  0.00000000000E+00 0. -1.
         -1    1    6    6    0  501  0.66985115588E+02 -0.18766681066E+01 -0.21944878994E+02  0.70513156982E+02  0.00000000000E+00 0.  1.
          5    1    5    5  502    0 -0.48167724915E+02  0.45787351267E+02  0.27549702060E+01  0.66680515297E+02  0.47000000000E+01 0. -1.
         13    1    4    4    0    0  0.24190408011E+02 -0.57096689577E+02 -0.15125045055E+03  0.16346836572E+03  0.00000000000E+00 0. -1.
        -14    1    4    4    0    0 -0.11765180868E+02 -0.10912397617E+02 -0.28463710795E+03  0.28508907928E+03  0.00000000000E+00 0.  1.
         -5    1    3    3    0  504 -0.37961633191E+02 -0.52680254764E+00 -0.18498045211E+02  0.42492714577E+02  0.47000000000E+01 0.  1.
<mgrwt>
<rscale>  2 0.18805150E+03</rscale>
<asrwt>0</asrwt>
<pdfrwt beam="1">  1       21 0.12273550E-01 0.18867861E+03</pdfrwt>
<pdfrwt beam="2">  1       21 0.95009147E-01 0.18867861E+03</pdfrwt>
<totfact> 0.52299446E+04</totfact>
</mgrwt>
</event>
<event>
12    1  0.2736842E-001  0.2430398E+03  0.7546771E-02  0.1117853E+00
         21   -1    0    0  502  503  0.00000000000E+00  0.00000000000E+00  0.68281298897E+03  0.68281298897E+03  0.00000000000E+00 0. -1.
         21   -1    0    0  503  504 -0.00000000000E+00 -0.00000000000E+00 -0.11491175005E+03  0.11491175005E+03  0.00000000000E+00 0.  1.
         -6    2    1    2    0  504  0.16384327010E+03 -0.48087293689E+02  0.48295769129E+03  0.54066300754E+03  0.17294898433E+03 0.  0.
        -24    2    3    3    0    0  0.90108762461E+02 -0.93206965954E+02  0.24979580266E+03  0.29194807283E+03  0.77644102335E+02 0.  0.
          6    2    1    2  502    0 -0.16384327010E+03  0.48087293689E+02  0.84943547637E+02  0.25706173148E+03  0.17236102383E+03 0.  0.
         24    2    5    5    0    0 -0.16505916250E+03  0.41858035372E+02  0.11875466012E+03  0.22234050771E+03  0.79599056644E+02 0.  0.
          2    1    6    6  501    0 -0.99669824018E+02 -0.11298431942E+02  0.85299602432E+02  0.13167289227E+03  0.00000000000E+00 0. -1.
         -1    1    6    6    0  501 -0.65389338480E+02  0.53156467314E+02  0.33455057683E+02  0.90667615436E+02  0.00000000000E+00 0.  1.
          5    1    5    5  502    0  0.12158923957E+01  0.62292583174E+01 -0.33811112478E+02  0.34721223776E+02  0.47000000000E+01 0. -1.
         13    1    4    4    0    0  0.56301755688E+02 -0.98475792771E+02  0.21534066201E+03  0.24339057124E+03  0.00000000000E+00 0. -1.
        -14    1    4    4    0    0  0.33807006773E+02  0.52688268176E+01  0.34455140651E+02  0.48557501586E+02  0.00000000000E+00 0.  1.
         -5    1    3    3    0  504  0.73734507642E+02  0.45119672264E+02  0.23316188862E+03  0.24871493471E+03  0.47000000000E+01 0.  1.
<mgrwt>
<rscale>  2 0.24293525E+03</rscale>
<asrwt>0</asrwt>
<pdfrwt beam="1">  1       21 0.10504815E+00 0.24303982E+03</pdfrwt>
<pdfrwt beam="2">  1       21 0.17678731E-01 0.24303982E+03</pdfrwt>
<totfact> 0.20580000E+04</totfact>
</mgrwt>
</event>
<event>
12    1  0.2736842E-001  0.2985459E+03  0.7546771E-02  0.1086091E+00
         21   -1    0    0  502  503  0.00000000000E+00  0.00000000000E+00  0.19214173375E+03  0.19214173375E+03  0.00000000000E+00 0.  1.
         21   -1    0    0  503  504 -0.00000000000E+00 -0.00000000000E+00 -0.47051196094E+03  0.47051196094E+03  0.00000000000E+00 0. -1.
         -6    2    1    2    0  504 -0.22844036376E+03 -0.83983528367E+02 -0.18295585214E+03  0.35014636457E+03  0.17289129521E+03 0.  0.
        -24    2    3    3    0    0 -0.13206569394E+03 -0.84465580867E+02 -0.18053101598E+03  0.25362549020E+03  0.84608862914E+02 0.  0.
          6    2    1    2  502    0  0.22844036376E+03  0.83983528367E+02 -0.95414375052E+02  0.31250733012E+03  0.17122702936E+03 0.  0.
         24    2    5    5    0    0  0.16232188181E+03  0.10113678480E+03 -0.16836499847E+02  0.20828420249E+03  0.80757654292E+02 0.  0.
          4    1    6    6  501    0  0.63547577058E+02 -0.32001938682E+01 -0.19330240160E-01  0.63628108289E+02  0.00000000000E+00 0. -1.
         -3    1    6    6    0  501  0.98774304753E+02  0.10433697867E+03 -0.16817169607E+02  0.14465609420E+03  0.00000000000E+00 0.  1.
          5    1    5    5  502    0  0.66118481949E+02 -0.17153256431E+02 -0.78577875205E+02  0.10422312763E+03  0.47000000000E+01 0. -1.
         13    1    4    4    0    0 -0.63073447480E+02  0.27613353859E+01 -0.41354923623E+02  0.75472607335E+02  0.00000000000E+00 0. -1.
        -14    1    4    4    0    0 -0.68992246457E+02 -0.87226916253E+02 -0.13917609236E+03  0.17815288287E+03  0.00000000000E+00 0.  1.
         -5    1    3    3    0  504 -0.96374669822E+02  0.48205249959E+00 -0.24248361532E+01  0.96520874366E+02  0.47000000000E+01 0.  1.
<mgrwt>
<rscale>  2 0.29830540E+03</rscale>
<asrwt>0</asrwt>
<pdfrwt beam="1">  1       21 0.29560267E-01 0.29854586E+03</pdfrwt>
<pdfrwt beam="2">  1       21 0.72386455E-01 0.29854586E+03</pdfrwt>
<totfact> 0.17878311E+04</totfact>
</mgrwt>
</event>
<event>
12    1  0.2736842E-001  0.1732601E+03  0.7546771E-02  0.1174665E+00
         21   -1    0    0  502  503  0.00000000000E+00  0.00000000000E+00  0.61721619490E+02  0.61721619490E+02  0.00000000000E+00 0.  1.
         21   -1    0    0  503  504 -0.00000000000E+00 -0.00000000000E+00 -0.64437873329E+03  0.64437873329E+03  0.00000000000E+00 0.  1.
         -6    2    1    2    0  504 -0.17885548256E+02  0.11487275513E+02 -0.46678594502E+03  0.49766521463E+03  0.17125915172E+03 0.  0.
        -24    2    3    3    0    0 -0.27086166232E+02 -0.20694858261E+02 -0.45281430445E+03  0.46109148300E+03  0.80016397194E+02 0.  0.
          6    2    1    2  502    0  0.17885548256E+02 -0.11487275513E+02 -0.11587116878E+03  0.20843513815E+03  0.17195123939E+03 0.  0.
         24    2    5    5    0    0 -0.19925804547E+02  0.41338133496E+01 -0.22951268495E+01  0.87624028899E+02  0.85197281257E+02 0.  0.
          4    1    6    6  501    0 -0.69239279522E+01  0.31072606369E+02 -0.32232976526E+02  0.45303558586E+02  0.00000000000E+00 0. -1.
         -3    1    6    6    0  501 -0.13001876594E+02 -0.26938793019E+02  0.29937849676E+02  0.42320470313E+02  0.00000000000E+00 0.  1.
          5    1    5    5  502    0  0.37811352802E+02 -0.15621088862E+02 -0.11357604193E+03  0.12081110925E+03  0.47000000000E+01 0. -1.
         13    1    4    4    0    0  0.23470393614E+02  0.12403767066E+02 -0.13746003080E+03  0.13999990315E+03  0.00000000000E+00 0. -1.
        -14    1    4    4    0    0 -0.50556559846E+02 -0.33098625327E+02 -0.31535427365E+03  0.32109157985E+03  0.00000000000E+00 0.  1.
         -5    1    3    3    0  504  0.92006179763E+01  0.32182133773E+02 -0.13971640573E+02  0.36573731634E+02  0.47000000000E+01 0.  1.
<mgrwt>
<rscale>  2 0.17308818E+03</rscale>
<asrwt>0</asrwt>
<pdfrwt beam="1">  1       21 0.94956337E-02 0.17326015E+03</pdfrwt>
<pdfrwt beam="2">  1       21 0.99135190E-01 0.17326015E+03</pdfrwt>
<totfact> 0.75156039E+04</totfact>
</mgrwt>
</event>
<event>
12    1  0.2736842E-001  0.1954479E+03  0.7546771E-02  0.1153643E+00
         21   -1    0    0  502  503  0.00000000000E+00  0.00000000000E+00  0.97705862914E+02  0.97705862914E+02  0.00000000000E+00 0.  1.
         21   -1    0    0  503  504 -0.00000000000E+00 -0.00000000000E+00 -0.39124050809E+03  0.39124050809E+03  0.00000000000E+00 0. -1.
         -6    2    1    2    0  504 -0.10138350300E+02  0.90646978849E+02 -0.15378744496E+03  0.24869755805E+03  0.17285900681E+03 0.  0.
        -24    2    3    3    0    0  0.12161886430E+01  0.12767197161E+02 -0.14829094358E+03  0.16966283481E+03  0.81429682128E+02 0.  0.
          6    2    1    2  502    0  0.10138350300E+02 -0.90646978849E+02 -0.13974720022E+03  0.24024881296E+03  0.17283099038E+03 0.  0.
         24    2    5    5    0    0  0.38892816382E+02 -0.36795842606E+02 -0.14836094545E+03  0.17841798892E+03  0.83399181256E+02 0.  0.
          4    1    6    6  501    0  0.49836367305E+02 -0.52884455842E+02 -0.83453335665E+02  0.11065662388E+03  0.00000000000E+00 0. -1.
         -3    1    6    6    0  501 -0.10943550923E+02  0.16088613236E+02 -0.64907609788E+02  0.67761365033E+02  0.00000000000E+00 0.  1.
          5    1    5    5  502    0 -0.28754466082E+02 -0.53851136243E+02  0.86137452296E+01  0.61830824038E+02  0.47000000000E+01 0. -1.
         13    1    4    4    0    0 -0.43497401888E+01  0.41594320683E+02 -0.12611807171E+03  0.13287127517E+03  0.00000000000E+00 0. -1.
        -14    1    4    4    0    0  0.55659288318E+01 -0.28827123522E+02 -0.22172871868E+02  0.36791559646E+02  0.00000000000E+00 0.  1.
         -5    1    3    3    0  504 -0.11354538943E+02  0.77879781688E+02 -0.54965013792E+01  0.79034723241E+02  0.47000000000E+01 0.  1.
<mgrwt>
<rscale>  2 0.19544174E+03</rscale>
<asrwt>0</asrwt>
<pdfrwt beam="1">  1       21 0.15031671E-01 0.19544794E+03</pdfrwt>
<pdfrwt beam="2">  1       21 0.60190848E-01 0.19544794E+03</pdfrwt>
<totfact> 0.10045992E+05</totfact>
</mgrwt>
</event>
<event>
12    1  0.2736842E-001  0.1861952E+03  0.7546771E-02  0.1165257E+00
         21   -1    0    0  502  503  0.00000000000E+00  0.00000000000E+00  0.56186966814E+03  0.56186966814E+03  0.00000000000E+00 0.  1.
         21   -1    0    0  503  504 -0.00000000000E+00 -0.00000000000E+00 -0.84664030142E+02  0.84664030142E+02  0.00000000000E+00 0.  1.
         -6    2    1    2    0  504  0.15602490266E+02  0.67457931471E+02  0.48484598450E+02  0.17912556373E+03  0.15792783501E+03 0.  0.
        -24    2    3    3    0    0  0.59527764778E+02  0.78023808856E+02  0.17192342796E+02  0.12396794621E+03  0.73764527447E+02 0.  0.
          6    2    1    2  502    0 -0.15602490266E+02 -0.67457931471E+02  0.42872103955E+03  0.46740813455E+03  0.17284277329E+03 0.  0.
         24    2    5    5    0    0  0.38335835470E+02 -0.27271998552E+02  0.35621097422E+03  0.36839272281E+03  0.81323685875E+02 0.  0.
          2    1    6    6  501    0  0.39159623472E+02 -0.81493959161E+01  0.63440421507E+02  0.74997172249E+02  0.00000000000E+00 0. -1.
         -1    1    6    6    0  501 -0.82378800226E+00 -0.19122602636E+02  0.29277055271E+03  0.29339555057E+03  0.00000000000E+00 0.  1.
          5    1    5    5  502    0 -0.53938325736E+02 -0.40185932919E+02  0.72510065329E+02  0.99015411739E+02  0.47000000000E+01 0. -1.
         13    1    4    4    0    0  0.23516674189E+02  0.11583738147E+01 -0.20380973876E+02  0.31140968048E+02  0.00000000000E+00 0. -1.
        -14    1    4    4    0    0  0.36011090589E+02  0.76865435041E+02  0.37573316672E+02  0.92826978165E+02  0.00000000000E+00 0.  1.
         -5    1    3    3    0  504 -0.43925274512E+02 -0.10565877385E+02  0.31292255654E+02  0.55157617514E+02  0.47000000000E+01 0.  1.
<mgrwt>
<rscale>  2 0.18265651E+03</rscale>
<asrwt>0</asrwt>
<pdfrwt beam="1">  1       21 0.86441485E-01 0.18619515E+03</pdfrwt>
<pdfrwt beam="2">  1       21 0.13025236E-01 0.18619515E+03</pdfrwt>
<totfact> 0.58577227E+04</totfact>
</mgrwt>
</event>
<event>
12    1  0.2736842E-001  0.1836600E+03  0.7546771E-02  0.1164347E+00
         21   -1    0    0  502  503  0.00000000000E+00  0.00000000000E+00  0.51184878407E+03  0.51184878407E+03  0.00000000000E+00 0. -1.
         21   -1    0    0  503  504 -0.00000000000E+00 -0.00000000000E+00 -0.66322416143E+02  0.66322416143E+02  0.00000000000E+00 0. -1.
         -6    2    1    2    0  504 -0.41802652252E+02 -0.46012590899E+02  0.19821040767E+03  0.27021908251E+03  0.17281888377E+03 0.  0.
        -24    2    3    3    0    0  0.28834965377E+02  0.98521404740E+01  0.67091886139E+02  0.11108172698E+03  0.83122253241E+02 0.  0.
          6    2    1    2  502    0  0.41802652252E+02  0.46012590899E+02  0.24731596025E+03  0.30795211770E+03  0.17264038445E+03 0.  0.
         24    2    5    5    0    0  0.60089273962E+02  0.19052113016E+02  0.65414513594E+02  0.12309678454E+03  0.83066575223E+02 0.  0.
          2    1    6    6  501    0  0.50365477549E+02 -0.23480439075E+02  0.17422858222E+02  0.58237173150E+02  0.00000000000E+00 0. -1.
         -1    1    6    6    0  501  0.97237964128E+01  0.42532552091E+02  0.47991655372E+02  0.64859611388E+02  0.00000000000E+00 0.  1.
          5    1    5    5  502    0 -0.18286621709E+02  0.26960477882E+02  0.18190144666E+03  0.18485533316E+03  0.47000000000E+01 0. -1.
         13    1    4    4    0    0 -0.27426335517E+02 -0.89631257920E+01  0.17390140270E+02  0.33689144876E+02  0.00000000000E+00 0. -1.
        -14    1    4    4    0    0  0.56261300894E+02  0.18815266266E+02  0.49701745869E+02  0.77392582108E+02  0.00000000000E+00 0.  1.
         -5    1    3    3    0  504 -0.70637617629E+02 -0.55864731373E+02  0.13111852153E+03  0.15913735553E+03  0.47000000000E+01 0.  1.
<mgrwt>
<rscale>  2 0.18361797E+03</rscale>
<asrwt>0</asrwt>
<pdfrwt beam="1">  1       21 0.78745964E-01 0.18365998E+03</pdfrwt>
<pdfrwt beam="2">  1       21 0.10203449E-01 0.18365998E+03</pdfrwt>
<totfact> 0.11198813E+05</totfact>
</mgrwt>
</event>
<event>
12    1  0.2736842E-001  0.1916635E+03  0.7546771E-02  0.1157226E+00
         21   -1    0    0  502  503  0.00000000000E+00  0.00000000000E+00  0.73064402014E+03  0.73064402014E+03  0.00000000000E+00 0.  1.
         21   -1    0    0  503  504 -0.00000000000E+00 -0.00000000000E+00 -0.57538192696E+02  0.57538192696E+02  0.00000000000E+00 0.  1.
         -6    2    1    2    0  504 -0.44126314636E+02 -0.67303458860E+02  0.19281379216E+03  0.27106005833E+03  0.17268326369E+03 0.  0.
        -24    2    3    3    0    0  0.40473639594E+02 -0.29528220606E+02  0.11715648088E+03  0.15135107943E+03  0.81679109429E+02 0.  0.
          6    2    1    2  502    0  0.44126314636E+02  0.67303458860E+02  0.48029203529E+03  0.51712215451E+03  0.17394825754E+03 0.  0.
         24    2    5    5    0    0 -0.21285145665E+02  0.17579729732E+02  0.12104536670E+03  0.14856908198E+03  0.81600778168E+02 0.  0.
          2    1    6    6  501    0  0.19602639849E+02 -0.18646890765E+02  0.19799281368E+02  0.33525834322E+02  0.00000000000E+00 0. -1.
         -1    1    6    6    0  501 -0.40887785514E+02  0.36226620497E+02  0.10124608534E+03  0.11504324766E+03  0.00000000000E+00 0.  1.
          5    1    5    5  502    0  0.65411460301E+02  0.49723729128E+02  0.35924666858E+03  0.36855307252E+03  0.47000000000E+01 0. -1.
         13    1    4    4    0    0 -0.42761296116E+01  0.24140148791E+02  0.19799225619E+02  0.31512559452E+02  0.00000000000E+00 0. -1.
        -14    1    4    4    0    0  0.44749769206E+02 -0.53668369397E+02  0.97357255263E+02  0.11983851998E+03  0.00000000000E+00 0.  1.
         -5    1    3    3    0  504 -0.84599954230E+02 -0.37775238254E+02  0.75657311278E+02  0.11970897891E+03  0.47000000000E+01 0.  1.
<mgrwt>
<rscale>  2 0.19137599E+03</rscale>
<asrwt>0</asrwt>
<pdfrwt beam="1">  1       21 0.11240677E+00 0.19166346E+03</pdfrwt>
<pdfrwt beam="2">  1       21 0.88520302E-02 0.19166346E+03</pdfrwt>
<totfact> 0.62352871E+04</totfact>
</mgrwt>
</event>
<event>
12    1  0.2736842E-001  0.1978849E+03  0.7546771E-02  0.1152336E+00
         21   -1    0    0  502  503  0.00000000000E+00  0.00000000000E+00  0.35092080029E+03  0.35092080029E+03  0.00000000000E+00 0.  1.
         21   -1    0    0  503  504 -0.00000000000E+00 -0.00000000000E+00 -0.14053156579E+03  0.14053156579E+03  0.00000000000E+00 0.  1.
         -6    2    1    2    0  504  0.80120052824E+02  0.34577059866E+02  0.21986818768E+03  0.29334059545E+03  0.17347013878E+03 0.  0.
        -24    2    3    3    0    0  0.21530768831E+02 -0.36976643998E+02  0.15698270880E+03  0.18140619417E+03  0.80210910799E+02 0.  0.
          6    2    1    2  502    0 -0.80120052824E+02 -0.34577059866E+02 -0.94789531921E+01  0.19811177063E+03  0.17760525661E+03 0.  0.
         24    2    5    5    0    0 -0.52803840392E+02 -0.91622585363E+02 -0.12835465376E+02  0.13460016843E+03  0.82277046982E+02 0.  0.
          4    1    6    6  501    0 -0.33034065845E+02 -0.86328573512E+02  0.21248166584E+02  0.94843854276E+02  0.00000000000E+00 0. -1.
         -3    1    6    6    0  501 -0.19769774547E+02 -0.52940118507E+01 -0.34083631960E+02  0.39756314149E+02  0.00000000000E+00 0.  1.
          5    1    5    5  502    0 -0.27316212432E+02  0.57045525496E+02  0.33565121840E+01  0.63511602207E+02  0.47000000000E+01 0. -1.
         11    1    4    4    0    0 -0.58197104610E+01  0.14885734524E+02  0.25080119175E+01  0.16178511858E+02  0.00000000000E+00 0. -1.
        -12    1    4    4    0    0  0.27350479292E+02 -0.51862378522E+02  0.15447469688E+03  0.16522768231E+03  0.00000000000E+00 0.  1.
         -5    1    3    3    0  504  0.58589283993E+02  0.71553703865E+02  0.62885478883E+02  0.11193440128E+03  0.47000000000E+01 0.  1.
<mgrwt>
<rscale>  2 0.19695261E+03</rscale>
<asrwt>0</asrwt>
<pdfrwt beam="1">  1       21 0.53987815E-01 0.19788487E+03</pdfrwt>
<pdfrwt beam="2">  1       21 0.21620241E-01 0.19788487E+03</pdfrwt>
<totfact> 0.64552681E+04</totfact>
</mgrwt>
</event>
<event>
12    1  0.2736842E-001  0.1826934E+03  0.7546771E-02  0.1167971E+00
         21   -1    0    0  502  503  0.00000000000E+00  0.00000000000E+00  0.33537495857E+03  0.33537495857E+03  0.00000000000E+00 0.  1.
         21   -1    0    0  503  504 -0.00000000000E+00 -0.00000000000E+00 -0.10602905135E+03  0.10602905135E+03  0.00000000000E+00 0.  1.
         -6    2    1    2    0  504 -0.57169559330E+02  0.17093600462E+02  0.35680873345E+02  0.17516532170E+03  0.16077691225E+03 0.  0.
        -24    2    3    3    0    0  0.20679758376E+02 -0.16682897307E+02  0.22503198654E+02  0.89158873221E+02  0.82078859978E+02 0.  0.
          6    2    1    2  502    0  0.57169559330E+02 -0.17093600462E+02  0.19366503387E+03  0.26623868823E+03  0.17267409787E+03 0.  0.
         24    2    5    5    0    0 -0.16343223505E+02 -0.27433394741E+02  0.41290942203E+02  0.96677506358E+02  0.81375095859E+02 0.  0.
          2    1    6    6  501    0  0.20795027381E+02 -0.27143178278E+02 -0.78478789203E+01  0.35082395790E+02  0.00000000000E+00 0. -1.
         -1    1    6    6    0  501 -0.37138250887E+02 -0.29021646316E+00  0.49138821123E+02  0.61595110568E+02  0.00000000000E+00 0.  1.
          5    1    5    5  502    0  0.73512782835E+02  0.10339794278E+02  0.15237409167E+03  0.16956118187E+03  0.47000000000E+01 0. -1.
         13    1    4    4    0    0 -0.34630745073E+01 -0.12841055096E+02  0.50365612339E+02  0.52092038617E+02  0.00000000000E+00 0. -1.
        -14    1    4    4    0    0  0.24142832883E+02 -0.38418422113E+01 -0.27862413685E+02  0.37066834604E+02  0.00000000000E+00 0.  1.
         -5    1    3    3    0  504 -0.77849317706E+02  0.33776497770E+02  0.13177674692E+02  0.86006448474E+02  0.47000000000E+01 0.  1.
<mgrwt>
<rscale>  2 0.17982649E+03</rscale>
<asrwt>0</asrwt>
<pdfrwt beam="1">  1       21 0.51596147E-01 0.18269344E+03</pdfrwt>
<pdfrwt beam="2">  1       21 0.16312162E-01 0.18269344E+03</pdfrwt>
<totfact> 0.12051365E+05</totfact>
</mgrwt>
</event>
<event>
12    1  0.2736842E-001  0.1867960E+03  0.7546771E-02  0.1161580E+00
         21   -1    0    0  502  503  0.00000000000E+00  0.00000000000E+00  0.91999081868E+02  0.91999081868E+02  0.00000000000E+00 0.  1.
         21   -1    0    0  503  504 -0.00000000000E+00 -0.00000000000E+00 -0.41875637262E+03  0.41875637262E+03  0.00000000000E+00 0.  1.
         -6    2    1    2    0  504  0.46364310292E+02  0.48581151092E+02 -0.24382581212E+03  0.30715431444E+03  0.17430711033E+03 0.  0.
        -24    2    3    3    0    0 -0.29959129841E+02  0.59182466094E+02 -0.10366191841E+03  0.14713662013E+03  0.80642903594E+02 0.  0.
          6    2    1    2  502    0 -0.46364310292E+02 -0.48581151092E+02 -0.82931478633E+02  0.20360114005E+03  0.17339554946E+03 0.  0.
         24    2    5    5    0    0 -0.37102094620E+02 -0.98751615734E+02 -0.67748267804E+02  0.15016441062E+03  0.82650319963E+02 0.  0.
          4    1    6    6  501    0  0.24876644383E+02 -0.13297129216E+02 -0.18033776075E+02  0.33479518525E+02  0.00000000000E+00 0. -1.
         -3    1    6    6    0  501 -0.61978739003E+02 -0.85454486517E+02 -0.49714491729E+02  0.11668489209E+03  0.00000000000E+00 0.  1.
          5    1    5    5  502    0 -0.92622156722E+01  0.50170464642E+02 -0.15183210829E+02  0.53436729434E+02  0.47000000000E+01 0. -1.
         13    1    4    4    0    0 -0.37664438420E+02  0.32664295140E+01 -0.12321154642E+02  0.39762926640E+02  0.00000000000E+00 0. -1.
        -14    1    4    4    0    0  0.77053085787E+01  0.55916036580E+02 -0.91340763773E+02  0.10737369349E+03  0.00000000000E+00 0.  1.
         -5    1    3    3    0  504  0.76323440133E+02 -0.10601315002E+02 -0.14016389371E+03  0.16001769431E+03  0.47000000000E+01 0.  1.
<mgrwt>
<rscale>  2 0.18658306E+03</rscale>
<asrwt>0</asrwt>
<pdfrwt beam="1">  1       21 0.14153705E-01 0.18679600E+03</pdfrwt>
<pdfrwt beam="2">  1       21 0.64424058E-01 0.18679600E+03</pdfrwt>
<totfact> 0.97088041E+04</totfact>
</mgrwt>
</event>
<event>
12    1  0.2736842E-001  0.1837964E+03  0.7546771E-02  0.1164235E+00
         21   -1    0    0  502  503  0.00000000000E+00  0.00000000000E+00  0.84281777281E+02  0.84281777281E+02  0.00000000000E+00 0.  1.
         21   -1    0    0  503  504 -0.00000000000E+00 -0.00000000000E+00 -0.47195794611E+03  0.47195794611E+03  0.00000000000E+00 0.  1.
         -6    2    1    2    0  504  0.45337119215E+02  0.43331372456E+02 -0.30232196843E+03  0.35380742848E+03  0.17276591572E+03 0.  0.
        -24    2    3    3    0    0  0.77331839319E+02 -0.16684714173E+02 -0.15139535628E+03  0.18819787252E+03  0.78989190775E+02 0.  0.
          6    2    1    2  502    0 -0.45337119215E+02 -0.43331372456E+02 -0.85354200399E+02  0.20243229491E+03  0.17251212213E+03 0.  0.
         24    2    5    5    0    0 -0.68308458904E+02 -0.42282250030E+02 -0.11627001754E+03  0.16361656544E+03  0.82448949555E+02 0.  0.
          4    1    6    6  501    0 -0.40185318505E+02  0.20840975390E+02 -0.55254005464E+02  0.71429764093E+02  0.00000000000E+00 0. -1.
         -3    1    6    6    0  501 -0.28123140399E+02 -0.63123225419E+02 -0.61016012075E+02  0.92186801348E+02  0.00000000000E+00 0.  1.
          5    1    5    5  502    0  0.22971339689E+02 -0.10491224267E+01  0.30915817140E+02  0.38815729472E+02  0.47000000000E+01 0. -1.
         13    1    4    4    0    0  0.55258686321E+02 -0.48189821572E+02 -0.98360537721E+02  0.12268079189E+03  0.00000000000E+00 0. -1.
        -14    1    4    4    0    0  0.22073152998E+02  0.31505107399E+02 -0.53034818556E+02  0.65517080634E+02  0.00000000000E+00 0.  1.
         -5    1    3    3    0  504 -0.31994720104E+02  0.60016086630E+02 -0.15092661215E+03  0.16560955596E+03  0.47000000000E+01 0.  1.
<mgrwt>
<rscale>  2 0.18373676E+03</rscale>
<asrwt>0</asrwt>
<pdfrwt beam="1">  1       21 0.12966428E-01 0.18379642E+03</pdfrwt>
<pdfrwt beam="2">  1       21 0.72608913E-01 0.18379642E+03</pdfrwt>
<totfact> 0.87580272E+04</totfact>
</mgrwt>
</event>
<event>
12    1  0.2736842E-001  0.1832107E+03  0.7546771E-02  0.1164732E+00
         21   -1    0    0  502  503  0.00000000000E+00  0.00000000000E+00  0.17764930091E+03  0.17764930091E+03  0.00000000000E+00 0. -1.
         21   -1    0    0  503  504 -0.00000000000E+00 -0.00000000000E+00 -0.22749129617E+03  0.22749129617E+03  0.00000000000E+00 0. -1.
         -6    2    1    2    0  504  0.51563975568E+02 -0.33740496216E+02 -0.10830735160E+03  0.21282739162E+03  0.17253333462E+03 0.  0.
        -24    2    3    3    0    0  0.53919562583E+02 -0.82792610686E+02 -0.51749035930E+02  0.13777679672E+03  0.80886014749E+02 0.  0.
          6    2    1    2  502    0 -0.51563975568E+02  0.33740496216E+02  0.58465356342E+02  0.19231320546E+03  0.17253668143E+03 0.  0.
         24    2    5    5    0    0  0.64553481977E+01  0.23574293540E+02  0.92665850813E+02  0.12403907105E+03  0.78748412072E+02 0.  0.
          4    1    6    6  501    0 -0.12945903601E+02 -0.17715001231E+02  0.69485514475E+02  0.72867375488E+02  0.00000000000E+00 0. -1.
         -3    1    6    6    0  501  0.19401251798E+02  0.41289294771E+02  0.23180336339E+02  0.51171695563E+02  0.00000000000E+00 0.  1.
          5    1    5    5  502    0 -0.58019323766E+02  0.10166202676E+02 -0.34200494472E+02  0.68274134408E+02  0.47000000000E+01 0. -1.
         11    1    4    4    0    0  0.56443007296E+02 -0.50928913627E+02 -0.67929813361E+02  0.10195110033E+03  0.00000000000E+00 0. -1.
        -12    1    4    4    0    0 -0.25234447133E+01 -0.31863697059E+02  0.16180777431E+02  0.35825696389E+02  0.00000000000E+00 0.  1.
         -5    1    3    3    0  504 -0.23555870152E+01  0.49052114470E+02 -0.56558315665E+02  0.75050594901E+02  0.47000000000E+01 0.  1.
<mgrwt>
<rscale>  2 0.18320994E+03</rscale>
<asrwt>0</asrwt>
<pdfrwt beam="1">  1       21 0.27330662E-01 0.18321073E+03</pdfrwt>
<pdfrwt beam="2">  1       21 0.34998661E-01 0.18321073E+03</pdfrwt>
<totfact> 0.10082521E+05</totfact>
</mgrwt>
</event>
<event>
12    1  0.2736842E-001  0.2635764E+03  0.7546771E-02  0.1105048E+00
         21   -1    0    0  502  503  0.00000000000E+00  0.00000000000E+00  0.42422848407E+03  0.42422848407E+03  0.00000000000E+00 0.  1.
         21   -1    0    0  503  504 -0.00000000000E+00 -0.00000000000E+00 -0.19203890876E+03  0.19203890876E+03  0.00000000000E+00 0.  1.
         -6    2    1    2    0  504  0.13468273734E+03  0.14811830249E+03 -0.24925303569E+01  0.26335348446E+03  0.17108586674E+03 0.  0.
        -24    2    3    3    0    0  0.77346374355E+02  0.10897575002E+02 -0.18329806314E+02  0.11372094828E+03  0.80593135640E+02 0.  0.
          6    2    1    2  502    0 -0.13468273734E+03 -0.14811830249E+03  0.23468210566E+03  0.35291390836E+03  0.17144697351E+03 0.  0.
         24    2    5    5    0    0 -0.33182531586E+02 -0.46620191531E+02  0.32119052698E+02  0.10460354063E+03  0.81460079210E+02 0.  0.
          4    1    6    6  501    0  0.18323731786E+02 -0.19021635040E+02 -0.14246466508E+02  0.30009057868E+02  0.00000000000E+00 0. -1.
         -3    1    6    6    0  501 -0.51506263372E+02 -0.27598556491E+02  0.46365519206E+02  0.74594482760E+02  0.00000000000E+00 0.  1.
          5    1    5    5  502    0 -0.10150020576E+03 -0.10149811096E+03  0.20256305297E+03  0.24831036773E+03  0.47000000000E+01 0. -1.
         11    1    4    4    0    0  0.71216749036E+01 -0.11487061463E+02 -0.35547847144E+02  0.38030517628E+02  0.00000000000E+00 0. -1.
        -12    1    4    4    0    0  0.70224699452E+02  0.22384636466E+02  0.17218040831E+02  0.75690430656E+02  0.00000000000E+00 0.  1.
         -5    1    3    3    0  504  0.57336362988E+02  0.13722072749E+03  0.15837275957E+02  0.14963253618E+03  0.47000000000E+01 0.  1.
<mgrwt>
<rscale>  2 0.26351773E+03</rscale>
<asrwt>0</asrwt>
<pdfrwt beam="1">  1       21 0.65265920E-01 0.26357643E+03</pdfrwt>
<pdfrwt beam="2">  1       21 0.29544448E-01 0.26357643E+03</pdfrwt>
<totfact> 0.22860354E+04</totfact>
</mgrwt>
</event>
<event>
12    1  0.2736842E-001  0.1941788E+03  0.7546771E-02  0.1155163E+00
         21   -1    0    0  502  503  0.00000000000E+00  0.00000000000E+00  0.91536794308E+02  0.91536794308E+02  0.00000000000E+00 0. -1.
         21   -1    0    0  503  504 -0.00000000000E+00 -0.00000000000E+00 -0.50515808808E+03  0.50515808808E+03  0.00000000000E+00 0. -1.
         -6    2    1    2    0  504  0.68883957022E+02  0.50402344153E+02 -0.33689755376E+03  0.38790804161E+03  0.17230000345E+03 0.  0.
        -24    2    3    3    0    0  0.14876994563E+02 -0.19914755037E+02 -0.25069712429E+03  0.26415889829E+03  0.79454093564E+02 0.  0.
          6    2    1    2  502    0 -0.68883957022E+02 -0.50402344153E+02 -0.76723740009E+02  0.20878684077E+03  0.17441335031E+03 0.  0.
         24    2    5    5    0    0 -0.23479996280E+02 -0.45918468303E+02 -0.11756103410E+03  0.14737512053E+03  0.72381029661E+02 0.  0.
          2    1    6    6  501    0  0.22848884211E+02 -0.23189174309E+02 -0.69985607170E+02  0.77186750974E+02  0.00000000000E+00 0. -1.
         -1    1    6    6    0  501 -0.46328880491E+02 -0.22729293994E+02 -0.47575426934E+02  0.70188369556E+02  0.00000000000E+00 0.  1.
          5    1    5    5  502    0 -0.45403960742E+02 -0.44838758499E+01  0.40837294095E+02  0.61411720239E+02  0.47000000000E+01 0. -1.
         13    1    4    4    0    0 -0.58217382532E+01 -0.47983183385E+02 -0.14972891341E+03  0.15733730020E+03  0.00000000000E+00 0. -1.
        -14    1    4    4    0    0  0.20698732816E+02  0.28068428348E+02 -0.10096821089E+03  0.10682159810E+03  0.00000000000E+00 0.  1.
         -5    1    3    3    0  504  0.54006962459E+02  0.70317099190E+02 -0.86200429465E+02  0.12374914332E+03  0.47000000000E+01 0.  1.
<mgrwt>
<rscale>  2 0.19370307E+03</rscale>
<asrwt>0</asrwt>
<pdfrwt beam="1">  1       21 0.14082584E-01 0.19417882E+03</pdfrwt>
<pdfrwt beam="2">  1       21 0.77716630E-01 0.19417882E+03</pdfrwt>
<totfact> 0.64544090E+04</totfact>
</mgrwt>
</event>
<event>
12    1  0.2736842E-001  0.2277581E+03  0.7546771E-02  0.1128560E+00
         21   -1    0    0  502  503  0.00000000000E+00  0.00000000000E+00  0.18151684890E+04  0.18151684890E+04  0.00000000000E+00 0. -1.
         21   -1    0    0  503  504 -0.00000000000E+00 -0.00000000000E+00 -0.39079863589E+02  0.39079863589E+02  0.00000000000E+00 0.  1.
         -6    2    1    2    0  504 -0.24141946646E+02  0.14337987152E+03  0.39951735591E+03  0.45896265020E+03  0.17289295955E+03 0.  0.
        -24    2    3    3    0    0 -0.73263106339E+02  0.13662450250E+03  0.30854030357E+03  0.35524458334E+03  0.83473694263E+02 0.  0.
          6    2    1    2  502    0  0.24141946646E+02 -0.14337987152E+03  0.13765712695E+04  0.13952857024E+04  0.17530861395E+03 0.  0.
         24    2    5    5    0    0  0.48026909456E+01 -0.16168319274E+03  0.90450111229E+03  0.92244181514E+03  0.81314940383E+02 0.  0.
          2    1    6    6  501    0  0.17935218437E+02 -0.81936525413E+02  0.65068424110E+03  0.65606802076E+03  0.00000000000E+00 0. -1.
         -1    1    6    6    0  501 -0.13132527491E+02 -0.79746667325E+02  0.25381687119E+03  0.26637379438E+03  0.00000000000E+00 0.  1.
          5    1    5    5  502    0  0.19339255700E+02  0.18303321216E+02  0.47207015718E+03  0.47284388722E+03  0.47000000000E+01 0. -1.
         11    1    4    4    0    0  0.92429829972E+01  0.47145428685E+02  0.13486835683E+03  0.14316982173E+03  0.00000000000E+00 0. -1.
        -12    1    4    4    0    0 -0.82506089336E+02  0.89479073816E+02  0.17367194674E+03  0.21207476161E+03  0.00000000000E+00 0.  1.
         -5    1    3    3    0  504  0.49121159693E+02  0.67553690218E+01  0.90977052345E+02  0.10371806686E+03  0.47000000000E+01 0.  1.
<mgrwt>
<rscale>  2 0.22729311E+03</rscale>
<asrwt>0</asrwt>
<pdfrwt beam="1">  1       21 0.27925662E+00 0.22775805E+03</pdfrwt>
<pdfrwt beam="2">  1       21 0.60122881E-02 0.22775805E+03</pdfrwt>
<totfact> 0.85324823E+03</totfact>
</mgrwt>
</event>
<event>
12    1  0.2736842E-001  0.2432973E+03  0.7546771E-02  0.1118451E+00
         21   -1    0    0  502  503  0.00000000000E+00  0.00000000000E+00  0.21649709783E+03  0.21649709783E+03  0.00000000000E+00 0. -1.
         21   -1    0    0  503  504 -0.00000000000E+00 -0.00000000000E+00 -0.31155593998E+03  0.31155593998E+03  0.00000000000E+00 0.  1.
         -6    2    1    2    0  504 -0.12418695683E+03  0.11686856861E+03 -0.14607859103E+03  0.27946388470E+03  0.16637441366E+03 0.  0.
        -24    2    3    3    0    0 -0.12178045125E+03  0.49804469913E+02 -0.13747812978E+03  0.21164469467E+03  0.92640580115E+02 0.  0.
          6    2    1    2  502    0  0.12418695683E+03 -0.11686856861E+03  0.51019748882E+02  0.24858915311E+03  0.17353065923E+03 0.  0.
         24    2    5    5    0    0  0.65016356695E+02 -0.14270020393E+03  0.25262743951E+02  0.17891888250E+03  0.82360703272E+02 0.  0.
          2    1    6    6  501    0  0.73720821077E+02 -0.14288556238E+03  0.36331443131E+02  0.16483633445E+03  0.00000000000E+00 0. -1.
         -1    1    6    6    0  501 -0.87044643820E+01  0.18535844694E+00 -0.11068699180E+02  0.14082548046E+02  0.00000000000E+00 0.  1.
          5    1    5    5  502    0  0.59170600134E+02  0.25831635320E+02  0.25757004932E+02  0.69670270608E+02  0.47000000000E+01 0. -1.
         11    1    4    4    0    0 -0.12618652997E+02  0.30510145419E+02  0.24731847675E+01  0.33109153113E+02  0.00000000000E+00 0. -1.
        -12    1    4    4    0    0 -0.10916179825E+03  0.19294324494E+02 -0.13995131455E+03  0.17853554156E+03  0.00000000000E+00 0.  1.
         -5    1    3    3    0  504 -0.24065055774E+01  0.67064098696E+02 -0.86004612528E+01  0.67819190033E+02  0.47000000000E+01 0.  1.
<mgrwt>
<rscale>  2 0.24202446E+03</rscale>
<asrwt>0</asrwt>
<pdfrwt beam="1">  1       21 0.33307246E-01 0.24329725E+03</pdfrwt>
<pdfrwt beam="2">  1       21 0.47931683E-01 0.24329725E+03</pdfrwt>
<totfact> 0.35227843E+04</totfact>
</mgrwt>
</event>
<event>
12    1  0.2736842E-001  0.2218449E+03  0.7546771E-02  0.1132843E+00
         21   -1    0    0  502  503  0.00000000000E+00  0.00000000000E+00  0.34543881264E+02  0.34543881264E+02  0.00000000000E+00 0.  1.
         21   -1    0    0  503  504 -0.00000000000E+00 -0.00000000000E+00 -0.15042288486E+04  0.15042288486E+04  0.00000000000E+00 0. -1.
         -6    2    1    2    0  504 -0.96971025769E+02 -0.99798257365E+02 -0.92670238394E+03  0.95288638127E+03  0.17277753094E+03 0.  0.
        -24    2    3    3    0    0 -0.84527204490E+02 -0.10650347743E+03 -0.92458596633E+03  0.93784052179E+03  0.78726083185E+02 0.  0.
          6    2    1    2  502    0  0.96971025769E+02  0.99798257365E+02 -0.54298258335E+03  0.58588634855E+03  0.17049825683E+03 0.  0.
         24    2    5    5    0    0  0.90552624915E+01 -0.50511300512E+01 -0.16004257662E+03  0.17920746512E+03  0.79963601279E+02 0.  0.
          2    1    6    6  501    0 -0.27314046931E+02 -0.26659186129E+02 -0.81582320236E+02  0.90069108688E+02  0.00000000000E+00 0. -1.
         -1    1    6    6    0  501  0.36369309422E+02  0.21608056078E+02 -0.78460256388E+02  0.89138356434E+02  0.00000000000E+00 0.  1.
          5    1    5    5  502    0  0.87915763277E+02  0.10484938742E+03 -0.38294000673E+03  0.40667888343E+03  0.47000000000E+01 0. -1.
         11    1    4    4    0    0 -0.64983966264E+02 -0.24072188947E+02 -0.32556800115E+03  0.33286169730E+03  0.00000000000E+00 0. -1.
        -12    1    4    4    0    0 -0.19543238225E+02 -0.82431288481E+02 -0.59901796517E+03  0.60497882449E+03  0.00000000000E+00 0.  1.
         -5    1    3    3    0  504 -0.12443821279E+02  0.67052200634E+01 -0.21164176159E+01  0.15045859485E+02  0.47000000000E+01 0.  1.
<mgrwt>
<rscale>  2 0.22140092E+03</rscale>
<asrwt>0</asrwt>
<pdfrwt beam="1">  1       21 0.53144438E-02 0.22184487E+03</pdfrwt>
<pdfrwt beam="2">  1       21 0.23141980E+00 0.22184487E+03</pdfrwt>
<totfact> 0.20320833E+04</totfact>
</mgrwt>
</event>
<event>
12    1  0.2736842E-001  0.2268285E+03  0.7546771E-02  0.1129100E+00
         21   -1    0    0  502  503  0.00000000000E+00  0.00000000000E+00  0.21534642899E+03  0.21534642899E+03  0.00000000000E+00 0.  1.
         21   -1    0    0  503  504 -0.00000000000E+00 -0.00000000000E+00 -0.33089414344E+03  0.33089414344E+03  0.00000000000E+00 0. -1.
         -6    2    1    2    0  504 -0.14371560685E+03  0.11722090402E+02 -0.20281902154E+03  0.30428069056E+03  0.17509882950E+03 0.  0.
        -24    2    3    3    0    0 -0.82142300418E+02 -0.60552880379E+02 -0.98666464121E+02  0.16326725615E+03  0.80666702848E+02 0.  0.
          6    2    1    2  502    0  0.14371560685E+03 -0.11722090402E+02  0.87271307080E+02  0.24195988188E+03  0.17359930974E+03 0.  0.
         24    2    5    5    0    0  0.33083363449E+02 -0.10941672761E+02 -0.16592526556E+01  0.99935810725E+02  0.93649260574E+02 0.  0.
          4    1    6    6  501    0 -0.28986036391E+02  0.14044042187E+02 -0.64736559932E+01  0.32853213672E+02  0.00000000000E+00 0. -1.
         -3    1    6    6    0  501  0.62069399840E+02 -0.24985714948E+02  0.48144033375E+01  0.67082597054E+02  0.00000000000E+00 0.  1.
          5    1    5    5  502    0  0.11063224340E+03 -0.78041764182E+00  0.88930559735E+02  0.14202407115E+03  0.47000000000E+01 0. -1.
         11    1    4    4    0    0 -0.15720907519E+01 -0.89357501795E+00 -0.53122858160E+02  0.53153626450E+02  0.00000000000E+00 0. -1.
        -12    1    4    4    0    0 -0.80570209666E+02 -0.59659305361E+02 -0.45543605960E+02  0.11011362970E+03  0.00000000000E+00 0.  1.
         -5    1    3    3    0  504 -0.61573306435E+02  0.72274970781E+02 -0.10415255741E+03  0.14101343441E+03  0.47000000000E+01 0.  1.
<mgrwt>
<rscale>  2 0.22653910E+03</rscale>
<asrwt>0</asrwt>
<pdfrwt beam="1">  1       21 0.33130220E-01 0.22682853E+03</pdfrwt>
<pdfrwt beam="2">  1       21 0.50906791E-01 0.22682853E+03</pdfrwt>
<totfact> 0.31626962E+04</totfact>
</mgrwt>
</event>
<event>
12    1  0.2736842E-001  0.2098141E+03  0.7546771E-02  0.1141881E+00
         21   -1    0    0  502  503  0.00000000000E+00  0.00000000000E+00  0.61591139372E+02  0.61591139372E+02  0.00000000000E+00 0.  1.
         21   -1    0    0  503  504 -0.00000000000E+00 -0.00000000000E+00 -0.78315617966E+03  0.78315617966E+03  0.00000000000E+00 0. -1.
         -6    2    1    2    0  504 -0.10976677873E+03 -0.41551646175E+02 -0.48888177163E+03  0.53200313638E+03  0.17391568496E+03 0.  0.
        -24    2    3    3    0    0 -0.49641754067E+02 -0.85601783776E+02 -0.24658448110E+03  0.27845728213E+03  0.83322161007E+02 0.  0.
          6    2    1    2  502    0  0.10976677873E+03  0.41551646175E+02 -0.23268326867E+03  0.31274418266E+03  0.17289342167E+03 0.  0.
         24    2    5    5    0    0  0.87337649217E+01  0.62325199755E+02 -0.95355410682E+02  0.14092962860E+03  0.82509373386E+02 0.  0.
          4    1    6    6  501    0 -0.12027822695E+02  0.66287377299E+02 -0.98730355609E+02  0.11952559570E+03  0.00000000000E+00 0. -1.
         -3    1    6    6    0  501  0.20761587616E+02 -0.39621775442E+01  0.33749449266E+01  0.21404032903E+02  0.00000000000E+00 0.  1.
          5    1    5    5  502    0  0.10103301381E+03 -0.20773553580E+02 -0.13732785798E+03  0.17181455406E+03  0.47000000000E+01 0. -1.
         13    1    4    4    0    0 -0.68269330705E+02 -0.58452696478E+02 -0.13550462659E+03  0.16260050144E+03  0.00000000000E+00 0. -1.
        -14    1    4    4    0    0  0.18627576637E+02 -0.27149087299E+02 -0.11107985452E+03  0.11585678069E+03  0.00000000000E+00 0.  1.
         -5    1    3    3    0  504 -0.60125024666E+02  0.44050137602E+02 -0.24229729052E+03  0.25354585425E+03  0.47000000000E+01 0.  1.
<mgrwt>
<rscale>  2 0.20960212E+03</rscale>
<asrwt>0</asrwt>
<pdfrwt beam="1">  1       21 0.94755605E-02 0.20981409E+03</pdfrwt>
<pdfrwt beam="2">  1       21 0.12048556E+00 0.20981409E+03</pdfrwt>
<totfact> 0.46226473E+04</totfact>
</mgrwt>
</event>
<event>
12    1  0.2736842E-001  0.2160499E+03  0.7546771E-02  0.1136887E+00
         21   -1    0    0  502  503  0.00000000000E+00  0.00000000000E+00  0.30856693528E+03  0.30856693528E+03  0.00000000000E+00 0.  1.
         21   -1    0    0  503  504 -0.00000000000E+00 -0.00000000000E+00 -0.15961288307E+03  0.15961288307E+03  0.00000000000E+00 0.  1.
         -6    2    1    2    0  504  0.65764888327E+01 -0.12974148010E+03  0.20662453387E+02  0.21691041905E+03  0.17247345027E+03 0.  0.
        -24    2    3    3    0    0  0.58237686703E+02 -0.43044836083E+02 -0.12811310254E+02  0.11047842057E+03  0.82443105681E+02 0.  0.
          6    2    1    2  502    0 -0.65764888327E+01  0.12974148010E+03  0.12829159882E+03  0.25126939930E+03  0.17263103670E+03 0.  0.
         24    2    5    5    0    0 -0.17482003293E+02  0.51182335753E+02  0.14006714529E+03  0.17094989419E+03  0.81730099736E+02 0.  0.
          2    1    6    6  501    0 -0.93159944927E+01 -0.86035017066E+01 -0.51563799875E+01  0.13689274984E+02  0.00000000000E+00 0. -1.
         -1    1    6    6    0  501 -0.81660088003E+01  0.59785837459E+02  0.14522352527E+03  0.15726061921E+03  0.00000000000E+00 0.  1.
          5    1    5    5  502    0  0.10905514460E+02  0.78559144350E+02 -0.11775546467E+02  0.80319505110E+02  0.47000000000E+01 0. -1.
         11    1    4    4    0    0  0.62567946617E+02 -0.31408902475E+01  0.11296117722E+02  0.63657013840E+02  0.00000000000E+00 0. -1.
        -12    1    4    4    0    0 -0.43302599139E+01 -0.39903945835E+02 -0.24107427976E+02  0.46821406726E+02  0.00000000000E+00 0.  1.
         -5    1    3    3    0  504 -0.51661197871E+02 -0.86696644020E+02  0.33473763641E+02  0.10643199849E+03  0.47000000000E+01 0.  1.
<mgrwt>
<rscale>  2 0.21601846E+03</rscale>
<asrwt>0</asrwt>
<pdfrwt beam="1">  1       21 0.47471836E-01 0.21604994E+03</pdfrwt>
<pdfrwt beam="2">  1       21 0.24555828E-01 0.21604994E+03</pdfrwt>
<totfact> 0.65829708E+04</totfact>
</mgrwt>
</event>
<event>
12    1  0.2736842E-001  0.3130920E+03  0.7546771E-02  0.1078881E+00
         21   -1    0    0  502  503  0.00000000000E+00  0.00000000000E+00  0.65969435727E+03  0.65969435727E+03  0.00000000000E+00 0. -1.
         21   -1    0    0  503  504 -0.00000000000E+00 -0.00000000000E+00 -0.58705628973E+03  0.58705628973E+03  0.00000000000E+00 0.  1.
         -6    2    1    2    0  504  0.23204261848E+03 -0.12053361503E+03 -0.50243706639E+03  0.59196976878E+03  0.17208449183E+03 0.  0.
        -24    2    3    3    0    0  0.10261981128E+03 -0.86062280924E+01 -0.29829483542E+03  0.32556004029E+03  0.80028983296E+02 0.  0.
          6    2    1    2  502    0 -0.23204261848E+03  0.12053361503E+03  0.57507513393E+03  0.65478087822E+03  0.17220470279E+03 0.  0.
         24    2    5    5    0    0 -0.72766508562E+02  0.61650523209E+01  0.14133788292E+03  0.17875657185E+03  0.81514061331E+02 0.  0.
          4    1    6    6  501    0  0.14928992239E+02  0.98144836689E+01  0.91245473755E+01  0.20061312614E+02  0.00000000000E+00 0. -1.
         -3    1    6    6    0  501 -0.87695500801E+02 -0.36494313480E+01  0.13221333554E+03  0.15869525924E+03  0.00000000000E+00 0.  1.
          5    1    5    5  502    0 -0.15927610992E+03  0.11436856271E+03  0.43373725102E+03  0.47602430636E+03  0.47000000000E+01 0. -1.
         13    1    4    4    0    0 -0.13395719928E+02  0.99840259210E+00 -0.41272311528E+02  0.43403292721E+02  0.00000000000E+00 0. -1.
        -14    1    4    4    0    0  0.11601553121E+03 -0.96046306845E+01 -0.25702252389E+03  0.28215674757E+03  0.00000000000E+00 0.  1.
         -5    1    3    3    0  504  0.12942280720E+03 -0.11192738694E+03 -0.20414223097E+03  0.26640972849E+03  0.47000000000E+01 0.  1.
<mgrwt>
<rscale>  2 0.31307545E+03</rscale>
<asrwt>0</asrwt>
<pdfrwt beam="1">  1       21 0.10149144E+00 0.31309198E+03</pdfrwt>
<pdfrwt beam="2">  1       21 0.90316352E-01 0.31309198E+03</pdfrwt>
<totfact> 0.74822759E+02</totfact>
</mgrwt>
</event>
<event>
12    1  0.2736842E-001  0.2408152E+03  0.7546771E-02  0.1119283E+00
         21   -1    0    0  502  503  0.00000000000E+00  0.00000000000E+00  0.45892997423E+03  0.45892997423E+03  0.00000000000E+00 0.  1.
         21   -1    0    0  503  504 -0.00000000000E+00 -0.00000000000E+00 -0.14857116186E+03  0.14857116186E+03  0.00000000000E+00 0. -1.
         -6    2    1    2    0  504  0.16696973130E+03 -0.97683416835E+01  0.37525919861E+02  0.24372148914E+03  0.17325604733E+03 0.  0.
        -24    2    3    3    0    0  0.10248507820E+03 -0.21303330434E+02 -0.43838422552E+02  0.13915776375E+03  0.80536034040E+02 0.  0.
          6    2    1    2  502    0 -0.16696973130E+03  0.97683416835E+01  0.27283289250E+03  0.36377964695E+03  0.17298419764E+03 0.  0.
         24    2    5    5    0    0 -0.12144738850E+03  0.14026455910E+02  0.84303068203E+02  0.16972810771E+03  0.82185239553E+02 0.  0.
          2    1    6    6  501    0 -0.81649048524E+02  0.48145601364E+02  0.57300901162E+02  0.11076082037E+03  0.00000000000E+00 0. -1.
         -1    1    6    6    0  501 -0.39798339971E+02 -0.34119145454E+02  0.27002167040E+02  0.58967287336E+02  0.00000000000E+00 0.  1.
          5    1    5    5  502    0 -0.45522342802E+02 -0.42581142264E+01  0.18852982430E+03  0.19405153924E+03  0.47000000000E+01 0. -1.
         11    1    4    4    0    0  0.43164282777E+02 -0.45359795155E+02 -0.19271844390E+01  0.62644875002E+02  0.00000000000E+00 0. -1.
        -12    1    4    4    0    0  0.59320795419E+02  0.24056464721E+02 -0.41911238113E+02  0.76512888746E+02  0.00000000000E+00 0.  1.
         -5    1    3    3    0  504  0.64484653101E+02  0.11534988750E+02  0.81364342413E+02  0.10456372539E+03  0.47000000000E+01 0.  1.
<mgrwt>
<rscale>  2 0.24076633E+03</rscale>
<asrwt>0</asrwt>
<pdfrwt beam="1">  1       21 0.70604611E-01 0.24081522E+03</pdfrwt>
<pdfrwt beam="2">  1       21 0.22857102E-01 0.24081522E+03</pdfrwt>
<totfact> 0.31859949E+04</totfact>
</mgrwt>
</event>
<event>
12    1  0.2736842E-001  0.2423831E+03  0.7546771E-02  0.1118717E+00
         21   -1    0    0  502  503  0.00000000000E+00  0.00000000000E+00  0.30300133467E+03  0.30300133467E+03  0.00000000000E+00 0. -1.
         21   -1    0    0  503  504 -0.00000000000E+00 -0.00000000000E+00 -0.19204195173E+03  0.19204195173E+03  0.00000000000E+00 0. -1.
         -6    2    1    2    0  504 -0.41326890199E+02 -0.15967272004E+03  0.69275383890E+02  0.25208852627E+03  0.17761265970E+03 0.  0.
        -24    2    3    3    0    0 -0.50725028397E+02 -0.76169909330E+02 -0.26777203023E+02  0.12438091549E+03  0.79866826302E+02 0.  0.
          6    2    1    2  502    0  0.41326890199E+02  0.15967272004E+03  0.41683999053E+02  0.24295476014E+03  0.17345365467E+03 0.  0.
         24    2    5    5    0    0 -0.22068263890E+02  0.50978818922E+02 -0.22145080956E+02  0.10178269790E+03  0.82361791696E+02 0.  0.
          4    1    6    6  501    0 -0.33547374367E+02  0.41338960404E+02 -0.48139660329E+02  0.71775781924E+02  0.00000000000E+00 0. -1.
         -3    1    6    6    0  501  0.11479110477E+02  0.96398585181E+01  0.25994579373E+02  0.30006915976E+02  0.00000000000E+00 0.  1.
          5    1    5    5  502    0  0.63395154089E+02  0.10869390112E+03  0.63829080009E+02  0.14117206224E+03  0.47000000000E+01 0. -1.
         11    1    4    4    0    0 -0.57403426393E+02 -0.53398590921E+02  0.11605965959E+02  0.79254408835E+02  0.00000000000E+00 0. -1.
        -12    1    4    4    0    0  0.66783979963E+01 -0.22771318409E+02 -0.38383168982E+02  0.45126506656E+02  0.00000000000E+00 0.  1.
         -5    1    3    3    0  504  0.93981381982E+01 -0.83502810708E+02  0.96052586913E+02  0.12770761078E+03  0.47000000000E+01 0.  1.
<mgrwt>
<rscale>  2 0.24162176E+03</rscale>
<asrwt>0</asrwt>
<pdfrwt beam="1">  1       21 0.46615590E-01 0.24238306E+03</pdfrwt>
<pdfrwt beam="2">  1       21 0.29544916E-01 0.24238306E+03</pdfrwt>
<totfact> 0.47288837E+04</totfact>
</mgrwt>
</event>
<event>
12    1  0.2736842E-001  0.2651640E+03  0.7546771E-02  0.1104231E+00
         21   -1    0    0  502  503  0.00000000000E+00  0.00000000000E+00  0.23147603780E+03  0.23147603780E+03  0.00000000000E+00 0.  1.
         21   -1    0    0  503  504 -0.00000000000E+00 -0.00000000000E+00 -0.30599331803E+03  0.30599331803E+03  0.00000000000E+00 0. -1.
         -6    2    1    2    0  504  0.13746223479E+03  0.14604032114E+03 -0.65741415305E+02  0.27319204853E+03  0.17345985214E+03 0.  0.
        -24    2    3    3    0    0  0.99131142431E+02  0.16139846050E+03 -0.13057152659E+02  0.20608864611E+03  0.80159805188E+02 0.  0.
          6    2    1    2  502    0 -0.13746223479E+03 -0.14604032114E+03 -0.87758649287E+01  0.26427730729E+03  0.17187739221E+03 0.  0.
         24    2    5    5    0    0 -0.16129502358E+03 -0.14211553210E+03 -0.31079226244E+02  0.23106683129E+03  0.78822922568E+02 0.  0.
          4    1    6    6  501    0 -0.55248237986E+02 -0.38922784127E+02 -0.46890332544E+02  0.82256028417E+02  0.00000000000E+00 0. -1.
         -3    1    6    6    0  501 -0.10604678559E+03 -0.10319274797E+03  0.15811106301E+02  0.14881080287E+03  0.00000000000E+00 0.  1.
          5    1    5    5  502    0  0.23832788792E+02 -0.39247890397E+01  0.22303361315E+02  0.33210476006E+02  0.47000000000E+01 0. -1.
         13    1    4    4    0    0  0.31865261389E+02  0.12520478213E+03 -0.11205366612E+02  0.12968111888E+03  0.00000000000E+00 0. -1.
        -14    1    4    4    0    0  0.67265881043E+02  0.36193678370E+02 -0.18517860468E+01  0.76407527233E+02  0.00000000000E+00 0.  1.
         -5    1    3    3    0  504  0.38331092356E+02 -0.15358139367E+02 -0.52684262646E+02  0.67103402422E+02  0.47000000000E+01 0.  1.
<mgrwt>
<rscale>  2 0.26490553E+03</rscale>
<asrwt>0</asrwt>
<pdfrwt beam="1">  1       21 0.35611698E-01 0.26516403E+03</pdfrwt>
<pdfrwt beam="2">  1       21 0.47075895E-01 0.26516403E+03</pdfrwt>
<totfact> 0.31711749E+04</totfact>
</mgrwt>
</event>
<event>
12    1  0.2736842E-001  0.2280180E+03  0.7546771E-02  0.1128118E+00
         21   -1    0    0  502  503  0.00000000000E+00  0.00000000000E+00  0.49301762908E+03  0.49301762908E+03  0.00000000000E+00 0. -1.
         21   -1    0    0  503  504 -0.00000000000E+00 -0.00000000000E+00 -0.11437347229E+03  0.11437347229E+03  0.00000000000E+00 0. -1.
         -6    2    1    2    0  504  0.13837642941E+03 -0.52377369610E+02  0.27520354091E+03  0.35739219321E+03  0.17349572265E+03 0.  0.
        -24    2    3    3    0    0  0.44456821590E+01 -0.29264888558E+02  0.14952835335E+03  0.17222206979E+03  0.80159310595E+02 0.  0.
          6    2    1    2  502    0 -0.13837642941E+03  0.52377369610E+02  0.10344061588E+03  0.24999890816E+03  0.17293949233E+03 0.  0.
         24    2    5    5    0    0 -0.52132336527E+02  0.52274706765E+02  0.11980136593E+03  0.16209089807E+03  0.80440452999E+02 0.  0.
          2    1    6    6  501    0 -0.72337606551E+02  0.49902531994E+02  0.10504955640E+03  0.13696131323E+03  0.00000000000E+00 0. -1.
         -1    1    6    6    0  501  0.20205270024E+02  0.23721747709E+01  0.14751809528E+02  0.25129584840E+02  0.00000000000E+00 0.  1.
          5    1    5    5  502    0 -0.86244092883E+02  0.10266284521E+00 -0.16360750048E+02  0.87908010096E+02  0.47000000000E+01 0. -1.
         11    1    4    4    0    0  0.16078506875E+02 -0.19660024267E+02  0.37590199670E+01  0.25674212133E+02  0.00000000000E+00 0. -1.
        -12    1    4    4    0    0 -0.11632824716E+02 -0.96048642908E+01  0.14576933339E+03  0.14654785766E+03  0.00000000000E+00 0.  1.
         -5    1    3    3    0  504  0.13393074725E+03 -0.23112481052E+02  0.12567518755E+03  0.18517012342E+03  0.47000000000E+01 0.  1.
<mgrwt>
<rscale>  2 0.22791215E+03</rscale>
<asrwt>0</asrwt>
<pdfrwt beam="1">  1       21 0.75848865E-01 0.22801796E+03</pdfrwt>
<pdfrwt beam="2">  1       21 0.17595919E-01 0.22801796E+03</pdfrwt>
<totfact> 0.44616804E+04</totfact>
</mgrwt>
</event>
<event>
12    1  0.2736842E-001  0.1993777E+03  0.7546771E-02  0.1153649E+00
         21   -1    0    0  502  503  0.00000000000E+00  0.00000000000E+00  0.10200573421E+03  0.10200573421E+03  0.00000000000E+00 0.  1.
         21   -1    0    0  503  504 -0.00000000000E+00 -0.00000000000E+00 -0.43916322553E+03  0.43916322553E+03  0.00000000000E+00 0.  1.
         -6    2    1    2    0  504  0.61571869189E+02  0.19832062987E+02 -0.28865338665E+03  0.35081655794E+03  0.18859234848E+03 0.  0.
        -24    2    3    3    0    0 -0.29751135138E+02 -0.85988303037E+01 -0.69815107813E+02  0.11194318333E+03  0.81841658655E+02 0.  0.
          6    2    1    2  502    0 -0.61571869189E+02 -0.19832062987E+02 -0.48504104675E+02  0.19035240180E+03  0.17232812568E+03 0.  0.
         24    2    5    5    0    0 -0.10667428077E+03 -0.32206389041E+02 -0.36647897135E+02  0.14187548839E+03  0.79805589828E+02 0.  0.
          4    1    6    6  501    0 -0.21988389937E+02  0.10235188440E+02 -0.40348849956E+02  0.47077362577E+02  0.00000000000E+00 0. -1.
         -3    1    6    6    0  501 -0.84685890836E+02 -0.42441577481E+02  0.37009528214E+01  0.94798125813E+02  0.00000000000E+00 0.  1.
          5    1    5    5  502    0  0.45102411585E+02  0.12374326054E+02 -0.11856207540E+02  0.48476913405E+02  0.47000000000E+01 0. -1.
         13    1    4    4    0    0  0.90341341973E+01 -0.28155253744E+02  0.17522773894E+00  0.29569656725E+02  0.00000000000E+00 0. -1.
        -14    1    4    4    0    0 -0.38785269336E+02  0.19556423441E+02 -0.69990335552E+02  0.82373526608E+02  0.00000000000E+00 0.  1.
         -5    1    3    3    0  504  0.91323004327E+02  0.28430893291E+02 -0.21883827883E+03  0.23887337461E+03  0.47000000000E+01 0.  1.
<mgrwt>
<rscale>  2 0.19543513E+03</rscale>
<asrwt>0</asrwt>
<pdfrwt beam="1">  1       21 0.15693190E-01 0.19937773E+03</pdfrwt>
<pdfrwt beam="2">  1       21 0.67563573E-01 0.19937773E+03</pdfrwt>
<totfact> 0.72138082E+04</totfact>
</mgrwt>
</event>
<event>
12    1  0.2736842E-001  0.1789184E+03  0.7546771E-02  0.1169243E+00
         21   -1    0    0  502  503  0.00000000000E+00  0.00000000000E+00  0.11717706221E+03  0.11717706221E+03  0.00000000000E+00 0. -1.
         21   -1    0    0  503  504 -0.00000000000E+00 -0.00000000000E+00 -0.34892149750E+03  0.34892149750E+03  0.00000000000E+00 0. -1.
         -6    2    1    2    0  504  0.31179325018E+01 -0.40291672438E+02 -0.22576144079E+03  0.28708015147E+03  0.17266628173E+03 0.  0.
        -24    2    3    3    0    0 -0.12641077193E+02 -0.59499860326E+02 -0.23831868141E+03  0.25884763191E+03  0.80661468010E+02 0.  0.
          6    2    1    2  502    0 -0.31179325018E+01  0.40291672438E+02 -0.59829945027E+01  0.17901840824E+03  0.17429473284E+03 0.  0.
         24    2    5    5    0    0 -0.31641105499E+02 -0.37918415112E+02 -0.16188059049E+02  0.95014702761E+02  0.79541025410E+02 0.  0.
          2    1    6    6  501    0 -0.25687223243E+02 -0.27872177170E+02  0.29390762670E+02  0.47963617758E+02  0.00000000000E+00 0. -1.
         -1    1    6    6    0  501 -0.59538822560E+01 -0.10046237942E+02 -0.45578821718E+02  0.47051085003E+02  0.00000000000E+00 0.  1.
          5    1    5    5  502    0  0.28523172997E+02  0.78210087550E+02  0.10205064546E+02  0.84003705483E+02  0.47000000000E+01 0. -1.
         13    1    4    4    0    0 -0.35313800989E+02 -0.44351946425E+02 -0.79146066199E+02  0.97356353089E+02  0.00000000000E+00 0. -1.
        -14    1    4    4    0    0  0.22672723796E+02 -0.15147913901E+02 -0.15917261522E+03  0.16149127882E+03  0.00000000000E+00 0.  1.
         -5    1    3    3    0  504  0.15759009695E+02  0.19208187888E+02  0.12557240625E+02  0.28232519558E+02  0.47000000000E+01 0.  1.
<mgrwt>
<rscale>  2 0.17852058E+03</rscale>
<asrwt>0</asrwt>
<pdfrwt beam="1">  1       21 0.18027241E-01 0.17891840E+03</pdfrwt>
<pdfrwt beam="2">  1       21 0.53680229E-01 0.17891840E+03</pdfrwt>
<totfact> 0.92419721E+04</totfact>
</mgrwt>
</event>
<event>
12    1  0.2736842E-001  0.2200199E+03  0.7546771E-02  0.1134907E+00
         21   -1    0    0  502  503  0.00000000000E+00  0.00000000000E+00  0.58064530953E+03  0.58064530953E+03  0.00000000000E+00 0. -1.
         21   -1    0    0  503  504 -0.00000000000E+00 -0.00000000000E+00 -0.32998138449E+03  0.32998138449E+03  0.00000000000E+00 0. -1.
         -6    2    1    2    0  504  0.45763498944E+02  0.12862849834E+03 -0.27031586786E+03  0.34509270090E+03  0.16546514853E+03 0.  0.
        -24    2    3    3    0    0  0.63090518392E+02  0.72277276707E+02 -0.87545232959E+02  0.15299147560E+03  0.80856697634E+02 0.  0.
          6    2    1    2  502    0 -0.45763498944E+02 -0.12862849834E+03  0.52097979289E+03  0.56553399311E+03  0.17253742882E+03 0.  0.
         24    2    5    5    0    0  0.56072334111E+00 -0.20256879529E+01  0.14185798755E+03  0.16312917399E+03  0.80517209045E+02 0.  0.
          4    1    6    6  501    0  0.28564473156E+02 -0.16691507520E+02  0.23392267332E+02  0.40518313402E+02  0.00000000000E+00 0. -1.
         -3    1    6    6    0  501 -0.28003749815E+02  0.14665819567E+02  0.11846572022E+03  0.12261086059E+03  0.00000000000E+00 0.  1.
          5    1    5    5  502    0 -0.46324222285E+02 -0.12660281039E+03  0.37912180534E+03  0.40240481912E+03  0.47000000000E+01 0. -1.
         13    1    4    4    0    0 -0.49470670660E+01  0.54818018302E+02 -0.34352669863E+02  0.64881388162E+02  0.00000000000E+00 0. -1.
        -14    1    4    4    0    0  0.68037585458E+02  0.17459258405E+02 -0.53192563096E+02  0.88110087435E+02  0.00000000000E+00 0.  1.
         -5    1    3    3    0  504 -0.17327019448E+02  0.56351221636E+02 -0.18277063490E+03  0.19210122530E+03  0.47000000000E+01 0.  1.
<mgrwt>
<rscale>  2 0.21863153E+03</rscale>
<asrwt>0</asrwt>
<pdfrwt beam="1">  1       21 0.89330048E-01 0.22001989E+03</pdfrwt>
<pdfrwt beam="2">  1       21 0.50766367E-01 0.22001989E+03</pdfrwt>
<totfact> 0.38613365E+03</totfact>
</mgrwt>
</event>
<event>
12    1  0.2736842E-001  0.1920193E+03  0.7546771E-02  0.1156830E+00
         21   -1    0    0  502  503  0.00000000000E+00  0.00000000000E+00  0.93220629219E+02  0.93220629219E+02  0.00000000000E+00 0. -1.
         21   -1    0    0  503  504 -0.00000000000E+00 -0.00000000000E+00 -0.39696560211E+03  0.39696560211E+03  0.00000000000E+00 0. -1.
         -6    2    1    2    0  504  0.43600255492E+02  0.69203155834E+02 -0.17374433877E+03  0.25895660668E+03  0.17372786142E+03 0.  0.
        -24    2    3    3    0    0 -0.41380915141E+02  0.54336238404E+02 -0.89309643489E+02  0.13815042984E+03  0.80277779637E+02 0.  0.
          6    2    1    2  502    0 -0.43600255492E+02 -0.69203155834E+02 -0.13000063412E+03  0.23122962465E+03  0.17284940088E+03 0.  0.
         24    2    5    5    0    0 -0.50976484360E+02 -0.67474603875E+01 -0.97111063239E+01  0.95410689501E+02  0.79779470453E+02 0.  0.
          2    1    6    6  501    0  0.16797285066E+02  0.13051259505E+02  0.78145249981E+01  0.22661662808E+02  0.00000000000E+00 0. -1.
         -1    1    6    6    0  501 -0.67773769426E+02 -0.19798719893E+02 -0.17525631322E+02  0.72749026694E+02  0.00000000000E+00 0.  1.
          5    1    5    5  502    0  0.73762288679E+01 -0.62455695446E+02 -0.12028952780E+03  0.13581893515E+03  0.47000000000E+01 0. -1.
         13    1    4    4    0    0 -0.13433306855E+02  0.71360661965E+02 -0.59349110664E+02  0.93782273089E+02  0.00000000000E+00 0. -1.
        -14    1    4    4    0    0 -0.27947608286E+02 -0.17024423561E+02 -0.29960532825E+02  0.44368156752E+02  0.00000000000E+00 0.  1.
         -5    1    3    3    0  504  0.84981170633E+02  0.14866917430E+02 -0.84434695282E+02  0.12080617684E+03  0.47000000000E+01 0.  1.
<mgrwt>
<rscale>  2 0.19182043E+03</rscale>
<asrwt>0</asrwt>
<pdfrwt beam="1">  1       21 0.14341635E-01 0.19201935E+03</pdfrwt>
<pdfrwt beam="2">  1       21 0.61071632E-01 0.19201935E+03</pdfrwt>
<totfact> 0.10619976E+05</totfact>
</mgrwt>
</event>
<event>
12    1  0.2736842E-001  0.1818117E+03  0.7546771E-02  0.1166076E+00
         21   -1    0    0  502  503  0.00000000000E+00  0.00000000000E+00  0.18136440745E+03  0.18136440745E+03  0.00000000000E+00 0. -1.
         21   -1    0    0  503  504 -0.00000000000E+00 -0.00000000000E+00 -0.29282778901E+03  0.29282778901E+03  0.00000000000E+00 0. -1.
         -6    2    1    2    0  504 -0.56177800827E+02 -0.51992751036E+01 -0.20147087232E+03  0.27137800173E+03  0.17283671388E+03 0.  0.
        -24    2    3    3    0    0 -0.52459045934E+02  0.61483751065E+02 -0.11485193127E+03  0.16190021373E+03  0.80551287664E+02 0.  0.
          6    2    1    2  502    0  0.56177800827E+02  0.51992751036E+01  0.90007490765E+02  0.20281419473E+03  0.17276941692E+03 0.  0.
         24    2    5    5    0    0 -0.23789712665E+01  0.65413626055E+01 -0.95274182844E+01  0.87228793938E+02  0.86427089872E+02 0.  0.
          2    1    6    6  501    0  0.30052624987E+02 -0.46955605534E+01 -0.33586712580E+02  0.45313086624E+02  0.00000000000E+00 0. -1.
         -1    1    6    6    0  501 -0.32431596254E+02  0.11236923159E+02  0.24059294295E+02  0.41915707314E+02  0.00000000000E+00 0.  1.
          5    1    5    5  502    0  0.58556772093E+02 -0.13420875020E+01  0.99534909050E+02  0.11558540079E+03  0.47000000000E+01 0. -1.
         13    1    4    4    0    0 -0.70657817776E+02  0.28089675164E+02 -0.74505932947E+02  0.10645511311E+03  0.00000000000E+00 0. -1.
        -14    1    4    4    0    0  0.18198771842E+02  0.33394075901E+02 -0.40345998318E+02  0.55445100614E+02  0.00000000000E+00 0.  1.
         -5    1    3    3    0  504 -0.37187548924E+01 -0.66683026168E+02 -0.86618941050E+02  0.10947778800E+03  0.47000000000E+01 0.  1.
<mgrwt>
<rscale>  2 0.18179574E+03</rscale>
<asrwt>0</asrwt>
<pdfrwt beam="1">  1       21 0.27902216E-01 0.18181174E+03</pdfrwt>
<pdfrwt beam="2">  1       21 0.45050429E-01 0.18181174E+03</pdfrwt>
<totfact> 0.58274241E+04</totfact>
</mgrwt>
</event>
<event>
12    1  0.2736842E-001  0.1777048E+03  0.7546771E-02  0.1170084E+00
         21   -1    0    0  502  503  0.00000000000E+00  0.00000000000E+00  0.70490540065E+03  0.70490540065E+03  0.00000000000E+00 0.  1.
         21   -1    0    0  503  504 -0.00000000000E+00 -0.00000000000E+00 -0.48466280398E+02  0.48466280398E+02  0.00000000000E+00 0. -1.
         -6    2    1    2    0  504 -0.13319551156E+02  0.39153793503E+02  0.22386954174E+03  0.28572284016E+03  0.17265439376E+03 0.  0.
        -24    2    3    3    0    0  0.57682686570E+02  0.12559516711E+02  0.94975179118E+02  0.13610860275E+03  0.77590162424E+02 0.  0.
          6    2    1    2  502    0  0.13319551156E+02 -0.39153793503E+02  0.43256957851E+03  0.46764884089E+03  0.17282525318E+03 0.  0.
         24    2    5    5    0    0  0.69560576120E+02 -0.54749938543E+02  0.28550785103E+03  0.30935944036E+03  0.79701322564E+02 0.  0.
          4    1    6    6  501    0  0.25988139671E+02 -0.31567128101E+02  0.34362317623E+02  0.53410072575E+02  0.00000000000E+00 0. -1.
         -3    1    6    6    0  501  0.43572436449E+02 -0.23182810442E+02  0.25114553341E+03  0.25594936778E+03  0.00000000000E+00 0.  1.
          5    1    5    5  502    0 -0.56241024964E+02  0.15596145041E+02  0.14706172748E+03  0.15828940053E+03  0.47000000000E+01 0. -1.
         13    1    4    4    0    0  0.36382126033E+02  0.22397376134E+02  0.10284113943E+03  0.11136247803E+03  0.00000000000E+00 0. -1.
        -14    1    4    4    0    0  0.21300560537E+02 -0.98378594229E+01 -0.78659603162E+01  0.24746124725E+02  0.00000000000E+00 0.  1.
         -5    1    3    3    0  504 -0.71002237726E+02  0.26594276791E+02  0.12889436262E+03  0.14961423741E+03  0.47000000000E+01 0.  1.
<mgrwt>
<rscale>  2 0.17766325E+03</rscale>
<asrwt>0</asrwt>
<pdfrwt beam="1">  1       21 0.10844698E+00 0.17770481E+03</pdfrwt>
<pdfrwt beam="2">  1       21 0.74563513E-02 0.17770481E+03</pdfrwt>
<totfact> 0.92256237E+04</totfact>
</mgrwt>
</event>
<event>
12    1  0.2736842E-001  0.2242383E+03  0.7546771E-02  0.1130936E+00
         21   -1    0    0  502  503  0.00000000000E+00  0.00000000000E+00  0.73083199131E+02  0.73083199131E+02  0.00000000000E+00 0. -1.
         21   -1    0    0  503  504 -0.00000000000E+00 -0.00000000000E+00 -0.89102188805E+03  0.89102188805E+03  0.00000000000E+00 0. -1.
         -6    2    1    2    0  504 -0.10537241743E+03 -0.95794972476E+02 -0.64138645590E+03  0.67945521122E+03  0.17321309171E+03 0.  0.
        -24    2    3    3    0    0 -0.94596386211E+02 -0.13476361357E+03 -0.53520537693E+03  0.56573982366E+03  0.80666255361E+02 0.  0.
          6    2    1    2  502    0  0.10537241743E+03  0.95794972476E+02 -0.17655223302E+03  0.28464987596E+03  0.17197336361E+03 0.  0.
         24    2    5    5    0    0  0.13215147803E+03  0.11071082583E+03 -0.13571987325E+03  0.23337637040E+03  0.79521985413E+02 0.  0.
          4    1    6    6  501    0  0.13522701432E+03  0.11216279659E+03 -0.14222120282E+03  0.22603917552E+03  0.00000000000E+00 0. -1.
         -3    1    6    6    0  501 -0.30755362818E+01 -0.14519707669E+01  0.65013295664E+01  0.73371948767E+01  0.00000000000E+00 0.  1.
          5    1    5    5  502    0 -0.26779060605E+02 -0.14915853349E+02 -0.40832359766E+02  0.51273505557E+02  0.47000000000E+01 0. -1.
         13    1    4    4    0    0 -0.39232347760E+02 -0.56954299573E+02 -0.35622901016E+03  0.36288025164E+03  0.00000000000E+00 0. -1.
        -14    1    4    4    0    0 -0.55364038451E+02 -0.77809313996E+02 -0.17897636677E+03  0.20285957202E+03  0.00000000000E+00 0.  1.
         -5    1    3    3    0  504 -0.10776031217E+02  0.38968641093E+02 -0.10618107897E+03  0.11371538756E+03  0.47000000000E+01 0.  1.
<mgrwt>
<rscale>  2 0.22399882E+03</rscale>
<asrwt>0</asrwt>
<pdfrwt beam="1">  1       21 0.11243568E-01 0.22423826E+03</pdfrwt>
<pdfrwt beam="2">  1       21 0.13708030E+00 0.22423826E+03</pdfrwt>
<totfact> 0.24427939E+04</totfact>
</mgrwt>
</event>
<event>
12    1  0.2736842E-001  0.2029577E+03  0.7546771E-02  0.1147657E+00
         21   -1    0    0  502  503  0.00000000000E+00  0.00000000000E+00  0.16389210281E+04  0.16389210281E+04  0.00000000000E+00 0.  1.
         21   -1    0    0  503  504 -0.00000000000E+00 -0.00000000000E+00 -0.33484891899E+02  0.33484891899E+02  0.00000000000E+00 0.  1.
         -6    2    1    2    0  504  0.86939895724E+02 -0.56765498709E+02  0.37660464417E+03  0.42692662764E+03  0.17220458780E+03 0.  0.
        -24    2    3    3    0    0  0.25967522274E+02  0.34410034315E+02  0.17506267593E+03  0.19742311326E+03  0.80439930828E+02 0.  0.
          6    2    1    2  502    0 -0.86939895724E+02  0.56765498709E+02  0.12288314920E+04  0.12454792923E+04  0.17438739805E+03 0.  0.
         24    2    5    5    0    0 -0.25460968388E+02  0.49792800691E+02  0.10773209719E+04  0.10817545088E+04  0.80279244113E+02 0.  0.
          4    1    6    6  501    0  0.17180466451E+00 -0.16939013545E+01  0.70630746516E+03  0.70630951725E+03  0.00000000000E+00 0. -1.
         -3    1    6    6    0  501 -0.25632773052E+02  0.51486702046E+02  0.37101350670E+03  0.37544499157E+03  0.00000000000E+00 0.  1.
          5    1    5    5  502    0 -0.61478927337E+02  0.69726980181E+01  0.15151052014E+03  0.16372478352E+03  0.47000000000E+01 0. -1.
         13    1    4    4    0    0  0.54842942567E+02  0.17297835571E+02  0.10427401224E+03  0.11907994413E+03  0.00000000000E+00 0. -1.
        -14    1    4    4    0    0 -0.28875420293E+02  0.17112198744E+02  0.70788663694E+02  0.78343169138E+02  0.00000000000E+00 0.  1.
         -5    1    3    3    0  504  0.60972373450E+02 -0.91175533024E+02  0.20154196824E+03  0.22950351437E+03  0.47000000000E+01 0.  1.
<mgrwt>
<rscale>  2 0.20248797E+03</rscale>
<asrwt>0</asrwt>
<pdfrwt beam="1">  1       21 0.25214164E+00 0.20295771E+03</pdfrwt>
<pdfrwt beam="2">  1       21 0.51515231E-02 0.20295771E+03</pdfrwt>
<totfact> 0.16366108E+04</totfact>
</mgrwt>
</event>
<event>
12    1  0.2736842E-001  0.1813325E+03  0.7546771E-02  0.1166569E+00
         21   -1    0    0  502  503  0.00000000000E+00  0.00000000000E+00  0.23828197067E+03  0.23828197067E+03  0.00000000000E+00 0. -1.
         21   -1    0    0  503  504 -0.00000000000E+00 -0.00000000000E+00 -0.25291732802E+03  0.25291732802E+03  0.00000000000E+00 0. -1.
         -6    2    1    2    0  504  0.31423144210E+02  0.43260176932E+02 -0.17298396333E+03  0.25045927793E+03  0.17305357966E+03 0.  0.
        -24    2    3    3    0    0 -0.26463761953E+01  0.85380717403E+02 -0.82695608146E+02  0.14506027778E+03  0.83108666051E+02 0.  0.
          6    2    1    2  502    0 -0.31423144210E+02 -0.43260176932E+02  0.15834860597E+03  0.24074002077E+03  0.17327036586E+03 0.  0.
         24    2    5    5    0    0  0.15202530546E+02 -0.62424803567E+02  0.15948431119E+03  0.19009798006E+03  0.81080351943E+02 0.  0.
          2    1    6    6  501    0  0.37671997093E+02 -0.54636065702E+02  0.15084130436E+03  0.16479495788E+03  0.00000000000E+00 0. -1.
         -1    1    6    6    0  501 -0.22469466547E+02 -0.77887378645E+01  0.86430068274E+01  0.25303022180E+02  0.00000000000E+00 0.  1.
          5    1    5    5  502    0 -0.46625674757E+02  0.19164626635E+02 -0.11357052204E+01  0.50642040706E+02  0.47000000000E+01 0. -1.
         13    1    4    4    0    0 -0.41546689142E+02  0.35484033519E+02 -0.48935299782E+02  0.73347853262E+02  0.00000000000E+00 0. -1.
        -14    1    4    4    0    0  0.38900312946E+02  0.49896683884E+02 -0.33760308364E+02  0.71712424522E+02  0.00000000000E+00 0.  1.
         -5    1    3    3    0  504  0.34069520406E+02 -0.42120540471E+02 -0.90288355180E+02  0.10539900014E+03  0.47000000000E+01 0.  1.
<mgrwt>
<rscale>  2 0.18128070E+03</rscale>
<asrwt>0</asrwt>
<pdfrwt beam="1">  1       21 0.36658765E-01 0.18133250E+03</pdfrwt>
<pdfrwt beam="2">  1       21 0.38910358E-01 0.18133250E+03</pdfrwt>
<totfact> 0.45952020E+04</totfact>
</mgrwt>
</event>
<event>
12    1  0.2736842E-001  0.1760769E+03  0.7546771E-02  0.1172044E+00
         21   -1    0    0  502  503  0.00000000000E+00  0.00000000000E+00  0.10805973927E+04  0.10805973927E+04  0.00000000000E+00 0.  1.
         21   -1    0    0  503  504 -0.00000000000E+00 -0.00000000000E+00 -0.65182689808E+02  0.65182689808E+02  0.00000000000E+00 0.  1.
         -6    2    1    2    0  504  0.25811739662E+02  0.12057046544E+02  0.78557801941E+02  0.19280661183E+03  0.17375685035E+03 0.  0.
        -24    2    3    3    0    0  0.63691653957E+02 -0.26973703874E+02  0.86115231453E+02  0.13769316405E+03  0.82215368723E+02 0.  0.
          6    2    1    2  502    0 -0.25811739662E+02 -0.12057046544E+02  0.93685690094E+03  0.95297347066E+03  0.17218003565E+03 0.  0.
         24    2    5    5    0    0  0.41328633742E+02  0.25702424053E+01  0.70652901465E+03  0.71256795383E+03  0.82796003327E+02 0.  0.
          2    1    6    6  501    0  0.49804758655E+02 -0.28923385092E+02  0.52320458017E+03  0.52636499589E+03  0.00000000000E+00 0. -1.
         -1    1    6    6    0  501 -0.84761249123E+01  0.31493627497E+02  0.18332443448E+03  0.18620295794E+03  0.00000000000E+00 0.  1.
          5    1    5    5  502    0 -0.67140373405E+02 -0.14627288949E+02  0.23032788628E+03  0.24040551683E+03  0.47000000000E+01 0. -1.
         13    1    4    4    0    0  0.38699334582E+00  0.11339349086E+02  0.57092991683E+02  0.58209451989E+02  0.00000000000E+00 0. -1.
        -14    1    4    4    0    0  0.63304660612E+02 -0.38313052960E+02  0.29022239770E+02  0.79483712064E+02  0.00000000000E+00 0.  1.
         -5    1    3    3    0  504 -0.37879914295E+02  0.39030750418E+02 -0.75574295118E+01  0.55113447778E+02  0.47000000000E+01 0.  1.
<mgrwt>
<rscale>  2 0.17568660E+03</rscale>
<asrwt>0</asrwt>
<pdfrwt beam="1">  1       21 0.16624574E+00 0.17607686E+03</pdfrwt>
<pdfrwt beam="2">  1       21 0.10028107E-01 0.17607686E+03</pdfrwt>
<totfact> 0.18536920E+04</totfact>
</mgrwt>
</event>
<event>
12    1  0.2736842E-001  0.1863933E+03  0.7546771E-02  0.1162005E+00
         21   -1    0    0  502  503  0.00000000000E+00  0.00000000000E+00  0.44887474891E+02  0.44887474891E+02  0.00000000000E+00 0.  1.
         21   -1    0    0  503  504 -0.00000000000E+00 -0.00000000000E+00 -0.77545617593E+03  0.77545617593E+03  0.00000000000E+00 0.  1.
         -6    2    1    2    0  504 -0.22444192514E+02 -0.62646256518E+02 -0.33047299227E+03  0.37941385149E+03  0.17410966903E+03 0.  0.
        -24    2    3    3    0    0 -0.39410041331E+02 -0.47757905751E+02 -0.34007649918E+03  0.35443745544E+03  0.78357613607E+02 0.  0.
          6    2    1    2  502    0  0.22444192514E+02  0.62646256518E+02 -0.40009570877E+03  0.44092979933E+03  0.17295726793E+03 0.  0.
         24    2    5    5    0    0 -0.33665109398E+02  0.86322128152E+02 -0.29364966966E+03  0.31820388560E+03  0.80241728050E+02 0.  0.
          2    1    6    6  501    0 -0.56811005074E+02  0.46385856918E+02 -0.14407160526E+03  0.16166559765E+03  0.00000000000E+00 0. -1.
         -1    1    6    6    0  501  0.23145895676E+02  0.39936271234E+02 -0.14957806439E+03  0.15653828795E+03  0.00000000000E+00 0.  1.
          5    1    5    5  502    0  0.56109301913E+02 -0.23675871633E+02 -0.10644603911E+03  0.12272591373E+03  0.47000000000E+01 0. -1.
         13    1    4    4    0    0 -0.31438869186E+01  0.17619106011E+02 -0.13455832056E+03  0.13574335547E+03  0.00000000000E+00 0. -1.
        -14    1    4    4    0    0 -0.36266154413E+02 -0.65377011762E+02 -0.20551817862E+03  0.21869409998E+03  0.00000000000E+00 0.  1.
         -5    1    3    3    0  504  0.16965848817E+02 -0.14888350767E+02  0.96035069052E+01  0.24976396047E+02  0.47000000000E+01 0.  1.
<mgrwt>
<rscale>  2 0.18612374E+03</rscale>
<asrwt>0</asrwt>
<pdfrwt beam="1">  1       21 0.69057661E-02 0.18639333E+03</pdfrwt>
<pdfrwt beam="2">  1       21 0.11930094E+00 0.18639333E+03</pdfrwt>
<totfact> 0.83202991E+04</totfact>
</mgrwt>
</event>
<event>
12    1  0.2736842E-001  0.1820894E+03  0.7546771E-02  0.1166382E+00
         21   -1    0    0  502  503  0.00000000000E+00  0.00000000000E+00  0.27764352135E+02  0.27764352135E+02  0.00000000000E+00 0. -1.
         21   -1    0    0  503  504 -0.00000000000E+00 -0.00000000000E+00 -0.12355756666E+04  0.12355756666E+04  0.00000000000E+00 0. -1.
         -6    2    1    2    0  504  0.18970676170E+01 -0.50424668639E+02 -0.46397262058E+03  0.49753812397E+03  0.17241620018E+03 0.  0.
        -24    2    3    3    0    0  0.39776255595E+02 -0.57828824593E+02 -0.17233445238E+03  0.20331955630E+03  0.81935065980E+02 0.  0.
          6    2    1    2  502    0 -0.18970676170E+01  0.50424668639E+02 -0.74383869386E+03  0.76580189474E+03  0.17495797617E+03 0.  0.
         24    2    5    5    0    0  0.10063786440E+02 -0.87847364138E+01 -0.64247734252E+03  0.64771282148E+03  0.81094463873E+02 0.  0.
          4    1    6    6  501    0 -0.84186624240E+01 -0.18774459387E+02 -0.59971798988E+03  0.60007084714E+03  0.00000000000E+00 0. -1.
         -3    1    6    6    0  501  0.18482448864E+02  0.99897229734E+01 -0.42759352641E+02  0.47641974344E+02  0.00000000000E+00 0.  1.
          5    1    5    5  502    0 -0.11960854057E+02  0.59209405053E+02 -0.10136135134E+03  0.11808907326E+03  0.47000000000E+01 0. -1.
         13    1    4    4    0    0  0.10336653311E+02 -0.45062543742E+02 -0.25055942266E+02  0.52585924856E+02  0.00000000000E+00 0. -1.
        -14    1    4    4    0    0  0.29439602284E+02 -0.12766280851E+02 -0.14727851011E+03  0.15073363145E+03  0.00000000000E+00 0.  1.
         -5    1    3    3    0  504 -0.37879187979E+02  0.74041559541E+01 -0.29163816820E+03  0.29421856767E+03  0.47000000000E+01 0.  1.
<mgrwt>
<rscale>  2 0.18147607E+03</rscale>
<asrwt>0</asrwt>
<pdfrwt beam="1">  1       21 0.42714385E-02 0.18208937E+03</pdfrwt>
<pdfrwt beam="2">  1       21 0.19008858E+00 0.18208937E+03</pdfrwt>
<totfact> 0.55025469E+04</totfact>
</mgrwt>
</event>
<event>
12    1  0.2736842E-001  0.1922620E+03  0.7546771E-02  0.1156633E+00
         21   -1    0    0  502  503  0.00000000000E+00  0.00000000000E+00  0.10965100387E+03  0.10965100387E+03  0.00000000000E+00 0.  1.
         21   -1    0    0  503  504 -0.00000000000E+00 -0.00000000000E+00 -0.33650519621E+03  0.33650519621E+03  0.00000000000E+00 0. -1.
         -6    2    1    2    0  504 -0.16611851666E+02  0.82517235012E+02 -0.10189713567E+03  0.21759530079E+03  0.17285728500E+03 0.  0.
        -24    2    3    3    0    0  0.54269697878E+01  0.76942185875E+02  0.41354797407E+01  0.10905131729E+03  0.76977500875E+02 0.  0.
          6    2    1    2  502    0  0.16611851666E+02 -0.82517235012E+02 -0.12495705668E+03  0.22856089929E+03  0.17187428831E+03 0.  0.
         24    2    5    5    0    0 -0.35294160365E+02 -0.21434189091E+01 -0.41927189599E+02  0.10179247567E+03  0.85752824298E+02 0.  0.
          2    1    6    6  501    0  0.25330200806E+02  0.83437040202E+01  0.11378360599E+01  0.26693278940E+02  0.00000000000E+00 0. -1.
         -1    1    6    6    0  501 -0.60624361171E+02 -0.10487122929E+02 -0.43065025658E+02  0.75099196731E+02  0.00000000000E+00 0.  1.
          5    1    5    5  502    0  0.51906012030E+02 -0.80373816103E+02 -0.83029867085E+02  0.12676842362E+03  0.47000000000E+01 0. -1.
         11    1    4    4    0    0  0.37586796936E+02  0.34325411303E+02 -0.13783309941E+02  0.52735005433E+02  0.00000000000E+00 0. -1.
        -12    1    4    4    0    0 -0.32159827149E+02  0.42616774572E+02  0.17918789682E+02  0.56316311854E+02  0.00000000000E+00 0.  1.
         -5    1    3    3    0  504 -0.22038821454E+02  0.55750491370E+01 -0.10603261541E+03  0.10854398350E+03  0.47000000000E+01 0.  1.
<mgrwt>
<rscale>  2 0.19204082E+03</rscale>
<asrwt>0</asrwt>
<pdfrwt beam="1">  1       21 0.16869385E-01 0.19226203E+03</pdfrwt>
<pdfrwt beam="2">  1       21 0.51770030E-01 0.19226203E+03</pdfrwt>
<totfact> 0.11213678E+05</totfact>
</mgrwt>
</event>
<event>
12    1  0.2736842E-001  0.2159644E+03  0.7546771E-02  0.1136977E+00
         21   -1    0    0  502  503  0.00000000000E+00  0.00000000000E+00  0.38079051555E+02  0.38079051555E+02  0.00000000000E+00 0.  1.
         21   -1    0    0  503  504 -0.00000000000E+00 -0.00000000000E+00 -0.13590413559E+04  0.13590413559E+04  0.00000000000E+00 0. -1.
         -6    2    1    2    0  504 -0.10895720823E+03 -0.65553289239E+02 -0.88154258434E+03  0.90761111933E+03  0.17456147623E+03 0.  0.
        -24    2    3    3    0    0 -0.59726640285E+02  0.78219951485E+01 -0.67285110737E+03  0.68093557205E+03  0.85534703029E+02 0.  0.
          6    2    1    2  502    0  0.10895720823E+03  0.65553289239E+02 -0.43941972003E+03  0.48950928814E+03  0.17424335244E+03 0.  0.
         24    2    5    5    0    0  0.10221931044E+03  0.93514282967E+02 -0.24953371118E+03  0.29739993701E+03  0.83581941652E+02 0.  0.
          4    1    6    6  501    0  0.25002857263E+02  0.37474626520E+02 -0.20908217077E+02  0.49665320350E+02  0.00000000000E+00 0. -1.
         -3    1    6    6    0  501  0.77216453177E+02  0.56039656446E+02 -0.22862549410E+03  0.24773461666E+03  0.00000000000E+00 0.  1.
          5    1    5    5  502    0  0.67378977883E+01 -0.27960993728E+02 -0.18988600884E+03  0.19210935113E+03  0.47000000000E+01 0. -1.
         13    1    4    4    0    0 -0.28081652701E+02  0.45998477415E+02 -0.40013978864E+03  0.40375275801E+03  0.00000000000E+00 0. -1.
        -14    1    4    4    0    0 -0.31644987583E+02 -0.38176482267E+02 -0.27271131873E+03  0.27718281404E+03  0.00000000000E+00 0.  1.
         -5    1    3    3    0  504 -0.49230567944E+02 -0.73375284387E+02 -0.20869147696E+03  0.22667554728E+03  0.47000000000E+01 0.  1.
<mgrwt>
<rscale>  2 0.21590009E+03</rscale>
<asrwt>0</asrwt>
<pdfrwt beam="1">  1       21 0.58583161E-02 0.21596439E+03</pdfrwt>
<pdfrwt beam="2">  1       21 0.20908327E+00 0.21596439E+03</pdfrwt>
<totfact> 0.23741118E+04</totfact>
</mgrwt>
</event>
<event>
12    1  0.2736842E-001  0.1764070E+03  0.7546771E-02  0.1171478E+00
         21   -1    0    0  502  503  0.00000000000E+00  0.00000000000E+00  0.11492596108E+04  0.11492596108E+04  0.00000000000E+00 0.  1.
         21   -1    0    0  503  504 -0.00000000000E+00 -0.00000000000E+00 -0.32711984848E+02  0.32711984848E+02  0.00000000000E+00 0.  1.
         -6    2    1    2    0  504  0.25672982711E+02 -0.18959332364E+02  0.31177448285E+03  0.35822166068E+03  0.17349602790E+03 0.  0.
        -24    2    3    3    0    0  0.53420943141E+02  0.43762502242E+02  0.17111013994E+03  0.20165689705E+03  0.81350294214E+02 0.  0.
          6    2    1    2  502    0 -0.25672982711E+02  0.18959332364E+02  0.80477314307E+03  0.82374993494E+03  0.17287447809E+03 0.  0.
         24    2    5    5    0    0 -0.15873743579E+01 -0.39092591804E+02  0.65926407394E+03  0.66517780110E+03  0.79382853322E+02 0.  0.
          4    1    6    6  501    0 -0.84515778262E+01 -0.57044824973E+02  0.60238961177E+03  0.60514360741E+03  0.00000000000E+00 0. -1.
         -3    1    6    6    0  501  0.68642034684E+01  0.17952233168E+02  0.56874462169E+02  0.60034193690E+02  0.00000000000E+00 0.  1.
          5    1    5    5  502    0 -0.24085608353E+02  0.58051924168E+02  0.14550906914E+03  0.15857213384E+03  0.47000000000E+01 0. -1.
         13    1    4    4    0    0  0.44046330889E+02  0.59428133313E+02  0.80909300675E+02  0.10962708256E+03  0.00000000000E+00 0. -1.
        -14    1    4    4    0    0  0.93746122529E+01 -0.15665631071E+02  0.90200839266E+02  0.92029814496E+02  0.00000000000E+00 0.  1.
         -5    1    3    3    0  504 -0.27747960430E+02 -0.62721834605E+02  0.14066434291E+03  0.15656476363E+03  0.47000000000E+01 0.  1.
<mgrwt>
<rscale>  2 0.17625399E+03</rscale>
<asrwt>0</asrwt>
<pdfrwt beam="1">  1       21 0.17680914E+00 0.17640700E+03</pdfrwt>
<pdfrwt beam="2">  1       21 0.50326139E-02 0.17640700E+03</pdfrwt>
<totfact> 0.51413088E+04</totfact>
</mgrwt>
</event>
<event>
12    1  0.2736842E-001  0.1959041E+03  0.7546771E-02  0.1153438E+00
         21   -1    0    0  502  503  0.00000000000E+00  0.00000000000E+00  0.47671672531E+03  0.47671672531E+03  0.00000000000E+00 0.  1.
         21   -1    0    0  503  504 -0.00000000000E+00 -0.00000000000E+00 -0.16116300290E+03  0.16116300290E+03  0.00000000000E+00 0. -1.
         -6    2    1    2    0  504  0.88790293513E+02 -0.16008067580E+02 -0.68190162202E+02  0.20743266865E+03  0.17389203360E+03 0.  0.
        -24    2    3    3    0    0  0.34058847931E+02  0.53634309507E+02 -0.19462880717E+02  0.10622975474E+03  0.82881317485E+02 0.  0.
          6    2    1    2  502    0 -0.88790293513E+02  0.16008067580E+02  0.38374388462E+03  0.43044705956E+03  0.17287373327E+03 0.  0.
         24    2    5    5    0    0 -0.11313201893E+03 -0.16589388455E+02  0.21209650574E+03  0.25398169068E+03  0.80297633472E+02 0.  0.
          2    1    6    6  501    0 -0.10977999109E+03 -0.21131799291E+02  0.12903486071E+03  0.17072842371E+03  0.00000000000E+00 0. -1.
         -1    1    6    6    0  501 -0.33520278394E+01  0.45424108365E+01  0.83061645032E+02  0.83253266976E+02  0.00000000000E+00 0.  1.
          5    1    5    5  502    0  0.24341725416E+02  0.32597456035E+02  0.17164737888E+03  0.17646536888E+03  0.47000000000E+01 0. -1.
         13    1    4    4    0    0  0.39421158821E+02  0.72713263464E+02 -0.74306253632E+01  0.83044931450E+02  0.00000000000E+00 0. -1.
        -14    1    4    4    0    0 -0.53623108900E+01 -0.19078953956E+02 -0.12032255354E+02  0.23184823292E+02  0.00000000000E+00 0.  1.
         -5    1    3    3    0  504  0.54731445582E+02 -0.69642377088E+02 -0.48727281485E+02  0.10120291390E+03  0.47000000000E+01 0.  1.
<mgrwt>
<rscale>  2 0.19567787E+03</rscale>
<asrwt>0</asrwt>
<pdfrwt beam="1">  1       21 0.73341034E-01 0.19590409E+03</pdfrwt>
<pdfrwt beam="2">  1       21 0.24794308E-01 0.19590409E+03</pdfrwt>
<totfact> 0.25667538E+04</totfact>
</mgrwt>
</event>
<event>
12    1  0.2736842E-001  0.2813438E+03  0.7546771E-02  0.1094967E+00
         21   -1    0    0  502  503  0.00000000000E+00  0.00000000000E+00  0.78630016319E+03  0.78630016319E+03  0.00000000000E+00 0.  1.
         21   -1    0    0  503  504 -0.00000000000E+00 -0.00000000000E+00 -0.17266463799E+03  0.17266463799E+03  0.00000000000E+00 0. -1.
         -6    2    1    2    0  504  0.21646862132E+03 -0.48756123913E+02 -0.28796859562E+01  0.28128838427E+03  0.17285554345E+03 0.  0.
        -24    2    3    3    0    0  0.96817379457E+02 -0.27169225542E+02 -0.65110617189E+02  0.14462385829E+03  0.81024046645E+02 0.  0.
          6    2    1    2  502    0 -0.21646862132E+03  0.48756123913E+02  0.61651521116E+03  0.67767641691E+03  0.17296964127E+03 0.  0.
         24    2    5    5    0    0 -0.37677447354E+02  0.47744994378E+02  0.25572197329E+03  0.27498403212E+03  0.80767046316E+02 0.  0.
          2    1    6    6  501    0  0.72402914269E+01  0.37561686045E+02  0.43969508235E+02  0.58280526190E+02  0.00000000000E+00 0. -1.
         -1    1    6    6    0  501 -0.44917738781E+02  0.10183308333E+02  0.21175246506E+03  0.21670350593E+03  0.00000000000E+00 0.  1.
          5    1    5    5  502    0 -0.17879117396E+03  0.10111295349E+01  0.36079323787E+03  0.40269238478E+03  0.47000000000E+01 0. -1.
         11    1    4    4    0    0  0.10961041338E+03 -0.19707051839E+02 -0.66560915307E+02  0.12974269174E+03  0.00000000000E+00 0. -1.
        -12    1    4    4    0    0 -0.12793033922E+02 -0.74621737029E+01  0.14502981185E+01  0.14881166551E+02  0.00000000000E+00 0.  1.
         -5    1    3    3    0  504  0.11965124186E+03 -0.21586898371E+02  0.62230931233E+02  0.13666452598E+03  0.47000000000E+01 0.  1.
<mgrwt>
<rscale>  2 0.28132624E+03</rscale>
<asrwt>0</asrwt>
<pdfrwt beam="1">  1       21 0.12096925E+00 0.28134378E+03</pdfrwt>
<pdfrwt beam="2">  1       21 0.26563791E-01 0.28134378E+03</pdfrwt>
<totfact> 0.65870981E+03</totfact>
</mgrwt>
</event>
<event>
12    1  0.2736842E-001  0.2571573E+03  0.7546771E-02  0.1109754E+00
         21   -1    0    0  502  503  0.00000000000E+00  0.00000000000E+00  0.67441809841E+03  0.67441809841E+03  0.00000000000E+00 0.  1.
         21   -1    0    0  503  504 -0.00000000000E+00 -0.00000000000E+00 -0.47547933809E+03  0.47547933809E+03  0.00000000000E+00 0.  1.
         -6    2    1    2    0  504 -0.11480713300E+03  0.13846703499E+03 -0.41448126255E+03  0.48475536029E+03  0.17561106103E+03 0.  0.
        -24    2    3    3    0    0 -0.68548359090E+02  0.21020539751E+02 -0.28107219333E+03  0.30103376886E+03  0.80492307121E+02 0.  0.
          6    2    1    2  502    0  0.11480713300E+03 -0.13846703499E+03  0.61342002287E+03  0.66514207620E+03  0.18378264203E+03 0.  0.
         24    2    5    5    0    0  0.80533782138E+02 -0.17139596311E+03  0.53646813159E+03  0.57457353609E+03  0.80463817478E+02 0.  0.
          4    1    6    6  501    0  0.69663120243E+02 -0.12047138904E+03  0.27769890935E+03  0.31061711181E+03  0.00000000000E+00 0. -1.
         -3    1    6    6    0  501  0.10870661895E+02 -0.50924574073E+02  0.25876922225E+03  0.26395642428E+03  0.00000000000E+00 0.  1.
          5    1    5    5  502    0  0.34273350863E+02  0.32928928126E+02  0.76951891280E+02  0.90568540114E+02  0.47000000000E+01 0. -1.
         11    1    4    4    0    0  0.17464516319E+02 -0.39637568014E+01 -0.38753006676E+02  0.42690938438E+02  0.00000000000E+00 0. -1.
        -12    1    4    4    0    0 -0.86012875409E+02  0.24984296552E+02 -0.24231918665E+03  0.25834283042E+03  0.00000000000E+00 0.  1.
         -5    1    3    3    0  504 -0.46258773911E+02  0.11744649524E+03 -0.13340906923E+03  0.18372159143E+03  0.47000000000E+01 0.  1.
<mgrwt>
<rscale>  2 0.25570119E+03</rscale>
<asrwt>0</asrwt>
<pdfrwt beam="1">  1       21 0.10375663E+00 0.25715726E+03</pdfrwt>
<pdfrwt beam="2">  1       21 0.73150667E-01 0.25715726E+03</pdfrwt>
<totfact> 0.11951504E+03</totfact>
</mgrwt>
</event>
<event>
12    1  0.2736842E-001  0.1862493E+03  0.7546771E-02  0.1162010E+00
         21   -1    0    0  502  503  0.00000000000E+00  0.00000000000E+00  0.48219051558E+03  0.48219051558E+03  0.00000000000E+00 0. -1.
         21   -1    0    0  503  504 -0.00000000000E+00 -0.00000000000E+00 -0.72540426367E+02  0.72540426367E+02  0.00000000000E+00 0. -1.
         -6    2    1    2    0  504 -0.41007990875E+02 -0.51620046887E+02  0.17592820770E+03  0.25620215445E+03  0.17419105926E+03 0.  0.
        -24    2    3    3    0    0 -0.52395779361E+02 -0.48545195549E+02  0.32460449305E+02  0.11217360126E+03  0.80170333316E+02 0.  0.
          6    2    1    2  502    0  0.41007990875E+02  0.51620046887E+02  0.23372188151E+03  0.29852878749E+03  0.17362958995E+03 0.  0.
         24    2    5    5    0    0  0.87435368207E+02  0.29256714925E+01  0.15642457259E+03  0.19594415157E+03  0.79195709837E+02 0.  0.
          2    1    6    6  501    0  0.79006145110E+02  0.31900571851E+02  0.95687115688E+02  0.12812354022E+03  0.00000000000E+00 0. -1.
         -1    1    6    6    0  501  0.84292230970E+01 -0.28974900358E+02  0.60737456906E+02  0.67820611352E+02  0.00000000000E+00 0.  1.
          5    1    5    5  502    0 -0.46427377332E+02  0.48694375394E+02  0.77297308917E+02  0.10258463592E+03  0.47000000000E+01 0. -1.
         13    1    4    4    0    0 -0.40488955421E+02 -0.24179012231E+02  0.58115045230E+02  0.74842091270E+02  0.00000000000E+00 0. -1.
        -14    1    4    4    0    0 -0.11906823940E+02 -0.24366183318E+02 -0.25654595925E+02  0.37331509986E+02  0.00000000000E+00 0.  1.
         -5    1    3    3    0  504  0.11387788486E+02 -0.30748513379E+01  0.14346775840E+03  0.14402855320E+03  0.47000000000E+01 0.  1.
<mgrwt>
<rscale>  2 0.18611793E+03</rscale>
<asrwt>0</asrwt>
<pdfrwt beam="1">  1       21 0.74183154E-01 0.18624932E+03</pdfrwt>
<pdfrwt beam="2">  1       21 0.11160066E-01 0.18624932E+03</pdfrwt>
<totfact> 0.10908746E+05</totfact>
</mgrwt>
</event>
<event>
12    1  0.2736842E-001  0.2717676E+03  0.7546771E-02  0.1100813E+00
         21   -1    0    0  502  503  0.00000000000E+00  0.00000000000E+00  0.46197795821E+03  0.46197795821E+03  0.00000000000E+00 0.  1.
         21   -1    0    0  503  504 -0.00000000000E+00 -0.00000000000E+00 -0.15796576992E+03  0.15796576992E+03  0.00000000000E+00 0. -1.
         -6    2    1    2    0  504  0.14774099202E+01 -0.20779072889E+03  0.16470386005E+03  0.31455149823E+03  0.16922208418E+03 0.  0.
        -24    2    3    3    0    0 -0.32364638956E+01 -0.22020079075E+03  0.10897533199E+03  0.25707116176E+03  0.75571795550E+02 0.  0.
          6    2    1    2  502    0 -0.14774099202E+01  0.20779072889E+03  0.13930832824E+03  0.30539222990E+03  0.17515260208E+03 0.  0.
         24    2    5    5    0    0  0.37162806018E+01  0.12741014461E+03  0.16240977460E+03  0.22146500206E+03  0.80141478380E+02 0.  0.
          2    1    6    6  501    0 -0.30157772557E+02  0.10624202883E+03  0.12398063686E+03  0.16603631606E+03  0.00000000000E+00 0. -1.
         -1    1    6    6    0  501  0.33874053159E+02  0.21168115785E+02  0.38429137742E+02  0.55428685993E+02  0.00000000000E+00 0.  1.
          5    1    5    5  502    0 -0.51936905219E+01  0.80380584277E+02 -0.23101446362E+02  0.83927227846E+02  0.47000000000E+01 0. -1.
         13    1    4    4    0    0 -0.37531277833E+02 -0.12183179684E+03  0.47093833500E+02  0.13590221739E+03  0.00000000000E+00 0. -1.
        -14    1    4    4    0    0  0.34294813938E+02 -0.98368993906E+02  0.61881498488E+02  0.12116894437E+03  0.00000000000E+00 0.  1.
         -5    1    3    3    0  504  0.47138738158E+01  0.12410061855E+02  0.55728528057E+02  0.57480336473E+02  0.47000000000E+01 0.  1.
<mgrwt>
<rscale>  2 0.27081662E+03</rscale>
<asrwt>0</asrwt>
<pdfrwt beam="1">  1       21 0.71073531E-01 0.27176755E+03</pdfrwt>
<pdfrwt beam="2">  1       21 0.24302426E-01 0.27176755E+03</pdfrwt>
<totfact> 0.27548428E+04</totfact>
</mgrwt>
</event>
<event>
12    1  0.2736842E-001  0.1729641E+03  0.7546771E-02  0.1174893E+00
         21   -1    0    0  502  503  0.00000000000E+00  0.00000000000E+00  0.29900399025E+03  0.29900399025E+03  0.00000000000E+00 0.  1.
         21   -1    0    0  503  504 -0.00000000000E+00 -0.00000000000E+00 -0.99994058867E+02  0.99994058867E+02  0.00000000000E+00 0.  1.
         -6    2    1    2    0  504  0.28917032897E+01 -0.10079965354E+02  0.10781415869E+03  0.20381476104E+03  0.17264586979E+03 0.  0.
        -24    2    3    3    0    0 -0.24205313927E+02  0.27382970495E+01  0.13794950918E+03  0.16105045884E+03  0.79459346308E+02 0.  0.
          6    2    1    2  502    0 -0.28917032897E+01  0.10079965354E+02  0.91195772701E+02  0.19518328808E+03  0.17224946832E+03 0.  0.
         24    2    5    5    0    0 -0.46919255054E+02  0.32180892790E+01  0.10960499785E+03  0.14674260034E+03  0.85488961915E+02 0.  0.
          4    1    6    6  501    0 -0.49933578866E+02  0.12853610462E+02  0.12099434601E+03  0.13152265724E+03  0.00000000000E+00 0. -1.
         -3    1    6    6    0  501  0.30143238110E+01 -0.96355211828E+01 -0.11389348165E+02  0.15219943106E+02  0.00000000000E+00 0.  1.
          5    1    5    5  502    0  0.44027551765E+02  0.68618760746E+01 -0.18409225146E+02  0.48440687734E+02  0.47000000000E+01 0. -1.
         11    1    4    4    0    0 -0.21580674811E+01 -0.29527690274E+02  0.17436091954E+02  0.34359264411E+02  0.00000000000E+00 0. -1.
        -12    1    4    4    0    0 -0.22047246446E+02  0.32265987324E+02  0.12051341723E+03  0.12669119443E+03  0.00000000000E+00 0.  1.
         -5    1    3    3    0  504  0.27097017217E+02 -0.12818262403E+02 -0.30135350499E+02  0.42764302201E+02  0.47000000000E+01 0.  1.
<mgrwt>
<rscale>  2 0.17286505E+03</rscale>
<asrwt>0</asrwt>
<pdfrwt beam="1">  1       21 0.46000614E-01 0.17296405E+03</pdfrwt>
<pdfrwt beam="2">  1       21 0.15383701E-01 0.17296405E+03</pdfrwt>
<totfact> 0.17071723E+05</totfact>
</mgrwt>
</event>
<event>
12    1  0.2736842E-001  0.1743541E+03  0.7546771E-02  0.1173517E+00
         21   -1    0    0  502  503  0.00000000000E+00  0.00000000000E+00  0.97312385658E+03  0.97312385658E+03  0.00000000000E+00 0. -1.
         21   -1    0    0  503  504 -0.00000000000E+00 -0.00000000000E+00 -0.32184779897E+02  0.32184779897E+02  0.00000000000E+00 0. -1.
         -6    2    1    2    0  504 -0.25688345038E+02 -0.89420258794E-01  0.38073522188E+03  0.41875846306E+03  0.17245127467E+03 0.  0.
        -24    2    3    3    0    0  0.33007064179E+02 -0.19676583156E+02  0.32095370851E+03  0.33259160543E+03  0.78289582844E+02 0.  0.
          6    2    1    2  502    0  0.25688345038E+02  0.89420258794E-01  0.56020385481E+03  0.58655017342E+03  0.17190941781E+03 0.  0.
         24    2    5    5    0    0 -0.37774959396E+02 -0.36841363323E+02  0.25601973213E+03  0.27359403548E+03  0.80767316421E+02 0.  0.
          4    1    6    6  501    0  0.12894845441E+02 -0.12898536025E+02  0.90780639850E+01  0.20373034046E+02  0.00000000000E+00 0. -1.
         -3    1    6    6    0  501 -0.50669804838E+02 -0.23942827299E+02  0.24694166814E+03  0.25322100143E+03  0.00000000000E+00 0.  1.
          5    1    5    5  502    0  0.63463304434E+02  0.36930783582E+02  0.30418412268E+03  0.31295613794E+03  0.47000000000E+01 0. -1.
         11    1    4    4    0    0  0.29908681867E+01 -0.27824537297E+01 -0.40590833548E+01  0.57587758204E+01  0.00000000000E+00 0. -1.
        -12    1    4    4    0    0  0.30016195992E+02 -0.16894129427E+02  0.32501279187E+03  0.32683282961E+03  0.00000000000E+00 0.  1.
         -5    1    3    3    0  504 -0.58695409217E+02  0.19587162898E+02  0.59781513363E+02  0.86166857628E+02  0.47000000000E+01 0.  1.
<mgrwt>
<rscale>  2 0.17421993E+03</rscale>
<asrwt>0</asrwt>
<pdfrwt beam="1">  1       21 0.14971134E+00 0.17435407E+03</pdfrwt>
<pdfrwt beam="2">  1       21 0.49515053E-02 0.17435407E+03</pdfrwt>
<totfact> 0.82918478E+04</totfact>
</mgrwt>
</event>
<event>
12    1  0.2736842E-001  0.1956045E+03  0.7546771E-02  0.1153700E+00
         21   -1    0    0  502  503  0.00000000000E+00  0.00000000000E+00  0.19974267511E+03  0.19974267511E+03  0.00000000000E+00 0.  1.
         21   -1    0    0  503  504 -0.00000000000E+00 -0.00000000000E+00 -0.19542885385E+03  0.19542885385E+03  0.00000000000E+00 0. -1.
         -6    2    1    2    0  504  0.54017401855E+02  0.70914779919E+02 -0.28707921254E+02  0.19679930399E+03  0.17308678631E+03 0.  0.
        -24    2    3    3    0    0  0.29162376609E+02  0.75055309632E+02 -0.80951334266E+02  0.13860668874E+03  0.78580862371E+02 0.  0.
          6    2    1    2  502    0 -0.54017401855E+02 -0.70914779919E+02  0.33021742514E+02  0.19837222498E+03  0.17411007567E+03 0.  0.
         24    2    5    5    0    0  0.99954443099E+01 -0.84514342401E+02 -0.14248784326E+02  0.11750699585E+03  0.79763921924E+02 0.  0.
          4    1    6    6  501    0 -0.20694895242E+00 -0.50896769757E+02 -0.47145767436E+02  0.69377571208E+02  0.00000000000E+00 0. -1.
         -3    1    6    6    0  501  0.10202393262E+02 -0.33617572645E+02  0.32896983110E+02  0.48129424644E+02  0.00000000000E+00 0.  1.
          5    1    5    5  502    0 -0.64012846165E+02  0.13599562482E+02  0.47270526840E+02  0.80865229126E+02  0.47000000000E+01 0. -1.
         13    1    4    4    0    0  0.18480457211E+02 -0.13207006891E+02 -0.98169794829E+01  0.24745209959E+02  0.00000000000E+00 0. -1.
        -14    1    4    4    0    0  0.10681919398E+02  0.88262316523E+02 -0.71134354784E+02  0.11386147878E+03  0.00000000000E+00 0.  1.
         -5    1    3    3    0  504  0.24855025247E+02 -0.41405297129E+01  0.52243413012E+02  0.58192615249E+02  0.47000000000E+01 0.  1.
<mgrwt>
<rscale>  2 0.19537649E+03</rscale>
<asrwt>0</asrwt>
<pdfrwt beam="1">  1       21 0.30729642E-01 0.19560446E+03</pdfrwt>
<pdfrwt beam="2">  1       21 0.30065977E-01 0.19560446E+03</pdfrwt>
<totfact> 0.10776840E+05</totfact>
</mgrwt>
</event>
<event>
12    1  0.2736842E-001  0.1957654E+03  0.7546771E-02  0.1153387E+00
         21   -1    0    0  502  503  0.00000000000E+00  0.00000000000E+00  0.31159831223E+03  0.31159831223E+03  0.00000000000E+00 0.  1.
         21   -1    0    0  503  504 -0.00000000000E+00 -0.00000000000E+00 -0.35932516383E+03  0.35932516383E+03  0.00000000000E+00 0.  1.
         -6    2    1    2    0  504  0.57696389010E+02  0.69937175414E+02 -0.29596074704E+03  0.35478404444E+03  0.17337494799E+03 0.  0.
        -24    2    3    3    0    0  0.83411013604E+02 -0.58189195797E+01 -0.16109378968E+03  0.19790379063E+03  0.78888809457E+02 0.  0.
          6    2    1    2  502    0 -0.57696389010E+02 -0.69937175414E+02  0.24823389544E+03  0.31613943161E+03  0.17350501885E+03 0.  0.
         24    2    5    5    0    0 -0.10261904485E+03 -0.81206243321E+02  0.18088081943E+03  0.23426413774E+03  0.70969663044E+02 0.  0.
          2    1    6    6  501    0 -0.29923862701E+02 -0.68027277788E+02  0.10180901417E+03  0.12604849642E+03  0.00000000000E+00 0. -1.
         -1    1    6    6    0  501 -0.72695182146E+02 -0.13178965533E+02  0.79071805256E+02  0.10821564132E+03  0.00000000000E+00 0.  1.
          5    1    5    5  502    0  0.44922655838E+02  0.11269067907E+02  0.67353076012E+02  0.81875293876E+02  0.47000000000E+01 0. -1.
         11    1    4    4    0    0  0.41073134272E+02 -0.36997980396E+02 -0.48104722014E+02  0.73279718833E+02  0.00000000000E+00 0. -1.
        -12    1    4    4    0    0  0.42337879332E+02  0.31179060816E+02 -0.11298906766E+03  0.12462407180E+03  0.00000000000E+00 0.  1.
         -5    1    3    3    0  504 -0.25714624594E+02  0.75756094994E+02 -0.13486695736E+03  0.15688025381E+03  0.47000000000E+01 0.  1.
<mgrwt>
<rscale>  2 0.19573653E+03</rscale>
<asrwt>0</asrwt>
<pdfrwt beam="1">  1       21 0.47938202E-01 0.19576535E+03</pdfrwt>
<pdfrwt beam="2">  1       21 0.55280794E-01 0.19576535E+03</pdfrwt>
<totfact> 0.12807666E+04</totfact>
</mgrwt>
</event>
<event>
12    1  0.2736842E-001  0.1851268E+03  0.7546771E-02  0.1163612E+00
         21   -1    0    0  502  503  0.00000000000E+00  0.00000000000E+00  0.96779764356E+02  0.96779764356E+02  0.00000000000E+00 0. -1.
         21   -1    0    0  503  504 -0.00000000000E+00 -0.00000000000E+00 -0.47623086404E+03  0.47623086404E+03  0.00000000000E+00 0. -1.
         -6    2    1    2    0  504  0.52469837604E+02  0.28954874423E+02 -0.40318155232E+02  0.18663891203E+03  0.17209608139E+03 0.  0.
        -24    2    3    3    0    0  0.10203649623E+03  0.26564234960E+02 -0.17524933522E+02  0.13182842252E+03  0.77165436224E+02 0.  0.
          6    2    1    2  502    0 -0.52469837604E+02 -0.28954874423E+02 -0.33913294446E+03  0.38637171638E+03  0.17515844424E+03 0.  0.
         24    2    5    5    0    0 -0.78176902903E+02 -0.73013009749E+02 -0.24828666175E+03  0.28207833415E+03  0.80494673447E+02 0.  0.
          4    1    6    6  501    0 -0.50459660819E+02 -0.29375972340E+02 -0.20940528056E+03  0.21739295446E+03  0.00000000000E+00 0. -1.
         -3    1    6    6    0  501 -0.27717242085E+02 -0.43637037409E+02 -0.38881381187E+02  0.64685379690E+02  0.00000000000E+00 0.  1.
          5    1    5    5  502    0  0.25707065300E+02  0.44058135327E+02 -0.90846282706E+02  0.10429338223E+03  0.47000000000E+01 0. -1.
         11    1    4    4    0    0  0.52795037110E+02  0.50197922843E+02  0.43767662213E+01  0.72981528374E+02  0.00000000000E+00 0. -1.
        -12    1    4    4    0    0  0.49241459116E+02 -0.23633687883E+02 -0.21901699743E+02  0.58846894145E+02  0.00000000000E+00 0.  1.
         -5    1    3    3    0  504 -0.49566658623E+02  0.23906394623E+01 -0.22793221710E+02  0.54810489507E+02  0.47000000000E+01 0.  1.
<mgrwt>
<rscale>  2 0.18439887E+03</rscale>
<asrwt>0</asrwt>
<pdfrwt beam="1">  1       21 0.14889195E-01 0.18512685E+03</pdfrwt>
<pdfrwt beam="2">  1       21 0.73266287E-01 0.18512685E+03</pdfrwt>
<totfact> 0.66819476E+04</totfact>
</mgrwt>
</event>
<event>
12    1  0.2736842E-001  0.1836351E+03  0.7546771E-02  0.1164372E+00
         21   -1    0    0  502  503  0.00000000000E+00  0.00000000000E+00  0.60383620886E+02  0.60383620886E+02  0.00000000000E+00 0.  1.
         21   -1    0    0  503  504 -0.00000000000E+00 -0.00000000000E+00 -0.57856385514E+03  0.57856385514E+03  0.00000000000E+00 0.  1.
         -6    2    1    2    0  504 -0.26620518252E+02  0.55458972171E+02 -0.31954863461E+03  0.36855551926E+03  0.17302453960E+03 0.  0.
        -24    2    3    3    0    0  0.24051845302E+02  0.32642196268E+00 -0.26091586178E+03  0.27333378555E+03  0.77818208524E+02 0.  0.
          6    2    1    2  502    0  0.26620518252E+02 -0.55458972171E+02 -0.19863159964E+03  0.27039195677E+03  0.17283792501E+03 0.  0.
         24    2    5    5    0    0  0.30497951859E+02 -0.31463510976E+02 -0.21967973174E+03  0.23789687230E+03  0.80097813475E+02 0.  0.
          4    1    6    6  501    0  0.91451765055E+01  0.17362688774E+02 -0.14403371852E+03  0.14536440171E+03  0.00000000000E+00 0. -1.
         -3    1    6    6    0  501  0.21352775354E+02 -0.48826199749E+02 -0.75646013220E+02  0.92532470589E+02  0.00000000000E+00 0.  1.
          5    1    5    5  502    0 -0.38774336078E+01 -0.23995461195E+02  0.21048132102E+02  0.32495084464E+02  0.47000000000E+01 0. -1.
         13    1    4    4    0    0 -0.14771434167E+00  0.46794763833E+01  0.46696727449E+01  0.66125004570E+01  0.00000000000E+00 0. -1.
        -14    1    4    4    0    0  0.24199559644E+02 -0.43530544206E+01 -0.26558553453E+03  0.26672128509E+03  0.00000000000E+00 0.  1.
         -5    1    3    3    0  504 -0.50672363554E+02  0.55132550208E+02 -0.58632772829E+02  0.95221733707E+02  0.47000000000E+01 0.  1.
<mgrwt>
<rscale>  2 0.18359110E+03</rscale>
<asrwt>0</asrwt>
<pdfrwt beam="1">  1       21 0.92897875E-02 0.18363508E+03</pdfrwt>
<pdfrwt beam="2">  1       21 0.89009827E-01 0.18363508E+03</pdfrwt>
<totfact> 0.99941994E+04</totfact>
</mgrwt>
</event>
<event>
12    1  0.2736842E-001  0.2181075E+03  0.7546771E-02  0.1135353E+00
         21   -1    0    0  502  503  0.00000000000E+00  0.00000000000E+00  0.96473019208E+02  0.96473019208E+02  0.00000000000E+00 0.  1.
         21   -1    0    0  503  504 -0.00000000000E+00 -0.00000000000E+00 -0.99114689714E+03  0.99114689714E+03  0.00000000000E+00 0.  1.
         -6    2    1    2    0  504 -0.11481472229E+03  0.70896904226E+02 -0.83292471651E+03  0.86093991689E+03  0.17101217977E+03 0.  0.
        -24    2    3    3    0    0 -0.58468522401E+02  0.93936023756E+02 -0.71836630047E+03  0.73112691308E+03  0.79081456194E+02 0.  0.
          6    2    1    2  502    0  0.11481472229E+03 -0.70896904226E+02 -0.61749161416E+02  0.22667999946E+03  0.17135364523E+03 0.  0.
         24    2    5    5    0    0  0.10702140821E+03 -0.89158186170E+01 -0.86220499880E+02  0.15942431476E+03  0.80306063913E+02 0.  0.
          4    1    6    6  501    0  0.45700699482E+01  0.24244196284E+02 -0.26828086494E+02  0.36447397955E+02  0.00000000000E+00 0. -1.
         -3    1    6    6    0  501  0.10245133826E+03 -0.33160014901E+02 -0.59392413386E+02  0.12297691680E+03  0.00000000000E+00 0.  1.
          5    1    5    5  502    0  0.77933140849E+01 -0.61981085609E+02  0.24471338464E+02  0.67255684696E+02  0.47000000000E+01 0. -1.
         13    1    4    4    0    0  0.64649494437E+01 -0.10447113641E+02 -0.91443832499E+02  0.92265444543E+02  0.00000000000E+00 0. -1.
        -14    1    4    4    0    0 -0.64933471844E+02  0.10438313740E+03 -0.62692246797E+03  0.63886146854E+03  0.00000000000E+00 0.  1.
         -5    1    3    3    0  504 -0.56346199890E+02 -0.23039119530E+02 -0.11455841605E+03  0.12981300381E+03  0.47000000000E+01 0.  1.
<mgrwt>
<rscale>  2 0.21804039E+03</rscale>
<asrwt>0</asrwt>
<pdfrwt beam="1">  1       21 0.14842002E-01 0.21810746E+03</pdfrwt>
<pdfrwt beam="2">  1       21 0.15248415E+00 0.21810746E+03</pdfrwt>
<totfact> 0.11237704E+04</totfact>
</mgrwt>
</event>
<event>
12    1  0.2736842E-001  0.1798601E+03  0.7546771E-02  0.1167950E+00
         21   -1    0    0  502  503  0.00000000000E+00  0.00000000000E+00  0.10033942378E+04  0.10033942378E+04  0.00000000000E+00 0.  1.
         21   -1    0    0  503  504 -0.00000000000E+00 -0.00000000000E+00 -0.35147637166E+02  0.35147637166E+02  0.00000000000E+00 0.  1.
         -6    2    1    2    0  504  0.42445891145E+02 -0.29811923801E+02  0.33461081121E+03  0.37988689926E+03  0.17221863075E+03 0.  0.
        -24    2    3    3    0    0  0.14488231818E+02  0.39634365586E+02  0.13107671122E+03  0.16297069958E+03  0.87163942672E+02 0.  0.
          6    2    1    2  502    0 -0.42445891145E+02  0.29811923801E+02  0.63363578940E+03  0.65865497568E+03  0.17216753150E+03 0.  0.
         24    2    5    5    0    0  0.33831338573E+02 -0.10142896254E+02  0.22887482316E+03  0.24480943298E+03  0.79375915652E+02 0.  0.
          2    1    6    6  501    0  0.27069330108E+02 -0.25470215124E+02  0.22441659663E+03  0.22747371131E+03  0.00000000000E+00 0. -1.
         -1    1    6    6    0  501  0.67620084656E+01  0.15327318870E+02  0.44582265271E+01  0.17335721675E+02  0.00000000000E+00 0.  1.
          5    1    5    5  502    0 -0.76277229719E+02  0.39954820055E+02  0.40476096624E+03  0.41384554270E+03  0.47000000000E+01 0. -1.
         11    1    4    4    0    0 -0.34392178162E+02  0.21430072394E+02  0.81453360159E+02  0.90976479393E+02  0.00000000000E+00 0. -1.
        -12    1    4    4    0    0  0.48880409980E+02  0.18204293192E+02  0.49623351060E+02  0.71994220191E+02  0.00000000000E+00 0.  1.
         -5    1    3    3    0  504  0.27957659327E+02 -0.69446289387E+02  0.20353409999E+03  0.21691619968E+03  0.47000000000E+01 0.  1.
<mgrwt>
<rscale>  2 0.17984788E+03</rscale>
<asrwt>0</asrwt>
<pdfrwt beam="1">  1       21 0.15436832E+00 0.17986012E+03</pdfrwt>
<pdfrwt beam="2">  1       21 0.54073296E-02 0.17986012E+03</pdfrwt>
<totfact> 0.65692140E+04</totfact>
</mgrwt>
</event>
<event>
12    1  0.2736842E-001  0.3497119E+03  0.7546771E-02  0.1062736E+00
         21   -1    0    0  502  503  0.00000000000E+00  0.00000000000E+00  0.38773062206E+03  0.38773062206E+03  0.00000000000E+00 0.  1.
         21   -1    0    0  503  504 -0.00000000000E+00 -0.00000000000E+00 -0.41546098035E+03  0.41546098035E+03  0.00000000000E+00 0. -1.
         -6    2    1    2    0  504 -0.58710184728E+02  0.29868307015E+03 -0.21095415024E+03  0.40841162384E+03  0.17216253600E+03 0.  0.
        -24    2    3    3    0    0 -0.76972949000E+01  0.22495613368E+03 -0.21037960166E+03  0.31863191458E+03  0.81253983077E+02 0.  0.
          6    2    1    2  502    0  0.58710184728E+02 -0.29868307015E+03  0.18322379196E+03  0.39477997856E+03  0.17210988162E+03 0.  0.
         24    2    5    5    0    0  0.83723247495E+02 -0.29985276575E+03  0.18348806759E+03  0.36930094133E+03  0.76118664088E+02 0.  0.
          4    1    6    6  501    0  0.62857396858E+02 -0.26104430350E+03  0.12527409043E+03  0.29629171177E+03  0.00000000000E+00 0. -1.
         -3    1    6    6    0  501  0.20865850637E+02 -0.38808462251E+02  0.58213977158E+02  0.73009229565E+02  0.00000000000E+00 0.  1.
          5    1    5    5  502    0 -0.25013062767E+02  0.11696956008E+01 -0.26427562682E+00  0.25479037234E+02  0.47000000000E+01 0. -1.
         13    1    4    4    0    0  0.16956582540E+02  0.85892893624E+02 -0.37099186973E+02  0.95086615991E+02  0.00000000000E+00 0. -1.
        -14    1    4    4    0    0 -0.24653877440E+02  0.13906324006E+03 -0.17328041469E+03  0.22354529859E+03  0.00000000000E+00 0.  1.
         -5    1    3    3    0  504 -0.51012889828E+02  0.73726936465E+02 -0.57454858414E+00  0.89779709262E+02  0.47000000000E+01 0.  1.
<mgrwt>
<rscale>  2 0.34970540E+03</rscale>
<asrwt>0</asrwt>
<pdfrwt beam="1">  1       21 0.59650865E-01 0.34971188E+03</pdfrwt>
<pdfrwt beam="2">  1       21 0.63917074E-01 0.34971188E+03</pdfrwt>
<totfact> 0.54228367E+03</totfact>
</mgrwt>
</event>
<event>
12    1  0.2736842E-001  0.2069319E+03  0.7546771E-02  0.1144503E+00
         21   -1    0    0  502  503  0.00000000000E+00  0.00000000000E+00  0.55684984309E+03  0.55684984309E+03  0.00000000000E+00 0.  1.
         21   -1    0    0  503  504 -0.00000000000E+00 -0.00000000000E+00 -0.21976509366E+03  0.21976509366E+03  0.00000000000E+00 0. -1.
         -6    2    1    2    0  504 -0.10974640242E+03 -0.12730624330E+02 -0.14584499008E+03  0.25121798642E+03  0.17214346904E+03 0.  0.
        -24    2    3    3    0    0 -0.13542532508E+02  0.31772264232E+02 -0.33441763077E+02  0.96646750042E+02  0.83841313293E+02 0.  0.
          6    2    1    2  502    0  0.10974640242E+03  0.12730624330E+02  0.48292973951E+03  0.52539695032E+03  0.17496994160E+03 0.  0.
         24    2    5    5    0    0  0.12624651726E+03  0.21752239670E+02  0.24508819653E+03  0.28676683299E+03  0.75865996160E+02 0.  0.
          4    1    6    6  501    0  0.49938089159E+02 -0.25557476464E+01  0.16920741209E+03  0.17644118822E+03  0.00000000000E+00 0. -1.
         -3    1    6    6    0  501  0.76308428098E+02  0.24307987316E+02  0.75880784446E+02  0.11032564477E+03  0.00000000000E+00 0.  1.
          5    1    5    5  502    0 -0.16500114832E+02 -0.90216153396E+01  0.23784154298E+03  0.23863011733E+03  0.47000000000E+01 0. -1.
         11    1    4    4    0    0  0.23483123027E+02 -0.29206108621E+01 -0.38985372536E+02  0.45605331998E+02  0.00000000000E+00 0. -1.
        -12    1    4    4    0    0 -0.37025655535E+02  0.34692875094E+02  0.55436094586E+01  0.51041418043E+02  0.00000000000E+00 0.  1.
         -5    1    3    3    0  504 -0.96203869916E+02 -0.44502888562E+02 -0.11240322700E+03  0.15457123638E+03  0.47000000000E+01 0.  1.
<mgrwt>
<rscale>  2 0.20633325E+03</rscale>
<asrwt>0</asrwt>
<pdfrwt beam="1">  1       21 0.85669206E-01 0.20693193E+03</pdfrwt>
<pdfrwt beam="2">  1       21 0.33810015E-01 0.20693193E+03</pdfrwt>
<totfact> 0.98206980E+03</totfact>
</mgrwt>
</event>
<event>
12    1  0.2736842E-001  0.3572577E+03  0.7546771E-02  0.1059729E+00
         21   -1    0    0  502  503  0.00000000000E+00  0.00000000000E+00  0.14047644452E+03  0.14047644452E+03  0.00000000000E+00 0.  1.
         21   -1    0    0  503  504 -0.00000000000E+00 -0.00000000000E+00 -0.10108115574E+04  0.10108115574E+04  0.00000000000E+00 0. -1.
         -6    2    1    2    0  504  0.24248111167E+02  0.31042945899E+03 -0.25117064181E+03  0.43671470516E+03  0.17515314012E+03 0.  0.
        -24    2    3    3    0    0 -0.20082434719E+02  0.75965314101E+02 -0.95045342282E+02  0.15152032988E+03  0.88038401552E+02 0.  0.
          6    2    1    2  502    0 -0.24248111167E+02 -0.31042945899E+03 -0.61916447105E+03  0.71457329675E+03  0.17405727308E+03 0.  0.
         24    2    5    5    0    0 -0.74093014268E+02 -0.27331594293E+03 -0.51896898738E+03  0.59657688838E+03  0.79898651218E+02 0.  0.
          4    1    6    6  501    0 -0.57269304791E+02 -0.25041618639E+03 -0.50082702546E+03  0.56286388151E+03  0.00000000000E+00 0. -1.
         -3    1    6    6    0  501 -0.16823709477E+02 -0.22899756537E+02 -0.18141961922E+02  0.33713006872E+02  0.00000000000E+00 0.  1.
          5    1    5    5  502    0  0.49844903102E+02 -0.37113516061E+02 -0.10019548366E+03  0.11799640836E+03  0.47000000000E+01 0. -1.
         11    1    4    4    0    0 -0.37259774965E+02  0.83566859748E+02 -0.53659202608E+02  0.10607082965E+03  0.00000000000E+00 0. -1.
        -12    1    4    4    0    0  0.17177340246E+02 -0.76015456472E+01 -0.41386139674E+02  0.45449500231E+02  0.00000000000E+00 0.  1.
         -5    1    3    3    0  504  0.44330545885E+02  0.23446414489E+03 -0.15612529953E+03  0.28519437528E+03  0.47000000000E+01 0.  1.
<mgrwt>
<rscale>  2 0.35712360E+03</rscale>
<asrwt>0</asrwt>
<pdfrwt beam="1">  1       21 0.21611761E-01 0.35725767E+03</pdfrwt>
<pdfrwt beam="2">  1       21 0.15550947E+00 0.35725767E+03</pdfrwt>
<totfact> 0.48942787E+03</totfact>
</mgrwt>
</event>
<event>
12    1  0.2736842E-001  0.1921951E+03  0.7546771E-02  0.1156567E+00
         21   -1    0    0  502  503  0.00000000000E+00  0.00000000000E+00  0.12295478320E+03  0.12295478320E+03  0.00000000000E+00 0.  1.
         21   -1    0    0  503  504 -0.00000000000E+00 -0.00000000000E+00 -0.33615170708E+03  0.33615170708E+03  0.00000000000E+00 0.  1.
         -6    2    1    2    0  504  0.59010032965E+02  0.60882149026E+02 -0.18203266927E+03  0.26471657035E+03  0.17248231758E+03 0.  0.
        -24    2    3    3    0    0 -0.26548767842E+02  0.56200851715E+02 -0.12817396519E+03  0.16339987407E+03  0.80047365278E+02 0.  0.
          6    2    1    2  502    0 -0.59010032965E+02 -0.60882149026E+02 -0.31164254608E+02  0.19438991992E+03  0.17212614602E+03 0.  0.
         24    2    5    5    0    0 -0.62015797038E+02 -0.66094315126E+02  0.36370931158E+02  0.12642454190E+03  0.80286378594E+02 0.  0.
          4    1    6    6  501    0  0.16082176275E+02 -0.10590932711E+00  0.14956600924E+02  0.21962411564E+02  0.00000000000E+00 0. -1.
         -3    1    6    6    0  501 -0.78097973313E+02 -0.65988405799E+02  0.21414330234E+02  0.10446213034E+03  0.00000000000E+00 0.  1.
          5    1    5    5  502    0  0.30057640733E+01  0.52121661006E+01 -0.67535185766E+02  0.67965378021E+02  0.47000000000E+01 0. -1.
         13    1    4    4    0    0 -0.30876842190E+02 -0.11485957550E+01 -0.87942431621E+02  0.93212498815E+02  0.00000000000E+00 0. -1.
        -14    1    4    4    0    0  0.43280743478E+01  0.57349447469E+02 -0.40231533566E+02  0.70187375258E+02  0.00000000000E+00 0.  1.
         -5    1    3    3    0  504  0.85558800806E+02  0.46812973112E+01 -0.53858704079E+02  0.10131669628E+03  0.47000000000E+01 0.  1.
<mgrwt>
<rscale>  2 0.19211519E+03</rscale>
<asrwt>0</asrwt>
<pdfrwt beam="1">  1       21 0.18916121E-01 0.19219514E+03</pdfrwt>
<pdfrwt beam="2">  1       21 0.51715647E-01 0.19219514E+03</pdfrwt>
<totfact> 0.90954349E+04</totfact>
</mgrwt>
</event>
<event>
12    1  0.2736842E-001  0.2273426E+03  0.7546771E-02  0.1128784E+00
         21   -1    0    0  502  503  0.00000000000E+00  0.00000000000E+00  0.16202234269E+03  0.16202234269E+03  0.00000000000E+00 0.  1.
         21   -1    0    0  503  504 -0.00000000000E+00 -0.00000000000E+00 -0.17191317832E+04  0.17191317832E+04  0.00000000000E+00 0.  1.
         -6    2    1    2    0  504  0.14098442603E+03 -0.42294372114E+02 -0.16284668404E+04  0.16442593738E+04  0.17326054309E+03 0.  0.
        -24    2    3    3    0    0  0.21157425861E+02 -0.54847231789E+02 -0.95046348205E+03  0.95561815504E+03  0.79808345626E+02 0.  0.
          6    2    1    2  502    0 -0.14098442603E+03  0.42294372114E+02  0.71357399829E+02  0.23689475214E+03  0.17135291881E+03 0.  0.
         24    2    5    5    0    0 -0.10567090752E+03  0.72318108189E+02 -0.89816325807E+01  0.14402430772E+03  0.65315251071E+02 0.  0.
          4    1    6    6  501    0 -0.63026125319E+02  0.41686486168E+01 -0.76067670216E+01  0.63620224839E+02  0.00000000000E+00 0. -1.
         -3    1    6    6    0  501 -0.42644782205E+02  0.68149459572E+02 -0.13748655592E+01  0.80404082885E+02  0.00000000000E+00 0.  1.
          5    1    5    5  502    0 -0.35313518506E+02 -0.30023736075E+02  0.80339032410E+02  0.92870444415E+02  0.47000000000E+01 0. -1.
         13    1    4    4    0    0 -0.78282760026E+01 -0.91532834840E+01 -0.18438646598E+02  0.22023809663E+02  0.00000000000E+00 0. -1.
        -14    1    4    4    0    0  0.28985701864E+02 -0.45693948305E+02 -0.93202483545E+03  0.93359434538E+03  0.00000000000E+00 0.  1.
         -5    1    3    3    0  504  0.11982700017E+03  0.12552859675E+02 -0.67800335834E+03  0.68864121876E+03  0.47000000000E+01 0.  1.
<mgrwt>
<rscale>  2 0.22697907E+03</rscale>
<asrwt>0</asrwt>
<pdfrwt beam="1">  1       21 0.24926513E-01 0.22734256E+03</pdfrwt>
<pdfrwt beam="2">  1       21 0.26448183E+00 0.22734256E+03</pdfrwt>
<totfact> 0.79931940E+02</totfact>
</mgrwt>
</event>
<event>
12    1  0.2736842E-001  0.2207622E+03  0.7546771E-02  0.1133340E+00
         21   -1    0    0  502  503  0.00000000000E+00  0.00000000000E+00  0.59263909359E+03  0.59263909359E+03  0.00000000000E+00 0.  1.
         21   -1    0    0  503  504 -0.00000000000E+00 -0.00000000000E+00 -0.14352936432E+03  0.14352936432E+03  0.00000000000E+00 0. -1.
         -6    2    1    2    0  504  0.95307059094E+02  0.97894653974E+02 -0.16041556451E+02  0.22134429920E+03  0.17340463796E+03 0.  0.
        -24    2    3    3    0    0  0.87185507067E+02  0.63468624071E+02 -0.73439024921E+02  0.15375975563E+03  0.81358424194E+02 0.  0.
          6    2    1    2  502    0 -0.95307059094E+02 -0.97894653974E+02  0.46515128572E+03  0.51482415871E+03  0.17323797792E+03 0.  0.
         24    2    5    5    0    0 -0.86698883360E+02 -0.28489704508E+01  0.31824901470E+03  0.33958104222E+03  0.80672398437E+02 0.  0.
          4    1    6    6  501    0 -0.79628886343E+02 -0.27229282098E+02  0.28824751479E+03  0.30028124005E+03  0.00000000000E+00 0. -1.
         -3    1    6    6    0  501 -0.70699970164E+01  0.24380311647E+02  0.30001499918E+02  0.39299802177E+02  0.00000000000E+00 0.  1.
          5    1    5    5  502    0 -0.86081757346E+01 -0.95045683524E+02  0.14690227102E+03  0.17524311649E+03  0.47000000000E+01 0. -1.
         13    1    4    4    0    0  0.81507469277E+02  0.13706883360E+02 -0.31557186419E+02  0.88471476840E+02  0.00000000000E+00 0. -1.
        -14    1    4    4    0    0  0.56780377892E+01  0.49761740710E+02 -0.41881838502E+02  0.65288278794E+02  0.00000000000E+00 0.  1.
         -5    1    3    3    0  504  0.81215520275E+01  0.34426029904E+02  0.57397468469E+02  0.67584543566E+02  0.47000000000E+01 0.  1.
<mgrwt>
<rscale>  2 0.22072951E+03</rscale>
<asrwt>0</asrwt>
<pdfrwt beam="1">  1       21 0.91175244E-01 0.22076224E+03</pdfrwt>
<pdfrwt beam="2">  1       21 0.22081441E-01 0.22076224E+03</pdfrwt>
<totfact> 0.19215327E+04</totfact>
</mgrwt>
</event>
<event>
12    1  0.2736842E-001  0.1957385E+03  0.7546771E-02  0.1155209E+00
         21   -1    0    0  502  503  0.00000000000E+00  0.00000000000E+00  0.54559671217E+03  0.54559671217E+03  0.00000000000E+00 0.  1.
         21   -1    0    0  503  504 -0.00000000000E+00 -0.00000000000E+00 -0.68013183831E+02  0.68013183831E+02  0.00000000000E+00 0.  1.
         -6    2    1    2    0  504 -0.29382040811E+02 -0.66173226123E+02  0.26500059171E+03  0.32463744164E+03  0.17297963675E+03 0.  0.
        -24    2    3    3    0    0 -0.64442191598E+02 -0.90585693510E+02  0.23405248729E+03  0.27167464428E+03  0.81657710052E+02 0.  0.
          6    2    1    2  502    0  0.29382040811E+02  0.66173226123E+02  0.21258293662E+03  0.28897245436E+03  0.18185536631E+03 0.  0.
         24    2    5    5    0    0  0.69446823839E+02  0.20876140426E+01  0.17154649054E+03  0.20284329308E+03  0.83005925436E+02 0.  0.
          2    1    6    6  501    0  0.78976077139E+02  0.71709459298E-01  0.86067399261E+02  0.11681105734E+03  0.00000000000E+00 0. -1.
         -1    1    6    6    0  501 -0.95292532997E+01  0.20159045833E+01  0.85479091282E+02  0.86032235739E+02  0.00000000000E+00 0.  1.
          5    1    5    5  502    0 -0.40064783028E+02  0.64085612080E+02  0.41036446079E+02  0.86129161273E+02  0.47000000000E+01 0. -1.
         13    1    4    4    0    0  0.14457295479E+02 -0.18996825821E+02  0.15289125120E+02  0.28348723618E+02  0.00000000000E+00 0. -1.
        -14    1    4    4    0    0 -0.78899487077E+02 -0.71588867689E+02  0.21876336216E+03  0.24332592066E+03  0.00000000000E+00 0.  1.
         -5    1    3    3    0  504  0.35060150787E+02  0.24412467387E+02  0.30948104428E+02  0.52962797366E+02  0.47000000000E+01 0.  1.
<mgrwt>
<rscale>  2 0.19365101E+03</rscale>
<asrwt>0</asrwt>
<pdfrwt beam="1">  1       21 0.83937953E-01 0.19573854E+03</pdfrwt>
<pdfrwt beam="2">  1       21 0.10463567E-01 0.19573854E+03</pdfrwt>
<totfact> 0.92237134E+04</totfact>
</mgrwt>
</event>
<event>
12    1  0.2736842E-001  0.2198289E+03  0.7546771E-02  0.1134494E+00
         21   -1    0    0  502  503  0.00000000000E+00  0.00000000000E+00  0.10058085490E+03  0.10058085490E+03  0.00000000000E+00 0.  1.
         21   -1    0    0  503  504 -0.00000000000E+00 -0.00000000000E+00 -0.91892796953E+03  0.91892796953E+03  0.00000000000E+00 0. -1.
         -6    2    1    2    0  504 -0.58340251194E+02  0.12841541439E+03 -0.76477813326E+03  0.79574514356E+03  0.16861386901E+03 0.  0.
        -24    2    3    3    0    0 -0.49925566535E+02  0.59518185255E+01 -0.39851132097E+03  0.40942713076E+03  0.79317817169E+02 0.  0.
          6    2    1    2  502    0  0.58340251194E+02 -0.12841541439E+03 -0.53568981374E+02  0.22376368087E+03  0.16524662039E+03 0.  0.
         24    2    5    5    0    0 -0.18573390471E+02 -0.57894302294E+02 -0.62697834864E+02  0.11890968004E+03  0.80695554019E+02 0.  0.
          2    1    6    6  501    0  0.29608852618E+01  0.19710892594E+02 -0.17685470572E+02  0.26646988530E+02  0.00000000000E+00 0. -1.
         -1    1    6    6    0  501 -0.21534275733E+02 -0.77605194888E+02 -0.45012364292E+02  0.92262691507E+02  0.00000000000E+00 0.  1.
          5    1    5    5  502    0  0.76913641665E+02 -0.70521112096E+02  0.91288534903E+01  0.10485400084E+03  0.47000000000E+01 0. -1.
         13    1    4    4    0    0 -0.20358820005E+02  0.62663701250E+01 -0.36116532602E+03  0.36179295414E+03  0.00000000000E+00 0. -1.
        -14    1    4    4    0    0 -0.29566746530E+02 -0.31455159949E+00 -0.37345994951E+02  0.47634176616E+02  0.00000000000E+00 0.  1.
         -5    1    3    3    0  504 -0.84146846594E+01  0.12246359586E+03 -0.36626681229E+03  0.38631801280E+03  0.47000000000E+01 0.  1.
<mgrwt>
<rscale>  2 0.21918304E+03</rscale>
<asrwt>0</asrwt>
<pdfrwt beam="1">  1       21 0.15473977E-01 0.21982889E+03</pdfrwt>
<pdfrwt beam="2">  1       21 0.14137354E+00 0.21982889E+03</pdfrwt>
<totfact> 0.12690743E+04</totfact>
</mgrwt>
</event>
<event>
12    1  0.2736842E-001  0.2256613E+03  0.7546771E-02  0.1129757E+00
         21   -1    0    0  502  503  0.00000000000E+00  0.00000000000E+00  0.65249328669E+02  0.65249328669E+02  0.00000000000E+00 0.  1.
         21   -1    0    0  503  504 -0.00000000000E+00 -0.00000000000E+00 -0.19441389447E+04  0.19441389447E+04  0.00000000000E+00 0.  1.
         -6    2    1    2    0  504 -0.94240897780E+02  0.10904819699E+03 -0.17167949260E+04  0.17315435258E+04  0.17345116805E+03 0.  0.
        -24    2    3    3    0    0 -0.10612512574E+02 -0.74925862983E+01 -0.68128658361E+03  0.68613686896E+03  0.80396701885E+02 0.  0.
          6    2    1    2  502    0  0.94240897780E+02 -0.10904819699E+03 -0.16209469007E+03  0.27784474761E+03  0.17363801181E+03 0.  0.
         24    2    5    5    0    0  0.88646978169E+02 -0.13034845075E+03 -0.17743213743E+03  0.25059919680E+03  0.80428780245E+02 0.  0.
          2    1    6    6  501    0  0.14634352777E+02 -0.85172559671E+02 -0.11452460042E+03  0.14347269184E+03  0.00000000000E+00 0. -1.
         -1    1    6    6    0  501  0.74012625392E+02 -0.45175891083E+02 -0.62907537010E+02  0.10712650496E+03  0.00000000000E+00 0.  1.
          5    1    5    5  502    0  0.55939196117E+01  0.21300253765E+02  0.15337447368E+02  0.27245550808E+02  0.47000000000E+01 0. -1.
         11    1    4    4    0    0 -0.10883913052E+02 -0.18644165435E+02 -0.66971951899E+03  0.67006738362E+03  0.00000000000E+00 0. -1.
        -12    1    4    4    0    0  0.27140047716E+00  0.11151579137E+02 -0.11567064615E+02  0.16069485346E+02  0.00000000000E+00 0.  1.
         -5    1    3    3    0  504 -0.83628385206E+02  0.11654078329E+03 -0.10355083424E+04  0.10454066568E+04  0.47000000000E+01 0.  1.
<mgrwt>
<rscale>  2 0.22562534E+03</rscale>
<asrwt>0</asrwt>
<pdfrwt beam="1">  1       21 0.10038358E-01 0.22566128E+03</pdfrwt>
<pdfrwt beam="2">  1       21 0.29909831E+00 0.22566128E+03</pdfrwt>
<totfact> 0.26806049E+03</totfact>
</mgrwt>
</event>
<event>
12    1  0.2736842E-001  0.2010353E+03  0.7546771E-02  0.1149436E+00
         21   -1    0    0  502  503  0.00000000000E+00  0.00000000000E+00  0.70263887749E+02  0.70263887749E+02  0.00000000000E+00 0.  1.
         21   -1    0    0  503  504 -0.00000000000E+00 -0.00000000000E+00 -0.99618369111E+03  0.99618369111E+03  0.00000000000E+00 0.  1.
         -6    2    1    2    0  504 -0.56687515723E+02  0.79542897038E+02 -0.81451535361E+03  0.83895796568E+03  0.17571186641E+03 0.  0.
        -24    2    3    3    0    0 -0.96404827091E+02  0.66751477085E+02 -0.45110773913E+03  0.47313250250E+03  0.81280515738E+02 0.  0.
          6    2    1    2  502    0  0.56687515723E+02 -0.79542897038E+02 -0.11140444975E+03  0.22748961318E+03  0.17262683967E+03 0.  0.
         24    2    5    5    0    0  0.38833590211E+02  0.13820038177E+02 -0.13896262526E+02  0.91234936550E+02  0.80197670485E+02 0.  0.
          4    1    6    6  501    0 -0.21257237543E+02  0.19257735937E+02  0.22622651358E+01  0.28772354525E+02  0.00000000000E+00 0. -1.
         -3    1    6    6    0  501  0.60090827754E+02 -0.54376977602E+01 -0.16158527662E+02  0.62462582025E+02  0.00000000000E+00 0.  1.
          5    1    5    5  502    0  0.17853925512E+02 -0.93362935215E+02 -0.97508187223E+02  0.13625467663E+03  0.47000000000E+01 0. -1.
         11    1    4    4    0    0  0.50307248669E+01  0.33190099160E+02 -0.75547552730E+02  0.82669967936E+02  0.00000000000E+00 0. -1.
        -12    1    4    4    0    0 -0.10143555196E+03  0.33561377925E+02 -0.37556018640E+03  0.39046253456E+03  0.00000000000E+00 0.  1.
         -5    1    3    3    0  504  0.39717311368E+02  0.12791419953E+02 -0.36340761448E+03  0.36582546318E+03  0.47000000000E+01 0.  1.
<mgrwt>
<rscale>  2 0.20035925E+03</rscale>
<asrwt>0</asrwt>
<pdfrwt beam="1">  1       21 0.10809830E-01 0.20103534E+03</pdfrwt>
<pdfrwt beam="2">  1       21 0.15325901E+00 0.20103534E+03</pdfrwt>
<totfact> 0.19850253E+04</totfact>
</mgrwt>
</event>
<event>
12    1  0.2736842E-001  0.1742494E+03  0.7546771E-02  0.1173915E+00
         21   -1    0    0  502  503  0.00000000000E+00  0.00000000000E+00  0.68526249476E+02  0.68526249476E+02  0.00000000000E+00 0. -1.
         21   -1    0    0  503  504 -0.00000000000E+00 -0.00000000000E+00 -0.51946389062E+03  0.51946389062E+03  0.00000000000E+00 0. -1.
         -6    2    1    2    0  504 -0.17102100199E+02 -0.24459360871E+01 -0.34038848234E+03  0.38163133272E+03  0.17169650775E+03 0.  0.
        -24    2    3    3    0    0 -0.71952629555E+02  0.19566119740E+02 -0.18610228010E+03  0.21634541871E+03  0.81309701729E+02 0.  0.
          6    2    1    2  502    0  0.17102100199E+02  0.24459360871E+01 -0.11054915881E+03  0.20635880738E+03  0.17339081992E+03 0.  0.
         24    2    5    5    0    0 -0.50881956521E+02  0.26057406852E+02 -0.78939761364E+02  0.12761506142E+03  0.82378128325E+02 0.  0.
          2    1    6    6  501    0 -0.12497566796E+02  0.41825823866E+02 -0.65040752470E+01  0.44134926223E+02  0.00000000000E+00 0. -1.
         -1    1    6    6    0  501 -0.38384389725E+02 -0.15768417014E+02 -0.72435686117E+02  0.83480135199E+02  0.00000000000E+00 0.  1.
          5    1    5    5  502    0  0.67984056720E+02 -0.23611470765E+02 -0.31609397448E+02  0.78743745954E+02  0.47000000000E+01 0. -1.
         13    1    4    4    0    0 -0.55770015817E+02  0.19689541653E+02 -0.19058656849E+03  0.19955253144E+03  0.00000000000E+00 0. -1.
        -14    1    4    4    0    0 -0.16182613737E+02 -0.12342191356E+00  0.44842883916E+01  0.16792887266E+02  0.00000000000E+00 0.  1.
         -5    1    3    3    0  504  0.54850529355E+02 -0.22012055827E+02 -0.15428620224E+03  0.16528591402E+03  0.47000000000E+01 0.  1.
<mgrwt>
<rscale>  2 0.17382636E+03</rscale>
<asrwt>0</asrwt>
<pdfrwt beam="1">  1       21 0.10542500E-01 0.17424936E+03</pdfrwt>
<pdfrwt beam="2">  1       21 0.79917524E-01 0.17424936E+03</pdfrwt>
<totfact> 0.10262284E+05</totfact>
</mgrwt>
</event>
<event>
12    1  0.2736842E-001  0.1954107E+03  0.7546771E-02  0.1153872E+00
         21   -1    0    0  502  503  0.00000000000E+00  0.00000000000E+00  0.12763567746E+03  0.12763567746E+03  0.00000000000E+00 0.  1.
         21   -1    0    0  503  504 -0.00000000000E+00 -0.00000000000E+00 -0.68466445122E+03  0.68466445122E+03  0.00000000000E+00 0.  1.
         -6    2    1    2    0  504 -0.89073979828E+02  0.14500313913E+02 -0.58354299551E+03  0.61509885323E+03  0.17227808524E+03 0.  0.
        -24    2    3    3    0    0  0.19130670344E+02  0.18957655860E+02 -0.29337666142E+03  0.30534620085E+03  0.80256224976E+02 0.  0.
          6    2    1    2  502    0  0.89073979828E+02 -0.14500313913E+02  0.26514221744E+02  0.19720127545E+03  0.17332312627E+03 0.  0.
         24    2    5    5    0    0  0.85957397542E+02 -0.71099800840E+02  0.12956474895E+02  0.13872805504E+03  0.81447818520E+02 0.  0.
          4    1    6    6  501    0  0.46938594994E+02 -0.41791832389E+02 -0.33614598748E+02  0.71272226031E+02  0.00000000000E+00 0. -1.
         -3    1    6    6    0  501  0.39018802548E+02 -0.29307968451E+02  0.46571073643E+02  0.67455829009E+02  0.00000000000E+00 0.  1.
          5    1    5    5  502    0  0.31165822865E+01  0.56599486927E+02  0.13557746848E+02  0.58473220410E+02  0.47000000000E+01 0. -1.
         11    1    4    4    0    0  0.76292562971E+01  0.30621684949E+02 -0.28537664063E+03  0.28711621368E+03  0.00000000000E+00 0. -1.
        -12    1    4    4    0    0  0.11501414047E+02 -0.11664029090E+02 -0.80000207853E+01  0.18229987171E+02  0.00000000000E+00 0.  1.
         -5    1    3    3    0  504 -0.10820465017E+03 -0.44573419469E+01 -0.29016633409E+03  0.30975265238E+03  0.47000000000E+01 0.  1.
<mgrwt>
<rscale>  2 0.19517870E+03</rscale>
<asrwt>0</asrwt>
<pdfrwt beam="1">  1       21 0.19636258E-01 0.19541069E+03</pdfrwt>
<pdfrwt beam="2">  1       21 0.10533299E+00 0.19541069E+03</pdfrwt>
<totfact> 0.17290015E+04</totfact>
</mgrwt>
</event>
<event>
12    1  0.2736842E-001  0.4071187E+03  0.7546771E-02  0.1041527E+00
         21   -1    0    0  502  503  0.00000000000E+00  0.00000000000E+00  0.17669841166E+03  0.17669841166E+03  0.00000000000E+00 0. -1.
         21   -1    0    0  503  504 -0.00000000000E+00 -0.00000000000E+00 -0.22347317835E+04  0.22347317835E+04  0.00000000000E+00 0.  1.
         -6    2    1    2    0  504  0.36037952352E+03  0.64611188550E+02 -0.19480827096E+04  0.19897255627E+04  0.17301319282E+03 0.  0.
        -24    2    3    3    0    0  0.13091106955E+03  0.38058535199E+02 -0.53895369577E+03  0.56178036688E+03  0.80869859557E+02 0.  0.
          6    2    1    2  502    0 -0.36037952352E+03 -0.64611188550E+02 -0.10995066226E+03  0.42170463244E+03  0.17803831675E+03 0.  0.
         24    2    5    5    0    0 -0.12332852027E+03 -0.84877510225E+02 -0.36157855779E+02  0.17256336684E+03  0.77824221079E+02 0.  0.
          2    1    6    6  501    0 -0.23383874514E+02 -0.15735277991E+02 -0.42354396849E+02  0.50875332856E+02  0.00000000000E+00 0. -1.
         -1    1    6    6    0  501 -0.99944645755E+02 -0.69142232234E+02  0.61965410707E+01  0.12168803398E+03  0.00000000000E+00 0.  1.
          5    1    5    5  502    0 -0.23705100325E+03  0.20266321675E+02 -0.73792806483E+02  0.24914126560E+03  0.47000000000E+01 0. -1.
         13    1    4    4    0    0  0.24296720689E+02  0.42535009265E+02 -0.12397671623E+03  0.13330335261E+03  0.00000000000E+00 0. -1.
        -14    1    4    4    0    0  0.10661434887E+03 -0.44764740655E+01 -0.41497697954E+03  0.42847701426E+03  0.00000000000E+00 0.  1.
         -5    1    3    3    0  504  0.22946845397E+03  0.26552653350E+02 -0.14091290138E+04  0.14279451958E+04  0.47000000000E+01 0.  1.
<mgrwt>
<rscale>  2 0.40657454E+03</rscale>
<asrwt>0</asrwt>
<pdfrwt beam="1">  1       21 0.27184371E-01 0.40711872E+03</pdfrwt>
<pdfrwt beam="2">  1       21 0.34380489E+00 0.40711872E+03</pdfrwt>
<totfact> 0.19499102E+02</totfact>
</mgrwt>
</event>
<event>
12    1  0.2736842E-001  0.1884305E+03  0.7546771E-02  0.1160223E+00
         21   -1    0    0  502  503  0.00000000000E+00  0.00000000000E+00  0.24067118150E+03  0.24067118150E+03  0.00000000000E+00 0.  1.
         21   -1    0    0  503  504 -0.00000000000E+00 -0.00000000000E+00 -0.38767739144E+03  0.38767739144E+03  0.00000000000E+00 0.  1.
         -6    2    1    2    0  504 -0.73890810899E+02  0.30798049947E+01 -0.32147814180E+03  0.37263150113E+03  0.17331100035E+03 0.  0.
        -24    2    3    3    0    0 -0.71434375568E+01 -0.28301682654E+02 -0.26843867991E+03  0.28166291241E+03  0.80141483731E+02 0.  0.
          6    2    1    2  502    0  0.73890810899E+02 -0.30798049947E+01  0.17447193186E+03  0.25571707181E+03  0.17170156864E+03 0.  0.
         24    2    5    5    0    0 -0.13743250486E+02 -0.56533905926E+00  0.13631144605E+03  0.15998638743E+03  0.82617415228E+02 0.  0.
          2    1    6    6  501    0 -0.45637722290E+02  0.58424864396E+01  0.51023565913E+02  0.68704735078E+02  0.00000000000E+00 0. -1.
         -1    1    6    6    0  501  0.31894471804E+02 -0.64078254988E+01  0.85287880134E+02  0.91281652357E+02  0.00000000000E+00 0.  1.
          5    1    5    5  502    0  0.87634061385E+02 -0.25144659355E+01  0.38160485816E+02  0.95730684378E+02  0.47000000000E+01 0. -1.
         13    1    4    4    0    0  0.11179426118E+02 -0.17677548941E+02 -0.11531456975E+02  0.23884091041E+02  0.00000000000E+00 0. -1.
        -14    1    4    4    0    0 -0.18322863675E+02 -0.10624133713E+02 -0.25690722294E+03  0.25777882137E+03  0.00000000000E+00 0.  1.
         -5    1    3    3    0  504 -0.66747373342E+02  0.31381487649E+02 -0.53039461891E+02  0.90968588715E+02  0.47000000000E+01 0.  1.
<mgrwt>
<rscale>  2 0.18805956E+03</rscale>
<asrwt>0</asrwt>
<pdfrwt beam="1">  1       21 0.37026336E-01 0.18843046E+03</pdfrwt>
<pdfrwt beam="2">  1       21 0.59642675E-01 0.18843046E+03</pdfrwt>
<totfact> 0.18511166E+04</totfact>
</mgrwt>
</event>
<event>
12    1  0.2736842E-001  0.2020993E+03  0.7546771E-02  0.1148250E+00
         21   -1    0    0  502  503  0.00000000000E+00  0.00000000000E+00  0.28701080621E+03  0.28701080621E+03  0.00000000000E+00 0. -1.
         21   -1    0    0  503  504 -0.00000000000E+00 -0.00000000000E+00 -0.33298860645E+03  0.33298860645E+03  0.00000000000E+00 0. -1.
         -6    2    1    2    0  504  0.92922523559E+02 -0.49282983392E+02 -0.25810100383E+03  0.32701413474E+03  0.17105177084E+03 0.  0.
        -24    2    3    3    0    0  0.93468983788E+02 -0.79624695810E+02 -0.13213779906E+03  0.19736176458E+03  0.80091978791E+02 0.  0.
          6    2    1    2  502    0 -0.92922523559E+02  0.49282983392E+02  0.21212320360E+03  0.29298527791E+03  0.17257088901E+03 0.  0.
         24    2    5    5    0    0 -0.22003028809E+02 -0.19008366828E+02  0.39131639485E+02  0.93883659376E+02  0.80233440676E+02 0.  0.
          4    1    6    6  501    0 -0.25130401560E+02 -0.22675751741E+02  0.61932603174E+02  0.70578850483E+02  0.00000000000E+00 0. -1.
         -3    1    6    6    0  501  0.31273727507E+01  0.36673849133E+01 -0.22800963688E+02  0.23304808893E+02  0.00000000000E+00 0.  1.
          5    1    5    5  502    0 -0.70919494750E+02  0.68291350220E+02  0.17299156411E+03  0.19910161854E+03  0.47000000000E+01 0. -1.
         13    1    4    4    0    0  0.33076307185E+02 -0.67881462429E+02 -0.10686066750E+03  0.13084776382E+03  0.00000000000E+00 0. -1.
        -14    1    4    4    0    0  0.60392676603E+02 -0.11743233381E+02 -0.25277131555E+02  0.66514000761E+02  0.00000000000E+00 0.  1.
         -5    1    3    3    0  504 -0.54646022869E+00  0.30341712418E+02 -0.12596320477E+03  0.12965237016E+03  0.47000000000E+01 0.  1.
<mgrwt>
<rscale>  2 0.20177460E+03</rscale>
<asrwt>0</asrwt>
<pdfrwt beam="1">  1       21 0.44155509E-01 0.20209928E+03</pdfrwt>
<pdfrwt beam="2">  1       21 0.51229016E-01 0.20209928E+03</pdfrwt>
<totfact> 0.17739526E+04</totfact>
</mgrwt>
</event>
<event>
12    1  0.2736842E-001  0.2454012E+03  0.7546771E-02  0.1116281E+00
         21   -1    0    0  502  503  0.00000000000E+00  0.00000000000E+00  0.22271918592E+03  0.22271918592E+03  0.00000000000E+00 0. -1.
         21   -1    0    0  503  504 -0.00000000000E+00 -0.00000000000E+00 -0.44955420402E+03  0.44955420402E+03  0.00000000000E+00 0.  1.
         -6    2    1    2    0  504  0.17356920894E+03 -0.37178820014E+01 -0.32572938210E+03  0.40769481338E+03  0.17313387177E+03 0.  0.
        -24    2    3    3    0    0  0.34266444363E+02 -0.44870810927E+02 -0.15450593795E+03  0.18310990381E+03  0.80433656703E+02 0.  0.
          6    2    1    2  502    0 -0.17356920894E+03  0.37178820014E+01  0.98894364001E+02  0.26457857656E+03  0.17344058063E+03 0.  0.
         24    2    5    5    0    0 -0.68203707492E+02 -0.10402646614E+02  0.11557983453E+03  0.15686704910E+03  0.80551922206E+02 0.  0.
          2    1    6    6  501    0 -0.62164220572E+02  0.26620477450E+02  0.64156785358E+02  0.93215520416E+02  0.00000000000E+00 0. -1.
         -1    1    6    6    0  501 -0.60394869205E+01 -0.37023124064E+02  0.51423049167E+02  0.63651528680E+02  0.00000000000E+00 0.  1.
          5    1    5    5  502    0 -0.10536550144E+03  0.14120528615E+02 -0.16685470524E+02  0.10771152747E+03  0.47000000000E+01 0. -1.
         11    1    4    4    0    0  0.37570153916E+02 -0.63859402900E+02 -0.94487086732E+02  0.12007226725E+03  0.00000000000E+00 0. -1.
        -12    1    4    4    0    0 -0.33037095524E+01  0.18988591973E+02 -0.60018851214E+02  0.63037636559E+02  0.00000000000E+00 0.  1.
         -5    1    3    3    0  504  0.13930276457E+03  0.41152928926E+02 -0.17122344416E+03  0.22458490957E+03  0.47000000000E+01 0.  1.
<mgrwt>
<rscale>  2 0.24534697E+03</rscale>
<asrwt>0</asrwt>
<pdfrwt beam="1">  1       21 0.34264490E-01 0.24540116E+03</pdfrwt>
<pdfrwt beam="2">  1       21 0.69162185E-01 0.24540116E+03</pdfrwt>
<totfact> 0.15142568E+04</totfact>
</mgrwt>
</event>
<event>
12    1  0.2736842E-001  0.2321303E+03  0.7546771E-02  0.1125537E+00
         21   -1    0    0  502  503  0.00000000000E+00  0.00000000000E+00  0.23975481524E+03  0.23975481524E+03  0.00000000000E+00 0. -1.
         21   -1    0    0  503  504 -0.00000000000E+00 -0.00000000000E+00 -0.28054882423E+03  0.28054882423E+03  0.00000000000E+00 0. -1.
         -6    2    1    2    0  504  0.15477004748E+03 -0.13255156100E+02 -0.13854629795E+03  0.26843068073E+03  0.16950069889E+03 0.  0.
        -24    2    3    3    0    0  0.20011971839E+02 -0.41471827503E+02 -0.58556977496E+02  0.10913127433E+03  0.79751639040E+02 0.  0.
          6    2    1    2  502    0 -0.15477004748E+03  0.13255156100E+02  0.97752288961E+02  0.25187295874E+03  0.17249640746E+03 0.  0.
         24    2    5    5    0    0 -0.12749767778E+03 -0.21399751843E+02  0.86288157783E+01  0.15232483839E+03  0.80092401068E+02 0.  0.
          2    1    6    6  501    0 -0.70721039267E+02  0.83695789354E+01  0.39211348880E+02  0.81296033898E+02  0.00000000000E+00 0. -1.
         -1    1    6    6    0  501 -0.56776638517E+02 -0.29769330778E+02 -0.30582533102E+02  0.71028804489E+02  0.00000000000E+00 0.  1.
          5    1    5    5  502    0 -0.27272369691E+02  0.34654907943E+02  0.89123473183E+02  0.99548120350E+02  0.47000000000E+01 0. -1.
         13    1    4    4    0    0  0.40165703063E+02 -0.14165681643E+02 -0.61782511483E+02  0.75040182330E+02  0.00000000000E+00 0. -1.
        -14    1    4    4    0    0 -0.20153731224E+02 -0.27306145861E+02  0.32255339879E+01  0.34091091997E+02  0.00000000000E+00 0.  1.
         -5    1    3    3    0  504  0.13475807564E+03  0.28216671404E+02 -0.79989320452E+02  0.15929940640E+03  0.47000000000E+01 0.  1.
<mgrwt>
<rscale>  2 0.23157396E+03</rscale>
<asrwt>0</asrwt>
<pdfrwt beam="1">  1       21 0.36885356E-01 0.23213030E+03</pdfrwt>
<pdfrwt beam="2">  1       21 0.43161357E-01 0.23213030E+03</pdfrwt>
<totfact> 0.35871984E+04</totfact>
</mgrwt>
</event>
<event>
12    1  0.2736842E-001  0.1881648E+03  0.7546771E-02  0.1160661E+00
         21   -1    0    0  502  503  0.00000000000E+00  0.00000000000E+00  0.83843865428E+03  0.83843865428E+03  0.00000000000E+00 0.  1.
         21   -1    0    0  503  504 -0.00000000000E+00 -0.00000000000E+00 -0.73414154065E+03  0.73414154065E+03  0.00000000000E+00 0.  1.
         -6    2    1    2    0  504  0.58398447223E+02  0.40176587505E+02 -0.71149678332E+03  0.73536716480E+03  0.17179248402E+03 0.  0.
        -24    2    3    3    0    0 -0.26943278284E+02 -0.23345024503E+00 -0.26568123471E+03  0.27963722871E+03  0.82972685025E+02 0.  0.
          6    2    1    2  502    0 -0.58398447223E+02 -0.40176587505E+02  0.81579389695E+03  0.83721303013E+03  0.17430272145E+03 0.  0.
         24    2    5    5    0    0 -0.82602224684E+02 -0.35963588833E+02  0.79689282915E+03  0.80586159372E+03  0.79108911226E+02 0.  0.
          2    1    6    6  501    0 -0.29997872999E+02 -0.37096718757E+02  0.60523684957E+03  0.60711422566E+03  0.00000000000E+00 0. -1.
         -1    1    6    6    0  501 -0.52604351685E+02  0.11331299234E+01  0.19165597958E+03  0.19874736806E+03  0.00000000000E+00 0.  1.
          5    1    5    5  502    0  0.24203777461E+02 -0.42129986720E+01  0.18901067794E+02  0.31351436410E+02  0.47000000000E+01 0. -1.
         13    1    4    4    0    0 -0.13890469972E+01  0.38405366355E+02 -0.88178190395E+02  0.96188850070E+02  0.00000000000E+00 0. -1.
        -14    1    4    4    0    0 -0.25554231287E+02 -0.38638816600E+02 -0.17750304431E+03  0.18344837864E+03  0.00000000000E+00 0.  1.
         -5    1    3    3    0  504  0.85341725507E+02  0.40410037750E+02 -0.44581554862E+03  0.45572993609E+03  0.47000000000E+01 0.  1.
<mgrwt>
<rscale>  2 0.18758132E+03</rscale>
<asrwt>0</asrwt>
<pdfrwt beam="1">  1       21 0.12899056E+00 0.18816476E+03</pdfrwt>
<pdfrwt beam="2">  1       21 0.11294485E+00 0.18816476E+03</pdfrwt>
<totfact> 0.27155167E+02</totfact>
</mgrwt>
</event>
<event>
12    1  0.2736842E-001  0.1733846E+03  0.7546771E-02  0.1174913E+00
         21   -1    0    0  502  503  0.00000000000E+00  0.00000000000E+00  0.31996545694E+03  0.31996545694E+03  0.00000000000E+00 0. -1.
         21   -1    0    0  503  504 -0.00000000000E+00 -0.00000000000E+00 -0.11970116742E+03  0.11970116742E+03  0.00000000000E+00 0. -1.
         -6    2    1    2    0  504  0.90059792513E+01 -0.61680446353E+01 -0.36084304642E+01  0.17342215898E+03  0.17304066579E+03 0.  0.
        -24    2    3    3    0    0 -0.27576087347E+02  0.46205573404E+02 -0.33635004603E+02  0.10267663886E+03  0.80720400303E+02 0.  0.
          6    2    1    2  502    0 -0.90059792513E+01  0.61680446353E+01  0.20387271998E+03  0.26624446539E+03  0.17088849277E+03 0.  0.
         24    2    5    5    0    0  0.44127054852E+02 -0.35408466876E+02  0.75020632805E+02  0.12072238462E+03  0.75794737972E+02 0.  0.
          2    1    6    6  501    0  0.44583390904E+02 -0.50723272377E+02  0.31372408067E+02  0.74463125727E+02  0.00000000000E+00 0. -1.
         -1    1    6    6    0  501 -0.45633605199E+00  0.15314805500E+02  0.43648224738E+02  0.46259258888E+02  0.00000000000E+00 0.  1.
          5    1    5    5  502    0 -0.53133034103E+02  0.41576511512E+02  0.12885208718E+03  0.14552208077E+03  0.47000000000E+01 0. -1.
         13    1    4    4    0    0 -0.94313233925E+01  0.40681054364E+01  0.25698362210E+02  0.27674991654E+02  0.00000000000E+00 0. -1.
        -14    1    4    4    0    0 -0.18144763954E+02  0.42137467967E+02 -0.59333366812E+02  0.75001647201E+02  0.00000000000E+00 0.  1.
         -5    1    3    3    0  504  0.36582066598E+02 -0.52373618039E+02  0.30026574138E+02  0.70745520124E+02  0.47000000000E+01 0.  1.
<mgrwt>
<rscale>  2 0.17284514E+03</rscale>
<asrwt>0</asrwt>
<pdfrwt beam="1">  1       21 0.49225455E-01 0.17338461E+03</pdfrwt>
<pdfrwt beam="2">  1       21 0.18415564E-01 0.17338461E+03</pdfrwt>
<totfact> 0.10671327E+05</totfact>
</mgrwt>
</event>
<event>
12    1  0.2736842E-001  0.3939112E+03  0.7546771E-02  0.1046034E+00
         21   -1    0    0  502  503  0.00000000000E+00  0.00000000000E+00  0.22484684663E+03  0.22484684663E+03  0.00000000000E+00 0. -1.
         21   -1    0    0  503  504 -0.00000000000E+00 -0.00000000000E+00 -0.25684007470E+04  0.25684007470E+04  0.00000000000E+00 0.  1.
         -6    2    1    2    0  504 -0.25260934790E+03  0.24569172571E+03 -0.23663479435E+04  0.23986774615E+04  0.17284405675E+03 0.  0.
        -24    2    3    3    0    0 -0.15200467928E+03  0.22886054452E+03 -0.15686782517E+04  0.15944986162E+04  0.78688044880E+02 0.  0.
          6    2    1    2  502    0  0.25260934790E+03 -0.24569172571E+03  0.22794043148E+02  0.39457013210E+03  0.17604009207E+03 0.  0.
         24    2    5    5    0    0  0.19840476883E+03 -0.98093133649E+02 -0.34346236787E+01  0.23509125032E+03  0.79179442868E+02 0.  0.
          4    1    6    6  501    0  0.19469185202E+03 -0.77072247401E+02  0.10406177167E+02  0.20965051177E+03  0.00000000000E+00 0. -1.
         -3    1    6    6    0  501  0.37129168126E+01 -0.21020886248E+02 -0.13840800846E+02  0.25440738550E+02  0.00000000000E+00 0.  1.
          5    1    5    5  502    0  0.54204579062E+02 -0.14759859206E+03  0.26228666827E+02  0.15947888178E+03  0.47000000000E+01 0. -1.
         13    1    4    4    0    0 -0.57889367301E+02  0.15711414683E+03 -0.91496190513E+03  0.93015661145E+03  0.00000000000E+00 0. -1.
        -14    1    4    4    0    0 -0.94115311980E+02  0.71746397684E+02 -0.65371634660E+03  0.66434200480E+03  0.00000000000E+00 0.  1.
         -5    1    3    3    0  504 -0.10060466862E+03  0.16831181188E+02 -0.79766969175E+03  0.80417884524E+03  0.47000000000E+01 0.  1.
<mgrwt>
<rscale>  2 0.39355623E+03</rscale>
<asrwt>0</asrwt>
<pdfrwt beam="1">  1       21 0.34591822E-01 0.39391118E+03</pdfrwt>
<pdfrwt beam="2">  1       21 0.39513858E+00 0.39391118E+03</pdfrwt>
<totfact> 0.58594338E+01</totfact>
</mgrwt>
</event>
<event>
12    1  0.2736842E-001  0.1798135E+03  0.7546771E-02  0.1168174E+00
         21   -1    0    0  502  503  0.00000000000E+00  0.00000000000E+00  0.12232175766E+04  0.12232175766E+04  0.00000000000E+00 0. -1.
         21   -1    0    0  503  504 -0.00000000000E+00 -0.00000000000E+00 -0.58398733360E+02  0.58398733360E+02  0.00000000000E+00 0. -1.
         -6    2    1    2    0  504 -0.30796138559E+02  0.34339443392E+02  0.10802886080E+03  0.20976922822E+03  0.17379670543E+03 0.  0.
        -24    2    3    3    0    0  0.12076783091E+02  0.10903574561E+02 -0.88529934142E+01  0.82998627511E+02  0.80905253527E+02 0.  0.
          6    2    1    2  502    0  0.30796138559E+02 -0.34339443392E+02  0.10567899824E+04  0.10718470817E+04  0.17298410371E+03 0.  0.
         24    2    5    5    0    0  0.63644073612E+00 -0.84485753252E+02  0.80414801333E+03  0.81247415655E+03  0.79510880813E+02 0.  0.
          4    1    6    6  501    0  0.13040374100E+02 -0.89809315752E+02  0.77565207594E+03  0.78094296045E+03  0.00000000000E+00 0. -1.
         -3    1    6    6    0  501 -0.12403933364E+02  0.53235625001E+01  0.28495937382E+02  0.31531196106E+02  0.00000000000E+00 0.  1.
          5    1    5    5  502    0  0.30159697822E+02  0.50146309860E+02  0.25264196911E+03  0.25937292519E+03  0.47000000000E+01 0. -1.
         11    1    4    4    0    0 -0.32789003733E+02  0.13890010558E+02  0.49745043390E+01  0.35955484318E+02  0.00000000000E+00 0. -1.
        -12    1    4    4    0    0  0.44865786825E+02 -0.29864359964E+01 -0.13827497753E+02  0.47043143193E+02  0.00000000000E+00 0.  1.
         -5    1    3    3    0  504 -0.42872921650E+02  0.23435868831E+02  0.11688185421E+03  0.12677060071E+03  0.47000000000E+01 0.  1.
<mgrwt>
<rscale>  2 0.17961685E+03</rscale>
<asrwt>0</asrwt>
<pdfrwt beam="1">  1       21 0.18818730E+00 0.17981350E+03</pdfrwt>
<pdfrwt beam="2">  1       21 0.89844214E-02 0.17981350E+03</pdfrwt>
<totfact> 0.15866562E+04</totfact>
</mgrwt>
</event>
<event>
12    1  0.2736842E-001  0.1857882E+03  0.7546771E-02  0.1162439E+00
         21   -1    0    0  502  503  0.00000000000E+00  0.00000000000E+00  0.38924405684E+03  0.38924405684E+03  0.00000000000E+00 0.  1.
         21   -1    0    0  503  504 -0.00000000000E+00 -0.00000000000E+00 -0.11207347283E+03  0.11207347283E+03  0.00000000000E+00 0. -1.
         -6    2    1    2    0  504 -0.32349246055E+02 -0.53553320346E+02  0.23284792231E+02  0.18671418649E+03  0.17437194169E+03 0.  0.
        -24    2    3    3    0    0 -0.37602691706E+02 -0.91503390657E+02  0.53478946329E+02  0.13770823309E+03  0.79477838634E+02 0.  0.
          6    2    1    2  502    0  0.32349246055E+02  0.53553320346E+02  0.25388579177E+03  0.31460334318E+03  0.17493666406E+03 0.  0.
         24    2    5    5    0    0  0.79300963557E+02  0.18129770637E+02  0.96268449847E+02  0.14630418059E+03  0.74296483222E+02 0.  0.
          4    1    6    6  501    0 -0.37944856815E+01 -0.11849576755E+02 -0.36193901159E+01  0.12958031319E+02  0.00000000000E+00 0. -1.
         -3    1    6    6    0  501  0.83095449239E+02  0.29979347392E+02  0.99887839963E+02  0.13334614928E+03  0.00000000000E+00 0.  1.
          5    1    5    5  502    0 -0.46951717502E+02  0.35423549710E+02  0.15761734193E+03  0.16829916258E+03  0.47000000000E+01 0. -1.
         13    1    4    4    0    0  0.15279955082E+02 -0.18282293926E+02 -0.11485371362E+02  0.26450577570E+02  0.00000000000E+00 0. -1.
        -14    1    4    4    0    0 -0.52882646788E+02 -0.73221096731E+02  0.64964317690E+02  0.11125765552E+03  0.00000000000E+00 0.  1.
         -5    1    3    3    0  504  0.52534456514E+01  0.37950070310E+02 -0.30194154098E+02  0.49005953408E+02  0.47000000000E+01 0.  1.
<mgrwt>
<rscale>  2 0.18565518E+03</rscale>
<asrwt>0</asrwt>
<pdfrwt beam="1">  1       21 0.59883701E-01 0.18578824E+03</pdfrwt>
<pdfrwt beam="2">  1       21 0.17242073E-01 0.18578824E+03</pdfrwt>
<totfact> 0.79312989E+04</totfact>
</mgrwt>
</event>
<event>
12    1  0.2736842E-001  0.2346118E+03  0.7546771E-02  0.1123852E+00
         21   -1    0    0  502  503  0.00000000000E+00  0.00000000000E+00  0.11726308645E+04  0.11726308645E+04  0.00000000000E+00 0. -1.
         21   -1    0    0  503  504 -0.00000000000E+00 -0.00000000000E+00 -0.68215184571E+02  0.68215184571E+02  0.00000000000E+00 0.  1.
         -6    2    1    2    0  504 -0.10159810780E+03  0.11634514724E+03  0.20376550692E+03  0.31074602521E+03  0.17659088758E+03 0.  0.
        -24    2    3    3    0    0 -0.43017205966E+02  0.52203842500E+02  0.20297847345E+02  0.10769849101E+03  0.81309539283E+02 0.  0.
          6    2    1    2  502    0  0.10159810780E+03 -0.11634514724E+03  0.90065017299E+03  0.93010002385E+03  0.17336940749E+03 0.  0.
         24    2    5    5    0    0  0.19353631897E+02  0.82196748487E+01  0.35140347352E+03  0.36091237851E+03  0.79568948971E+02 0.  0.
          2    1    6    6  501    0  0.26890284628E+02  0.13074319266E+02  0.35064277429E+03  0.35191530287E+03  0.00000000000E+00 0. -1.
         -1    1    6    6    0  501 -0.75366527316E+01 -0.48546444175E+01  0.76069922873E+00  0.89970756434E+01  0.00000000000E+00 0.  1.
          5    1    5    5  502    0  0.82244475902E+02 -0.12456482209E+03  0.54924669947E+03  0.56918764533E+03  0.47000000000E+01 0. -1.
         11    1    4    4    0    0  0.21189942448E+02  0.20522305438E+02  0.20807065322E+02  0.36098651619E+02  0.00000000000E+00 0. -1.
        -12    1    4    4    0    0 -0.64207148413E+02  0.31681537063E+02 -0.50921797683E+00  0.71599839392E+02  0.00000000000E+00 0.  1.
         -5    1    3    3    0  504 -0.58580901833E+02  0.64141304741E+02  0.18346765958E+03  0.20304753420E+03  0.47000000000E+01 0.  1.
<mgrwt>
<rscale>  2 0.23400571E+03</rscale>
<asrwt>0</asrwt>
<pdfrwt beam="1">  1       21 0.18040473E+00 0.23461183E+03</pdfrwt>
<pdfrwt beam="2">  1       21 0.10494645E-01 0.23461183E+03</pdfrwt>
<totfact> 0.13067413E+04</totfact>
</mgrwt>
</event>
<event>
12    1  0.2736842E-001  0.2429351E+03  0.7546771E-02  0.1117919E+00
         21   -1    0    0  502  503  0.00000000000E+00  0.00000000000E+00  0.16905112195E+04  0.16905112195E+04  0.00000000000E+00 0. -1.
         21   -1    0    0  503  504 -0.00000000000E+00 -0.00000000000E+00 -0.52256939081E+02  0.52256939081E+02  0.00000000000E+00 0.  1.
         -6    2    1    2    0  504 -0.14923592950E+03  0.83965150133E+02  0.31579563466E+03  0.39818111730E+03  0.17175508787E+03 0.  0.
        -24    2    3    3    0    0 -0.94280464008E+02 -0.30470299422E+00  0.93385489220E+02  0.15402978282E+03  0.78201187075E+02 0.  0.
          6    2    1    2  502    0  0.14923592950E+03 -0.83965150133E+02  0.13224586458E+04  0.13445870413E+04  0.17232507875E+03 0.  0.
         24    2    5    5    0    0  0.10878567841E+03  0.15101349280E+02  0.74492675560E+03  0.75720678262E+03  0.79899098013E+02 0.  0.
          2    1    6    6  501    0  0.11526316636E+03  0.10222675114E+02  0.73641335074E+03  0.74544934352E+03  0.00000000000E+00 0. -1.
         -1    1    6    6    0  501 -0.64774879589E+01  0.48786741657E+01  0.85134048539E+01  0.11757439095E+02  0.00000000000E+00 0.  1.
          5    1    5    5  502    0  0.40450251094E+02 -0.99066499412E+02  0.57753189020E+03  0.58738025871E+03  0.47000000000E+01 0. -1.
         11    1    4    4    0    0 -0.22909222490E+02 -0.35533852452E+02  0.39918767892E+02  0.58146325552E+02  0.00000000000E+00 0. -1.
        -12    1    4    4    0    0 -0.71371241518E+02  0.35229149457E+02  0.53466721328E+02  0.95883457264E+02  0.00000000000E+00 0.  1.
         -5    1    3    3    0  504 -0.54955465492E+02  0.84269853127E+02  0.22241014544E+03  0.24415133448E+03  0.47000000000E+01 0.  1.
<mgrwt>
<rscale>  2 0.24283400E+03</rscale>
<asrwt>0</asrwt>
<pdfrwt beam="1">  1       21 0.26007861E+00 0.24293506E+03</pdfrwt>
<pdfrwt beam="2">  1       21 0.80395304E-02 0.24293506E+03</pdfrwt>
<totfact> 0.65909833E+03</totfact>
</mgrwt>
</event>
<event>
12    1  0.2736842E-001  0.2625779E+03  0.7546771E-02  0.1106278E+00
         21   -1    0    0  502  503  0.00000000000E+00  0.00000000000E+00  0.83333917295E+03  0.83333917295E+03  0.00000000000E+00 0.  1.
         21   -1    0    0  503  504 -0.00000000000E+00 -0.00000000000E+00 -0.18067252901E+03  0.18067252901E+03  0.00000000000E+00 0.  1.
         -6    2    1    2    0  504 -0.84921417165E+02  0.17838484571E+03 -0.50893970640E+02  0.26304920067E+03  0.16604784086E+03 0.  0.
        -24    2    3    3    0    0 -0.53736542805E+02  0.19880381185E+03 -0.56286364390E+02  0.22509398394E+03  0.71334249481E+02 0.  0.
          6    2    1    2  502    0  0.84921417165E+02 -0.17838484571E+03  0.70356061457E+03  0.75096250129E+03  0.17295762396E+03 0.  0.
         24    2    5    5    0    0  0.12583310164E+03 -0.15233996202E+03  0.56827789136E+03  0.60717235179E+03  0.81713337164E+02 0.  0.
          2    1    6    6  501    0  0.10828362867E+03 -0.10463781560E+03  0.49915585648E+03  0.52137413222E+03  0.00000000000E+00 0. -1.
         -1    1    6    6    0  501  0.17549472968E+02 -0.47702146423E+02  0.69122034878E+02  0.85798219565E+02  0.00000000000E+00 0.  1.
          5    1    5    5  502    0 -0.40911684472E+02 -0.26044883692E+02  0.13528272322E+03  0.14379014950E+03  0.47000000000E+01 0. -1.
         13    1    4    4    0    0 -0.20066241149E+02  0.56389223914E+02  0.15883852689E+02  0.61924917309E+02  0.00000000000E+00 0. -1.
        -14    1    4    4    0    0 -0.33670301657E+02  0.14241458794E+03 -0.72170217079E+02  0.16316906663E+03  0.00000000000E+00 0.  1.
         -5    1    3    3    0  504 -0.31184874360E+02 -0.20418966138E+02  0.53923937501E+01  0.37955216734E+02  0.47000000000E+01 0.  1.
<mgrwt>
<rscale>  2 0.26144581E+03</rscale>
<asrwt>0</asrwt>
<pdfrwt beam="1">  1       21 0.12820602E+00 0.26257787E+03</pdfrwt>
<pdfrwt beam="2">  1       21 0.27795774E-01 0.26257787E+03</pdfrwt>
<totfact> 0.52642067E+03</totfact>
</mgrwt>
</event>
<event>
12    1  0.2736842E-001  0.1828760E+03  0.7546771E-02  0.1166791E+00
         21   -1    0    0  502  503  0.00000000000E+00  0.00000000000E+00  0.16872340421E+04  0.16872340421E+04  0.00000000000E+00 0. -1.
         21   -1    0    0  503  504 -0.00000000000E+00 -0.00000000000E+00 -0.20672662952E+02  0.20672662952E+02  0.00000000000E+00 0.  1.
         -6    2    1    2    0  504  0.36950975194E+02  0.45630082310E+02  0.57859339215E+03  0.60467601231E+03  0.16557562455E+03 0.  0.
        -24    2    3    3    0    0 -0.24453195272E+02  0.89145181505E+01  0.44846873640E+03  0.45610609330E+03  0.78937528598E+02 0.  0.
          6    2    1    2  502    0 -0.36950975194E+02 -0.45630082310E+02  0.10879679870E+04  0.11032306928E+04  0.17319394242E+03 0.  0.
         24    2    5    5    0    0 -0.19493414538E+02 -0.74651025193E+02  0.44934299311E+03  0.46369105021E+03  0.84542863766E+02 0.  0.
          4    1    6    6  501    0 -0.28861654830E+02 -0.58038703874E+02  0.43506433952E+03  0.43986641812E+03  0.00000000000E+00 0. -1.
         -3    1    6    6    0  501  0.93682402916E+01 -0.16612321318E+02  0.14278653584E+02  0.23824632083E+02  0.00000000000E+00 0.  1.
          5    1    5    5  502    0 -0.17457560656E+02  0.29020942883E+02  0.63862499393E+03  0.63953964258E+03  0.47000000000E+01 0. -1.
         13    1    4    4    0    0  0.27000081853E+02 -0.65461898592E+01  0.19803019029E+03  0.19996953090E+03  0.00000000000E+00 0. -1.
        -14    1    4    4    0    0 -0.51453277125E+02  0.15460708010E+02  0.25043854611E+03  0.25613656239E+03  0.00000000000E+00 0.  1.
         -5    1    3    3    0  504  0.61404170466E+02  0.36715564159E+02  0.13012465575E+03  0.14856991901E+03  0.47000000000E+01 0.  1.
<mgrwt>
<rscale>  2 0.18104930E+03</rscale>
<asrwt>0</asrwt>
<pdfrwt beam="1">  1       21 0.25957436E+00 0.18287597E+03</pdfrwt>
<pdfrwt beam="2">  1       21 0.31804110E-02 0.18287597E+03</pdfrwt>
<totfact> 0.33848381E+04</totfact>
</mgrwt>
</event>
<event>
12    1  0.2736842E-001  0.2238005E+03  0.7546771E-02  0.1131107E+00
         21   -1    0    0  502  503  0.00000000000E+00  0.00000000000E+00  0.17572883221E+04  0.17572883221E+04  0.00000000000E+00 0. -1.
         21   -1    0    0  503  504 -0.00000000000E+00 -0.00000000000E+00 -0.49024637634E+02  0.49024637634E+02  0.00000000000E+00 0. -1.
         -6    2    1    2    0  504 -0.74760356033E+02  0.12212314423E+03  0.26968731048E+03  0.35045385518E+03  0.17199850577E+03 0.  0.
        -24    2    3    3    0    0 -0.11249674613E+03  0.10711169182E+03  0.20226416467E+03  0.27160368440E+03  0.93430919158E+02 0.  0.
          6    2    1    2  502    0  0.74760356033E+02 -0.12212314423E+03  0.14385763740E+04  0.14558591046E+04  0.17181552703E+03 0.  0.
         24    2    5    5    0    0  0.55252199573E+02 -0.69979566173E+02  0.45605565447E+03  0.47175109464E+03  0.81316603954E+02 0.  0.
          2    1    6    6  501    0  0.21682514483E+02 -0.49822932637E+02  0.39820266683E+03  0.40189279655E+03  0.00000000000E+00 0. -1.
         -1    1    6    6    0  501  0.33569685090E+02 -0.20156633536E+02  0.57852987644E+02  0.69858298089E+02  0.00000000000E+00 0.  1.
          5    1    5    5  502    0  0.19508156460E+02 -0.52143578057E+02  0.98252071952E+03  0.98410800992E+03  0.47000000000E+01 0. -1.
         13    1    4    4    0    0 -0.79235702894E+02  0.11413184515E+03  0.12380519228E+03  0.18609701858E+03  0.00000000000E+00 0. -1.
        -14    1    4    4    0    0 -0.33261043240E+02 -0.70201533287E+01  0.78458972396E+02  0.85506665820E+02  0.00000000000E+00 0.  1.
         -5    1    3    3    0  504  0.37736390101E+02  0.15011452406E+02  0.67423145809E+02  0.78850170779E+02  0.47000000000E+01 0.  1.
<mgrwt>
<rscale>  2 0.22376533E+03</rscale>
<asrwt>0</asrwt>
<pdfrwt beam="1">  1       21 0.27035200E+00 0.22380049E+03</pdfrwt>
<pdfrwt beam="2">  1       21 0.75422533E-02 0.22380049E+03</pdfrwt>
<totfact> 0.65209360E+03</totfact>
</mgrwt>
</event>
<event>
12    1  0.2736842E-001  0.1865507E+03  0.7546771E-02  0.1163957E+00
         21   -1    0    0  502  503  0.00000000000E+00  0.00000000000E+00  0.11967965136E+04  0.11967965136E+04  0.00000000000E+00 0.  1.
         21   -1    0    0  503  504 -0.00000000000E+00 -0.00000000000E+00 -0.36290418839E+02  0.36290418839E+02  0.00000000000E+00 0.  1.
         -6    2    1    2    0  504  0.33148621889E+02  0.13977999649E+02  0.87059338076E+03  0.88833983694E+03  0.17297576614E+03 0.  0.
        -24    2    3    3    0    0 -0.67363280601E+00  0.28028248501E+02  0.20935030004E+03  0.22606658804E+03  0.80576160302E+02 0.  0.
          6    2    1    2  502    0 -0.33148621889E+02 -0.13977999649E+02  0.28991271400E+03  0.34474709550E+03  0.18304907130E+03 0.  0.
         24    2    5    5    0    0  0.32643825749E+01  0.41148041418E+02  0.25363460816E+03  0.26922902970E+03  0.80311508957E+02 0.  0.
          4    1    6    6  501    0  0.18136213826E+02  0.22157121104E+02  0.23963521491E+03  0.24133979467E+03  0.00000000000E+00 0. -1.
         -3    1    6    6    0  501 -0.14871831251E+02  0.18990920314E+02  0.13999393251E+02  0.27889235029E+02  0.00000000000E+00 0.  1.
          5    1    5    5  502    0 -0.36413004464E+02 -0.55126041067E+02  0.36278105840E+02  0.75518065793E+02  0.47000000000E+01 0. -1.
         13    1    4    4    0    0 -0.89804690746E+01  0.55004652240E+02  0.15688238939E+03  0.16648797162E+03  0.00000000000E+00 0. -1.
        -14    1    4    4    0    0  0.83068362685E+01 -0.26976403740E+02  0.52467910651E+02  0.59578616429E+02  0.00000000000E+00 0.  1.
         -5    1    3    3    0  504  0.33822254695E+02 -0.14050248851E+02  0.66124308072E+03  0.66227324890E+03  0.47000000000E+01 0.  1.
<mgrwt>
<rscale>  2 0.18403179E+03</rscale>
<asrwt>0</asrwt>
<pdfrwt beam="1">  1       21 0.18412251E+00 0.18655074E+03</pdfrwt>
<pdfrwt beam="2">  1       21 0.55831423E-02 0.18655074E+03</pdfrwt>
<totfact> 0.38205510E+04</totfact>
</mgrwt>
</event>
<event>
12    1  0.2736842E-001  0.2310304E+03  0.7546771E-02  0.1126694E+00
         21   -1    0    0  502  503  0.00000000000E+00  0.00000000000E+00  0.17510363331E+03  0.17510363331E+03  0.00000000000E+00 0. -1.
         21   -1    0    0  503  504 -0.00000000000E+00 -0.00000000000E+00 -0.43334800677E+03  0.43334800677E+03  0.00000000000E+00 0.  1.
         -6    2    1    2    0  504 -0.14533169414E+03  0.14608655028E+02 -0.29762448012E+03  0.37408904771E+03  0.17328465115E+03 0.  0.
        -24    2    3    3    0    0 -0.96833625858E+02 -0.32554233937E+02 -0.94878170446E+02  0.16030280678E+03  0.79111272215E+02 0.  0.
          6    2    1    2  502    0  0.14533169414E+03 -0.14608655028E+02  0.39380106658E+02  0.23436259236E+03  0.17899809434E+03 0.  0.
         24    2    5    5    0    0  0.25400268184E+02 -0.27904617660E+02 -0.19173263418E+02  0.10015783574E+03  0.90775198810E+02 0.  0.
          4    1    6    6  501    0 -0.31660825329E+02  0.44946041212E+01 -0.11973503884E+02  0.34146363232E+02  0.00000000000E+00 0. -1.
         -3    1    6    6    0  501  0.57061093513E+02 -0.32399221781E+02 -0.71997595340E+01  0.66011472505E+02  0.00000000000E+00 0.  1.
          5    1    5    5  502    0  0.11993142596E+03  0.13295962632E+02  0.58553370076E+02  0.13420475663E+03  0.47000000000E+01 0. -1.
         11    1    4    4    0    0 -0.75134625049E+01 -0.38937657567E+02 -0.28427849309E+02  0.48792785450E+02  0.00000000000E+00 0. -1.
        -12    1    4    4    0    0 -0.89320163353E+02  0.63834236295E+01 -0.66450321137E+02  0.11151002133E+03  0.00000000000E+00 0.  1.
         -5    1    3    3    0  504 -0.48498068281E+02  0.47162888965E+02 -0.20274630967E+03  0.21378624093E+03  0.47000000000E+01 0.  1.
<mgrwt>
<rscale>  2 0.22992296E+03</rscale>
<asrwt>0</asrwt>
<pdfrwt beam="1">  1       21 0.26939021E-01 0.23103037E+03</pdfrwt>
<pdfrwt beam="2">  1       21 0.66668924E-01 0.23103037E+03</pdfrwt>
<totfact> 0.26514462E+04</totfact>
</mgrwt>
</event>
<event>
12    1  0.2736842E-001  0.2367472E+03  0.7546771E-02  0.1122063E+00
         21   -1    0    0  502  503  0.00000000000E+00  0.00000000000E+00  0.24375883502E+04  0.24375883502E+04  0.00000000000E+00 0.  1.
         21   -1    0    0  503  504 -0.00000000000E+00 -0.00000000000E+00 -0.31531805426E+02  0.31531805426E+02  0.00000000000E+00 0. -1.
         -6    2    1    2    0  504 -0.60666767205E+02 -0.15004267519E+03  0.55972083936E+03  0.60773074909E+03  0.17278884324E+03 0.  0.
        -24    2    3    3    0    0 -0.10129773578E+03 -0.12161852444E+03  0.49455650740E+03  0.52571070206E+03  0.82056727292E+02 0.  0.
          6    2    1    2  502    0  0.60666767205E+02  0.15004267519E+03  0.18463357054E+04  0.18613894065E+04  0.17210962981E+03 0.  0.
         24    2    5    5    0    0 -0.23349759275E+02  0.11000174330E+03  0.12776731186E+04  0.12851418203E+04  0.80593458989E+02 0.  0.
          2    1    6    6  501    0 -0.24556517498E+02  0.41431686164E+02  0.21823442280E+03  0.22348572765E+03  0.00000000000E+00 0. -1.
         -1    1    6    6    0  501  0.12067582230E+01  0.68570057138E+02  0.10594386958E+04  0.10616560927E+04  0.00000000000E+00 0.  1.
          5    1    5    5  502    0  0.84016526479E+02  0.40040931886E+02  0.56866258683E+03  0.57624758621E+03  0.47000000000E+01 0. -1.
         13    1    4    4    0    0  0.63864595299E+01 -0.13979628060E+02  0.11411157109E+02  0.19142397253E+02  0.00000000000E+00 0. -1.
        -14    1    4    4    0    0 -0.10768419531E+03 -0.10763889638E+03  0.48314535029E+03  0.50656830481E+03  0.00000000000E+00 0.  1.
         -5    1    3    3    0  504  0.40630968578E+02 -0.28424150749E+02  0.65164331965E+02  0.82020047024E+02  0.47000000000E+01 0.  1.
<mgrwt>
<rscale>  2 0.23662330E+03</rscale>
<asrwt>0</asrwt>
<pdfrwt beam="1">  1       21 0.37501345E+00 0.23674722E+03</pdfrwt>
<pdfrwt beam="2">  1       21 0.48510489E-02 0.23674722E+03</pdfrwt>
<totfact> 0.33231295E+03</totfact>
</mgrwt>
</event>
<event>
12    1  0.2736842E-001  0.1851336E+03  0.7546771E-02  0.1164865E+00
         21   -1    0    0  502  503  0.00000000000E+00  0.00000000000E+00  0.11832810327E+03  0.11832810327E+03  0.00000000000E+00 0. -1.
         21   -1    0    0  503  504 -0.00000000000E+00 -0.00000000000E+00 -0.30001965720E+03  0.30001965720E+03  0.00000000000E+00 0. -1.
         -6    2    1    2    0  504 -0.59843664648E+02  0.27939018056E+02 -0.14677279209E+03  0.22994985402E+03  0.16423407058E+03 0.  0.
        -24    2    3    3    0    0 -0.87422804084E+02  0.52455569982E+02 -0.14222492150E+03  0.19247395007E+03  0.80149608004E+02 0.  0.
          6    2    1    2  502    0  0.59843664648E+02 -0.27939018056E+02 -0.34918761837E+02  0.18839790645E+03  0.17295258974E+03 0.  0.
         24    2    5    5    0    0  0.54702563261E+02 -0.36327422176E+02 -0.86587022716E+02  0.13559170010E+03  0.81090964993E+02 0.  0.
          4    1    6    6  501    0  0.30040418890E+02 -0.30603619016E+02 -0.98634647088E+02  0.10755371621E+03  0.00000000000E+00 0. -1.
         -3    1    6    6    0  501  0.24662144372E+02 -0.57238031601E+01  0.12047624372E+02  0.28037983890E+02  0.00000000000E+00 0.  1.
          5    1    5    5  502    0  0.51411013870E+01  0.83884041196E+01  0.51668260879E+02  0.52806206353E+02  0.47000000000E+01 0. -1.
         13    1    4    4    0    0 -0.11582218782E+02  0.48246402183E+02 -0.80664415485E+02  0.94702750968E+02  0.00000000000E+00 0. -1.
        -14    1    4    4    0    0 -0.75840585303E+02  0.42091677993E+01 -0.61560506016E+02  0.97771199100E+02  0.00000000000E+00 0.  1.
         -5    1    3    3    0  504  0.27579139436E+02 -0.24516551926E+02 -0.45478705900E+01  0.37475903955E+02  0.47000000000E+01 0.  1.
<mgrwt>
<rscale>  2 0.18306997E+03</rscale>
<asrwt>0</asrwt>
<pdfrwt beam="1">  1       21 0.18204323E-01 0.18513360E+03</pdfrwt>
<pdfrwt beam="2">  1       21 0.46156871E-01 0.18513360E+03</pdfrwt>
<totfact> 0.12398638E+05</totfact>
</mgrwt>
</event>
<event>
12    1  0.2736842E-001  0.2750304E+03  0.7546771E-02  0.1098461E+00
         21   -1    0    0  502  503  0.00000000000E+00  0.00000000000E+00  0.15048563887E+03  0.15048563887E+03  0.00000000000E+00 0. -1.
         21   -1    0    0  503  504 -0.00000000000E+00 -0.00000000000E+00 -0.55959938884E+03  0.55959938884E+03  0.00000000000E+00 0.  1.
         -6    2    1    2    0  504  0.54533696782E+02 -0.20654101116E+03 -0.31809850160E+03  0.42038605745E+03  0.17292965969E+03 0.  0.
        -24    2    3    3    0    0  0.60791780394E+02 -0.20963229800E+03 -0.21231159450E+03  0.31426499743E+03  0.77749177003E+02 0.  0.
          6    2    1    2  502    0 -0.54533696782E+02  0.20654101116E+03 -0.91015248366E+02  0.28969897026E+03  0.17322991820E+03 0.  0.
         24    2    5    5    0    0  0.26130672147E+02  0.10859348178E+03 -0.86074539645E+02  0.16262828313E+03  0.81017132672E+02 0.  0.
          2    1    6    6  501    0  0.32568118077E+02  0.39004396050E+01 -0.25098049236E+02  0.41301426363E+02  0.00000000000E+00 0. -1.
         -1    1    6    6    0  501 -0.64374459297E+01  0.10469304218E+03 -0.60976490409E+02  0.12132685677E+03  0.00000000000E+00 0.  1.
          5    1    5    5  502    0 -0.80664368930E+02  0.97947529374E+02 -0.49407087213E+01  0.12707068713E+03  0.47000000000E+01 0. -1.
         13    1    4    4    0    0  0.58595692088E+02 -0.18191308329E+03 -0.21335795211E+03  0.28643924440E+03  0.00000000000E+00 0. -1.
        -14    1    4    4    0    0  0.21960883063E+01 -0.27719214702E+02  0.10463576069E+01  0.27825753032E+02  0.00000000000E+00 0.  1.
         -5    1    3    3    0  504 -0.62580836116E+01  0.30912868399E+01 -0.10578690710E+03  0.10612106001E+03  0.47000000000E+01 0.  1.
<mgrwt>
<rscale>  2 0.27498313E+03</rscale>
<asrwt>0</asrwt>
<pdfrwt beam="1">  1       21 0.23151637E-01 0.27503039E+03</pdfrwt>
<pdfrwt beam="2">  1       21 0.86092213E-01 0.27503039E+03</pdfrwt>
<totfact> 0.19527199E+04</totfact>
</mgrwt>
</event>
<event>
12    1  0.2736842E-001  0.1825592E+03  0.7546771E-02  0.1166144E+00
         21   -1    0    0  502  503  0.00000000000E+00  0.00000000000E+00  0.15263250641E+04  0.15263250641E+04  0.00000000000E+00 0.  1.
         21   -1    0    0  503  504 -0.00000000000E+00 -0.00000000000E+00 -0.23685307687E+02  0.23685307687E+02  0.00000000000E+00 0.  1.
         -6    2    1    2    0  504 -0.24707604813E+02  0.45821843735E+02  0.98365225722E+03  0.99985051468E+03  0.17152020722E+03 0.  0.
        -24    2    3    3    0    0 -0.13681181462E+02  0.49215572521E+02  0.98269685630E+03  0.98735642816E+03  0.81057125260E+02 0.  0.
          6    2    1    2  502    0  0.24707604813E+02 -0.45821843735E+02  0.51898749922E+03  0.55015985713E+03  0.17497924720E+03 0.  0.
         24    2    5    5    0    0 -0.25972752240E+02 -0.67703334588E+02  0.20849953984E+03  0.23476778184E+03  0.79909498216E+02 0.  0.
          4    1    6    6  501    0 -0.50052388045E+02 -0.24482019217E+02  0.84024941365E+02  0.10082064067E+03  0.00000000000E+00 0. -1.
         -3    1    6    6    0  501  0.24079635805E+02 -0.43221315370E+02  0.12447459848E+03  0.13394714117E+03  0.00000000000E+00 0.  1.
          5    1    5    5  502    0  0.50680357053E+02  0.21881490852E+02  0.31048795938E+03  0.31539207528E+03  0.47000000000E+01 0. -1.
         11    1    4    4    0    0  0.28998844104E+02  0.17630671168E+02  0.60433956651E+03  0.60529173559E+03  0.00000000000E+00 0. -1.
        -12    1    4    4    0    0 -0.42680025566E+02  0.31584901352E+02  0.37835728979E+03  0.38206469258E+03  0.00000000000E+00 0.  1.
         -5    1    3    3    0  504 -0.11026423351E+02 -0.33937287855E+01  0.95540091851E+00  0.12494086517E+02  0.47000000000E+01 0.  1.
<mgrwt>
<rscale>  2 0.18172528E+03</rscale>
<asrwt>0</asrwt>
<pdfrwt beam="1">  1       21 0.23481916E+00 0.18255915E+03</pdfrwt>
<pdfrwt beam="2">  1       21 0.36438947E-02 0.18255915E+03</pdfrwt>
<totfact> 0.37762723E+04</totfact>
</mgrwt>
</event>
<event>
12    1  0.2736842E-001  0.2239117E+03  0.7546771E-02  0.1131275E+00
         21   -1    0    0  502  503  0.00000000000E+00  0.00000000000E+00  0.26118267891E+03  0.26118267891E+03  0.00000000000E+00 0. -1.
         21   -1    0    0  503  504 -0.00000000000E+00 -0.00000000000E+00 -0.34088264841E+03  0.34088264841E+03  0.00000000000E+00 0. -1.
         -6    2    1    2    0  504 -0.12177784545E+01 -0.14033036136E+03 -0.23960487891E+03  0.32691806729E+03  0.17254225981E+03 0.  0.
        -24    2    3    3    0    0  0.50720702417E+02 -0.62353912223E+02 -0.18713832655E+03  0.21943429395E+03  0.81670411244E+02 0.  0.
          6    2    1    2  502    0  0.12177784545E+01  0.14033036136E+03  0.15990490941E+03  0.27514726003E+03  0.17447733763E+03 0.  0.
         24    2    5    5    0    0 -0.80407886987E+01  0.42216106847E+02  0.14521284956E+03  0.17539719925E+03  0.88490405504E+02 0.  0.
          4    1    6    6  501    0  0.18580575000E+02  0.41642746813E+01  0.12200405548E+03  0.12348104512E+03  0.00000000000E+00 0. -1.
         -3    1    6    6    0  501 -0.26621363699E+02  0.38051832166E+02  0.23208794078E+02  0.51916154123E+02  0.00000000000E+00 0.  1.
          5    1    5    5  502    0  0.92585671532E+01  0.98114254513E+02  0.14692059854E+02  0.99750060788E+02  0.47000000000E+01 0. -1.
         11    1    4    4    0    0 -0.21294045957E+02 -0.26932937107E+02 -0.55713785453E+02  0.65443451804E+02  0.00000000000E+00 0. -1.
        -12    1    4    4    0    0  0.72014748374E+02 -0.35420975116E+02 -0.13142454110E+03  0.15399084215E+03  0.00000000000E+00 0.  1.
         -5    1    3    3    0  504 -0.51938480871E+02 -0.77976449137E+02 -0.52466552357E+02  0.10748377334E+03  0.47000000000E+01 0.  1.
<mgrwt>
<rscale>  2 0.22353458E+03</rscale>
<asrwt>0</asrwt>
<pdfrwt beam="1">  1       21 0.40181951E-01 0.22391167E+03</pdfrwt>
<pdfrwt beam="2">  1       21 0.52443484E-01 0.22391167E+03</pdfrwt>
<totfact> 0.20214022E+04</totfact>
</mgrwt>
</event>
<event>
12    1  0.2736842E-001  0.2436045E+03  0.7546771E-02  0.1117525E+00
         21   -1    0    0  502  503  0.00000000000E+00  0.00000000000E+00  0.74797849208E+02  0.74797849208E+02  0.00000000000E+00 0.  1.
         21   -1    0    0  503  504 -0.00000000000E+00 -0.00000000000E+00 -0.17845049608E+04  0.17845049608E+04  0.00000000000E+00 0. -1.
         -6    2    1    2    0  504  0.34699881390E+02 -0.16649348760E+03 -0.15479225628E+04  0.15668692653E+04  0.17346720431E+03 0.  0.
        -24    2    3    3    0    0 -0.14778753683E+02 -0.57266312888E+02 -0.10408012162E+04  0.10457427344E+04  0.82540007196E+02 0.  0.
          6    2    1    2  502    0 -0.34699881390E+02  0.16649348760E+03 -0.16178454886E+03  0.29243354477E+03  0.17441036285E+03 0.  0.
         24    2    5    5    0    0 -0.75745360290E+02  0.51698190399E+02 -0.78557249972E+02  0.14474615573E+03  0.79813191771E+02 0.  0.
          2    1    6    6  501    0 -0.56663203361E+02  0.11141993836E+02 -0.81435303914E+02  0.99832716908E+02  0.00000000000E+00 0. -1.
         -1    1    6    6    0  501 -0.19082156929E+02  0.40556196562E+02  0.28780539417E+01  0.44913438826E+02  0.00000000000E+00 0.  1.
          5    1    5    5  502    0  0.41045478900E+02  0.11479529721E+03 -0.83227298891E+02  0.14768738903E+03  0.47000000000E+01 0. -1.
         11    1    4    4    0    0 -0.22308115909E+02 -0.72620347369E+01 -0.74217912437E+02  0.77837572614E+02  0.00000000000E+00 0. -1.
        -12    1    4    4    0    0  0.75293622265E+01 -0.50004278151E+02 -0.96658330378E+03  0.96790516182E+03  0.00000000000E+00 0.  1.
         -5    1    3    3    0  504  0.49478635073E+02 -0.10922717472E+03 -0.50712134655E+03  0.52112653085E+03  0.47000000000E+01 0.  1.
<mgrwt>
<rscale>  2 0.24343570E+03</rscale>
<asrwt>0</asrwt>
<pdfrwt beam="1">  1       21 0.11507363E-01 0.24360447E+03</pdfrwt>
<pdfrwt beam="2">  1       21 0.27453919E+00 0.24360447E+03</pdfrwt>
<totfact> 0.28695560E+03</totfact>
</mgrwt>
</event>
<event>
12    1  0.2736842E-001  0.1971237E+03  0.7546771E-02  0.1152500E+00
         21   -1    0    0  502  503  0.00000000000E+00  0.00000000000E+00  0.16146439217E+03  0.16146439217E+03  0.00000000000E+00 0.  1.
         21   -1    0    0  503  504 -0.00000000000E+00 -0.00000000000E+00 -0.24021011910E+03  0.24021011910E+03  0.00000000000E+00 0. -1.
         -6    2    1    2    0  504 -0.49003811115E+02  0.79567706613E+02 -0.54061911451E+02  0.20301132058E+03  0.17192589268E+03 0.  0.
        -24    2    3    3    0    0  0.19452241653E+02  0.94738914958E+02 -0.34394162088E+02  0.13003661888E+03  0.79829268762E+02 0.  0.
          6    2    1    2  502    0  0.49003811115E+02 -0.79567706613E+02 -0.24683815478E+02  0.19866319070E+03  0.17356664182E+03 0.  0.
         24    2    5    5    0    0  0.50244119014E+01 -0.99917169096E+02  0.23421225899E+02  0.13021997931E+03  0.80000023714E+02 0.  0.
          2    1    6    6  501    0 -0.17089180660E+02 -0.78420014451E+02 -0.14270040294E+02  0.81519156105E+02  0.00000000000E+00 0. -1.
         -1    1    6    6    0  501  0.22113592561E+02 -0.21497154646E+02  0.37691266193E+02  0.48700823207E+02  0.00000000000E+00 0.  1.
          5    1    5    5  502    0  0.43979399213E+02  0.20349462484E+02 -0.48105041378E+02  0.68443211383E+02  0.47000000000E+01 0. -1.
         13    1    4    4    0    0  0.96076788685E+01 -0.92641895692E+01  0.98478801464E+01  0.16586544094E+02  0.00000000000E+00 0. -1.
        -14    1    4    4    0    0  0.98445627845E+01  0.10400310453E+03 -0.44242042234E+02  0.11345007478E+03  0.00000000000E+00 0.  1.
         -5    1    3    3    0  504 -0.68456052768E+02 -0.15171208345E+02 -0.19667749363E+02  0.72974701700E+02  0.47000000000E+01 0.  1.
<mgrwt>
<rscale>  2 0.19676197E+03</rscale>
<asrwt>0</asrwt>
<pdfrwt beam="1">  1       21 0.24840676E-01 0.19712375E+03</pdfrwt>
<pdfrwt beam="2">  1       21 0.36955403E-01 0.19712375E+03</pdfrwt>
<totfact> 0.10809006E+05</totfact>
</mgrwt>
</event>
<event>
12    1  0.2736842E-001  0.2426174E+03  0.7546771E-02  0.1118267E+00
         21   -1    0    0  502  503  0.00000000000E+00  0.00000000000E+00  0.18766319144E+04  0.18766319144E+04  0.00000000000E+00 0.  1.
         21   -1    0    0  503  504 -0.00000000000E+00 -0.00000000000E+00 -0.95221321063E+02  0.95221321063E+02  0.00000000000E+00 0.  1.
         -6    2    1    2    0  504 -0.11862838748E+03 -0.12295784218E+03  0.81563138174E+02  0.25477881684E+03  0.17049450058E+03 0.  0.
        -24    2    3    3    0    0 -0.40758872416E+02 -0.46995417254E+02  0.10370628449E+03  0.14366463995E+03  0.77554370642E+02 0.  0.
          6    2    1    2  502    0  0.11862838748E+03  0.12295784218E+03  0.16998474552E+04  0.17170744186E+04  0.17225522637E+03 0.  0.
         24    2    5    5    0    0  0.13231294706E+03  0.10589121204E+03  0.10438141354E+04  0.10606596537E+04  0.82044420193E+02 0.  0.
          2    1    6    6  501    0  0.20310748624E+02  0.55582506640E+02  0.22323330903E+03  0.23094382826E+03  0.00000000000E+00 0. -1.
         -1    1    6    6    0  501  0.11200219844E+03  0.50308705396E+02  0.82058082642E+03  0.82971582544E+03  0.00000000000E+00 0.  1.
          5    1    5    5  502    0 -0.13684559580E+02  0.17066630142E+02  0.65603331971E+03  0.65641476492E+03  0.47000000000E+01 0. -1.
         13    1    4    4    0    0 -0.45033201739E+02 -0.63164783003E+02  0.99952395175E+02  0.12652375418E+03  0.00000000000E+00 0. -1.
        -14    1    4    4    0    0  0.42743293231E+01  0.16169365749E+02  0.37538893114E+01  0.17140885766E+02  0.00000000000E+00 0.  1.
         -5    1    3    3    0  504 -0.77869515067E+02 -0.75962424923E+02 -0.22143146313E+02  0.11111417689E+03  0.47000000000E+01 0.  1.
<mgrwt>
<rscale>  2 0.24230504E+03</rscale>
<asrwt>0</asrwt>
<pdfrwt beam="1">  1       21 0.28871258E+00 0.24261737E+03</pdfrwt>
<pdfrwt beam="2">  1       21 0.14649435E-01 0.24261737E+03</pdfrwt>
<totfact> 0.15334633E+03</totfact>
</mgrwt>
</event>
<event>
12    1  0.2736842E-001  0.2055151E+03  0.7546771E-02  0.1145383E+00
         21   -1    0    0  502  503  0.00000000000E+00  0.00000000000E+00  0.40931074537E+02  0.40931074537E+02  0.00000000000E+00 0.  1.
         21   -1    0    0  503  504 -0.00000000000E+00 -0.00000000000E+00 -0.10456108084E+04  0.10456108084E+04  0.00000000000E+00 0. -1.
         -6    2    1    2    0  504  0.70378983881E+01  0.10651371397E+03 -0.57687053612E+03  0.61238556773E+03  0.17561823606E+03 0.  0.
        -24    2    3    3    0    0 -0.36500200591E+02  0.84747810501E+02 -0.53159688074E+03  0.54574388041E+03  0.82016360360E+02 0.  0.
          6    2    1    2  502    0 -0.70378983881E+01 -0.10651371397E+03 -0.42780919775E+03  0.47415631522E+03  0.17438118678E+03 0.  0.
         24    2    5    5    0    0 -0.37980191557E+02 -0.67562829709E+02 -0.12614662766E+03  0.16838353506E+03  0.80204814698E+02 0.  0.
          4    1    6    6  501    0 -0.51776736910E+02 -0.62372135672E+02 -0.12994968360E+03  0.15316015821E+03  0.00000000000E+00 0. -1.
         -3    1    6    6    0  501  0.13796545354E+02 -0.51906940367E+01  0.38030559455E+01  0.15223376853E+02  0.00000000000E+00 0.  1.
          5    1    5    5  502    0  0.30942293169E+02 -0.38950884261E+02 -0.30166257009E+03  0.30577278016E+03  0.47000000000E+01 0. -1.
         11    1    4    4    0    0 -0.33989069355E+01  0.16043385302E+02 -0.32675421718E+03  0.32716549516E+03  0.00000000000E+00 0. -1.
        -12    1    4    4    0    0 -0.33101293655E+02  0.68704425199E+02 -0.20484266356E+03  0.21857838525E+03  0.00000000000E+00 0.  1.
         -5    1    3    3    0  504  0.43538098979E+02  0.21765903469E+02 -0.45273655382E+02  0.66641687315E+02  0.47000000000E+01 0.  1.
<mgrwt>
<rscale>  2 0.20525060E+03</rscale>
<asrwt>0</asrwt>
<pdfrwt beam="1">  1       21 0.62970897E-02 0.20551513E+03</pdfrwt>
<pdfrwt beam="2">  1       21 0.16086317E+00 0.20551513E+03</pdfrwt>
<totfact> 0.44680865E+04</totfact>
</mgrwt>
</event>
<event>
12    1  0.2736842E-001  0.3507191E+03  0.7546771E-02  0.1062410E+00
         21   -1    0    0  502  503  0.00000000000E+00  0.00000000000E+00  0.37455509296E+03  0.37455509296E+03  0.00000000000E+00 0. -1.
         21   -1    0    0  503  504 -0.00000000000E+00 -0.00000000000E+00 -0.34287196860E+03  0.34287196860E+03  0.00000000000E+00 0.  1.
         -6    2    1    2    0  504  0.28833847444E+03  0.97996756721E+02 -0.59898378350E+02  0.35579723183E+03  0.17395808196E+03 0.  0.
        -24    2    3    3    0    0  0.54796273632E+02  0.13852954415E+02  0.99225024461E+01  0.97884098356E+02  0.79298831682E+02 0.  0.
          6    2    1    2  502    0 -0.28833847444E+03 -0.97996756721E+02  0.91581502716E+02  0.36162982973E+03  0.17218165392E+03 0.  0.
         24    2    5    5    0    0 -0.17778820424E+03 -0.13151456072E+03  0.58912985108E+02  0.24148771610E+03  0.77076922392E+02 0.  0.
          2    1    6    6  501    0 -0.83914388089E+02 -0.10376958481E+03  0.52437631969E+02  0.14338569143E+03  0.00000000000E+00 0. -1.
         -1    1    6    6    0  501 -0.93873816149E+02 -0.27744975912E+02  0.64753531388E+01  0.98102024674E+02  0.00000000000E+00 0.  1.
          5    1    5    5  502    0 -0.11055027020E+03  0.33517803997E+02  0.32668517609E+02  0.12014211363E+03  0.47000000000E+01 0. -1.
         13    1    4    4    0    0  0.59381216102E+02 -0.22944346378E+01  0.34051977267E+02  0.68490367292E+02  0.00000000000E+00 0. -1.
        -14    1    4    4    0    0 -0.45849424696E+01  0.16147389053E+02 -0.24129474821E+02  0.29393731063E+02  0.00000000000E+00 0.  1.
         -5    1    3    3    0  504  0.23354220080E+03  0.84143802306E+02 -0.69820880796E+02  0.25791313347E+03  0.47000000000E+01 0.  1.
<mgrwt>
<rscale>  2 0.35049942E+03</rscale>
<asrwt>0</asrwt>
<pdfrwt beam="1">  1       21 0.57623861E-01 0.35071905E+03</pdfrwt>
<pdfrwt beam="2">  1       21 0.52749533E-01 0.35071905E+03</pdfrwt>
<totfact> 0.88586861E+03</totfact>
</mgrwt>
</event>
<event>
12    1  0.2736842E-001  0.2718793E+03  0.7546771E-02  0.1100421E+00
         21   -1    0    0  502  503  0.00000000000E+00  0.00000000000E+00  0.16855560048E+03  0.16855560048E+03  0.00000000000E+00 0. -1.
         21   -1    0    0  503  504 -0.00000000000E+00 -0.00000000000E+00 -0.73820147848E+03  0.73820147848E+03  0.00000000000E+00 0.  1.
         -6    2    1    2    0  504  0.14699942674E+03  0.14928540769E+03 -0.57530567499E+03  0.63631358731E+03  0.17327260979E+03 0.  0.
        -24    2    3    3    0    0  0.10304249090E+03  0.11318452640E+02 -0.29960584019E+03  0.32486602863E+03  0.70911316334E+02 0.  0.
          6    2    1    2  502    0 -0.14699942674E+03 -0.14928540769E+03  0.56597969976E+01  0.27044349165E+03  0.17091718598E+03 0.  0.
         24    2    5    5    0    0 -0.14035671124E+02 -0.89836629458E+02  0.16890654153E+02  0.12428693281E+03  0.83032086649E+02 0.  0.
          2    1    6    6  501    0  0.78734570484E+01  0.11096149871E+02 -0.10782908391E+02  0.17360500604E+02  0.00000000000E+00 0. -1.
         -1    1    6    6    0  501 -0.21909128172E+02 -0.10093277933E+03  0.27673562543E+02  0.10692643221E+03  0.00000000000E+00 0.  1.
          5    1    5    5  502    0 -0.13296375561E+03 -0.59448778231E+02 -0.11230857155E+02  0.14615655884E+03  0.47000000000E+01 0. -1.
         11    1    4    4    0    0  0.39195587022E+02 -0.23688607684E+02 -0.67212063167E+02  0.81332070004E+02  0.00000000000E+00 0. -1.
        -12    1    4    4    0    0  0.63846903874E+02  0.35007060324E+02 -0.23239377702E+03  0.24353395863E+03  0.00000000000E+00 0.  1.
         -5    1    3    3    0  504  0.43956935841E+02  0.13796695505E+03 -0.27569983481E+03  0.31144755868E+03  0.47000000000E+01 0.  1.
<mgrwt>
<rscale>  2 0.27150478E+03</rscale>
<asrwt>0</asrwt>
<pdfrwt beam="1">  1       21 0.25931631E-01 0.27187931E+03</pdfrwt>
<pdfrwt beam="2">  1       21 0.11356946E+00 0.27187931E+03</pdfrwt>
<totfact> 0.81142024E+03</totfact>
</mgrwt>
</event>
<event>
12    1  0.2736842E-001  0.2001278E+03  0.7546771E-02  0.1149779E+00
         21   -1    0    0  502  503  0.00000000000E+00  0.00000000000E+00  0.24983620346E+03  0.24983620346E+03  0.00000000000E+00 0. -1.
         21   -1    0    0  503  504 -0.00000000000E+00 -0.00000000000E+00 -0.56211275856E+03  0.56211275856E+03  0.00000000000E+00 0. -1.
         -6    2    1    2    0  504 -0.34276012840E+02  0.94745154296E+02 -0.49953612352E+03  0.53787366475E+03  0.17210534916E+03 0.  0.
        -24    2    3    3    0    0  0.63575729690E+01 -0.14299004238E+02 -0.24580641205E+03  0.25869169310E+03  0.79093107299E+02 0.  0.
          6    2    1    2  502    0  0.34276012840E+02 -0.94745154296E+02  0.18725956842E+03  0.27407529727E+03  0.17291510428E+03 0.  0.
         24    2    5    5    0    0  0.43792042019E+01 -0.98778949680E+02  0.56840100410E+02  0.14012971762E+03  0.81419177195E+02 0.  0.
          2    1    6    6  501    0  0.25906237817E+02 -0.19309734471E+02 -0.10277035909E+02  0.33905994606E+02  0.00000000000E+00 0. -1.
         -1    1    6    6    0  501 -0.21527033615E+02 -0.79469215209E+02  0.67117136320E+02  0.10622372301E+03  0.00000000000E+00 0.  1.
          5    1    5    5  502    0  0.29896808638E+02  0.40337953848E+01  0.13041946801E+03  0.13394557965E+03  0.47000000000E+01 0. -1.
         11    1    4    4    0    0  0.49460716574E+01  0.31777169561E+02 -0.13293471457E+03  0.13676947930E+03  0.00000000000E+00 0. -1.
        -12    1    4    4    0    0  0.14115013115E+01 -0.46076173799E+02 -0.11287169747E+03  0.12192221380E+03  0.00000000000E+00 0.  1.
         -5    1    3    3    0  504 -0.40633585809E+02  0.10904415853E+03 -0.25372971148E+03  0.27918197165E+03  0.47000000000E+01 0.  1.
<mgrwt>
<rscale>  2 0.19995273E+03</rscale>
<asrwt>0</asrwt>
<pdfrwt beam="1">  1       21 0.38436339E-01 0.20012777E+03</pdfrwt>
<pdfrwt beam="2">  1       21 0.86478886E-01 0.20012777E+03</pdfrwt>
<totfact> 0.74770648E+03</totfact>
</mgrwt>
</event>
<event>
12    1  0.2736842E-001  0.1852197E+03  0.7546771E-02  0.1163234E+00
         21   -1    0    0  502  503  0.00000000000E+00  0.00000000000E+00  0.18165059555E+03  0.18165059555E+03  0.00000000000E+00 0.  1.
         21   -1    0    0  503  504 -0.00000000000E+00 -0.00000000000E+00 -0.20583979290E+03  0.20583979290E+03  0.00000000000E+00 0.  1.
         -6    2    1    2    0  504 -0.61139167703E+02 -0.18444925598E+02  0.46308315067E+02  0.18930808464E+03  0.17208973751E+03 0.  0.
        -24    2    3    3    0    0  0.31751384077E+02  0.65929680871E+01  0.13110210255E+02  0.87427002524E+02  0.80124812251E+02 0.  0.
          6    2    1    2  502    0  0.61139167703E+02  0.18444925598E+02 -0.70497512423E+02  0.19818230381E+03  0.17386233974E+03 0.  0.
         24    2    5    5    0    0  0.10248025288E+03  0.31323507705E+02 -0.72622518874E+02  0.15457555143E+03  0.84476070491E+02 0.  0.
          2    1    6    6  501    0  0.35179609005E+02  0.51952422670E+02 -0.17408265995E+02  0.65113031230E+02  0.00000000000E+00 0. -1.
         -1    1    6    6    0  501  0.67300643880E+02 -0.20628914965E+02 -0.55214252880E+02  0.89462520199E+02  0.00000000000E+00 0.  1.
          5    1    5    5  502    0 -0.41341085182E+02 -0.12878582108E+02  0.21250064519E+01  0.43606752385E+02  0.47000000000E+01 0. -1.
         11    1    4    4    0    0  0.26050128740E+02 -0.27526876615E+02 -0.17026393146E+02  0.41547998834E+02  0.00000000000E+00 0. -1.
        -12    1    4    4    0    0  0.57012553367E+01  0.34119844703E+02  0.30136603401E+02  0.45879003689E+02  0.00000000000E+00 0.  1.
         -5    1    3    3    0  504 -0.92890551779E+02 -0.25037893685E+02  0.33198104812E+02  0.10188108212E+03  0.47000000000E+01 0.  1.
<mgrwt>
<rscale>  2 0.18480254E+03</rscale>
<asrwt>0</asrwt>
<pdfrwt beam="1">  1       21 0.27946246E-01 0.18521967E+03</pdfrwt>
<pdfrwt beam="2">  1       21 0.31667660E-01 0.18521967E+03</pdfrwt>
<totfact> 0.11754155E+05</totfact>
</mgrwt>
</event>
<event>
12    1  0.2736842E-001  0.2137634E+03  0.7546771E-02  0.1138815E+00
         21   -1    0    0  502  503  0.00000000000E+00  0.00000000000E+00  0.12721979913E+03  0.12721979913E+03  0.00000000000E+00 0.  1.
         21   -1    0    0  503  504 -0.00000000000E+00 -0.00000000000E+00 -0.72444040125E+03  0.72444040125E+03  0.00000000000E+00 0.  1.
         -6    2    1    2    0  504 -0.12026222889E+03  0.34988652931E+02 -0.60132829220E+03  0.63785730706E+03  0.17198552161E+03 0.  0.
        -24    2    3    3    0    0 -0.47569709861E+02  0.15963870956E+01 -0.49867115381E+03  0.50762741878E+03  0.82141651451E+02 0.  0.
          6    2    1    2  502    0  0.12026222889E+03 -0.34988652931E+02  0.41076900698E+01  0.21380289332E+03  0.17322700293E+03 0.  0.
         24    2    5    5    0    0  0.84204534844E+02 -0.90072146212E+02  0.86889782853E+01  0.14764076871E+03  0.80739723983E+02 0.  0.
          2    1    6    6  501    0  0.47667437288E+01 -0.63389120969E+02  0.48694556793E+01  0.63754326140E+02  0.00000000000E+00 0. -1.
         -1    1    6    6    0  501  0.79437791115E+02 -0.26683025243E+02  0.38195226060E+01  0.83886442566E+02  0.00000000000E+00 0.  1.
          5    1    5    5  502    0  0.36057694048E+02  0.55083493282E+02 -0.45812882155E+01  0.66162124617E+02  0.47000000000E+01 0. -1.
         11    1    4    4    0    0 -0.54908834014E+02  0.12399457114E+02 -0.17796568087E+03  0.18665612810E+03  0.00000000000E+00 0. -1.
        -12    1    4    4    0    0  0.73391241528E+01 -0.10803070019E+02 -0.32070547294E+03  0.32097129067E+03  0.00000000000E+00 0.  1.
         -5    1    3    3    0  504 -0.72692519031E+02  0.33392265835E+02 -0.10265713839E+03  0.13022988828E+03  0.47000000000E+01 0.  1.
<mgrwt>
<rscale>  2 0.21351178E+03</rscale>
<asrwt>0</asrwt>
<pdfrwt beam="1">  1       21 0.19572277E-01 0.21376343E+03</pdfrwt>
<pdfrwt beam="2">  1       21 0.11145237E+00 0.21376343E+03</pdfrwt>
<totfact> 0.14997306E+04</totfact>
</mgrwt>
</event>
<event>
12    1  0.2736842E-001  0.2319192E+03  0.7546771E-02  0.1125592E+00
         21   -1    0    0  502  503  0.00000000000E+00  0.00000000000E+00  0.37299142597E+03  0.37299142597E+03  0.00000000000E+00 0.  1.
         21   -1    0    0  503  504 -0.00000000000E+00 -0.00000000000E+00 -0.16221521663E+03  0.16221521663E+03  0.00000000000E+00 0. -1.
         -6    2    1    2    0  504  0.61486020544E+02 -0.13853755413E+03  0.13315502498E+02  0.23061307583E+03  0.17329715378E+03 0.  0.
        -24    2    3    3    0    0 -0.32709145177E+02 -0.54803190414E+02 -0.60078005422E+01  0.10302133255E+03  0.80647525908E+02 0.  0.
          6    2    1    2  502    0 -0.61486020544E+02  0.13853755413E+03  0.19746070684E+03  0.30459356677E+03  0.17553724831E+03 0.  0.
         24    2    5    5    0    0  0.16034839174E+02  0.10291754956E+03  0.15898353789E+03  0.21088737195E+03  0.91370565574E+02 0.  0.
          2    1    6    6  501    0 -0.56402954358E+01  0.10277669452E+03  0.84069344786E+02  0.13290040106E+03  0.00000000000E+00 0. -1.
         -1    1    6    6    0  501  0.21675134610E+02  0.14085504039E+00  0.74914193103E+02  0.77986970891E+02  0.00000000000E+00 0.  1.
          5    1    5    5  502    0 -0.77520859718E+02  0.35620004578E+02  0.38477168953E+02  0.93706194823E+02  0.47000000000E+01 0. -1.
         11    1    4    4    0    0 -0.84758066188E+01  0.19056038535E+02 -0.13630866538E+02  0.24915305037E+02  0.00000000000E+00 0. -1.
        -12    1    4    4    0    0 -0.24233338558E+02 -0.73859228949E+02  0.76230659955E+01  0.78106027513E+02  0.00000000000E+00 0.  1.
         -5    1    3    3    0  504  0.94195165720E+02 -0.83734363720E+02  0.19323303040E+02  0.12759174328E+03  0.47000000000E+01 0.  1.
<mgrwt>
<rscale>  2 0.23149532E+03</rscale>
<asrwt>0</asrwt>
<pdfrwt beam="1">  1       21 0.57383296E-01 0.23191919E+03</pdfrwt>
<pdfrwt beam="2">  1       21 0.24956187E-01 0.23191919E+03</pdfrwt>
<totfact> 0.42508238E+04</totfact>
</mgrwt>
</event>
<event>
12    1  0.2736842E-001  0.3119636E+03  0.7546771E-02  0.1079529E+00
         21   -1    0    0  502  503  0.00000000000E+00  0.00000000000E+00  0.34793853248E+03  0.34793853248E+03  0.00000000000E+00 0. -1.
         21   -1    0    0  503  504 -0.00000000000E+00 -0.00000000000E+00 -0.44439152048E+03  0.44439152048E+03  0.00000000000E+00 0.  1.
         -6    2    1    2    0  504 -0.23758273526E+03 -0.10461240177E+03 -0.29010601094E+03  0.42600793995E+03  0.17300854493E+03 0.  0.
        -24    2    3    3    0    0 -0.10012695243E+03 -0.74829893001E+02 -0.64109711662E+02  0.15977964065E+03  0.76122000412E+02 0.  0.
          6    2    1    2  502    0  0.23758273526E+03  0.10461240177E+03  0.19365302294E+03  0.36632211301E+03  0.17117560132E+03 0.  0.
         24    2    5    5    0    0  0.48832409833E+02  0.24097019136E+02  0.23213024083E+02  0.99523883255E+02  0.80005551493E+02 0.  0.
          4    1    6    6  501    0  0.29728257045E+02 -0.26597756071E+02  0.21515131902E+02  0.45322299100E+02  0.00000000000E+00 0. -1.
         -3    1    6    6    0  501  0.19104152788E+02  0.50694775208E+02  0.16978921813E+01  0.54201584155E+02  0.00000000000E+00 0.  1.
          5    1    5    5  502    0  0.18875032543E+03  0.80515382630E+02  0.17043999886E+03  0.26679822975E+03  0.47000000000E+01 0. -1.
         13    1    4    4    0    0 -0.53813732284E+02 -0.67025560132E+01  0.18301172758E+01  0.54260403322E+02  0.00000000000E+00 0. -1.
        -14    1    4    4    0    0 -0.46313220144E+02 -0.68127336988E+02 -0.65939828938E+02  0.10551923732E+03  0.00000000000E+00 0.  1.
         -5    1    3    3    0  504 -0.13745578283E+03 -0.29782508765E+02 -0.22599629928E+03  0.26622829930E+03  0.47000000000E+01 0.  1.
<mgrwt>
<rscale>  2 0.31171007E+03</rscale>
<asrwt>0</asrwt>
<pdfrwt beam="1">  1       21 0.53529006E-01 0.31196357E+03</pdfrwt>
<pdfrwt beam="2">  1       21 0.68367925E-01 0.31196357E+03</pdfrwt>
<totfact> 0.60003185E+03</totfact>
</mgrwt>
</event>
<event>
12    1  0.2736842E-001  0.1793179E+03  0.7546771E-02  0.1168586E+00
         21   -1    0    0  502  503  0.00000000000E+00  0.00000000000E+00  0.17278593241E+03  0.17278593241E+03  0.00000000000E+00 0.  1.
         21   -1    0    0  503  504 -0.00000000000E+00 -0.00000000000E+00 -0.24683395717E+03  0.24683395717E+03  0.00000000000E+00 0.  1.
         -6    2    1    2    0  504  0.39212852684E+02 -0.34504952755E+02 -0.14158185798E+03  0.22847393527E+03  0.17154205610E+03 0.  0.
        -24    2    3    3    0    0 -0.29218779596E+01  0.13195804306E+02 -0.14283496446E+03  0.16464323712E+03  0.80764483752E+02 0.  0.
          6    2    1    2  502    0 -0.39212852684E+02  0.34504952755E+02  0.67533833224E+02  0.19114595431E+03  0.17101964109E+03 0.  0.
         24    2    5    5    0    0 -0.39679373285E+02  0.70962842806E+02  0.92088466187E+02  0.14693718381E+03  0.80623028095E+02 0.  0.
          2    1    6    6  501    0 -0.53733652497E+02  0.29227262286E+02  0.81041164118E+02  0.10153427280E+03  0.00000000000E+00 0. -1.
         -1    1    6    6    0  501  0.14054279213E+02  0.41735580520E+02  0.11047302069E+02  0.45402911014E+02  0.00000000000E+00 0.  1.
          5    1    5    5  502    0  0.46652060046E+00 -0.36457890051E+02 -0.24554632963E+02  0.44208770491E+02  0.47000000000E+01 0. -1.
         11    1    4    4    0    0 -0.36567558218E+01  0.24128324933E+02 -0.32389472070E+01  0.24617853404E+02  0.00000000000E+00 0. -1.
        -12    1    4    4    0    0  0.73487786227E+00 -0.10932520627E+02 -0.13959601725E+03  0.14002538372E+03  0.00000000000E+00 0.  1.
         -5    1    3    3    0  504  0.42134730644E+02 -0.47700757061E+02  0.12531064818E+01  0.63830698151E+02  0.47000000000E+01 0.  1.
<mgrwt>
<rscale>  2 0.17919287E+03</rscale>
<asrwt>0</asrwt>
<pdfrwt beam="1">  1       21 0.26582451E-01 0.17931792E+03</pdfrwt>
<pdfrwt beam="2">  1       21 0.37974455E-01 0.17931792E+03</pdfrwt>
<totfact> 0.90530607E+04</totfact>
</mgrwt>
</event>
<event>
12    1  0.2736842E-001  0.1802139E+03  0.7546771E-02  0.1168114E+00
         21   -1    0    0  502  503  0.00000000000E+00  0.00000000000E+00  0.52396413645E+03  0.52396413645E+03  0.00000000000E+00 0. -1.
         21   -1    0    0  503  504 -0.00000000000E+00 -0.00000000000E+00 -0.92840304009E+02  0.92840304009E+02  0.00000000000E+00 0. -1.
         -6    2    1    2    0  504  0.40524768073E+02 -0.21825187682E+02  0.34830682949E+02  0.18145939550E+03  0.17203412480E+03 0.  0.
        -24    2    3    3    0    0  0.71375789795E+02  0.22369679040E+02  0.56690038495E+02  0.12310793270E+03  0.79667413161E+02 0.  0.
          6    2    1    2  502    0 -0.40524768073E+02  0.21825187682E+02  0.39629314949E+03  0.43534504496E+03  0.17423677049E+03 0.  0.
         24    2    5    5    0    0  0.17503234031E+02 -0.16539588449E+02  0.32429161897E+03  0.33511822483E+03  0.80989192436E+02 0.  0.
          4    1    6    6  501    0  0.75556068173E+01  0.71702689193E+00  0.31117795404E+03  0.31127049395E+03  0.00000000000E+00 0. -1.
         -3    1    6    6    0  501  0.99476272140E+01 -0.17256615341E+02  0.13113664923E+02  0.23847730876E+02  0.00000000000E+00 0.  1.
          5    1    5    5  502    0 -0.58028002104E+02  0.38364776131E+02  0.72001530521E+02  0.10022682013E+03  0.47000000000E+01 0. -1.
         13    1    4    4    0    0  0.25026651528E+02  0.61757891760E+01 -0.19601634388E+02  0.32383602785E+02  0.00000000000E+00 0. -1.
        -14    1    4    4    0    0  0.46349138267E+02  0.16193889864E+02  0.76291672884E+02  0.90724329914E+02  0.00000000000E+00 0.  1.
         -5    1    3    3    0  504 -0.30851021722E+02 -0.44194866722E+02 -0.21859355546E+02  0.58351462799E+02  0.47000000000E+01 0.  1.
<mgrwt>
<rscale>  2 0.17967935E+03</rscale>
<asrwt>0</asrwt>
<pdfrwt beam="1">  1       21 0.80609865E-01 0.18021389E+03</pdfrwt>
<pdfrwt beam="2">  1       21 0.14283124E-01 0.18021389E+03</pdfrwt>
<totfact> 0.58305963E+04</totfact>
</mgrwt>
</event>
<event>
12    1  0.2736842E-001  0.1879566E+03  0.7546771E-02  0.1160448E+00
         21   -1    0    0  502  503  0.00000000000E+00  0.00000000000E+00  0.32410813730E+03  0.32410813730E+03  0.00000000000E+00 0. -1.
         21   -1    0    0  503  504 -0.00000000000E+00 -0.00000000000E+00 -0.19438921849E+03  0.19438921849E+03  0.00000000000E+00 0. -1.
         -6    2    1    2    0  504  0.88019270225E+01  0.69719175060E+02 -0.10735133096E+03  0.21595813139E+03  0.17371058967E+03 0.  0.
        -24    2    3    3    0    0 -0.85202949196E+01 -0.20351453697E+02 -0.90276584168E+02  0.12254285151E+03  0.79875601491E+02 0.  0.
          6    2    1    2  502    0 -0.88019270225E+01 -0.69719175060E+02  0.23707024977E+03  0.30253922441E+03  0.17432567708E+03 0.  0.
         24    2    5    5    0    0  0.56275829971E+02 -0.12318238786E+02  0.14839441791E+03  0.17838015267E+03  0.80497624513E+02 0.  0.
          4    1    6    6  501    0  0.23317361602E+02 -0.30601090345E+02  0.13161730931E+03  0.13712491456E+03  0.00000000000E+00 0. -1.
         -3    1    6    6    0  501  0.32958468369E+02  0.18282851559E+02  0.16777108601E+02  0.41255238108E+02  0.00000000000E+00 0.  1.
          5    1    5    5  502    0 -0.65077756993E+02 -0.57400936274E+02  0.88675831856E+02  0.12415907174E+03  0.47000000000E+01 0. -1.
         13    1    4    4    0    0 -0.21642924615E+02  0.85627967651E+01 -0.87643146723E+02  0.90681083154E+02  0.00000000000E+00 0. -1.
        -14    1    4    4    0    0  0.13122629696E+02 -0.28914250462E+02 -0.26334374448E+01  0.31861768354E+02  0.00000000000E+00 0.  1.
         -5    1    3    3    0  504  0.17322221942E+02  0.90070628757E+02 -0.17074746790E+02  0.93415279883E+02  0.47000000000E+01 0.  1.
<mgrwt>
<rscale>  2 0.18781384E+03</rscale>
<asrwt>0</asrwt>
<pdfrwt beam="1">  1       21 0.49862790E-01 0.18795659E+03</pdfrwt>
<pdfrwt beam="2">  1       21 0.29906034E-01 0.18795659E+03</pdfrwt>
<totfact> 0.41184093E+04</totfact>
</mgrwt>
</event>
<event>
12    1  0.2736842E-001  0.2235609E+03  0.7546771E-02  0.1131872E+00
         21   -1    0    0  502  503  0.00000000000E+00  0.00000000000E+00  0.71337825164E+03  0.71337825164E+03  0.00000000000E+00 0.  1.
         21   -1    0    0  503  504 -0.00000000000E+00 -0.00000000000E+00 -0.76207136879E+02  0.76207136879E+02  0.00000000000E+00 0.  1.
         -6    2    1    2    0  504  0.12390559668E+03 -0.51495948343E+02  0.19513172630E+03  0.29422866064E+03  0.17461295642E+03 0.  0.
        -24    2    3    3    0    0 -0.12121205567E+02 -0.15091413856E+02  0.32928001332E+02  0.79378202286E+02  0.69584275018E+02 0.  0.
          6    2    1    2  502    0 -0.12390559668E+03  0.51495948343E+02  0.44203938846E+03  0.49535672788E+03  0.17881565178E+03 0.  0.
         24    2    5    5    0    0 -0.50066046571E+02  0.10298068972E+03  0.27413468642E+03  0.30478643449E+03  0.68068442596E+02 0.  0.
          2    1    6    6  501    0  0.40008959565E+01  0.56606100411E+02  0.80710447297E+02  0.98663235681E+02  0.00000000000E+00 0. -1.
         -1    1    6    6    0  501 -0.54066942528E+02  0.46374589309E+02  0.19342423913E+03  0.20612319881E+03  0.00000000000E+00 0.  1.
          5    1    5    5  502    0 -0.73839550110E+02 -0.51484741377E+02  0.16790470204E+03  0.19057029339E+03  0.47000000000E+01 0. -1.
         11    1    4    4    0    0  0.10937793617E+02 -0.14411687037E+02 -0.16718264002E+02  0.24633968493E+02  0.00000000000E+00 0. -1.
        -12    1    4    4    0    0 -0.23058999185E+02 -0.67972681942E+00  0.49646265334E+02  0.54744233793E+02  0.00000000000E+00 0.  1.
         -5    1    3    3    0  504  0.13602680225E+03 -0.36404534487E+02  0.16220372497E+03  0.21485045836E+03  0.47000000000E+01 0.  1.
<mgrwt>
<rscale>  2 0.22271937E+03</rscale>
<asrwt>0</asrwt>
<pdfrwt beam="1">  1       21 0.10975050E+00 0.22356088E+03</pdfrwt>
<pdfrwt beam="2">  1       21 0.11724175E-01 0.22356088E+03</pdfrwt>
<totfact> 0.39520445E+04</totfact>
</mgrwt>
</event>
<event>
12    1  0.2736842E-001  0.2033043E+03  0.7546771E-02  0.1147079E+00
         21   -1    0    0  502  503  0.00000000000E+00  0.00000000000E+00  0.11317680437E+03  0.11317680437E+03  0.00000000000E+00 0. -1.
         21   -1    0    0  503  504 -0.00000000000E+00 -0.00000000000E+00 -0.40950466853E+03  0.40950466853E+03  0.00000000000E+00 0.  1.
         -6    2    1    2    0  504 -0.50142129171E+02  0.87604655959E+02 -0.61224593618E+02  0.21186611563E+03  0.17592609592E+03 0.  0.
        -24    2    3    3    0    0  0.79980017731E+01 -0.11205079529E+02 -0.18864839262E+01  0.82688950793E+02  0.81513078227E+02 0.  0.
          6    2    1    2  502    0  0.50142129171E+02 -0.87604655959E+02 -0.23510327054E+03  0.31081535727E+03  0.17647614466E+03 0.  0.
         24    2    5    5    0    0 -0.67742171563E+01  0.13625268830E+02 -0.12522106193E+03  0.15086799743E+03  0.82760499805E+02 0.  0.
          2    1    6    6  501    0 -0.26091416909E+02  0.39187341989E+02 -0.98404279773E+02  0.10908625984E+03  0.00000000000E+00 0. -1.
         -1    1    6    6    0  501  0.19317199753E+02 -0.25562073159E+02 -0.26816782159E+02  0.41781737588E+02  0.00000000000E+00 0.  1.
          5    1    5    5  502    0  0.56916346328E+02 -0.10122992479E+03 -0.10988220861E+03  0.15994735984E+03  0.47000000000E+01 0. -1.
         13    1    4    4    0    0  0.42461557365E+02 -0.19837106941E+02 -0.43947934889E+01  0.47072379114E+02  0.00000000000E+00 0. -1.
        -14    1    4    4    0    0 -0.34463555592E+02  0.86320274115E+01  0.25083095627E+01  0.35616571679E+02  0.00000000000E+00 0.  1.
         -5    1    3    3    0  504 -0.58140130945E+02  0.98809735488E+02 -0.59338109692E+02  0.12917716484E+03  0.47000000000E+01 0.  1.
<mgrwt>
<rscale>  2 0.20318488E+03</rscale>
<asrwt>0</asrwt>
<pdfrwt beam="1">  1       21 0.17411816E-01 0.20330430E+03</pdfrwt>
<pdfrwt beam="2">  1       21 0.63000717E-01 0.20330430E+03</pdfrwt>
<totfact> 0.69291102E+04</totfact>
</mgrwt>
</event>
<event>
12    1  0.2736842E-001  0.2677900E+03  0.7546771E-02  0.1102594E+00
         21   -1    0    0  502  503  0.00000000000E+00  0.00000000000E+00  0.30181230093E+03  0.30181230093E+03  0.00000000000E+00 0.  1.
         21   -1    0    0  503  504 -0.00000000000E+00 -0.00000000000E+00 -0.27627265720E+03  0.27627265720E+03  0.00000000000E+00 0. -1.
         -6    2    1    2    0  504  0.73187919958E+02 -0.19050976108E+03 -0.95736910940E+02  0.28411300084E+03  0.17292831010E+03 0.  0.
        -24    2    3    3    0    0  0.38278526603E+02 -0.28355683150E+02 -0.69068769702E+02  0.11604786320E+03  0.80170575888E+02 0.  0.
          6    2    1    2  502    0 -0.73187919958E+02  0.19050976108E+03  0.12127655467E+03  0.29397195730E+03  0.17338128005E+03 0.  0.
         24    2    5    5    0    0 -0.44485064206E+02  0.40269592926E+02  0.94958497254E+02  0.13869577690E+03  0.81356261443E+02 0.  0.
          2    1    6    6  501    0  0.22662232947E+02  0.40730777290E+01  0.33931496416E+02  0.41006258222E+02  0.00000000000E+00 0. -1.
         -1    1    6    6    0  501 -0.67147297153E+02  0.36196515197E+02  0.61027000838E+02  0.97689518673E+02  0.00000000000E+00 0.  1.
          5    1    5    5  502    0 -0.28702855752E+02  0.15024016815E+03  0.26318057417E+02  0.15527618041E+03  0.47000000000E+01 0. -1.
         13    1    4    4    0    0 -0.73724511526E+01 -0.43394095805E+02 -0.23878857623E+02  0.50075946602E+02  0.00000000000E+00 0. -1.
        -14    1    4    4    0    0  0.45650977755E+02  0.15038412656E+02 -0.45189912079E+02  0.65971916593E+02  0.00000000000E+00 0.  1.
         -5    1    3    3    0  504  0.34909393355E+02 -0.16215407793E+03 -0.26668141238E+02  0.16806513764E+03  0.47000000000E+01 0.  1.
<mgrwt>
<rscale>  2 0.26771675E+03</rscale>
<asrwt>0</asrwt>
<pdfrwt beam="1">  1       21 0.46432662E-01 0.26779005E+03</pdfrwt>
<pdfrwt beam="2">  1       21 0.42503486E-01 0.26779005E+03</pdfrwt>
<totfact> 0.22767955E+04</totfact>
</mgrwt>
</event>
<event>
12    1  0.2736842E-001  0.1924666E+03  0.7546771E-02  0.1156324E+00
         21   -1    0    0  502  503  0.00000000000E+00  0.00000000000E+00  0.21898116429E+03  0.21898116429E+03  0.00000000000E+00 0.  1.
         21   -1    0    0  503  504 -0.00000000000E+00 -0.00000000000E+00 -0.75583744586E+03  0.75583744586E+03  0.00000000000E+00 0.  1.
         -6    2    1    2    0  504  0.53433308130E+02 -0.64049963797E+02 -0.69789568041E+03  0.72386626969E+03  0.17310828802E+03 0.  0.
        -24    2    3    3    0    0 -0.20943611163E+02 -0.37555082223E+01 -0.19934520351E+03  0.21618328247E+03  0.80894763531E+02 0.  0.
          6    2    1    2  502    0 -0.53433308130E+02  0.64049963797E+02  0.16103939884E+03  0.25095234046E+03  0.17345279740E+03 0.  0.
         24    2    5    5    0    0 -0.70325631176E+02  0.90519955769E+01  0.34319896829E+02  0.11170418329E+03  0.79198082186E+02 0.  0.
          2    1    6    6  501    0 -0.15575302387E+02 -0.19376013115E+02 -0.18099033231E+02  0.30750527355E+02  0.00000000000E+00 0. -1.
         -1    1    6    6    0  501 -0.54750328789E+02  0.28428008692E+02  0.52418930060E+02  0.80953655936E+02  0.00000000000E+00 0.  1.
          5    1    5    5  502    0  0.16892323047E+02  0.54997968220E+02  0.12671950201E+03  0.13924815717E+03  0.47000000000E+01 0. -1.
         13    1    4    4    0    0  0.30259490961E+02  0.72896002208E+01 -0.68334404009E+02  0.75089052703E+02  0.00000000000E+00 0. -1.
        -14    1    4    4    0    0 -0.51203102124E+02 -0.11045108443E+02 -0.13101079950E+03  0.14109422977E+03  0.00000000000E+00 0.  1.
         -5    1    3    3    0  504  0.74376919293E+02 -0.60294455575E+02 -0.49855047689E+03  0.50768298721E+03  0.47000000000E+01 0.  1.
<mgrwt>
<rscale>  2 0.19238894E+03</rscale>
<asrwt>0</asrwt>
<pdfrwt beam="1">  1       21 0.33689410E-01 0.19246659E+03</pdfrwt>
<pdfrwt beam="2">  1       21 0.11628268E+00 0.19246659E+03</pdfrwt>
<totfact> 0.48438037E+03</totfact>
</mgrwt>
</event>
<event>
12    1  0.2736842E-001  0.1864908E+03  0.7546771E-02  0.1163938E+00
         21   -1    0    0  502  503  0.00000000000E+00  0.00000000000E+00  0.16032735889E+03  0.16032735889E+03  0.00000000000E+00 0. -1.
         21   -1    0    0  503  504 -0.00000000000E+00 -0.00000000000E+00 -0.20816191144E+03  0.20816191144E+03  0.00000000000E+00 0. -1.
         -6    2    1    2    0  504  0.10585776862E+02  0.51818357548E+02 -0.55044836181E+01  0.18657200896E+03  0.17883404133E+03 0.  0.
        -24    2    3    3    0    0 -0.48230088560E+02  0.74738160799E+02  0.94840817657E+01  0.12152302358E+03  0.82255475999E+02 0.  0.
          6    2    1    2  502    0 -0.10585776862E+02 -0.51818357548E+02 -0.42330068932E+02  0.18191726137E+03  0.16883380704E+03 0.  0.
         24    2    5    5    0    0 -0.38055282124E+02 -0.90444472676E+02 -0.21211400145E+02  0.12981506698E+03  0.82302010812E+02 0.  0.
          2    1    6    6  501    0 -0.53933968765E+02 -0.81406625156E+02 -0.38208411826E+02  0.10486083320E+03  0.00000000000E+00 0. -1.
         -1    1    6    6    0  501  0.15878686641E+02 -0.90378475200E+01  0.16997011681E+02  0.24954233776E+02  0.00000000000E+00 0.  1.
          5    1    5    5  502    0  0.27469505261E+02  0.38626115128E+02 -0.21118668787E+02  0.52102194392E+02  0.47000000000E+01 0. -1.
         13    1    4    4    0    0  0.10193881669E+02  0.40553408086E+02  0.29221929416E+02  0.51013873502E+02  0.00000000000E+00 0. -1.
        -14    1    4    4    0    0 -0.58423970229E+02  0.34184752712E+02 -0.19737847650E+02  0.70509150081E+02  0.00000000000E+00 0.  1.
         -5    1    3    3    0  504  0.58815865422E+02 -0.22919803250E+02 -0.14988565384E+02  0.65048985378E+02  0.47000000000E+01 0.  1.
<mgrwt>
<rscale>  2 0.18405162E+03</rscale>
<asrwt>0</asrwt>
<pdfrwt beam="1">  1       21 0.24665747E-01 0.18649079E+03</pdfrwt>
<pdfrwt beam="2">  1       21 0.32024910E-01 0.18649079E+03</pdfrwt>
<totfact> 0.14603152E+05</totfact>
</mgrwt>
</event>
<event>
12    1  0.2736842E-001  0.2085717E+03  0.7546771E-02  0.1142954E+00
         21   -1    0    0  502  503  0.00000000000E+00  0.00000000000E+00  0.99289744310E+02  0.99289744310E+02  0.00000000000E+00 0.  1.
         21   -1    0    0  503  504 -0.00000000000E+00 -0.00000000000E+00 -0.73928830506E+03  0.73928830506E+03  0.00000000000E+00 0.  1.
         -6    2    1    2    0  504  0.73320360152E+02  0.94017337111E+02 -0.58820737679E+03  0.62367226570E+03  0.16959965215E+03 0.  0.
        -24    2    3    3    0    0 -0.19387126210E+02  0.74330449224E+02 -0.36147124989E+03  0.37788045781E+03  0.78938580933E+02 0.  0.
          6    2    1    2  502    0 -0.73320360152E+02 -0.94017337111E+02 -0.51791183966E+02  0.21490578367E+03  0.17113455007E+03 0.  0.
         24    2    5    5    0    0 -0.96181806475E+02 -0.11615285257E+03 -0.61661051501E+02  0.18125862840E+03  0.79436641679E+02 0.  0.
          2    1    6    6  501    0 -0.64023396860E+02 -0.66651809732E+02 -0.76972226430E+02  0.12027544524E+03  0.00000000000E+00 0. -1.
         -1    1    6    6    0  501 -0.32158409615E+02 -0.49501042836E+02  0.15311174929E+02  0.60983183162E+02  0.00000000000E+00 0.  1.
          5    1    5    5  502    0  0.22861446323E+02  0.22135515457E+02  0.98698675356E+01  0.33647155269E+02  0.47000000000E+01 0. -1.
         11    1    4    4    0    0 -0.11308868855E+02  0.15116423634E+02 -0.99978821465E+01  0.21362453643E+02  0.00000000000E+00 0. -1.
        -12    1    4    4    0    0 -0.80782573555E+01  0.59214025591E+02 -0.35147336774E+03  0.35651800417E+03  0.00000000000E+00 0.  1.
         -5    1    3    3    0  504  0.92707486362E+02  0.19686887887E+02 -0.22673612690E+03  0.24579180789E+03  0.47000000000E+01 0.  1.
<mgrwt>
<rscale>  2 0.20825664E+03</rscale>
<asrwt>0</asrwt>
<pdfrwt beam="1">  1       21 0.15275345E-01 0.20857174E+03</pdfrwt>
<pdfrwt beam="2">  1       21 0.11373666E+00 0.20857174E+03</pdfrwt>
<totfact> 0.22633113E+04</totfact>
</mgrwt>
</event>
<event>
12    1  0.2736842E-001  0.1800184E+03  0.7546771E-02  0.1167912E+00
         21   -1    0    0  502  503  0.00000000000E+00  0.00000000000E+00  0.68953722245E+03  0.68953722245E+03  0.00000000000E+00 0. -1.
         21   -1    0    0  503  504 -0.00000000000E+00 -0.00000000000E+00 -0.51840450598E+02  0.51840450598E+02  0.00000000000E+00 0. -1.
         -6    2    1    2    0  504 -0.47553004294E+02  0.51810884608E+01  0.43331668183E+03  0.46902158721E+03  0.17300222721E+03 0.  0.
        -24    2    3    3    0    0  0.31544033176E+02 -0.27707255582E+02  0.26240034981E+03  0.27778229454E+03  0.80909465063E+02 0.  0.
          6    2    1    2  502    0  0.47553004294E+02 -0.51810884608E+01  0.20438009002E+03  0.27235608584E+03  0.17354677871E+03 0.  0.
         24    2    5    5    0    0 -0.25115165279E+02 -0.18314412935E+02  0.17050556985E+03  0.19097598878E+03  0.80209037461E+02 0.  0.
          4    1    6    6  501    0 -0.16315370827E+02 -0.49261798055E+02  0.84654370558E+02  0.99293899750E+02  0.00000000000E+00 0. -1.
         -3    1    6    6    0  501 -0.87997944525E+01  0.30947385120E+02  0.85851199295E+02  0.91682089028E+02  0.00000000000E+00 0.  1.
          5    1    5    5  502    0  0.72668169573E+02  0.13133324474E+02  0.33874520167E+02  0.81380097059E+02  0.47000000000E+01 0. -1.
         13    1    4    4    0    0 -0.21495279821E+02 -0.30053852164E+02  0.86953611830E+02  0.94478630889E+02  0.00000000000E+00 0. -1.
        -14    1    4    4    0    0  0.53039312997E+02  0.23465965818E+01  0.17544673798E+03  0.18330366365E+03  0.00000000000E+00 0.  1.
         -5    1    3    3    0  504 -0.79097037470E+02  0.32888344043E+02  0.17091633202E+03  0.19123929267E+03  0.47000000000E+01 0.  1.
<mgrwt>
<rscale>  2 0.17988700E+03</rscale>
<asrwt>0</asrwt>
<pdfrwt beam="1">  1       21 0.10608264E+00 0.18001838E+03</pdfrwt>
<pdfrwt beam="2">  1       21 0.79754544E-02 0.18001838E+03</pdfrwt>
<totfact> 0.86473669E+04</totfact>
</mgrwt>
</event>
<event>
12    1  0.2736842E-001  0.1887265E+03  0.7546771E-02  0.1160585E+00
         21   -1    0    0  502  503  0.00000000000E+00  0.00000000000E+00  0.17673366123E+03  0.17673366123E+03  0.00000000000E+00 0.  1.
         21   -1    0    0  503  504 -0.00000000000E+00 -0.00000000000E+00 -0.48759893136E+03  0.48759893136E+03  0.00000000000E+00 0. -1.
         -6    2    1    2    0  504 -0.24620682733E+01 -0.62772150817E+02 -0.41253929660E+03  0.45365884192E+03  0.17796423494E+03 0.  0.
        -24    2    3    3    0    0 -0.52027117013E+02 -0.89937889077E+02 -0.28935492181E+03  0.31804486188E+03  0.81428610417E+02 0.  0.
          6    2    1    2  502    0  0.24620682733E+01  0.62772150817E+02  0.10167402646E+03  0.21067375067E+03  0.17349183515E+03 0.  0.
         24    2    5    5    0    0 -0.14993955148E+02  0.27006497667E+01 -0.95440599277E+01  0.82983301797E+02  0.81012511978E+02 0.  0.
          2    1    6    6  501    0  0.12825268061E+02 -0.57834842162E+01 -0.39077621209E+02  0.41533079224E+02  0.00000000000E+00 0. -1.
         -1    1    6    6    0  501 -0.27819223209E+02  0.84841339829E+01  0.29533561281E+02  0.41450222573E+02  0.00000000000E+00 0.  1.
          5    1    5    5  502    0  0.17456023421E+02  0.60071501050E+02  0.11121808639E+03  0.12769044887E+03  0.47000000000E+01 0. -1.
         13    1    4    4    0    0 -0.47564345046E+02 -0.27334572442E+02 -0.20902292663E+03  0.21610212777E+03  0.00000000000E+00 0. -1.
        -14    1    4    4    0    0 -0.44627719675E+01 -0.62603316635E+02 -0.80331995178E+02  0.10194273410E+03  0.00000000000E+00 0.  1.
         -5    1    3    3    0  504  0.49565048740E+02  0.27165738261E+02 -0.12318437479E+03  0.13561398005E+03  0.47000000000E+01 0.  1.
<mgrwt>
<rscale>  2 0.18766469E+03</rscale>
<asrwt>0</asrwt>
<pdfrwt beam="1">  1       21 0.27189794E-01 0.18872645E+03</pdfrwt>
<pdfrwt beam="2">  1       21 0.75015219E-01 0.18872645E+03</pdfrwt>
<totfact> 0.20539567E+04</totfact>
</mgrwt>
</event>
<event>
12    1  0.2736842E-001  0.1749135E+03  0.7546771E-02  0.1175282E+00
         21   -1    0    0  502  503  0.00000000000E+00  0.00000000000E+00  0.47706078732E+03  0.47706078732E+03  0.00000000000E+00 0. -1.
         21   -1    0    0  503  504 -0.00000000000E+00 -0.00000000000E+00 -0.73216139868E+02  0.73216139868E+02  0.00000000000E+00 0. -1.
         -6    2    1    2    0  504  0.96239756266E+01  0.84386480119E+01  0.92836568121E+02  0.19802364850E+03  0.17444456224E+03 0.  0.
        -24    2    3    3    0    0 -0.60500531922E+02  0.16137165657E+01  0.75350170497E+02  0.12527826823E+03  0.79712469870E+02 0.  0.
          6    2    1    2  502    0 -0.96239756266E+01 -0.84386480119E+01  0.31100807933E+03  0.35225327870E+03  0.16490153199E+03 0.  0.
         24    2    5    5    0    0 -0.44502522037E+02 -0.38869004643E+02  0.12546423654E+03  0.16096520483E+03  0.81714432787E+02 0.  0.
          4    1    6    6  501    0 -0.62222586452E+02 -0.49586578165E+02  0.92228120786E+02  0.12180519391E+03  0.00000000000E+00 0. -1.
         -3    1    6    6    0  501  0.17720064415E+02  0.10717573522E+02  0.33236115755E+02  0.39160010924E+02  0.00000000000E+00 0.  1.
          5    1    5    5  502    0  0.34878546410E+02  0.30430356631E+02  0.18554384279E+03  0.19128807386E+03  0.47000000000E+01 0. -1.
         11    1    4    4    0    0  0.32023442153E+01 -0.75892659807E+00 -0.14635443508E+02  0.15000906130E+02  0.00000000000E+00 0. -1.
        -12    1    4    4    0    0 -0.63702876137E+02  0.23726431638E+01  0.89985614005E+02  0.11027736210E+03  0.00000000000E+00 0.  1.
         -5    1    3    3    0  504  0.70124507549E+02  0.68249314461E+01  0.17486397624E+02  0.72745380266E+02  0.47000000000E+01 0.  1.
<mgrwt>
<rscale>  2 0.17248438E+03</rscale>
<asrwt>0</asrwt>
<pdfrwt beam="1">  1       21 0.73393965E-01 0.17491351E+03</pdfrwt>
<pdfrwt beam="2">  1       21 0.11264022E-01 0.17491351E+03</pdfrwt>
<totfact> 0.11036450E+05</totfact>
</mgrwt>
</event>
<event>
12    1  0.2736842E-001  0.2146329E+03  0.7546771E-02  0.1138704E+00
         21   -1    0    0  502  503  0.00000000000E+00  0.00000000000E+00  0.22552637577E+03  0.22552637577E+03  0.00000000000E+00 0.  1.
         21   -1    0    0  503  504 -0.00000000000E+00 -0.00000000000E+00 -0.10969784429E+04  0.10969784429E+04  0.00000000000E+00 0.  1.
         -6    2    1    2    0  504  0.63476695571E+02 -0.10477631695E+03 -0.10341977264E+04  0.10562349234E+04  0.17623821598E+03 0.  0.
        -24    2    3    3    0    0  0.67834164817E+01  0.58475958210E+01 -0.25536400297E+03  0.26752975883E+03  0.79253950866E+02 0.  0.
          6    2    1    2  502    0 -0.63476695571E+02  0.10477631695E+03  0.16274565930E+03  0.26626989519E+03  0.17148218563E+03 0.  0.
         24    2    5    5    0    0 -0.23809852997E+02  0.12182688458E+03  0.68712274329E+02  0.16269119204E+03  0.79613745158E+02 0.  0.
          2    1    6    6  501    0 -0.25051186582E+02  0.19527668612E+02 -0.10337153630E+02  0.33402822272E+02  0.00000000000E+00 0. -1.
         -1    1    6    6    0  501  0.12413335849E+01  0.10229921597E+03  0.79049427960E+02  0.12928836977E+03  0.00000000000E+00 0.  1.
          5    1    5    5  502    0 -0.39666842574E+02 -0.17050567637E+02  0.94033384968E+02  0.10357870314E+03  0.47000000000E+01 0. -1.
         11    1    4    4    0    0  0.23783368547E+02 -0.29819230928E+02 -0.95024004922E+02  0.10239334287E+03  0.00000000000E+00 0. -1.
        -12    1    4    4    0    0 -0.16999952065E+02  0.35666826749E+02 -0.16033999805E+03  0.16513641596E+03  0.00000000000E+00 0.  1.
         -5    1    3    3    0  504  0.56693279089E+02 -0.11062391277E+03 -0.77883372341E+03  0.78870516462E+03  0.47000000000E+01 0.  1.
<mgrwt>
<rscale>  2 0.21365427E+03</rscale>
<asrwt>0</asrwt>
<pdfrwt beam="1">  1       21 0.34696365E-01 0.21463289E+03</pdfrwt>
<pdfrwt beam="2">  1       21 0.16876592E+00 0.21463289E+03</pdfrwt>
<totfact> 0.17061575E+03</totfact>
</mgrwt>
</event>
<event>
12    1  0.2736842E-001  0.1984025E+03  0.7546771E-02  0.1151623E+00
         21   -1    0    0  502  503  0.00000000000E+00  0.00000000000E+00  0.76435333135E+03  0.76435333135E+03  0.00000000000E+00 0.  1.
         21   -1    0    0  503  504 -0.00000000000E+00 -0.00000000000E+00 -0.67704969773E+02  0.67704969773E+02  0.00000000000E+00 0.  1.
         -6    2    1    2    0  504  0.13169866393E+02 -0.93256075787E+02  0.13918541225E+03  0.24034173442E+03  0.17181801205E+03 0.  0.
        -24    2    3    3    0    0  0.24578485945E+02  0.11095534930E+01  0.11537934877E+03  0.14224052521E+03  0.79464707939E+02 0.  0.
          6    2    1    2  502    0 -0.13169866393E+02  0.93256075787E+02  0.55746294933E+03  0.59171656671E+03  0.17462363642E+03 0.  0.
         24    2    5    5    0    0 -0.15266153211E+02 -0.24784749623E+02  0.23653628523E+03  0.24973112168E+03  0.74624926531E+02 0.  0.
          2    1    6    6  501    0 -0.12918681388E+01  0.11662960885E+02  0.18351934326E+03  0.18389410793E+03  0.00000000000E+00 0. -1.
         -1    1    6    6    0  501 -0.13974285072E+02 -0.36447710509E+02  0.53016941969E+02  0.65837013756E+02  0.00000000000E+00 0.  1.
          5    1    5    5  502    0  0.20962868174E+01  0.11804082541E+03  0.32092666410E+03  0.34198544503E+03  0.47000000000E+01 0. -1.
         11    1    4    4    0    0 -0.20951595943E+02 -0.18427980584E+02  0.18652285536E+02  0.33562890172E+02  0.00000000000E+00 0. -1.
        -12    1    4    4    0    0  0.45530081889E+02  0.19537534077E+02  0.96727063236E+02  0.10867763504E+03  0.00000000000E+00 0.  1.
         -5    1    3    3    0  504 -0.11408619552E+02 -0.94365629280E+02  0.23806063482E+02  0.98101209207E+02  0.47000000000E+01 0.  1.
<mgrwt>
<rscale>  2 0.19778341E+03</rscale>
<asrwt>0</asrwt>
<pdfrwt beam="1">  1       21 0.11759281E+00 0.19840251E+03</pdfrwt>
<pdfrwt beam="2">  1       21 0.10416150E-01 0.19840251E+03</pdfrwt>
<totfact> 0.41782880E+04</totfact>
</mgrwt>
</event>
<event>
12    1  0.2736842E-001  0.2816723E+03  0.7546771E-02  0.1094886E+00
         21   -1    0    0  502  503  0.00000000000E+00  0.00000000000E+00  0.10090699771E+04  0.10090699771E+04  0.00000000000E+00 0.  1.
         21   -1    0    0  503  504 -0.00000000000E+00 -0.00000000000E+00 -0.78471010980E+02  0.78471010980E+02  0.00000000000E+00 0. -1.
         -6    2    1    2    0  504 -0.60957516779E+02 -0.21283068947E+03  0.44902872120E+03  0.52964387641E+03  0.17286735413E+03 0.  0.
        -24    2    3    3    0    0 -0.55774286116E+02 -0.21752752519E+03  0.45854805359E+03  0.51693034680E+03  0.80756862143E+02 0.  0.
          6    2    1    2  502    0  0.60957516779E+02  0.21283068947E+03  0.48157024495E+03  0.55789711170E+03  0.17414524165E+03 0.  0.
         24    2    5    5    0    0  0.16719232416E+02  0.18542422947E+03  0.25581444772E+03  0.32617333252E+03  0.79286402232E+02 0.  0.
          2    1    6    6  501    0  0.35100901127E+02  0.33716122245E+02  0.49424516975E+02  0.69365935714E+02  0.00000000000E+00 0. -1.
         -1    1    6    6    0  501 -0.18381668711E+02  0.15170810723E+03  0.20638993074E+03  0.25680739681E+03  0.00000000000E+00 0.  1.
          5    1    5    5  502    0  0.44238284363E+02  0.27406459996E+02  0.22575579723E+03  0.23172377917E+03  0.47000000000E+01 0. -1.
         13    1    4    4    0    0 -0.36000532320E+02 -0.25666335431E+02  0.11040302594E+03  0.11892698280E+03  0.00000000000E+00 0. -1.
        -14    1    4    4    0    0 -0.19773753797E+02 -0.19186118976E+03  0.34814502766E+03  0.39800336400E+03  0.00000000000E+00 0.  1.
         -5    1    3    3    0  504 -0.51832306627E+01  0.46968357223E+01 -0.95193323915E+01  0.12713529608E+02  0.47000000000E+01 0.  1.
<mgrwt>
<rscale>  2 0.28147503E+03</rscale>
<asrwt>0</asrwt>
<pdfrwt beam="1">  1       21 0.15524153E+00 0.28167230E+03</pdfrwt>
<pdfrwt beam="2">  1       21 0.12072464E-01 0.28167230E+03</pdfrwt>
<totfact> 0.15011114E+04</totfact>
</mgrwt>
</event>
<event>
12    1  0.2736842E-001  0.4557004E+03  0.7546771E-02  0.1026087E+00
         21   -1    0    0  502  503  0.00000000000E+00  0.00000000000E+00  0.10930587657E+04  0.10930587657E+04  0.00000000000E+00 0.  1.
         21   -1    0    0  503  504 -0.00000000000E+00 -0.00000000000E+00 -0.20559230523E+03  0.20559230523E+03  0.00000000000E+00 0. -1.
         -6    2    1    2    0  504 -0.40772613250E+03  0.10344336049E+03  0.26285793339E+03  0.52547664534E+03  0.17346551156E+03 0.  0.
        -24    2    3    3    0    0 -0.23888981120E+03  0.13061856897E+03  0.15924733089E+03  0.32547303963E+03  0.80271007707E+02 0.  0.
          6    2    1    2  502    0  0.40772613250E+03 -0.10344336049E+03  0.62460852704E+03  0.77317442555E+03  0.17527621721E+03 0.  0.
         24    2    5    5    0    0  0.26506644083E+03 -0.51795711106E+02  0.51095174777E+03  0.58354525905E+03  0.80686845670E+02 0.  0.
          4    1    6    6  501    0  0.12156244341E+03 -0.36944291430E+02  0.31939192896E+03  0.34373465435E+03  0.00000000000E+00 0. -1.
         -3    1    6    6    0  501  0.14350399742E+03 -0.14851419676E+02  0.19155981881E+03  0.23981060470E+03  0.00000000000E+00 0.  1.
          5    1    5    5  502    0  0.14265969166E+03 -0.51647649380E+02  0.11365677927E+03  0.18962916650E+03  0.47000000000E+01 0. -1.
         11    1    4    4    0    0 -0.33731373734E+02  0.42808915795E+02  0.61542620153E+01  0.54847823900E+02  0.00000000000E+00 0. -1.
        -12    1    4    4    0    0 -0.20515843746E+03  0.87809653171E+02  0.15309306887E+03  0.27062521573E+03  0.00000000000E+00 0.  1.
         -5    1    3    3    0  504 -0.16883632130E+03 -0.27175208481E+02  0.10361060250E+03  0.20000360571E+03  0.47000000000E+01 0.  1.
<mgrwt>
<rscale>  2 0.45552698E+03</rscale>
<asrwt>0</asrwt>
<pdfrwt beam="1">  1       21 0.16816288E+00 0.45570043E+03</pdfrwt>
<pdfrwt beam="2">  1       21 0.31629586E-01 0.45570043E+03</pdfrwt>
<totfact> 0.17935160E+03</totfact>
</mgrwt>
</event>
<event>
12    1  0.2736842E-001  0.1840354E+03  0.7546771E-02  0.1164202E+00
         21   -1    0    0  502  503  0.00000000000E+00  0.00000000000E+00  0.21952637609E+03  0.21952637609E+03  0.00000000000E+00 0. -1.
         21   -1    0    0  503  504 -0.00000000000E+00 -0.00000000000E+00 -0.16227171825E+03  0.16227171825E+03  0.00000000000E+00 0. -1.
         -6    2    1    2    0  504  0.32562218815E+02 -0.54466667994E+02 -0.16087097533E+02  0.18368688764E+03  0.17162506218E+03 0.  0.
        -24    2    3    3    0    0  0.79436415143E+02 -0.78688755539E+01  0.52337569427E+01  0.11407932069E+03  0.81330412168E+02 0.  0.
          6    2    1    2  502    0 -0.32562218815E+02  0.54466667994E+02  0.73341755375E+02  0.19811120671E+03  0.17274872250E+03 0.  0.
         24    2    5    5    0    0  0.45392805610E+02  0.33382786203E+02  0.18048823057E+02  0.10012695150E+03  0.80775795797E+02 0.  0.
          4    1    6    6  501    0  0.54020682418E+02 -0.10258621447E+01  0.31084184371E+02  0.62333883563E+02  0.00000000000E+00 0. -1.
         -3    1    6    6    0  501 -0.86278768081E+01  0.34408648348E+02 -0.13035361314E+02  0.37793067935E+02  0.00000000000E+00 0.  1.
          5    1    5    5  502    0 -0.77955024425E+02  0.21083881791E+02  0.55292932317E+02  0.97984255208E+02  0.47000000000E+01 0. -1.
         11    1    4    4    0    0  0.34641921156E+02 -0.26378185061E+02 -0.31097412160E+02  0.53506264974E+02  0.00000000000E+00 0. -1.
        -12    1    4    4    0    0  0.44794493987E+02  0.18509309507E+02  0.36331169102E+02  0.60573055712E+02  0.00000000000E+00 0.  1.
         -5    1    3    3    0  504 -0.46874196328E+02 -0.46597792440E+02 -0.21320854475E+02  0.69607566954E+02  0.47000000000E+01 0.  1.
<mgrwt>
<rscale>  2 0.18377127E+03</rscale>
<asrwt>0</asrwt>
<pdfrwt beam="1">  1       21 0.33773289E-01 0.18403542E+03</pdfrwt>
<pdfrwt beam="2">  1       21 0.24964880E-01 0.18403542E+03</pdfrwt>
<totfact> 0.12864331E+05</totfact>
</mgrwt>
</event>
<event>
12    1  0.2736842E-001  0.1870584E+03  0.7546771E-02  0.1161291E+00
         21   -1    0    0  502  503  0.00000000000E+00  0.00000000000E+00  0.46510267513E+03  0.46510267513E+03  0.00000000000E+00 0.  1.
         21   -1    0    0  503  504 -0.00000000000E+00 -0.00000000000E+00 -0.13081238086E+03  0.13081238086E+03  0.00000000000E+00 0. -1.
         -6    2    1    2    0  504  0.70864794146E+02 -0.67872621171E+01  0.36198262325E+03  0.40745827971E+03  0.17298249677E+03 0.  0.
        -24    2    3    3    0    0 -0.13967023318E+02 -0.20578407312E+02  0.26267315846E+03  0.27603875020E+03  0.81127398855E+02 0.  0.
          6    2    1    2  502    0 -0.70864794146E+02  0.67872621171E+01 -0.27692328986E+02  0.18845677629E+03  0.17228234230E+03 0.  0.
         24    2    5    5    0    0 -0.91747171745E+02 -0.39729182993E+02  0.93316623579E+00  0.12979365042E+03  0.82762125310E+02 0.  0.
          4    1    6    6  501    0 -0.49245571321E+02 -0.62922501703E+02  0.10026966891E+02  0.80528923874E+02  0.00000000000E+00 0. -1.
         -3    1    6    6    0  501 -0.42501600423E+02  0.23193318710E+02 -0.90938006555E+01  0.49264726546E+02  0.00000000000E+00 0.  1.
          5    1    5    5  502    0  0.20882377599E+02  0.46516445110E+02 -0.28625495222E+02  0.58663125868E+02  0.47000000000E+01 0. -1.
         13    1    4    4    0    0  0.11956598250E+02  0.25756003736E+02  0.57811544505E+02  0.64408901933E+02  0.00000000000E+00 0. -1.
        -14    1    4    4    0    0 -0.25923621568E+02 -0.46334411048E+02  0.20486161396E+03  0.21162984826E+03  0.00000000000E+00 0.  1.
         -5    1    3    3    0  504  0.84831817463E+02  0.13791145195E+02  0.99309464789E+02  0.13141952951E+03  0.47000000000E+01 0.  1.
<mgrwt>
<rscale>  2 0.18689633E+03</rscale>
<asrwt>0</asrwt>
<pdfrwt beam="1">  1       21 0.71554257E-01 0.18705836E+03</pdfrwt>
<pdfrwt beam="2">  1       21 0.20124982E-01 0.18705836E+03</pdfrwt>
<totfact> 0.40387662E+04</totfact>
</mgrwt>
</event>
<event>
12    1  0.2736842E-001  0.1863684E+03  0.7546771E-02  0.1162223E+00
         21   -1    0    0  502  503  0.00000000000E+00  0.00000000000E+00  0.74727986069E+03  0.74727986069E+03  0.00000000000E+00 0. -1.
         21   -1    0    0  503  504 -0.00000000000E+00 -0.00000000000E+00 -0.20484507050E+03  0.20484507050E+03  0.00000000000E+00 0. -1.
         -6    2    1    2    0  504  0.25682371216E+02  0.62920528172E+02 -0.14830716758E+03  0.23668265684E+03  0.17147911546E+03 0.  0.
        -24    2    3    3    0    0  0.70103647590E+02  0.15670411387E+02 -0.50208206391E+02  0.11899102793E+03  0.80485511362E+02 0.  0.
          6    2    1    2  502    0 -0.25682371216E+02 -0.62920528172E+02  0.69074195776E+03  0.71544227436E+03  0.17353564091E+03 0.  0.
         24    2    5    5    0    0  0.10685974931E+02 -0.83533493819E+02  0.63525238067E+03  0.64580942205E+03  0.80200921519E+02 0.  0.
          4    1    6    6  501    0 -0.44741972288E+01 -0.62769810291E+02  0.59314538767E+03  0.59647423954E+03  0.00000000000E+00 0. -1.
         -3    1    6    6    0  501  0.15160172160E+02 -0.20763683529E+02  0.42106993006E+02  0.49335182513E+02  0.00000000000E+00 0.  1.
          5    1    5    5  502    0 -0.36368346147E+02  0.20612965647E+02  0.55489577091E+02  0.69632852304E+02  0.47000000000E+01 0. -1.
         11    1    4    4    0    0  0.20215261588E+02  0.28620475977E+02 -0.57096455611E+02  0.66990997078E+02  0.00000000000E+00 0. -1.
        -12    1    4    4    0    0  0.49888386002E+02 -0.12950064590E+02  0.68882492196E+01  0.52000030847E+02  0.00000000000E+00 0.  1.
         -5    1    3    3    0  504 -0.44421276374E+02  0.47250116786E+02 -0.98098961185E+02  0.11769162891E+03  0.47000000000E+01 0.  1.
<mgrwt>
<rscale>  2 0.18588824E+03</rscale>
<asrwt>0</asrwt>
<pdfrwt beam="1">  1       21 0.11496613E+00 0.18636844E+03</pdfrwt>
<pdfrwt beam="2">  1       21 0.31514627E-01 0.18636844E+03</pdfrwt>
<totfact> 0.57063371E+03</totfact>
</mgrwt>
</event>
<event>
12    1  0.2736842E-001  0.2099498E+03  0.7546771E-02  0.1141702E+00
         21   -1    0    0  502  503  0.00000000000E+00  0.00000000000E+00  0.38079132276E+03  0.38079132276E+03  0.00000000000E+00 0.  1.
         21   -1    0    0  503  504 -0.00000000000E+00 -0.00000000000E+00 -0.15274910153E+03  0.15274910153E+03  0.00000000000E+00 0.  1.
         -6    2    1    2    0  504 -0.90677349097E+02 -0.76473842922E+02 -0.17837893021E+02  0.21022021093E+03  0.17263752885E+03 0.  0.
        -24    2    3    3    0    0  0.14417286041E+01  0.94932339929E+01 -0.15981061010E+02  0.84117869101E+02  0.82025736925E+02 0.  0.
          6    2    1    2  502    0  0.90677349097E+02  0.76473842922E+02  0.24588011425E+03  0.32332021336E+03  0.17322903768E+03 0.  0.
         24    2    5    5    0    0 -0.20439044249E+02  0.19115921148E+02  0.87088545598E+02  0.12114791967E+03  0.79430665964E+02 0.  0.
          2    1    6    6  501    0 -0.33401094207E+02  0.44072007764E+02  0.65327291715E+02  0.85589894295E+02  0.00000000000E+00 0. -1.
         -1    1    6    6    0  501  0.12962049957E+02 -0.24956086616E+02  0.21761253882E+02  0.35558025378E+02  0.00000000000E+00 0.  1.
          5    1    5    5  502    0  0.11111639335E+03  0.57357921774E+02  0.15879156866E+03  0.20217229369E+03  0.47000000000E+01 0. -1.
         13    1    4    4    0    0  0.16370798473E+02  0.22071765498E+02  0.25993163255E+02  0.37826054656E+02  0.00000000000E+00 0. -1.
        -14    1    4    4    0    0 -0.14929069869E+02 -0.12578531506E+02 -0.41974224265E+02  0.46291814445E+02  0.00000000000E+00 0.  1.
         -5    1    3    3    0  504 -0.92119077701E+02 -0.85967076915E+02 -0.18568320108E+01  0.12610234183E+03  0.47000000000E+01 0.  1.
<mgrwt>
<rscale>  2 0.20982777E+03</rscale>
<asrwt>0</asrwt>
<pdfrwt beam="1">  1       21 0.58583280E-01 0.20994983E+03</pdfrwt>
<pdfrwt beam="2">  1       21 0.23499862E-01 0.20994983E+03</pdfrwt>
<totfact> 0.46076706E+04</totfact>
</mgrwt>
</event>
<event>
12    1  0.2736842E-001  0.2214587E+03  0.7546771E-02  0.1132830E+00
         21   -1    0    0  502  503  0.00000000000E+00  0.00000000000E+00  0.11597726619E+03  0.11597726619E+03  0.00000000000E+00 0. -1.
         21   -1    0    0  503  504 -0.00000000000E+00 -0.00000000000E+00 -0.43491373074E+03  0.43491373074E+03  0.00000000000E+00 0. -1.
         -6    2    1    2    0  504  0.13065297072E+02  0.13879183354E+03 -0.20582422121E+03  0.30221788541E+03  0.17186670760E+03 0.  0.
        -24    2    3    3    0    0 -0.55349378874E+01  0.10135861192E+03 -0.43879707037E+02  0.13489983351E+03  0.77254984589E+02 0.  0.
          6    2    1    2  502    0 -0.13065297072E+02 -0.13879183354E+03 -0.11311224334E+03  0.24867311152E+03  0.17207574423E+03 0.  0.
         24    2    5    5    0    0  0.57472703026E+02 -0.73274066441E+02 -0.47889319829E+02  0.13229310028E+03  0.80844771157E+02 0.  0.
          4    1    6    6  501    0  0.42829264035E+02 -0.81965405887E+02 -0.61013410059E+02  0.11079399725E+03  0.00000000000E+00 0. -1.
         -3    1    6    6    0  501  0.14643438991E+02  0.86913394461E+01  0.13124090230E+02  0.21499103033E+02  0.00000000000E+00 0.  1.
          5    1    5    5  502    0 -0.70538000098E+02 -0.65517767098E+02 -0.65222923508E+02  0.11638001123E+03  0.47000000000E+01 0. -1.
         13    1    4    4    0    0 -0.99496037823E+01  0.11312689717E+03 -0.45270009617E+02  0.12225409297E+03  0.00000000000E+00 0. -1.
        -14    1    4    4    0    0  0.44146658950E+01 -0.11768285244E+02  0.13903025791E+01  0.12645740540E+02  0.00000000000E+00 0.  1.
         -5    1    3    3    0  504  0.18600234959E+02  0.37433221614E+02 -0.16194451417E+03  0.16731805190E+03  0.47000000000E+01 0.  1.
<mgrwt>
<rscale>  2 0.22141805E+03</rscale>
<asrwt>0</asrwt>
<pdfrwt beam="1">  1       21 0.17842656E-01 0.22145866E+03</pdfrwt>
<pdfrwt beam="2">  1       21 0.66909804E-01 0.22145866E+03</pdfrwt>
<totfact> 0.57612383E+04</totfact>
</mgrwt>
</event>
<event>
12    1  0.2736842E-001  0.2153960E+03  0.7546771E-02  0.1137776E+00
         21   -1    0    0  502  503  0.00000000000E+00  0.00000000000E+00  0.32768438486E+03  0.32768438486E+03  0.00000000000E+00 0. -1.
         21   -1    0    0  503  504 -0.00000000000E+00 -0.00000000000E+00 -0.17814089868E+03  0.17814089868E+03  0.00000000000E+00 0.  1.
         -6    2    1    2    0  504 -0.13458614294E+02  0.12480453085E+03 -0.41684111349E+02  0.21939233747E+03  0.17503750279E+03 0.  0.
        -24    2    3    3    0    0 -0.15498031228E+02 -0.79449849310E+01 -0.14025862035E+02  0.83695388661E+02  0.80652845702E+02 0.  0.
          6    2    1    2  502    0  0.13458614294E+02 -0.12480453085E+03  0.19122759753E+03  0.28643294607E+03  0.17239064162E+03 0.  0.
         24    2    5    5    0    0  0.67232682381E+02 -0.65270763259E+02  0.15354810062E+03  0.19767623156E+03  0.81965646498E+02 0.  0.
          4    1    6    6  501    0  0.44210599523E+02  0.66535600890E+01  0.83281657136E+02  0.94523443586E+02  0.00000000000E+00 0. -1.
         -3    1    6    6    0  501  0.23022082858E+02 -0.71924323348E+02  0.70266443481E+02  0.10315278798E+03  0.00000000000E+00 0.  1.
          5    1    5    5  502    0 -0.53774068087E+02 -0.59533767589E+02  0.37679496913E+02  0.88756714504E+02  0.47000000000E+01 0. -1.
         11    1    4    4    0    0 -0.47294050086E+02 -0.56893567746E+00 -0.18425746401E+02  0.50759816703E+02  0.00000000000E+00 0. -1.
        -12    1    4    4    0    0  0.31796018857E+02 -0.73760492536E+01  0.43998843655E+01  0.32935571958E+02  0.00000000000E+00 0.  1.
         -5    1    3    3    0  504  0.20394169337E+01  0.13274951578E+03 -0.27658249313E+02  0.13569694881E+03  0.47000000000E+01 0.  1.
<mgrwt>
<rscale>  2 0.21485764E+03</rscale>
<asrwt>0</asrwt>
<pdfrwt beam="1">  1       21 0.50412982E-01 0.21539599E+03</pdfrwt>
<pdfrwt beam="2">  1       21 0.27406292E-01 0.21539599E+03</pdfrwt>
<totfact> 0.47040207E+04</totfact>
</mgrwt>
</event>
<event>
12    1  0.2736842E-001  0.2089547E+03  0.7546771E-02  0.1142700E+00
         21   -1    0    0  502  503  0.00000000000E+00  0.00000000000E+00  0.63222956029E+03  0.63222956029E+03  0.00000000000E+00 0.  1.
         21   -1    0    0  503  504 -0.00000000000E+00 -0.00000000000E+00 -0.68565220454E+02  0.68565220454E+02  0.00000000000E+00 0. -1.
         -6    2    1    2    0  504 -0.10658367623E+03  0.46492743404E+02  0.28616857457E+03  0.35433673373E+03  0.17360994375E+03 0.  0.
        -24    2    3    3    0    0 -0.17718869726E+02 -0.33663632956E+02  0.89950478278E+02  0.12445496016E+03  0.77141104720E+02 0.  0.
          6    2    1    2  502    0  0.10658367623E+03 -0.46492743404E+02  0.27749576526E+03  0.34645804702E+03  0.17177783144E+03 0.  0.
         24    2    5    5    0    0  0.21712454127E+02 -0.66124390420E+02  0.88212306229E+02  0.13803817327E+03  0.80182670436E+02 0.  0.
          2    1    6    6  501    0  0.19980141440E+02 -0.82813273550E+02  0.56687970851E+02  0.10232678226E+03  0.00000000000E+00 0. -1.
         -1    1    6    6    0  501  0.17323126870E+01  0.16688883130E+02  0.31524335377E+02  0.35711391017E+02  0.00000000000E+00 0.  1.
          5    1    5    5  502    0  0.84871222104E+02  0.19631647016E+02  0.18928345903E+03  0.20841987374E+03  0.47000000000E+01 0. -1.
         11    1    4    4    0    0 -0.29819086257E+02  0.91073049294E+01  0.95898520367E+01  0.32620333695E+02  0.00000000000E+00 0. -1.
        -12    1    4    4    0    0  0.12100216531E+02 -0.42770937885E+02  0.80360626241E+02  0.91834626463E+02  0.00000000000E+00 0.  1.
         -5    1    3    3    0  504 -0.88864806505E+02  0.80156376359E+02  0.19621809630E+03  0.22988177357E+03  0.47000000000E+01 0.  1.
<mgrwt>
<rscale>  2 0.20857374E+03</rscale>
<asrwt>0</asrwt>
<pdfrwt beam="1">  1       21 0.97266083E-01 0.20895470E+03</pdfrwt>
<pdfrwt beam="2">  1       21 0.10548496E-01 0.20895470E+03</pdfrwt>
<totfact> 0.64206305E+04</totfact>
</mgrwt>
</event>
<event>
12    1  0.2736842E-001  0.1957721E+03  0.7546771E-02  0.1155863E+00
         21   -1    0    0  502  503  0.00000000000E+00  0.00000000000E+00  0.81441689233E+02  0.81441689233E+02  0.00000000000E+00 0.  1.
         21   -1    0    0  503  504 -0.00000000000E+00 -0.00000000000E+00 -0.44447330995E+03  0.44447330995E+03  0.00000000000E+00 0.  1.
         -6    2    1    2    0  504 -0.67323087827E+02 -0.23917501148E+02 -0.19480834518E+03  0.27618292825E+03  0.18226978217E+03 0.  0.
        -24    2    3    3    0    0 -0.97575850477E+02 -0.35406507481E+02 -0.20365387040E+03  0.24230726987E+03  0.80394320280E+02 0.  0.
          6    2    1    2  502    0  0.67323087827E+02  0.23917501148E+02 -0.16822327555E+03  0.24973207094E+03  0.17018399397E+03 0.  0.
         24    2    5    5    0    0 -0.44231094101E+01  0.38318058554E+02 -0.31696313354E+02  0.94759188545E+02  0.80540735192E+02 0.  0.
          4    1    6    6  501    0  0.37573512350E+02  0.22564446180E+02 -0.10101430491E+02  0.44977349407E+02  0.00000000000E+00 0. -1.
         -3    1    6    6    0  501 -0.41996621760E+02  0.15753612374E+02 -0.21594882863E+02  0.49781839138E+02  0.00000000000E+00 0.  1.
          5    1    5    5  502    0  0.71746197237E+02 -0.14400557406E+02 -0.13652696219E+03  0.15497288239E+03  0.47000000000E+01 0. -1.
         11    1    4    4    0    0 -0.30411869999E+02  0.26188120314E+02 -0.59957238321E+02  0.72149635546E+02  0.00000000000E+00 0. -1.
        -12    1    4    4    0    0 -0.67163980478E+02 -0.61594627795E+02 -0.14369663208E+03  0.17015763432E+03  0.00000000000E+00 0.  1.
         -5    1    3    3    0  504  0.30252762650E+02  0.11489006333E+02  0.88455252218E+01  0.33875658384E+02  0.47000000000E+01 0.  1.
<mgrwt>
<rscale>  2 0.19291007E+03</rscale>
<asrwt>0</asrwt>
<pdfrwt beam="1">  1       21 0.12529491E-01 0.19577211E+03</pdfrwt>
<pdfrwt beam="2">  1       21 0.68380509E-01 0.19577211E+03</pdfrwt>
<totfact> 0.10582581E+05</totfact>
</mgrwt>
</event>
<event>
12    1  0.2736842E-001  0.2526651E+03  0.7546771E-02  0.1111986E+00
         21   -1    0    0  502  503  0.00000000000E+00  0.00000000000E+00  0.50592307370E+03  0.50592307370E+03  0.00000000000E+00 0. -1.
         21   -1    0    0  503  504 -0.00000000000E+00 -0.00000000000E+00 -0.27223317266E+03  0.27223317266E+03  0.00000000000E+00 0. -1.
         -6    2    1    2    0  504  0.76537660161E+02  0.16596998436E+03 -0.16899021035E+03  0.30396929189E+03  0.17445798946E+03 0.  0.
        -24    2    3    3    0    0  0.66472929131E+02  0.13069149019E+03 -0.42198667770E+02  0.17189334317E+03  0.79168667720E+02 0.  0.
          6    2    1    2  502    0 -0.76537660161E+02 -0.16596998436E+03  0.40268011139E+03  0.47418695447E+03  0.17116642939E+03 0.  0.
         24    2    5    5    0    0 -0.29578906356E+02 -0.19963855374E+02  0.21585497603E+03  0.23242542845E+03  0.78452163081E+02 0.  0.
          2    1    6    6  501    0 -0.82069051940E+01 -0.23560460880E+02  0.20781872765E+03  0.20931094613E+03  0.00000000000E+00 0. -1.
         -1    1    6    6    0  501 -0.21372001162E+02  0.35966055060E+01  0.80362483801E+01  0.23114482319E+02  0.00000000000E+00 0.  1.
          5    1    5    5  502    0 -0.46958753805E+02 -0.14600612899E+03  0.18682513536E+03  0.24176152602E+03  0.47000000000E+01 0. -1.
         13    1    4    4    0    0  0.74587520796E+02  0.13243952027E+03 -0.50486254259E+02  0.16016362464E+03  0.00000000000E+00 0. -1.
        -14    1    4    4    0    0 -0.81145916646E+01 -0.17480300780E+01  0.82875864890E+01  0.11729718532E+02  0.00000000000E+00 0.  1.
         -5    1    3    3    0  504  0.10064731030E+02  0.35278494171E+02 -0.12679154258E+03  0.13207594872E+03  0.47000000000E+01 0.  1.
<mgrwt>
<rscale>  2 0.25209781E+03</rscale>
<asrwt>0</asrwt>
<pdfrwt beam="1">  1       21 0.77834319E-01 0.25266507E+03</pdfrwt>
<pdfrwt beam="2">  1       21 0.41882027E-01 0.25266507E+03</pdfrwt>
<totfact> 0.77211370E+03</totfact>
</mgrwt>
</event>
<event>
12    1  0.2736842E-001  0.1912364E+03  0.7546771E-02  0.1157460E+00
         21   -1    0    0  502  503  0.00000000000E+00  0.00000000000E+00  0.34263845880E+03  0.34263845880E+03  0.00000000000E+00 0. -1.
         21   -1    0    0  503  504 -0.00000000000E+00 -0.00000000000E+00 -0.13687038753E+03  0.13687038753E+03  0.00000000000E+00 0.  1.
         -6    2    1    2    0  504  0.58148768254E+02 -0.59332278934E+02 -0.10226994148E+02  0.19102104388E+03  0.17170570527E+03 0.  0.
        -24    2    3    3    0    0  0.38775670034E+02  0.33796658142E+02  0.78473454339E+00  0.95147877535E+02  0.80042089571E+02 0.  0.
          6    2    1    2  502    0 -0.58148768254E+02  0.59332278934E+02  0.21599506542E+03  0.28848780245E+03  0.17224907926E+03 0.  0.
         24    2    5    5    0    0 -0.54503289986E+02  0.77140026876E+02  0.74899095225E+02  0.14614817970E+03  0.82633066018E+02 0.  0.
          4    1    6    6  501    0 -0.65062830586E+02  0.68796611880E+02  0.86597057776E+02  0.12831678045E+03  0.00000000000E+00 0. -1.
         -3    1    6    6    0  501  0.10559540600E+02  0.83434149966E+01 -0.11697962550E+02  0.17831399253E+02  0.00000000000E+00 0.  1.
          5    1    5    5  502    0 -0.36454782675E+01 -0.17807747943E+02  0.14109597019E+03  0.14233962274E+03  0.47000000000E+01 0. -1.
         11    1    4    4    0    0 -0.17071403663E+02 -0.12899814308E+02 -0.54611119290E+01  0.22083065360E+02  0.00000000000E+00 0. -1.
        -12    1    4    4    0    0  0.55847073698E+02  0.46696472450E+02  0.62458464724E+01  0.73064812174E+02  0.00000000000E+00 0.  1.
         -5    1    3    3    0  504  0.19373098219E+02 -0.93128937076E+02 -0.11011728692E+02  0.95873166341E+02  0.47000000000E+01 0.  1.
<mgrwt>
<rscale>  2 0.19111392E+03</rscale>
<asrwt>0</asrwt>
<pdfrwt beam="1">  1       21 0.52713609E-01 0.19123636E+03</pdfrwt>
<pdfrwt beam="2">  1       21 0.21056983E-01 0.19123636E+03</pdfrwt>
<totfact> 0.71551179E+04</totfact>
</mgrwt>
</event>
<event>
12    1  0.2736842E-001  0.2484424E+03  0.7546771E-02  0.1114462E+00
         21   -1    0    0  502  503  0.00000000000E+00  0.00000000000E+00  0.68067725113E+03  0.68067725113E+03  0.00000000000E+00 0.  1.
         21   -1    0    0  503  504 -0.00000000000E+00 -0.00000000000E+00 -0.12023428898E+03  0.12023428898E+03  0.00000000000E+00 0.  1.
         -6    2    1    2    0  504 -0.21361117380E+02 -0.17756242875E+03  0.80839393945E+02  0.26126356199E+03  0.17244978333E+03 0.  0.
        -24    2    3    3    0    0 -0.26620521357E+02 -0.18178582044E+03  0.11065463919E+03  0.23033562613E+03  0.83995921459E+02 0.  0.
          6    2    1    2  502    0  0.21361117380E+02  0.17756242875E+03  0.47960356821E+03  0.53964797813E+03  0.17092584421E+03 0.  0.
         24    2    5    5    0    0 -0.19889731734E+02  0.18155429793E+03  0.34038126352E+03  0.39431213363E+03  0.79152319282E+02 0.  0.
          4    1    6    6  501    0 -0.12714451867E+02  0.16129280148E+03  0.22609144105E+03  0.27801864112E+03  0.00000000000E+00 0. -1.
         -3    1    6    6    0  501 -0.71752798673E+01  0.20261496451E+02  0.11428982247E+03  0.11629349251E+03  0.00000000000E+00 0.  1.
          5    1    5    5  502    0  0.41250849115E+02 -0.39918691828E+01  0.13922230469E+03  0.14533584449E+03  0.47000000000E+01 0. -1.
         11    1    4    4    0    0 -0.21614053306E+02 -0.37682399284E+02  0.66691634044E+02  0.79592113727E+02  0.00000000000E+00 0. -1.
        -12    1    4    4    0    0 -0.50064680519E+01 -0.14410342115E+03  0.43963005143E+02  0.15074351240E+03  0.00000000000E+00 0.  1.
         -5    1    3    3    0  504  0.52594039770E+01  0.42233916877E+01 -0.29815245241E+02  0.30927935857E+02  0.47000000000E+01 0.  1.
<mgrwt>
<rscale>  2 0.24817817E+03</rscale>
<asrwt>0</asrwt>
<pdfrwt beam="1">  1       21 0.10471957E+00 0.24844243E+03</pdfrwt>
<pdfrwt beam="2">  1       21 0.18497583E-01 0.24844243E+03</pdfrwt>
<totfact> 0.19009241E+04</totfact>
</mgrwt>
</event>
<event>
12    1  0.2736842E-001  0.2125514E+03  0.7546771E-02  0.1139807E+00
         21   -1    0    0  502  503  0.00000000000E+00  0.00000000000E+00  0.16748584902E+03  0.16748584902E+03  0.00000000000E+00 0. -1.
         21   -1    0    0  503  504 -0.00000000000E+00 -0.00000000000E+00 -0.93322338017E+03  0.93322338017E+03  0.00000000000E+00 0. -1.
         -6    2    1    2    0  504  0.55878575919E+02 -0.10914391049E+03 -0.84780133700E+03  0.87403959950E+03  0.17361827679E+03 0.  0.
        -24    2    3    3    0    0 -0.31882287658E+02 -0.74574310702E+02 -0.53455072130E+03  0.54686217876E+03  0.82072899524E+02 0.  0.
          6    2    1    2  502    0 -0.55878575919E+02  0.10914391049E+03  0.82063805848E+02  0.22666962968E+03  0.17207511252E+03 0.  0.
         24    2    5    5    0    0  0.26340250728E+02  0.80260442010E+02  0.77608394185E+02  0.13928467160E+03  0.79003857718E+02 0.  0.
          4    1    6    6  501    0  0.48763168371E+02  0.30147355310E+02  0.56423161076E+02  0.80438067652E+02  0.00000000000E+00 0. -1.
         -3    1    6    6    0  501 -0.22422917643E+02  0.50113086700E+02  0.21185233109E+02  0.58846603947E+02  0.00000000000E+00 0.  1.
          5    1    5    5  502    0 -0.82218826647E+02  0.28883468477E+02  0.44554116633E+01  0.87384958085E+02  0.47000000000E+01 0. -1.
         13    1    4    4    0    0 -0.27966996921E+02 -0.42609149748E+01 -0.51975727664E+02  0.59175878358E+02  0.00000000000E+00 0. -1.
        -14    1    4    4    0    0 -0.39152907364E+01 -0.70313395728E+02 -0.48257499363E+03  0.48768630040E+03  0.00000000000E+00 0.  1.
         -5    1    3    3    0  504  0.87760863576E+02 -0.34569599785E+02 -0.31325061571E+03  0.32717742074E+03  0.47000000000E+01 0.  1.
<mgrwt>
<rscale>  2 0.21223608E+03</rscale>
<asrwt>0</asrwt>
<pdfrwt beam="1">  1       21 0.25767053E-01 0.21255144E+03</pdfrwt>
<pdfrwt beam="2">  1       21 0.14357283E+00 0.21255144E+03</pdfrwt>
<totfact> 0.47142967E+03</totfact>
</mgrwt>
</event>
<event>
12    1  0.2736842E-001  0.1855615E+03  0.7546771E-02  0.1164752E+00
         21   -1    0    0  502  503  0.00000000000E+00  0.00000000000E+00  0.12330205293E+03  0.12330205293E+03  0.00000000000E+00 0.  1.
         21   -1    0    0  503  504 -0.00000000000E+00 -0.00000000000E+00 -0.29451438009E+03  0.29451438009E+03  0.00000000000E+00 0.  1.
         -6    2    1    2    0  504  0.14565373855E+02 -0.46071764356E+02 -0.21955271198E+02  0.18685587281E+03  0.17916005605E+03 0.  0.
        -24    2    3    3    0    0  0.54788963797E+02  0.28579020693E+02 -0.21842664261E+02  0.10192778808E+03  0.78061392648E+02 0.  0.
          6    2    1    2  502    0 -0.14565373855E+02  0.46071764356E+02 -0.14925705596E+03  0.23096056021E+03  0.16950030688E+03 0.  0.
         24    2    5    5    0    0  0.30353726660E+02  0.64796960277E+02 -0.14784353006E+03  0.18204791758E+03  0.78509490698E+02 0.  0.
          4    1    6    6  501    0  0.11756581123E+00  0.40687071616E+02 -0.13546484399E+03  0.14144318850E+03  0.00000000000E+00 0. -1.
         -3    1    6    6    0  501  0.30236160849E+02  0.24109888661E+02 -0.12378686078E+02  0.40604729073E+02  0.00000000000E+00 0.  1.
          5    1    5    5  502    0 -0.44919100515E+02 -0.18725195921E+02 -0.14135258946E+01  0.48912642628E+02  0.47000000000E+01 0. -1.
         11    1    4    4    0    0 -0.13548606540E+02  0.45590860914E+01 -0.25679444326E+02  0.29390200170E+02  0.00000000000E+00 0. -1.
        -12    1    4    4    0    0  0.68337570337E+02  0.24019934602E+02  0.38367800651E+01  0.72537587905E+02  0.00000000000E+00 0.  1.
         -5    1    3    3    0  504 -0.40223589942E+02 -0.74650785049E+02 -0.11260693759E+00  0.84928084734E+02  0.47000000000E+01 0.  1.
<mgrwt>
<rscale>  2 0.18318929E+03</rscale>
<asrwt>0</asrwt>
<pdfrwt beam="1">  1       21 0.18969547E-01 0.18556153E+03</pdfrwt>
<pdfrwt beam="2">  1       21 0.45309904E-01 0.18556153E+03</pdfrwt>
<totfact> 0.11932100E+05</totfact>
</mgrwt>
</event>
<event>
12    1  0.2736842E-001  0.2040165E+03  0.7546771E-02  0.1146547E+00
         21   -1    0    0  502  503  0.00000000000E+00  0.00000000000E+00  0.48014489153E+03  0.48014489153E+03  0.00000000000E+00 0. -1.
         21   -1    0    0  503  504 -0.00000000000E+00 -0.00000000000E+00 -0.14366024294E+03  0.14366024294E+03  0.00000000000E+00 0.  1.
         -6    2    1    2    0  504 -0.10698292693E+03 -0.61628572377E+01 -0.28534757405E+02  0.20600231122E+03  0.17360700557E+03 0.  0.
        -24    2    3    3    0    0  0.13654729688E+02 -0.14090238930E+02  0.43627891881E+01  0.80620390090E+02  0.78074495789E+02 0.  0.
          6    2    1    2  502    0  0.10698292693E+03  0.61628572377E+01  0.36501940599E+03  0.41780282325E+03  0.17273304520E+03 0.  0.
         24    2    5    5    0    0  0.12825177041E+03 -0.28632187620E+02  0.25762084567E+03  0.30282630562E+03  0.89816214941E+02 0.  0.
          4    1    6    6  501    0  0.62873244475E+02 -0.58508421490E+02  0.16003089504E+03  0.18162094489E+03  0.00000000000E+00 0. -1.
         -3    1    6    6    0  501  0.65378525934E+02  0.29876233870E+02  0.97589950634E+02  0.12120536072E+03  0.00000000000E+00 0.  1.
          5    1    5    5  502    0 -0.21268843478E+02  0.34795044858E+02  0.10739856032E+03  0.11497651764E+03  0.47000000000E+01 0. -1.
         11    1    4    4    0    0  0.17224525606E+02  0.21748987565E+02  0.26482272703E+02  0.38353793945E+02  0.00000000000E+00 0. -1.
        -12    1    4    4    0    0 -0.35697959186E+01 -0.35839226495E+02 -0.22119483514E+02  0.42266596144E+02  0.00000000000E+00 0.  1.
         -5    1    3    3    0  504 -0.12063765662E+03  0.79273816924E+01 -0.32897546593E+02  0.12538192113E+03  0.47000000000E+01 0.  1.
<mgrwt>
<rscale>  2 0.20383042E+03</rscale>
<asrwt>0</asrwt>
<pdfrwt beam="1">  1       21 0.73868444E-01 0.20401647E+03</pdfrwt>
<pdfrwt beam="2">  1       21 0.22101576E-01 0.20401647E+03</pdfrwt>
<totfact> 0.31277141E+04</totfact>
</mgrwt>
</event>
<event>
12    1  0.2736842E-001  0.3123783E+03  0.7546771E-02  0.1079303E+00
         21   -1    0    0  502  503  0.00000000000E+00  0.00000000000E+00  0.25978995258E+03  0.25978995258E+03  0.00000000000E+00 0.  1.
         21   -1    0    0  503  504 -0.00000000000E+00 -0.00000000000E+00 -0.38870463497E+03  0.38870463497E+03  0.00000000000E+00 0. -1.
         -6    2    1    2    0  504 -0.59912156998E+02 -0.25262087406E+03 -0.12611333948E+03  0.33687501539E+03  0.17370500578E+03 0.  0.
        -24    2    3    3    0    0 -0.10010270596E+03 -0.19285792740E+03 -0.12785237442E+03  0.26468080328E+03  0.80591352412E+02 0.  0.
          6    2    1    2  502    0  0.59912156998E+02  0.25262087406E+03 -0.28013429059E+01  0.31161957215E+03  0.17231406692E+03 0.  0.
         24    2    5    5    0    0  0.64966334250E+02  0.16262009026E+03 -0.63282790414E+02  0.20296515997E+03  0.80772682628E+02 0.  0.
          2    1    6    6  501    0  0.10301760286E+02 -0.56849873597E+01 -0.15883948481E+02  0.19767275118E+02  0.00000000000E+00 0. -1.
         -1    1    6    6    0  501  0.54664573965E+02  0.16830507762E+03 -0.47398841934E+02  0.18319788486E+03  0.00000000000E+00 0.  1.
          5    1    5    5  502    0 -0.50541772521E+01  0.90000783802E+02  0.60481447508E+02  0.10865441218E+03  0.47000000000E+01 0. -1.
         11    1    4    4    0    0 -0.89412338098E+02 -0.18580486903E+03 -0.90483890935E+02  0.22517848493E+03  0.00000000000E+00 0. -1.
        -12    1    4    4    0    0 -0.10690367857E+02 -0.70530583708E+01 -0.37368483483E+02  0.39502318351E+02  0.00000000000E+00 0.  1.
         -5    1    3    3    0  504  0.40190548957E+02 -0.59762946664E+02  0.17390349363E+01  0.72194212108E+02  0.47000000000E+01 0.  1.
<mgrwt>
<rscale>  2 0.31218529E+03</rscale>
<asrwt>0</asrwt>
<pdfrwt beam="1">  1       21 0.39967685E-01 0.31237830E+03</pdfrwt>
<pdfrwt beam="2">  1       21 0.59800713E-01 0.31237830E+03</pdfrwt>
<totfact> 0.14810975E+04</totfact>
</mgrwt>
</event>
<event>
12    1  0.2736842E-001  0.2166537E+03  0.7546771E-02  0.1136414E+00
         21   -1    0    0  502  503  0.00000000000E+00  0.00000000000E+00  0.11785092096E+03  0.11785092096E+03  0.00000000000E+00 0. -1.
         21   -1    0    0  503  504 -0.00000000000E+00 -0.00000000000E+00 -0.69004382983E+03  0.69004382983E+03  0.00000000000E+00 0. -1.
         -6    2    1    2    0  504 -0.12449280878E+03 -0.43007032426E+02 -0.54878273053E+03  0.58997996274E+03  0.17194710473E+03 0.  0.
        -24    2    3    3    0    0 -0.14661803506E+03 -0.56801640356E+02 -0.52626087410E+03  0.55520725989E+03  0.81125330690E+02 0.  0.
          6    2    1    2  502    0  0.12449280878E+03  0.43007032426E+02 -0.23410178333E+02  0.21791478805E+03  0.17201963297E+03 0.  0.
         24    2    5    5    0    0  0.75189735709E+02  0.46353358880E+02 -0.79443887289E+02  0.14305587105E+03  0.79696428899E+02 0.  0.
          2    1    6    6  501    0  0.79265516900E+01 -0.21790358266E+02 -0.16829730213E+02  0.28651173695E+02  0.00000000000E+00 0. -1.
         -1    1    6    6    0  501  0.67263184019E+02  0.68143717147E+02 -0.62614157076E+02  0.11440469736E+03  0.00000000000E+00 0.  1.
          5    1    5    5  502    0  0.49303073075E+02 -0.33463264540E+01  0.56033708956E+02  0.74858917002E+02  0.47000000000E+01 0. -1.
         11    1    4    4    0    0 -0.10912592489E+03 -0.48060256841E+01 -0.38272544696E+03  0.39800795610E+03  0.00000000000E+00 0. -1.
        -12    1    4    4    0    0 -0.37492110169E+02 -0.51995614672E+02 -0.14353542714E+03  0.15719930379E+03  0.00000000000E+00 0.  1.
         -5    1    3    3    0  504  0.22125226280E+02  0.13794607930E+02 -0.22521856433E+02  0.34772702844E+02  0.47000000000E+01 0.  1.
<mgrwt>
<rscale>  2 0.21663929E+03</rscale>
<asrwt>0</asrwt>
<pdfrwt beam="1">  1       21 0.18130911E-01 0.21665368E+03</pdfrwt>
<pdfrwt beam="2">  1       21 0.10616059E+00 0.21665368E+03</pdfrwt>
<totfact> 0.19423051E+04</totfact>
</mgrwt>
</event>
<event>
12    1  0.2736842E-001  0.1808058E+03  0.7546771E-02  0.1167220E+00
         21   -1    0    0  502  503  0.00000000000E+00  0.00000000000E+00  0.29755071949E+03  0.29755071949E+03  0.00000000000E+00 0.  1.
         21   -1    0    0  503  504 -0.00000000000E+00 -0.00000000000E+00 -0.11034140591E+03  0.11034140591E+03  0.00000000000E+00 0.  1.
         -6    2    1    2    0  504 -0.58057240162E+02 -0.36307199520E+01  0.11246834922E+03  0.21224712303E+03  0.17034050134E+03 0.  0.
        -24    2    3    3    0    0  0.59240722809E+01 -0.53975774063E+02  0.49338347215E+02  0.10911749601E+03  0.80770518212E+02 0.  0.
          6    2    1    2  502    0  0.58057240162E+02  0.36307199520E+01  0.74740964356E+02  0.19564500236E+03  0.17119266904E+03 0.  0.
         24    2    5    5    0    0  0.83699024622E+02  0.35358290098E+02  0.15042267938E+02  0.12318698575E+03  0.81810929784E+02 0.  0.
          4    1    6    6  501    0  0.46730454807E+02  0.56687115088E+02  0.27942436383E+02  0.78599899329E+02  0.00000000000E+00 0. -1.
         -3    1    6    6    0  501  0.36968569814E+02 -0.21328824991E+02 -0.12900168445E+02  0.44587086421E+02  0.00000000000E+00 0.  1.
          5    1    5    5  502    0 -0.25641784460E+02 -0.31727570146E+02  0.59698696418E+02  0.72458016614E+02  0.47000000000E+01 0. -1.
         13    1    4    4    0    0 -0.71964944237E+01 -0.19709056513E+02  0.65680211062E+02  0.68950174516E+02  0.00000000000E+00 0. -1.
        -14    1    4    4    0    0  0.13120566705E+02 -0.34266717550E+02 -0.16341863847E+02  0.40167321498E+02  0.00000000000E+00 0.  1.
         -5    1    3    3    0  504 -0.63981312443E+02  0.50345054111E+02  0.63130002009E+02  0.10312962702E+03  0.47000000000E+01 0.  1.
<mgrwt>
<rscale>  2 0.18060385E+03</rscale>
<asrwt>0</asrwt>
<pdfrwt beam="1">  1       21 0.45777033E-01 0.18080585E+03</pdfrwt>
<pdfrwt beam="2">  1       21 0.16975601E-01 0.18080585E+03</pdfrwt>
<totfact> 0.14365548E+05</totfact>
</mgrwt>
</event>
<event>
12    1  0.2736842E-001  0.1830703E+03  0.7546771E-02  0.1165006E+00
         21   -1    0    0  502  503  0.00000000000E+00  0.00000000000E+00  0.16820521016E+03  0.16820521016E+03  0.00000000000E+00 0.  1.
         21   -1    0    0  503  504 -0.00000000000E+00 -0.00000000000E+00 -0.20462424197E+03  0.20462424197E+03  0.00000000000E+00 0.  1.
         -6    2    1    2    0  504  0.57026297865E+01  0.57440609306E+02 -0.50170100252E+02  0.18924345252E+03  0.17310142050E+03 0.  0.
        -24    2    3    3    0    0 -0.27488399517E+02  0.78536888564E+02 -0.81339242134E+02  0.13884203558E+03  0.75745518405E+02 0.  0.
          6    2    1    2  502    0 -0.57026297865E+01 -0.57440609306E+02  0.13751068445E+02  0.18358599961E+03  0.17373193081E+03 0.  0.
         24    2    5    5    0    0  0.45539582946E+02  0.45788271894E+01 -0.17902539084E+02  0.97005310428E+02  0.83634383313E+02 0.  0.
          2    1    6    6  501    0  0.23809340606E+02  0.32257094066E+02 -0.39036301346E+02  0.55957462777E+02  0.00000000000E+00 0. -1.
         -1    1    6    6    0  501  0.21730242339E+02 -0.27678266876E+02  0.21133762262E+02  0.41047847651E+02  0.00000000000E+00 0.  1.
          5    1    5    5  502    0 -0.51242212732E+02 -0.62019436495E+02  0.31653607529E+02  0.86580689178E+02  0.47000000000E+01 0. -1.
         13    1    4    4    0    0 -0.25239975110E+02 -0.15479105017E+01 -0.88745206816E+00  0.25302963100E+02  0.00000000000E+00 0. -1.
        -14    1    4    4    0    0 -0.22484244072E+01  0.80084799066E+02 -0.80451790066E+02  0.11353907248E+03  0.00000000000E+00 0.  1.
         -5    1    3    3    0  504  0.33191029304E+02 -0.21096279258E+02  0.31169141882E+02  0.50401416949E+02  0.47000000000E+01 0.  1.
<mgrwt>
<rscale>  2 0.18292054E+03</rscale>
<asrwt>0</asrwt>
<pdfrwt beam="1">  1       21 0.25877725E-01 0.18307028E+03</pdfrwt>
<pdfrwt beam="2">  1       21 0.31480653E-01 0.18307028E+03</pdfrwt>
<totfact> 0.13795767E+05</totfact>
</mgrwt>
</event>
<event>
12    1  0.2736842E-001  0.2095750E+03  0.7546771E-02  0.1142105E+00
         21   -1    0    0  502  503  0.00000000000E+00  0.00000000000E+00  0.26673399934E+04  0.26673399934E+04  0.00000000000E+00 0.  1.
         21   -1    0    0  503  504 -0.00000000000E+00 -0.00000000000E+00 -0.19173566584E+02  0.19173566584E+02  0.00000000000E+00 0. -1.
         -6    2    1    2    0  504 -0.10790083240E+03  0.42444979599E+02  0.18334407877E+04  0.18452647606E+04  0.17335728661E+03 0.  0.
        -24    2    3    3    0    0 -0.88795003340E+02  0.79316078650E+02  0.16812685593E+04  0.16874579555E+04  0.81699388451E+02 0.  0.
          6    2    1    2  502    0  0.10790083240E+03 -0.42444979599E+02  0.81472563912E+03  0.84124879938E+03  0.17457808996E+03 0.  0.
         24    2    5    5    0    0  0.79160239980E+01 -0.64813509294E+02  0.34249205816E+03  0.35800563283E+03  0.81263576169E+02 0.  0.
          2    1    6    6  501    0 -0.12357771992E+02 -0.19329962022E+02  0.16568468559E+02  0.28299754606E+02  0.00000000000E+00 0. -1.
         -1    1    6    6    0  501  0.20273795990E+02 -0.45483547272E+02  0.32592358960E+03  0.32970587822E+03  0.00000000000E+00 0.  1.
          5    1    5    5  502    0  0.99984808400E+02  0.22368529695E+02  0.47223358096E+03  0.48324316655E+03  0.47000000000E+01 0. -1.
         13    1    4    4    0    0  0.92792272604E+01  0.34225120516E+02  0.33614638053E+03  0.33801161530E+03  0.00000000000E+00 0. -1.
        -14    1    4    4    0    0 -0.98074230600E+02  0.45090958133E+02  0.13451221788E+04  0.13494463402E+04  0.00000000000E+00 0.  1.
         -5    1    3    3    0  504 -0.19105829058E+02 -0.36871099051E+02  0.15217222845E+03  0.15780680518E+03  0.47000000000E+01 0.  1.
<mgrwt>
<rscale>  2 0.20932056E+03</rscale>
<asrwt>0</asrwt>
<pdfrwt beam="1">  1       21 0.41035970E+00 0.20957499E+03</pdfrwt>
<pdfrwt beam="2">  1       21 0.29497816E-02 0.20957499E+03</pdfrwt>
<totfact> 0.47746138E+03</totfact>
</mgrwt>
</event>
<event>
12    1  0.2736842E-001  0.2108399E+03  0.7546771E-02  0.1141035E+00
         21   -1    0    0  502  503  0.00000000000E+00  0.00000000000E+00  0.35348309078E+03  0.35348309078E+03  0.00000000000E+00 0.  1.
         21   -1    0    0  503  504 -0.00000000000E+00 -0.00000000000E+00 -0.40445093210E+03  0.40445093210E+03  0.00000000000E+00 0.  1.
         -6    2    1    2    0  504 -0.10338123582E+03 -0.60985951035E+02 -0.34027690970E+03  0.39994909670E+03  0.17252228416E+03 0.  0.
        -24    2    3    3    0    0 -0.11670285596E+03 -0.22858816622E+02 -0.32595008904E+03  0.35683886901E+03  0.83357278040E+02 0.  0.
          6    2    1    2  502    0  0.10338123582E+03  0.60985951035E+02  0.28930906838E+03  0.35798492618E+03  0.17333927479E+03 0.  0.
         24    2    5    5    0    0  0.13143943540E+03  0.16824698406E+02  0.25104607264E+03  0.29299549904E+03  0.72545407956E+02 0.  0.
          2    1    6    6  501    0  0.82480137548E+02 -0.24701748682E+02  0.12899181002E+03  0.15508719009E+03  0.00000000000E+00 0. -1.
         -1    1    6    6    0  501  0.48959297853E+02  0.41526447089E+02  0.12205426261E+03  0.13790830894E+03  0.00000000000E+00 0.  1.
          5    1    5    5  502    0 -0.28058199580E+02  0.44161252629E+02  0.38262995741E+02  0.64989427143E+02  0.47000000000E+01 0. -1.
         13    1    4    4    0    0 -0.23596276805E+02  0.26336166129E+02 -0.12582697231E+03  0.13070120461E+03  0.00000000000E+00 0. -1.
        -14    1    4    4    0    0 -0.93106579151E+02 -0.49194982751E+02 -0.20012311673E+03  0.22613766440E+03  0.00000000000E+00 0.  1.
         -5    1    3    3    0  504  0.13321620135E+02 -0.38127134413E+02 -0.14326820659E+02  0.43110227693E+02  0.47000000000E+01 0.  1.
<mgrwt>
<rscale>  2 0.21067192E+03</rscale>
<asrwt>0</asrwt>
<pdfrwt beam="1">  1       21 0.54382015E-01 0.21083992E+03</pdfrwt>
<pdfrwt beam="2">  1       21 0.62223220E-01 0.21083992E+03</pdfrwt>
<totfact> 0.75551146E+03</totfact>
</mgrwt>
</event>
<event>
12    1  0.2736842E-001  0.2752985E+03  0.7546771E-02  0.1098413E+00
         21   -1    0    0  502  503  0.00000000000E+00  0.00000000000E+00  0.12535320591E+04  0.12535320591E+04  0.00000000000E+00 0.  1.
         21   -1    0    0  503  504 -0.00000000000E+00 -0.00000000000E+00 -0.64345119950E+02  0.64345119950E+02  0.00000000000E+00 0.  1.
         -6    2    1    2    0  504  0.16082550561E+02  0.21367178006E+03  0.42761100557E+03  0.50807030364E+03  0.17137672924E+03 0.  0.
        -24    2    3    3    0    0 -0.74456754769E+01  0.12536160956E+03  0.37270584546E+03  0.40135137260E+03  0.80014410021E+02 0.  0.
          6    2    1    2  502    0 -0.16082550561E+02 -0.21367178006E+03  0.76157593358E+03  0.80980687541E+03  0.17284384521E+03 0.  0.
         24    2    5    5    0    0 -0.66421670032E+02 -0.17542913146E+03  0.49597316311E+03  0.53674378965E+03  0.83170299952E+02 0.  0.
          2    1    6    6  501    0 -0.67622162515E+02 -0.65175108918E+02  0.25491549066E+03  0.27166608008E+03  0.00000000000E+00 0. -1.
         -1    1    6    6    0  501  0.12004924831E+01 -0.11025402254E+03  0.24105767244E+03  0.26507770957E+03  0.00000000000E+00 0.  1.
          5    1    5    5  502    0  0.50339119470E+02 -0.38242648606E+02  0.26560277047E+03  0.27306308576E+03  0.47000000000E+01 0. -1.
         13    1    4    4    0    0 -0.16860081155E+02 -0.36718116047E+01  0.71177415604E+02  0.73239122258E+02  0.00000000000E+00 0. -1.
        -14    1    4    4    0    0  0.94144056783E+01  0.12903342116E+03  0.30152842986E+03  0.32811225034E+03  0.00000000000E+00 0.  1.
         -5    1    3    3    0  504  0.23528226038E+02  0.88310170507E+02  0.54905160105E+02  0.10671893104E+03  0.47000000000E+01 0.  1.
<mgrwt>
<rscale>  2 0.27506854E+03</rscale>
<asrwt>0</asrwt>
<pdfrwt beam="1">  1       21 0.19285107E+00 0.27529852E+03</pdfrwt>
<pdfrwt beam="2">  1       21 0.98992502E-02 0.27529852E+03</pdfrwt>
<totfact> 0.11655145E+04</totfact>
</mgrwt>
</event>
<event>
12    1  0.2736842E-001  0.2064444E+03  0.7546771E-02  0.1144426E+00
         21   -1    0    0  502  503  0.00000000000E+00  0.00000000000E+00  0.29311714829E+03  0.29311714829E+03  0.00000000000E+00 0. -1.
         21   -1    0    0  503  504 -0.00000000000E+00 -0.00000000000E+00 -0.21212585491E+03  0.21212585491E+03  0.00000000000E+00 0.  1.
         -6    2    1    2    0  504  0.51273089187E+02 -0.10193507211E+03 -0.10123148410E+03  0.22992844209E+03  0.17204530366E+03 0.  0.
        -24    2    3    3    0    0  0.56008982076E+02 -0.13328466108E+03 -0.10339243737E+03  0.19780391674E+03  0.86801995464E+02 0.  0.
          6    2    1    2  502    0 -0.51273089187E+02  0.10193507211E+03  0.18222277747E+03  0.27531456111E+03  0.17196882952E+03 0.  0.
         24    2    5    5    0    0  0.64663249856E+01  0.29483564936E+01  0.33770928201E+02  0.87718582022E+02  0.80644701472E+02 0.  0.
          2    1    6    6  501    0  0.13544090008E+02 -0.18229850011E+02  0.53374200650E+02  0.58004957552E+02  0.00000000000E+00 0. -1.
         -1    1    6    6    0  501 -0.70777650228E+01  0.21178206504E+02 -0.19603272449E+02  0.29713624470E+02  0.00000000000E+00 0.  1.
          5    1    5    5  502    0 -0.57739414172E+02  0.98986715614E+02  0.14845184927E+03  0.18759597908E+03  0.47000000000E+01 0. -1.
         11    1    4    4    0    0  0.25575193857E+02 -0.96099350138E+01 -0.55265811220E+02  0.61650233427E+02  0.00000000000E+00 0. -1.
        -12    1    4    4    0    0  0.30433788219E+02 -0.12367472607E+03 -0.48126626155E+02  0.13615368331E+03  0.00000000000E+00 0.  1.
         -5    1    3    3    0  504 -0.47358928891E+01  0.31349588974E+02  0.21609532785E+01  0.32124525357E+02  0.47000000000E+01 0.  1.
<mgrwt>
<rscale>  2 0.20642843E+03</rscale>
<asrwt>0</asrwt>
<pdfrwt beam="1">  1       21 0.45094946E-01 0.20644436E+03</pdfrwt>
<pdfrwt beam="2">  1       21 0.32634747E-01 0.20644436E+03</pdfrwt>
<totfact> 0.42339375E+04</totfact>
</mgrwt>
</event>
<event>
12    1  0.2736842E-001  0.1789223E+03  0.7546771E-02  0.1168857E+00
         21   -1    0    0  502  503  0.00000000000E+00  0.00000000000E+00  0.14814517190E+04  0.14814517190E+04  0.00000000000E+00 0. -1.
         21   -1    0    0  503  504 -0.00000000000E+00 -0.00000000000E+00 -0.30490107001E+02  0.30490107001E+02  0.00000000000E+00 0. -1.
         -6    2    1    2    0  504  0.22638626904E+02 -0.38621417947E+02  0.31736358925E+03  0.36431049463E+03  0.17320036768E+03 0.  0.
        -24    2    3    3    0    0 -0.12167958529E+02 -0.15050910578E+02  0.57409040222E+02  0.10093713841E+03  0.80733629218E+02 0.  0.
          6    2    1    2  502    0 -0.22638626904E+02  0.38621417947E+02  0.11335980227E+04  0.11476313313E+04  0.17323127378E+03 0.  0.
         24    2    5    5    0    0 -0.61780170426E+02 -0.13211661524E+02  0.87545331887E+03  0.88139927715E+03  0.80341986367E+02 0.  0.
          4    1    6    6  501    0 -0.28824997322E+02  0.10856277156E+02  0.94764396004E+02  0.99644518034E+02  0.00000000000E+00 0. -1.
         -3    1    6    6    0  501 -0.32955173104E+02 -0.24067938679E+02  0.78068892287E+03  0.78175475911E+03  0.00000000000E+00 0.  1.
          5    1    5    5  502    0  0.39141543523E+02  0.51833079470E+02  0.25814470384E+03  0.26623205419E+03  0.47000000000E+01 0. -1.
         13    1    4    4    0    0 -0.38726523077E+02 -0.30907706597E+02  0.22869459656E+02  0.54571440348E+02  0.00000000000E+00 0. -1.
        -14    1    4    4    0    0  0.26558564548E+02  0.15856796019E+02  0.34539580566E+02  0.46365698059E+02  0.00000000000E+00 0.  1.
         -5    1    3    3    0  504  0.34806585432E+02 -0.23570507369E+02  0.25995454903E+03  0.26337335623E+03  0.47000000000E+01 0.  1.
<mgrwt>
<rscale>  2 0.17891484E+03</rscale>
<asrwt>0</asrwt>
<pdfrwt beam="1">  1       21 0.22791559E+00 0.17892232E+03</pdfrwt>
<pdfrwt beam="2">  1       21 0.46907868E-02 0.17892232E+03</pdfrwt>
<totfact> 0.27278816E+04</totfact>
</mgrwt>
</event>
<event>
12    1  0.2736842E-001  0.1885351E+03  0.7546771E-02  0.1159965E+00
         21   -1    0    0  502  503  0.00000000000E+00  0.00000000000E+00  0.56195470685E+02  0.56195470685E+02  0.00000000000E+00 0.  1.
         21   -1    0    0  503  504 -0.00000000000E+00 -0.00000000000E+00 -0.10899582788E+04  0.10899582788E+04  0.00000000000E+00 0. -1.
         -6    2    1    2    0  504 -0.63848641884E+02  0.39316267340E+02 -0.88979378174E+03  0.90954849531E+03  0.17298287011E+03 0.  0.
        -24    2    3    3    0    0 -0.98770030231E+02  0.51079165534E+02 -0.51138702912E+03  0.52932273400E+03  0.79380496039E+02 0.  0.
          6    2    1    2  502    0  0.63848641884E+02 -0.39316267340E+02 -0.14396902640E+03  0.23660525420E+03  0.17214106948E+03 0.  0.
         24    2    5    5    0    0  0.95047011802E+02 -0.68884418240E+02 -0.12221246780E+03  0.18820017517E+03  0.81880529558E+02 0.  0.
          2    1    6    6  501    0  0.10135217823E+02 -0.66932452150E+01 -0.69376699828E+02  0.70431872408E+02  0.00000000000E+00 0. -1.
         -1    1    6    6    0  501  0.84911793978E+02 -0.62191173025E+02 -0.52835767970E+02  0.11776830276E+03  0.00000000000E+00 0.  1.
          5    1    5    5  502    0 -0.31198369917E+02  0.29568150901E+02 -0.21756558598E+02  0.48405079023E+02  0.47000000000E+01 0. -1.
         11    1    4    4    0    0 -0.73491832787E+02  0.41647595861E+01 -0.38797615118E+03  0.39489731399E+03  0.00000000000E+00 0. -1.
        -12    1    4    4    0    0 -0.25278197444E+02  0.46914405948E+02 -0.12341087794E+03  0.13442542001E+03  0.00000000000E+00 0.  1.
         -5    1    3    3    0  504  0.34921388347E+02 -0.11762898194E+02 -0.37840675262E+03  0.38022576131E+03  0.47000000000E+01 0.  1.
<mgrwt>
<rscale>  2 0.18834181E+03</rscale>
<asrwt>0</asrwt>
<pdfrwt beam="1">  1       21 0.86454571E-02 0.18853512E+03</pdfrwt>
<pdfrwt beam="2">  1       21 0.16768589E+00 0.18853512E+03</pdfrwt>
<totfact> 0.23286413E+04</totfact>
</mgrwt>
</event>
<event>
12    1  0.2736842E-001  0.1779203E+03  0.7546771E-02  0.1169949E+00
         21   -1    0    0  502  503  0.00000000000E+00  0.00000000000E+00  0.22105937685E+03  0.22105937685E+03  0.00000000000E+00 0.  1.
         21   -1    0    0  503  504 -0.00000000000E+00 -0.00000000000E+00 -0.25257207207E+03  0.25257207207E+03  0.00000000000E+00 0.  1.
         -6    2    1    2    0  504 -0.29324275679E+01 -0.42338058724E+02 -0.17188029004E+03  0.24738322209E+03  0.17278458877E+03 0.  0.
        -24    2    3    3    0    0 -0.46121413680E+02 -0.70605483530E+02 -0.13959363512E+03  0.18631887968E+03  0.90088971897E+02 0.  0.
          6    2    1    2  502    0  0.29324275679E+01  0.42338058724E+02  0.14036759483E+03  0.22624822683E+03  0.17229070816E+03 0.  0.
         24    2    5    5    0    0  0.38588013695E+02 -0.31289175925E+02  0.78141763732E+02  0.12335782612E+03  0.81504421317E+02 0.  0.
          2    1    6    6  501    0  0.52821990227E+02 -0.24731574772E+02  0.87460673594E+02  0.10512460639E+03  0.00000000000E+00 0. -1.
         -1    1    6    6    0  501 -0.14233976532E+02 -0.65576011525E+01 -0.93189098617E+01  0.18233219732E+02  0.00000000000E+00 0.  1.
          5    1    5    5  502    0 -0.35655586128E+02  0.73627234648E+02  0.62225831094E+02  0.10289040072E+03  0.47000000000E+01 0. -1.
         11    1    4    4    0    0 -0.58473931833E+02 -0.37111126955E+02 -0.38787863221E+02  0.79378427681E+02  0.00000000000E+00 0. -1.
        -12    1    4    4    0    0  0.12352518153E+02 -0.33494356575E+02 -0.10080577190E+03  0.10694045200E+03  0.00000000000E+00 0.  1.
         -5    1    3    3    0  504  0.43188986112E+02  0.28267424806E+02 -0.32286654926E+02  0.61064342401E+02  0.47000000000E+01 0.  1.
<mgrwt>
<rscale>  2 0.17780026E+03</rscale>
<asrwt>0</asrwt>
<pdfrwt beam="1">  1       21 0.34009135E-01 0.17792028E+03</pdfrwt>
<pdfrwt beam="2">  1       21 0.38857242E-01 0.17792028E+03</pdfrwt>
<totfact> 0.53559684E+04</totfact>
</mgrwt>
</event>
<event>
12    1  0.2736842E-001  0.2004751E+03  0.7546771E-02  0.1152171E+00
         21   -1    0    0  502  503  0.00000000000E+00  0.00000000000E+00  0.18771864908E+03  0.18771864908E+03  0.00000000000E+00 0.  1.
         21   -1    0    0  503  504 -0.00000000000E+00 -0.00000000000E+00 -0.28051560104E+03  0.28051560104E+03  0.00000000000E+00 0.  1.
         -6    2    1    2    0  504 -0.66310702152E+02 -0.23687266335E+02 -0.17254113602E+03  0.26450084335E+03  0.18770204236E+03 0.  0.
        -24    2    3    3    0    0 -0.38481970704E+02 -0.74687473149E+02 -0.45050852271E+02  0.12431767090E+03  0.79788616307E+02 0.  0.
          6    2    1    2  502    0  0.66310702152E+02  0.23687266335E+02  0.79744184065E+02  0.20373340677E+03  0.17375261246E+03 0.  0.
         24    2    5    5    0    0  0.28645232954E+02 -0.51609292524E+02  0.25315229186E+02  0.10336976557E+03  0.80996167563E+02 0.  0.
          2    1    6    6  501    0  0.33568431581E+02 -0.30409893181E+02 -0.22691139224E+02  0.50660527054E+02  0.00000000000E+00 0. -1.
         -1    1    6    6    0  501 -0.49231986269E+01 -0.21199399342E+02  0.48006368410E+02  0.52709238518E+02  0.00000000000E+00 0.  1.
          5    1    5    5  502    0  0.37665469198E+02  0.75296558859E+02  0.54428954879E+02  0.10036364120E+03  0.47000000000E+01 0. -1.
         11    1    4    4    0    0  0.20536674592E+02 -0.36086867846E+02 -0.32409800015E+02  0.52672689046E+02  0.00000000000E+00 0. -1.
        -12    1    4    4    0    0 -0.59018645296E+02 -0.38600605303E+02 -0.12641052255E+02  0.71644981851E+02  0.00000000000E+00 0.  1.
         -5    1    3    3    0  504 -0.27828731448E+02  0.51000206814E+02 -0.12749028374E+03  0.14018317245E+03  0.47000000000E+01 0.  1.
<mgrwt>
<rscale>  2 0.19714379E+03</rscale>
<asrwt>0</asrwt>
<pdfrwt beam="1">  1       21 0.28879792E-01 0.20047507E+03</pdfrwt>
<pdfrwt beam="2">  1       21 0.43156246E-01 0.20047507E+03</pdfrwt>
<totfact> 0.59021856E+04</totfact>
</mgrwt>
</event>
<event>
12    1  0.2736842E-001  0.1937267E+03  0.7546771E-02  0.1155297E+00
         21   -1    0    0  502  503  0.00000000000E+00  0.00000000000E+00  0.78163773145E+02  0.78163773145E+02  0.00000000000E+00 0. -1.
         21   -1    0    0  503  504 -0.00000000000E+00 -0.00000000000E+00 -0.91401973454E+03  0.91401973454E+03  0.00000000000E+00 0. -1.
         -6    2    1    2    0  504 -0.83839308555E+02  0.20038078236E+02 -0.76080347808E+03  0.78508087235E+03  0.17349204486E+03 0.  0.
        -24    2    3    3    0    0 -0.64225545254E+02  0.54897850615E+02 -0.71936981572E+03  0.72729902557E+03  0.65819800604E+02 0.  0.
          6    2    1    2  502    0  0.83839308555E+02 -0.20038078236E+02 -0.75052483309E+02  0.20710263533E+03  0.17270805445E+03 0.  0.
         24    2    5    5    0    0 -0.17779689877E+02 -0.95688173627E+01 -0.63634802236E+02  0.10420229662E+03  0.80006568027E+02 0.  0.
          2    1    6    6  501    0  0.20449297939E+02  0.86438601847E+01  0.57343076578E+01  0.22929727199E+02  0.00000000000E+00 0. -1.
         -1    1    6    6    0  501 -0.38228987816E+02 -0.18212677547E+02 -0.69369109894E+02  0.81272569421E+02  0.00000000000E+00 0.  1.
          5    1    5    5  502    0  0.10161899843E+03 -0.10469260873E+02 -0.11417681073E+02  0.10290033871E+03  0.47000000000E+01 0. -1.
         13    1    4    4    0    0 -0.19278793654E+01  0.19904447807E+02 -0.37813875755E+03  0.37866716747E+03  0.00000000000E+00 0. -1.
        -14    1    4    4    0    0 -0.62297665889E+02  0.34993402808E+02 -0.34123105818E+03  0.34863185810E+03  0.00000000000E+00 0.  1.
         -5    1    3    3    0  504 -0.19613763301E+02 -0.34859772380E+02 -0.41433662357E+02  0.57781846781E+02  0.47000000000E+01 0.  1.
<mgrwt>
<rscale>  2 0.19355104E+03</rscale>
<asrwt>0</asrwt>
<pdfrwt beam="1">  1       21 0.12025195E-01 0.19372672E+03</pdfrwt>
<pdfrwt beam="2">  1       21 0.14061843E+00 0.19372672E+03</pdfrwt>
<totfact> 0.20668741E+04</totfact>
</mgrwt>
</event>
<event>
12    1  0.2736842E-001  0.2141754E+03  0.7546771E-02  0.1138420E+00
         21   -1    0    0  502  503  0.00000000000E+00  0.00000000000E+00  0.49194431046E+03  0.49194431046E+03  0.00000000000E+00 0.  1.
         21   -1    0    0  503  504 -0.00000000000E+00 -0.00000000000E+00 -0.36972702365E+03  0.36972702365E+03  0.00000000000E+00 0.  1.
         -6    2    1    2    0  504  0.87337766361E+02  0.90373751958E+02 -0.31165959765E+03  0.37781159223E+03  0.17266903004E+03 0.  0.
        -24    2    3    3    0    0  0.10470160176E+03  0.17183097807E+02 -0.22639216957E+03  0.26400913651E+03  0.84792248811E+02 0.  0.
          6    2    1    2  502    0 -0.87337766361E+02 -0.90373751958E+02  0.43387688447E+03  0.48385974188E+03  0.17342375404E+03 0.  0.
         24    2    5    5    0    0  0.13643987089E+02 -0.75393094223E+02  0.24805800967E+03  0.27179258538E+03  0.80424848566E+02 0.  0.
          4    1    6    6  501    0  0.38128092523E+02 -0.77410873954E+02  0.19992133698E+03  0.21774924989E+03  0.00000000000E+00 0. -1.
         -3    1    6    6    0  501 -0.24484105433E+02  0.20177797308E+01  0.48136672685E+02  0.54043335492E+02  0.00000000000E+00 0.  1.
          5    1    5    5  502    0 -0.10098175345E+03 -0.14980657735E+02  0.18581887480E+03  0.21206715651E+03  0.47000000000E+01 0. -1.
         13    1    4    4    0    0 -0.43346468986E+01 -0.37265841350E+01  0.48495207490E+01  0.74962953881E+01  0.00000000000E+00 0. -1.
        -14    1    4    4    0    0  0.10903624865E+03  0.20909681942E+02 -0.23124169032E+03  0.25651284112E+03  0.00000000000E+00 0.  1.
         -5    1    3    3    0  504 -0.17363835394E+02  0.73190654151E+02 -0.85267428083E+02  0.11380245571E+03  0.47000000000E+01 0.  1.
<mgrwt>
<rscale>  2 0.21402256E+03</rscale>
<asrwt>0</asrwt>
<pdfrwt beam="1">  1       21 0.75683740E-01 0.21417539E+03</pdfrwt>
<pdfrwt beam="2">  1       21 0.56881080E-01 0.21417539E+03</pdfrwt>
<totfact> 0.44500615E+03</totfact>
</mgrwt>
</event>
<event>
12    1  0.2736842E-001  0.2125043E+03  0.7546771E-02  0.1141313E+00
         21   -1    0    0  502  503  0.00000000000E+00  0.00000000000E+00  0.77457384788E+02  0.77457384788E+02  0.00000000000E+00 0. -1.
         21   -1    0    0  503  504 -0.00000000000E+00 -0.00000000000E+00 -0.90145799302E+03  0.90145799302E+03  0.00000000000E+00 0.  1.
         -6    2    1    2    0  504 -0.11201507377E+03 -0.74601793469E+01 -0.70807399140E+03  0.73684708977E+03  0.17021112002E+03 0.  0.
        -24    2    3    3    0    0 -0.48116396427E+02  0.10886616043E+02 -0.61609114372E+03  0.62325756501E+03  0.80299370858E+02 0.  0.
          6    2    1    2  502    0  0.11201507377E+03  0.74601793469E+01 -0.11592661684E+03  0.24206828804E+03  0.18043016531E+03 0.  0.
         24    2    5    5    0    0  0.80335309273E+02 -0.14180580189E+02 -0.15101149022E+03  0.18986705919E+03  0.81179918804E+02 0.  0.
          2    1    6    6  501    0  0.15200261802E+00  0.23548326869E+02 -0.51433478694E+02  0.56568096430E+02  0.00000000000E+00 0. -1.
         -1    1    6    6    0  501  0.80183306655E+02 -0.37728907057E+02 -0.99578011531E+02  0.13329896277E+03  0.00000000000E+00 0.  1.
          5    1    5    5  502    0  0.31679764501E+02  0.21640759536E+02  0.35084873388E+02  0.52201228844E+02  0.47000000000E+01 0. -1.
         11    1    4    4    0    0  0.15073426209E+02 -0.12129791748E+02 -0.58293107672E+02  0.61420081631E+02  0.00000000000E+00 0. -1.
        -12    1    4    4    0    0 -0.63189822636E+02  0.23016407790E+02 -0.55779803605E+03  0.56183748338E+03  0.00000000000E+00 0.  1.
         -5    1    3    3    0  504 -0.63898677347E+02 -0.18346795390E+02 -0.91982847676E+02  0.11358952476E+03  0.47000000000E+01 0.  1.
<mgrwt>
<rscale>  2 0.21031954E+03</rscale>
<asrwt>0</asrwt>
<pdfrwt beam="1">  1       21 0.11916521E-01 0.21250430E+03</pdfrwt>
<pdfrwt beam="2">  1       21 0.13868584E+00 0.21250430E+03</pdfrwt>
<totfact> 0.21511013E+04</totfact>
</mgrwt>
</event>
<event>
12    1  0.2736842E-001  0.1799269E+03  0.7546771E-02  0.1168224E+00
         21   -1    0    0  502  503  0.00000000000E+00  0.00000000000E+00  0.49362294771E+03  0.49362294771E+03  0.00000000000E+00 0. -1.
         21   -1    0    0  503  504 -0.00000000000E+00 -0.00000000000E+00 -0.13690690732E+03  0.13690690732E+03  0.00000000000E+00 0. -1.
         -6    2    1    2    0  504  0.40122373770E+02 -0.21442303757E+02 -0.50368258383E+02  0.18545533490E+03  0.17258952032E+03 0.  0.
        -24    2    3    3    0    0  0.87992122842E+02 -0.32633499419E+02 -0.11950447371E+02  0.12288718055E+03  0.78427590704E+02 0.  0.
          6    2    1    2  502    0 -0.40122373770E+02  0.21442303757E+02  0.40708429877E+03  0.44507452013E+03  0.17408079991E+03 0.  0.
         24    2    5    5    0    0  0.29556616952E+02 -0.14270309559E+02  0.12720666455E+03  0.15441297704E+03  0.81145527482E+02 0.  0.
          4    1    6    6  501    0  0.58598174381E+01 -0.46491006629E+02  0.58999366562E+02  0.75343721785E+02  0.00000000000E+00 0. -1.
         -3    1    6    6    0  501  0.23696799514E+02  0.32220697070E+02  0.68207297989E+02  0.79069255250E+02  0.00000000000E+00 0.  1.
          5    1    5    5  502    0 -0.69678990722E+02  0.35712613316E+02  0.27987763422E+03  0.29066154309E+03  0.47000000000E+01 0. -1.
         13    1    4    4    0    0  0.72442281198E+02 -0.77260620653E+00 -0.35144772672E+02  0.80521028755E+02  0.00000000000E+00 0. -1.
        -14    1    4    4    0    0  0.15549841644E+02 -0.31860893213E+02  0.23194325301E+02  0.42366151792E+02  0.00000000000E+00 0.  1.
         -5    1    3    3    0  504 -0.47869749072E+02  0.11191195662E+02 -0.38417811012E+02  0.62568154356E+02  0.47000000000E+01 0.  1.
<mgrwt>
<rscale>  2 0.17956524E+03</rscale>
<asrwt>0</asrwt>
<pdfrwt beam="1">  1       21 0.75941991E-01 0.17992694E+03</pdfrwt>
<pdfrwt beam="2">  1       21 0.21062601E-01 0.17992694E+03</pdfrwt>
<totfact> 0.32616036E+04</totfact>
</mgrwt>
</event>
<event>
12    1  0.2736842E-001  0.2938872E+03  0.7546771E-02  0.1088388E+00
         21   -1    0    0  502  503  0.00000000000E+00  0.00000000000E+00  0.61930744301E+03  0.61930744301E+03  0.00000000000E+00 0. -1.
         21   -1    0    0  503  504 -0.00000000000E+00 -0.00000000000E+00 -0.14045537535E+03  0.14045537535E+03  0.00000000000E+00 0. -1.
         -6    2    1    2    0  504  0.23409416281E+03  0.41194721260E+02  0.20439143908E+03  0.35764549881E+03  0.17215504735E+03 0.  0.
        -24    2    3    3    0    0  0.42098364924E+02 -0.99086696170E+01  0.67725477351E+02  0.11645342170E+03  0.84286446602E+02 0.  0.
          6    2    1    2  502    0 -0.23409416281E+03 -0.41194721260E+02  0.27446062859E+03  0.40211731955E+03  0.17283697497E+03 0.  0.
         24    2    5    5    0    0 -0.52645132274E+02 -0.30543941663E+02  0.47167415528E+02  0.11104776688E+03  0.80014993077E+02 0.  0.
          4    1    6    6  501    0 -0.48380742747E+02 -0.54904682164E+02  0.23613340051E+02  0.76894799699E+02  0.00000000000E+00 0. -1.
         -3    1    6    6    0  501 -0.42643895272E+01  0.24360740501E+02  0.23554075477E+02  0.34152967182E+02  0.00000000000E+00 0.  1.
          5    1    5    5  502    0 -0.18144903053E+03 -0.10650779597E+02  0.22729321306E+03  0.29106955267E+03  0.47000000000E+01 0. -1.
         13    1    4    4    0    0  0.44549396849E+02  0.61008744454E+00 -0.32395577155E+01  0.44671195422E+02  0.00000000000E+00 0. -1.
        -14    1    4    4    0    0 -0.24510319250E+01 -0.10518757062E+02  0.70965035066E+02  0.71782226279E+02  0.00000000000E+00 0.  1.
         -5    1    3    3    0  504  0.19199579789E+03  0.51103390877E+02  0.13666596172E+03  0.24119207711E+03  0.47000000000E+01 0.  1.
<mgrwt>
<rscale>  2 0.29378704E+03</rscale>
<asrwt>0</asrwt>
<pdfrwt beam="1">  1       21 0.95278067E-01 0.29388723E+03</pdfrwt>
<pdfrwt beam="2">  1       21 0.21608520E-01 0.29388723E+03</pdfrwt>
<totfact> 0.17416697E+04</totfact>
</mgrwt>
</event>
<event>
12    1  0.2736842E-001  0.1866205E+03  0.7546771E-02  0.1161586E+00
         21   -1    0    0  502  503  0.00000000000E+00  0.00000000000E+00  0.14110945358E+03  0.14110945358E+03  0.00000000000E+00 0. -1.
         21   -1    0    0  503  504 -0.00000000000E+00 -0.00000000000E+00 -0.79320047781E+03  0.79320047781E+03  0.00000000000E+00 0. -1.
         -6    2    1    2    0  504  0.67793959638E+02 -0.12999808254E+02 -0.71380310490E+03  0.73775052381E+03  0.17319337990E+03 0.  0.
        -24    2    3    3    0    0  0.93667266470E+02  0.34914326971E+02 -0.50865055914E+03  0.52544214105E+03  0.85857354018E+02 0.  0.
          6    2    1    2  502    0 -0.67793959638E+02  0.12999808254E+02  0.61712080668E+02  0.19655940757E+03  0.17338455475E+03 0.  0.
         24    2    5    5    0    0 -0.57523799569E+02 -0.48440535753E+02  0.74968184627E+02  0.13269857175E+03  0.79581462781E+02 0.  0.
          4    1    6    6  501    0 -0.65526046320E+02 -0.13810180788E+02  0.69892002060E+02  0.96795019457E+02  0.00000000000E+00 0. -1.
         -3    1    6    6    0  501  0.80022467515E+01 -0.34630354965E+02  0.50761825669E+01  0.35903552297E+02  0.00000000000E+00 0.  1.
          5    1    5    5  502    0 -0.10270160070E+02  0.61440344006E+02 -0.13256103959E+02  0.63860835820E+02  0.47000000000E+01 0. -1.
         13    1    4    4    0    0  0.47601236182E+02  0.62037410475E+02 -0.29103862777E+03  0.30136025093E+03  0.00000000000E+00 0. -1.
        -14    1    4    4    0    0  0.46066030288E+02 -0.27123083504E+02 -0.21761193137E+03  0.22408189012E+03  0.00000000000E+00 0.  1.
         -5    1    3    3    0  504 -0.25873306831E+02 -0.47914135224E+02 -0.20515254576E+03  0.21230838277E+03  0.47000000000E+01 0.  1.
<mgrwt>
<rscale>  2 0.18657611E+03</rscale>
<asrwt>0</asrwt>
<pdfrwt beam="1">  1       21 0.21709147E-01 0.18662052E+03</pdfrwt>
<pdfrwt beam="2">  1       21 0.12203084E+00 0.18662052E+03</pdfrwt>
<totfact> 0.10069637E+04</totfact>
</mgrwt>
</event>
<event>
12    1  0.2736842E-001  0.1849260E+03  0.7546771E-02  0.1163430E+00
         21   -1    0    0  502  503  0.00000000000E+00  0.00000000000E+00  0.17656772042E+03  0.17656772042E+03  0.00000000000E+00 0. -1.
         21   -1    0    0  503  504 -0.00000000000E+00 -0.00000000000E+00 -0.33291721550E+03  0.33291721550E+03  0.00000000000E+00 0. -1.
         -6    2    1    2    0  504 -0.63329809205E+02 -0.13543145486E+01 -0.24357458922E+03  0.30502017346E+03  0.17232593189E+03 0.  0.
        -24    2    3    3    0    0  0.94134235051E+01  0.13119565077E+02 -0.20559962103E+03  0.22156204440E+03  0.80980243409E+02 0.  0.
          6    2    1    2  502    0  0.63329809205E+02  0.13543145486E+01  0.87225094147E+02  0.20446476246E+03  0.17373866334E+03 0.  0.
         24    2    5    5    0    0 -0.29306236141E+02 -0.17898109611E+02  0.15380181122E+02  0.85570379666E+02  0.76854031127E+02 0.  0.
          4    1    6    6  501    0 -0.75938789467E+01 -0.37800147546E+02  0.33426426631E+02  0.51027876198E+02  0.00000000000E+00 0. -1.
         -3    1    6    6    0  501 -0.21712357194E+02  0.19902037934E+02 -0.18046245509E+02  0.34542503468E+02  0.00000000000E+00 0.  1.
          5    1    5    5  502    0  0.92636045346E+02  0.19252424160E+02  0.71844913025E+02  0.11889438280E+03  0.47000000000E+01 0. -1.
         11    1    4    4    0    0 -0.24760097934E+02 -0.56399154256E+01 -0.15803806381E+03  0.16006530138E+03  0.00000000000E+00 0. -1.
        -12    1    4    4    0    0  0.34173521439E+02  0.18759480503E+02 -0.47561557221E+02  0.61496743016E+02  0.00000000000E+00 0.  1.
         -5    1    3    3    0  504 -0.72743232710E+02 -0.14473879626E+02 -0.37974968194E+02  0.83458129058E+02  0.47000000000E+01 0.  1.
<mgrwt>
<rscale>  2 0.18459344E+03</rscale>
<asrwt>0</asrwt>
<pdfrwt beam="1">  1       21 0.27164265E-01 0.18492599E+03</pdfrwt>
<pdfrwt beam="2">  1       21 0.51218033E-01 0.18492599E+03</pdfrwt>
<totfact> 0.46980592E+04</totfact>
</mgrwt>
</event>
<event>
12    1  0.2736842E-001  0.1932751E+03  0.7546771E-02  0.1155716E+00
         21   -1    0    0  502  503  0.00000000000E+00  0.00000000000E+00  0.80669529949E+03  0.80669529949E+03  0.00000000000E+00 0. -1.
         21   -1    0    0  503  504 -0.00000000000E+00 -0.00000000000E+00 -0.21526930766E+03  0.21526930766E+03  0.00000000000E+00 0. -1.
         -6    2    1    2    0  504  0.71111894665E+02  0.47377294713E+02 -0.15737195614E+03  0.24862533759E+03  0.17247352346E+03 0.  0.
        -24    2    3    3    0    0 -0.18771106400E+02 -0.11477814691E+02 -0.54972935929E+02  0.10013113863E+03  0.80747300721E+02 0.  0.
          6    2    1    2  502    0 -0.71111894665E+02 -0.47377294713E+02  0.74879794797E+03  0.77333926956E+03  0.17336017232E+03 0.  0.
         24    2    5    5    0    0 -0.16819597305E+02  0.23165212954E+02  0.18277432830E+03  0.20033950781E+03  0.76876116971E+02 0.  0.
          4    1    6    6  501    0  0.26910338888E+02  0.20279897553E+02  0.48211731947E+02  0.58820163900E+02  0.00000000000E+00 0. -1.
         -3    1    6    6    0  501 -0.43729936194E+02  0.28853154010E+01  0.13456259635E+03  0.14151934391E+03  0.00000000000E+00 0.  1.
          5    1    5    5  502    0 -0.54292297360E+02 -0.70542507668E+02  0.56602361967E+03  0.57299976175E+03  0.47000000000E+01 0. -1.
         13    1    4    4    0    0  0.30490599826E+02  0.66148256642E+01 -0.19671669028E+02  0.36883697736E+02  0.00000000000E+00 0. -1.
        -14    1    4    4    0    0 -0.49261706226E+02 -0.18092640355E+02 -0.35301266901E+02  0.63247440897E+02  0.00000000000E+00 0.  1.
         -5    1    3    3    0  504  0.89883001065E+02  0.58855109404E+02 -0.10239902021E+03  0.14849419896E+03  0.47000000000E+01 0.  1.
<mgrwt>
<rscale>  2 0.19307606E+03</rscale>
<asrwt>0</asrwt>
<pdfrwt beam="1">  1       21 0.12410697E+00 0.19327509E+03</pdfrwt>
<pdfrwt beam="2">  1       21 0.33118355E-01 0.19327509E+03</pdfrwt>
<totfact> 0.42613311E+03</totfact>
</mgrwt>
</event>
<event>
12    1  0.2736842E-001  0.1955618E+03  0.7546771E-02  0.1153876E+00
         21   -1    0    0  502  503  0.00000000000E+00  0.00000000000E+00  0.24483691243E+03  0.24483691243E+03  0.00000000000E+00 0. -1.
         21   -1    0    0  503  504 -0.00000000000E+00 -0.00000000000E+00 -0.64209916864E+03  0.64209916864E+03  0.00000000000E+00 0. -1.
         -6    2    1    2    0  504 -0.84137895126E+02 -0.30161221468E+02 -0.58508474270E+03  0.61690240598E+03  0.17394119033E+03 0.  0.
        -24    2    3    3    0    0 -0.10693566531E+03 -0.32678427836E+02 -0.34459146861E+03  0.37527215222E+03  0.97891735261E+02 0.  0.
          6    2    1    2  502    0  0.84137895126E+02  0.30161221468E+02  0.18782248648E+03  0.27003367509E+03  0.17219760328E+03 0.  0.
         24    2    5    5    0    0  0.22310000740E+02 -0.27469046968E+02  0.34318666475E+02  0.94735503045E+02  0.80899690941E+02 0.  0.
          4    1    6    6  501    0  0.12491389553E+02 -0.30139525915E+02  0.59343779701E+02  0.67720824157E+02  0.00000000000E+00 0. -1.
         -3    1    6    6    0  501  0.98186111862E+01  0.26704789474E+01 -0.25025113226E+02  0.27014678888E+02  0.00000000000E+00 0.  1.
          5    1    5    5  502    0  0.61827894386E+02  0.57630268435E+02  0.15350382001E+03  0.17529817204E+03  0.47000000000E+01 0. -1.
         13    1    4    4    0    0 -0.52706862595E+02  0.27253880769E+02 -0.21052130611E+03  0.21872358745E+03  0.00000000000E+00 0. -1.
        -14    1    4    4    0    0 -0.54228802710E+02 -0.59932308605E+02 -0.13407016250E+03  0.15654856477E+03  0.00000000000E+00 0.  1.
         -5    1    3    3    0  504  0.22797770180E+02  0.25172063684E+01 -0.24049327409E+03  0.24163025376E+03  0.47000000000E+01 0.  1.
<mgrwt>
<rscale>  2 0.19517336E+03</rscale>
<asrwt>0</asrwt>
<pdfrwt beam="1">  1       21 0.37667218E-01 0.19556181E+03</pdfrwt>
<pdfrwt beam="2">  1       21 0.98784486E-01 0.19556181E+03</pdfrwt>
<totfact> 0.57313941E+03</totfact>
</mgrwt>
</event>
<event>
12    1  0.2736842E-001  0.2706020E+03  0.7546771E-02  0.1101040E+00
         21   -1    0    0  502  503  0.00000000000E+00  0.00000000000E+00  0.20104355390E+03  0.20104355390E+03  0.00000000000E+00 0.  1.
         21   -1    0    0  503  504 -0.00000000000E+00 -0.00000000000E+00 -0.68295550031E+03  0.68295550031E+03  0.00000000000E+00 0.  1.
         -6    2    1    2    0  504 -0.26226302667E+02  0.20624494845E+03 -0.54354260762E+03  0.60717709624E+03  0.17320699230E+03 0.  0.
        -24    2    3    3    0    0  0.38439587221E+02  0.13969568905E+03 -0.23984888601E+03  0.28958860811E+03  0.73086157546E+02 0.  0.
          6    2    1    2  502    0  0.26226302667E+02 -0.20624494845E+03  0.61630661212E+02  0.27682195797E+03  0.17206760387E+03 0.  0.
         24    2    5    5    0    0  0.32691491714E+02 -0.20283556844E+03  0.47374924560E+01  0.21926898070E+03  0.76455481219E+02 0.  0.
          4    1    6    6  501    0 -0.26850819502E+01 -0.50908133542E+02 -0.30418847217E+02  0.59364585334E+02  0.00000000000E+00 0. -1.
         -3    1    6    6    0  501  0.35376573664E+02 -0.15192743490E+03  0.35156339673E+02  0.15990439537E+03  0.00000000000E+00 0.  1.
          5    1    5    5  502    0 -0.64651890474E+01 -0.34093800102E+01  0.56893168756E+02  0.57552977270E+02  0.47000000000E+01 0. -1.
         11    1    4    4    0    0  0.34705846618E+02  0.23314362259E+02 -0.94604469618E+02  0.10343143114E+03  0.00000000000E+00 0. -1.
        -12    1    4    4    0    0  0.37337406032E+01  0.11638132679E+03 -0.14524441639E+03  0.18615717696E+03  0.00000000000E+00 0.  1.
         -5    1    3    3    0  504 -0.64665889888E+02  0.66549259404E+02 -0.30369372162E+03  0.31758848813E+03  0.47000000000E+01 0.  1.
<mgrwt>
<rscale>  2 0.27041988E+03</rscale>
<asrwt>0</asrwt>
<pdfrwt beam="1">  1       21 0.30929778E-01 0.27060203E+03</pdfrwt>
<pdfrwt beam="2">  1       21 0.10507008E+00 0.27060203E+03</pdfrwt>
<totfact> 0.69608165E+03</totfact>
</mgrwt>
</event>
<event>
12    1  0.2736842E-001  0.2681949E+03  0.7546771E-02  0.1102570E+00
         21   -1    0    0  502  503  0.00000000000E+00  0.00000000000E+00  0.57291628469E+03  0.57291628469E+03  0.00000000000E+00 0. -1.
         21   -1    0    0  503  504 -0.00000000000E+00 -0.00000000000E+00 -0.13628439814E+03  0.13628439814E+03  0.00000000000E+00 0. -1.
         -6    2    1    2    0  504 -0.17871500923E+03  0.10184432306E+03  0.32090245990E+03  0.41710172384E+03  0.16936392353E+03 0.  0.
        -24    2    3    3    0    0 -0.16130482070E+03  0.62245471612E+02  0.32193391600E+03  0.37357773503E+03  0.77621736116E+02 0.  0.
          6    2    1    2  502    0  0.17871500923E+03 -0.10184432306E+03  0.11572942664E+03  0.29209895899E+03  0.17209642934E+03 0.  0.
         24    2    5    5    0    0  0.33827687729E+02  0.13356830439E+01  0.57840235018E+02  0.10498482779E+03  0.80809806165E+02 0.  0.
          2    1    6    6  501    0  0.34137056054E+02  0.37421610603E+02  0.40974977952E+02  0.65151088666E+02  0.00000000000E+00 0. -1.
         -1    1    6    6    0  501 -0.30936832478E+00 -0.36085927559E+02  0.16865257066E+02  0.39833739122E+02  0.00000000000E+00 0.  1.
          5    1    5    5  502    0  0.14488732150E+03 -0.10318000610E+03  0.57889191626E+02  0.18711413121E+03  0.47000000000E+01 0. -1.
         13    1    4    4    0    0 -0.46133319301E+02  0.56895802656E+02  0.10695979097E+03  0.12963723382E+03  0.00000000000E+00 0. -1.
        -14    1    4    4    0    0 -0.11517150140E+03  0.53496689556E+01  0.21497412503E+03  0.24394050120E+03  0.00000000000E+00 0.  1.
         -5    1    3    3    0  504 -0.17410188523E+02  0.39598851446E+02 -0.10314560998E+01  0.43523988810E+02  0.47000000000E+01 0.  1.
<mgrwt>
<rscale>  2 0.26775754E+03</rscale>
<asrwt>0</asrwt>
<pdfrwt beam="1">  1       21 0.88140965E-01 0.26819489E+03</pdfrwt>
<pdfrwt beam="2">  1       21 0.20966831E-01 0.26819489E+03</pdfrwt>
<totfact> 0.22391087E+04</totfact>
</mgrwt>
</event>
<event>
12    1  0.2736842E-001  0.1926617E+03  0.7546771E-02  0.1156153E+00
         21   -1    0    0  502  503  0.00000000000E+00  0.00000000000E+00  0.54935904470E+03  0.54935904470E+03  0.00000000000E+00 0.  1.
         21   -1    0    0  503  504 -0.00000000000E+00 -0.00000000000E+00 -0.67462395763E+02  0.67462395763E+02  0.00000000000E+00 0.  1.
         -6    2    1    2    0  504 -0.20635759557E+02 -0.82849398421E+02  0.24395834608E+03  0.31066273310E+03  0.17235371109E+03 0.  0.
        -24    2    3    3    0    0 -0.78439869351E+02 -0.53759777341E+02  0.18343810755E+03  0.22193669163E+03  0.81014992601E+02 0.  0.
          6    2    1    2  502    0  0.20635759557E+02  0.82849398421E+02  0.23793830286E+03  0.30615870736E+03  0.17270975866E+03 0.  0.
         24    2    5    5    0    0  0.52492466633E+02  0.64082029250E+02  0.72449662224E+02  0.13652485428E+03  0.80796762033E+02 0.  0.
          2    1    6    6  501    0  0.58107607887E+02  0.79968549823E+02  0.62671128655E+02  0.11704329721E+03  0.00000000000E+00 0. -1.
         -1    1    6    6    0  501 -0.56151412545E+01 -0.15886520573E+02  0.97785335683E+01  0.19481557073E+02  0.00000000000E+00 0.  1.
          5    1    5    5  502    0 -0.31856707076E+02  0.18767369171E+02  0.16548864064E+03  0.16963385308E+03  0.47000000000E+01 0. -1.
         13    1    4    4    0    0 -0.21576991230E+02 -0.59727887079E+02  0.67566090027E+02  0.92726283043E+02  0.00000000000E+00 0. -1.
        -14    1    4    4    0    0 -0.56862878120E+02  0.59681097381E+01  0.11587201753E+03  0.12921040859E+03  0.00000000000E+00 0.  1.
         -5    1    3    3    0  504  0.57804109794E+02 -0.29089621080E+02  0.60520238528E+02  0.88726041471E+02  0.47000000000E+01 0.  1.
<mgrwt>
<rscale>  2 0.19258184E+03</rscale>
<asrwt>0</asrwt>
<pdfrwt beam="1">  1       21 0.84516773E-01 0.19266167E+03</pdfrwt>
<pdfrwt beam="2">  1       21 0.10378830E-01 0.19266167E+03</pdfrwt>
<totfact> 0.92242696E+04</totfact>
</mgrwt>
</event>
<event>
12    1  0.2736842E-001  0.2082725E+03  0.7546771E-02  0.1143188E+00
         21   -1    0    0  502  503  0.00000000000E+00  0.00000000000E+00  0.23232365861E+03  0.23232365861E+03  0.00000000000E+00 0.  1.
         21   -1    0    0  503  504 -0.00000000000E+00 -0.00000000000E+00 -0.19345816596E+03  0.19345816596E+03  0.00000000000E+00 0.  1.
         -6    2    1    2    0  504 -0.92006128369E+02 -0.70756925687E+02  0.62363438993E+02  0.21740895115E+03  0.17293288677E+03 0.  0.
        -24    2    3    3    0    0 -0.39571065891E+02 -0.10668150968E+03  0.20030583793E+02  0.14089638916E+03  0.80645858095E+02 0.  0.
          6    2    1    2  502    0  0.92006128369E+02  0.70756925687E+02 -0.23497946348E+02  0.20837287342E+03  0.17145095714E+03 0.  0.
         24    2    5    5    0    0  0.28368517479E+02  0.11088210759E+01 -0.61574411876E+02  0.10652734714E+03  0.82162431947E+02 0.  0.
          4    1    6    6  501    0  0.14043727076E+02 -0.40162967273E+02 -0.37105749739E+02  0.56454644397E+02  0.00000000000E+00 0. -1.
         -3    1    6    6    0  501  0.14324790403E+02  0.41271788348E+02 -0.24468662137E+02  0.50072702747E+02  0.00000000000E+00 0.  1.
          5    1    5    5  502    0  0.63637610890E+02  0.69648104611E+02  0.38076465528E+02  0.10184552628E+03  0.47000000000E+01 0. -1.
         13    1    4    4    0    0  0.13144082985E+01 -0.19097290117E+02 -0.27244705945E+02  0.33297269573E+02  0.00000000000E+00 0. -1.
        -14    1    4    4    0    0 -0.40885474189E+02 -0.87584219564E+02  0.47275289738E+02  0.10759911959E+03  0.00000000000E+00 0.  1.
         -5    1    3    3    0  504 -0.52435062478E+02  0.35924583994E+02  0.42332855200E+02  0.76512561986E+02  0.47000000000E+01 0.  1.
<mgrwt>
<rscale>  2 0.20796466E+03</rscale>
<asrwt>0</asrwt>
<pdfrwt beam="1">  1       21 0.35742101E-01 0.20827255E+03</pdfrwt>
<pdfrwt beam="2">  1       21 0.29762795E-01 0.20827255E+03</pdfrwt>
<totfact> 0.81145413E+04</totfact>
</mgrwt>
</event>
<event>
12    1  0.2736842E-001  0.2459904E+03  0.7546771E-02  0.1116031E+00
         21   -1    0    0  502  503  0.00000000000E+00  0.00000000000E+00  0.14406516636E+04  0.14406516636E+04  0.00000000000E+00 0.  1.
         21   -1    0    0  503  504 -0.00000000000E+00 -0.00000000000E+00 -0.24470802777E+03  0.24470802777E+03  0.00000000000E+00 0. -1.
         -6    2    1    2    0  504 -0.60588391488E+02  0.16386597545E+03 -0.16910255167E+03  0.29850784372E+03  0.17317115431E+03 0.  0.
        -24    2    3    3    0    0 -0.81941625025E+02  0.13737421072E+03 -0.18761459908E+03  0.25948784781E+03  0.80923431047E+02 0.  0.
          6    2    1    2  502    0  0.60588391488E+02 -0.16386597545E+03  0.13650461875E+04  0.13868518477E+04  0.17170888796E+03 0.  0.
         24    2    5    5    0    0  0.10565955776E+03 -0.13797021900E+03  0.11164404317E+04  0.11328264315E+04  0.81588987514E+02 0.  0.
          4    1    6    6  501    0  0.11150763430E+03 -0.11719202335E+03  0.83276813131E+03  0.84833406355E+03  0.00000000000E+00 0. -1.
         -3    1    6    6    0  501 -0.58480765402E+01 -0.20778195645E+02  0.28367230041E+03  0.28449236797E+03  0.00000000000E+00 0.  1.
          5    1    5    5  502    0 -0.45071166273E+02 -0.25895756455E+02  0.24860575582E+03  0.25402541616E+03  0.47000000000E+01 0. -1.
         13    1    4    4    0    0  0.48180004154E+00  0.15381375992E+02 -0.68217375549E+02  0.69931603624E+02  0.00000000000E+00 0. -1.
        -14    1    4    4    0    0 -0.82423425066E+02  0.12199283472E+03 -0.11939722354E+03  0.18955624419E+03  0.00000000000E+00 0.  1.
         -5    1    3    3    0  504  0.21353233536E+02  0.26491764735E+02  0.18512047409E+02  0.39019995906E+02  0.47000000000E+01 0.  1.
<mgrwt>
<rscale>  2 0.24573316E+03</rscale>
<asrwt>0</asrwt>
<pdfrwt beam="1">  1       21 0.22163871E+00 0.24599037E+03</pdfrwt>
<pdfrwt beam="2">  1       21 0.37647390E-01 0.24599037E+03</pdfrwt>
<totfact> 0.63082264E+02</totfact>
</mgrwt>
</event>
<event>
12    1  0.2736842E-001  0.1864307E+03  0.7546771E-02  0.1161924E+00
         21   -1    0    0  502  503  0.00000000000E+00  0.00000000000E+00  0.27887106891E+03  0.27887106891E+03  0.00000000000E+00 0.  1.
         21   -1    0    0  503  504 -0.00000000000E+00 -0.00000000000E+00 -0.26836622377E+03  0.26836622377E+03  0.00000000000E+00 0.  1.
         -6    2    1    2    0  504  0.53045224170E+02 -0.43082106363E+02 -0.19539381490E+03  0.27006507534E+03  0.17345471547E+03 0.  0.
        -24    2    3    3    0    0 -0.34145854454E+02 -0.47381258100E+02 -0.95842655847E+02  0.13757624499E+03  0.79564348234E+02 0.  0.
          6    2    1    2  502    0 -0.53045224170E+02  0.43082106363E+02  0.20589866005E+03  0.27717221735E+03  0.17251178557E+03 0.  0.
         24    2    5    5    0    0 -0.11953648966E+02  0.58877357253E+02  0.20989966104E+03  0.23271880901E+03  0.80565150299E+02 0.  0.
          2    1    6    6  501    0 -0.10726132438E+02  0.51758066303E+02  0.50333202281E+02  0.72988893651E+02  0.00000000000E+00 0. -1.
         -1    1    6    6    0  501 -0.12275165287E+01  0.71192909502E+01  0.15956645876E+03  0.15972991536E+03  0.00000000000E+00 0.  1.
          5    1    5    5  502    0 -0.41091575204E+02 -0.15795250890E+02 -0.40010009912E+01  0.44453408332E+02  0.47000000000E+01 0. -1.
         11    1    4    4    0    0 -0.30873515852E+02 -0.68357832965E+02 -0.60577536541E+02  0.96413719159E+02  0.00000000000E+00 0. -1.
        -12    1    4    4    0    0 -0.32723386020E+01  0.20976574865E+02 -0.35265119305E+02  0.41162525829E+02  0.00000000000E+00 0.  1.
         -5    1    3    3    0  504  0.87191078624E+02  0.42991517365E+01 -0.99551159057E+02  0.13248883035E+03  0.47000000000E+01 0.  1.
<mgrwt>
<rscale>  2 0.18621106E+03</rscale>
<asrwt>0</asrwt>
<pdfrwt beam="1">  1       21 0.42903241E-01 0.18643069E+03</pdfrwt>
<pdfrwt beam="2">  1       21 0.41287111E-01 0.18643069E+03</pdfrwt>
<totfact> 0.29615562E+04</totfact>
</mgrwt>
</event>
<event>
12    1  0.2736842E-001  0.2401429E+03  0.7546771E-02  0.1119713E+00
         21   -1    0    0  502  503  0.00000000000E+00  0.00000000000E+00  0.55046018946E+03  0.55046018946E+03  0.00000000000E+00 0.  1.
         21   -1    0    0  503  504 -0.00000000000E+00 -0.00000000000E+00 -0.10591892793E+03  0.10591892793E+03  0.00000000000E+00 0. -1.
         -6    2    1    2    0  504  0.86748883920E+01  0.16678323861E+03  0.25717851927E+03  0.35186559727E+03  0.17255928082E+03 0.  0.
        -24    2    3    3    0    0  0.66066609376E+02  0.68677713764E+02  0.11605038394E+03  0.17059854504E+03  0.80961390272E+02 0.  0.
          6    2    1    2  502    0 -0.86748883920E+01 -0.16678323861E+03  0.18736274226E+03  0.30451352012E+03  0.17242907057E+03 0.  0.
         24    2    5    5    0    0 -0.47846293954E+02 -0.31159863158E+02  0.74687443975E+02  0.12383172295E+03  0.80596999977E+02 0.  0.
          2    1    6    6  501    0  0.22451504671E+02 -0.66462204385E+01  0.11050955794E+02  0.25891425841E+02  0.00000000000E+00 0. -1.
         -1    1    6    6    0  501 -0.70297798625E+02 -0.24513642720E+02  0.63636488181E+02  0.97940297114E+02  0.00000000000E+00 0.  1.
          5    1    5    5  502    0  0.39171405562E+02 -0.13562337545E+03  0.11267529829E+03  0.18068179716E+03  0.47000000000E+01 0. -1.
         11    1    4    4    0    0 -0.29688718232E+01 -0.92982811464E+01  0.41214112665E+02  0.42354165261E+02  0.00000000000E+00 0. -1.
        -12    1    4    4    0    0  0.69035481199E+02  0.77975994910E+02  0.74836271278E+02  0.12824437978E+03  0.00000000000E+00 0.  1.
         -5    1    3    3    0  504 -0.57391720984E+02  0.98105524844E+02  0.14112813532E+03  0.18126705222E+03  0.47000000000E+01 0.  1.
<mgrwt>
<rscale>  2 0.24011950E+03</rscale>
<asrwt>0</asrwt>
<pdfrwt beam="1">  1       21 0.84686181E-01 0.24014289E+03</pdfrwt>
<pdfrwt beam="2">  1       21 0.16295220E-01 0.24014289E+03</pdfrwt>
<totfact> 0.39806632E+04</totfact>
</mgrwt>
</event>
<event>
12    1  0.2736842E-001  0.3044835E+03  0.7546771E-02  0.1083101E+00
         21   -1    0    0  502  503  0.00000000000E+00  0.00000000000E+00  0.76198966485E+02  0.76198966485E+02  0.00000000000E+00 0. -1.
         21   -1    0    0  503  504 -0.00000000000E+00 -0.00000000000E+00 -0.13549759083E+04  0.13549759083E+04  0.00000000000E+00 0. -1.
         -6    2    1    2    0  504 -0.15376407995E+03  0.19727431279E+03 -0.40800503857E+03  0.50870324725E+03  0.17248285566E+03 0.  0.
        -24    2    3    3    0    0 -0.16129192670E+03  0.10682567352E+03 -0.24311268082E+03  0.32042365604E+03  0.78362833234E+02 0.  0.
          6    2    1    2  502    0  0.15376407995E+03 -0.19727431279E+03 -0.87077190325E+03  0.92247162754E+03  0.17363654383E+03 0.  0.
         24    2    5    5    0    0  0.15456137734E+02 -0.10885354216E+03 -0.36318467990E+03  0.38897917317E+03  0.85520170786E+02 0.  0.
          2    1    6    6  501    0  0.41694855815E+02 -0.74044434204E+02 -0.15994282385E+03  0.18111528411E+03  0.00000000000E+00 0. -1.
         -1    1    6    6    0  501 -0.26238718081E+02 -0.34809107957E+02 -0.20324185605E+03  0.20786388906E+03  0.00000000000E+00 0.  1.
          5    1    5    5  502    0  0.13830794221E+03 -0.88420770631E+02 -0.50758722335E+03  0.53349245437E+03  0.47000000000E+01 0. -1.
         13    1    4    4    0    0 -0.10131814624E+03  0.10829195936E+03 -0.18227445871E+03  0.23498190041E+03  0.00000000000E+00 0. -1.
        -14    1    4    4    0    0 -0.59973780458E+02 -0.14662858365E+01 -0.60838222110E+02  0.85441755636E+02  0.00000000000E+00 0.  1.
         -5    1    3    3    0  504  0.75278467544E+01  0.90448639270E+02 -0.16489235775E+03  0.18827959121E+03  0.47000000000E+01 0.  1.
<mgrwt>
<rscale>  2 0.30431925E+03</rscale>
<asrwt>0</asrwt>
<pdfrwt beam="1">  1       21 0.11722919E-01 0.30448349E+03</pdfrwt>
<pdfrwt beam="2">  1       21 0.20845782E+00 0.30448349E+03</pdfrwt>
<totfact> 0.66932917E+03</totfact>
</mgrwt>
</event>
<event>
12    1  0.2736842E-001  0.2492429E+03  0.7546771E-02  0.1114053E+00
         21   -1    0    0  502  503  0.00000000000E+00  0.00000000000E+00  0.11002051318E+03  0.11002051318E+03  0.00000000000E+00 0.  1.
         21   -1    0    0  503  504 -0.00000000000E+00 -0.00000000000E+00 -0.99527194201E+03  0.99527194201E+03  0.00000000000E+00 0. -1.
         -6    2    1    2    0  504 -0.17082362624E+03 -0.52400376451E+02 -0.80690633105E+03  0.84402637443E+03  0.17133646114E+03 0.  0.
        -24    2    3    3    0    0 -0.14489772503E+03  0.95097214095E+00 -0.71941391975E+03  0.73821743915E+03  0.80077115777E+02 0.  0.
          6    2    1    2  502    0  0.17082362624E+03  0.52400376451E+02 -0.78345097779E+02  0.26126608076E+03  0.17376852384E+03 0.  0.
         24    2    5    5    0    0  0.60561514627E+02  0.45727723471E+02 -0.99546027547E+02  0.14868798797E+03  0.80249513503E+02 0.  0.
          2    1    6    6  501    0  0.24549385854E+00 -0.16703220148E+02 -0.12909743941E+00  0.16705522940E+02  0.00000000000E+00 0. -1.
         -1    1    6    6    0  501  0.60316020768E+02  0.62430943619E+02 -0.99416930107E+02  0.13198246503E+03  0.00000000000E+00 0.  1.
          5    1    5    5  502    0  0.11026211161E+03  0.66726529793E+01  0.21200929768E+02  0.11257809280E+03  0.47000000000E+01 0. -1.
         11    1    4    4    0    0 -0.29115728996E+02  0.34136715310E+02 -0.21358138386E+03  0.21824309505E+03  0.00000000000E+00 0. -1.
        -12    1    4    4    0    0 -0.11578199603E+03 -0.33185743169E+02 -0.50583253589E+03  0.51997434410E+03  0.00000000000E+00 0.  1.
         -5    1    3    3    0  504 -0.25925901209E+02 -0.53351348592E+02 -0.87492411298E+02  0.10580893528E+03  0.47000000000E+01 0.  1.
<mgrwt>
<rscale>  2 0.24881943E+03</rscale>
<asrwt>0</asrwt>
<pdfrwt beam="1">  1       21 0.16926232E-01 0.24924287E+03</pdfrwt>
<pdfrwt beam="2">  1       21 0.15311877E+00 0.24924287E+03</pdfrwt>
<totfact> 0.85546144E+03</totfact>
</mgrwt>
</event>
<event>
12    1  0.2736842E-001  0.3164207E+03  0.7546771E-02  0.1077417E+00
         21   -1    0    0  502  503  0.00000000000E+00  0.00000000000E+00  0.18133369231E+04  0.18133369231E+04  0.00000000000E+00 0.  1.
         21   -1    0    0  503  504 -0.00000000000E+00 -0.00000000000E+00 -0.62778342226E+02  0.62778342226E+02  0.00000000000E+00 0. -1.
         -6    2    1    2    0  504  0.20701212026E+03 -0.16336170726E+03  0.54732177007E+03  0.63220501833E+03  0.17487424016E+03 0.  0.
        -24    2    3    3    0    0  0.22249462446E+03 -0.17496934304E+03  0.48964526383E+03  0.57118768868E+03  0.79904708197E+02 0.  0.
          6    2    1    2  502    0 -0.20701212026E+03  0.16336170726E+03  0.12032368108E+04  0.12439102470E+04  0.17318433644E+03 0.  0.
         24    2    5    5    0    0 -0.13008108665E+03  0.59773453648E+02  0.42668626133E+03  0.45669886744E+03  0.77580506897E+02 0.  0.
          2    1    6    6  501    0 -0.95155495314E+02  0.32780425492E+02  0.18118587716E+03  0.20726178294E+03  0.00000000000E+00 0. -1.
         -1    1    6    6    0  501 -0.34925591335E+02  0.26993028156E+02  0.24550038417E+03  0.24943708450E+03  0.00000000000E+00 0.  1.
          5    1    5    5  502    0 -0.76931033607E+02  0.10358825361E+03  0.77655054946E+03  0.78721137955E+03  0.47000000000E+01 0. -1.
         13    1    4    4    0    0  0.20708425373E+03 -0.16537303725E+03  0.48462433189E+03  0.55235212741E+03  0.00000000000E+00 0. -1.
        -14    1    4    4    0    0  0.15410370734E+02 -0.95963057864E+01  0.50209319383E+01  0.18835561272E+02  0.00000000000E+00 0.  1.
         -5    1    3    3    0  504 -0.15482504206E+02  0.11607635779E+02  0.57676506240E+02  0.61017329644E+02  0.47000000000E+01 0.  1.
<mgrwt>
<rscale>  2 0.31618775E+03</rscale>
<asrwt>0</asrwt>
<pdfrwt beam="1">  1       21 0.27897487E+00 0.31642071E+03</pdfrwt>
<pdfrwt beam="2">  1       21 0.96582079E-02 0.31642071E+03</pdfrwt>
<totfact> 0.34879103E+03</totfact>
</mgrwt>
</event>
<event>
12    1  0.2736842E-001  0.2105520E+03  0.7546771E-02  0.1141178E+00
         21   -1    0    0  502  503  0.00000000000E+00  0.00000000000E+00  0.14179028837E+04  0.14179028837E+04  0.00000000000E+00 0.  1.
         21   -1    0    0  503  504 -0.00000000000E+00 -0.00000000000E+00 -0.31517009618E+02  0.31517009618E+02  0.00000000000E+00 0.  1.
         -6    2    1    2    0  504  0.72641512091E+02 -0.95351252646E+02  0.76200734339E+03  0.79049600984E+03  0.17280075097E+03 0.  0.
        -24    2    3    3    0    0  0.11479582068E+02  0.14856065665E+02  0.26519851873E+03  0.27792647022E+03  0.80996203730E+02 0.  0.
          6    2    1    2  502    0 -0.72641512091E+02  0.95351252646E+02  0.62437853069E+03  0.65892388348E+03  0.17309963595E+03 0.  0.
         24    2    5    5    0    0  0.16176550577E+02  0.42866927838E+02  0.41744130773E+03  0.42764838358E+03  0.80787624576E+02 0.  0.
          4    1    6    6  501    0  0.27655160895E+02 -0.15662943508E+02  0.11120109984E+03  0.11565388160E+03  0.00000000000E+00 0. -1.
         -3    1    6    6    0  501 -0.11478610318E+02  0.58529871346E+02  0.30624020789E+03  0.31199450198E+03  0.00000000000E+00 0.  1.
          5    1    5    5  502    0 -0.88818062668E+02  0.52484324808E+02  0.20693722296E+03  0.23127549990E+03  0.47000000000E+01 0. -1.
         11    1    4    4    0    0 -0.19635524049E+02  0.88301799473E+01  0.22818327165E+03  0.22919670884E+03  0.00000000000E+00 0. -1.
        -12    1    4    4    0    0  0.31115106117E+02  0.60258857173E+01  0.37015247083E+02  0.48729761378E+02  0.00000000000E+00 0.  1.
         -5    1    3    3    0  504  0.61161930023E+02 -0.11020731831E+03  0.49680882466E+03  0.51256953962E+03  0.47000000000E+01 0.  1.
<mgrwt>
<rscale>  2 0.21049054E+03</rscale>
<asrwt>0</asrwt>
<pdfrwt beam="1">  1       21 0.21813886E+00 0.21055198E+03</pdfrwt>
<pdfrwt beam="2">  1       21 0.48487718E-02 0.21055198E+03</pdfrwt>
<totfact> 0.28879918E+04</totfact>
</mgrwt>
</event>
<event>
12    1  0.2736842E-001  0.2192845E+03  0.7546771E-02  0.1134802E+00
         21   -1    0    0  502  503  0.00000000000E+00  0.00000000000E+00  0.12072871368E+03  0.12072871368E+03  0.00000000000E+00 0.  1.
         21   -1    0    0  503  504 -0.00000000000E+00 -0.00000000000E+00 -0.53445018967E+03  0.53445018967E+03  0.00000000000E+00 0.  1.
         -6    2    1    2    0  504 -0.84650895838E+02 -0.10398684396E+03 -0.37372403324E+03  0.43227646223E+03  0.17092176250E+03 0.  0.
        -24    2    3    3    0    0 -0.26183281765E+02  0.91229856685E+01 -0.17803153726E+03  0.19875999935E+03  0.83913741250E+02 0.  0.
          6    2    1    2  502    0  0.84650895838E+02  0.10398684396E+03 -0.39997442747E+02  0.22290244111E+03  0.17351272272E+03 0.  0.
         24    2    5    5    0    0  0.36417969407E+02  0.13487513196E+03 -0.21306994166E+02  0.16247128693E+03  0.80158351773E+02 0.  0.
          2    1    6    6  501    0 -0.17355221768E+02  0.73479710957E+02 -0.28130930563E+02  0.80571836887E+02  0.00000000000E+00 0. -1.
         -1    1    6    6    0  501  0.53773191175E+02  0.61395421006E+02  0.68239363977E+01  0.81899450045E+02  0.00000000000E+00 0.  1.
          5    1    5    5  502    0  0.48232926431E+02 -0.30888288000E+02 -0.18690448581E+02  0.60431154183E+02  0.47000000000E+01 0. -1.
         13    1    4    4    0    0 -0.14241512047E+02  0.25764011829E+02 -0.17569567359E+03  0.17814481381E+03  0.00000000000E+00 0. -1.
        -14    1    4    4    0    0 -0.11941769717E+02 -0.16641026161E+02 -0.23358636741E+01  0.20615185538E+02  0.00000000000E+00 0.  1.
         -5    1    3    3    0  504 -0.58467614074E+02 -0.11310982963E+03 -0.19569249598E+03  0.23351646289E+03  0.47000000000E+01 0.  1.
<mgrwt>
<rscale>  2 0.21877164E+03</rscale>
<asrwt>0</asrwt>
<pdfrwt beam="1">  1       21 0.18573648E-01 0.21928452E+03</pdfrwt>
<pdfrwt beam="2">  1       21 0.82223106E-01 0.21928452E+03</pdfrwt>
<totfact> 0.33759130E+04</totfact>
</mgrwt>
</event>
<event>
12    1  0.2736842E-001  0.1833230E+03  0.7546771E-02  0.1164897E+00
         21   -1    0    0  502  503  0.00000000000E+00  0.00000000000E+00  0.60506271923E+03  0.60506271923E+03  0.00000000000E+00 0.  1.
         21   -1    0    0  503  504 -0.00000000000E+00 -0.00000000000E+00 -0.12066513433E+03  0.12066513433E+03  0.00000000000E+00 0.  1.
         -6    2    1    2    0  504  0.59849756742E+02 -0.17702845807E+02 -0.24734782005E+02  0.18498411727E+03  0.17237148856E+03 0.  0.
        -24    2    3    3    0    0  0.36416382857E+02 -0.26244243545E+02  0.52010701783E+02  0.10415072213E+03  0.78277369408E+02 0.  0.
          6    2    1    2  502    0 -0.59849756742E+02  0.17702845807E+02  0.50913236691E+03  0.54074373629E+03  0.17115091930E+03 0.  0.
         24    2    5    5    0    0  0.34573624794E+01 -0.45204472153E+02  0.26563893988E+03  0.28136705846E+03  0.80919574578E+02 0.  0.
          2    1    6    6  501    0  0.13909661915E+02 -0.40705352851E+02  0.52268685805E+02  0.67693574001E+02  0.00000000000E+00 0. -1.
         -1    1    6    6    0  501 -0.10452299436E+02 -0.44991193020E+01  0.21337025408E+03  0.21367348446E+03  0.00000000000E+00 0.  1.
          5    1    5    5  502    0 -0.63307119222E+02  0.62907317960E+02  0.24349342702E+03  0.25937667783E+03  0.47000000000E+01 0. -1.
         13    1    4    4    0    0 -0.69218608780E+01  0.21715569928E+02  0.29108491163E+01  0.22977188207E+02  0.00000000000E+00 0. -1.
        -14    1    4    4    0    0  0.43338243735E+02 -0.47959813473E+02  0.49099852667E+02  0.81173533927E+02  0.00000000000E+00 0.  1.
         -5    1    3    3    0  504  0.23433373886E+02  0.85413977374E+01 -0.76745483788E+02  0.80833395134E+02  0.47000000000E+01 0.  1.
<mgrwt>
<rscale>  2 0.18303551E+03</rscale>
<asrwt>0</asrwt>
<pdfrwt beam="1">  1       21 0.93086570E-01 0.18332298E+03</pdfrwt>
<pdfrwt beam="2">  1       21 0.18563867E-01 0.18332298E+03</pdfrwt>
<totfact> 0.25898867E+04</totfact>
</mgrwt>
</event>
<event>
12    1  0.2736842E-001  0.2590919E+03  0.7546771E-02  0.1107776E+00
         21   -1    0    0  502  503  0.00000000000E+00  0.00000000000E+00  0.24021267224E+03  0.24021267224E+03  0.00000000000E+00 0.  1.
         21   -1    0    0  503  504 -0.00000000000E+00 -0.00000000000E+00 -0.42694435501E+03  0.42694435501E+03  0.00000000000E+00 0.  1.
         -6    2    1    2    0  504  0.10326764092E+03 -0.16206798740E+03 -0.28989977575E+03  0.38880647135E+03  0.17377673602E+03 0.  0.
        -24    2    3    3    0    0  0.13356136204E+03 -0.11651191431E+03 -0.26412049918E+03  0.32814572263E+03  0.80661723155E+02 0.  0.
          6    2    1    2  502    0 -0.10326764092E+03  0.16206798740E+03  0.10316809299E+03  0.27835055590E+03  0.17293102197E+03 0.  0.
         24    2    5    5    0    0 -0.12180289248E+03  0.16317519401E+03  0.57931060081E+02  0.22922560701E+03  0.87899275491E+02 0.  0.
          2    1    6    6  501    0 -0.41384922738E+02  0.34963244552E+02 -0.21518641810E+02  0.58294015516E+02  0.00000000000E+00 0. -1.
         -1    1    6    6    0  501 -0.80417969743E+02  0.12821194946E+03  0.79449701891E+02  0.17093159150E+03  0.00000000000E+00 0.  1.
          5    1    5    5  502    0  0.18535251564E+02 -0.11072066077E+01  0.45237032908E+02  0.49124948888E+02  0.47000000000E+01 0. -1.
         13    1    4    4    0    0  0.58116667758E+00 -0.21821420381E+02 -0.58364486321E+01  0.22595934917E+02  0.00000000000E+00 0. -1.
        -14    1    4    4    0    0  0.13298019537E+03 -0.94690493925E+02 -0.25828405055E+03  0.30554978771E+03  0.00000000000E+00 0.  1.
         -5    1    3    3    0  504 -0.30293721127E+02 -0.45556073094E+02 -0.25779276569E+02  0.60660748725E+02  0.47000000000E+01 0.  1.
<mgrwt>
<rscale>  2 0.25895013E+03</rscale>
<asrwt>0</asrwt>
<pdfrwt beam="1">  1       21 0.36955796E-01 0.25909186E+03</pdfrwt>
<pdfrwt beam="2">  1       21 0.65683747E-01 0.25909186E+03</pdfrwt>
<totfact> 0.14483608E+04</totfact>
</mgrwt>
</event>
<event>
12    1  0.2736842E-001  0.1846586E+03  0.7546771E-02  0.1164020E+00
         21   -1    0    0  502  503  0.00000000000E+00  0.00000000000E+00  0.50053906419E+03  0.50053906419E+03  0.00000000000E+00 0. -1.
         21   -1    0    0  503  504 -0.00000000000E+00 -0.00000000000E+00 -0.11296898089E+03  0.11296898089E+03  0.00000000000E+00 0. -1.
         -6    2    1    2    0  504 -0.49159761682E+02  0.39299939578E+02 -0.78908315523E+00  0.18466028318E+03  0.17360193003E+03 0.  0.
        -24    2    3    3    0    0 -0.33977227190E+02  0.92985093355E+02  0.13480368166E+02  0.12688215296E+03  0.78209212125E+02 0.  0.
          6    2    1    2  502    0  0.49159761682E+02 -0.39299939578E+02  0.38835916645E+03  0.42884776191E+03  0.17066456372E+03 0.  0.
         24    2    5    5    0    0 -0.78826116965E+01  0.20432012175E+02  0.28316087570E+03  0.29501761285E+03  0.79848028619E+02 0.  0.
          4    1    6    6  501    0 -0.21242439342E+02 -0.58011380063E+01  0.18601999706E+02  0.28825836057E+02  0.00000000000E+00 0. -1.
         -3    1    6    6    0  501  0.13359827645E+02  0.26233150181E+02  0.26455887600E+03  0.26619177679E+03  0.00000000000E+00 0.  1.
          5    1    5    5  502    0  0.57042373378E+02 -0.59731951753E+02  0.10519829075E+03  0.13383014906E+03  0.47000000000E+01 0. -1.
         11    1    4    4    0    0 -0.51640178306E+02  0.32971430154E+02  0.18825163204E+02  0.64095319576E+02  0.00000000000E+00 0. -1.
        -12    1    4    4    0    0  0.17662951117E+02  0.60013663201E+02 -0.53447950373E+01  0.62786833388E+02  0.00000000000E+00 0.  1.
         -5    1    3    3    0  504 -0.15182534492E+02 -0.53685153777E+02 -0.14269451322E+02  0.57778130211E+02  0.47000000000E+01 0.  1.
<mgrwt>
<rscale>  2 0.18396502E+03</rscale>
<asrwt>0</asrwt>
<pdfrwt beam="1">  1       21 0.77006008E-01 0.18465860E+03</pdfrwt>
<pdfrwt beam="2">  1       21 0.17379844E-01 0.18465860E+03</pdfrwt>
<totfact> 0.45068100E+04</totfact>
</mgrwt>
</event>
<event>
12    1  0.2736842E-001  0.1730716E+03  0.7546771E-02  0.1177311E+00
         21   -1    0    0  502  503  0.00000000000E+00  0.00000000000E+00  0.13967698344E+04  0.13967698344E+04  0.00000000000E+00 0.  1.
         21   -1    0    0  503  504 -0.00000000000E+00 -0.00000000000E+00 -0.88013544962E+02  0.88013544962E+02  0.00000000000E+00 0.  1.
         -6    2    1    2    0  504 -0.41739367912E+00 -0.38145972730E+00  0.73790764892E+01  0.17322878653E+03  0.17307062715E+03 0.  0.
        -24    2    3    3    0    0  0.31087405465E+02  0.26445198193E+02  0.42584860573E+02  0.11869660174E+03  0.10300309524E+03 0.  0.
          6    2    1    2  502    0  0.41739367912E+00  0.38145972730E+00  0.13013772130E+04  0.13115545929E+04  0.16307200824E+03 0.  0.
         24    2    5    5    0    0 -0.59941773309E+02  0.80396771467E+01  0.69688111251E+03  0.70398607589E+03  0.79343918982E+02 0.  0.
          4    1    6    6  501    0 -0.41356238081E+02  0.18118977636E+02  0.14885018920E+03  0.15554746736E+03  0.00000000000E+00 0. -1.
         -3    1    6    6    0  501 -0.18585535228E+02 -0.10079300490E+02  0.54803092331E+03  0.54843860852E+03  0.00000000000E+00 0.  1.
          5    1    5    5  502    0  0.60359166988E+02 -0.76582174194E+01  0.60449610048E+03  0.60756851699E+03  0.47000000000E+01 0. -1.
         11    1    4    4    0    0  0.24078486977E+02 -0.71758373471E+01  0.70242487939E+02  0.74600759303E+02  0.00000000000E+00 0. -1.
        -12    1    4    4    0    0  0.70089184878E+01  0.33621035540E+02 -0.27657627366E+02  0.44095842442E+02  0.00000000000E+00 0.  1.
         -5    1    3    3    0  504 -0.31504799144E+02 -0.26826657921E+02 -0.35205784083E+02  0.54532184783E+02  0.47000000000E+01 0.  1.
<mgrwt>
<rscale>  2 0.17051586E+03</rscale>
<asrwt>0</asrwt>
<pdfrwt beam="1">  1       21 0.21488765E+00 0.17307155E+03</pdfrwt>
<pdfrwt beam="2">  1       21 0.13540546E-01 0.17307155E+03</pdfrwt>
<totfact> 0.52094500E+03</totfact>
</mgrwt>
</event>
<event>
12    1  0.2736842E-001  0.2104149E+03  0.7546771E-02  0.1141300E+00
         21   -1    0    0  502  503  0.00000000000E+00  0.00000000000E+00  0.99314346471E+02  0.99314346471E+02  0.00000000000E+00 0. -1.
         21   -1    0    0  503  504 -0.00000000000E+00 -0.00000000000E+00 -0.60402374637E+03  0.60402374637E+03  0.00000000000E+00 0.  1.
         -6    2    1    2    0  504  0.10959118795E+03  0.46600681497E+02 -0.43285906263E+03  0.48129140655E+03  0.17347218198E+03 0.  0.
        -24    2    3    3    0    0  0.10619126730E+03 -0.19396409028E+02 -0.21513285982E+03  0.25370853195E+03  0.80206395480E+02 0.  0.
          6    2    1    2  502    0 -0.10959118795E+03 -0.46600681497E+02 -0.71850337268E+02  0.22204668630E+03  0.17309075058E+03 0.  0.
         24    2    5    5    0    0  0.11486644775E+02 -0.29265797472E+02 -0.22478813921E+02  0.90061925437E+02  0.81347547156E+02 0.  0.
          2    1    6    6  501    0 -0.25066341667E+01 -0.55653063821E+02 -0.22793802568E+02  0.60192226765E+02  0.00000000000E+00 0. -1.
         -1    1    6    6    0  501  0.13993278942E+02  0.26387266349E+02  0.31498864741E+00  0.29869698672E+02  0.00000000000E+00 0.  1.
          5    1    5    5  502    0 -0.12107783272E+03 -0.17334884025E+02 -0.49371523348E+02  0.13198476086E+03  0.47000000000E+01 0. -1.
         11    1    4    4    0    0  0.83018248939E+02 -0.34964930180E+02 -0.20515718058E+03  0.22406259113E+03  0.00000000000E+00 0. -1.
        -12    1    4    4    0    0  0.23173018365E+02  0.15568521152E+02 -0.99756792392E+01  0.29645940823E+02  0.00000000000E+00 0.  1.
         -5    1    3    3    0  504  0.33999206449E+01  0.65997090525E+02 -0.21772620281E+03  0.22758287460E+03  0.47000000000E+01 0.  1.
<mgrwt>
<rscale>  2 0.21033631E+03</rscale>
<asrwt>0</asrwt>
<pdfrwt beam="1">  1       21 0.15279130E-01 0.21041495E+03</pdfrwt>
<pdfrwt beam="2">  1       21 0.92926732E-01 0.21041495E+03</pdfrwt>
<totfact> 0.36644617E+04</totfact>
</mgrwt>
</event>
<event>
12    1  0.2736842E-001  0.2721154E+03  0.7546771E-02  0.1100196E+00
         21   -1    0    0  502  503  0.00000000000E+00  0.00000000000E+00  0.37202104067E+03  0.37202104067E+03  0.00000000000E+00 0.  1.
         21   -1    0    0  503  504 -0.00000000000E+00 -0.00000000000E+00 -0.21457803129E+03  0.21457803129E+03  0.00000000000E+00 0. -1.
         -6    2    1    2    0  504 -0.21109684970E+03 -0.11970789311E+02 -0.18883975268E+01  0.27126859757E+03  0.16993500590E+03 0.  0.
        -24    2    3    3    0    0 -0.59863603640E+02 -0.29242948256E+02 -0.42390837649E+02  0.11368573097E+03  0.81784235933E+02 0.  0.
          6    2    1    2  502    0  0.21109684970E+03  0.11970789311E+02  0.15933140691E+03  0.31533047439E+03  0.17129399028E+03 0.  0.
         24    2    5    5    0    0  0.18185286329E+03 -0.46984963220E+02  0.13542803444E+03  0.24515602952E+03  0.80515064697E+02 0.  0.
          2    1    6    6  501    0  0.15365838460E+03 -0.69333359700E+01  0.89212356709E+02  0.17781398959E+03  0.00000000000E+00 0. -1.
         -1    1    6    6    0  501  0.28194478697E+02 -0.40051627250E+02  0.46215677728E+02  0.67342039932E+02  0.00000000000E+00 0.  1.
          5    1    5    5  502    0  0.29243986405E+02  0.58955752532E+02  0.23903372470E+02  0.70174444870E+02  0.47000000000E+01 0. -1.
         11    1    4    4    0    0 -0.13747528227E+02 -0.16074236922E+02  0.23867932485E+02  0.31891281349E+02  0.00000000000E+00 0. -1.
        -12    1    4    4    0    0 -0.46116075413E+02 -0.13168711333E+02 -0.66258770134E+02  0.81794449624E+02  0.00000000000E+00 0.  1.
         -5    1    3    3    0  504 -0.15123324606E+03  0.17272158944E+02  0.40502440122E+02  0.15758286659E+03  0.47000000000E+01 0.  1.
<mgrwt>
<rscale>  2 0.27190183E+03</rscale>
<asrwt>0</asrwt>
<pdfrwt beam="1">  1       21 0.57234006E-01 0.27211544E+03</pdfrwt>
<pdfrwt beam="2">  1       21 0.33012005E-01 0.27211544E+03</pdfrwt>
<totfact> 0.24334839E+04</totfact>
</mgrwt>
</event>
<event>
12    1  0.2736842E-001  0.2479851E+03  0.7546771E-02  0.1115386E+00
         21   -1    0    0  502  503  0.00000000000E+00  0.00000000000E+00  0.26957078290E+03  0.26957078290E+03  0.00000000000E+00 0.  1.
         21   -1    0    0  503  504 -0.00000000000E+00 -0.00000000000E+00 -0.56440377323E+03  0.56440377323E+03  0.00000000000E+00 0.  1.
         -6    2    1    2    0  504  0.43971485485E+01  0.16804019998E+03 -0.47085244570E+03  0.52987023087E+03  0.17550952175E+03 0.  0.
        -24    2    3    3    0    0  0.61865544627E+02  0.71702840013E+02 -0.18296016258E+03  0.22085961593E+03  0.79598404364E+02 0.  0.
          6    2    1    2  502    0 -0.43971485485E+01 -0.16804019998E+03  0.17601945537E+03  0.30410432526E+03  0.18231771238E+03 0.  0.
         24    2    5    5    0    0  0.29217579231E+02 -0.13243177912E+03  0.19671888521E+03  0.25073330357E+03  0.76006754080E+02 0.  0.
          2    1    6    6  501    0  0.35626312318E+02 -0.16538564321E+02  0.45615105650E+02  0.60195482411E+02  0.00000000000E+00 0. -1.
         -1    1    6    6    0  501 -0.64087330876E+01 -0.11589321480E+03  0.15110377956E+03  0.19053782116E+03  0.00000000000E+00 0.  1.
          5    1    5    5  502    0 -0.33614727779E+02 -0.35608420859E+02 -0.20699429842E+02  0.53371021684E+02  0.47000000000E+01 0. -1.
         11    1    4    4    0    0 -0.57284224598E+01 -0.12549072604E+02 -0.35376682125E+02  0.37971090125E+02  0.00000000000E+00 0. -1.
        -12    1    4    4    0    0  0.67593967087E+02  0.84251912617E+02 -0.14758348046E+03  0.18288852580E+03  0.00000000000E+00 0.  1.
         -5    1    3    3    0  504 -0.57468396079E+02  0.96337359965E+02 -0.28789228312E+03  0.30901061495E+03  0.47000000000E+01 0.  1.
<mgrwt>
<rscale>  2 0.24673526E+03</rscale>
<asrwt>0</asrwt>
<pdfrwt beam="1">  1       21 0.41472429E-01 0.24798506E+03</pdfrwt>
<pdfrwt beam="2">  1       21 0.86831349E-01 0.24798506E+03</pdfrwt>
<totfact> 0.61498929E+03</totfact>
</mgrwt>
</event>
<event>
12    1  0.2736842E-001  0.1850930E+03  0.7546771E-02  0.1163180E+00
         21   -1    0    0  502  503  0.00000000000E+00  0.00000000000E+00  0.46928889133E+02  0.46928889133E+02  0.00000000000E+00 0. -1.
         21   -1    0    0  503  504 -0.00000000000E+00 -0.00000000000E+00 -0.13180187843E+04  0.13180187843E+04  0.00000000000E+00 0. -1.
         -6    2    1    2    0  504 -0.60921073315E+02 -0.23283501854E+02 -0.10919167606E+04  0.11073386391E+04  0.17222993580E+03 0.  0.
        -24    2    3    3    0    0  0.62921216245E+01 -0.56650036194E+02 -0.42999829647E+03  0.44116367527E+03  0.80486247376E+02 0.  0.
          6    2    1    2  502    0  0.60921073315E+02  0.23283501854E+02 -0.17917313459E+03  0.25760903442E+03  0.17322212279E+03 0.  0.
         24    2    5    5    0    0  0.80879081346E+02  0.68356717592E+02 -0.14750419348E+03  0.19883039296E+03  0.81005996259E+02 0.  0.
          4    1    6    6  501    0  0.91830807928E+02  0.38488464691E+02 -0.96120613215E+02  0.13839592293E+03  0.00000000000E+00 0. -1.
         -3    1    6    6    0  501 -0.10951726582E+02  0.29868252901E+02 -0.51383580264E+02  0.60434470025E+02  0.00000000000E+00 0.  1.
          5    1    5    5  502    0 -0.19958008031E+02 -0.45073215738E+02 -0.31668941112E+02  0.58778641466E+02  0.47000000000E+01 0. -1.
         13    1    4    4    0    0  0.29248610638E+01 -0.91177349587E+01 -0.33255824092E+03  0.33269606476E+03  0.00000000000E+00 0. -1.
        -14    1    4    4    0    0  0.33672605607E+01 -0.47532301235E+02 -0.97440055546E+02  0.10846761051E+03  0.00000000000E+00 0.  1.
         -5    1    3    3    0  504 -0.67213194940E+02  0.33366534340E+02 -0.66191846415E+03  0.66617496378E+03  0.47000000000E+01 0.  1.
<mgrwt>
<rscale>  2 0.18486046E+03</rscale>
<asrwt>0</asrwt>
<pdfrwt beam="1">  1       21 0.72198290E-02 0.18509296E+03</pdfrwt>
<pdfrwt beam="2">  1       21 0.20277212E+00 0.18509296E+03</pdfrwt>
<totfact> 0.18592387E+04</totfact>
</mgrwt>
</event>
<event>
12    1  0.2736842E-001  0.1730103E+03  0.7546771E-02  0.1174922E+00
         21   -1    0    0  502  503  0.00000000000E+00  0.00000000000E+00  0.23795545142E+03  0.23795545142E+03  0.00000000000E+00 0.  1.
         21   -1    0    0  503  504 -0.00000000000E+00 -0.00000000000E+00 -0.38606494549E+03  0.38606494549E+03  0.00000000000E+00 0.  1.
         -6    2    1    2    0  504 -0.50302332692E+01 -0.61374851180E+01 -0.33053619304E+03  0.37307737192E+03  0.17282817639E+03 0.  0.
        -24    2    3    3    0    0 -0.13516208105E+02 -0.30760504046E+02 -0.68776453799E+02  0.10998317601E+03  0.78975957846E+02 0.  0.
          6    2    1    2  502    0  0.50302332692E+01  0.61374851180E+01  0.18242669897E+03  0.25094302500E+03  0.17213346371E+03 0.  0.
         24    2    5    5    0    0  0.92299336173E+01 -0.63673944174E+02  0.11505659523E+03  0.15372114464E+03  0.79073430188E+02 0.  0.
          4    1    6    6  501    0  0.43779939458E+02 -0.42586308736E+02  0.75677816452E+02  0.97249209219E+02  0.00000000000E+00 0. -1.
         -3    1    6    6    0  501 -0.34550005841E+02 -0.21087635438E+02  0.39378778778E+02  0.56471935420E+02  0.00000000000E+00 0.  1.
          5    1    5    5  502    0 -0.41997003482E+01  0.69811429292E+02  0.67370103736E+02  0.97221880357E+02  0.47000000000E+01 0. -1.
         13    1    4    4    0    0 -0.16743573540E+02  0.76532107687E+01  0.10954314536E+02  0.21422322398E+02  0.00000000000E+00 0. -1.
        -14    1    4    4    0    0  0.32273654357E+01 -0.38413714815E+02 -0.79730768335E+02  0.88560853613E+02  0.00000000000E+00 0.  1.
         -5    1    3    3    0  504  0.84859748355E+01  0.24623018928E+02 -0.26175973924E+03  0.26309419590E+03  0.47000000000E+01 0.  1.
<mgrwt>
<rscale>  2 0.17283651E+03</rscale>
<asrwt>0</asrwt>
<pdfrwt beam="1">  1       21 0.36608531E-01 0.17301026E+03</pdfrwt>
<pdfrwt beam="2">  1       21 0.59394607E-01 0.17301026E+03</pdfrwt>
<totfact> 0.19287435E+04</totfact>
</mgrwt>
</event>
<event>
12    1  0.2736842E-001  0.1834142E+03  0.7546771E-02  0.1164736E+00
         21   -1    0    0  502  503  0.00000000000E+00  0.00000000000E+00  0.19278327891E+03  0.19278327891E+03  0.00000000000E+00 0.  1.
         21   -1    0    0  503  504 -0.00000000000E+00 -0.00000000000E+00 -0.27809601984E+03  0.27809601984E+03  0.00000000000E+00 0.  1.
         -6    2    1    2    0  504 -0.11803261763E+02 -0.57523952161E+02 -0.18684051280E+03  0.26123995491E+03  0.17288324025E+03 0.  0.
        -24    2    3    3    0    0  0.18610757930E+02  0.20181757565E+02 -0.44791935596E+02  0.96427703537E+02  0.80859884157E+02 0.  0.
          6    2    1    2  502    0  0.11803261763E+02  0.57523952161E+02  0.10152777187E+03  0.20963934384E+03  0.17375973056E+03 0.  0.
         24    2    5    5    0    0 -0.13602833466E+02  0.30605080026E+02  0.13451468090E+03  0.15983651742E+03  0.79572639284E+02 0.  0.
          4    1    6    6  501    0  0.13468147117E+02  0.38007048104E+02  0.12310599293E+03  0.12954154618E+03  0.00000000000E+00 0. -1.
         -3    1    6    6    0  501 -0.27070980583E+02 -0.74019680783E+01  0.11408687968E+02  0.30294971238E+02  0.00000000000E+00 0.  1.
          5    1    5    5  502    0  0.25406095230E+02  0.26918872135E+02 -0.32986909028E+02  0.49802826417E+02  0.47000000000E+01 0. -1.
         13    1    4    4    0    0 -0.18882016197E+02 -0.98342729621E+01  0.10038102489E+02  0.23537352483E+02  0.00000000000E+00 0. -1.
        -14    1    4    4    0    0  0.37492774127E+02  0.30016030527E+02 -0.54830038085E+02  0.72890351053E+02  0.00000000000E+00 0.  1.
         -5    1    3    3    0  504 -0.30414019694E+02 -0.77705709725E+02 -0.14204857721E+03  0.16481225138E+03  0.47000000000E+01 0.  1.
<mgrwt>
<rscale>  2 0.18320630E+03</rscale>
<asrwt>0</asrwt>
<pdfrwt beam="1">  1       21 0.29658966E-01 0.18341419E+03</pdfrwt>
<pdfrwt beam="2">  1       21 0.42784003E-01 0.18341419E+03</pdfrwt>
<totfact> 0.57492124E+04</totfact>
</mgrwt>
</event>
<event>
12    1  0.2736842E-001  0.2283943E+03  0.7546771E-02  0.1128038E+00
         21   -1    0    0  502  503  0.00000000000E+00  0.00000000000E+00  0.33741549415E+03  0.33741549415E+03  0.00000000000E+00 0.  1.
         21   -1    0    0  503  504 -0.00000000000E+00 -0.00000000000E+00 -0.41201064483E+03  0.41201064483E+03  0.00000000000E+00 0.  1.
         -6    2    1    2    0  504 -0.14372491608E+03  0.37594432627E+02 -0.33400759510E+03  0.40379806924E+03  0.17152729890E+03 0.  0.
        -24    2    3    3    0    0 -0.10316789702E+03 -0.23361106136E+01 -0.10508386338E+03  0.16785849006E+03  0.80528143861E+02 0.  0.
          6    2    1    2  502    0  0.14372491608E+03 -0.37594432627E+02  0.25941244443E+03  0.34562806974E+03  0.17347551239E+03 0.  0.
         24    2    5    5    0    0  0.23203340977E+02  0.25282956693E+02  0.13622130477E+03  0.16211468319E+03  0.80915410762E+02 0.  0.
          2    1    6    6  501    0  0.35147361252E+01  0.40635769839E+02  0.24375588819E+02  0.47516191879E+02  0.00000000000E+00 0. -1.
         -1    1    6    6    0  501  0.19688604852E+02 -0.15352813146E+02  0.11184571595E+03  0.11459849131E+03  0.00000000000E+00 0.  1.
          5    1    5    5  502    0  0.12052157510E+03 -0.62877389320E+02  0.12319113966E+03  0.18351338655E+03  0.47000000000E+01 0. -1.
         13    1    4    4    0    0 -0.57882476089E+02  0.38632657888E+02 -0.61009545905E+02  0.92547436406E+02  0.00000000000E+00 0. -1.
        -14    1    4    4    0    0 -0.45285420929E+02 -0.40968768502E+02 -0.44074317474E+02  0.75311053651E+02  0.00000000000E+00 0.  1.
         -5    1    3    3    0  504 -0.40557019062E+02  0.39930543240E+02 -0.22892373173E+03  0.23593957918E+03  0.47000000000E+01 0.  1.
<mgrwt>
<rscale>  2 0.22802433E+03</rscale>
<asrwt>0</asrwt>
<pdfrwt beam="1">  1       21 0.51910076E-01 0.22839428E+03</pdfrwt>
<pdfrwt beam="2">  1       21 0.63386253E-01 0.22839428E+03</pdfrwt>
<totfact> 0.79139774E+03</totfact>
</mgrwt>
</event>
<event>
12    1  0.2736842E-001  0.2114148E+03  0.7546771E-02  0.1140491E+00
         21   -1    0    0  502  503  0.00000000000E+00  0.00000000000E+00  0.11423427596E+03  0.11423427596E+03  0.00000000000E+00 0.  1.
         21   -1    0    0  503  504 -0.00000000000E+00 -0.00000000000E+00 -0.42444469206E+03  0.42444469206E+03  0.00000000000E+00 0.  1.
         -6    2    1    2    0  504  0.11357322149E+03 -0.48129467660E+02 -0.79304866422E+02  0.22560774277E+03  0.17144757060E+03 0.  0.
        -24    2    3    3    0    0  0.44106047943E+02  0.67098782346E+01  0.18043801757E+02  0.93957086657E+02  0.80696898455E+02 0.  0.
          6    2    1    2  502    0 -0.11357322149E+03  0.48129467660E+02 -0.23090554967E+03  0.31307122525E+03  0.17170002013E+03 0.  0.
         24    2    5    5    0    0 -0.93918265077E+02  0.85834953637E+02 -0.11414700582E+03  0.18872224638E+03  0.79989171517E+02 0.  0.
          2    1    6    6  501    0 -0.56370611294E+02  0.94179626044E+02 -0.97495744403E+02  0.14680895053E+03  0.00000000000E+00 0. -1.
         -1    1    6    6    0  501 -0.37547653783E+02 -0.83446724068E+01 -0.16651261421E+02  0.41913295851E+02  0.00000000000E+00 0.  1.
          5    1    5    5  502    0 -0.19654956416E+02 -0.37705485977E+02 -0.11675854385E+03  0.12434897887E+03  0.47000000000E+01 0. -1.
         11    1    4    4    0    0  0.22049044391E+02 -0.32325874844E+02 -0.10863762877E+02  0.40609652631E+02  0.00000000000E+00 0. -1.
        -12    1    4    4    0    0  0.22057003552E+02  0.39035753078E+02  0.28907564635E+02  0.53347434026E+02  0.00000000000E+00 0.  1.
         -5    1    3    3    0  504  0.69467173550E+02 -0.54839345894E+02 -0.97348668179E+02  0.13165065611E+03  0.47000000000E+01 0.  1.
<mgrwt>
<rscale>  2 0.21136354E+03</rscale>
<asrwt>0</asrwt>
<pdfrwt beam="1">  1       21 0.17574504E-01 0.21141480E+03</pdfrwt>
<pdfrwt beam="2">  1       21 0.65299183E-01 0.21141480E+03</pdfrwt>
<totfact> 0.62774149E+04</totfact>
</mgrwt>
</event>
<event>
12    1  0.2736842E-001  0.2798223E+03  0.7546771E-02  0.1095807E+00
         21   -1    0    0  502  503  0.00000000000E+00  0.00000000000E+00  0.21821224497E+03  0.21821224497E+03  0.00000000000E+00 0.  1.
         21   -1    0    0  503  504 -0.00000000000E+00 -0.00000000000E+00 -0.35913466366E+03  0.35913466366E+03  0.00000000000E+00 0. -1.
         -6    2    1    2    0  504 -0.16436454511E+03  0.14625842848E+03 -0.81256085122E+02  0.29123403335E+03  0.17264842663E+03 0.  0.
        -24    2    3    3    0    0 -0.10795872670E+03  0.56978393742E+02  0.14870496050E+02  0.14835313693E+03  0.82981308495E+02 0.  0.
          6    2    1    2  502    0  0.16436454511E+03 -0.14625842848E+03 -0.59666333570E+02  0.28611287529E+03  0.17289671614E+03 0.  0.
         24    2    5    5    0    0  0.10573552495E+03 -0.29400512671E+02  0.10487676141E+02  0.13766487237E+03  0.82445341600E+02 0.  0.
          2    1    6    6  501    0  0.68344335354E+02  0.12593431691E+02 -0.21789972118E+02  0.72830938355E+02  0.00000000000E+00 0. -1.
         -1    1    6    6    0  501  0.37391189597E+02 -0.41993944363E+02  0.32277648259E+02  0.64833934014E+02  0.00000000000E+00 0.  1.
          5    1    5    5  502    0  0.58629020163E+02 -0.11685791581E+03 -0.70154009711E+02  0.14844800292E+03  0.47000000000E+01 0. -1.
         13    1    4    4    0    0 -0.80475103413E+02  0.77972910789E+02  0.18528806942E+02  0.11357523398E+03  0.00000000000E+00 0. -1.
        -14    1    4    4    0    0 -0.27483623291E+02 -0.20994517048E+02 -0.36583108927E+01  0.34777902953E+02  0.00000000000E+00 0.  1.
         -5    1    3    3    0  504 -0.56405818410E+02  0.89280034735E+02 -0.96126581172E+02  0.14288089642E+03  0.47000000000E+01 0.  1.
<mgrwt>
<rscale>  2 0.27978393E+03</rscale>
<asrwt>0</asrwt>
<pdfrwt beam="1">  1       21 0.33571115E-01 0.27982228E+03</pdfrwt>
<pdfrwt beam="2">  1       21 0.55251487E-01 0.27982228E+03</pdfrwt>
<totfact> 0.25299419E+04</totfact>
</mgrwt>
</event>
<event>
12    1  0.2736842E-001  0.1759410E+03  0.7546771E-02  0.1172006E+00
         21   -1    0    0  502  503  0.00000000000E+00  0.00000000000E+00  0.12861151687E+02  0.12861151687E+02  0.00000000000E+00 0. -1.
         21   -1    0    0  503  504 -0.00000000000E+00 -0.00000000000E+00 -0.31023196495E+04  0.31023196495E+04  0.00000000000E+00 0. -1.
         -6    2    1    2    0  504 -0.14575654987E+02 -0.26883229631E+02 -0.22913549172E+04  0.22980997779E+04  0.17326302205E+03 0.  0.
        -24    2    3    3    0    0 -0.71768858096E+02 -0.33360274385E+01 -0.17125600923E+04  0.17159906193E+04  0.81239384714E+02 0.  0.
          6    2    1    2  502    0  0.14575654987E+02  0.26883229631E+02 -0.79810358064E+03  0.81708102333E+03  0.17238594923E+03 0.  0.
         24    2    5    5    0    0 -0.62426138292E+01 -0.27476385684E+02 -0.21870496685E+03  0.23474674496E+03  0.80499998431E+02 0.  0.
          2    1    6    6  501    0 -0.34706106224E+01 -0.34906141295E+02 -0.22299058107E+03  0.22573276918E+03  0.00000000000E+00 0. -1.
         -1    1    6    6    0  501 -0.27720032068E+01  0.74297556107E+01  0.42856142135E+01  0.90139757821E+01  0.00000000000E+00 0.  1.
          5    1    5    5  502    0  0.20818268817E+02  0.54359615316E+02 -0.57939861379E+03  0.58233427836E+03  0.47000000000E+01 0. -1.
         11    1    4    4    0    0 -0.73847009074E+01 -0.35594502410E+02 -0.54274123802E+03  0.54395730885E+03  0.00000000000E+00 0. -1.
        -12    1    4    4    0    0 -0.64384157188E+02  0.32258474971E+02 -0.11698188543E+04  0.11720333104E+04  0.00000000000E+00 0.  1.
         -5    1    3    3    0  504  0.57193203108E+02 -0.23547202193E+02 -0.57879482486E+03  0.58210915857E+03  0.47000000000E+01 0.  1.
<mgrwt>
<rscale>  2 0.17572468E+03</rscale>
<asrwt>0</asrwt>
<pdfrwt beam="1">  1       21 0.19786358E-02 0.17594099E+03</pdfrwt>
<pdfrwt beam="2">  1       21 0.47728065E+00 0.17594099E+03</pdfrwt>
<totfact> 0.35017323E+03</totfact>
</mgrwt>
</event>
<event>
12    1  0.2736842E-001  0.1966095E+03  0.7546771E-02  0.1152739E+00
         21   -1    0    0  502  503  0.00000000000E+00  0.00000000000E+00  0.26491780501E+03  0.26491780501E+03  0.00000000000E+00 0. -1.
         21   -1    0    0  503  504 -0.00000000000E+00 -0.00000000000E+00 -0.14915033716E+03  0.14915033716E+03  0.00000000000E+00 0.  1.
         -6    2    1    2    0  504 -0.85938786311E+02  0.39264657169E+02  0.25772760906E+02  0.19829155214E+03  0.17241843332E+03 0.  0.
        -24    2    3    3    0    0 -0.71940445304E+02  0.35271971376E+02  0.80934352352E+02  0.14104833191E+03  0.83214919992E+02 0.  0.
          6    2    1    2  502    0  0.85938786311E+02 -0.39264657169E+02  0.89994706943E+02  0.21577659002E+03  0.17185255666E+03 0.  0.
         24    2    5    5    0    0  0.70693156545E+02  0.16393382122E+02 -0.19695553253E+01  0.10710386070E+03  0.78747015619E+02 0.  0.
          2    1    6    6  501    0  0.78539554486E+02  0.35648508066E+02 -0.27741901951E+01  0.86295850870E+02  0.00000000000E+00 0. -1.
         -1    1    6    6    0  501 -0.78463979413E+01 -0.19255125944E+02  0.80463486976E+00  0.20808009829E+02  0.00000000000E+00 0.  1.
          5    1    5    5  502    0  0.15245629766E+02 -0.55658039291E+02  0.91964262268E+02  0.10867272933E+03  0.47000000000E+01 0. -1.
         13    1    4    4    0    0 -0.14655647367E+02 -0.26974436768E+02  0.17735803804E+02  0.35453730061E+02  0.00000000000E+00 0. -1.
        -14    1    4    4    0    0 -0.57284797937E+02  0.62246408144E+02  0.63198548548E+02  0.10559460185E+03  0.00000000000E+00 0.  1.
         -5    1    3    3    0  504 -0.13998341007E+02  0.39926857924E+01 -0.55161591446E+02  0.57243220224E+02  0.47000000000E+01 0.  1.
<mgrwt>
<rscale>  2 0.19648539E+03</rscale>
<asrwt>0</asrwt>
<pdfrwt beam="1">  1       21 0.40756585E-01 0.19660952E+03</pdfrwt>
<pdfrwt beam="2">  1       21 0.22946206E-01 0.19660952E+03</pdfrwt>
<totfact> 0.10322818E+05</totfact>
</mgrwt>
</event>
<event>
12    1  0.2736842E-001  0.1811002E+03  0.7546771E-02  0.1166940E+00
         21   -1    0    0  502  503  0.00000000000E+00  0.00000000000E+00  0.25886701552E+02  0.25886701552E+02  0.00000000000E+00 0.  1.
         21   -1    0    0  503  504 -0.00000000000E+00 -0.00000000000E+00 -0.30307453254E+04  0.30307453254E+04  0.00000000000E+00 0.  1.
         -6    2    1    2    0  504  0.52760125446E+02 -0.16113043037E+02 -0.26688029458E+04  0.26748851312E+04  0.17163344795E+03 0.  0.
        -24    2    3    3    0    0  0.95596034635E+02 -0.38986867614E+02 -0.17909517542E+04  0.17956792784E+04  0.79355575042E+02 0.  0.
          6    2    1    2  502    0 -0.52760125446E+02  0.16113043037E+02 -0.33605567803E+03  0.38174689576E+03  0.17249351494E+03 0.  0.
         24    2    5    5    0    0  0.37083336612E+02  0.61569073236E+01 -0.19646246389E+03  0.21537584135E+03  0.79850935857E+02 0.  0.
          2    1    6    6  501    0  0.45266901434E+02 -0.24795720789E+02 -0.85346649408E+02  0.99739514236E+02  0.00000000000E+00 0. -1.
         -1    1    6    6    0  501 -0.81835648220E+01  0.30952628113E+02 -0.11111581448E+03  0.11563632711E+03  0.00000000000E+00 0.  1.
          5    1    5    5  502    0 -0.89843462058E+02  0.99561357135E+01 -0.13959321414E+03  0.16637105442E+03  0.47000000000E+01 0. -1.
         11    1    4    4    0    0  0.77360066873E+02 -0.60824567805E+02 -0.15349805870E+04  0.15381318573E+04  0.00000000000E+00 0. -1.
        -12    1    4    4    0    0  0.18235967763E+02  0.21837700191E+02 -0.25597116718E+03  0.25754742106E+03  0.00000000000E+00 0.  1.
         -5    1    3    3    0  504 -0.42835909189E+02  0.22873824576E+02 -0.87785119161E+03  0.87920585279E+03  0.47000000000E+01 0.  1.
<mgrwt>
<rscale>  2 0.18089508E+03</rscale>
<asrwt>0</asrwt>
<pdfrwt beam="1">  1       21 0.39825697E-02 0.18110018E+03</pdfrwt>
<pdfrwt beam="2">  1       21 0.46626848E+00 0.18110018E+03</pdfrwt>
<totfact> 0.13025775E+03</totfact>
</mgrwt>
</event>
<event>
12    1  0.2736842E-001  0.1959718E+03  0.7546771E-02  0.1154688E+00
         21   -1    0    0  502  503  0.00000000000E+00  0.00000000000E+00  0.29450131820E+03  0.29450131820E+03  0.00000000000E+00 0. -1.
         21   -1    0    0  503  504 -0.00000000000E+00 -0.00000000000E+00 -0.13562428043E+03  0.13562428043E+03  0.00000000000E+00 0.  1.
         -6    2    1    2    0  504  0.25617830452E+02  0.88990761953E+02  0.13829550457E+03  0.23985539799E+03  0.17271171475E+03 0.  0.
        -24    2    3    3    0    0  0.45910097838E+02  0.65006610995E+02  0.16524146934E+03  0.19819977856E+03  0.75131967062E+02 0.  0.
          6    2    1    2  502    0 -0.25617830452E+02 -0.88990761953E+02  0.20581533192E+02  0.19027020063E+03  0.16493489864E+03 0.  0.
         24    2    5    5    0    0 -0.58855719902E+02 -0.47321371528E+02 -0.34335974207E+02  0.11359479381E+03  0.77598389716E+02 0.  0.
          2    1    6    6  501    0 -0.50594123685E+02 -0.35017906157E+02  0.13944539097E+02  0.63090960317E+02  0.00000000000E+00 0. -1.
         -1    1    6    6    0  501 -0.82615962170E+01 -0.12303465370E+02 -0.48280513304E+02  0.50503833489E+02  0.00000000000E+00 0.  1.
          5    1    5    5  502    0  0.33237889450E+02 -0.41669390425E+02  0.54917507399E+02  0.76675406829E+02  0.47000000000E+01 0. -1.
         13    1    4    4    0    0  0.39305069636E+02  0.82150207083E+02  0.13820845347E+03  0.16551471727E+03  0.00000000000E+00 0. -1.
        -14    1    4    4    0    0  0.66050282020E+01 -0.17143596088E+02  0.27033015871E+02  0.32685061289E+02  0.00000000000E+00 0.  1.
         -5    1    3    3    0  504 -0.20292267386E+02  0.23984150958E+02 -0.26945964769E+02  0.41655619431E+02  0.47000000000E+01 0.  1.
<mgrwt>
<rscale>  2 0.19424463E+03</rscale>
<asrwt>0</asrwt>
<pdfrwt beam="1">  1       21 0.45307895E-01 0.19597185E+03</pdfrwt>
<pdfrwt beam="2">  1       21 0.20865274E-01 0.19597185E+03</pdfrwt>
<totfact> 0.99510710E+04</totfact>
</mgrwt>
</event>
<event>
12    1  0.2736842E-001  0.2854277E+03  0.7546771E-02  0.1092826E+00
         21   -1    0    0  502  503  0.00000000000E+00  0.00000000000E+00  0.20905084545E+03  0.20905084545E+03  0.00000000000E+00 0.  1.
         21   -1    0    0  503  504 -0.00000000000E+00 -0.00000000000E+00 -0.56298713252E+03  0.56298713252E+03  0.00000000000E+00 0.  1.
         -6    2    1    2    0  504  0.15223717564E+03  0.16896535289E+03 -0.39164127207E+03  0.48461516617E+03  0.17246311248E+03 0.  0.
        -24    2    3    3    0    0  0.15659306435E+03  0.94129152451E+02 -0.21704953198E+03  0.29455255445E+03  0.79177161220E+02 0.  0.
          6    2    1    2  502    0 -0.15223717564E+03 -0.16896535289E+03  0.37704985008E+02  0.28742281180E+03  0.17165301840E+03 0.  0.
         24    2    5    5    0    0 -0.18884716735E+02 -0.99107364691E+02 -0.11171044447E+02  0.12907517820E+03  0.79728960432E+02 0.  0.
          4    1    6    6  501    0 -0.17702867110E+02 -0.71102295007E+02 -0.44343342691E+02  0.85646131846E+02  0.00000000000E+00 0. -1.
         -3    1    6    6    0  501 -0.11818496248E+01 -0.28005069684E+02  0.33172298244E+02  0.43429046355E+02  0.00000000000E+00 0.  1.
          5    1    5    5  502    0 -0.13335245890E+03 -0.69857988201E+02  0.48876029455E+02  0.15834763360E+03  0.47000000000E+01 0. -1.
         11    1    4    4    0    0  0.66456060110E+02  0.40077218920E+02 -0.15277441681E+03  0.17135522704E+03  0.00000000000E+00 0. -1.
        -12    1    4    4    0    0  0.90137004241E+02  0.54051933531E+02 -0.64275115164E+02  0.12319732741E+03  0.00000000000E+00 0.  1.
         -5    1    3    3    0  504 -0.43558887108E+01  0.74836200440E+02 -0.17459174010E+03  0.19006261172E+03  0.47000000000E+01 0.  1.
<mgrwt>
<rscale>  2 0.28530544E+03</rscale>
<asrwt>0</asrwt>
<pdfrwt beam="1">  1       21 0.32161669E-01 0.28542770E+03</pdfrwt>
<pdfrwt beam="2">  1       21 0.86613404E-01 0.28542770E+03</pdfrwt>
<totfact> 0.10109601E+04</totfact>
</mgrwt>
</event>
<event>
12    1  0.2736842E-001  0.2213979E+03  0.7546771E-02  0.1136119E+00
         21   -1    0    0  502  503  0.00000000000E+00  0.00000000000E+00  0.29645185301E+03  0.29645185301E+03  0.00000000000E+00 0. -1.
         21   -1    0    0  503  504 -0.00000000000E+00 -0.00000000000E+00 -0.31862560636E+03  0.31862560636E+03  0.00000000000E+00 0. -1.
         -6    2    1    2    0  504  0.89813675779E+02  0.61659666809E+02 -0.23300089016E+03  0.32141320240E+03  0.19273977532E+03 0.  0.
        -24    2    3    3    0    0  0.21864693735E+02 -0.86959800727E+00 -0.57546424558E+02  0.12308687379E+03  0.10658314354E+03 0.  0.
          6    2    1    2  502    0 -0.89813675779E+02 -0.61659666809E+02  0.21082713681E+03  0.29366425698E+03  0.17298035537E+03 0.  0.
         24    2    5    5    0    0 -0.38033756405E+01 -0.21598290365E+02  0.26446881646E+02  0.86249565826E+02  0.79111302880E+02 0.  0.
          4    1    6    6  501    0 -0.24710272988E+02 -0.39723093370E+02 -0.16564480663E+01  0.46810955536E+02  0.00000000000E+00 0. -1.
         -3    1    6    6    0  501  0.20906897348E+02  0.18124803005E+02  0.28103329712E+02  0.39438610290E+02  0.00000000000E+00 0.  1.
          5    1    5    5  502    0 -0.86010300139E+02 -0.40061376444E+02  0.18438025516E+03  0.20741469115E+03  0.47000000000E+01 0. -1.
         13    1    4    4    0    0  0.57807724834E+02 -0.19345262343E+02 -0.55790789816E+02  0.82635249463E+02  0.00000000000E+00 0. -1.
        -14    1    4    4    0    0 -0.35943031098E+02  0.18475664336E+02 -0.17556347425E+01  0.40451624325E+02  0.00000000000E+00 0.  1.
         -5    1    3    3    0  504  0.67948982044E+02  0.62529264816E+02 -0.17545446560E+03  0.19832632861E+03  0.47000000000E+01 0.  1.
<mgrwt>
<rscale>  2 0.21702760E+03</rscale>
<asrwt>0</asrwt>
<pdfrwt beam="1">  1       21 0.45607977E-01 0.22139790E+03</pdfrwt>
<pdfrwt beam="2">  1       21 0.49019324E-01 0.22139790E+03</pdfrwt>
<totfact> 0.17995058E+04</totfact>
</mgrwt>
</event>
<event>
12    1  0.2736842E-001  0.2784290E+03  0.7546771E-02  0.1096745E+00
         21   -1    0    0  502  503  0.00000000000E+00  0.00000000000E+00  0.11966636939E+04  0.11966636939E+04  0.00000000000E+00 0. -1.
         21   -1    0    0  503  504 -0.00000000000E+00 -0.00000000000E+00 -0.92211058511E+02  0.92211058511E+02  0.00000000000E+00 0. -1.
         -6    2    1    2    0  504  0.11695817666E+03  0.18211970537E+03  0.19767332995E+03  0.34031192275E+03  0.17288914721E+03 0.  0.
        -24    2    3    3    0    0 -0.12134083814E+01  0.90110481787E+02  0.12500989930E+03  0.17378179068E+03  0.80319764444E+02 0.  0.
          6    2    1    2  502    0 -0.11695817666E+03 -0.18211970537E+03  0.90677930543E+03  0.94856282965E+03  0.17514545632E+03 0.  0.
         24    2    5    5    0    0 -0.64684126619E+02 -0.19769866325E+03  0.71562510407E+03  0.74972294700E+03  0.81831595314E+02 0.  0.
          2    1    6    6  501    0 -0.78478586896E+02 -0.17868022570E+03  0.57670565323E+03  0.60883078283E+03  0.00000000000E+00 0. -1.
         -1    1    6    6    0  501  0.13794460276E+02 -0.19018437548E+02  0.13891945084E+03  0.14089216417E+03  0.00000000000E+00 0.  1.
          5    1    5    5  502    0 -0.52274050038E+02  0.15578957882E+02  0.19115420136E+03  0.19883988265E+03  0.47000000000E+01 0. -1.
         11    1    4    4    0    0  0.17275170908E+02  0.44105673827E+02  0.11334843830E+03  0.12284791597E+03  0.00000000000E+00 0. -1.
        -12    1    4    4    0    0 -0.18488579289E+02  0.46004807960E+02  0.11661460994E+02  0.50933874701E+02  0.00000000000E+00 0.  1.
         -5    1    3    3    0  504  0.11817158504E+03  0.92009223580E+02  0.72663430650E+02  0.16653013207E+03  0.47000000000E+01 0.  1.
<mgrwt>
<rscale>  2 0.27807493E+03</rscale>
<asrwt>0</asrwt>
<pdfrwt beam="1">  1       21 0.18410210E+00 0.27842904E+03</pdfrwt>
<pdfrwt beam="2">  1       21 0.14186317E-01 0.27842904E+03</pdfrwt>
<totfact> 0.69640767E+03</totfact>
</mgrwt>
</event>
<event>
12    1  0.2736842E-001  0.3522810E+03  0.7546771E-02  0.1061729E+00
         21   -1    0    0  502  503  0.00000000000E+00  0.00000000000E+00  0.11350305761E+03  0.11350305761E+03  0.00000000000E+00 0. -1.
         21   -1    0    0  503  504 -0.00000000000E+00 -0.00000000000E+00 -0.12216575960E+04  0.12216575960E+04  0.00000000000E+00 0.  1.
         -6    2    1    2    0  504  0.29744529176E+03  0.74980242580E+02 -0.77125987791E+03  0.84771842295E+03  0.17230492440E+03 0.  0.
        -24    2    3    3    0    0  0.74462914392E+02  0.65171240812E+02 -0.31798847521E+03  0.34245174917E+03  0.79777903537E+02 0.  0.
          6    2    1    2  502    0 -0.29744529176E+03 -0.74980242580E+02 -0.33689466047E+03  0.48744223064E+03  0.17322291303E+03 0.  0.
         24    2    5    5    0    0 -0.20924220341E+03 -0.10137231249E+03 -0.17781351130E+03  0.30358024934E+03  0.80527495695E+02 0.  0.
          2    1    6    6  501    0 -0.11880667939E+03 -0.90685016690E+02 -0.78450052863E+02  0.16879931906E+03  0.00000000000E+00 0. -1.
         -1    1    6    6    0  501 -0.90435524016E+02 -0.10687295800E+02 -0.99363458437E+02  0.13478093028E+03  0.00000000000E+00 0.  1.
          5    1    5    5  502    0 -0.88203088350E+02  0.26392069910E+02 -0.15908114917E+03  0.18386198130E+03  0.47000000000E+01 0. -1.
         11    1    4    4    0    0  0.35717558817E+02  0.24211705733E+02 -0.40117149953E+02  0.58918048361E+02  0.00000000000E+00 0. -1.
        -12    1    4    4    0    0  0.38745355575E+02  0.40959535079E+02 -0.27787132526E+03  0.28353370081E+03  0.00000000000E+00 0.  1.
         -5    1    3    3    0  504  0.22298237736E+03  0.98090017679E+01 -0.45327140270E+03  0.50526667378E+03  0.47000000000E+01 0.  1.
<mgrwt>
<rscale>  2 0.35216834E+03</rscale>
<asrwt>0</asrwt>
<pdfrwt beam="1">  1       21 0.17462009E-01 0.35228102E+03</pdfrwt>
<pdfrwt beam="2">  1       21 0.18794732E+00 0.35228102E+03</pdfrwt>
<totfact> 0.42887542E+03</totfact>
</mgrwt>
</event>
<event>
12    1  0.2736842E-001  0.2140986E+03  0.7546771E-02  0.1138428E+00
         21   -1    0    0  502  503  0.00000000000E+00  0.00000000000E+00  0.41652441342E+03  0.41652441342E+03  0.00000000000E+00 0. -1.
         21   -1    0    0  503  504 -0.00000000000E+00 -0.00000000000E+00 -0.12225180836E+03  0.12225180836E+03  0.00000000000E+00 0. -1.
         -6    2    1    2    0  504 -0.82487145241E+02  0.95138588990E+02  0.23297596747E+03  0.31641114480E+03  0.17315522196E+03 0.  0.
        -24    2    3    3    0    0 -0.40149425945E+02  0.39849425491E+02  0.27492570438E+02  0.99397572575E+02  0.76968064084E+02 0.  0.
          6    2    1    2  502    0  0.82487145241E+02 -0.95138588990E+02  0.61296637585E+02  0.22236507698E+03  0.17272367943E+03 0.  0.
         24    2    5    5    0    0  0.26199994484E+02  0.65241557980E+01 -0.11205850209E+02  0.85316699552E+02  0.80152129253E+02 0.  0.
          2    1    6    6  501    0 -0.98105106717E+01  0.24092699482E+02  0.21379382971E+02  0.33671684012E+02  0.00000000000E+00 0. -1.
         -1    1    6    6    0  501  0.36010505155E+02 -0.17568543684E+02 -0.32585233181E+02  0.51645015540E+02  0.00000000000E+00 0.  1.
          5    1    5    5  502    0  0.56287150757E+02 -0.10166274479E+03  0.72502487794E+02  0.13704837742E+03  0.47000000000E+01 0. -1.
         13    1    4    4    0    0  0.41596876869E+01  0.39339183185E+02  0.36901056193E+02  0.54097710519E+02  0.00000000000E+00 0. -1.
        -14    1    4    4    0    0 -0.44309113632E+02  0.51024230574E+00 -0.94084857546E+01  0.45299862055E+02  0.00000000000E+00 0.  1.
         -5    1    3    3    0  504 -0.42337719296E+02  0.55289163499E+02  0.20548339703E+03  0.21701357223E+03  0.47000000000E+01 0.  1.
<mgrwt>
<rscale>  2 0.21401133E+03</rscale>
<asrwt>0</asrwt>
<pdfrwt beam="1">  1       21 0.64080678E-01 0.21409860E+03</pdfrwt>
<pdfrwt beam="2">  1       21 0.18807971E-01 0.21409860E+03</pdfrwt>
<totfact> 0.57603779E+04</totfact>
</mgrwt>
</event>
<event>
12    1  0.2736842E-001  0.2020136E+03  0.7546771E-02  0.1148078E+00
         21   -1    0    0  502  503  0.00000000000E+00  0.00000000000E+00  0.29051398240E+02  0.29051398240E+02  0.00000000000E+00 0.  1.
         21   -1    0    0  503  504 -0.00000000000E+00 -0.00000000000E+00 -0.19184281842E+04  0.19184281842E+04  0.00000000000E+00 0.  1.
         -6    2    1    2    0  504  0.10010949337E+03  0.34711504871E+02 -0.14487816779E+04  0.14627801558E+04  0.17184479877E+03 0.  0.
        -24    2    3    3    0    0  0.55541175424E+02  0.39042724847E+01 -0.36813327814E+03  0.38076422507E+03  0.79744712105E+02 0.  0.
          6    2    1    2  502    0 -0.10010949337E+03 -0.34711504871E+02 -0.44059510806E+03  0.48469942660E+03  0.17199617922E+03 0.  0.
         24    2    5    5    0    0 -0.12336814876E+03 -0.39904572407E+02 -0.43330179252E+03  0.45933773398E+03  0.80178771690E+02 0.  0.
          4    1    6    6  501    0 -0.20092042370E+02 -0.27765007144E+02 -0.21284740998E+03  0.21558897403E+03  0.00000000000E+00 0. -1.
         -3    1    6    6    0  501 -0.10327610639E+03 -0.12139565263E+02 -0.22045438254E+03  0.24374875995E+03  0.00000000000E+00 0.  1.
          5    1    5    5  502    0  0.23258655393E+02  0.51930675352E+01 -0.72933155447E+01  0.25361692624E+02  0.47000000000E+01 0. -1.
         11    1    4    4    0    0  0.75969032240E+01 -0.26287905086E+02 -0.44735925863E+02  0.52441109401E+02  0.00000000000E+00 0. -1.
        -12    1    4    4    0    0  0.47944272200E+02  0.30192177571E+02 -0.32339735228E+03  0.32832311567E+03  0.00000000000E+00 0.  1.
         -5    1    3    3    0  504  0.44568317946E+02  0.30807232387E+02 -0.10806483997E+04  0.10820159308E+04  0.47000000000E+01 0.  1.
<mgrwt>
<rscale>  2 0.20198135E+03</rscale>
<asrwt>0</asrwt>
<pdfrwt beam="1">  1       21 0.44694455E-02 0.20201358E+03</pdfrwt>
<pdfrwt beam="2">  1       21 0.29514282E+00 0.20201358E+03</pdfrwt>
<totfact> 0.11724053E+04</totfact>
</mgrwt>
</event>
<event>
12    1  0.2736842E-001  0.2058977E+03  0.7546771E-02  0.1145112E+00
         21   -1    0    0  502  503  0.00000000000E+00  0.00000000000E+00  0.14915927157E+03  0.14915927157E+03  0.00000000000E+00 0. -1.
         21   -1    0    0  503  504 -0.00000000000E+00 -0.00000000000E+00 -0.12954949061E+04  0.12954949061E+04  0.00000000000E+00 0. -1.
         -6    2    1    2    0  504  0.11036030693E+03  0.90989970136E+01 -0.12122865174E+04  0.12296473005E+04  0.17358483308E+03 0.  0.
        -24    2    3    3    0    0  0.21296538070E+02  0.56088558086E+02 -0.44763958704E+03  0.45838379697E+03  0.78326474187E+02 0.  0.
          6    2    1    2  502    0 -0.11036030693E+03 -0.90989970136E+01  0.65950882872E+02  0.21500687716E+03  0.17209372209E+03 0.  0.
         24    2    5    5    0    0 -0.12410840591E+03 -0.43096474049E+01  0.66095061681E+00  0.14794859393E+03  0.80416914338E+02 0.  0.
          2    1    6    6  501    0 -0.94121982263E+02  0.29322222571E+02  0.16961266196E+02  0.10003211900E+03  0.00000000000E+00 0. -1.
         -1    1    6    6    0  501 -0.29986423649E+02 -0.33631869976E+02 -0.16300315579E+02  0.47916474926E+02  0.00000000000E+00 0.  1.
          5    1    5    5  502    0  0.13748098986E+02 -0.47893496086E+01  0.65289932255E+02  0.67058283227E+02  0.47000000000E+01 0. -1.
         11    1    4    4    0    0  0.28311388833E+02 -0.65557196158E+01 -0.22906815191E+03  0.23090415851E+03  0.00000000000E+00 0. -1.
        -12    1    4    4    0    0 -0.70148507630E+01  0.62644277702E+02 -0.21857143513E+03  0.22747963846E+03  0.00000000000E+00 0.  1.
         -5    1    3    3    0  504  0.89063768856E+02 -0.46989561073E+02 -0.76464693040E+03  0.77126350357E+03  0.47000000000E+01 0.  1.
<mgrwt>
<rscale>  2 0.20558315E+03</rscale>
<asrwt>0</asrwt>
<pdfrwt beam="1">  1       21 0.22947580E-01 0.20589775E+03</pdfrwt>
<pdfrwt beam="2">  1       21 0.19930691E+00 0.20589775E+03</pdfrwt>
<totfact> 0.23862710E+03</totfact>
</mgrwt>
</event>
<event>
12    1  0.2736842E-001  0.2995031E+03  0.7546771E-02  0.1085606E+00
         21   -1    0    0  502  503  0.00000000000E+00  0.00000000000E+00  0.63228476920E+03  0.63228476920E+03  0.00000000000E+00 0. -1.
         21   -1    0    0  503  504 -0.00000000000E+00 -0.00000000000E+00 -0.40569513566E+03  0.40569513566E+03  0.00000000000E+00 0. -1.
         -6    2    1    2    0  504 -0.82261312244E+02  0.22923333561E+03 -0.30551495029E+03  0.42783348623E+03  0.17431942359E+03 0.  0.
        -24    2    3    3    0    0  0.82740109044E+01  0.39139473523E+02 -0.83698968991E+02  0.12196302231E+03  0.79177672080E+02 0.  0.
          6    2    1    2  502    0  0.82261312244E+02 -0.22923333561E+03  0.53210458383E+03  0.61014641863E+03  0.17270934657E+03 0.  0.
         24    2    5    5    0    0  0.10580009389E+03 -0.23781238075E+03  0.49671250098E+03  0.56653032315E+03  0.80528939562E+02 0.  0.
          4    1    6    6  501    0  0.44976665359E+02 -0.81725446295E+02  0.26244398891E+03  0.27852970455E+03  0.00000000000E+00 0. -1.
         -3    1    6    6    0  501  0.60823428532E+02 -0.15608693446E+03  0.23426851207E+03  0.28800061860E+03  0.00000000000E+00 0.  1.
          5    1    5    5  502    0 -0.23538781648E+02  0.85790451442E+01  0.35392082843E+02  0.43616095481E+02  0.47000000000E+01 0. -1.
         11    1    4    4    0    0  0.25766384316E+02  0.56465592688E+02 -0.70849851431E+02  0.94191141654E+02  0.00000000000E+00 0. -1.
        -12    1    4    4    0    0 -0.17492373411E+02 -0.17326119166E+02 -0.12849117560E+02  0.27771880653E+02  0.00000000000E+00 0.  1.
         -5    1    3    3    0  504 -0.90535323148E+02  0.19009386209E+03 -0.22181598130E+03  0.30587046392E+03  0.47000000000E+01 0.  1.
<mgrwt>
<rscale>  2 0.29926927E+03</rscale>
<asrwt>0</asrwt>
<pdfrwt beam="1">  1       21 0.97274580E-01 0.29950310E+03</pdfrwt>
<pdfrwt beam="2">  1       21 0.62414636E-01 0.29950310E+03</pdfrwt>
<totfact> 0.19274480E+03</totfact>
</mgrwt>
</event>
<event>
12    1  0.2736842E-001  0.2032732E+03  0.7546771E-02  0.1147377E+00
         21   -1    0    0  502  503  0.00000000000E+00  0.00000000000E+00  0.31728946707E+03  0.31728946707E+03  0.00000000000E+00 0.  1.
         21   -1    0    0  503  504 -0.00000000000E+00 -0.00000000000E+00 -0.21598316959E+03  0.21598316959E+03  0.00000000000E+00 0. -1.
         -6    2    1    2    0  504  0.10014272793E+03  0.33675097095E+02 -0.11860632345E+03  0.23380383884E+03  0.17156397341E+03 0.  0.
        -24    2    3    3    0    0  0.28767437717E+02  0.36293932594E+01  0.87961431129E+01  0.84637304866E+02  0.79027610827E+02 0.  0.
          6    2    1    2  502    0 -0.10014272793E+03 -0.33675097095E+02  0.21991262093E+03  0.29946879782E+03  0.17365892404E+03 0.  0.
         24    2    5    5    0    0 -0.83158928481E+02 -0.52403149305E-01  0.23177028553E+03  0.25969909576E+03  0.82527237615E+02 0.  0.
          2    1    6    6  501    0 -0.21734882643E+02 -0.38843656140E+02  0.88092056197E+02  0.98698759419E+02  0.00000000000E+00 0. -1.
         -1    1    6    6    0  501 -0.61424045838E+02  0.38791252990E+02  0.14367822934E+03  0.16100033634E+03  0.00000000000E+00 0.  1.
          5    1    5    5  502    0 -0.16983799451E+02 -0.33622693945E+02 -0.11857664605E+02  0.39769702058E+02  0.47000000000E+01 0. -1.
         13    1    4    4    0    0 -0.25893622758E+02 -0.88642377240E+01 -0.23497448825E+01  0.27469541514E+02  0.00000000000E+00 0. -1.
        -14    1    4    4    0    0  0.54661060476E+02  0.12493630983E+02  0.11145887995E+02  0.57167763352E+02  0.00000000000E+00 0.  1.
         -5    1    3    3    0  504  0.71375290214E+02  0.30045703835E+02 -0.12740246656E+03  0.14916653397E+03  0.47000000000E+01 0.  1.
<mgrwt>
<rscale>  2 0.20282503E+03</rscale>
<asrwt>0</asrwt>
<pdfrwt beam="1">  1       21 0.48813764E-01 0.20327322E+03</pdfrwt>
<pdfrwt beam="2">  1       21 0.33228180E-01 0.20327322E+03</pdfrwt>
<totfact> 0.34737714E+04</totfact>
</mgrwt>
</event>
<event>
12    1  0.2736842E-001  0.2636766E+03  0.7546771E-02  0.1105066E+00
         21   -1    0    0  502  503  0.00000000000E+00  0.00000000000E+00  0.52754114537E+03  0.52754114537E+03  0.00000000000E+00 0.  1.
         21   -1    0    0  503  504 -0.00000000000E+00 -0.00000000000E+00 -0.21161414522E+03  0.21161414522E+03  0.00000000000E+00 0.  1.
         -6    2    1    2    0  504 -0.46303125201E+02  0.19252106440E+03 -0.69415870829E+02  0.27266079069E+03  0.17411778777E+03 0.  0.
        -24    2    3    3    0    0 -0.55210894813E+02  0.52129189568E+02 -0.74449685555E+02  0.13181812610E+03  0.77894591460E+02 0.  0.
          6    2    1    2  502    0  0.46303125201E+02 -0.19252106440E+03  0.38534287098E+03  0.46649449990E+03  0.17297297643E+03 0.  0.
         24    2    5    5    0    0  0.27141751918E+02 -0.21324169478E+03  0.31186327015E+03  0.38764118996E+03  0.82451790719E+02 0.  0.
          2    1    6    6  501    0  0.24769951845E+02 -0.68796119069E+02  0.17050339709E+03  0.18552052429E+03  0.00000000000E+00 0. -1.
         -1    1    6    6    0  501  0.23718000733E+01 -0.14444557572E+03  0.14135987306E+03  0.20212066567E+03  0.00000000000E+00 0.  1.
          5    1    5    5  502    0  0.19161373283E+02  0.20720630384E+02  0.73479600829E+02  0.78853309934E+02  0.47000000000E+01 0. -1.
         13    1    4    4    0    0  0.17604548387E+02  0.75743322517E-01 -0.43684207686E+01  0.18138604162E+02  0.00000000000E+00 0. -1.
        -14    1    4    4    0    0 -0.72815443199E+02  0.52053446245E+02 -0.70081264787E+02  0.11367952194E+03  0.00000000000E+00 0.  1.
         -5    1    3    3    0  504  0.89077696116E+01  0.14039187483E+03  0.50338147264E+01  0.14084266459E+03  0.47000000000E+01 0.  1.
<mgrwt>
<rscale>  2 0.26348774E+03</rscale>
<asrwt>0</asrwt>
<pdfrwt beam="1">  1       21 0.81160176E-01 0.26367659E+03</pdfrwt>
<pdfrwt beam="2">  1       21 0.32556022E-01 0.26367659E+03</pdfrwt>
<totfact> 0.11587589E+04</totfact>
</mgrwt>
</event>
<event>
12    1  0.2736842E-001  0.1939301E+03  0.7546771E-02  0.1155004E+00
         21   -1    0    0  502  503  0.00000000000E+00  0.00000000000E+00  0.50122998267E+03  0.50122998267E+03  0.00000000000E+00 0.  1.
         21   -1    0    0  503  504 -0.00000000000E+00 -0.00000000000E+00 -0.11210675176E+03  0.11210675176E+03  0.00000000000E+00 0.  1.
         -6    2    1    2    0  504 -0.67354038760E+02 -0.54353612251E+02  0.18099791430E+02  0.19477292815E+03  0.17354541016E+03 0.  0.
        -24    2    3    3    0    0 -0.52784140043E+01 -0.60749366126E+02  0.60374104203E+02  0.11925143203E+03  0.82810171132E+02 0.  0.
          6    2    1    2  502    0  0.67354038760E+02  0.54353612251E+02  0.37102343949E+03  0.41856380628E+03  0.17333893267E+03 0.  0.
         24    2    5    5    0    0  0.70421564361E+02 -0.26944998655E+02  0.24274012027E+03  0.26658494644E+03  0.80371251088E+02 0.  0.
          2    1    6    6  501    0  0.28569199776E+02 -0.27599423047E+02  0.30033499596E+02  0.49798980174E+02  0.00000000000E+00 0. -1.
         -1    1    6    6    0  501  0.41852364585E+02  0.65442439138E+00  0.21270662067E+03  0.21678596627E+03  0.00000000000E+00 0.  1.
          5    1    5    5  502    0 -0.30675256008E+01  0.81298610906E+02  0.12828331922E+03  0.15197885984E+03  0.47000000000E+01 0. -1.
         13    1    4    4    0    0  0.28488334851E+02 -0.48572245734E+02  0.96808903816E+01  0.57136397479E+02  0.00000000000E+00 0. -1.
        -14    1    4    4    0    0 -0.33766748856E+02 -0.12177120392E+02  0.50693213821E+02  0.62115034548E+02  0.00000000000E+00 0.  1.
         -5    1    3    3    0  504 -0.62075624756E+02  0.63957538750E+01 -0.42274312773E+02  0.75521496124E+02  0.47000000000E+01 0.  1.
<mgrwt>
<rscale>  2 0.19388391E+03</rscale>
<asrwt>0</asrwt>
<pdfrwt beam="1">  1       21 0.77112304E-01 0.19393012E+03</pdfrwt>
<pdfrwt beam="2">  1       21 0.17247193E-01 0.19393012E+03</pdfrwt>
<totfact> 0.45361621E+04</totfact>
</mgrwt>
</event>
<event>
12    1  0.2736842E-001  0.2351643E+03  0.7546771E-02  0.1123063E+00
         21   -1    0    0  502  503  0.00000000000E+00  0.00000000000E+00  0.67265346898E+02  0.67265346898E+02  0.00000000000E+00 0. -1.
         21   -1    0    0  503  504 -0.00000000000E+00 -0.00000000000E+00 -0.82460064612E+03  0.82460064612E+03  0.00000000000E+00 0. -1.
         -6    2    1    2    0  504  0.15820960887E+03 -0.20052872254E+02 -0.35380963790E+03  0.42483351547E+03  0.17282898477E+03 0.  0.
        -24    2    3    3    0    0  0.12309866078E+03 -0.65805029888E+02 -0.18244681761E+03  0.24396520763E+03  0.82149857186E+02 0.  0.
          6    2    1    2  502    0 -0.15820960887E+03  0.20052872254E+02 -0.40352566133E+03  0.46703247755E+03  0.17278303652E+03 0.  0.
         24    2    5    5    0    0 -0.99641334324E+01 -0.13061966212E+02 -0.67727126360E+02  0.98445907526E+02  0.69532252568E+02 0.  0.
          2    1    6    6  501    0  0.16713534483E+02 -0.12370933651E+02 -0.68663364642E+02  0.71742873363E+02  0.00000000000E+00 0. -1.
         -1    1    6    6    0  501 -0.26677667915E+02 -0.69103256054E+00  0.93623828212E+00  0.26703034163E+02  0.00000000000E+00 0.  1.
          5    1    5    5  502    0 -0.14824547544E+03  0.33114838465E+02 -0.33579853497E+03  0.36858657002E+03  0.47000000000E+01 0. -1.
         13    1    4    4    0    0  0.91375092479E+02 -0.71589587317E+02 -0.17638413683E+03  0.21115359401E+03  0.00000000000E+00 0. -1.
        -14    1    4    4    0    0  0.31723568304E+02  0.57845574291E+01 -0.60626807809E+01  0.32811613628E+02  0.00000000000E+00 0.  1.
         -5    1    3    3    0  504  0.35110948085E+02  0.45752157634E+02 -0.17136282029E+03  0.18086830784E+03  0.47000000000E+01 0.  1.
<mgrwt>
<rscale>  2 0.23515587E+03</rscale>
<asrwt>0</asrwt>
<pdfrwt beam="1">  1       21 0.10348515E-01 0.23516432E+03</pdfrwt>
<pdfrwt beam="2">  1       21 0.12686163E+00 0.23516432E+03</pdfrwt>
<totfact> 0.34298956E+04</totfact>
</mgrwt>
</event>
<event>
12    1  0.2736842E-001  0.2896810E+03  0.7546771E-02  0.1090730E+00
         21   -1    0    0  502  503  0.00000000000E+00  0.00000000000E+00  0.68426695599E+03  0.68426695599E+03  0.00000000000E+00 0.  1.
         21   -1    0    0  503  504 -0.00000000000E+00 -0.00000000000E+00 -0.14157478836E+03  0.14157478836E+03  0.00000000000E+00 0.  1.
         -6    2    1    2    0  504 -0.22138506849E+03  0.71440571109E+02  0.11692217482E+03  0.31087072448E+03  0.16986673785E+03 0.  0.
        -24    2    3    3    0    0 -0.11102313197E+03 -0.13668545235E+02  0.15974665130E+02  0.13872018446E+03  0.80468221621E+02 0.  0.
          6    2    1    2  502    0  0.22138506849E+03 -0.71440571109E+02  0.42576999282E+03  0.51497101987E+03  0.17262665140E+03 0.  0.
         24    2    5    5    0    0  0.16442991401E+03 -0.19564229142E+02  0.18055808833E+03  0.25789902105E+03  0.80565042746E+02 0.  0.
          2    1    6    6  501    0  0.12830078621E+03 -0.10052928540E+02  0.82253133406E+02  0.15273418435E+03  0.00000000000E+00 0. -1.
         -1    1    6    6    0  501  0.36129127800E+02 -0.95113006023E+01  0.98304954928E+02  0.10516483670E+03  0.00000000000E+00 0.  1.
          5    1    5    5  502    0  0.56955154480E+02 -0.51876341966E+02  0.24521190448E+03  0.25707199882E+03  0.47000000000E+01 0. -1.
         13    1    4    4    0    0  0.13037189866E+02 -0.13035744297E+01  0.82558620647E+00  0.13128184127E+02  0.00000000000E+00 0. -1.
        -14    1    4    4    0    0 -0.12406032183E+03 -0.12364970805E+02  0.15149078923E+02  0.12559200033E+03  0.00000000000E+00 0.  1.
         -5    1    3    3    0  504 -0.11036193652E+03  0.85109116343E+02  0.10094750969E+03  0.17215054002E+03  0.47000000000E+01 0.  1.
<mgrwt>
<rscale>  2 0.28927106E+03</rscale>
<asrwt>0</asrwt>
<pdfrwt beam="1">  1       21 0.10527184E+00 0.28968097E+03</pdfrwt>
<pdfrwt beam="2">  1       21 0.21780737E-01 0.28968097E+03</pdfrwt>
<totfact> 0.13525181E+04</totfact>
</mgrwt>
</event>
<event>
12    1  0.2736842E-001  0.1734566E+03  0.7546771E-02  0.1174393E+00
         21   -1    0    0  502  503  0.00000000000E+00  0.00000000000E+00  0.26778519328E+03  0.26778519328E+03  0.00000000000E+00 0. -1.
         21   -1    0    0  503  504 -0.00000000000E+00 -0.00000000000E+00 -0.11521868417E+03  0.11521868417E+03  0.00000000000E+00 0. -1.
         -6    2    1    2    0  504  0.66555444537E+01 -0.86446237447E+01  0.10789971694E+03  0.20427811504E+03  0.17311318141E+03 0.  0.
        -24    2    3    3    0    0 -0.13493938563E+02  0.23699891547E+02  0.13374551082E+03  0.15799351289E+03  0.79563290612E+02 0.  0.
          6    2    1    2  502    0 -0.66555444537E+01  0.86446237447E+01  0.44666792169E+02  0.17872576241E+03  0.17271001718E+03 0.  0.
         24    2    5    5    0    0 -0.61548191024E+02 -0.16099162625E+02 -0.15518762359E+01  0.10267503644E+03  0.80575380436E+02 0.  0.
          4    1    6    6  501    0 -0.22549446162E+02  0.11995482483E+02  0.34262000978E+02  0.42734691215E+02  0.00000000000E+00 0. -1.
         -3    1    6    6    0  501 -0.38998744862E+02 -0.28094645108E+02 -0.35813877214E+02  0.59940345224E+02  0.00000000000E+00 0.  1.
          5    1    5    5  502    0  0.54892646570E+02  0.24743786370E+02  0.46218668405E+02  0.76050725970E+02  0.47000000000E+01 0. -1.
         13    1    4    4    0    0 -0.85721929433E+01 -0.28834145261E+02  0.62237481726E+02  0.69125932590E+02  0.00000000000E+00 0. -1.
        -14    1    4    4    0    0 -0.49217456201E+01  0.52534036808E+02  0.71508029096E+02  0.88867580301E+02  0.00000000000E+00 0.  1.
         -5    1    3    3    0  504  0.20149483017E+02 -0.32344515291E+02 -0.25845793878E+02  0.46284602153E+02  0.47000000000E+01 0.  1.
<mgrwt>
<rscale>  2 0.17335594E+03</rscale>
<asrwt>0</asrwt>
<pdfrwt beam="1">  1       21 0.41197722E-01 0.17345662E+03</pdfrwt>
<pdfrwt beam="2">  1       21 0.17725952E-01 0.17345662E+03</pdfrwt>
<totfact> 0.16487957E+05</totfact>
</mgrwt>
</event>
<event>
12    1  0.2736842E-001  0.1817870E+03  0.7546771E-02  0.1166115E+00
         21   -1    0    0  502  503  0.00000000000E+00  0.00000000000E+00  0.56837676510E+03  0.56837676510E+03  0.00000000000E+00 0. -1.
         21   -1    0    0  503  504 -0.00000000000E+00 -0.00000000000E+00 -0.74001261266E+02  0.74001261266E+02  0.00000000000E+00 0.  1.
         -6    2    1    2    0  504 -0.54735385691E+01 -0.54234572402E+02  0.98375773185E+02  0.20669858007E+03  0.17342191841E+03 0.  0.
        -24    2    3    3    0    0  0.32891010673E+02  0.33056566959E+01  0.10582482696E+03  0.13698276403E+03  0.80452704690E+02 0.  0.
          6    2    1    2  502    0  0.54735385691E+01  0.54234572402E+02  0.39599973065E+03  0.43567944630E+03  0.17329005968E+03 0.  0.
         24    2    5    5    0    0  0.15417872486E+02  0.98028732616E+02  0.22346280231E+03  0.25733175249E+03  0.80228820340E+02 0.  0.
          4    1    6    6  501    0  0.40485226028E+02  0.74346718542E+02  0.19512380014E+03  0.21269646322E+03  0.00000000000E+00 0. -1.
         -3    1    6    6    0  501 -0.25067353543E+02  0.23682014074E+02  0.28339002164E+02  0.44635289267E+02  0.00000000000E+00 0.  1.
          5    1    5    5  502    0 -0.99443339165E+01 -0.43794160214E+02  0.17253692835E+03  0.17834769381E+03  0.47000000000E+01 0. -1.
         13    1    4    4    0    0 -0.13851346757E+02  0.58740305759E+01  0.83992094121E+02  0.85328986382E+02  0.00000000000E+00 0. -1.
        -14    1    4    4    0    0  0.46742357430E+02 -0.25683738799E+01  0.21832732840E+02  0.51653777652E+02  0.00000000000E+00 0.  1.
         -5    1    3    3    0  504 -0.38364549242E+02 -0.57540229098E+02 -0.74490537754E+01  0.69715816035E+02  0.47000000000E+01 0.  1.
<mgrwt>
<rscale>  2 0.18175554E+03</rscale>
<asrwt>0</asrwt>
<pdfrwt beam="1">  1       21 0.87442576E-01 0.18178699E+03</pdfrwt>
<pdfrwt beam="2">  1       21 0.11384810E-01 0.18178699E+03</pdfrwt>
<totfact> 0.72729750E+04</totfact>
</mgrwt>
</event>
<event>
12    1  0.2736842E-001  0.1800735E+03  0.7546771E-02  0.1167741E+00
         21   -1    0    0  502  503  0.00000000000E+00  0.00000000000E+00  0.12063377045E+03  0.12063377045E+03  0.00000000000E+00 0.  1.
         21   -1    0    0  503  504 -0.00000000000E+00 -0.00000000000E+00 -0.64922566124E+03  0.64922566124E+03  0.00000000000E+00 0.  1.
         -6    2    1    2    0  504 -0.36000171745E+02  0.30832343209E+02 -0.55896438410E+03  0.58724249032E+03  0.17368337282E+03 0.  0.
        -24    2    3    3    0    0 -0.58556423810E+02 -0.31598145236E+02 -0.22817939735E+03  0.24983006042E+03  0.76954039280E+02 0.  0.
          6    2    1    2  502    0  0.36000171745E+02 -0.30832343209E+02  0.30372493304E+02  0.18261694138E+03  0.17372338120E+03 0.  0.
         24    2    5    5    0    0  0.59621362303E+01  0.47611984473E+02  0.24664808085E+01  0.93979298942E+02  0.80768663281E+02 0.  0.
          4    1    6    6  501    0  0.24727227636E+02  0.61690777396E+02  0.13872188261E+02  0.67894222210E+02  0.00000000000E+00 0. -1.
         -3    1    6    6    0  501 -0.18765091406E+02 -0.14078792923E+02 -0.11405707452E+02  0.26085076733E+02  0.00000000000E+00 0.  1.
          5    1    5    5  502    0  0.30038035515E+02 -0.78444327682E+02  0.27906012496E+02  0.88637642435E+02  0.47000000000E+01 0. -1.
         11    1    4    4    0    0  0.96423170558E+01 -0.11013240741E+02 -0.48597971875E+01  0.15423468434E+02  0.00000000000E+00 0. -1.
        -12    1    4    4    0    0 -0.68198740866E+02 -0.20584904495E+02 -0.22331960017E+03  0.23440659199E+03  0.00000000000E+00 0.  1.
         -5    1    3    3    0  504  0.22556252065E+02  0.62430488444E+02 -0.33078498674E+03  0.33741242990E+03  0.47000000000E+01 0.  1.
<mgrwt>
<rscale>  2 0.18006383E+03</rscale>
<asrwt>0</asrwt>
<pdfrwt beam="1">  1       21 0.18559041E-01 0.18007348E+03</pdfrwt>
<pdfrwt beam="2">  1       21 0.99880873E-01 0.18007348E+03</pdfrwt>
<totfact> 0.22009257E+04</totfact>
</mgrwt>
</event>
<event>
12    1  0.2736842E-001  0.1756777E+03  0.7546771E-02  0.1172446E+00
         21   -1    0    0  502  503  0.00000000000E+00  0.00000000000E+00  0.25736359388E+03  0.25736359388E+03  0.00000000000E+00 0. -1.
         21   -1    0    0  503  504 -0.00000000000E+00 -0.00000000000E+00 -0.12000958553E+03  0.12000958553E+03  0.00000000000E+00 0. -1.
         -6    2    1    2    0  504  0.22913872082E+02 -0.13538754180E+02  0.49839550608E+02  0.18110440751E+03  0.17206534287E+03 0.  0.
        -24    2    3    3    0    0 -0.43458657899E+00 -0.40659495799E+02 -0.28632115052E+02  0.94729773158E+02  0.80625978730E+02 0.  0.
          6    2    1    2  502    0 -0.22913872082E+02  0.13538754180E+02  0.87514457733E+02  0.19626877190E+03  0.17364995570E+03 0.  0.
         24    2    5    5    0    0  0.46438629344E+02  0.21273142669E+02  0.83358568658E+02  0.12620486084E+03  0.79811797602E+02 0.  0.
          4    1    6    6  501    0 -0.19205947059E+02 -0.93549191044E+01  0.26973071672E+02  0.34408276756E+02  0.00000000000E+00 0. -1.
         -3    1    6    6    0  501  0.65644576403E+02  0.30628061773E+02  0.56385496986E+02  0.91796584084E+02  0.00000000000E+00 0.  1.
          5    1    5    5  502    0 -0.69352501426E+02 -0.77343884893E+01  0.41558890757E+01  0.70063911063E+02  0.47000000000E+01 0. -1.
         11    1    4    4    0    0 -0.54866194601E+00  0.23414896585E+02 -0.18527394513E+02  0.29863401672E+02  0.00000000000E+00 0. -1.
        -12    1    4    4    0    0  0.11407536703E+00 -0.64074392384E+02 -0.10104720539E+02  0.64866371486E+02  0.00000000000E+00 0.  1.
         -5    1    3    3    0  504  0.23348458661E+02  0.27120741619E+02  0.78471665660E+02  0.86374634351E+02  0.47000000000E+01 0.  1.
<mgrwt>
<rscale>  2 0.17528483E+03</rscale>
<asrwt>0</asrwt>
<pdfrwt beam="1">  1       21 0.39594399E-01 0.17567769E+03</pdfrwt>
<pdfrwt beam="2">  1       21 0.18463013E-01 0.17567769E+03</pdfrwt>
<totfact> 0.16557635E+05</totfact>
</mgrwt>
</event>
<event>
12    1  0.2736842E-001  0.2051168E+03  0.7546771E-02  0.1145599E+00
         21   -1    0    0  502  503  0.00000000000E+00  0.00000000000E+00  0.42213355536E+03  0.42213355536E+03  0.00000000000E+00 0. -1.
         21   -1    0    0  503  504 -0.00000000000E+00 -0.00000000000E+00 -0.12193133707E+03  0.12193133707E+03  0.00000000000E+00 0. -1.
         -6    2    1    2    0  504  0.46058019418E+02  0.10022599893E+03  0.33041940482E+02  0.20724517809E+03  0.17231425361E+03 0.  0.
        -24    2    3    3    0    0  0.63274721109E+01  0.13010591329E+03  0.14194734237E+02  0.15387259286E+03  0.80670309146E+02 0.  0.
          6    2    1    2  502    0 -0.46058019418E+02 -0.10022599893E+03  0.26716027781E+03  0.33681971434E+03  0.17293442084E+03 0.  0.
         24    2    5    5    0    0 -0.78927484394E+02 -0.83965639007E+02  0.12265490535E+03  0.18765975421E+03  0.83019161756E+02 0.  0.
          4    1    6    6  501    0 -0.67972678401E+02 -0.99935729549E+02  0.94179055356E+02  0.15322248372E+03  0.00000000000E+00 0. -1.
         -3    1    6    6    0  501 -0.10954805992E+02  0.15970090542E+02  0.28475849990E+02  0.34437270492E+02  0.00000000000E+00 0.  1.
          5    1    5    5  502    0  0.32869464976E+02 -0.16260359922E+02  0.14450537247E+03  0.14915996013E+03  0.47000000000E+01 0. -1.
         13    1    4    4    0    0  0.28784613024E+02  0.12653195084E+03  0.67307005514E+01  0.12993918139E+03  0.00000000000E+00 0. -1.
        -14    1    4    4    0    0 -0.22457140914E+02  0.35739624435E+01  0.74640336857E+01  0.23933411466E+02  0.00000000000E+00 0.  1.
         -5    1    3    3    0  504  0.39730547307E+02 -0.29879914358E+02  0.18847206245E+02  0.53372585234E+02  0.47000000000E+01 0.  1.
<mgrwt>
<rscale>  2 0.20498604E+03</rscale>
<asrwt>0</asrwt>
<pdfrwt beam="1">  1       21 0.64943623E-01 0.20511681E+03</pdfrwt>
<pdfrwt beam="2">  1       21 0.18758667E-01 0.20511681E+03</pdfrwt>
<totfact> 0.56456084E+04</totfact>
</mgrwt>
</event>
<event>
12    1  0.2736842E-001  0.1930904E+03  0.7546771E-02  0.1155833E+00
         21   -1    0    0  502  503  0.00000000000E+00  0.00000000000E+00  0.47507758797E+03  0.47507758797E+03  0.00000000000E+00 0. -1.
         21   -1    0    0  503  504 -0.00000000000E+00 -0.00000000000E+00 -0.44728192578E+03  0.44728192578E+03  0.00000000000E+00 0.  1.
         -6    2    1    2    0  504  0.84467179246E+02 -0.56710016018E+01 -0.40500423729E+03  0.44867841750E+03  0.17354257540E+03 0.  0.
        -24    2    3    3    0    0  0.34853593628E+02 -0.62425045177E+02 -0.15780138144E+03  0.19019462443E+03  0.78492419518E+02 0.  0.
          6    2    1    2  502    0 -0.84467179246E+02  0.56710016018E+01  0.43279989948E+03  0.47368109625E+03  0.17289061086E+03 0.  0.
         24    2    5    5    0    0 -0.45636545339E+02  0.70361859811E+02  0.26662316454E+03  0.29111734711E+03  0.81411991321E+02 0.  0.
          2    1    6    6  501    0 -0.66558986486E+02  0.65241228313E+02  0.23545575524E+03  0.25323097999E+03  0.00000000000E+00 0. -1.
         -1    1    6    6    0  501  0.20922441147E+02  0.51206314978E+01  0.31167409303E+02  0.37886367114E+02  0.00000000000E+00 0.  1.
          5    1    5    5  502    0 -0.38830633906E+02 -0.64690858210E+02  0.16617673494E+03  0.18256374914E+03  0.47000000000E+01 0. -1.
         11    1    4    4    0    0 -0.19356686341E+02 -0.37558685157E+01 -0.98145692429E+01  0.22025295091E+02  0.00000000000E+00 0. -1.
        -12    1    4    4    0    0  0.54210279969E+02 -0.58669176661E+02 -0.14798681220E+03  0.16816932934E+03  0.00000000000E+00 0.  1.
         -5    1    3    3    0  504  0.49613585618E+02  0.56754043575E+02 -0.24720285585E+03  0.25848379307E+03  0.47000000000E+01 0.  1.
<mgrwt>
<rscale>  2 0.19294376E+03</rscale>
<asrwt>0</asrwt>
<pdfrwt beam="1">  1       21 0.73088860E-01 0.19309037E+03</pdfrwt>
<pdfrwt beam="2">  1       21 0.68812604E-01 0.19309037E+03</pdfrwt>
<totfact> 0.32391257E+03</totfact>
</mgrwt>
</event>
<event>
12    1  0.2736842E-001  0.1783959E+03  0.7546771E-02  0.1169490E+00
         21   -1    0    0  502  503  0.00000000000E+00  0.00000000000E+00  0.25610963247E+03  0.25610963247E+03  0.00000000000E+00 0.  1.
         21   -1    0    0  503  504 -0.00000000000E+00 -0.00000000000E+00 -0.13847465813E+03  0.13847465813E+03  0.00000000000E+00 0.  1.
         -6    2    1    2    0  504 -0.12650392795E+01 -0.37151611375E+02  0.12288592177E+03  0.21662417272E+03  0.17447991255E+03 0.  0.
        -24    2    3    3    0    0 -0.66996645328E+02 -0.34730334287E+02  0.67456352457E+02  0.13047875049E+03  0.82338315736E+02 0.  0.
          6    2    1    2  502    0  0.12650392795E+01  0.37151611375E+02 -0.52509474349E+01  0.17796011787E+03  0.17395513373E+03 0.  0.
         24    2    5    5    0    0 -0.15429313933E+02 -0.12386642086E+02 -0.60136316996E+02  0.10201781229E+03  0.79998529815E+02 0.  0.
          2    1    6    6  501    0 -0.28886153259E+02  0.19628888021E+02 -0.57389366908E+02  0.67180670800E+02  0.00000000000E+00 0. -1.
         -1    1    6    6    0  501  0.13456839326E+02 -0.32015530106E+02 -0.27469500877E+01  0.34837141493E+02  0.00000000000E+00 0.  1.
          5    1    5    5  502    0  0.16694353213E+02  0.49538253461E+02  0.54885369561E+02  0.75942305581E+02  0.47000000000E+01 0. -1.
         13    1    4    4    0    0  0.14229574754E+02 -0.12128920554E+02  0.35858115792E+02  0.40440029422E+02  0.00000000000E+00 0. -1.
        -14    1    4    4    0    0 -0.81226220082E+02 -0.22601413733E+02  0.31598236665E+02  0.90038721070E+02  0.00000000000E+00 0.  1.
         -5    1    3    3    0  504  0.65731606049E+02 -0.24212770887E+01  0.55429569316E+02  0.86145422229E+02  0.47000000000E+01 0.  1.
<mgrwt>
<rscale>  2 0.17826741E+03</rscale>
<asrwt>0</asrwt>
<pdfrwt beam="1">  1       21 0.39401482E-01 0.17839586E+03</pdfrwt>
<pdfrwt beam="2">  1       21 0.21303794E-01 0.17839586E+03</pdfrwt>
<totfact> 0.12796983E+05</totfact>
</mgrwt>
</event>
<event>
12    1  0.2736842E-001  0.1761847E+03  0.7546771E-02  0.1171811E+00
         21   -1    0    0  502  503  0.00000000000E+00  0.00000000000E+00  0.75589802286E+03  0.75589802286E+03  0.00000000000E+00 0.  1.
         21   -1    0    0  503  504 -0.00000000000E+00 -0.00000000000E+00 -0.45511515379E+02  0.45511515379E+02  0.00000000000E+00 0.  1.
         -6    2    1    2    0  504  0.16935975034E+02  0.15267014060E+02  0.22556833717E+03  0.28557071547E+03  0.17363654521E+03 0.  0.
        -24    2    3    3    0    0 -0.70333057237E+01  0.67968003341E+02  0.10310282662E+03  0.15002805811E+03  0.84906469096E+02 0.  0.
          6    2    1    2  502    0 -0.16935975034E+02 -0.15267014060E+02  0.48481817031E+03  0.51583882276E+03  0.17470295888E+03 0.  0.
         24    2    5    5    0    0 -0.77537706703E+02 -0.16364921316E+02  0.35709570163E+03  0.37438602397E+03  0.79797545150E+02 0.  0.
          4    1    6    6  501    0 -0.47379395027E+02 -0.12983272129E+02  0.33020361047E+03  0.33383797986E+03  0.00000000000E+00 0. -1.
         -3    1    6    6    0  501 -0.30158311676E+02 -0.33816491875E+01  0.26892091157E+02  0.40548044110E+02  0.00000000000E+00 0.  1.
          5    1    5    5  502    0  0.60601731669E+02  0.10979072563E+01  0.12772246868E+03  0.14145279879E+03  0.47000000000E+01 0. -1.
         11    1    4    4    0    0 -0.44390036806E+02  0.49038347626E+02  0.72626530445E+02  0.98233638994E+02  0.00000000000E+00 0. -1.
        -12    1    4    4    0    0  0.37356731082E+02  0.18929655715E+02  0.30476296180E+02  0.51794419115E+02  0.00000000000E+00 0.  1.
         -5    1    3    3    0  504  0.23969280758E+02 -0.52700989281E+02  0.12246551055E+03  0.13554265736E+03  0.47000000000E+01 0.  1.
<mgrwt>
<rscale>  2 0.17591971E+03</rscale>
<asrwt>0</asrwt>
<pdfrwt beam="1">  1       21 0.11629199E+00 0.17618466E+03</pdfrwt>
<pdfrwt beam="2">  1       21 0.70017722E-02 0.17618466E+03</pdfrwt>
<totfact> 0.86898870E+04</totfact>
</mgrwt>
</event>
<event>
12    1  0.2736842E-001  0.3387045E+03  0.7546771E-02  0.1067359E+00
         21   -1    0    0  502  503  0.00000000000E+00  0.00000000000E+00  0.19560927425E+03  0.19560927425E+03  0.00000000000E+00 0.  1.
         21   -1    0    0  503  504 -0.00000000000E+00 -0.00000000000E+00 -0.82286056958E+03  0.82286056958E+03  0.00000000000E+00 0.  1.
         -6    2    1    2    0  504 -0.25739160612E+03 -0.13541592838E+03 -0.40568944016E+02  0.34103575046E+03  0.17341173925E+03 0.  0.
        -24    2    3    3    0    0 -0.98829526206E+02 -0.38131073974E+01  0.11519092175E+02  0.12844109109E+03  0.81133281441E+02 0.  0.
          6    2    1    2  502    0  0.25739160612E+03  0.13541592838E+03 -0.58668235131E+03  0.67743409337E+03  0.17358818210E+03 0.  0.
         24    2    5    5    0    0  0.62880442800E+02  0.78225216128E+01 -0.12516820075E+03  0.16058588425E+03  0.78138376038E+02 0.  0.
          2    1    6    6  501    0  0.30316733700E+02 -0.26160484423E+02 -0.18733176907E+02  0.44208677932E+02  0.00000000000E+00 0. -1.
         -1    1    6    6    0  501  0.32563709100E+02  0.33983006035E+02 -0.10643502385E+03  0.11637720632E+03  0.00000000000E+00 0.  1.
          5    1    5    5  502    0  0.19451116332E+03  0.12759340677E+03 -0.46151415056E+03  0.51684820912E+03  0.47000000000E+01 0. -1.
         13    1    4    4    0    0 -0.30258981457E+02  0.35225005551E+02 -0.80902499531E+01  0.47136600632E+02  0.00000000000E+00 0. -1.
        -14    1    4    4    0    0 -0.68570544749E+02 -0.39038112948E+02  0.19609342128E+02  0.81304490457E+02  0.00000000000E+00 0.  1.
         -5    1    3    3    0  504 -0.15856207991E+03 -0.13160282099E+03 -0.52088036191E+02  0.21259465937E+03  0.47000000000E+01 0.  1.
<mgrwt>
<rscale>  2 0.33868195E+03</rscale>
<asrwt>0</asrwt>
<pdfrwt beam="1">  1       21 0.30093734E-01 0.33870455E+03</pdfrwt>
<pdfrwt beam="2">  1       21 0.12659393E+00 0.33870455E+03</pdfrwt>
<totfact> 0.44667178E+03</totfact>
</mgrwt>
</event>
<event>
12    1  0.2736842E-001  0.1770515E+03  0.7546771E-02  0.1171167E+00
         21   -1    0    0  502  503  0.00000000000E+00  0.00000000000E+00  0.27347353660E+02  0.27347353660E+02  0.00000000000E+00 0. -1.
         21   -1    0    0  503  504 -0.00000000000E+00 -0.00000000000E+00 -0.16150712737E+04  0.16150712737E+04  0.00000000000E+00 0. -1.
         -6    2    1    2    0  504 -0.23871998778E+02 -0.21247813592E+02 -0.12451783280E+04  0.12577027884E+04  0.17414331302E+03 0.  0.
        -24    2    3    3    0    0 -0.29255239618E+02 -0.43123843595E+02 -0.12197772775E+04  0.12234268007E+04  0.78746395494E+02 0.  0.
          6    2    1    2  502    0  0.23871998778E+02  0.21247813592E+02 -0.34254559205E+03  0.38471583899E+03  0.17218435535E+03 0.  0.
         24    2    5    5    0    0 -0.23785597268E+02 -0.28942768221E+02 -0.10543649234E+03  0.13766694478E+03  0.80199097870E+02 0.  0.
          2    1    6    6  501    0  0.19218069899E+02 -0.38250622398E+02 -0.65488669985E+02  0.78238163455E+02  0.00000000000E+00 0. -1.
         -1    1    6    6    0  501 -0.43003667166E+02  0.93078541768E+01 -0.39947822352E+02  0.59428781325E+02  0.00000000000E+00 0.  1.
          5    1    5    5  502    0  0.47657596045E+02  0.50190581813E+02 -0.23710909972E+03  0.24704889421E+03  0.47000000000E+01 0. -1.
         13    1    4    4    0    0 -0.29438185475E+02 -0.64281461215E+02 -0.80057110615E+03  0.80368700937E+03  0.00000000000E+00 0. -1.
        -14    1    4    4    0    0  0.18294585715E+00  0.21157617621E+02 -0.41920617140E+03  0.41973979129E+03  0.00000000000E+00 0.  1.
         -5    1    3    3    0  504  0.53832408401E+01  0.21876030003E+02 -0.25401050455E+02  0.34275987730E+02  0.47000000000E+01 0.  1.
<mgrwt>
<rscale>  2 0.17656792E+03</rscale>
<asrwt>0</asrwt>
<pdfrwt beam="1">  1       21 0.42072834E-02 0.17705150E+03</pdfrwt>
<pdfrwt beam="2">  1       21 0.24847261E+00 0.17705150E+03</pdfrwt>
<totfact> 0.24772183E+04</totfact>
</mgrwt>
</event>
<event>
12    1  0.2736842E-001  0.1782576E+03  0.7546771E-02  0.1170207E+00
         21   -1    0    0  502  503  0.00000000000E+00  0.00000000000E+00  0.79144819732E+02  0.79144819732E+02  0.00000000000E+00 0.  1.
         21   -1    0    0  503  504 -0.00000000000E+00 -0.00000000000E+00 -0.39692123576E+03  0.39692123576E+03  0.00000000000E+00 0.  1.
         -6    2    1    2    0  504  0.82283404146E+01 -0.34328683992E+02 -0.17642259319E+03  0.25080010249E+03  0.17472720420E+03 0.  0.
        -24    2    3    3    0    0  0.58945357530E+00  0.21616941130E+02 -0.17212747460E+03  0.19397754001E+03  0.86785822100E+02 0.  0.
          6    2    1    2  502    0 -0.82283404146E+01  0.34328683992E+02 -0.14135382284E+03  0.22526595300E+03  0.17180710760E+03 0.  0.
         24    2    5    5    0    0 -0.13607897836E+02 -0.40732283347E+02 -0.11323131444E+03  0.14479201974E+03  0.79366898774E+02 0.  0.
          4    1    6    6  501    0  0.12386351391E+02 -0.53379095491E+02 -0.97595288408E+02  0.11192671645E+03  0.00000000000E+00 0. -1.
         -3    1    6    6    0  501 -0.25994249228E+02  0.12646812144E+02 -0.15636026034E+02  0.32865303292E+02  0.00000000000E+00 0.  1.
          5    1    5    5  502    0  0.53795574219E+01  0.75060967339E+02 -0.28122508396E+02  0.80473933260E+02  0.47000000000E+01 0. -1.
         11    1    4    4    0    0 -0.37175581178E+02  0.24979469666E+02 -0.55361006273E+02  0.71209822049E+02  0.00000000000E+00 0. -1.
        -12    1    4    4    0    0  0.37765034754E+02 -0.33625285358E+01 -0.11676646833E+03  0.12276771796E+03  0.00000000000E+00 0.  1.
         -5    1    3    3    0  504  0.76388868393E+01 -0.55945625122E+02 -0.42951185891E+01  0.56822562475E+02  0.47000000000E+01 0.  1.
<mgrwt>
<rscale>  2 0.17753789E+03</rscale>
<asrwt>0</asrwt>
<pdfrwt beam="1">  1       21 0.12176126E-01 0.17825757E+03</pdfrwt>
<pdfrwt beam="2">  1       21 0.61064805E-01 0.17825757E+03</pdfrwt>
<totfact> 0.14333775E+05</totfact>
</mgrwt>
</event>
<event>
12    1  0.2736842E-001  0.1874402E+03  0.7546771E-02  0.1162740E+00
         21   -1    0    0  502  503  0.00000000000E+00  0.00000000000E+00  0.35727262823E+03  0.35727262823E+03  0.00000000000E+00 0. -1.
         21   -1    0    0  503  504 -0.00000000000E+00 -0.00000000000E+00 -0.94047787530E+02  0.94047787530E+02  0.00000000000E+00 0.  1.
         -6    2    1    2    0  504  0.44358688345E+02 -0.20890602122E+02  0.12630528754E+03  0.21919805719E+03  0.17230975634E+03 0.  0.
        -24    2    3    3    0    0  0.22388857299E+02  0.30954964879E+02  0.13728897892E+03  0.16163619682E+03  0.76279260659E+02 0.  0.
          6    2    1    2  502    0 -0.44358688345E+02  0.20890602122E+02  0.13691955316E+03  0.23212235856E+03  0.18091355620E+03 0.  0.
         24    2    5    5    0    0 -0.47346315264E+02 -0.43612126222E+02  0.30229023471E+02  0.10732457411E+03  0.80380838672E+02 0.  0.
          4    1    6    6  501    0  0.77767499719E+01 -0.39193265288E+02  0.33192294440E+02  0.51945339486E+02  0.00000000000E+00 0. -1.
         -3    1    6    6    0  501 -0.55123065236E+02 -0.44188609333E+01 -0.29632709688E+01  0.55379234626E+02  0.00000000000E+00 0.  1.
          5    1    5    5  502    0  0.29876269191E+01  0.64502728343E+02  0.10669052969E+03  0.12479778445E+03  0.47000000000E+01 0. -1.
         11    1    4    4    0    0 -0.17048769629E+02  0.12758460613E+02  0.10597141742E+03  0.10808968579E+03  0.00000000000E+00 0. -1.
        -12    1    4    4    0    0  0.39437626928E+02  0.18196504266E+02  0.31317561494E+02  0.53546511027E+02  0.00000000000E+00 0.  1.
         -5    1    3    3    0  504  0.21969831046E+02 -0.51845567000E+02 -0.10983691382E+02  0.57561860378E+02  0.47000000000E+01 0.  1.
<mgrwt>
<rscale>  2 0.18533238E+03</rscale>
<asrwt>0</asrwt>
<pdfrwt beam="1">  1       21 0.54965019E-01 0.18744019E+03</pdfrwt>
<pdfrwt beam="2">  1       21 0.14468891E-01 0.18744019E+03</pdfrwt>
<totfact> 0.13106104E+05</totfact>
</mgrwt>
</event>
<event>
12    1  0.2736842E-001  0.3148871E+03  0.7546771E-02  0.1078061E+00
         21   -1    0    0  502  503  0.00000000000E+00  0.00000000000E+00  0.38919794274E+03  0.38919794274E+03  0.00000000000E+00 0.  1.
         21   -1    0    0  503  504 -0.00000000000E+00 -0.00000000000E+00 -0.32273498417E+03  0.32273498417E+03  0.00000000000E+00 0. -1.
         -6    2    1    2    0  504 -0.20386644598E+03 -0.16653648740E+03 -0.13040263621E+03  0.34082064895E+03  0.17279449582E+03 0.  0.
        -24    2    3    3    0    0 -0.46024946673E+02 -0.79437805230E+02 -0.93007640375E+02  0.15664520256E+03  0.86363404862E+02 0.  0.
          6    2    1    2  502    0  0.20386644598E+03  0.16653648740E+03  0.19686559478E+03  0.37111227797E+03  0.17225658483E+03 0.  0.
         24    2    5    5    0    0  0.59206822787E+02  0.12248983404E+03  0.13556717723E+03  0.20787594546E+03  0.79528245634E+02 0.  0.
          4    1    6    6  501    0  0.57851443173E+02  0.97383161881E+02  0.59885671074E+02  0.12812713723E+03  0.00000000000E+00 0. -1.
         -3    1    6    6    0  501  0.13553796148E+01  0.25106672156E+02  0.75681506154E+02  0.79748808231E+02  0.00000000000E+00 0.  1.
          5    1    5    5  502    0  0.14465962320E+03  0.44046653364E+02  0.61298417553E+02  0.16323633251E+03  0.47000000000E+01 0. -1.
         11    1    4    4    0    0 -0.51474011380E+02 -0.89544793440E+02 -0.99532609732E+02  0.14343843376E+03  0.00000000000E+00 0. -1.
        -12    1    4    4    0    0  0.54490647069E+01  0.10106988211E+02  0.65249693568E+01  0.13206768794E+02  0.00000000000E+00 0.  1.
         -5    1    3    3    0  504 -0.15784149931E+03 -0.87098682171E+02 -0.37394995836E+02  0.18417544639E+03  0.47000000000E+01 0.  1.
<mgrwt>
<rscale>  2 0.31481333E+03</rscale>
<asrwt>0</asrwt>
<pdfrwt beam="1">  1       21 0.59876607E-01 0.31488707E+03</pdfrwt>
<pdfrwt beam="2">  1       21 0.49651536E-01 0.31488707E+03</pdfrwt>
<totfact> 0.94056506E+03</totfact>
</mgrwt>
</event>
<event>
12    1  0.2736842E-001  0.1866152E+03  0.7546771E-02  0.1161947E+00
         21   -1    0    0  502  503  0.00000000000E+00  0.00000000000E+00  0.11746028444E+03  0.11746028444E+03  0.00000000000E+00 0.  1.
         21   -1    0    0  503  504 -0.00000000000E+00 -0.00000000000E+00 -0.43700419521E+03  0.43700419521E+03  0.00000000000E+00 0.  1.
         -6    2    1    2    0  504 -0.69655941828E+02 -0.23207766388E+02 -0.31898187504E+03  0.36956011892E+03  0.17156542263E+03 0.  0.
        -24    2    3    3    0    0  0.17801901724E+02 -0.72719658600E+01 -0.22569262650E+03  0.24061129950E+03  0.81159390088E+02 0.  0.
          6    2    1    2  502    0  0.69655941828E+02  0.23207766388E+02 -0.56203573313E+00  0.18490436072E+03  0.16970196250E+03 0.  0.
         24    2    5    5    0    0  0.50799561495E+02 -0.50442365082E+02 -0.16274140371E+01  0.10872608314E+03  0.81814943833E+02 0.  0.
          2    1    6    6  501    0 -0.40992966139E+01 -0.33608445820E+02 -0.29491471476E+02  0.44900765617E+02  0.00000000000E+00 0. -1.
         -1    1    6    6    0  501  0.54898858109E+02 -0.16833919262E+02  0.27864057439E+02  0.63825317519E+02  0.00000000000E+00 0.  1.
          5    1    5    5  502    0  0.18856380332E+02  0.73650131470E+02  0.10653783040E+01  0.76178277585E+02  0.47000000000E+01 0. -1.
         11    1    4    4    0    0  0.48260385142E+01 -0.93299412643E+01  0.34775097064E+01  0.11064878015E+02  0.00000000000E+00 0. -1.
        -12    1    4    4    0    0  0.12975863210E+02  0.20579754043E+01 -0.22917013621E+03  0.22954642149E+03  0.00000000000E+00 0.  1.
         -5    1    3    3    0  504 -0.87457843552E+02 -0.15935800528E+02 -0.93289248535E+02  0.12894881942E+03  0.47000000000E+01 0.  1.
<mgrwt>
<rscale>  2 0.18618582E+03</rscale>
<asrwt>0</asrwt>
<pdfrwt beam="1">  1       21 0.18070813E-01 0.18661523E+03</pdfrwt>
<pdfrwt beam="2">  1       21 0.67231415E-01 0.18661523E+03</pdfrwt>
<totfact> 0.56589723E+04</totfact>
</mgrwt>
</event>
<event>
12    1  0.2736842E-001  0.2031459E+03  0.7546771E-02  0.1147197E+00
         21   -1    0    0  502  503  0.00000000000E+00  0.00000000000E+00  0.22459527058E+03  0.22459527058E+03  0.00000000000E+00 0.  1.
         21   -1    0    0  503  504 -0.00000000000E+00 -0.00000000000E+00 -0.44358844191E+03  0.44358844191E+03  0.00000000000E+00 0.  1.
         -6    2    1    2    0  504 -0.55978779844E+02  0.89350931859E+02 -0.36542790651E+03  0.41809786471E+03  0.17364059666E+03 0.  0.
        -24    2    3    3    0    0 -0.82414615772E+02  0.11749606848E+03 -0.30206925502E+03  0.34375130558E+03  0.79508680414E+02 0.  0.
          6    2    1    2  502    0  0.55978779844E+02 -0.89350931859E+02  0.14643473518E+03  0.25008584778E+03  0.17315480582E+03 0.  0.
         24    2    5    5    0    0 -0.23410624102E+02 -0.37505417520E+02  0.12157754678E+03  0.15195020375E+03  0.79706027831E+02 0.  0.
          4    1    6    6  501    0 -0.46627948151E+02  0.89482155667E-01  0.68894570222E+02  0.83190356183E+02  0.00000000000E+00 0. -1.
         -3    1    6    6    0  501  0.23217324049E+02 -0.37594899675E+02  0.52682976561E+02  0.68759847563E+02  0.00000000000E+00 0.  1.
          5    1    5    5  502    0  0.79389403946E+02 -0.51845514339E+02  0.24857188392E+02  0.98135644038E+02  0.47000000000E+01 0. -1.
         11    1    4    4    0    0 -0.18123583479E+01  0.44428060614E+02 -0.39269284594E+02  0.59322962883E+02  0.00000000000E+00 0. -1.
        -12    1    4    4    0    0 -0.80602257424E+02  0.73068007862E+02 -0.26279997043E+03  0.28442834270E+03  0.00000000000E+00 0.  1.
         -5    1    3    3    0  504  0.26435835928E+02 -0.28145136617E+02 -0.63358651485E+02  0.74346559130E+02  0.47000000000E+01 0.  1.
<mgrwt>
<rscale>  2 0.20304208E+03</rscale>
<asrwt>0</asrwt>
<pdfrwt beam="1">  1       21 0.34553119E-01 0.20314593E+03</pdfrwt>
<pdfrwt beam="2">  1       21 0.68244375E-01 0.20314593E+03</pdfrwt>
<totfact> 0.15712339E+04</totfact>
</mgrwt>
</event>
<event>
12    1  0.2736842E-001  0.1726690E+03  0.7546771E-02  0.1175461E+00
         21   -1    0    0  502  503  0.00000000000E+00  0.00000000000E+00  0.48283320432E+02  0.48283320432E+02  0.00000000000E+00 0. -1.
         21   -1    0    0  503  504 -0.00000000000E+00 -0.00000000000E+00 -0.61362405981E+03  0.61362405981E+03  0.00000000000E+00 0. -1.
         -6    2    1    2    0  504 -0.10513806651E+02  0.12686111701E+02 -0.26892306488E+03  0.31958442070E+03  0.17188109136E+03 0.  0.
        -24    2    3    3    0    0 -0.57259675744E+02  0.50440897117E+02 -0.18458621269E+03  0.21592442487E+03  0.82026415072E+02 0.  0.
          6    2    1    2  502    0  0.10513806651E+02 -0.12686111701E+02 -0.29641767450E+03  0.34232295954E+03  0.17044087924E+03 0.  0.
         24    2    5    5    0    0 -0.52912180696E+02  0.83897237105E+01 -0.22360136331E+03  0.24337169940E+03  0.79762949187E+02 0.  0.
          2    1    6    6  501    0 -0.16703484745E+02  0.36665553613E+02 -0.15948190190E+03  0.16449269363E+03  0.00000000000E+00 0. -1.
         -1    1    6    6    0  501 -0.36208695951E+02 -0.28275829902E+02 -0.64119461416E+02  0.78879005771E+02  0.00000000000E+00 0.  1.
          5    1    5    5  502    0  0.63425987348E+02 -0.21075835412E+02 -0.72816311183E+02  0.98951260142E+02  0.47000000000E+01 0. -1.
         13    1    4    4    0    0 -0.11820486381E+02 -0.20338230122E+02 -0.69540809710E+02  0.73411795496E+02  0.00000000000E+00 0. -1.
        -14    1    4    4    0    0 -0.45439189362E+02  0.70779127240E+02 -0.11504540298E+03  0.14251262937E+03  0.00000000000E+00 0.  1.
         -5    1    3    3    0  504  0.46745869093E+02 -0.37754785416E+02 -0.84336852189E+02  0.10365999583E+03  0.47000000000E+01 0.  1.
<mgrwt>
<rscale>  2 0.17230949E+03</rscale>
<asrwt>0</asrwt>
<pdfrwt beam="1">  1       21 0.74282035E-02 0.17266901E+03</pdfrwt>
<pdfrwt beam="2">  1       21 0.94403697E-01 0.17266901E+03</pdfrwt>
<totfact> 0.12929708E+05</totfact>
</mgrwt>
</event>
<event>
12    1  0.2736842E-001  0.2016228E+03  0.7546771E-02  0.1149785E+00
         21   -1    0    0  502  503  0.00000000000E+00  0.00000000000E+00  0.10240781668E+03  0.10240781668E+03  0.00000000000E+00 0. -1.
         21   -1    0    0  503  504 -0.00000000000E+00 -0.00000000000E+00 -0.77070867954E+03  0.77070867954E+03  0.00000000000E+00 0. -1.
         -6    2    1    2    0  504 -0.82535953332E+02 -0.65232400288E+02 -0.64613899742E+03  0.67686582229E+03  0.17200083649E+03 0.  0.
        -24    2    3    3    0    0 -0.94754983617E+02  0.39897286920E+00 -0.51812681848E+03  0.53241517396E+03  0.77664994318E+02 0.  0.
          6    2    1    2  502    0  0.82535953332E+02  0.65232400288E+02 -0.22161865426E+02  0.19625067393E+03  0.16418199992E+03 0.  0.
         24    2    5    5    0    0  0.68340254512E+01  0.72678225119E+01 -0.33918729898E+02  0.10006861727E+03  0.93614757254E+02 0.  0.
          2    1    6    6  501    0  0.11554401118E+02  0.34795968057E+02 -0.54281551245E+02  0.65503819613E+02  0.00000000000E+00 0. -1.
         -1    1    6    6    0  501 -0.47203756672E+01 -0.27528145545E+02  0.20362821348E+02  0.34564797653E+02  0.00000000000E+00 0.  1.
          5    1    5    5  502    0  0.75701927881E+02  0.57964577776E+02  0.11756864472E+02  0.96182056662E+02  0.47000000000E+01 0. -1.
         11    1    4    4    0    0 -0.62641541033E+02 -0.30875286921E+02 -0.40036619266E+03  0.40641153310E+03  0.00000000000E+00 0. -1.
        -12    1    4    4    0    0 -0.32113442584E+02  0.31274259791E+02 -0.11776062581E+03  0.12600364087E+03  0.00000000000E+00 0.  1.
         -5    1    3    3    0  504  0.12219030285E+02 -0.65631373157E+02 -0.12801217895E+03  0.14445064833E+03  0.47000000000E+01 0.  1.
<mgrwt>
<rscale>  2 0.19994508E+03</rscale>
<asrwt>0</asrwt>
<pdfrwt beam="1">  1       21 0.15755048E-01 0.20162276E+03</pdfrwt>
<pdfrwt beam="2">  1       21 0.11857057E+00 0.20162276E+03</pdfrwt>
<totfact> 0.19399646E+04</totfact>
</mgrwt>
</event>
<event>
12    1  0.2736842E-001  0.3568435E+03  0.7546771E-02  0.1060079E+00
         21   -1    0    0  502  503  0.00000000000E+00  0.00000000000E+00  0.79099254466E+03  0.79099254466E+03  0.00000000000E+00 0.  1.
         21   -1    0    0  503  504 -0.00000000000E+00 -0.00000000000E+00 -0.50348595524E+03  0.50348595524E+03  0.00000000000E+00 0. -1.
         -6    2    1    2    0  504  0.30377549938E+03  0.63238893657E+02 -0.39075568543E+03  0.52917602849E+03  0.17623436592E+03 0.  0.
        -24    2    3    3    0    0  0.14851686736E+03 -0.15982710352E+02 -0.26999805829E+03  0.31707746679E+03  0.72982611278E+02 0.  0.
          6    2    1    2  502    0 -0.30377549938E+03 -0.63238893657E+02  0.67826227486E+03  0.76530247141E+03  0.17137516609E+03 0.  0.
         24    2    5    5    0    0 -0.84676143685E+02 -0.60232260660E+01  0.14818085139E+03  0.18885944232E+03  0.80647353777E+02 0.  0.
          4    1    6    6  501    0  0.53474733512E+01 -0.14080384779E+02 -0.26344539713E+00  0.15063934089E+02  0.00000000000E+00 0. -1.
         -3    1    6    6    0  501 -0.90023617037E+02  0.80571587130E+01  0.14844429679E+03  0.17379550823E+03  0.00000000000E+00 0.  1.
          5    1    5    5  502    0 -0.21909935570E+03 -0.57215667591E+02  0.53008142347E+03  0.57644302909E+03  0.47000000000E+01 0. -1.
         13    1    4    4    0    0  0.82687029429E+02  0.20250535007E+02 -0.10076585605E+03  0.13191279979E+03  0.00000000000E+00 0. -1.
        -14    1    4    4    0    0  0.65829837932E+02 -0.36233245359E+02 -0.16923220224E+03  0.18516466700E+03  0.00000000000E+00 0.  1.
         -5    1    3    3    0  504  0.15525863202E+03  0.79221604009E+02 -0.12075762715E+03  0.21209856169E+03  0.47000000000E+01 0.  1.
<mgrwt>
<rscale>  2 0.35624833E+03</rscale>
<asrwt>0</asrwt>
<pdfrwt beam="1">  1       21 0.12169116E+00 0.35684347E+03</pdfrwt>
<pdfrwt beam="2">  1       21 0.77459378E-01 0.35684347E+03</pdfrwt>
<totfact> 0.66423077E+02</totfact>
</mgrwt>
</event>
<event>
12    1  0.2736842E-001  0.1780260E+03  0.7546771E-02  0.1169743E+00
         21   -1    0    0  502  503  0.00000000000E+00  0.00000000000E+00  0.77571816315E+03  0.77571816315E+03  0.00000000000E+00 0. -1.
         21   -1    0    0  503  504 -0.00000000000E+00 -0.00000000000E+00 -0.72096491190E+02  0.72096491190E+02  0.00000000000E+00 0. -1.
         -6    2    1    2    0  504  0.85597346155E+01  0.32534399073E+02  0.72670938104E+02  0.19222935347E+03  0.17475497964E+03 0.  0.
        -24    2    3    3    0    0  0.45648814078E+02  0.48924838197E+02  0.11640044101E+01  0.10989116138E+03  0.87162253434E+02 0.  0.
          6    2    1    2  502    0 -0.85597346155E+01 -0.32534399073E+02  0.63095073386E+03  0.65558530087E+03  0.17481848296E+03 0.  0.
         24    2    5    5    0    0 -0.56878884888E+02  0.18179155576E+02  0.46454286285E+03  0.47497446387E+03  0.78961893747E+02 0.  0.
          4    1    6    6  501    0 -0.29995500130E+02 -0.25437514123E+02  0.30193278122E+03  0.30448349960E+03  0.00000000000E+00 0. -1.
         -3    1    6    6    0  501 -0.26883384758E+02  0.43616669700E+02  0.16261008163E+03  0.17049096427E+03  0.00000000000E+00 0.  1.
          5    1    5    5  502    0  0.48319150272E+02 -0.50713554650E+02  0.16640787100E+03  0.18061083700E+03  0.47000000000E+01 0. -1.
         13    1    4    4    0    0  0.18847215529E+02 -0.24675519576E+02 -0.44247753960E+01  0.31363632393E+02  0.00000000000E+00 0. -1.
        -14    1    4    4    0    0  0.26801598548E+02  0.73600357773E+02  0.55887798061E+01  0.78527528987E+02  0.00000000000E+00 0.  1.
         -5    1    3    3    0  504 -0.37089079462E+02 -0.16390439124E+02  0.71506933694E+02  0.82338192088E+02  0.47000000000E+01 0.  1.
<mgrwt>
<rscale>  2 0.17801041E+03</rscale>
<asrwt>0</asrwt>
<pdfrwt beam="1">  1       21 0.11934125E+00 0.17802600E+03</pdfrwt>
<pdfrwt beam="2">  1       21 0.11091768E-01 0.17802600E+03</pdfrwt>
<totfact> 0.36449756E+04</totfact>
</mgrwt>
</event>
<event>
12    1  0.2736842E-001  0.1725884E+03  0.7546771E-02  0.1175700E+00
         21   -1    0    0  502  503  0.00000000000E+00  0.00000000000E+00  0.93058820506E+03  0.93058820506E+03  0.00000000000E+00 0. -1.
         21   -1    0    0  503  504 -0.00000000000E+00 -0.00000000000E+00 -0.54430992411E+02  0.54430992411E+02  0.00000000000E+00 0. -1.
         -6    2    1    2    0  504 -0.55513765363E+01  0.89480828877E+00  0.12084100079E+03  0.21068768045E+03  0.17249676159E+03 0.  0.
        -24    2    3    3    0    0 -0.64707935853E+02  0.71939640348E+01  0.10755655886E+03  0.14955058639E+03  0.80982062546E+02 0.  0.
          6    2    1    2  502    0  0.55513765363E+01 -0.89480828877E+00  0.75531621186E+03  0.77433151702E+03  0.17045556572E+03 0.  0.
         24    2    5    5    0    0 -0.55236854248E+02  0.24292336938E+02  0.55780286878E+03  0.56609316325E+03  0.75340569117E+02 0.  0.
          2    1    6    6  501    0  0.15262828978E+02  0.57798281795E+00  0.20319744553E+03  0.20377067964E+03  0.00000000000E+00 0. -1.
         -1    1    6    6    0  501 -0.70499683226E+02  0.23714354120E+02  0.35460542326E+03  0.36232248361E+03  0.00000000000E+00 0.  1.
          5    1    5    5  502    0  0.60788230785E+02 -0.25187145227E+02  0.19751334308E+03  0.20823835377E+03  0.47000000000E+01 0. -1.
         13    1    4    4    0    0 -0.79996067973E+01  0.29261767886E+02  0.56478245593E+01  0.30856809475E+02  0.00000000000E+00 0. -1.
        -14    1    4    4    0    0 -0.56708329056E+02 -0.22067803851E+02  0.10190873430E+03  0.11869377691E+03  0.00000000000E+00 0.  1.
         -5    1    3    3    0  504  0.59156559317E+02 -0.62991557460E+01  0.13284441930E+02  0.61137094065E+02  0.47000000000E+01 0.  1.
<mgrwt>
<rscale>  2 0.17207609E+03</rscale>
<asrwt>0</asrwt>
<pdfrwt beam="1">  1       21 0.14316740E+00 0.17258839E+03</pdfrwt>
<pdfrwt beam="2">  1       21 0.83739995E-02 0.17258839E+03</pdfrwt>
<totfact> 0.37868600E+04</totfact>
</mgrwt>
</event>
<event>
12    1  0.2736842E-001  0.2145411E+03  0.7546771E-02  0.1138341E+00
         21   -1    0    0  502  503  0.00000000000E+00  0.00000000000E+00  0.13175243293E+03  0.13175243293E+03  0.00000000000E+00 0. -1.
         21   -1    0    0  503  504 -0.00000000000E+00 -0.00000000000E+00 -0.34880076629E+03  0.34880076629E+03  0.00000000000E+00 0.  1.
         -6    2    1    2    0  504 -0.73961153986E+01  0.12651382081E+03 -0.90084514696E+02  0.23268672682E+03  0.17311107322E+03 0.  0.
        -24    2    3    3    0    0 -0.54432945384E+02  0.13608898106E+03 -0.80753789835E+02  0.18356138209E+03  0.75435072156E+02 0.  0.
          6    2    1    2  502    0  0.73961153986E+01 -0.12651382081E+03 -0.12696381867E+03  0.24786647240E+03  0.17104831922E+03 0.  0.
         24    2    5    5    0    0  0.92189627148E+01  0.20825074800E+01 -0.37911600423E+02  0.91364951651E+02  0.82588975248E+02 0.  0.
          4    1    6    6  501    0 -0.22328852665E+02 -0.15737176439E+02  0.11877423881E+02  0.29787742138E+02  0.00000000000E+00 0. -1.
         -3    1    6    6    0  501  0.31547815380E+02  0.17819683919E+02 -0.49789024305E+02  0.61577209513E+02  0.00000000000E+00 0.  1.
          5    1    5    5  502    0 -0.18228473161E+01 -0.12859632829E+03 -0.89052218248E+02  0.15650152075E+03  0.47000000000E+01 0. -1.
         13    1    4    4    0    0  0.36612790197E+01  0.17319202677E+02  0.12583467545E+02  0.21718733869E+02  0.00000000000E+00 0. -1.
        -14    1    4    4    0    0 -0.58094224404E+02  0.11876977838E+03 -0.93337257380E+02  0.16184264822E+03  0.00000000000E+00 0.  1.
         -5    1    3    3    0  504  0.47036829985E+02 -0.95751602541E+01 -0.93307248611E+01  0.49125344735E+02  0.47000000000E+01 0.  1.
<mgrwt>
<rscale>  2 0.21412468E+03</rscale>
<asrwt>0</asrwt>
<pdfrwt beam="1">  1       21 0.20269605E-01 0.21454112E+03</pdfrwt>
<pdfrwt beam="2">  1       21 0.53661656E-01 0.21454112E+03</pdfrwt>
<totfact> 0.73267617E+04</totfact>
</mgrwt>
</event>
<event>
12    1  0.2736842E-001  0.2263723E+03  0.7546771E-02  0.1130793E+00
         21   -1    0    0  502  503  0.00000000000E+00  0.00000000000E+00  0.24245394590E+03  0.24245394590E+03  0.00000000000E+00 0.  1.
         21   -1    0    0  503  504 -0.00000000000E+00 -0.00000000000E+00 -0.42714725694E+03  0.42714725694E+03  0.00000000000E+00 0.  1.
         -6    2    1    2    0  504 -0.33953726391E+02  0.14234820169E+03 -0.33547711473E+03  0.40470892691E+03  0.17270945242E+03 0.  0.
        -24    2    3    3    0    0 -0.16118299713E+02  0.22899720671E+02 -0.61541605085E+02  0.10529483989E+03  0.80718259140E+02 0.  0.
          6    2    1    2  502    0  0.33953726391E+02 -0.14234820169E+03  0.15078380368E+03  0.26489227593E+03  0.16129567983E+03 0.  0.
         24    2    5    5    0    0  0.58458620643E+02 -0.35199085742E+02  0.52927729087E+02  0.11765327217E+03  0.79903454133E+02 0.  0.
          2    1    6    6  501    0  0.18632731090E+02  0.33410231508E+01 -0.19020346887E+02  0.26834952940E+02  0.00000000000E+00 0. -1.
         -1    1    6    6    0  501  0.39825889554E+02 -0.38540108892E+02  0.71948075974E+02  0.90818319234E+02  0.00000000000E+00 0.  1.
          5    1    5    5  502    0 -0.24504894252E+02 -0.10714911595E+03  0.97856074597E+02  0.14723900375E+03  0.47000000000E+01 0. -1.
         11    1    4    4    0    0 -0.46631289353E+02  0.10711616041E+02 -0.52885008578E+02  0.71316477740E+02  0.00000000000E+00 0. -1.
        -12    1    4    4    0    0  0.30512989641E+02  0.12188104630E+02 -0.86565965075E+01  0.33978362150E+02  0.00000000000E+00 0.  1.
         -5    1    3    3    0  504 -0.17835426679E+02  0.11944848102E+03 -0.27393550964E+03  0.29941408702E+03  0.47000000000E+01 0.  1.
<mgrwt>
<rscale>  2 0.22419534E+03</rscale>
<asrwt>0</asrwt>
<pdfrwt beam="1">  1       21 0.37300608E-01 0.22637231E+03</pdfrwt>
<pdfrwt beam="2">  1       21 0.65714961E-01 0.22637231E+03</pdfrwt>
<totfact> 0.14449184E+04</totfact>
</mgrwt>
</event>
<event>
12    1  0.2736842E-001  0.1957473E+03  0.7546771E-02  0.1153500E+00
         21   -1    0    0  502  503  0.00000000000E+00  0.00000000000E+00  0.69945637274E+03  0.69945637274E+03  0.00000000000E+00 0. -1.
         21   -1    0    0  503  504 -0.00000000000E+00 -0.00000000000E+00 -0.54698838616E+02  0.54698838616E+02  0.00000000000E+00 0. -1.
         -6    2    1    2    0  504  0.40728801710E+01  0.90813614933E+02  0.33690975873E+03  0.38964752069E+03  0.17335888739E+03 0.  0.
        -24    2    3    3    0    0  0.66868721349E+02  0.36874107870E+02  0.21286140426E+03  0.24044003984E+03  0.81671963430E+02 0.  0.
          6    2    1    2  502    0 -0.40728801710E+01 -0.90813614933E+02  0.30784777539E+03  0.36450769067E+03  0.17271914409E+03 0.  0.
         24    2    5    5    0    0  0.42628260775E+02 -0.81161099579E+00  0.17777656633E+03  0.19951688273E+03  0.79904015101E+02 0.  0.
          4    1    6    6  501    0  0.41038809511E+02 -0.23078185276E+02  0.45864481487E+02  0.65729271895E+02  0.00000000000E+00 0. -1.
         -3    1    6    6    0  501  0.15894512646E+01  0.22266574280E+02  0.13191208485E+03  0.13378761084E+03  0.00000000000E+00 0.  1.
          5    1    5    5  502    0 -0.46701140946E+02 -0.90002003937E+02  0.13007120906E+03  0.16499080794E+03  0.47000000000E+01 0. -1.
         13    1    4    4    0    0  0.23377834227E+02  0.40166978400E+02  0.37445302334E+02  0.59682995517E+02  0.00000000000E+00 0. -1.
        -14    1    4    4    0    0  0.43490887122E+02 -0.32928705305E+01  0.17541610193E+03  0.18075704433E+03  0.00000000000E+00 0.  1.
         -5    1    3    3    0  504 -0.62795841178E+02  0.53939507064E+02  0.12404835447E+03  0.14920748084E+03  0.47000000000E+01 0.  1.
<mgrwt>
<rscale>  2 0.19560556E+03</rscale>
<asrwt>0</asrwt>
<pdfrwt beam="1">  1       21 0.10760867E+00 0.19574730E+03</pdfrwt>
<pdfrwt beam="2">  1       21 0.84152065E-02 0.19574730E+03</pdfrwt>
<totfact> 0.75560788E+04</totfact>
</mgrwt>
</event>
<event>
12    1  0.2736842E-001  0.1844491E+03  0.7546771E-02  0.1164430E+00
         21   -1    0    0  502  503  0.00000000000E+00  0.00000000000E+00  0.50573200203E+02  0.50573200203E+02  0.00000000000E+00 0. -1.
         21   -1    0    0  503  504 -0.00000000000E+00 -0.00000000000E+00 -0.68881887877E+03  0.68881887877E+03  0.00000000000E+00 0. -1.
         -6    2    1    2    0  504 -0.42728751419E+02 -0.46757624035E+02 -0.23975947405E+03  0.30028763552E+03  0.16934000428E+03 0.  0.
        -24    2    3    3    0    0  0.17444508078E+02 -0.67959596203E+02 -0.19526126092E+03  0.22236122310E+03  0.79967092866E+02 0.  0.
          6    2    1    2  502    0  0.42728751419E+02  0.46757624035E+02 -0.39848620453E+03  0.43910444346E+03  0.17323231645E+03 0.  0.
         24    2    5    5    0    0 -0.31906660468E+02  0.19430561791E+02 -0.11737197090E+03  0.14693237877E+03  0.80108443146E+02 0.  0.
          4    1    6    6  501    0 -0.38321100998E+01  0.43367326785E+02 -0.93082802811E+02  0.10276097644E+03  0.00000000000E+00 0. -1.
         -3    1    6    6    0  501 -0.28074550368E+02 -0.23936764994E+02 -0.24289168088E+02  0.44171402323E+02  0.00000000000E+00 0.  1.
          5    1    5    5  502    0  0.74635411887E+02  0.27327062243E+02 -0.28111423363E+03  0.29217206469E+03  0.47000000000E+01 0. -1.
         13    1    4    4    0    0 -0.27758738604E+02 -0.17511220407E+02 -0.10161886189E+03  0.10678756248E+03  0.00000000000E+00 0. -1.
        -14    1    4    4    0    0  0.45203246682E+02 -0.50448375796E+02 -0.93642399032E+02  0.11557366061E+03  0.00000000000E+00 0.  1.
         -5    1    3    3    0  504 -0.60173259497E+02  0.21201972168E+02 -0.44498213123E+02  0.77926412425E+02  0.47000000000E+01 0.  1.
<mgrwt>
<rscale>  2 0.18352954E+03</rscale>
<asrwt>0</asrwt>
<pdfrwt beam="1">  1       21 0.77804922E-02 0.18444906E+03</pdfrwt>
<pdfrwt beam="2">  1       21 0.10597214E+00 0.18444906E+03</pdfrwt>
<totfact> 0.90323135E+04</totfact>
</mgrwt>
</event>
<event>
12    1  0.2736842E-001  0.1750752E+03  0.7546771E-02  0.1172704E+00
         21   -1    0    0  502  503  0.00000000000E+00  0.00000000000E+00  0.44302746757E+03  0.44302746757E+03  0.00000000000E+00 0. -1.
         21   -1    0    0  503  504 -0.00000000000E+00 -0.00000000000E+00 -0.69185970149E+02  0.69185970149E+02  0.00000000000E+00 0. -1.
         -6    2    1    2    0  504 -0.17129429642E+02 -0.17681583767E+02  0.17834042209E+03  0.24977871431E+03  0.17314168823E+03 0.  0.
        -24    2    3    3    0    0 -0.28791281319E+02  0.53677531392E+02  0.11630900987E+03  0.15439471039E+03  0.81238694989E+02 0.  0.
          6    2    1    2  502    0  0.17129429642E+02  0.17681583767E+02  0.19550107533E+03  0.26243472341E+03  0.17333567963E+03 0.  0.
         24    2    5    5    0    0  0.29514186571E+02 -0.41747361599E+02  0.56064240626E+02  0.11028380286E+03  0.80033672213E+02 0.  0.
          2    1    6    6  501    0  0.35491077394E+02 -0.60764968915E+02  0.27724200280E+02  0.75634841859E+02  0.00000000000E+00 0. -1.
         -1    1    6    6    0  501 -0.59768908237E+01  0.19017607316E+02  0.28340040346E+02  0.34648961006E+02  0.00000000000E+00 0.  1.
          5    1    5    5  502    0 -0.12384756929E+02  0.59428945365E+02  0.13943683470E+03  0.15215092055E+03  0.47000000000E+01 0. -1.
         11    1    4    4    0    0 -0.15355385100E+02 -0.19345784766E+02  0.45619999966E+02  0.51877081999E+02  0.00000000000E+00 0. -1.
        -12    1    4    4    0    0 -0.13435896219E+02  0.73023316159E+02  0.70689009903E+02  0.10251762839E+03  0.00000000000E+00 0.  1.
         -5    1    3    3    0  504  0.11661851677E+02 -0.71359115159E+02  0.62031412224E+02  0.95384003917E+02  0.47000000000E+01 0.  1.
<mgrwt>
<rscale>  2 0.17502713E+03</rscale>
<asrwt>0</asrwt>
<pdfrwt beam="1">  1       21 0.68158070E-01 0.17507517E+03</pdfrwt>
<pdfrwt beam="2">  1       21 0.10643996E-01 0.17507517E+03</pdfrwt>
<totfact> 0.14362401E+05</totfact>
</mgrwt>
</event>
<event>
12    1  0.2736842E-001  0.2053459E+03  0.7546771E-02  0.1145307E+00
         21   -1    0    0  502  503  0.00000000000E+00  0.00000000000E+00  0.38596944839E+02  0.38596944839E+02  0.00000000000E+00 0.  1.
         21   -1    0    0  503  504 -0.00000000000E+00 -0.00000000000E+00 -0.11136026883E+04  0.11136026883E+04  0.00000000000E+00 0. -1.
         -6    2    1    2    0  504  0.52357314897E+01 -0.11040890490E+03 -0.61690101631E+03  0.65017683112E+03  0.17304770623E+03 0.  0.
        -24    2    3    3    0    0  0.69505162818E+02 -0.84026254478E+02 -0.38520105783E+03  0.40823972192E+03  0.79927695452E+02 0.  0.
          6    2    1    2  502    0 -0.52357314897E+01  0.11040890490E+03 -0.45810472714E+03  0.50202280201E+03  0.17305898863E+03 0.  0.
         24    2    5    5    0    0  0.50377653040E+01  0.95596648454E+02 -0.15765445064E+03  0.20099555022E+03  0.79876073536E+02 0.  0.
          4    1    6    6  501    0 -0.58400559874E+01  0.86894451319E+02 -0.16399850559E+03  0.18568861505E+03  0.00000000000E+00 0. -1.
         -3    1    6    6    0  501  0.10877821291E+02  0.87021971350E+01  0.63440549442E+01  0.15306935165E+02  0.00000000000E+00 0.  1.
          5    1    5    5  502    0 -0.10273496794E+02  0.14812256451E+02 -0.30045027649E+03  0.30102725179E+03  0.47000000000E+01 0. -1.
         11    1    4    4    0    0  0.11031070134E+02 -0.75223438234E+02 -0.21161689389E+03  0.22485986736E+03  0.00000000000E+00 0. -1.
        -12    1    4    4    0    0  0.58474092684E+02 -0.88028162438E+01 -0.17358416394E+03  0.18337985456E+03  0.00000000000E+00 0.  1.
         -5    1    3    3    0  504 -0.64269431328E+02 -0.26382650427E+02 -0.23169995848E+03  0.24193710920E+03  0.47000000000E+01 0.  1.
<mgrwt>
<rscale>  2 0.20534356E+03</rscale>
<asrwt>0</asrwt>
<pdfrwt beam="1">  1       21 0.59379919E-02 0.20534593E+03</pdfrwt>
<pdfrwt beam="2">  1       21 0.17132348E+00 0.20534593E+03</pdfrwt>
<totfact> 0.41594472E+04</totfact>
</mgrwt>
</event>
<event>
12    1  0.2736842E-001  0.2963237E+03  0.7546771E-02  0.1087416E+00
         21   -1    0    0  502  503  0.00000000000E+00  0.00000000000E+00  0.22760466399E+03  0.22760466399E+03  0.00000000000E+00 0. -1.
         21   -1    0    0  503  504 -0.00000000000E+00 -0.00000000000E+00 -0.38697388849E+03  0.38697388849E+03  0.00000000000E+00 0.  1.
         -6    2    1    2    0  504  0.20939216279E+03  0.11127270797E+03 -0.11307919375E+03  0.31716662103E+03  0.17771063012E+03 0.  0.
        -24    2    3    3    0    0  0.98164446252E+02  0.23888023640E+02 -0.11792585158E+03  0.17555705894E+03  0.81895532807E+02 0.  0.
          6    2    1    2  502    0 -0.20939216279E+03 -0.11127270797E+03 -0.46290030757E+02  0.29741193145E+03  0.17344854177E+03 0.  0.
         24    2    5    5    0    0 -0.51015489750E+02 -0.10263710994E+03 -0.47699365098E+01  0.13338829796E+03  0.68064155071E+02 0.  0.
          4    1    6    6  501    0 -0.32338461100E+02 -0.51261308216E+02 -0.35936716632E+02  0.70462368599E+02  0.00000000000E+00 0. -1.
         -3    1    6    6    0  501 -0.18677028649E+02 -0.51375801728E+02  0.31166780122E+02  0.62925929358E+02  0.00000000000E+00 0.  1.
          5    1    5    5  502    0 -0.15837667304E+03 -0.86355980248E+01 -0.41520094247E+02  0.16402363349E+03  0.47000000000E+01 0. -1.
         11    1    4    4    0    0 -0.31673846400E+01 -0.98952938223E-01  0.10067576863E+02  0.10554535567E+02  0.00000000000E+00 0. -1.
        -12    1    4    4    0    0  0.10133183089E+03  0.23986976578E+02 -0.12799342844E+03  0.16500252338E+03  0.00000000000E+00 0.  1.
         -5    1    3    3    0  504  0.11122771654E+03  0.87384684329E+02  0.48466578277E+01  0.14160956209E+03  0.47000000000E+01 0.  1.
<mgrwt>
<rscale>  2 0.29568764E+03</rscale>
<asrwt>0</asrwt>
<pdfrwt beam="1">  1       21 0.35016102E-01 0.29632374E+03</pdfrwt>
<pdfrwt beam="2">  1       21 0.59534444E-01 0.29632374E+03</pdfrwt>
<totfact> 0.19671738E+04</totfact>
</mgrwt>
</event>
<event>
12    1  0.2736842E-001  0.1965953E+03  0.7546771E-02  0.1153174E+00
         21   -1    0    0  502  503  0.00000000000E+00  0.00000000000E+00  0.25111362198E+03  0.25111362198E+03  0.00000000000E+00 0. -1.
         21   -1    0    0  503  504 -0.00000000000E+00 -0.00000000000E+00 -0.15267681171E+03  0.15267681171E+03  0.00000000000E+00 0. -1.
         -6    2    1    2    0  504 -0.83527207664E+02 -0.27919785751E+02  0.35530162059E+02  0.19737586343E+03  0.17302754172E+03 0.  0.
        -24    2    3    3    0    0 -0.11282590902E+03 -0.59117220220E+02  0.21917303866E+02  0.15221953800E+03  0.80410745960E+02 0.  0.
          6    2    1    2  502    0  0.83527207664E+02  0.27919785751E+02  0.62906648209E+02  0.20641457025E+03  0.17576523993E+03 0.  0.
         24    2    5    5    0    0 -0.20349255515E+02 -0.11062638432E+02  0.34769071979E+02  0.91855580235E+02  0.81805165393E+02 0.  0.
          4    1    6    6  501    0 -0.15010805468E+02  0.31615769849E+02 -0.23013397920E+01  0.35073884142E+02  0.00000000000E+00 0. -1.
         -3    1    6    6    0  501 -0.53384500469E+01 -0.42678408282E+02  0.37070411771E+02  0.56781696093E+02  0.00000000000E+00 0.  1.
          5    1    5    5  502    0  0.10387646318E+03  0.38982424183E+02  0.28137576230E+02  0.11455899002E+03  0.47000000000E+01 0. -1.
         13    1    4    4    0    0 -0.50308030326E+02 -0.64890488421E+02 -0.83304501838E+01  0.82529205758E+02  0.00000000000E+00 0. -1.
        -14    1    4    4    0    0 -0.62517878695E+02  0.57732682015E+01  0.30247754049E+02  0.69690332237E+02  0.00000000000E+00 0.  1.
         -5    1    3    3    0  504  0.29298701357E+02  0.31197434469E+02  0.13612858193E+02  0.45156325435E+02  0.47000000000E+01 0.  1.
<mgrwt>
<rscale>  2 0.19598153E+03</rscale>
<asrwt>0</asrwt>
<pdfrwt beam="1">  1       21 0.38632865E-01 0.19659534E+03</pdfrwt>
<pdfrwt beam="2">  1       21 0.23488740E-01 0.19659534E+03</pdfrwt>
<totfact> 0.11002261E+05</totfact>
</mgrwt>
</event>
<event>
12    1  0.2736842E-001  0.1834127E+03  0.7546771E-02  0.1164641E+00
         21   -1    0    0  502  503  0.00000000000E+00  0.00000000000E+00  0.42694545957E+03  0.42694545957E+03  0.00000000000E+00 0. -1.
         21   -1    0    0  503  504 -0.00000000000E+00 -0.00000000000E+00 -0.82274459469E+02  0.82274459469E+02  0.00000000000E+00 0. -1.
         -6    2    1    2    0  504 -0.25088230543E+02 -0.56247899648E+02  0.11879445992E+03  0.21852309878E+03  0.17276277222E+03 0.  0.
        -24    2    3    3    0    0 -0.37614449071E+01  0.20351101910E+02  0.11012334846E+03  0.13840121039E+03  0.81236859508E+02 0.  0.
          6    2    1    2  502    0  0.25088230543E+02  0.56247899648E+02  0.22587654018E+03  0.29069682026E+03  0.17231130080E+03 0.  0.
         24    2    5    5    0    0 -0.37575186499E+02  0.22588007422E+02  0.64040787084E+02  0.11385623341E+03  0.83306102753E+02 0.  0.
          4    1    6    6  501    0 -0.50890450904E+02  0.45025147520E+02  0.43912581449E+02  0.80903749677E+02  0.00000000000E+00 0. -1.
         -3    1    6    6    0  501  0.13315264405E+02 -0.22437140098E+02  0.20128205635E+02  0.32952483731E+02  0.00000000000E+00 0.  1.
          5    1    5    5  502    0  0.62663417041E+02  0.33659892226E+02  0.16183575310E+03  0.17684058686E+03  0.47000000000E+01 0. -1.
         11    1    4    4    0    0  0.12356076971E+02 -0.28764076710E+02  0.32361020749E+02  0.45025330771E+02  0.00000000000E+00 0. -1.
        -12    1    4    4    0    0 -0.16117521878E+02  0.49115178620E+02  0.77762327713E+02  0.93375879614E+02  0.00000000000E+00 0.  1.
         -5    1    3    3    0  504 -0.21326785636E+02 -0.76599001558E+02  0.86711114594E+01  0.80121888390E+02  0.47000000000E+01 0.  1.
<mgrwt>
<rscale>  2 0.18330632E+03</rscale>
<asrwt>0</asrwt>
<pdfrwt beam="1">  1       21 0.65683916E-01 0.18341271E+03</pdfrwt>
<pdfrwt beam="2">  1       21 0.12657609E-01 0.18341271E+03</pdfrwt>
<totfact> 0.11399807E+05</totfact>
</mgrwt>
</event>
<event>
12    1  0.2736842E-001  0.2952651E+03  0.7546771E-02  0.1088401E+00
         21   -1    0    0  502  503  0.00000000000E+00  0.00000000000E+00  0.36880363366E+03  0.36880363366E+03  0.00000000000E+00 0.  1.
         21   -1    0    0  503  504 -0.00000000000E+00 -0.00000000000E+00 -0.30693530182E+03  0.30693530182E+03  0.00000000000E+00 0.  1.
         -6    2    1    2    0  504  0.11316694744E+03 -0.21292554515E+03 -0.13664152028E+03  0.31994739412E+03  0.15984800334E+03 0.  0.
        -24    2    3    3    0    0  0.78712482235E+02 -0.19001703121E+03 -0.15938680711E+03  0.27249901948E+03  0.80928575463E+02 0.  0.
          6    2    1    2  502    0 -0.11316694744E+03  0.21292554515E+03  0.19850985213E+03  0.35579154136E+03  0.17040367879E+03 0.  0.
         24    2    5    5    0    0 -0.91844367210E+02  0.21654718515E+03  0.21459880086E+03  0.32842892133E+03  0.80528503343E+02 0.  0.
          2    1    6    6  501    0 -0.10053400376E+03  0.14440237576E+03  0.15105895051E+03  0.23190070842E+03  0.00000000000E+00 0. -1.
         -1    1    6    6    0  501  0.86896365458E+01  0.72144809386E+02  0.63539850347E+02  0.96528212906E+02  0.00000000000E+00 0.  1.
          5    1    5    5  502    0 -0.21322580225E+02 -0.36216399987E+01 -0.16088948734E+02  0.27362620034E+02  0.47000000000E+01 0. -1.
         11    1    4    4    0    0  0.69031331218E+02 -0.88408597141E+02 -0.49749171677E+02  0.12270446129E+03  0.00000000000E+00 0. -1.
        -12    1    4    4    0    0  0.96811510168E+01 -0.10160843407E+03 -0.10963763544E+03  0.14979455819E+03  0.00000000000E+00 0.  1.
         -5    1    3    3    0  504  0.34454465200E+02 -0.22908513942E+02  0.22745286830E+02  0.47448374643E+02  0.47000000000E+01 0.  1.
<mgrwt>
<rscale>  2 0.29376278E+03</rscale>
<asrwt>0</asrwt>
<pdfrwt beam="1">  1       21 0.56739020E-01 0.29526507E+03</pdfrwt>
<pdfrwt beam="2">  1       21 0.47220816E-01 0.29526507E+03</pdfrwt>
<totfact> 0.11841334E+04</totfact>
</mgrwt>
</event>
<event>
12    1  0.2736842E-001  0.2143725E+03  0.7546771E-02  0.1138402E+00
         21   -1    0    0  502  503  0.00000000000E+00  0.00000000000E+00  0.33853756947E+03  0.33853756947E+03  0.00000000000E+00 0.  1.
         21   -1    0    0  503  504 -0.00000000000E+00 -0.00000000000E+00 -0.22833830802E+03  0.22833830802E+03  0.00000000000E+00 0.  1.
         -6    2    1    2    0  504 -0.38709127868E+02  0.11963857497E+03 -0.12609313080E+03  0.24870678839E+03  0.17361971016E+03 0.  0.
        -24    2    3    3    0    0  0.25744828629E+02 -0.10754661584E+01 -0.68053115390E+02  0.99989184784E+02  0.68575926760E+02 0.  0.
          6    2    1    2  502    0  0.38709127868E+02 -0.11963857497E+03  0.23629239224E+03  0.31816908910E+03  0.17200491104E+03 0.  0.
         24    2    5    5    0    0  0.64832142808E+01 -0.88862594776E+02  0.24481406289E+03  0.27255791356E+03  0.80095555639E+02 0.  0.
          2    1    6    6  501    0  0.35818458460E+02 -0.12637489222E+02  0.84173242010E+02  0.92346103171E+02  0.00000000000E+00 0. -1.
         -1    1    6    6    0  501 -0.29335244180E+02 -0.76225105554E+02  0.16064082088E+03  0.18021181038E+03  0.00000000000E+00 0.  1.
          5    1    5    5  502    0  0.32225913588E+02 -0.30775980196E+02 -0.85216706499E+01  0.45611175541E+02  0.47000000000E+01 0. -1.
         13    1    4    4    0    0  0.45463877121E+02 -0.10712768901E+02 -0.28394639915E+02  0.54662447040E+02  0.00000000000E+00 0. -1.
        -14    1    4    4    0    0 -0.19719048493E+02  0.96373027429E+01 -0.39658475475E+02  0.45326737745E+02  0.00000000000E+00 0.  1.
         -5    1    3    3    0  504 -0.64453956497E+02  0.12071404113E+03 -0.58040015409E+02  0.14871760361E+03  0.47000000000E+01 0.  1.
<mgrwt>
<rscale>  2 0.21404537E+03</rscale>
<asrwt>0</asrwt>
<pdfrwt beam="1">  1       21 0.52082703E-01 0.21437255E+03</pdfrwt>
<pdfrwt beam="2">  1       21 0.35128970E-01 0.21437255E+03</pdfrwt>
<totfact> 0.27005636E+04</totfact>
</mgrwt>
</event>
<event>
12    1  0.2736842E-001  0.1847029E+03  0.7546771E-02  0.1163510E+00
         21   -1    0    0  502  503  0.00000000000E+00  0.00000000000E+00  0.10683425608E+04  0.10683425608E+04  0.00000000000E+00 0. -1.
         21   -1    0    0  503  504 -0.00000000000E+00 -0.00000000000E+00 -0.31802817788E+02  0.31802817788E+02  0.00000000000E+00 0. -1.
         -6    2    1    2    0  504  0.62033201727E+02  0.65172234910E+01  0.52362336088E+03  0.55498633822E+03  0.17302548723E+03 0.  0.
        -24    2    3    3    0    0 -0.32178325211E+02  0.13259905681E+02  0.23796613141E+03  0.25408200406E+03  0.81966550334E+02 0.  0.
          6    2    1    2  502    0 -0.62033201727E+02 -0.65172234910E+01  0.51291638210E+03  0.54515904034E+03  0.17385215534E+03 0.  0.
         24    2    5    5    0    0 -0.76260170804E+02 -0.24346282528E+02  0.50850670944E+03  0.52145635677E+03  0.83242437177E+02 0.  0.
          2    1    6    6  501    0 -0.78250786134E+02  0.99682306307E+01  0.30326513132E+03  0.31335649192E+03  0.00000000000E+00 0. -1.
         -1    1    6    6    0  501  0.19906153295E+01 -0.34314513159E+02  0.20524157812E+03  0.20809986485E+03  0.00000000000E+00 0.  1.
          5    1    5    5  502    0  0.14226969077E+02  0.17829059037E+02  0.44096726604E+01  0.23702683566E+02  0.47000000000E+01 0. -1.
         11    1    4    4    0    0  0.49458192067E+01 -0.21762093673E+02  0.19194130348E+02  0.29435768861E+02  0.00000000000E+00 0. -1.
        -12    1    4    4    0    0 -0.37124144417E+02  0.35021999353E+02  0.21877200106E+03  0.22464623519E+03  0.00000000000E+00 0.  1.
         -5    1    3    3    0  504  0.94211526938E+02 -0.67426821898E+01  0.28565722947E+03  0.30090433417E+03  0.47000000000E+01 0.  1.
<mgrwt>
<rscale>  2 0.18450813E+03</rscale>
<asrwt>0</asrwt>
<pdfrwt beam="1">  1       21 0.16436037E+00 0.18470291E+03</pdfrwt>
<pdfrwt beam="2">  1       21 0.48927420E-02 0.18470291E+03</pdfrwt>
<totfact> 0.65589404E+04</totfact>
</mgrwt>
</event>
<event>
12    1  0.2736842E-001  0.1927886E+03  0.7546771E-02  0.1156859E+00
         21   -1    0    0  502  503  0.00000000000E+00  0.00000000000E+00  0.38186938935E+02  0.38186938935E+02  0.00000000000E+00 0.  1.
         21   -1    0    0  503  504 -0.00000000000E+00 -0.00000000000E+00 -0.12002092736E+04  0.12002092736E+04  0.00000000000E+00 0. -1.
         -6    2    1    2    0  504  0.49717790388E+02  0.56540662143E+02 -0.86662389068E+03  0.88780876129E+03  0.17747879755E+03 0.  0.
        -24    2    3    3    0    0  0.26544301161E+02  0.20616973983E+02 -0.81836176357E+03  0.82316477560E+03  0.82186447591E+02 0.  0.
          6    2    1    2  502    0 -0.49717790388E+02 -0.56540662143E+02 -0.29539844400E+03  0.35058745125E+03  0.17315488761E+03 0.  0.
         24    2    5    5    0    0 -0.14003435443E+02 -0.28155525254E+02 -0.29165217516E+03  0.30457271801E+03  0.81943391872E+02 0.  0.
          4    1    6    6  501    0  0.82139278055E+01  0.22095394821E+02 -0.16276639287E+03  0.16446450599E+03  0.00000000000E+00 0. -1.
         -3    1    6    6    0  501 -0.22217363248E+02 -0.50250920075E+02 -0.12888578229E+03  0.14010821202E+03  0.00000000000E+00 0.  1.
          5    1    5    5  502    0 -0.35714354945E+02 -0.28385136888E+02 -0.37462688370E+01  0.46014733244E+02  0.47000000000E+01 0. -1.
         13    1    4    4    0    0  0.27153368858E+02  0.50663952992E+02 -0.46811047152E+03  0.47162649960E+03  0.00000000000E+00 0. -1.
        -14    1    4    4    0    0 -0.60906769699E+00 -0.30046979009E+02 -0.35025129205E+03  0.35153827600E+03  0.00000000000E+00 0.  1.
         -5    1    3    3    0  504  0.23173489227E+02  0.35923688160E+02 -0.48262127103E+02  0.64643985694E+02  0.47000000000E+01 0.  1.
<mgrwt>
<rscale>  2 0.19178754E+03</rscale>
<asrwt>0</asrwt>
<pdfrwt beam="1">  1       21 0.58749129E-02 0.19278856E+03</pdfrwt>
<pdfrwt beam="2">  1       21 0.18464761E+00 0.19278856E+03</pdfrwt>
<totfact> 0.34600526E+04</totfact>
</mgrwt>
</event>
<event>
12    1  0.2736842E-001  0.2042732E+03  0.7546771E-02  0.1146848E+00
         21   -1    0    0  502  503  0.00000000000E+00  0.00000000000E+00  0.50001166373E+03  0.50001166373E+03  0.00000000000E+00 0.  1.
         21   -1    0    0  503  504 -0.00000000000E+00 -0.00000000000E+00 -0.10327137389E+03  0.10327137389E+03  0.00000000000E+00 0.  1.
         -6    2    1    2    0  504  0.61593869722E+02  0.81832304623E+02  0.33354558715E+03  0.38945805529E+03  0.17301614738E+03 0.  0.
        -24    2    3    3    0    0 -0.15578517846E+02  0.95712855785E+02  0.21457371416E+03  0.24689353072E+03  0.74235407464E+02 0.  0.
          6    2    1    2  502    0 -0.61593869722E+02 -0.81832304623E+02  0.63194702688E+02  0.21382498233E+03  0.17674054926E+03 0.  0.
         24    2    5    5    0    0  0.25836776753E+02 -0.21403674382E+02 -0.10864734601E+02  0.84200032776E+02  0.76458791199E+02 0.  0.
          2    1    6    6  501    0  0.27640271280E+01 -0.46102570938E+02  0.57428867728E+01  0.46541031806E+02  0.00000000000E+00 0. -1.
         -1    1    6    6    0  501  0.23072749625E+02  0.24698896557E+02 -0.16607621374E+02  0.37659000970E+02  0.00000000000E+00 0.  1.
          5    1    5    5  502    0 -0.87430646474E+02 -0.60428630241E+02  0.74059437289E+02  0.12962494956E+03  0.47000000000E+01 0. -1.
         11    1    4    4    0    0  0.40280959003E+01  0.54605082220E+02  0.43700377086E+02  0.70054718031E+02  0.00000000000E+00 0. -1.
        -12    1    4    4    0    0 -0.19606613746E+02  0.41107773565E+02  0.17087333708E+03  0.17683881269E+03  0.00000000000E+00 0.  1.
         -5    1    3    3    0  504  0.77172387567E+02 -0.13880551162E+02  0.11897187299E+03  0.14256452457E+03  0.47000000000E+01 0.  1.
<mgrwt>
<rscale>  2 0.20346501E+03</rscale>
<asrwt>0</asrwt>
<pdfrwt beam="1">  1       21 0.76924870E-01 0.20427323E+03</pdfrwt>
<pdfrwt beam="2">  1       21 0.15887904E-01 0.20427323E+03</pdfrwt>
<totfact> 0.52757319E+04</totfact>
</mgrwt>
</event>
<event>
12    1  0.2736842E-001  0.1821836E+03  0.7546771E-02  0.1165818E+00
         21   -1    0    0  502  503  0.00000000000E+00  0.00000000000E+00  0.25156317567E+03  0.25156317567E+03  0.00000000000E+00 0. -1.
         21   -1    0    0  503  504 -0.00000000000E+00 -0.00000000000E+00 -0.15953725644E+03  0.15953725644E+03  0.00000000000E+00 0. -1.
         -6    2    1    2    0  504 -0.42699415327E+01 -0.57389882968E+02 -0.39955855534E+02  0.18651365195E+03  0.17285554925E+03 0.  0.
        -24    2    3    3    0    0  0.52561693286E+01 -0.40700572445E+02 -0.88995012561E+02  0.13363446138E+03  0.90850938870E+02 0.  0.
          6    2    1    2  502    0  0.42699415327E+01  0.57389882968E+02  0.13198177477E+03  0.22458678016E+03  0.17236067383E+03 0.  0.
         24    2    5    5    0    0 -0.38077091329E+01 -0.35311472115E+02  0.66421594264E+02  0.11066129161E+03  0.81072156524E+02 0.  0.
          4    1    6    6  501    0 -0.59544155298E+01  0.10396343331E+02 -0.13819641282E+02  0.18289929035E+02  0.00000000000E+00 0. -1.
         -3    1    6    6    0  501  0.21467063969E+01 -0.45707815445E+02  0.80241235546E+02  0.92371362570E+02  0.00000000000E+00 0.  1.
          5    1    5    5  502    0  0.80776506657E+01  0.92701355082E+02  0.65560180505E+02  0.11392548855E+03  0.47000000000E+01 0. -1.
         11    1    4    4    0    0 -0.42056254904E+02 -0.98822498402E+01 -0.37136720050E+02  0.56969495474E+02  0.00000000000E+00 0. -1.
        -12    1    4    4    0    0  0.47312424232E+02 -0.30818322605E+02 -0.51858292511E+02  0.76664965904E+02  0.00000000000E+00 0.  1.
         -5    1    3    3    0  504 -0.95261108614E+01 -0.16689310523E+02  0.49039157027E+02  0.52879190574E+02  0.47000000000E+01 0.  1.
<mgrwt>
<rscale>  2 0.18206614E+03</rscale>
<asrwt>0</asrwt>
<pdfrwt beam="1">  1       21 0.38702027E-01 0.18218362E+03</pdfrwt>
<pdfrwt beam="2">  1       21 0.24544193E-01 0.18218362E+03</pdfrwt>
<totfact> 0.10138634E+05</totfact>
</mgrwt>
</event>
<event>
12    1  0.2736842E-001  0.1942845E+03  0.7546771E-02  0.1154711E+00
         21   -1    0    0  502  503  0.00000000000E+00  0.00000000000E+00  0.16455366261E+04  0.16455366261E+04  0.00000000000E+00 0. -1.
         21   -1    0    0  503  504 -0.00000000000E+00 -0.00000000000E+00 -0.39264332273E+02  0.39264332273E+02  0.00000000000E+00 0. -1.
         -6    2    1    2    0  504  0.87288778768E+02 -0.91220380858E+01  0.25974251446E+03  0.32436496411E+03  0.17333180217E+03 0.  0.
        -24    2    3    3    0    0  0.72256507974E+02 -0.57559291722E+02  0.10687054874E+03  0.16323127859E+03  0.81786680541E+02 0.  0.
          6    2    1    2  502    0 -0.87288778768E+02  0.91220380858E+01  0.13465297793E+04  0.13604359942E+04  0.17303498288E+03 0.  0.
         24    2    5    5    0    0 -0.40931803227E+02 -0.28292850137E+02  0.12012528991E+04  0.12033490598E+04  0.50641230482E+02 0.  0.
          2    1    6    6  501    0 -0.92859009462E+01  0.12366921628E+02  0.48445639439E+03  0.48470317388E+03  0.00000000000E+00 0. -1.
         -1    1    6    6    0  501 -0.31645902280E+02 -0.40659771764E+02  0.71679650470E+03  0.71864588590E+03  0.00000000000E+00 0.  1.
          5    1    5    5  502    0 -0.46356975541E+02  0.37414888222E+02  0.14527688024E+03  0.15708693445E+03  0.47000000000E+01 0. -1.
         11    1    4    4    0    0  0.63777596325E+02 -0.33068994303E+02  0.11541062173E+03  0.13594392883E+03  0.00000000000E+00 0. -1.
        -12    1    4    4    0    0  0.84789116493E+01 -0.24490297419E+02 -0.85400729878E+01  0.27287349762E+02  0.00000000000E+00 0.  1.
         -5    1    3    3    0  504  0.15032270794E+02  0.48437253636E+02  0.15287196572E+03  0.16113368551E+03  0.47000000000E+01 0.  1.
<mgrwt>
<rscale>  2 0.19421825E+03</rscale>
<asrwt>0</asrwt>
<pdfrwt beam="1">  1       21 0.25315943E+00 0.19428447E+03</pdfrwt>
<pdfrwt beam="2">  1       21 0.60406678E-02 0.19428447E+03</pdfrwt>
<totfact> 0.12399273E+04</totfact>
</mgrwt>
</event>
<event>
12    1  0.2736842E-001  0.2396600E+03  0.7546771E-02  0.1120033E+00
         21   -1    0    0  502  503  0.00000000000E+00  0.00000000000E+00  0.38125891539E+03  0.38125891539E+03  0.00000000000E+00 0.  1.
         21   -1    0    0  503  504 -0.00000000000E+00 -0.00000000000E+00 -0.28071810591E+03  0.28071810591E+03  0.00000000000E+00 0.  1.
         -6    2    1    2    0  504 -0.18003318697E+02 -0.16492550221E+03 -0.17507940659E+03  0.29673267675E+03  0.17283790694E+03 0.  0.
        -24    2    3    3    0    0 -0.47741612432E+02 -0.11577693862E+03 -0.18549052569E+03  0.23816281403E+03  0.81432363297E+02 0.  0.
          6    2    1    2  502    0  0.18003318697E+02  0.16492550221E+03  0.27562021607E+03  0.36524434455E+03  0.17295197874E+03 0.  0.
         24    2    5    5    0    0  0.77554381624E+02  0.11430595024E+03  0.17113443518E+03  0.23467621464E+03  0.81886497332E+02 0.  0.
          2    1    6    6  501    0  0.23421410257E+02  0.27546786132E+02  0.99754915747E+00  0.36171577087E+02  0.00000000000E+00 0. -1.
         -1    1    6    6    0  501  0.54132971367E+02  0.86759164110E+02  0.17013688602E+03  0.19850463756E+03  0.00000000000E+00 0.  1.
          5    1    5    5  502    0 -0.59551062927E+02  0.50619551971E+02  0.10448578089E+03  0.13056812990E+03  0.47000000000E+01 0. -1.
         11    1    4    4    0    0  0.19821249180E+02 -0.17727775946E+02 -0.16027013193E+02  0.31048689360E+02  0.00000000000E+00 0. -1.
        -12    1    4    4    0    0 -0.67562861612E+02 -0.98049162671E+02 -0.16946351250E+03  0.20711412467E+03  0.00000000000E+00 0.  1.
         -5    1    3    3    0  504  0.29738293734E+02 -0.49148563596E+02  0.10411119104E+02  0.58569862718E+02  0.47000000000E+01 0.  1.
<mgrwt>
<rscale>  2 0.23963945E+03</rscale>
<asrwt>0</asrwt>
<pdfrwt beam="1">  1       21 0.58655217E-01 0.23966003E+03</pdfrwt>
<pdfrwt beam="2">  1       21 0.43187401E-01 0.23966003E+03</pdfrwt>
<totfact> 0.13630932E+04</totfact>
</mgrwt>
</event>
<event>
12    1  0.2736842E-001  0.3860260E+03  0.7546771E-02  0.1048955E+00
         21   -1    0    0  502  503  0.00000000000E+00  0.00000000000E+00  0.38992381039E+03  0.38992381039E+03  0.00000000000E+00 0.  1.
         21   -1    0    0  503  504 -0.00000000000E+00 -0.00000000000E+00 -0.14953890369E+04  0.14953890369E+04  0.00000000000E+00 0. -1.
         -6    2    1    2    0  504 -0.99242266802E+02  0.32858984934E+03 -0.13674156853E+04  0.14208595148E+04  0.17662329351E+03 0.  0.
        -24    2    3    3    0    0 -0.13372033206E+03  0.30542648490E+03 -0.11753940152E+04  0.12243405838E+04  0.79324078414E+02 0.  0.
          6    2    1    2  502    0  0.99242266802E+02 -0.32858984934E+03  0.26195045880E+03  0.46445333248E+03  0.17110972672E+03 0.  0.
         24    2    5    5    0    0  0.91000806884E+02 -0.26464554630E+03  0.27310741314E+03  0.39885330822E+03  0.78599556862E+02 0.  0.
          4    1    6    6  501    0  0.49664392375E+02 -0.14916368146E+03  0.20568407836E+03  0.25888664668E+03  0.00000000000E+00 0. -1.
         -3    1    6    6    0  501  0.41336414509E+02 -0.11548186484E+03  0.67423334774E+02  0.13996666154E+03  0.00000000000E+00 0.  1.
          5    1    5    5  502    0  0.82414599179E+01 -0.63944303040E+02 -0.11156954339E+02  0.65600024261E+02  0.47000000000E+01 0. -1.
         13    1    4    4    0    0 -0.85489095556E+02  0.17784512989E+03 -0.82661250751E+03  0.84983852187E+03  0.00000000000E+00 0. -1.
        -14    1    4    4    0    0 -0.48231236502E+02  0.12758135501E+03 -0.34878150764E+03  0.37450206193E+03  0.00000000000E+00 0.  1.
         -5    1    3    3    0  504  0.34478065257E+02  0.23163364436E+02 -0.19202167013E+03  0.19651893098E+03  0.47000000000E+01 0.  1.
<mgrwt>
<rscale>  2 0.38540169E+03</rscale>
<asrwt>0</asrwt>
<pdfrwt beam="1">  1       21 0.59988278E-01 0.38602604E+03</pdfrwt>
<pdfrwt beam="2">  1       21 0.23005985E+00 0.38602604E+03</pdfrwt>
<totfact> 0.18839733E+02</totfact>
</mgrwt>
</event>
<event>
12    1  0.2736842E-001  0.1895504E+03  0.7546771E-02  0.1159873E+00
         21   -1    0    0  502  503  0.00000000000E+00  0.00000000000E+00  0.54338636118E+03  0.54338636118E+03  0.00000000000E+00 0.  1.
         21   -1    0    0  503  504 -0.00000000000E+00 -0.00000000000E+00 -0.38073009613E+03  0.38073009613E+03  0.00000000000E+00 0.  1.
         -6    2    1    2    0  504 -0.10441504442E+02 -0.75492752855E+02 -0.33954363906E+03  0.38886916865E+03  0.17355450657E+03 0.  0.
        -24    2    3    3    0    0  0.39790070694E+01  0.16275067666E+02 -0.84201924131E+02  0.11711419552E+03  0.79655887672E+02 0.  0.
          6    2    1    2  502    0  0.10441504442E+02  0.75492752855E+02  0.50219990411E+03  0.53524728865E+03  0.16875051281E+03 0.  0.
         24    2    5    5    0    0  0.37858149663E+02  0.25429295572E+02  0.44207299142E+03  0.45220899736E+03  0.83573674012E+02 0.  0.
          2    1    6    6  501    0  0.35326966696E+01 -0.26664236858E+02  0.21662857027E+03  0.21829200382E+03  0.00000000000E+00 0. -1.
         -1    1    6    6    0  501  0.34325452993E+02  0.52093532430E+02  0.22544442115E+03  0.23391699355E+03  0.00000000000E+00 0.  1.
          5    1    5    5  502    0 -0.27416645221E+02  0.50063457283E+02  0.60126912693E+02  0.83038291290E+02  0.47000000000E+01 0. -1.
         11    1    4    4    0    0 -0.24068780798E+02  0.33434087168E+02 -0.21869933289E+02  0.46641594912E+02  0.00000000000E+00 0. -1.
        -12    1    4    4    0    0  0.28047787867E+02 -0.17159019502E+02 -0.62331990842E+02  0.70472600611E+02  0.00000000000E+00 0.  1.
         -5    1    3    3    0  504 -0.14420511511E+02 -0.91767820521E+02 -0.25534171493E+03  0.27175497313E+03  0.47000000000E+01 0.  1.
<mgrwt>
<rscale>  2 0.18844360E+03</rscale>
<asrwt>0</asrwt>
<pdfrwt beam="1">  1       21 0.83597902E-01 0.18955038E+03</pdfrwt>
<pdfrwt beam="2">  1       21 0.58573861E-01 0.18955038E+03</pdfrwt>
<totfact> 0.34046757E+03</totfact>
</mgrwt>
</event>
<event>
12    1  0.2736842E-001  0.1922869E+03  0.7546771E-02  0.1156574E+00
         21   -1    0    0  502  503  0.00000000000E+00  0.00000000000E+00  0.20621899584E+03  0.20621899584E+03  0.00000000000E+00 0.  1.
         21   -1    0    0  503  504 -0.00000000000E+00 -0.00000000000E+00 -0.17912778889E+03  0.17912778889E+03  0.00000000000E+00 0.  1.
         -6    2    1    2    0  504  0.42184270823E+02 -0.71401636251E+02  0.23686448953E+02  0.19302971897E+03  0.17268965857E+03 0.  0.
        -24    2    3    3    0    0  0.18452020555E+02 -0.56938778593E+02 -0.48357569858E+02  0.11566807084E+03  0.86360560902E+02 0.  0.
          6    2    1    2  502    0 -0.42184270823E+02  0.71401636251E+02  0.34047579983E+01  0.19231706576E+03  0.17348358724E+03 0.  0.
         24    2    5    5    0    0 -0.34179658853E+02  0.90442771202E+02  0.49644382247E+02  0.14145616247E+03  0.90538043212E+02 0.  0.
          2    1    6    6  501    0 -0.21271688750E+01  0.48531218070E+02  0.69744059388E+02  0.84994339781E+02  0.00000000000E+00 0. -1.
         -1    1    6    6    0  501 -0.32052489978E+02  0.41911553132E+02 -0.20099677141E+02  0.56461822685E+02  0.00000000000E+00 0.  1.
          5    1    5    5  502    0 -0.80046119699E+01 -0.19041134952E+02 -0.46239624249E+02  0.50860903292E+02  0.47000000000E+01 0. -1.
         11    1    4    4    0    0  0.45276329932E+02 -0.49612858676E+01 -0.13189677655E+02  0.47418646187E+02  0.00000000000E+00 0. -1.
        -12    1    4    4    0    0 -0.26824309377E+02 -0.51977492725E+02 -0.35167892203E+02  0.68249424654E+02  0.00000000000E+00 0.  1.
         -5    1    3    3    0  504  0.23732250268E+02 -0.14462857658E+02  0.72044018812E+02  0.77361648127E+02  0.47000000000E+01 0.  1.
<mgrwt>
<rscale>  2 0.19210768E+03</rscale>
<asrwt>0</asrwt>
<pdfrwt beam="1">  1       21 0.31725999E-01 0.19228692E+03</pdfrwt>
<pdfrwt beam="2">  1       21 0.27558121E-01 0.19228692E+03</pdfrwt>
<totfact> 0.12003366E+05</totfact>
</mgrwt>
</event>
<event>
12    1  0.2736842E-001  0.2305650E+03  0.7546771E-02  0.1127534E+00
         21   -1    0    0  502  503  0.00000000000E+00  0.00000000000E+00  0.29636545636E+02  0.29636545636E+02  0.00000000000E+00 0. -1.
         21   -1    0    0  503  504 -0.00000000000E+00 -0.00000000000E+00 -0.18950824768E+04  0.18950824768E+04  0.00000000000E+00 0.  1.
         -6    2    1    2    0  504  0.76100320621E+02 -0.13309144556E+03 -0.11962309372E+04  0.12168991944E+04  0.16239027841E+03 0.  0.
        -24    2    3    3    0    0  0.80441928129E+02 -0.44298642998E+02 -0.87500869047E+03  0.88356927804E+03  0.81370677308E+02 0.  0.
          6    2    1    2  502    0 -0.76100320621E+02  0.13309144556E+03 -0.66921499400E+03  0.70781982808E+03  0.17220804031E+03 0.  0.
         24    2    5    5    0    0 -0.72523544899E+02  0.14506394906E+03 -0.67038639502E+03  0.69441847199E+03  0.80597033034E+02 0.  0.
          2    1    6    6  501    0 -0.47041031982E+01  0.22570853985E+02 -0.25560416098E+03  0.25664188891E+03  0.00000000000E+00 0. -1.
         -1    1    6    6    0  501 -0.67819441700E+02  0.12249309508E+03 -0.41478223404E+03  0.43777658307E+03  0.00000000000E+00 0.  1.
          5    1    5    5  502    0 -0.35767757226E+01 -0.11972503504E+02  0.11714010159E+01  0.13401356090E+02  0.47000000000E+01 0. -1.
         13    1    4    4    0    0  0.32735901579E+02 -0.57479878991E+02 -0.34719610634E+03  0.35344124264E+03  0.00000000000E+00 0. -1.
        -14    1    4    4    0    0  0.47706026550E+02  0.13181235993E+02 -0.52781258413E+03  0.53012803540E+03  0.00000000000E+00 0.  1.
         -5    1    3    3    0  504 -0.43416075075E+01 -0.88792802558E+02 -0.32122224674E+03  0.33332991636E+03  0.47000000000E+01 0.  1.
<mgrwt>
<rscale>  2 0.22873391E+03</rscale>
<asrwt>0</asrwt>
<pdfrwt beam="1">  1       21 0.45594682E-02 0.23056496E+03</pdfrwt>
<pdfrwt beam="2">  1       21 0.29155117E+00 0.23056496E+03</pdfrwt>
<totfact> 0.11570783E+04</totfact>
</mgrwt>
</event>
<event>
12    1  0.2736842E-001  0.2167794E+03  0.7546771E-02  0.1136333E+00
         21   -1    0    0  502  503  0.00000000000E+00  0.00000000000E+00  0.11093221942E+03  0.11093221942E+03  0.00000000000E+00 0.  1.
         21   -1    0    0  503  504 -0.00000000000E+00 -0.00000000000E+00 -0.44978112849E+03  0.44978112849E+03  0.00000000000E+00 0. -1.
         -6    2    1    2    0  504  0.55855216263E+02  0.11887193939E+03 -0.23733161506E+03  0.32134106349E+03  0.17228882849E+03 0.  0.
        -24    2    3    3    0    0  0.86895336461E+02  0.12877845372E+03 -0.22638927240E+03  0.28665024409E+03  0.82350289248E+02 0.  0.
          6    2    1    2  502    0 -0.55855216263E+02 -0.11887193939E+03 -0.10151729401E+03  0.23937228441E+03  0.17246155051E+03 0.  0.
         24    2    5    5    0    0 -0.60724032114E+02 -0.59118589387E+01 -0.68051401210E+02  0.12136490700E+03  0.79850418228E+02 0.  0.
          2    1    6    6  501    0 -0.57428181282E+02 -0.37511734904E+02 -0.49302548269E+02  0.84474064225E+02  0.00000000000E+00 0. -1.
         -1    1    6    6    0  501 -0.32958508317E+01  0.31599875966E+02 -0.18748852940E+02  0.36890842770E+02  0.00000000000E+00 0.  1.
          5    1    5    5  502    0  0.48688158506E+01 -0.11296008045E+03 -0.33465892803E+02  0.11800737742E+03  0.47000000000E+01 0. -1.
         11    1    4    4    0    0  0.76990394966E+02  0.72020422421E+02 -0.19337467788E+03  0.22024583585E+03  0.00000000000E+00 0. -1.
        -12    1    4    4    0    0  0.99049414957E+01  0.56758031298E+02 -0.33014594515E+02  0.66404408241E+02  0.00000000000E+00 0.  1.
         -5    1    3    3    0  504 -0.31040120198E+02 -0.99065143263E+01 -0.10942342663E+02  0.34690819405E+02  0.47000000000E+01 0.  1.
<mgrwt>
<rscale>  2 0.21674509E+03</rscale>
<asrwt>0</asrwt>
<pdfrwt beam="1">  1       21 0.17066495E-01 0.21677945E+03</pdfrwt>
<pdfrwt beam="2">  1       21 0.69197097E-01 0.21677945E+03</pdfrwt>
<totfact> 0.58210379E+04</totfact>
</mgrwt>
</event>
<event>
12    1  0.2736842E-001  0.2396905E+03  0.7546771E-02  0.1120026E+00
         21   -1    0    0  502  503  0.00000000000E+00  0.00000000000E+00  0.20486843543E+04  0.20486843543E+04  0.00000000000E+00 0. -1.
         21   -1    0    0  503  504 -0.00000000000E+00 -0.00000000000E+00 -0.28079065207E+02  0.28079065207E+02  0.00000000000E+00 0.  1.
         -6    2    1    2    0  504 -0.15253151100E+03 -0.63007751993E+02  0.96413260140E+03  0.99344163606E+03  0.17360522032E+03 0.  0.
        -24    2    3    3    0    0 -0.94825375878E+02 -0.76451902980E+02  0.86701634155E+03  0.87958031184E+03  0.84305652741E+02 0.  0.
          6    2    1    2  502    0  0.15253151100E+03  0.63007751993E+02  0.10564726877E+04  0.10833217834E+04  0.17382666074E+03 0.  0.
         24    2    5    5    0    0  0.17335521676E+03  0.22595819297E+02  0.81077189248E+03  0.83340635416E+03  0.81562781286E+02 0.  0.
          4    1    6    6  501    0  0.11600496523E+03 -0.53714890552E+01  0.65256001538E+03  0.66281262701E+03  0.00000000000E+00 0. -1.
         -3    1    6    6    0  501  0.57350251531E+02  0.27967308353E+02  0.15821187710E+03  0.17059372715E+03  0.00000000000E+00 0.  1.
          5    1    5    5  502    0 -0.20823705759E+02  0.40411932696E+02  0.24570079521E+03  0.24991542928E+03  0.47000000000E+01 0. -1.
         13    1    4    4    0    0 -0.89672372757E+02 -0.21752153729E+02  0.58945642764E+03  0.59663487219E+03  0.00000000000E+00 0. -1.
        -14    1    4    4    0    0 -0.51530031204E+01 -0.54699749251E+02  0.27755991390E+03  0.28294543964E+03  0.00000000000E+00 0.  1.
         -5    1    3    3    0  504 -0.57706135122E+02  0.13444150987E+02  0.97116259852E+02  0.11386132422E+03  0.47000000000E+01 0.  1.
<mgrwt>
<rscale>  2 0.23965038E+03</rscale>
<asrwt>0</asrwt>
<pdfrwt beam="1">  1       21 0.31518209E+00 0.23969052E+03</pdfrwt>
<pdfrwt beam="2">  1       21 0.43198578E-02 0.23969052E+03</pdfrwt>
<totfact> 0.91597535E+03</totfact>
</mgrwt>
</event>
<event>
12    1  0.2736842E-001  0.1750222E+03  0.7546771E-02  0.1173035E+00
         21   -1    0    0  502  503  0.00000000000E+00  0.00000000000E+00  0.78269506739E+02  0.78269506739E+02  0.00000000000E+00 0.  1.
         21   -1    0    0  503  504 -0.00000000000E+00 -0.00000000000E+00 -0.12536763134E+04  0.12536763134E+04  0.00000000000E+00 0.  1.
         -6    2    1    2    0  504  0.23152892483E+02  0.99137909326E+01 -0.11416226870E+04  0.11549610904E+04  0.17320052360E+03 0.  0.
        -24    2    3    3    0    0 -0.42512916370E+02 -0.26967357534E+02 -0.50841954508E+03  0.51727737068E+03  0.80937370654E+02 0.  0.
          6    2    1    2  502    0 -0.23152892483E+02 -0.99137909326E+01 -0.33784119707E+02  0.17698472970E+03  0.17189499156E+03 0.  0.
         24    2    5    5    0    0 -0.37632759283E+02  0.31588579427E+01  0.42665354505E+02  0.97945671013E+02  0.79666925637E+02 0.  0.
          4    1    6    6  501    0  0.55408874482E+01  0.25885961642E+02  0.41398777687E+02  0.49139019504E+02  0.00000000000E+00 0. -1.
         -3    1    6    6    0  501 -0.43173646732E+02 -0.22727103700E+02  0.12665768181E+01  0.48806651509E+02  0.00000000000E+00 0.  1.
          5    1    5    5  502    0  0.14479866801E+02 -0.13072648875E+02 -0.76449474211E+02  0.79039058688E+02  0.47000000000E+01 0. -1.
         13    1    4    4    0    0  0.96623500970E+01 -0.22575526540E+00 -0.58457056265E+01  0.11295319788E+02  0.00000000000E+00 0. -1.
        -14    1    4    4    0    0 -0.52175266467E+02 -0.26741602268E+02 -0.50257383945E+03  0.50598205089E+03  0.00000000000E+00 0.  1.
         -5    1    3    3    0  504  0.65665808852E+02  0.36881148466E+02 -0.63320314188E+03  0.63768371976E+03  0.47000000000E+01 0.  1.
<mgrwt>
<rscale>  2 0.17469831E+03</rscale>
<asrwt>0</asrwt>
<pdfrwt beam="1">  1       21 0.12041462E-01 0.17502217E+03</pdfrwt>
<pdfrwt beam="2">  1       21 0.19287329E+00 0.17502217E+03</pdfrwt>
<totfact> 0.88443560E+03</totfact>
</mgrwt>
</event>
<event>
12    1  0.2736842E-001  0.2006221E+03  0.7546771E-02  0.1149393E+00
         21   -1    0    0  502  503  0.00000000000E+00  0.00000000000E+00  0.20961238555E+04  0.20961238555E+04  0.00000000000E+00 0.  1.
         21   -1    0    0  503  504 -0.00000000000E+00 -0.00000000000E+00 -0.39408521353E+02  0.39408521353E+02  0.00000000000E+00 0.  1.
         -6    2    1    2    0  504 -0.90569048926E+02  0.36466494311E+02  0.26329370239E+03  0.33101782180E+03  0.17526170944E+03 0.  0.
        -24    2    3    3    0    0  0.20569926229E+02  0.23495649046E+02  0.88471858862E+02  0.12340067029E+03  0.80157895606E+02 0.  0.
          6    2    1    2  502    0  0.90569048926E+02 -0.36466494311E+02  0.17934216318E+04  0.18045145551E+04  0.17429593322E+03 0.  0.
         24    2    5    5    0    0  0.10828809406E+03 -0.52674094639E+02  0.17364609954E+04  0.17425205638E+04  0.81118770090E+02 0.  0.
          4    1    6    6  501    0  0.47797955362E+02 -0.31841547961E+02  0.13128515525E+04  0.13141071979E+04  0.00000000000E+00 0. -1.
         -3    1    6    6    0  501  0.60490138695E+02 -0.20832546679E+02  0.42360944291E+03  0.42841336581E+03  0.00000000000E+00 0.  1.
          5    1    5    5  502    0 -0.17719045131E+02  0.16207600329E+02  0.56960636363E+02  0.61993991351E+02  0.47000000000E+01 0. -1.
         11    1    4    4    0    0  0.10228331963E+02 -0.11015455877E+02  0.85983478124E+02  0.87287556691E+02  0.00000000000E+00 0. -1.
        -12    1    4    4    0    0  0.10341594266E+02  0.34511104923E+02  0.24883807380E+01  0.36113113597E+02  0.00000000000E+00 0.  1.
         -5    1    3    3    0  504 -0.11113897515E+03  0.12970845264E+02  0.17482184353E+03  0.20761715151E+03  0.47000000000E+01 0.  1.
<mgrwt>
<rscale>  2 0.20041098E+03</rscale>
<asrwt>0</asrwt>
<pdfrwt beam="1">  1       21 0.32248051E+00 0.20062209E+03</pdfrwt>
<pdfrwt beam="2">  1       21 0.60628511E-02 0.20062209E+03</pdfrwt>
<totfact> 0.48581858E+03</totfact>
</mgrwt>
</event>
<event>
12    1  0.2736842E-001  0.2324266E+03  0.7546771E-02  0.1125588E+00
         21   -1    0    0  502  503  0.00000000000E+00  0.00000000000E+00  0.30230177727E+03  0.30230177727E+03  0.00000000000E+00 0.  1.
         21   -1    0    0  503  504 -0.00000000000E+00 -0.00000000000E+00 -0.17882288113E+03  0.17882288113E+03  0.00000000000E+00 0.  1.
         -6    2    1    2    0  504  0.21812360277E+02  0.14890686062E+03  0.31377842689E+02  0.23453509566E+03  0.17712456036E+03 0.  0.
        -24    2    3    3    0    0  0.64616693195E+02  0.35148615936E+02  0.51266404753E+00  0.10904446492E+03  0.80496523303E+02 0.  0.
          6    2    1    2  502    0 -0.21812360277E+02 -0.14890686062E+03  0.92101053457E+02  0.24658956273E+03  0.17226368218E+03 0.  0.
         24    2    5    5    0    0  0.34299310251E+02 -0.28248336363E+02  0.59830870484E+02  0.10958425716E+03  0.80340308460E+02 0.  0.
          4    1    6    6  501    0  0.48547559713E+02  0.88170307404E+01  0.46215486312E+02  0.67605301273E+02  0.00000000000E+00 0. -1.
         -3    1    6    6    0  501 -0.14248249461E+02 -0.37065367103E+02  0.13615384172E+02  0.41978955887E+02  0.00000000000E+00 0.  1.
          5    1    5    5  502    0 -0.56111670528E+02 -0.12065852426E+03  0.32270182973E+02  0.13700530557E+03  0.47000000000E+01 0. -1.
         13    1    4    4    0    0  0.49639374725E+02  0.39244291478E+02 -0.33540721835E+02  0.71618167792E+02  0.00000000000E+00 0. -1.
        -14    1    4    4    0    0  0.14977318470E+02 -0.40956755422E+01  0.34053385883E+02  0.37426297129E+02  0.00000000000E+00 0.  1.
         -5    1    3    3    0  504 -0.42804332918E+02  0.11375824469E+03  0.30865178641E+02  0.12549063074E+03  0.47000000000E+01 0.  1.
<mgrwt>
<rscale>  2 0.23150045E+03</rscale>
<asrwt>0</asrwt>
<pdfrwt beam="1">  1       21 0.46507966E-01 0.23242664E+03</pdfrwt>
<pdfrwt beam="2">  1       21 0.27511213E-01 0.23242664E+03</pdfrwt>
<totfact> 0.54820706E+04</totfact>
</mgrwt>
</event>
<event>
12    1  0.2736842E-001  0.2032471E+03  0.7546771E-02  0.1147076E+00
         21   -1    0    0  502  503  0.00000000000E+00  0.00000000000E+00  0.26910723517E+03  0.26910723517E+03  0.00000000000E+00 0.  1.
         21   -1    0    0  503  504 -0.00000000000E+00 -0.00000000000E+00 -0.17273421043E+03  0.17273421043E+03  0.00000000000E+00 0.  1.
         -6    2    1    2    0  504  0.10019090719E+03  0.32877847682E+02 -0.25837353261E+02  0.20488278038E+03  0.17375331398E+03 0.  0.
        -24    2    3    3    0    0  0.51290905701E+02  0.70931343337E+02 -0.56697298734E+02  0.13550191189E+03  0.86511108928E+02 0.  0.
          6    2    1    2  502    0 -0.10019090719E+03 -0.32877847682E+02  0.12221037800E+03  0.23695866522E+03  0.17347870699E+03 0.  0.
         24    2    5    5    0    0 -0.75037593433E+02  0.39205760159E+02  0.10104673236E+03  0.15759415420E+03  0.86358226364E+02 0.  0.
          2    1    6    6  501    0  0.16956428781E+02  0.16091207104E+02  0.34701448610E+02  0.41840625697E+02  0.00000000000E+00 0. -1.
         -1    1    6    6    0  501 -0.91994022214E+02  0.23114553055E+02  0.66345283746E+02  0.11575352850E+03  0.00000000000E+00 0.  1.
          5    1    5    5  502    0 -0.25153313760E+02 -0.72083607841E+02  0.21163645648E+02  0.79364511021E+02  0.47000000000E+01 0. -1.
         11    1    4    4    0    0  0.42067489968E+02  0.25710676614E+02  0.13839864538E+02  0.51207953041E+02  0.00000000000E+00 0. -1.
        -12    1    4    4    0    0  0.92234157326E+01  0.45220666723E+02 -0.70537163272E+02  0.84293958853E+02  0.00000000000E+00 0.  1.
         -5    1    3    3    0  504  0.48900001492E+02 -0.38053495654E+02  0.30859945473E+02  0.69380868487E+02  0.47000000000E+01 0.  1.
<mgrwt>
<rscale>  2 0.20318840E+03</rscale>
<asrwt>0</asrwt>
<pdfrwt beam="1">  1       21 0.41401113E-01 0.20324710E+03</pdfrwt>
<pdfrwt beam="2">  1       21 0.26574494E-01 0.20324710E+03</pdfrwt>
<totfact> 0.75348131E+04</totfact>
</mgrwt>
</event>
<event>
12    1  0.2736842E-001  0.1753367E+03  0.7546771E-02  0.1172440E+00
         21   -1    0    0  502  503  0.00000000000E+00  0.00000000000E+00  0.34851203821E+02  0.34851203821E+02  0.00000000000E+00 0.  1.
         21   -1    0    0  503  504 -0.00000000000E+00 -0.00000000000E+00 -0.88790828256E+03  0.88790828256E+03  0.00000000000E+00 0.  1.
         -6    2    1    2    0  504  0.25894250771E+02  0.63595378714E+01 -0.46640248965E+03  0.49820711903E+03  0.17311295491E+03 0.  0.
        -24    2    3    3    0    0 -0.20017494683E+02 -0.16846732046E+02 -0.11183622344E+03  0.13989755110E+03  0.79871593557E+02 0.  0.
          6    2    1    2  502    0 -0.25894250771E+02 -0.63595378714E+01 -0.38665458909E+03  0.42455236735E+03  0.17329739010E+03 0.  0.
         24    2    5    5    0    0  0.19853170221E+02  0.54395426572E+02 -0.23159579807E+03  0.25178283617E+03  0.80031069632E+02 0.  0.
          2    1    6    6  501    0 -0.25309543501E+02  0.36759140431E+02 -0.15353994679E+03  0.15989472367E+03  0.00000000000E+00 0. -1.
         -1    1    6    6    0  501  0.45162713723E+02  0.17636286141E+02 -0.78055851280E+02  0.91888112499E+02  0.00000000000E+00 0.  1.
          5    1    5    5  502    0 -0.45747420993E+02 -0.60754964444E+02 -0.15505879102E+03  0.17276953118E+03  0.47000000000E+01 0. -1.
         13    1    4    4    0    0 -0.79925392060E+01  0.28872283091E+02 -0.72332374617E+02  0.78290879619E+02  0.00000000000E+00 0. -1.
        -14    1    4    4    0    0 -0.12024955477E+02 -0.45719015138E+02 -0.39503848819E+02  0.61606671480E+02  0.00000000000E+00 0.  1.
         -5    1    3    3    0  504  0.45911745454E+02  0.23206269918E+02 -0.35456626621E+03  0.35830956793E+03  0.47000000000E+01 0.  1.
<mgrwt>
<rscale>  2 0.17529106E+03</rscale>
<asrwt>0</asrwt>
<pdfrwt beam="1">  1       21 0.53617234E-02 0.17533665E+03</pdfrwt>
<pdfrwt beam="2">  1       21 0.13660128E+00 0.17533665E+03</pdfrwt>
<totfact> 0.91815236E+04</totfact>
</mgrwt>
</event>
<event>
12    1  0.2736842E-001  0.1806649E+03  0.7546771E-02  0.1167547E+00
         21   -1    0    0  502  503  0.00000000000E+00  0.00000000000E+00  0.46289828010E+03  0.46289828010E+03  0.00000000000E+00 0.  1.
         21   -1    0    0  503  504 -0.00000000000E+00 -0.00000000000E+00 -0.18099393242E+03  0.18099393242E+03  0.00000000000E+00 0.  1.
         -6    2    1    2    0  504 -0.23789071430E+01 -0.47318847670E+02 -0.11104560544E+03  0.21206352218E+03  0.17434184353E+03 0.  0.
        -24    2    3    3    0    0 -0.56524325643E+02 -0.57061615718E+02 -0.10833804532E+03  0.15678180046E+03  0.79952320260E+02 0.  0.
          6    2    1    2  502    0  0.23789071430E+01  0.47318847670E+02  0.39294995313E+03  0.43182869034E+03  0.17268937314E+03 0.  0.
         24    2    5    5    0    0  0.54990786038E+02  0.67617308669E+02  0.30366381974E+03  0.32612088109E+03  0.80913699016E+02 0.  0.
          4    1    6    6  501    0  0.64247971099E+02  0.77756603852E+02  0.28869928676E+03  0.30581231076E+03  0.00000000000E+00 0. -1.
         -3    1    6    6    0  501 -0.92571850614E+01 -0.10139295183E+02  0.14964532974E+02  0.20308570338E+02  0.00000000000E+00 0.  1.
          5    1    5    5  502    0 -0.52611878895E+02 -0.20298460998E+02  0.89286133393E+02  0.10570780925E+03  0.47000000000E+01 0. -1.
         13    1    4    4    0    0 -0.17433320557E+02 -0.17585574984E+02  0.94857522841E+01  0.26517024900E+02  0.00000000000E+00 0. -1.
        -14    1    4    4    0    0 -0.39091005086E+02 -0.39476040735E+02 -0.11782379760E+03  0.13026477556E+03  0.00000000000E+00 0.  1.
         -5    1    3    3    0  504  0.54145418500E+02  0.97427680478E+01 -0.27075601240E+01  0.55281721714E+02  0.47000000000E+01 0.  1.
<mgrwt>
<rscale>  2 0.18026506E+03</rscale>
<asrwt>0</asrwt>
<pdfrwt beam="1">  1       21 0.71215120E-01 0.18066491E+03</pdfrwt>
<pdfrwt beam="2">  1       21 0.27845220E-01 0.18066491E+03</pdfrwt>
<totfact> 0.22122439E+04</totfact>
</mgrwt>
</event>
<event>
12    1  0.2736842E-001  0.1815606E+03  0.7546771E-02  0.1166725E+00
         21   -1    0    0  502  503  0.00000000000E+00  0.00000000000E+00  0.15157036490E+04  0.15157036490E+04  0.00000000000E+00 0. -1.
         21   -1    0    0  503  504 -0.00000000000E+00 -0.00000000000E+00 -0.38510903267E+02  0.38510903267E+02  0.00000000000E+00 0. -1.
         -6    2    1    2    0  504 -0.10871896531E+02 -0.46012808155E+02  0.22068176903E+03  0.28465397035E+03  0.17347064018E+03 0.  0.
        -24    2    3    3    0    0  0.83980674688E+01  0.31684265244E+02  0.64074232967E+02  0.10871029448E+03  0.81473925853E+02 0.  0.
          6    2    1    2  502    0  0.10871896531E+02  0.46012808155E+02  0.12565109767E+04  0.12695605819E+04  0.17529649152E+03 0.  0.
         24    2    5    5    0    0  0.52336804330E+02  0.17253760783E+02  0.40320078458E+03  0.41474668676E+03  0.80044413543E+02 0.  0.
          4    1    6    6  501    0 -0.21018372412E+02  0.70154147121E+01  0.11949891574E+03  0.12153591603E+03  0.00000000000E+00 0. -1.
         -3    1    6    6    0  501  0.73355176742E+02  0.10238346070E+02  0.28370186885E+03  0.29321077073E+03  0.00000000000E+00 0.  1.
          5    1    5    5  502    0 -0.41464907799E+02  0.28759047372E+02  0.85331019213E+03  0.85481389517E+03  0.47000000000E+01 0. -1.
         13    1    4    4    0    0  0.11043937135E+02 -0.25176955403E+02  0.75952365251E+01  0.28522539310E+02  0.00000000000E+00 0. -1.
        -14    1    4    4    0    0 -0.26458696661E+01  0.56861220647E+02  0.56478996442E+02  0.80187755168E+02  0.00000000000E+00 0.  1.
         -5    1    3    3    0  504 -0.19269963999E+02 -0.77697073399E+02  0.15660753606E+03  0.17594367587E+03  0.47000000000E+01 0.  1.
<mgrwt>
<rscale>  2 0.18111839E+03</rscale>
<asrwt>0</asrwt>
<pdfrwt beam="1">  1       21 0.23318513E+00 0.18156056E+03</pdfrwt>
<pdfrwt beam="2">  1       21 0.59247555E-02 0.18156056E+03</pdfrwt>
<totfact> 0.17022593E+04</totfact>
</mgrwt>
</event>
<event>
12    1  0.2736842E-001  0.2121402E+03  0.7546771E-02  0.1140138E+00
         21   -1    0    0  502  503  0.00000000000E+00  0.00000000000E+00  0.36138761374E+03  0.36138761374E+03  0.00000000000E+00 0.  1.
         21   -1    0    0  503  504 -0.00000000000E+00 -0.00000000000E+00 -0.12425179081E+03  0.12425179081E+03  0.00000000000E+00 0.  1.
         -6    2    1    2    0  504  0.79284597669E+02 -0.91836785230E+02  0.13412600066E+03  0.25098458018E+03  0.17402135756E+03 0.  0.
        -24    2    3    3    0    0  0.63987976384E+02 -0.13090828796E+03  0.86350286420E+02  0.18722583318E+03  0.79785334927E+02 0.  0.
          6    2    1    2  502    0 -0.79284597669E+02  0.91836785230E+02  0.10300982226E+03  0.23465482437E+03  0.17242917551E+03 0.  0.
         24    2    5    5    0    0 -0.45173916595E+02  0.86188145386E+02 -0.22150501987E+01  0.12379541123E+03  0.76493909886E+02 0.  0.
          2    1    6    6  501    0 -0.64313308182E+02  0.63900597394E+02  0.11474593344E+02  0.91384649964E+02  0.00000000000E+00 0. -1.
         -1    1    6    6    0  501  0.19139391587E+02  0.22287547993E+02 -0.13689643543E+02  0.32410761271E+02  0.00000000000E+00 0.  1.
          5    1    5    5  502    0 -0.34110681074E+02  0.56486398439E+01  0.10522487246E+03  0.11085941313E+03  0.47000000000E+01 0. -1.
         11    1    4    4    0    0  0.48752252384E+02 -0.24127896896E+02  0.10593272421E+02  0.55418001964E+02  0.00000000000E+00 0. -1.
        -12    1    4    4    0    0  0.15235724000E+02 -0.10678039106E+03  0.75757014000E+02  0.13180783122E+03  0.00000000000E+00 0.  1.
         -5    1    3    3    0  504  0.15296621285E+02  0.39071502725E+02  0.47775714241E+02  0.63758747001E+02  0.47000000000E+01 0.  1.
<mgrwt>
<rscale>  2 0.21181344E+03</rscale>
<asrwt>0</asrwt>
<pdfrwt beam="1">  1       21 0.55598094E-01 0.21214023E+03</pdfrwt>
<pdfrwt beam="2">  1       21 0.19115660E-01 0.21214023E+03</pdfrwt>
<totfact> 0.75914203E+04</totfact>
</mgrwt>
</event>
<event>
12    1  0.2736842E-001  0.1913918E+03  0.7546771E-02  0.1157528E+00
         21   -1    0    0  502  503  0.00000000000E+00  0.00000000000E+00  0.88329342655E+02  0.88329342655E+02  0.00000000000E+00 0. -1.
         21   -1    0    0  503  504 -0.00000000000E+00 -0.00000000000E+00 -0.57434836054E+03  0.57434836054E+03  0.00000000000E+00 0. -1.
         -6    2    1    2    0  504  0.50995867359E+02 -0.61619035452E+02 -0.66024608389E+02  0.20113018158E+03  0.17232706407E+03 0.  0.
        -24    2    3    3    0    0  0.96676742564E+02 -0.69960416051E+02 -0.50096331674E+02  0.15181364288E+03  0.79352929068E+02 0.  0.
          6    2    1    2  502    0 -0.50995867359E+02  0.61619035452E+02 -0.41999440949E+03  0.46154752161E+03  0.17387733229E+03 0.  0.
         24    2    5    5    0    0 -0.75481191031E+02  0.61075978701E+01 -0.15601651508E+03  0.19064630434E+03  0.79184262525E+02 0.  0.
          4    1    6    6  501    0 -0.20272941245E+02  0.38711043399E+02 -0.80383846400E+02  0.91493714483E+02  0.00000000000E+00 0. -1.
         -3    1    6    6    0  501 -0.55208249786E+02 -0.32603445529E+02 -0.75632668677E+02  0.99152589860E+02  0.00000000000E+00 0.  1.
          5    1    5    5  502    0  0.24485323672E+02  0.55511437582E+02 -0.26397789442E+03  0.27090121727E+03  0.47000000000E+01 0. -1.
         13    1    4    4    0    0 -0.32445128615E+01 -0.36805911542E+02 -0.21383755443E+02  0.42690361734E+02  0.00000000000E+00 0. -1.
        -14    1    4    4    0    0  0.99921255425E+02 -0.33154504509E+02 -0.28712576231E+02  0.10912328115E+03  0.00000000000E+00 0.  1.
         -5    1    3    3    0  504 -0.45680875205E+02  0.83413805994E+01 -0.15928276715E+02  0.49316538695E+02  0.47000000000E+01 0.  1.
<mgrwt>
<rscale>  2 0.19103897E+03</rscale>
<asrwt>0</asrwt>
<pdfrwt beam="1">  1       21 0.13589130E-01 0.19139177E+03</pdfrwt>
<pdfrwt beam="2">  1       21 0.88361282E-01 0.19139177E+03</pdfrwt>
<totfact> 0.51470474E+04</totfact>
</mgrwt>
</event>
<event>
12    1  0.2736842E-001  0.2340260E+03  0.7546771E-02  0.1123891E+00
         21   -1    0    0  502  503  0.00000000000E+00  0.00000000000E+00  0.46867677330E+03  0.46867677330E+03  0.00000000000E+00 0.  1.
         21   -1    0    0  503  504 -0.00000000000E+00 -0.00000000000E+00 -0.13366394018E+03  0.13366394018E+03  0.00000000000E+00 0. -1.
         -6    2    1    2    0  504  0.40627640290E+01 -0.15742586308E+03  0.27469280057E+03  0.36066601509E+03  0.17269751397E+03 0.  0.
        -24    2    3    3    0    0 -0.36186443691E+02 -0.54523870717E+02  0.60392775939E+02  0.11951168833E+03  0.79708500654E+02 0.  0.
          6    2    1    2  502    0 -0.40627640290E+01  0.15742586308E+03  0.60320032547E+02  0.24167469839E+03  0.17311483210E+03 0.  0.
         24    2    5    5    0    0 -0.67725863373E+02  0.92748068538E+02  0.55529367013E+02  0.15067333685E+03  0.80186950616E+02 0.  0.
          2    1    6    6  501    0 -0.55675762774E+02  0.96842523905E+02  0.20721518476E+02  0.11361182300E+03  0.00000000000E+00 0. -1.
         -1    1    6    6    0  501 -0.12050100599E+02 -0.40944553677E+01  0.34807848536E+02  0.37061513851E+02  0.00000000000E+00 0.  1.
          5    1    5    5  502    0  0.63663099344E+02  0.64677794546E+02  0.47906655345E+01  0.91001361537E+02  0.47000000000E+01 0. -1.
         13    1    4    4    0    0 -0.61098885452E+02 -0.46432090551E+02  0.41756291653E+02  0.87364756791E+02  0.00000000000E+00 0. -1.
        -14    1    4    4    0    0  0.24912441761E+02 -0.80917801656E+01  0.18636484286E+02  0.32146931538E+02  0.00000000000E+00 0.  1.
         -5    1    3    3    0  504  0.40249207720E+02 -0.10290199237E+03  0.21430002464E+03  0.24115432676E+03  0.47000000000E+01 0.  1.
<mgrwt>
<rscale>  2 0.23394880E+03</rscale>
<asrwt>0</asrwt>
<pdfrwt beam="1">  1       21 0.72104118E-01 0.23402597E+03</pdfrwt>
<pdfrwt beam="2">  1       21 0.20563683E-01 0.23402597E+03</pdfrwt>
<totfact> 0.37251754E+04</totfact>
</mgrwt>
</event>
<event>
12    1  0.2736842E-001  0.2140866E+03  0.7546771E-02  0.1138508E+00
         21   -1    0    0  502  503  0.00000000000E+00  0.00000000000E+00  0.60995857542E+03  0.60995857542E+03  0.00000000000E+00 0.  1.
         21   -1    0    0  503  504 -0.00000000000E+00 -0.00000000000E+00 -0.90398289969E+02  0.90398289969E+02  0.00000000000E+00 0. -1.
         -6    2    1    2    0  504 -0.37890044706E+02  0.12079214016E+03  0.40445895493E+03  0.45729026245E+03  0.17175838057E+03 0.  0.
        -24    2    3    3    0    0 -0.64999982694E+02  0.28717503509E+02  0.28754037444E+03  0.30594716907E+03  0.76645355801E+02 0.  0.
          6    2    1    2  502    0  0.37890044706E+02 -0.12079214016E+03  0.11510133053E+03  0.24306660294E+03  0.17264605575E+03 0.  0.
         24    2    5    5    0    0  0.29730190426E+02 -0.84839380588E+02 -0.17945181373E+01  0.12040481763E+03  0.80078056237E+02 0.  0.
          4    1    6    6  501    0 -0.12362231545E+01  0.84752180897E+01 -0.18769806763E+02  0.20631607191E+02  0.00000000000E+00 0. -1.
         -3    1    6    6    0  501  0.30966413581E+02 -0.93314598678E+02  0.16975288626E+02  0.99773210435E+02  0.00000000000E+00 0.  1.
          5    1    5    5  502    0  0.81598542800E+01 -0.35952759573E+02  0.11689584866E+03  0.12266178532E+03  0.47000000000E+01 0. -1.
         13    1    4    4    0    0 -0.49856414952E+02  0.30221112570E+02  0.86389822165E+02  0.10422177858E+03  0.00000000000E+00 0. -1.
        -14    1    4    4    0    0 -0.15143567742E+02 -0.15036090605E+01  0.20115055228E+03  0.20172539048E+03  0.00000000000E+00 0.  1.
         -5    1    3    3    0  504  0.27109937988E+02  0.92074636652E+02  0.11691858049E+03  0.15134309338E+03  0.47000000000E+01 0.  1.
<mgrwt>
<rscale>  2 0.21390754E+03</rscale>
<asrwt>0</asrwt>
<pdfrwt beam="1">  1       21 0.93839778E-01 0.21408656E+03</pdfrwt>
<pdfrwt beam="2">  1       21 0.13907430E-01 0.21408656E+03</pdfrwt>
<totfact> 0.42427808E+04</totfact>
</mgrwt>
</event>
<event>
12    1  0.2736842E-001  0.2366080E+03  0.7546771E-02  0.1122138E+00
         21   -1    0    0  502  503  0.00000000000E+00  0.00000000000E+00  0.37256258220E+03  0.37256258220E+03  0.00000000000E+00 0. -1.
         21   -1    0    0  503  504 -0.00000000000E+00 -0.00000000000E+00 -0.16410588803E+03  0.16410588803E+03  0.00000000000E+00 0. -1.
         -6    2    1    2    0  504  0.86804344753E+02  0.13909671035E+03  0.25542761811E+02  0.23760181983E+03  0.17005676407E+03 0.  0.
        -24    2    3    3    0    0  0.74252359541E+01  0.80564007805E+02  0.70410753295E+02  0.12914746611E+03  0.71942340385E+02 0.  0.
          6    2    1    2  502    0 -0.86804344753E+02 -0.13909671035E+03  0.18291393235E+03  0.29906665040E+03  0.17058858588E+03 0.  0.
         24    2    5    5    0    0 -0.20308982169E+02 -0.26189533967E+02  0.17446386366E+02  0.87947578549E+02  0.79574202662E+02 0.  0.
          4    1    6    6  501    0 -0.14674833226E+02  0.18006218475E+02  0.33348680600E+02  0.40641224536E+02  0.00000000000E+00 0. -1.
         -3    1    6    6    0  501 -0.56341489432E+01 -0.44195752441E+02 -0.15902294234E+02  0.47306354014E+02  0.00000000000E+00 0.  1.
          5    1    5    5  502    0 -0.66495362584E+02 -0.11290717638E+03  0.16546754599E+03  0.21111907185E+03  0.47000000000E+01 0. -1.
         13    1    4    4    0    0  0.39739118496E+02  0.46013349696E+02  0.36100409094E+02  0.70708312282E+02  0.00000000000E+00 0. -1.
        -14    1    4    4    0    0 -0.32313882542E+02  0.34550658109E+02  0.34310344201E+02  0.58439153826E+02  0.00000000000E+00 0.  1.
         -5    1    3    3    0  504  0.79379108799E+02  0.58532702546E+02 -0.44867991484E+02  0.10845435372E+03  0.47000000000E+01 0.  1.
<mgrwt>
<rscale>  2 0.23651218E+03</rscale>
<asrwt>0</asrwt>
<pdfrwt beam="1">  1       21 0.57317320E-01 0.23660802E+03</pdfrwt>
<pdfrwt beam="2">  1       21 0.25247060E-01 0.23660802E+03</pdfrwt>
<totfact> 0.41590395E+04</totfact>
</mgrwt>
</event>
<event>
12    1  0.2736842E-001  0.1831410E+03  0.7546771E-02  0.1164862E+00
         21   -1    0    0  502  503  0.00000000000E+00  0.00000000000E+00  0.14231872063E+04  0.14231872063E+04  0.00000000000E+00 0. -1.
         21   -1    0    0  503  504 -0.00000000000E+00 -0.00000000000E+00 -0.74160248011E+02  0.74160248011E+02  0.00000000000E+00 0. -1.
         -6    2    1    2    0  504 -0.30814266225E+02 -0.48365701012E+02  0.56083271715E+02  0.19153575589E+03  0.17393059645E+03 0.  0.
        -24    2    3    3    0    0 -0.50614703076E+02  0.88511492245E+01  0.44648137397E+02  0.12974030665E+03  0.11044863053E+03 0.  0.
          6    2    1    2  502    0  0.30814266225E+02  0.48365701012E+02  0.12929436865E+04  0.13058116984E+04  0.17364347105E+03 0.  0.
         24    2    5    5    0    0  0.79374642535E+02  0.12325384380E+01  0.90888639247E+03  0.91580946725E+03  0.79565399889E+02 0.  0.
          2    1    6    6  501    0  0.60541372919E+02 -0.27186790946E+02  0.76777468204E+03  0.77063762030E+03  0.00000000000E+00 0. -1.
         -1    1    6    6    0  501  0.18833269616E+02  0.28419329384E+02  0.14111171043E+03  0.14517184695E+03  0.00000000000E+00 0.  1.
          5    1    5    5  502    0 -0.48560376310E+02  0.47133162574E+02  0.38405729406E+03  0.39000223112E+03  0.47000000000E+01 0. -1.
         11    1    4    4    0    0 -0.44938475176E+00 -0.46517101095E+02  0.23345471544E+02  0.52048570418E+02  0.00000000000E+00 0. -1.
        -12    1    4    4    0    0 -0.50165318324E+02  0.55368250319E+02  0.21302665853E+02  0.77691736230E+02  0.00000000000E+00 0.  1.
         -5    1    3    3    0  504  0.19800436851E+02 -0.57216850236E+02  0.11435134318E+02  0.61795449244E+02  0.47000000000E+01 0.  1.
<mgrwt>
<rscale>  2 0.18307276E+03</rscale>
<asrwt>0</asrwt>
<pdfrwt beam="1">  1       21 0.21895186E+00 0.18314096E+03</pdfrwt>
<pdfrwt beam="2">  1       21 0.11409270E-01 0.18314096E+03</pdfrwt>
<totfact> 0.66161344E+03</totfact>
</mgrwt>
</event>
<event>
12    1  0.2736842E-001  0.1797535E+03  0.7546771E-02  0.1168295E+00
         21   -1    0    0  502  503  0.00000000000E+00  0.00000000000E+00  0.23843897204E+02  0.23843897204E+02  0.00000000000E+00 0.  1.
         21   -1    0    0  503  504 -0.00000000000E+00 -0.00000000000E+00 -0.13816848507E+04  0.13816848507E+04  0.00000000000E+00 0. -1.
         -6    2    1    2    0  504  0.42316910557E+02  0.25967131294E+02 -0.56993387389E+03  0.59760850722E+03  0.17276080132E+03 0.  0.
        -24    2    3    3    0    0 -0.24453141799E+02  0.59101835663E+02 -0.28659216373E+03  0.30458843412E+03  0.80920101127E+02 0.  0.
          6    2    1    2  502    0 -0.42316910557E+02 -0.25967131294E+02 -0.78790707965E+03  0.80792024072E+03  0.17167567207E+03 0.  0.
         24    2    5    5    0    0 -0.45716518211E+02  0.48360032522E+02 -0.46477942363E+03  0.47630350909E+03  0.80102605198E+02 0.  0.
          2    1    6    6  501    0 -0.12219498798E+02  0.53494638611E+02 -0.39430359953E+03  0.39810340505E+03  0.00000000000E+00 0. -1.
         -1    1    6    6    0  501 -0.33497019413E+02 -0.51346060887E+01 -0.70475824099E+02  0.78200104039E+02  0.00000000000E+00 0.  1.
          5    1    5    5  502    0  0.33996076544E+01 -0.74327163816E+02 -0.32312765602E+03  0.33161673163E+03  0.47000000000E+01 0. -1.
         11    1    4    4    0    0 -0.13337351187E+02  0.16133389299E+01 -0.19762975813E+03  0.19808586294E+03  0.00000000000E+00 0. -1.
        -12    1    4    4    0    0 -0.11115790612E+02  0.57488496734E+02 -0.88962405601E+02  0.10650257118E+03  0.00000000000E+00 0.  1.
         -5    1    3    3    0  504  0.66770052356E+02 -0.33134704370E+02 -0.28334171016E+03  0.29302007310E+03  0.47000000000E+01 0.  1.
<mgrwt>
<rscale>  2 0.17949223E+03</rscale>
<asrwt>0</asrwt>
<pdfrwt beam="1">  1       21 0.36682926E-02 0.17975346E+03</pdfrwt>
<pdfrwt beam="2">  1       21 0.21256686E+00 0.17975346E+03</pdfrwt>
<totfact> 0.51101833E+04</totfact>
</mgrwt>
</event>
<event>
12    1  0.2736842E-001  0.3806968E+03  0.7546771E-02  0.1050711E+00
         21   -1    0    0  502  503  0.00000000000E+00  0.00000000000E+00  0.38482856507E+03  0.38482856507E+03  0.00000000000E+00 0. -1.
         21   -1    0    0  503  504 -0.00000000000E+00 -0.00000000000E+00 -0.63135132914E+03  0.63135132914E+03  0.00000000000E+00 0. -1.
         -6    2    1    2    0  504  0.24474134235E+03  0.23368311059E+03 -0.44620295061E+03  0.58629360656E+03  0.17360011270E+03 0.  0.
        -24    2    3    3    0    0  0.14316002099E+03  0.57747070337E+02 -0.14766051446E+03  0.22515383958E+03  0.71141466156E+02 0.  0.
          6    2    1    2  502    0 -0.24474134235E+03 -0.23368311059E+03  0.19968018654E+03  0.42988628765E+03  0.17442454696E+03 0.  0.
         24    2    5    5    0    0 -0.23003571409E+03 -0.13375100861E+03  0.16282767233E+03  0.32226250630E+03  0.80836316284E+02 0.  0.
          4    1    6    6  501    0 -0.19035393030E+03 -0.12364094550E+03  0.10179388809E+03  0.24876434197E+03  0.00000000000E+00 0. -1.
         -3    1    6    6    0  501 -0.39681783784E+02 -0.10110063117E+02  0.61033784245E+02  0.73498164330E+02  0.00000000000E+00 0.  1.
          5    1    5    5  502    0 -0.14705628266E+02 -0.99932101981E+02  0.36852514207E+02  0.10762378135E+03  0.47000000000E+01 0. -1.
         11    1    4    4    0    0  0.11539675914E+03  0.51166554882E+02 -0.15055840720E+03  0.19647458446E+03  0.00000000000E+00 0. -1.
        -12    1    4    4    0    0  0.27763261848E+02  0.65805154548E+01  0.28978927451E+01  0.28679255123E+02  0.00000000000E+00 0.  1.
         -5    1    3    3    0  504  0.10158132137E+03  0.17593604026E+03 -0.29854243615E+03  0.36113976698E+03  0.47000000000E+01 0.  1.
<mgrwt>
<rscale>  2 0.38060250E+03</rscale>
<asrwt>0</asrwt>
<pdfrwt beam="1">  1       21 0.59204395E-01 0.38069679E+03</pdfrwt>
<pdfrwt beam="2">  1       21 0.97130972E-01 0.38069679E+03</pdfrwt>
<totfact> 0.20817784E+03</totfact>
</mgrwt>
</event>
<event>
12    1  0.2736842E-001  0.2019150E+03  0.7546771E-02  0.1148780E+00
         21   -1    0    0  502  503  0.00000000000E+00  0.00000000000E+00  0.28551408127E+03  0.28551408127E+03  0.00000000000E+00 0.  1.
         21   -1    0    0  503  504 -0.00000000000E+00 -0.00000000000E+00 -0.40528589881E+03  0.40528589881E+03  0.00000000000E+00 0. -1.
         -6    2    1    2    0  504  0.10297232775E+03  0.47895624145E+01 -0.33884009037E+03  0.39287284576E+03  0.17003007352E+03 0.  0.
        -24    2    3    3    0    0  0.33401256442E+02  0.19138846781E+02 -0.29703980524E+03  0.31031747185E+03  0.81131671062E+02 0.  0.
          6    2    1    2  502    0 -0.10297232775E+03 -0.47895624145E+01  0.21906827283E+03  0.29792713432E+03  0.17361863095E+03 0.  0.
         24    2    5    5    0    0 -0.14540769618E+02  0.21458960181E+02  0.17915860494E+03  0.19730905939E+03  0.78492918406E+02 0.  0.
          4    1    6    6  501    0 -0.27475359360E+01 -0.29273308341E+02  0.49406567376E+02  0.57493342526E+02  0.00000000000E+00 0. -1.
         -3    1    6    6    0  501 -0.11793233682E+02  0.50732268522E+02  0.12975203756E+03  0.13981571686E+03  0.00000000000E+00 0.  1.
          5    1    5    5  502    0 -0.88431558130E+02 -0.26248522596E+02  0.39909667891E+02  0.10061807493E+03  0.47000000000E+01 0. -1.
         13    1    4    4    0    0  0.41314602636E+02 -0.15089175557E+02 -0.88367754631E+02  0.98708863171E+02  0.00000000000E+00 0. -1.
        -14    1    4    4    0    0 -0.79133461937E+01  0.34228022338E+02 -0.20867205061E+03  0.21160860868E+03  0.00000000000E+00 0.  1.
         -5    1    3    3    0  504  0.69571071305E+02 -0.14349284367E+02 -0.41800285130E+02  0.82555373909E+02  0.47000000000E+01 0.  1.
<mgrwt>
<rscale>  2 0.20114126E+03</rscale>
<asrwt>0</asrwt>
<pdfrwt beam="1">  1       21 0.43925243E-01 0.20191500E+03</pdfrwt>
<pdfrwt beam="2">  1       21 0.62351677E-01 0.20191500E+03</pdfrwt>
<totfact> 0.11803759E+04</totfact>
</mgrwt>
</event>
<event>
12    1  0.2736842E-001  0.1794193E+03  0.7546771E-02  0.1168654E+00
         21   -1    0    0  502  503  0.00000000000E+00  0.00000000000E+00  0.21368339261E+03  0.21368339261E+03  0.00000000000E+00 0. -1.
         21   -1    0    0  503  504 -0.00000000000E+00 -0.00000000000E+00 -0.15759680403E+03  0.15759680403E+03  0.00000000000E+00 0.  1.
         -6    2    1    2    0  504 -0.41963064372E+02 -0.93024335558E+00  0.69616496401E+02  0.19135148941E+03  0.17322578273E+03 0.  0.
        -24    2    3    3    0    0  0.88751461347E+00  0.44873734575E+02 -0.70802599630E+01  0.92161475041E+02  0.80182090667E+02 0.  0.
          6    2    1    2  502    0  0.41963064372E+02  0.93024335558E+00 -0.13529907822E+02  0.17992870724E+03  0.17444058346E+03 0.  0.
         24    2    5    5    0    0 -0.23912399951E+02  0.39285324391E+01 -0.56855256778E+02  0.10088604535E+03  0.79738558325E+02 0.  0.
          2    1    6    6  501    0 -0.29633360442E+02  0.34464861303E+02 -0.13249034415E+02  0.47344478333E+02  0.00000000000E+00 0. -1.
         -1    1    6    6    0  501  0.57209604912E+01 -0.30536328864E+02 -0.43606222363E+02  0.53541567013E+02  0.00000000000E+00 0.  1.
          5    1    5    5  502    0  0.65875464322E+02 -0.29982890836E+01  0.43325348956E+02  0.79042661894E+02  0.47000000000E+01 0. -1.
         11    1    4    4    0    0 -0.28392979117E+02  0.41858998131E+02 -0.26298046959E+02  0.57008106981E+02  0.00000000000E+00 0. -1.
        -12    1    4    4    0    0  0.29280493731E+02  0.30147364442E+01  0.19217786996E+02  0.35153368060E+02  0.00000000000E+00 0.  1.
         -5    1    3    3    0  504 -0.42850578985E+02 -0.45803977931E+02  0.76696756364E+02  0.99190014368E+02  0.47000000000E+01 0.  1.
<mgrwt>
<rscale>  2 0.17912334E+03</rscale>
<asrwt>0</asrwt>
<pdfrwt beam="1">  1       21 0.32874368E-01 0.17941929E+03</pdfrwt>
<pdfrwt beam="2">  1       21 0.24245662E-01 0.17941929E+03</pdfrwt>
<totfact> 0.14365038E+05</totfact>
</mgrwt>
</event>
<event>
12    1  0.2736842E-001  0.1838439E+03  0.7546771E-02  0.1164233E+00
         21   -1    0    0  502  503  0.00000000000E+00  0.00000000000E+00  0.15834227878E+03  0.15834227878E+03  0.00000000000E+00 0.  1.
         21   -1    0    0  503  504 -0.00000000000E+00 -0.00000000000E+00 -0.21386951887E+03  0.21386951887E+03  0.00000000000E+00 0.  1.
         -6    2    1    2    0  504  0.53071672151E+02 -0.30913609746E+02 -0.15638867555E+02  0.18409035998E+03  0.17283643367E+03 0.  0.
        -24    2    3    3    0    0  0.86201673921E+02 -0.13788403125E+02  0.37435816368E+02  0.11905281857E+03  0.71772450243E+02 0.  0.
          6    2    1    2  502    0 -0.53071672151E+02  0.30913609746E+02 -0.39888372533E+02  0.18812143767E+03  0.17328109936E+03 0.  0.
         24    2    5    5    0    0 -0.48086301605E+02 -0.27931427722E+02  0.39670808293E+02  0.88927962036E+02  0.56938144900E+02 0.  0.
          4    1    6    6  501    0 -0.56284294363E+02 -0.75700877178E+01  0.34246899217E+02  0.66318007554E+02  0.00000000000E+00 0. -1.
         -3    1    6    6    0  501  0.81979927580E+01 -0.20361340004E+02  0.54239090755E+01  0.22609954482E+02  0.00000000000E+00 0.  1.
          5    1    5    5  502    0 -0.49853705464E+01  0.58845037467E+02 -0.79559180826E+02  0.99193475631E+02  0.47000000000E+01 0. -1.
         13    1    4    4    0    0  0.11529930583E+02 -0.32793784856E+02  0.37655262703E+01  0.34964994102E+02  0.00000000000E+00 0. -1.
        -14    1    4    4    0    0  0.74671743338E+02  0.19005381731E+02  0.33670290097E+02  0.84087824464E+02  0.00000000000E+00 0.  1.
         -5    1    3    3    0  504 -0.33130001770E+02 -0.17125206620E+02 -0.53074683923E+02  0.65037541409E+02  0.47000000000E+01 0.  1.
<mgrwt>
<rscale>  2 0.18373908E+03</rscale>
<asrwt>0</asrwt>
<pdfrwt beam="1">  1       21 0.24360351E-01 0.18384394E+03</pdfrwt>
<pdfrwt beam="2">  1       21 0.32903003E-01 0.18384394E+03</pdfrwt>
<totfact> 0.14191645E+05</totfact>
</mgrwt>
</event>
<event>
12    1  0.2736842E-001  0.2445007E+03  0.7546771E-02  0.1116884E+00
         21   -1    0    0  502  503  0.00000000000E+00  0.00000000000E+00  0.14478174473E+03  0.14478174473E+03  0.00000000000E+00 0.  1.
         21   -1    0    0  503  504 -0.00000000000E+00 -0.00000000000E+00 -0.85714877544E+03  0.85714877544E+03  0.00000000000E+00 0. -1.
         -6    2    1    2    0  504  0.17214688186E+03 -0.15513194393E+02 -0.71694922938E+03  0.75738687227E+03  0.17246294860E+03 0.  0.
        -24    2    3    3    0    0  0.62760859954E+02 -0.47303729100E+02 -0.49993908777E+03  0.51225133537E+03  0.79282853028E+02 0.  0.
          6    2    1    2  502    0 -0.17214688186E+03  0.15513194393E+02  0.45821986662E+01  0.24454364790E+03  0.17293175257E+03 0.  0.
         24    2    5    5    0    0 -0.38126482902E+02 -0.40644498759E+02 -0.39017137665E+01  0.98909789854E+02  0.81623030947E+02 0.  0.
          2    1    6    6  501    0 -0.57196709039E+02 -0.25184861142E+02 -0.24237798952E+02  0.67031422882E+02  0.00000000000E+00 0. -1.
         -1    1    6    6    0  501  0.19070226137E+02 -0.15459637617E+02  0.20336085185E+02  0.31878366972E+02  0.00000000000E+00 0.  1.
          5    1    5    5  502    0 -0.13402039896E+03  0.56157693152E+02  0.84839124327E+01  0.14563385804E+03  0.47000000000E+01 0. -1.
         11    1    4    4    0    0  0.92815214073E+01  0.19433660932E+02 -0.53088795772E+02  0.57290785065E+02  0.00000000000E+00 0. -1.
        -12    1    4    4    0    0  0.53479338546E+02 -0.66737390032E+02 -0.44685029200E+03  0.45496055031E+03  0.00000000000E+00 0.  1.
         -5    1    3    3    0  504  0.10938602191E+03  0.31790534707E+02 -0.21701014161E+03  0.24513553690E+03  0.47000000000E+01 0.  1.
<mgrwt>
<rscale>  2 0.24441783E+03</rscale>
<asrwt>0</asrwt>
<pdfrwt beam="1">  1       21 0.22274114E-01 0.24450071E+03</pdfrwt>
<pdfrwt beam="2">  1       21 0.13186904E+00 0.24450071E+03</pdfrwt>
<totfact> 0.75815250E+03</totfact>
</mgrwt>
</event>
<event>
12    1  0.2736842E-001  0.3902529E+03  0.7546771E-02  0.1047290E+00
         21   -1    0    0  502  503  0.00000000000E+00  0.00000000000E+00  0.16789726646E+03  0.16789726646E+03  0.00000000000E+00 0.  1.
         21   -1    0    0  503  504 -0.00000000000E+00 -0.00000000000E+00 -0.91244180030E+03  0.91244180030E+03  0.00000000000E+00 0. -1.
         -6    2    1    2    0  504 -0.31614794753E+03  0.14990962473E+03 -0.42074372800E+03  0.57324508006E+03  0.17076948455E+03 0.  0.
        -24    2    3    3    0    0 -0.11546176977E+03  0.12290373678E+03 -0.18428181411E+03  0.26189224701E+03  0.78682992073E+02 0.  0.
          6    2    1    2  502    0  0.31614794753E+03 -0.14990962473E+03 -0.32380080584E+03  0.50709398670E+03  0.17284365528E+03 0.  0.
         24    2    5    5    0    0  0.10943570098E+03 -0.11845673186E+03 -0.15767372286E+03  0.23999936855E+03  0.82039771166E+02 0.  0.
          2    1    6    6  501    0 -0.10352125760E+01 -0.50466551279E+02 -0.34678487133E+02  0.61241668273E+02  0.00000000000E+00 0. -1.
         -1    1    6    6    0  501  0.11047091356E+03 -0.67990180584E+02 -0.12299523573E+03  0.17875770028E+03  0.00000000000E+00 0.  1.
          5    1    5    5  502    0  0.20671224655E+03 -0.31452892867E+02 -0.16612708298E+03  0.26709461814E+03  0.47000000000E+01 0. -1.
         13    1    4    4    0    0 -0.10493842158E+03  0.11540201328E+03 -0.19158209207E+03  0.24704937765E+03  0.00000000000E+00 0. -1.
        -14    1    4    4    0    0 -0.10523348186E+02  0.75017234974E+01  0.73002779671E+01  0.14842869361E+02  0.00000000000E+00 0.  1.
         -5    1    3    3    0  504 -0.20068617776E+03  0.27005887950E+02 -0.23646191389E+03  0.31135283305E+03  0.47000000000E+01 0.  1.
<mgrwt>
<rscale>  2 0.39002418E+03</rscale>
<asrwt>0</asrwt>
<pdfrwt beam="1">  1       21 0.25830349E-01 0.39025293E+03</pdfrwt>
<pdfrwt beam="2">  1       21 0.14037566E+00 0.39025293E+03</pdfrwt>
<totfact> 0.45049127E+03</totfact>
</mgrwt>
</event>
<event>
12    1  0.2736842E-001  0.1778153E+03  0.7546771E-02  0.1170148E+00
         21   -1    0    0  502  503  0.00000000000E+00  0.00000000000E+00  0.71522420677E+03  0.71522420677E+03  0.00000000000E+00 0. -1.
         21   -1    0    0  503  504 -0.00000000000E+00 -0.00000000000E+00 -0.58417395418E+02  0.58417395418E+02  0.00000000000E+00 0.  1.
         -6    2    1    2    0  504 -0.27883095416E+02 -0.31865947157E+02  0.13557521209E+03  0.22291420221E+03  0.17180569786E+03 0.  0.
        -24    2    3    3    0    0  0.41593941779E+02  0.15938796713E+02  0.74719356592E+02  0.11880907562E+03  0.80922882838E+02 0.  0.
          6    2    1    2  502    0  0.27883095416E+02  0.31865947157E+02  0.52123159926E+03  0.55072739998E+03  0.17270027047E+03 0.  0.
         24    2    5    5    0    0 -0.36062731146E+02 -0.67326139582E+01  0.29107146689E+03  0.30870530555E+03  0.96075585725E+02 0.  0.
          4    1    6    6  501    0 -0.53266358383E+02 -0.21266121242E+02  0.27530037908E+03  0.28121140015E+03  0.00000000000E+00 0. -1.
         -3    1    6    6    0  501  0.17203627237E+02  0.14533507284E+02  0.15771087804E+02  0.27493905408E+02  0.00000000000E+00 0.  1.
          5    1    5    5  502    0  0.63945826562E+02  0.38598561115E+02  0.23016013237E+03  0.24202209442E+03  0.47000000000E+01 0. -1.
         13    1    4    4    0    0  0.51300828563E+02 -0.13383499516E+02  0.21368255892E+02  0.57162010377E+02  0.00000000000E+00 0. -1.
        -14    1    4    4    0    0 -0.97068867832E+01  0.29322296229E+02  0.53351100699E+02  0.61647065242E+02  0.00000000000E+00 0.  1.
         -5    1    3    3    0  504 -0.69477037195E+02 -0.47804743870E+02  0.60855855498E+02  0.10410512659E+03  0.47000000000E+01 0.  1.
<mgrwt>
<rscale>  2 0.17759775E+03</rscale>
<asrwt>0</asrwt>
<pdfrwt beam="1">  1       21 0.11003449E+00 0.17781532E+03</pdfrwt>
<pdfrwt beam="2">  1       21 0.89872922E-02 0.17781532E+03</pdfrwt>
<totfact> 0.64362695E+04</totfact>
</mgrwt>
</event>
<event>
12    1  0.2736842E-001  0.1888220E+03  0.7546771E-02  0.1159751E+00
         21   -1    0    0  502  503  0.00000000000E+00  0.00000000000E+00  0.12236018519E+03  0.12236018519E+03  0.00000000000E+00 0. -1.
         21   -1    0    0  503  504 -0.00000000000E+00 -0.00000000000E+00 -0.29043191476E+03  0.29043191476E+03  0.00000000000E+00 0. -1.
         -6    2    1    2    0  504 -0.72335101201E+02  0.21472524207E+02 -0.75214169220E+02  0.20325087751E+03  0.17309047286E+03 0.  0.
        -24    2    3    3    0    0  0.72353435413E+01 -0.16479523193E+02  0.61337659071E+01  0.83203428021E+02  0.81001620166E+02 0.  0.
          6    2    1    2  502    0  0.72335101201E+02 -0.21472524207E+02 -0.92857560348E+02  0.20954122244E+03  0.17202197890E+03 0.  0.
         24    2    5    5    0    0  0.55818015947E+02  0.78222992628E+00 -0.13001296800E+03  0.16295042394E+03  0.80828250174E+02 0.  0.
          4    1    6    6  501    0  0.73639142375E+02  0.14034641936E+02 -0.10960501157E+03  0.13278912992E+03  0.00000000000E+00 0. -1.
         -3    1    6    6    0  501 -0.17821126427E+02 -0.13252412010E+02 -0.20407956425E+02  0.30161294015E+02  0.00000000000E+00 0.  1.
          5    1    5    5  502    0  0.16517085253E+02 -0.22254754134E+02  0.37155407651E+02  0.46590798496E+02  0.47000000000E+01 0. -1.
         13    1    4    4    0    0  0.12737179862E+02  0.13011012554E+02 -0.30703367773E+02  0.35696204156E+02  0.00000000000E+00 0. -1.
        -14    1    4    4    0    0 -0.55018363210E+01 -0.29490535747E+02  0.36837133681E+02  0.47507223865E+02  0.00000000000E+00 0.  1.
         -5    1    3    3    0  504 -0.79570444742E+02  0.37952047400E+02 -0.81347935127E+02  0.12004744948E+03  0.47000000000E+01 0.  1.
<mgrwt>
<rscale>  2 0.18857678E+03</rscale>
<asrwt>0</asrwt>
<pdfrwt beam="1">  1       21 0.18824644E-01 0.18882200E+03</pdfrwt>
<pdfrwt beam="2">  1       21 0.44681832E-01 0.18882200E+03</pdfrwt>
<totfact> 0.12440937E+05</totfact>
</mgrwt>
</event>
<event>
12    1  0.2736842E-001  0.1888460E+03  0.7546771E-02  0.1161898E+00
         21   -1    0    0  502  503  0.00000000000E+00  0.00000000000E+00  0.23501467563E+02  0.23501467563E+02  0.00000000000E+00 0.  1.
         21   -1    0    0  503  504 -0.00000000000E+00 -0.00000000000E+00 -0.14371048027E+04  0.14371048027E+04  0.00000000000E+00 0.  1.
         -6    2    1    2    0  504 -0.69028046679E+02  0.72225990278E+01 -0.70201421554E+03  0.72438491560E+03  0.16459802539E+03 0.  0.
        -24    2    3    3    0    0 -0.99988968812E+02  0.30381959534E+02 -0.61546077398E+03  0.62947167667E+03  0.80757476881E+02 0.  0.
          6    2    1    2  502    0  0.69028046679E+02 -0.72225990278E+01 -0.71158911959E+03  0.73622135465E+03  0.17562964091E+03 0.  0.
         24    2    5    5    0    0 -0.43144863017E+01 -0.13710165379E+02 -0.13696684887E+03  0.15688202433E+03  0.75136332357E+02 0.  0.
          2    1    6    6  501    0  0.34407657516E+02 -0.63829838695E+01 -0.46439435285E+02  0.58148521292E+02  0.00000000000E+00 0. -1.
         -1    1    6    6    0  501 -0.38722143818E+02 -0.73271815096E+01 -0.90527413590E+02  0.98733503037E+02  0.00000000000E+00 0.  1.
          5    1    5    5  502    0  0.73342532981E+02  0.64875663513E+01 -0.57462227071E+03  0.57933933032E+03  0.47000000000E+01 0. -1.
         13    1    4    4    0    0 -0.77675598613E+02  0.52209030431E+02 -0.35432999850E+03  0.36648196315E+03  0.00000000000E+00 0. -1.
        -14    1    4    4    0    0 -0.22313370199E+02 -0.21827070897E+02 -0.26113077548E+03  0.26298971352E+03  0.00000000000E+00 0.  1.
         -5    1    3    3    0  504  0.30960922133E+02 -0.23159360506E+02 -0.86553441563E+02  0.94913238933E+02  0.47000000000E+01 0.  1.
<mgrwt>
<rscale>  2 0.18623912E+03</rscale>
<asrwt>0</asrwt>
<pdfrwt beam="1">  1       21 0.36156105E-02 0.18884599E+03</pdfrwt>
<pdfrwt beam="2">  1       21 0.22109304E+00 0.18884599E+03</pdfrwt>
<totfact> 0.46086340E+04</totfact>
</mgrwt>
</event>
<event>
12    1  0.2736842E-001  0.2350178E+03  0.7546771E-02  0.1123798E+00
         21   -1    0    0  502  503  0.00000000000E+00  0.00000000000E+00  0.49549485371E+03  0.49549485371E+03  0.00000000000E+00 0.  1.
         21   -1    0    0  503  504 -0.00000000000E+00 -0.00000000000E+00 -0.13216651701E+03  0.13216651701E+03  0.00000000000E+00 0.  1.
         -6    2    1    2    0  504 -0.79154974041E+02  0.13540030283E+03  0.51128162070E+02  0.23688993895E+03  0.17001177106E+03 0.  0.
        -24    2    3    3    0    0 -0.51640433755E+02  0.14951538804E+03  0.23209218597E+00  0.17715062620E+03  0.79754027105E+02 0.  0.
          6    2    1    2  502    0  0.79154974041E+02 -0.13540030283E+03  0.31220017462E+03  0.39077143177E+03  0.17502745764E+03 0.  0.
         24    2    5    5    0    0 -0.76452294984E+01 -0.14152782237E+02  0.14472315049E+03  0.16648170798E+03  0.80700793212E+02 0.  0.
          4    1    6    6  501    0  0.64173005959E+01  0.32652500021E+02  0.63419969817E+02  0.71620249065E+02  0.00000000000E+00 0. -1.
         -3    1    6    6    0  501 -0.14062530094E+02 -0.46805282258E+02  0.81303180669E+02  0.94861458911E+02  0.00000000000E+00 0.  1.
          5    1    5    5  502    0  0.86800203540E+02 -0.12124752059E+03  0.16747702414E+03  0.22428972379E+03  0.47000000000E+01 0. -1.
         11    1    4    4    0    0 -0.28844680428E+02  0.55637439537E+02 -0.37959023460E+02  0.73269555269E+02  0.00000000000E+00 0. -1.
        -12    1    4    4    0    0 -0.22795753327E+02  0.93877948501E+02  0.38191115646E+02  0.10388107094E+03  0.00000000000E+00 0.  1.
         -5    1    3    3    0  504 -0.27514540286E+02 -0.14115085210E+02  0.50896069884E+02  0.59739312745E+02  0.47000000000E+01 0.  1.
<mgrwt>
<rscale>  2 0.23408446E+03</rscale>
<asrwt>0</asrwt>
<pdfrwt beam="1">  1       21 0.76229977E-01 0.23501779E+03</pdfrwt>
<pdfrwt beam="2">  1       21 0.20333311E-01 0.23501779E+03</pdfrwt>
<totfact> 0.33575759E+04</totfact>
</mgrwt>
</event>
<event>
12    1  0.2736842E-001  0.1896861E+03  0.7546771E-02  0.1158893E+00
         21   -1    0    0  502  503  0.00000000000E+00  0.00000000000E+00  0.33486837503E+03  0.33486837503E+03  0.00000000000E+00 0. -1.
         21   -1    0    0  503  504 -0.00000000000E+00 -0.00000000000E+00 -0.15138009260E+03  0.15138009260E+03  0.00000000000E+00 0. -1.
         -6    2    1    2    0  504  0.65474044427E+02 -0.36211311201E+02 -0.39894862241E+02  0.19319415779E+03  0.17359226083E+03 0.  0.
        -24    2    3    3    0    0  0.89002557710E+02 -0.13975533873E+02 -0.77757708018E+02  0.14315711330E+03  0.79567123279E+02 0.  0.
          6    2    1    2  502    0 -0.65474044427E+02  0.36211311201E+02  0.22338314468E+03  0.29305430984E+03  0.17430630981E+03 0.  0.
         24    2    5    5    0    0 -0.81637832268E+01  0.41626561897E+02  0.37579851150E+02  0.98481072049E+02  0.80541035055E+02 0.  0.
          2    1    6    6  501    0  0.79674137995E+01  0.21029934616E+02  0.59968949154E+02  0.64046956956E+02  0.00000000000E+00 0. -1.
         -1    1    6    6    0  501 -0.16131197026E+02  0.20596627280E+02 -0.22389098005E+02  0.34434115094E+02  0.00000000000E+00 0.  1.
          5    1    5    5  502    0 -0.57310261200E+02 -0.54152506953E+01  0.18580329353E+03  0.19457323779E+03  0.47000000000E+01 0. -1.
         11    1    4    4    0    0  0.35820763752E+02 -0.16157490008E+02 -0.80794526455E+02  0.89844015406E+02  0.00000000000E+00 0. -1.
        -12    1    4    4    0    0  0.53181793958E+02  0.21819561348E+01  0.30368184366E+01  0.53313097897E+02  0.00000000000E+00 0.  1.
         -5    1    3    3    0  504 -0.23528513284E+02 -0.22235777328E+02  0.37862845778E+02  0.50037044488E+02  0.47000000000E+01 0.  1.
<mgrwt>
<rscale>  2 0.18952186E+03</rscale>
<asrwt>0</asrwt>
<pdfrwt beam="1">  1       21 0.51518211E-01 0.18968605E+03</pdfrwt>
<pdfrwt beam="2">  1       21 0.23289245E-01 0.18968605E+03</pdfrwt>
<totfact> 0.62127202E+04</totfact>
</mgrwt>
</event>
<event>
12    1  0.2736842E-001  0.3714822E+03  0.7546771E-02  0.1054159E+00
         21   -1    0    0  502  503  0.00000000000E+00  0.00000000000E+00  0.52971556643E+03  0.52971556643E+03  0.00000000000E+00 0. -1.
         21   -1    0    0  503  504 -0.00000000000E+00 -0.00000000000E+00 -0.54204864551E+03  0.54204864551E+03  0.00000000000E+00 0.  1.
         -6    2    1    2    0  504  0.25745023014E+03 -0.20404677018E+03 -0.39252597290E+03  0.54021397957E+03  0.17273910648E+03 0.  0.
        -24    2    3    3    0    0  0.57979731919E+02 -0.90416659883E+02 -0.97950295666E+02  0.16672073834E+03  0.81637751531E+02 0.  0.
          6    2    1    2  502    0 -0.25745023014E+03  0.20404677018E+03  0.38019289382E+03  0.53155023236E+03  0.17344540234E+03 0.  0.
         24    2    5    5    0    0 -0.26054729623E+03  0.13980159781E+03  0.30483088584E+03  0.43236073575E+03  0.81145280425E+02 0.  0.
          4    1    6    6  501    0 -0.12180239978E+03  0.83307164608E+02  0.20401836782E+03  0.25179238010E+03  0.00000000000E+00 0. -1.
         -3    1    6    6    0  501 -0.13874489645E+03  0.56494433204E+02  0.10081251802E+03  0.18056835565E+03  0.00000000000E+00 0.  1.
          5    1    5    5  502    0  0.30970660923E+01  0.64245172366E+02  0.75362007981E+02  0.99189496609E+02  0.47000000000E+01 0. -1.
         13    1    4    4    0    0  0.21302252540E+02 -0.58738666368E+01  0.10448320764E+02  0.24442906524E+02  0.00000000000E+00 0. -1.
        -14    1    4    4    0    0  0.36677479379E+02 -0.84542793246E+02 -0.10839861643E+03  0.14227783182E+03  0.00000000000E+00 0.  1.
         -5    1    3    3    0  504  0.19947049822E+03 -0.11363011030E+03 -0.29457567724E+03  0.37349324123E+03  0.47000000000E+01 0.  1.
<mgrwt>
<rscale>  2 0.37139985E+03</rscale>
<asrwt>0</asrwt>
<pdfrwt beam="1">  1       21 0.81494703E-01 0.37148218E+03</pdfrwt>
<pdfrwt beam="2">  1       21 0.83392098E-01 0.37148218E+03</pdfrwt>
<totfact> 0.14639866E+03</totfact>
</mgrwt>
</event>
<event>
12    1  0.2736842E-001  0.2186783E+03  0.7546771E-02  0.1134918E+00
         21   -1    0    0  502  503  0.00000000000E+00  0.00000000000E+00  0.55244620761E+03  0.55244620761E+03  0.00000000000E+00 0. -1.
         21   -1    0    0  503  504 -0.00000000000E+00 -0.00000000000E+00 -0.12807496867E+03  0.12807496867E+03  0.00000000000E+00 0.  1.
         -6    2    1    2    0  504 -0.73655690775E+02  0.11084102206E+03  0.18162927876E+02  0.21919113133E+03  0.17321653255E+03 0.  0.
        -24    2    3    3    0    0 -0.10472671574E+03  0.45864004874E+02 -0.16664064530E+02  0.13905106173E+03  0.77371278841E+02 0.  0.
          6    2    1    2  502    0  0.73655690775E+02 -0.11084102206E+03  0.40620831106E+03  0.46133004495E+03  0.17352038915E+03 0.  0.
         24    2    5    5    0    0  0.74126024575E+02 -0.49459132672E+01  0.16385346681E+03  0.19680791770E+03  0.79788898379E+02 0.  0.
          4    1    6    6  501    0  0.21938868673E+02  0.22641859575E+02  0.11740151608E+02  0.33642219360E+02  0.00000000000E+00 0. -1.
         -3    1    6    6    0  501  0.52187155902E+02 -0.27587772843E+02  0.15211331520E+03  0.16316569834E+03  0.00000000000E+00 0.  1.
          5    1    5    5  502    0 -0.47033379935E+00 -0.10589510879E+03  0.24235484424E+03  0.26452212726E+03  0.47000000000E+01 0. -1.
         13    1    4    4    0    0 -0.57370441621E+02  0.64152315092E+02 -0.19362429973E+02  0.88214459120E+02  0.00000000000E+00 0. -1.
        -14    1    4    4    0    0 -0.47356274119E+02 -0.18288310218E+02  0.26983654434E+01  0.50836602612E+02  0.00000000000E+00 0.  1.
         -5    1    3    3    0  504  0.31071024965E+02  0.64977017186E+02  0.34826992406E+02  0.80140069595E+02  0.47000000000E+01 0.  1.
<mgrwt>
<rscale>  2 0.21861806E+03</rscale>
<asrwt>0</asrwt>
<pdfrwt beam="1">  1       21 0.84991723E-01 0.21867834E+03</pdfrwt>
<pdfrwt beam="2">  1       21 0.19703842E-01 0.21867834E+03</pdfrwt>
<totfact> 0.28038515E+04</totfact>
</mgrwt>
</event>
<event>
12    1  0.2736842E-001  0.2038843E+03  0.7546771E-02  0.1146818E+00
         21   -1    0    0  502  503  0.00000000000E+00  0.00000000000E+00  0.11590590122E+04  0.11590590122E+04  0.00000000000E+00 0. -1.
         21   -1    0    0  503  504 -0.00000000000E+00 -0.00000000000E+00 -0.69110353017E+02  0.69110353017E+02  0.00000000000E+00 0. -1.
         -6    2    1    2    0  504 -0.43281758111E+01 -0.10428034639E+03  0.11839836298E+03  0.23576887201E+03  0.17514469705E+03 0.  0.
        -24    2    3    3    0    0 -0.37672191012E+02 -0.84615414390E+01  0.10695522090E+02  0.87731516367E+02  0.78048914868E+02 0.  0.
          6    2    1    2  502    0  0.43281758111E+01  0.10428034639E+03  0.97155029618E+03  0.99240049318E+03  0.17336561686E+03 0.  0.
         24    2    5    5    0    0  0.30438671462E+02  0.32450990557E+02  0.79830887452E+03  0.80299116257E+03  0.74284376053E+02 0.  0.
          4    1    6    6  501    0  0.20957518770E+02  0.41311728059E+02  0.77442703414E+03  0.77581125776E+03  0.00000000000E+00 0. -1.
         -3    1    6    6    0  501  0.94811526923E+01 -0.88607375022E+01  0.23881840379E+02  0.27179904807E+02  0.00000000000E+00 0.  1.
          5    1    5    5  502    0 -0.26110495651E+02  0.71829355829E+02  0.17324142166E+03  0.18940933061E+03  0.47000000000E+01 0. -1.
         13    1    4    4    0    0 -0.23830854917E+02 -0.30858808031E+02 -0.22769138383E+02  0.45150961694E+02  0.00000000000E+00 0. -1.
        -14    1    4    4    0    0 -0.13841336095E+02  0.22397266592E+02  0.33464660473E+02  0.42580554673E+02  0.00000000000E+00 0.  1.
         -5    1    3    3    0  504  0.33344015201E+02 -0.95818804947E+02  0.10770284089E+03  0.14803735564E+03  0.47000000000E+01 0.  1.
<mgrwt>
<rscale>  2 0.20350161E+03</rscale>
<asrwt>0</asrwt>
<pdfrwt beam="1">  1       21 0.17831676E+00 0.20388425E+03</pdfrwt>
<pdfrwt beam="2">  1       21 0.10632363E-01 0.20388425E+03</pdfrwt>
<totfact> 0.13485551E+04</totfact>
</mgrwt>
</event>
<event>
12    1  0.2736842E-001  0.2933554E+03  0.7546771E-02  0.1088673E+00
         21   -1    0    0  502  503  0.00000000000E+00  0.00000000000E+00  0.13051583086E+03  0.13051583086E+03  0.00000000000E+00 0.  1.
         21   -1    0    0  503  504 -0.00000000000E+00 -0.00000000000E+00 -0.67034625828E+03  0.67034625828E+03  0.00000000000E+00 0. -1.
         -6    2    1    2    0  504  0.23654955827E+03  0.77220085822E+01 -0.21638172874E+03  0.36452498457E+03  0.17332653838E+03 0.  0.
        -24    2    3    3    0    0  0.64689485042E+02 -0.42329231215E+02 -0.10921825671E+03  0.15584553873E+03  0.79891871020E+02 0.  0.
          6    2    1    2  502    0 -0.23654955827E+03 -0.77220085822E+01 -0.32344869869E+03  0.43633710457E+03  0.17249836292E+03 0.  0.
         24    2    5    5    0    0 -0.16751484754E+03  0.37631878912E+02 -0.29161963791E+03  0.34769205109E+03  0.79814577120E+02 0.  0.
          2    1    6    6  501    0 -0.65846512757E+02  0.16851857095E+02 -0.19266852918E+03  0.20430592372E+03  0.00000000000E+00 0. -1.
         -1    1    6    6    0  501 -0.10166833478E+03  0.20780021817E+02 -0.98951108726E+02  0.14338612737E+03  0.00000000000E+00 0.  1.
          5    1    5    5  502    0 -0.69034710736E+02 -0.45353887494E+02 -0.31829060781E+02  0.88645053485E+02  0.47000000000E+01 0. -1.
         11    1    4    4    0    0  0.74026205721E+01  0.22916747240E+02 -0.19440470257E+02  0.30950088517E+02  0.00000000000E+00 0. -1.
        -12    1    4    4    0    0  0.57286864470E+02 -0.65245978454E+02 -0.89777786450E+02  0.12489545022E+03  0.00000000000E+00 0.  1.
         -5    1    3    3    0  504  0.17186007323E+03  0.50051239797E+02 -0.10716347203E+03  0.20867944583E+03  0.47000000000E+01 0.  1.
<mgrwt>
<rscale>  2 0.29323322E+03</rscale>
<asrwt>0</asrwt>
<pdfrwt beam="1">  1       21 0.20079358E-01 0.29335544E+03</pdfrwt>
<pdfrwt beam="2">  1       21 0.10313020E+00 0.29335544E+03</pdfrwt>
<totfact> 0.16557756E+04</totfact>
</mgrwt>
</event>
<event>
12    1  0.2736842E-001  0.2085975E+03  0.7546771E-02  0.1143279E+00
         21   -1    0    0  502  503  0.00000000000E+00  0.00000000000E+00  0.27974821310E+03  0.27974821310E+03  0.00000000000E+00 0. -1.
         21   -1    0    0  503  504 -0.00000000000E+00 -0.00000000000E+00 -0.16026050792E+03  0.16026050792E+03  0.00000000000E+00 0. -1.
         -6    2    1    2    0  504  0.10706203715E+03 -0.18327004579E+02  0.10505552987E+03  0.23091259254E+03  0.17460183888E+03 0.  0.
        -24    2    3    3    0    0  0.89392074313E+02 -0.36358303029E+02  0.27926880341E+01  0.12547477138E+03  0.80145180752E+02 0.  0.
          6    2    1    2  502    0 -0.10706203715E+03  0.18327004579E+02  0.14432175318E+02  0.20909612848E+03  0.17808633964E+03 0.  0.
         24    2    5    5    0    0 -0.49076483082E+02  0.83103595793E+02  0.10917031593E+02  0.12195958342E+03  0.73758047591E+02 0.  0.
          2    1    6    6  501    0 -0.58776101889E+02  0.48072069810E+02 -0.14894004292E+02  0.77378197271E+02  0.00000000000E+00 0. -1.
         -1    1    6    6    0  501  0.96996188073E+01  0.35031525983E+02  0.25811035885E+02  0.44581386151E+02  0.00000000000E+00 0.  1.
          5    1    5    5  502    0 -0.57985554068E+02 -0.64776591214E+02  0.35151437242E+01  0.87136545062E+02  0.47000000000E+01 0. -1.
         11    1    4    4    0    0  0.52917789293E+02 -0.28795901290E+02  0.40403764576E+02  0.72539372390E+02  0.00000000000E+00 0. -1.
        -12    1    4    4    0    0  0.36474285020E+02 -0.75624017389E+01 -0.37611076542E+02  0.52935398992E+02  0.00000000000E+00 0.  1.
         -5    1    3    3    0  504  0.17669962837E+02  0.18031298450E+02  0.10226284183E+03  0.10543782116E+03  0.47000000000E+01 0.  1.
<mgrwt>
<rscale>  2 0.20785177E+03</rscale>
<asrwt>0</asrwt>
<pdfrwt beam="1">  1       21 0.43038187E-01 0.20859747E+03</pdfrwt>
<pdfrwt beam="2">  1       21 0.24655463E-01 0.20859747E+03</pdfrwt>
<totfact> 0.80194268E+04</totfact>
</mgrwt>
</event>
<event>
12    1  0.2736842E-001  0.2531699E+03  0.7546771E-02  0.1111400E+00
         21   -1    0    0  502  503  0.00000000000E+00  0.00000000000E+00  0.16249265925E+03  0.16249265925E+03  0.00000000000E+00 0. -1.
         21   -1    0    0  503  504 -0.00000000000E+00 -0.00000000000E+00 -0.10886948583E+04  0.10886948583E+04  0.00000000000E+00 0. -1.
         -6    2    1    2    0  504  0.16373998814E+03 -0.85469356099E+02 -0.96279216816E+03  0.99538713064E+03  0.17236875075E+03 0.  0.
        -24    2    3    3    0    0  0.76011871547E+02 -0.11456177484E+03 -0.56827072130E+03  0.59015651321E+03  0.80317448490E+02 0.  0.
          6    2    1    2  502    0 -0.16373998814E+03  0.85469356099E+02  0.36589969106E+02  0.25580038691E+03  0.17314507663E+03 0.  0.
         24    2    5    5    0    0 -0.20054360143E+02  0.69281829684E+02  0.25062217645E+02  0.11067087662E+03  0.80111041027E+02 0.  0.
          4    1    6    6  501    0 -0.39656342952E+02  0.73606152715E+02  0.31865961756E+02  0.89475866984E+02  0.00000000000E+00 0. -1.
         -3    1    6    6    0  501  0.19601982809E+02 -0.43243230314E+01 -0.68037441109E+01  0.21195009641E+02  0.00000000000E+00 0.  1.
          5    1    5    5  502    0 -0.14368562799E+03  0.16187526415E+02  0.11527751461E+02  0.14512951029E+03  0.47000000000E+01 0. -1.
         13    1    4    4    0    0  0.10802044371E+02 -0.77547900625E+02 -0.36970685780E+03  0.37790676332E+03  0.00000000000E+00 0. -1.
        -14    1    4    4    0    0  0.65209827176E+02 -0.37013874219E+02 -0.19856386349E+03  0.21224974989E+03  0.00000000000E+00 0.  1.
         -5    1    3    3    0  504  0.87728116589E+02  0.29092418745E+02 -0.39452144686E+03  0.40523061743E+03  0.47000000000E+01 0.  1.
<mgrwt>
<rscale>  2 0.25303725E+03</rscale>
<asrwt>0</asrwt>
<pdfrwt beam="1">  1       21 0.24998870E-01 0.25316993E+03</pdfrwt>
<pdfrwt beam="2">  1       21 0.16749152E+00 0.25316993E+03</pdfrwt>
<totfact> 0.32037324E+03</totfact>
</mgrwt>
</event>
<event>
12    1  0.2736842E-001  0.1738600E+03  0.7546771E-02  0.1173978E+00
         21   -1    0    0  502  503  0.00000000000E+00  0.00000000000E+00  0.55958495742E+02  0.55958495742E+02  0.00000000000E+00 0.  1.
         21   -1    0    0  503  504 -0.00000000000E+00 -0.00000000000E+00 -0.13056470965E+04  0.13056470965E+04  0.00000000000E+00 0.  1.
         -6    2    1    2    0  504 -0.13354579920E+02 -0.11185716143E+02 -0.11468151734E+04  0.11599191170E+04  0.17298511775E+03 0.  0.
        -24    2    3    3    0    0 -0.66040630352E+02 -0.24626431713E+02 -0.52417733305E+03  0.53489396311E+03  0.79886477528E+02 0.  0.
          6    2    1    2  502    0  0.13354579920E+02  0.11185716143E+02 -0.10287342736E+03  0.20168647526E+03  0.17260077402E+03 0.  0.
         24    2    5    5    0    0 -0.15383301374E+02 -0.50515923413E+02 -0.91712111976E+02  0.13255165692E+03  0.79814320708E+02 0.  0.
          2    1    6    6  501    0 -0.21750079517E+02 -0.19445710826E+02 -0.96193667645E+02  0.10052076066E+03  0.00000000000E+00 0. -1.
         -1    1    6    6    0  501  0.63667781432E+01 -0.31070212587E+02  0.44815556691E+01  0.32030896262E+02  0.00000000000E+00 0.  1.
          5    1    5    5  502    0  0.28737881294E+02  0.61701639556E+02 -0.11161315386E+02  0.69134818335E+02  0.47000000000E+01 0. -1.
         13    1    4    4    0    0  0.14339502011E+02 -0.48930605270E+01 -0.27774027143E+02  0.31637950993E+02  0.00000000000E+00 0. -1.
        -14    1    4    4    0    0 -0.80380132364E+02 -0.19733371186E+02 -0.49640330591E+03  0.50325601212E+03  0.00000000000E+00 0.  1.
         -5    1    3    3    0  504  0.52686050432E+02  0.13440715571E+02 -0.62263784032E+03  0.62502515385E+03  0.47000000000E+01 0.  1.
<mgrwt>
<rscale>  2 0.17376437E+03</rscale>
<asrwt>0</asrwt>
<pdfrwt beam="1">  1       21 0.86089997E-02 0.17386005E+03</pdfrwt>
<pdfrwt beam="2">  1       21 0.20086878E+00 0.17386005E+03</pdfrwt>
<totfact> 0.14215557E+04</totfact>
</mgrwt>
</event>
<event>
12    1  0.2736842E-001  0.1982825E+03  0.7546771E-02  0.1151477E+00
         21   -1    0    0  502  503  0.00000000000E+00  0.00000000000E+00  0.81800919986E+03  0.81800919986E+03  0.00000000000E+00 0. -1.
         21   -1    0    0  503  504 -0.00000000000E+00 -0.00000000000E+00 -0.47751546433E+02  0.47751546433E+02  0.00000000000E+00 0. -1.
         -6    2    1    2    0  504 -0.58929972119E+02  0.77452962249E+02  0.37890084960E+03  0.42703975783E+03  0.17124659987E+03 0.  0.
        -24    2    3    3    0    0  0.13216863086E+02  0.21096155456E+02  0.27393853889E+03  0.28768254714E+03  0.84256700605E+02 0.  0.
          6    2    1    2  502    0  0.58929972119E+02 -0.77452962249E+02  0.39135680382E+03  0.43872098845E+03  0.17275489816E+03 0.  0.
         24    2    5    5    0    0  0.96149078269E+02 -0.68377600454E+02  0.36477599190E+03  0.39185678445E+03  0.81055991512E+02 0.  0.
          2    1    6    6  501    0  0.28739716130E+02 -0.63181868022E+02  0.12789707639E+03  0.14551832146E+03  0.00000000000E+00 0. -1.
         -1    1    6    6    0  501  0.67409362139E+02 -0.51957324320E+01  0.23687891551E+03  0.24633846299E+03  0.00000000000E+00 0.  1.
          5    1    5    5  502    0 -0.37219106150E+02 -0.90753617949E+01  0.26580811926E+02  0.46864204004E+02  0.47000000000E+01 0. -1.
         11    1    4    4    0    0  0.25605781511E+02  0.13517275078E+02  0.27139872005E+03  0.27293889063E+03  0.00000000000E+00 0. -1.
        -12    1    4    4    0    0 -0.12388918425E+02  0.75788803779E+01  0.25398188322E+01  0.14743656508E+02  0.00000000000E+00 0.  1.
         -5    1    3    3    0  504 -0.72146835205E+02  0.56356806792E+02  0.10496231071E+03  0.13935721069E+03  0.47000000000E+01 0.  1.
<mgrwt>
<rscale>  2 0.19795352E+03</rscale>
<asrwt>0</asrwt>
<pdfrwt beam="1">  1       21 0.12584756E+00 0.19828252E+03</pdfrwt>
<pdfrwt beam="2">  1       21 0.73463924E-02 0.19828252E+03</pdfrwt>
<totfact> 0.65074684E+04</totfact>
</mgrwt>
</event>
<event>
12    1  0.2736842E-001  0.2293062E+03  0.7546771E-02  0.1127192E+00
         21   -1    0    0  502  503  0.00000000000E+00  0.00000000000E+00  0.10370538819E+04  0.10370538819E+04  0.00000000000E+00 0. -1.
         21   -1    0    0  503  504 -0.00000000000E+00 -0.00000000000E+00 -0.11794025085E+03  0.11794025085E+03  0.00000000000E+00 0. -1.
         -6    2    1    2    0  504  0.42921879198E+01 -0.15062070845E+03  0.23109374054E+02  0.23011308268E+03  0.17237449626E+03 0.  0.
        -24    2    3    3    0    0  0.58241291353E+02 -0.14249349407E+03  0.99123425105E+01  0.17378538952E+03  0.80041634214E+02 0.  0.
          6    2    1    2  502    0 -0.42921879198E+01  0.15062070845E+03  0.89600425698E+03  0.92488105004E+03  0.17284764251E+03 0.  0.
         24    2    5    5    0    0  0.24811305216E+02  0.27126152401E+02  0.26644231145E+03  0.28264413742E+03  0.86860658961E+02 0.  0.
          2    1    6    6  501    0  0.19167238887E+01 -0.30419581246E+02  0.11634962894E+03  0.12027577025E+03  0.00000000000E+00 0. -1.
         -1    1    6    6    0  501  0.22894581327E+02  0.57545733647E+02  0.15009268251E+03  0.16236836717E+03  0.00000000000E+00 0.  1.
          5    1    5    5  502    0 -0.29103493136E+02  0.12349455604E+03  0.62956194552E+03  0.64223691262E+03  0.47000000000E+01 0. -1.
         11    1    4    4    0    0  0.65461035595E+02 -0.84471356027E+02 -0.19024386408E+02  0.10854715311E+03  0.00000000000E+00 0. -1.
        -12    1    4    4    0    0 -0.72197442420E+01 -0.58022138039E+02  0.28936728919E+02  0.65238236411E+02  0.00000000000E+00 0.  1.
         -5    1    3    3    0  504 -0.53949103434E+02 -0.81272143804E+01  0.13197031543E+02  0.56327693157E+02  0.47000000000E+01 0.  1.
<mgrwt>
<rscale>  2 0.22921703E+03</rscale>
<asrwt>0</asrwt>
<pdfrwt beam="1">  1       21 0.15954675E+00 0.22930619E+03</pdfrwt>
<pdfrwt beam="2">  1       21 0.18144655E-01 0.22930619E+03</pdfrwt>
<totfact> 0.68201736E+03</totfact>
</mgrwt>
</event>
<event>
12    1  0.2736842E-001  0.2004638E+03  0.7546771E-02  0.1149394E+00
         21   -1    0    0  502  503  0.00000000000E+00  0.00000000000E+00  0.28201423425E+03  0.28201423425E+03  0.00000000000E+00 0. -1.
         21   -1    0    0  503  504 -0.00000000000E+00 -0.00000000000E+00 -0.28901595215E+03  0.28901595215E+03  0.00000000000E+00 0. -1.
         -6    2    1    2    0  504 -0.14687345013E+02  0.99433751464E+02 -0.20689782169E+03  0.28793270162E+03  0.17319279145E+03 0.  0.
        -24    2    3    3    0    0 -0.62034505696E+02  0.21991302313E+02 -0.14652905696E+03  0.17882007949E+03  0.78574544345E+02 0.  0.
          6    2    1    2  502    0  0.14687345013E+02 -0.99433751464E+02  0.19989610379E+03  0.28309748478E+03  0.17344435575E+03 0.  0.
         24    2    5    5    0    0 -0.51384448383E+02 -0.83642347406E+02  0.15726587821E+03  0.20275897310E+03  0.82111149732E+02 0.  0.
          2    1    6    6  501    0 -0.32516960660E+02 -0.29768908447E+02  0.10550525910E+02  0.45330500082E+02  0.00000000000E+00 0. -1.
         -1    1    6    6    0  501 -0.18867487723E+02 -0.53873438959E+02  0.14671535230E+03  0.15742847302E+03  0.00000000000E+00 0.  1.
          5    1    5    5  502    0  0.66071793396E+02 -0.15791404058E+02  0.42630225584E+02  0.80338511675E+02  0.47000000000E+01 0. -1.
         13    1    4    4    0    0 -0.14700299607E+02  0.44029138620E+02 -0.93566591228E+02  0.10444793368E+03  0.00000000000E+00 0. -1.
        -14    1    4    4    0    0 -0.47334206089E+02 -0.22037836307E+02 -0.52962465733E+02  0.74372145805E+02  0.00000000000E+00 0.  1.
         -5    1    3    3    0  504  0.47347160683E+02  0.77442449151E+02 -0.60368764723E+02  0.10911262214E+03  0.47000000000E+01 0.  1.
<mgrwt>
<rscale>  2 0.20040937E+03</rscale>
<asrwt>0</asrwt>
<pdfrwt beam="1">  1       21 0.43386805E-01 0.20046380E+03</pdfrwt>
<pdfrwt beam="2">  1       21 0.44463993E-01 0.20046380E+03</pdfrwt>
<totfact> 0.24689472E+04</totfact>
</mgrwt>
</event>
<event>
12    1  0.2736842E-001  0.2175718E+03  0.7546771E-02  0.1136204E+00
         21   -1    0    0  502  503  0.00000000000E+00  0.00000000000E+00  0.40679892052E+03  0.40679892052E+03  0.00000000000E+00 0. -1.
         21   -1    0    0  503  504 -0.00000000000E+00 -0.00000000000E+00 -0.24802103443E+03  0.24802103443E+03  0.00000000000E+00 0. -1.
         -6    2    1    2    0  504  0.76268219656E+02  0.10273952152E+03 -0.16063504383E+03  0.26834602471E+03  0.17272440783E+03 0.  0.
        -24    2    3    3    0    0  0.50816752116E+02 -0.11628138526E+02 -0.56268551470E+02  0.11136770267E+03  0.80740692417E+02 0.  0.
          6    2    1    2  502    0 -0.76268219656E+02 -0.10273952152E+03  0.31941292992E+03  0.38647393023E+03  0.17596939602E+03 0.  0.
         24    2    5    5    0    0 -0.88162080545E+02 -0.10724339080E+02  0.22536499654E+03  0.25427952225E+03  0.77337764899E+02 0.  0.
          4    1    6    6  501    0 -0.55460771116E+02 -0.34273640335E+02  0.78793832109E+02  0.10226948486E+03  0.00000000000E+00 0. -1.
         -3    1    6    6    0  501 -0.32701309429E+02  0.23549301255E+02  0.14657116443E+03  0.15201003740E+03  0.00000000000E+00 0.  1.
          5    1    5    5  502    0  0.11893860890E+02 -0.92015182441E+02  0.94047933386E+02  0.13219440798E+03  0.47000000000E+01 0. -1.
         13    1    4    4    0    0 -0.16309460274E+02  0.12509828055E+02 -0.68756715231E-01  0.20554780950E+02  0.00000000000E+00 0. -1.
        -14    1    4    4    0    0  0.67126212391E+02 -0.24137966582E+02 -0.56199794754E+02  0.90812921718E+02  0.00000000000E+00 0.  1.
         -5    1    3    3    0  504  0.25451467540E+02  0.11436766005E+03 -0.10436649236E+03  0.15697832205E+03  0.47000000000E+01 0.  1.
<mgrwt>
<rscale>  2 0.21691480E+03</rscale>
<asrwt>0</asrwt>
<pdfrwt beam="1">  1       21 0.62584449E-01 0.21757178E+03</pdfrwt>
<pdfrwt beam="2">  1       21 0.38157082E-01 0.21757178E+03</pdfrwt>
<totfact> 0.15432565E+04</totfact>
</mgrwt>
</event>
<event>
12    1  0.2736842E-001  0.2159081E+03  0.7546771E-02  0.1137264E+00
         21   -1    0    0  502  503  0.00000000000E+00  0.00000000000E+00  0.14279817506E+03  0.14279817506E+03  0.00000000000E+00 0.  1.
         21   -1    0    0  503  504 -0.00000000000E+00 -0.00000000000E+00 -0.37194368542E+03  0.37194368542E+03  0.00000000000E+00 0. -1.
         -6    2    1    2    0  504  0.11373552167E+03 -0.55169369256E+02 -0.20719315054E+03  0.29924119792E+03  0.17503389588E+03 0.  0.
        -24    2    3    3    0    0  0.42706770560E+02 -0.22939298810E+02 -0.20064480334E+03  0.22082671088E+03  0.78460304931E+02 0.  0.
          6    2    1    2  502    0 -0.11373552167E+03  0.55169369256E+02 -0.21952359819E+02  0.21550066256E+03  0.17314502958E+03 0.  0.
         24    2    5    5    0    0 -0.84382113600E+02 -0.56632676223E+00  0.43889909925E+02  0.12425711561E+03  0.79955267267E+02 0.  0.
          4    1    6    6  501    0 -0.66393760155E+02 -0.18194549393E+02 -0.52471213989E+01  0.69041330362E+02  0.00000000000E+00 0. -1.
         -3    1    6    6    0  501 -0.17988353445E+02  0.17628222631E+02  0.49137031324E+02  0.55215785244E+02  0.00000000000E+00 0.  1.
          5    1    5    5  502    0 -0.29353408075E+02  0.55735696018E+02 -0.65842269744E+02  0.91243546957E+02  0.47000000000E+01 0. -1.
         13    1    4    4    0    0  0.41000101250E+02  0.21878256280E+02 -0.86631448241E+02  0.98309074986E+02  0.00000000000E+00 0. -1.
        -14    1    4    4    0    0  0.17066693106E+01 -0.44817555090E+02 -0.11401335510E+03  0.12251763589E+03  0.00000000000E+00 0.  1.
         -5    1    3    3    0  504  0.71028751114E+02 -0.32230070447E+02 -0.65483471980E+01  0.78414487035E+02  0.47000000000E+01 0.  1.
<mgrwt>
<rscale>  2 0.21552494E+03</rscale>
<asrwt>0</asrwt>
<pdfrwt beam="1">  1       21 0.21968950E-01 0.21590807E+03</pdfrwt>
<pdfrwt beam="2">  1       21 0.57222105E-01 0.21590807E+03</pdfrwt>
<totfact> 0.54901009E+04</totfact>
</mgrwt>
</event>
<event>
12    1  0.2736842E-001  0.2963487E+03  0.7546771E-02  0.1088161E+00
         21   -1    0    0  502  503  0.00000000000E+00  0.00000000000E+00  0.12906975338E+03  0.12906975338E+03  0.00000000000E+00 0. -1.
         21   -1    0    0  503  504 -0.00000000000E+00 -0.00000000000E+00 -0.68427973405E+03  0.68427973405E+03  0.00000000000E+00 0.  1.
         -6    2    1    2    0  504 -0.41017604279E+02  0.23702009589E+03 -0.35596322603E+03  0.46317640723E+03  0.17309418307E+03 0.  0.
        -24    2    3    3    0    0 -0.79948965244E+02  0.22052556791E+03 -0.33274652722E+03  0.41471172500E+03  0.79007596673E+02 0.  0.
          6    2    1    2  502    0  0.41017604279E+02 -0.23702009589E+03 -0.19924675465E+03  0.35017308019E+03  0.15830649746E+03 0.  0.
         24    2    5    5    0    0  0.83922512848E+02 -0.15117807376E+03 -0.13900996477E+03  0.23677006085E+03  0.82695182802E+02 0.  0.
          4    1    6    6  501    0  0.78869663049E+02 -0.82213995597E+02 -0.50940811585E+02  0.12479796115E+03  0.00000000000E+00 0. -1.
         -3    1    6    6    0  501  0.50528497991E+01 -0.68964078167E+02 -0.88069153187E+02  0.11197209970E+03  0.00000000000E+00 0.  1.
          5    1    5    5  502    0 -0.42904908569E+02 -0.85842022128E+02 -0.60236789873E+02  0.11340301934E+03  0.47000000000E+01 0. -1.
         11    1    4    4    0    0 -0.31149971533E+02  0.31531170648E+02 -0.26780234842E+02  0.51785291610E+02  0.00000000000E+00 0. -1.
        -12    1    4    4    0    0 -0.48798993712E+02  0.18899439726E+03 -0.30596629238E+03  0.36292643340E+03  0.00000000000E+00 0.  1.
         -5    1    3    3    0  504  0.38931360965E+02  0.16494527979E+02 -0.23216698805E+02  0.48464682226E+02  0.47000000000E+01 0.  1.
<mgrwt>
<rscale>  2 0.29422933E+03</rscale>
<asrwt>0</asrwt>
<pdfrwt beam="1">  1       21 0.19856886E-01 0.29634872E+03</pdfrwt>
<pdfrwt beam="2">  1       21 0.10527380E+00 0.29634872E+03</pdfrwt>
<totfact> 0.16064469E+04</totfact>
</mgrwt>
</event>
<event>
12    1  0.2736842E-001  0.1812950E+03  0.7546771E-02  0.1166694E+00
         21   -1    0    0  502  503  0.00000000000E+00  0.00000000000E+00  0.12795472462E+03  0.12795472462E+03  0.00000000000E+00 0. -1.
         21   -1    0    0  503  504 -0.00000000000E+00 -0.00000000000E+00 -0.79617929087E+03  0.79617929087E+03  0.00000000000E+00 0. -1.
         -6    2    1    2    0  504  0.14051903834E+01  0.56501946879E+02 -0.71452156386E+03  0.73702100166E+03  0.17165211070E+03 0.  0.
        -24    2    3    3    0    0  0.16968249990E+02  0.60978455174E+02 -0.71280648643E+03  0.72007168187E+03  0.80024036624E+02 0.  0.
          6    2    1    2  502    0 -0.14051903834E+01 -0.56501946879E+02  0.46296997607E+02  0.18711301383E+03  0.17225975559E+03 0.  0.
         24    2    5    5    0    0  0.56197595804E+02 -0.14655610671E+01  0.46081194758E+02  0.10730561248E+03  0.78934785202E+02 0.  0.
          4    1    6    6  501    0  0.36628679877E+02  0.44738143121E+01 -0.17265048776E+02  0.40740116756E+02  0.00000000000E+00 0. -1.
         -3    1    6    6    0  501  0.19568915927E+02 -0.59393753792E+01  0.63346243534E+02  0.66565495719E+02  0.00000000000E+00 0.  1.
          5    1    5    5  502    0 -0.57602786188E+02 -0.55036385812E+02  0.21580284895E+00  0.79807401353E+02  0.47000000000E+01 0. -1.
         13    1    4    4    0    0 -0.30382995650E+02  0.22739321415E+02 -0.36628510545E+03  0.36824581686E+03  0.00000000000E+00 0. -1.
        -14    1    4    4    0    0  0.47351245640E+02  0.38239133759E+02 -0.34652138098E+03  0.35182586501E+03  0.00000000000E+00 0.  1.
         -5    1    3    3    0  504 -0.15563059606E+02 -0.44765082946E+01 -0.17150774352E+01  0.16949319793E+02  0.47000000000E+01 0.  1.
<mgrwt>
<rscale>  2 0.18115049E+03</rscale>
<asrwt>0</asrwt>
<pdfrwt beam="1">  1       21 0.19685342E-01 0.18129497E+03</pdfrwt>
<pdfrwt beam="2">  1       21 0.12248912E+00 0.18129497E+03</pdfrwt>
<totfact> 0.12027595E+04</totfact>
</mgrwt>
</event>
<event>
12    1  0.2736842E-001  0.2192836E+03  0.7546771E-02  0.1134782E+00
         21   -1    0    0  502  503  0.00000000000E+00  0.00000000000E+00  0.53990126365E+02  0.53990126365E+02  0.00000000000E+00 0. -1.
         21   -1    0    0  503  504 -0.00000000000E+00 -0.00000000000E+00 -0.91960657875E+03  0.91960657875E+03  0.00000000000E+00 0. -1.
         -6    2    1    2    0  504 -0.13389754868E+03 -0.26984481972E+02 -0.52837405365E+03  0.57133093826E+03  0.16906562227E+03 0.  0.
        -24    2    3    3    0    0 -0.56954550498E+02 -0.64011564718E+02 -0.40241201387E+03  0.41908194716E+03  0.79705384314E+02 0.  0.
          6    2    1    2  502    0  0.13389754868E+03  0.26984481972E+02 -0.33724239874E+03  0.40226576686E+03  0.17154764898E+03 0.  0.
         24    2    5    5    0    0  0.15755538133E+03  0.51766030894E+02 -0.28639478145E+03  0.34077277216E+03  0.81244638367E+02 0.  0.
          2    1    6    6  501    0  0.70041949626E+02  0.53509883658E+02 -0.91108731075E+02  0.12676743760E+03  0.00000000000E+00 0. -1.
         -1    1    6    6    0  501  0.87513431706E+02 -0.17438527638E+01 -0.19528605038E+03  0.21400533457E+03  0.00000000000E+00 0.  1.
          5    1    5    5  502    0 -0.23657832657E+02 -0.24781548921E+02 -0.50847617290E+02  0.61492994699E+02  0.47000000000E+01 0. -1.
         13    1    4    4    0    0  0.13646282266E+02 -0.37708618903E+02 -0.10871816267E+03  0.11587838389E+03  0.00000000000E+00 0. -1.
        -14    1    4    4    0    0 -0.70600832764E+02 -0.26302945815E+02 -0.29369385120E+03  0.30320356326E+03  0.00000000000E+00 0.  1.
         -5    1    3    3    0  504 -0.76942998177E+02  0.37027082746E+02 -0.12596203978E+03  0.15224899110E+03  0.47000000000E+01 0.  1.
<mgrwt>
<rscale>  2 0.21879797E+03</rscale>
<asrwt>0</asrwt>
<pdfrwt beam="1">  1       21 0.83061742E-02 0.21928363E+03</pdfrwt>
<pdfrwt beam="2">  1       21 0.14147792E+00 0.21928363E+03</pdfrwt>
<totfact> 0.38551738E+04</totfact>
</mgrwt>
</event>
<event>
12    1  0.2736842E-001  0.1969391E+03  0.7546771E-02  0.1152482E+00
         21   -1    0    0  502  503  0.00000000000E+00  0.00000000000E+00  0.29978574909E+03  0.29978574909E+03  0.00000000000E+00 0. -1.
         21   -1    0    0  503  504 -0.00000000000E+00 -0.00000000000E+00 -0.32671275425E+03  0.32671275425E+03  0.00000000000E+00 0.  1.
         -6    2    1    2    0  504 -0.29225026203E+01 -0.94487826766E+02 -0.25715869533E+03  0.32352714819E+03  0.17205444083E+03 0.  0.
        -24    2    3    3    0    0 -0.54669697004E+02 -0.28525743543E+02 -0.19379930091E+03  0.21833555438E+03  0.79433943972E+02 0.  0.
          6    2    1    2  502    0  0.29225026203E+01  0.94487826766E+02  0.23023169016E+03  0.30297135515E+03  0.17276724359E+03 0.  0.
         24    2    5    5    0    0  0.30841248895E+02  0.11301193584E+03  0.23005151586E+03  0.26913762237E+03  0.76082058018E+02 0.  0.
          4    1    6    6  501    0  0.82381549271E+01  0.77997851357E+02  0.20733212574E+03  0.22167124842E+03  0.00000000000E+00 0. -1.
         -3    1    6    6    0  501  0.22603093968E+02  0.35014084479E+02  0.22719390124E+02  0.47466373955E+02  0.00000000000E+00 0.  1.
          5    1    5    5  502    0 -0.27918746274E+02 -0.18524109071E+02  0.18017429805E+00  0.33833732770E+02  0.47000000000E+01 0. -1.
         11    1    4    4    0    0 -0.22220827844E+02  0.26823580265E+02 -0.50712464887E+02  0.61522546626E+02  0.00000000000E+00 0. -1.
        -12    1    4    4    0    0 -0.32448869160E+02 -0.55349323809E+02 -0.14308683603E+03  0.15681300775E+03  0.00000000000E+00 0.  1.
         -5    1    3    3    0  504  0.51747194384E+02 -0.65962083222E+02 -0.63359394411E+02  0.10519159382E+03  0.47000000000E+01 0.  1.
<mgrwt>
<rscale>  2 0.19678266E+03</rscale>
<asrwt>0</asrwt>
<pdfrwt beam="1">  1       21 0.46120884E-01 0.19693910E+03</pdfrwt>
<pdfrwt beam="2">  1       21 0.50263501E-01 0.19693910E+03</pdfrwt>
<totfact> 0.16932908E+04</totfact>
</mgrwt>
</event>
<event>
12    1  0.2736842E-001  0.2084310E+03  0.7546771E-02  0.1143214E+00
         21   -1    0    0  502  503  0.00000000000E+00  0.00000000000E+00  0.44144301719E+03  0.44144301719E+03  0.00000000000E+00 0. -1.
         21   -1    0    0  503  504 -0.00000000000E+00 -0.00000000000E+00 -0.13829567916E+03  0.13829567916E+03  0.00000000000E+00 0. -1.
         -6    2    1    2    0  504  0.10587190324E+02 -0.11540808001E+03 -0.53950725755E+01  0.20850082490E+03  0.17324079671E+03 0.  0.
        -24    2    3    3    0    0  0.34142037792E+02 -0.24908245941E+02 -0.50077196381E+02  0.10475289483E+03  0.81727253210E+02 0.  0.
          6    2    1    2  502    0 -0.10587190324E+02  0.11540808001E+03  0.30854241061E+03  0.37123787145E+03  0.17084503073E+03 0.  0.
         24    2    5    5    0    0  0.30274680243E+02  0.14050206187E+03  0.25700290534E+03  0.30068426775E+03  0.60853511526E+02 0.  0.
          4    1    6    6  501    0 -0.17447402449E+02  0.41578086014E+02  0.92202904914E+02  0.10263783300E+03  0.00000000000E+00 0. -1.
         -3    1    6    6    0  501  0.47722082692E+02  0.98923975860E+02  0.16480000043E+03  0.19804643475E+03  0.00000000000E+00 0.  1.
          5    1    5    5  502    0 -0.40861870567E+02 -0.25093981863E+02  0.51539505266E+02  0.70553603700E+02  0.47000000000E+01 0. -1.
         11    1    4    4    0    0  0.41324654199E+02  0.12517445728E+02 -0.50756568863E+02  0.66638148046E+02  0.00000000000E+00 0. -1.
        -12    1    4    4    0    0 -0.71826164073E+01 -0.37425691669E+02  0.67937248252E+00  0.38114746783E+02  0.00000000000E+00 0.  1.
         -5    1    3    3    0  504 -0.23554847467E+02 -0.90499834069E+02  0.44682123805E+02  0.10374793007E+03  0.47000000000E+01 0.  1.
<mgrwt>
<rscale>  2 0.20793248E+03</rscale>
<asrwt>0</asrwt>
<pdfrwt beam="1">  1       21 0.67914310E-01 0.20843101E+03</pdfrwt>
<pdfrwt beam="2">  1       21 0.21276259E-01 0.20843101E+03</pdfrwt>
<totfact> 0.40380582E+04</totfact>
</mgrwt>
</event>
<event>
12    1  0.2736842E-001  0.2436611E+03  0.7546771E-02  0.1117420E+00
         21   -1    0    0  502  503  0.00000000000E+00  0.00000000000E+00  0.52425502463E+03  0.52425502463E+03  0.00000000000E+00 0.  1.
         21   -1    0    0  503  504 -0.00000000000E+00 -0.00000000000E+00 -0.11979724312E+04  0.11979724312E+04  0.00000000000E+00 0.  1.
         -6    2    1    2    0  504  0.10941230829E+03 -0.13210869186E+03 -0.11563224016E+04  0.11817157969E+04  0.17305192419E+03 0.  0.
        -24    2    3    3    0    0 -0.73984333811E+01 -0.20628180745E+02 -0.37092498866E+03  0.37987800780E+03  0.79004398244E+02 0.  0.
          6    2    1    2  502    0 -0.10941230829E+03  0.13210869186E+03  0.48260499506E+03  0.54051165893E+03  0.17268906309E+03 0.  0.
         24    2    5    5    0    0 -0.12483275616E+03  0.46207776186E+02  0.30230708142E+03  0.34014652925E+03  0.81189373064E+02 0.  0.
          4    1    6    6  501    0  0.10018024643E+02  0.64757320170E+00  0.44870608166E+02  0.45979904806E+02  0.00000000000E+00 0. -1.
         -3    1    6    6    0  501 -0.13485078080E+03  0.45560202984E+02  0.25743647325E+03  0.29416662445E+03  0.00000000000E+00 0.  1.
          5    1    5    5  502    0  0.15420447866E+02  0.85900915672E+02  0.18029791364E+03  0.20036512968E+03  0.47000000000E+01 0. -1.
         13    1    4    4    0    0  0.31384709357E+02  0.92320676935E+01 -0.16549086763E+03  0.16869338554E+03  0.00000000000E+00 0. -1.
        -14    1    4    4    0    0 -0.38783142738E+02 -0.29860248439E+02 -0.20543412103E+03  0.21118462226E+03  0.00000000000E+00 0.  1.
         -5    1    3    3    0  504  0.11681074168E+03 -0.11148051111E+03 -0.78539741293E+03  0.80183778906E+03  0.47000000000E+01 0.  1.
<mgrwt>
<rscale>  2 0.24359667E+03</rscale>
<asrwt>0</asrwt>
<pdfrwt beam="1">  1       21 0.80654620E-01 0.24366109E+03</pdfrwt>
<pdfrwt beam="2">  1       21 0.18430345E+00 0.24366109E+03</pdfrwt>
<totfact> 0.21646390E+02</totfact>
</mgrwt>
</event>
<event>
12    1  0.2736842E-001  0.2015984E+03  0.7546771E-02  0.1149798E+00
         21   -1    0    0  502  503  0.00000000000E+00  0.00000000000E+00  0.13404658457E+03  0.13404658457E+03  0.00000000000E+00 0. -1.
         21   -1    0    0  503  504 -0.00000000000E+00 -0.00000000000E+00 -0.30496485696E+03  0.30496485696E+03  0.00000000000E+00 0. -1.
         -6    2    1    2    0  504 -0.85643854666E+02  0.26251230219E+02 -0.12963905483E+03  0.23968356503E+03  0.18060434623E+03 0.  0.
        -24    2    3    3    0    0 -0.73907893380E+02  0.84481467462E+02 -0.11084798728E+03  0.17720406810E+03  0.80712517113E+02 0.  0.
          6    2    1    2  502    0  0.85643854666E+02 -0.26251230219E+02 -0.41279217562E+02  0.19932787650E+03  0.17321556401E+03 0.  0.
         24    2    5    5    0    0  0.16362030296E+02  0.11409104472E+02 -0.76397685320E+02  0.11287749319E+03  0.80664976573E+02 0.  0.
          4    1    6    6  501    0 -0.55406187974E+01 -0.24323797448E+02 -0.64732152111E+02  0.69372884442E+02  0.00000000000E+00 0. -1.
         -3    1    6    6    0  501  0.21902649094E+02  0.35732901920E+02 -0.11665533210E+02  0.43504608744E+02  0.00000000000E+00 0.  1.
          5    1    5    5  502    0  0.69281824370E+02 -0.37660334690E+02  0.35118467758E+02  0.86450383312E+02  0.47000000000E+01 0. -1.
         11    1    4    4    0    0 -0.76225680471E+01  0.56609709049E+02 -0.81533847435E+02  0.99551649810E+02  0.00000000000E+00 0. -1.
        -12    1    4    4    0    0 -0.66285325333E+02  0.27871758413E+02 -0.29314139846E+02  0.77652418291E+02  0.00000000000E+00 0.  1.
         -5    1    3    3    0  504 -0.11735961286E+02 -0.58230237244E+02 -0.18791067544E+02  0.62479496927E+02  0.47000000000E+01 0.  1.
<mgrwt>
<rscale>  2 0.19992991E+03</rscale>
<asrwt>0</asrwt>
<pdfrwt beam="1">  1       21 0.20622551E-01 0.20159843E+03</pdfrwt>
<pdfrwt beam="2">  1       21 0.46917670E-01 0.20159843E+03</pdfrwt>
<totfact> 0.94431510E+04</totfact>
</mgrwt>
</event>
<event>
12    1  0.2736842E-001  0.2292901E+03  0.7546771E-02  0.1127266E+00
         21   -1    0    0  502  503  0.00000000000E+00  0.00000000000E+00  0.46131711072E+02  0.46131711072E+02  0.00000000000E+00 0.  1.
         21   -1    0    0  503  504 -0.00000000000E+00 -0.00000000000E+00 -0.11389065378E+04  0.11389065378E+04  0.00000000000E+00 0. -1.
         -6    2    1    2    0  504 -0.14302209263E+03  0.45252454877E+02 -0.51798736618E+03  0.56646699651E+03  0.17340946615E+03 0.  0.
        -24    2    3    3    0    0 -0.71003693150E+02  0.49749409862E+02 -0.45647768089E+03  0.47153331516E+03  0.80344669617E+02 0.  0.
          6    2    1    2  502    0  0.14302209263E+03 -0.45252454877E+02 -0.57478746053E+03  0.61857125235E+03  0.17247221747E+03 0.  0.
         24    2    5    5    0    0  0.45382960559E+02  0.63463507232E+01 -0.12600108437E+03  0.15637309325E+03  0.80475970034E+02 0.  0.
          2    1    6    6  501    0 -0.73281053485E+00  0.27529237644E+02 -0.90087287072E+02  0.94202522410E+02  0.00000000000E+00 0. -1.
         -1    1    6    6    0  501  0.46115771094E+02 -0.21182886921E+02 -0.35913797297E+02  0.62170570837E+02  0.00000000000E+00 0.  1.
          5    1    5    5  502    0  0.97639132074E+02 -0.51598805600E+02 -0.44878637616E+03  0.46219815911E+03  0.47000000000E+01 0. -1.
         11    1    4    4    0    0 -0.16151283403E+02  0.17017562813E+02 -0.31987124954E+03  0.32073053750E+03  0.00000000000E+00 0. -1.
        -12    1    4    4    0    0 -0.54852409747E+02  0.32731847048E+02 -0.13660643135E+03  0.15080277767E+03  0.00000000000E+00 0.  1.
         -5    1    3    3    0  504 -0.72018399483E+02 -0.44969549846E+01 -0.61509685292E+02  0.94933681341E+02  0.47000000000E+01 0.  1.
<mgrwt>
<rscale>  2 0.22911289E+03</rscale>
<asrwt>0</asrwt>
<pdfrwt beam="1">  1       21 0.70971864E-02 0.22929009E+03</pdfrwt>
<pdfrwt beam="2">  1       21 0.17521639E+00 0.22929009E+03</pdfrwt>
<totfact> 0.28313906E+04</totfact>
</mgrwt>
</event>
<event>
12    1  0.2736842E-001  0.1804215E+03  0.7546771E-02  0.1169324E+00
         21   -1    0    0  502  503  0.00000000000E+00  0.00000000000E+00  0.12254410859E+04  0.12254410859E+04  0.00000000000E+00 0. -1.
         21   -1    0    0  503  504 -0.00000000000E+00 -0.00000000000E+00 -0.27236018176E+02  0.27236018176E+02  0.00000000000E+00 0. -1.
         -6    2    1    2    0  504  0.31853248494E+01 -0.40091686183E+02  0.42532497103E+03  0.45901749780E+03  0.16786376235E+03 0.  0.
        -24    2    3    3    0    0 -0.10453471005E+02 -0.73633500477E+02  0.39449037971E+03  0.41122699581E+03  0.89184163119E+02 0.  0.
          6    2    1    2  502    0 -0.31853248494E+01  0.40091686183E+02  0.77288009670E+03  0.79365960628E+03  0.17588188415E+03 0.  0.
         24    2    5    5    0    0 -0.45689518537E+02  0.28301276417E+02  0.71183274463E+03  0.71819776534E+03  0.78826895554E+02 0.  0.
          4    1    6    6  501    0 -0.27483027851E+02  0.49697261185E+02  0.60750363000E+03  0.61015227202E+03  0.00000000000E+00 0. -1.
         -3    1    6    6    0  501 -0.18206490686E+02 -0.21395984769E+02  0.10432911463E+03  0.10804549332E+03  0.00000000000E+00 0.  1.
          5    1    5    5  502    0  0.42504193687E+02  0.11790409766E+02  0.61047352074E+02  0.75461840945E+02  0.47000000000E+01 0. -1.
         11    1    4    4    0    0 -0.29597032437E+02  0.30018592399E+01  0.18427481933E+03  0.18666066679E+03  0.00000000000E+00 0. -1.
        -12    1    4    4    0    0  0.19143561432E+02 -0.76635359717E+02  0.21021556038E+03  0.22456632902E+03  0.00000000000E+00 0.  1.
         -5    1    3    3    0  504  0.13638795855E+02  0.33541814294E+02  0.30834591317E+02  0.47790501987E+02  0.47000000000E+01 0.  1.
<mgrwt>
<rscale>  2 0.17843725E+03</rscale>
<asrwt>0</asrwt>
<pdfrwt beam="1">  1       21 0.18852936E+00 0.18042153E+03</pdfrwt>
<pdfrwt beam="2">  1       21 0.41901576E-02 0.18042153E+03</pdfrwt>
<totfact> 0.58249490E+04</totfact>
</mgrwt>
</event>
<event>
12    1  0.2736842E-001  0.2006449E+03  0.7546771E-02  0.1149247E+00
         21   -1    0    0  502  503  0.00000000000E+00  0.00000000000E+00  0.34164612955E+03  0.34164612955E+03  0.00000000000E+00 0. -1.
         21   -1    0    0  503  504 -0.00000000000E+00 -0.00000000000E+00 -0.34780053763E+03  0.34780053763E+03  0.00000000000E+00 0.  1.
         -6    2    1    2    0  504  0.51008793758E+02 -0.87797996350E+02 -0.28347242189E+03  0.34729671440E+03  0.17305492960E+03 0.  0.
        -24    2    3    3    0    0  0.42414346588E+02 -0.10564020799E+03 -0.29331609087E+03  0.32468705148E+03  0.80178063650E+02 0.  0.
          6    2    1    2  502    0 -0.51008793758E+02  0.87797996350E+02  0.27731801381E+03  0.34214995278E+03  0.17277420003E+03 0.  0.
         24    2    5    5    0    0 -0.27782161700E+02 -0.14679814224E+02  0.17106988272E+03  0.19264432259E+03  0.82822610426E+02 0.  0.
          4    1    6    6  501    0 -0.62879616106E+01  0.17449849273E+02  0.14462119479E+03  0.14580578069E+03  0.00000000000E+00 0. -1.
         -3    1    6    6    0  501 -0.21494200090E+02 -0.32129663497E+02  0.26448687932E+02  0.46838541899E+02  0.00000000000E+00 0.  1.
          5    1    5    5  502    0 -0.23226632058E+02  0.10247781057E+03  0.10624813109E+03  0.14950563019E+03  0.47000000000E+01 0. -1.
         13    1    4    4    0    0 -0.88861698159E+00  0.58817075769E+01 -0.79141488954E+02  0.79364723889E+02  0.00000000000E+00 0. -1.
        -14    1    4    4    0    0  0.43302963569E+02 -0.11152191557E+03 -0.21417460192E+03  0.24532232759E+03  0.00000000000E+00 0.  1.
         -5    1    3    3    0  504  0.85944471706E+01  0.17842211638E+02  0.98436689874E+01  0.22609662922E+02  0.47000000000E+01 0.  1.
<mgrwt>
<rscale>  2 0.20058440E+03</rscale>
<asrwt>0</asrwt>
<pdfrwt beam="1">  1       21 0.52560943E-01 0.20064494E+03</pdfrwt>
<pdfrwt beam="2">  1       21 0.53507775E-01 0.20064494E+03</pdfrwt>
<totfact> 0.11284659E+04</totfact>
</mgrwt>
</event>
<event>
12    1  0.2736842E-001  0.1884511E+03  0.7546771E-02  0.1160759E+00
         21   -1    0    0  502  503  0.00000000000E+00  0.00000000000E+00  0.29857280907E+02  0.29857280907E+02  0.00000000000E+00 0. -1.
         21   -1    0    0  503  504 -0.00000000000E+00 -0.00000000000E+00 -0.21557271472E+04  0.21557271472E+04  0.00000000000E+00 0. -1.
         -6    2    1    2    0  504 -0.34815570543E+01  0.67096003474E+02 -0.17977300748E+04  0.18071804796E+04  0.17191238872E+03 0.  0.
        -24    2    3    3    0    0 -0.69174313482E+02  0.70210672385E+02 -0.11191880413E+04  0.11254425384E+04  0.65760255558E+02 0.  0.
          6    2    1    2  502    0  0.34815570543E+01 -0.67096003474E+02 -0.32813979150E+03  0.37840394843E+03  0.17606768726E+03 0.  0.
         24    2    5    5    0    0  0.55642275043E+01 -0.95697213410E+02 -0.13881633436E+03  0.18686327873E+03  0.80367860303E+02 0.  0.
          4    1    6    6  501    0 -0.18110034996E+02 -0.44745225315E+02 -0.14437989619E+02  0.50384165174E+02  0.00000000000E+00 0. -1.
         -3    1    6    6    0  501  0.23674262500E+02 -0.50951988095E+02 -0.12437834474E+03  0.13647911356E+03  0.00000000000E+00 0.  1.
          5    1    5    5  502    0 -0.20826704500E+01  0.28601209936E+02 -0.18932345714E+03  0.19154066970E+03  0.47000000000E+01 0. -1.
         13    1    4    4    0    0 -0.43421839513E+02  0.55598477057E+01 -0.60262730768E+03  0.60421522657E+03  0.00000000000E+00 0. -1.
        -14    1    4    4    0    0 -0.25752473970E+02  0.64650824679E+02 -0.51656073366E+03  0.52122731184E+03  0.00000000000E+00 0.  1.
         -5    1    3    3    0  504  0.65692756428E+02 -0.31146689114E+01 -0.67854203342E+03  0.68173794124E+03  0.47000000000E+01 0.  1.
<mgrwt>
<rscale>  2 0.18747448E+03</rscale>
<asrwt>0</asrwt>
<pdfrwt beam="1">  1       21 0.45934277E-02 0.18845112E+03</pdfrwt>
<pdfrwt beam="2">  1       21 0.33165034E+00 0.18845112E+03</pdfrwt>
<totfact> 0.69902727E+03</totfact>
</mgrwt>
</event>
<event>
12    1  0.2736842E-001  0.1927881E+03  0.7546771E-02  0.1156429E+00
         21   -1    0    0  502  503  0.00000000000E+00  0.00000000000E+00  0.24656598186E+03  0.24656598186E+03  0.00000000000E+00 0. -1.
         21   -1    0    0  503  504 -0.00000000000E+00 -0.00000000000E+00 -0.26526181823E+03  0.26526181823E+03  0.00000000000E+00 0.  1.
         -6    2    1    2    0  504 -0.44723840717E+02 -0.66572835635E+02 -0.17864567403E+03  0.26132587796E+03  0.17304558148E+03 0.  0.
        -24    2    3    3    0    0 -0.25894604948E+01 -0.10056916444E+03 -0.14762254365E+03  0.19875127459E+03  0.87113670650E+02 0.  0.
          6    2    1    2  502    0  0.44723840717E+02  0.66572835635E+02  0.15994983767E+03  0.25050192212E+03  0.17531428363E+03 0.  0.
         24    2    5    5    0    0 -0.18979067072E+02  0.33820389277E+02  0.21188048241E+01  0.77113606103E+02  0.66618279733E+02 0.  0.
          4    1    6    6  501    0 -0.23785034051E+02  0.11500737495E+02  0.30719480322E+02  0.40517666258E+02  0.00000000000E+00 0. -1.
         -3    1    6    6    0  501  0.48059669790E+01  0.22319651781E+02 -0.28600675497E+02  0.36595939845E+02  0.00000000000E+00 0.  1.
          5    1    5    5  502    0  0.63702907789E+02  0.32752446358E+02  0.15783103284E+03  0.17338831602E+03  0.47000000000E+01 0. -1.
         13    1    4    4    0    0 -0.34646682555E+02 -0.78577079546E+02 -0.65881052610E+02  0.10823614523E+03  0.00000000000E+00 0. -1.
        -14    1    4    4    0    0  0.32057222061E+02 -0.21992084895E+02 -0.81741491041E+02  0.90515129353E+02  0.00000000000E+00 0.  1.
         -5    1    3    3    0  504 -0.42134380223E+02  0.33996328807E+02 -0.31023130383E+02  0.62574603378E+02  0.47000000000E+01 0.  1.
<mgrwt>
<rscale>  2 0.19227087E+03</rscale>
<asrwt>0</asrwt>
<pdfrwt beam="1">  1       21 0.37933228E-01 0.19278813E+03</pdfrwt>
<pdfrwt beam="2">  1       21 0.40809510E-01 0.19278813E+03</pdfrwt>
<totfact> 0.38766936E+04</totfact>
</mgrwt>
</event>
<event>
12    1  0.2736842E-001  0.2661882E+03  0.7546771E-02  0.1103776E+00
         21   -1    0    0  502  503  0.00000000000E+00  0.00000000000E+00  0.24666090330E+03  0.24666090330E+03  0.00000000000E+00 0. -1.
         21   -1    0    0  503  504 -0.00000000000E+00 -0.00000000000E+00 -0.29450127361E+03  0.29450127361E+03  0.00000000000E+00 0. -1.
         -6    2    1    2    0  504  0.12428467020E+03  0.15333938963E+03 -0.72370861148E+02  0.27585089315E+03  0.17859598554E+03 0.  0.
        -24    2    3    3    0    0  0.15852818521E+03  0.15000405803E+03 -0.69805423370E+02  0.24103115409E+03  0.74771767259E+02 0.  0.
          6    2    1    2  502    0 -0.12428467020E+03 -0.15333938963E+03  0.24530490837E+02  0.26531128376E+03  0.17558099172E+03 0.  0.
         24    2    5    5    0    0 -0.78885605418E+02 -0.15484703170E+02  0.28749476002E+00  0.11808763580E+03  0.86497932346E+02 0.  0.
          4    1    6    6  501    0 -0.34362089478E+02 -0.14968815698E+02  0.42545732212E+02  0.56700599345E+02  0.00000000000E+00 0. -1.
         -3    1    6    6    0  501 -0.44523515940E+02 -0.51588747217E+00 -0.42258237452E+02  0.61387036450E+02  0.00000000000E+00 0.  1.
          5    1    5    5  502    0 -0.45399064780E+02 -0.13785468646E+03  0.24242996077E+02  0.14722364796E+03  0.47000000000E+01 0. -1.
         13    1    4    4    0    0  0.71568390025E+02  0.85552552474E+02 -0.72014595187E+02  0.13276812722E+03  0.00000000000E+00 0. -1.
        -14    1    4    4    0    0  0.86959795186E+02  0.64451505556E+02  0.22091718167E+01  0.10826302687E+03  0.00000000000E+00 0.  1.
         -5    1    3    3    0  504 -0.34243515013E+02  0.33353315972E+01 -0.25654377776E+01  0.34819739061E+02  0.47000000000E+01 0.  1.
<mgrwt>
<rscale>  2 0.26568344E+03</rscale>
<asrwt>0</asrwt>
<pdfrwt beam="1">  1       21 0.37947831E-01 0.26618823E+03</pdfrwt>
<pdfrwt beam="2">  1       21 0.45307888E-01 0.26618823E+03</pdfrwt>
<totfact> 0.30202322E+04</totfact>
</mgrwt>
</event>
<event>
12    1  0.2736842E-001  0.3982349E+03  0.7546771E-02  0.1044436E+00
         21   -1    0    0  502  503  0.00000000000E+00  0.00000000000E+00  0.22175347819E+03  0.22175347819E+03  0.00000000000E+00 0. -1.
         21   -1    0    0  503  504 -0.00000000000E+00 -0.00000000000E+00 -0.85660360627E+03  0.85660360627E+03  0.00000000000E+00 0.  1.
         -6    2    1    2    0  504 -0.20752656419E+03  0.29139984154E+03 -0.53703543798E+03  0.66828541786E+03  0.17383093966E+03 0.  0.
        -24    2    3    3    0    0 -0.22945724576E+03  0.25201973630E+03 -0.44920814907E+03  0.56945490557E+03  0.79538375446E+02 0.  0.
          6    2    1    2  502    0  0.20752656419E+03 -0.29139984154E+03 -0.97814690109E+02  0.41007166660E+03  0.17495689655E+03 0.  0.
         24    2    5    5    0    0  0.19483486039E+03 -0.16115048913E+03 -0.85511791581E+02  0.27854439011E+03  0.79653046344E+02 0.  0.
          4    1    6    6  501    0  0.18807066370E+03 -0.14196702720E+03 -0.55161764465E+02  0.24200832964E+03  0.00000000000E+00 0. -1.
         -3    1    6    6    0  501  0.67641966859E+01 -0.19183461933E+02 -0.30350027116E+02  0.36536060467E+02  0.00000000000E+00 0.  1.
          5    1    5    5  502    0  0.12691703804E+02 -0.13024935241E+03 -0.12302898528E+02  0.13152727649E+03  0.47000000000E+01 0. -1.
         13    1    4    4    0    0 -0.37978234641E+02  0.93103175188E+01 -0.70185504530E+02  0.80343222271E+02  0.00000000000E+00 0. -1.
        -14    1    4    4    0    0 -0.19147901112E+03  0.24270941878E+03 -0.37902264454E+03  0.48911168330E+03  0.00000000000E+00 0.  1.
         -5    1    3    3    0  504  0.21930681566E+02  0.39380105243E+02 -0.87827288905E+02  0.98830512289E+02  0.47000000000E+01 0.  1.
<mgrwt>
<rscale>  2 0.39811153E+03</rscale>
<asrwt>0</asrwt>
<pdfrwt beam="1">  1       21 0.34115920E-01 0.39823493E+03</pdfrwt>
<pdfrwt beam="2">  1       21 0.13178517E+00 0.39823493E+03</pdfrwt>
<totfact> 0.30545880E+03</totfact>
</mgrwt>
</event>
<event>
12    1  0.2736842E-001  0.1956286E+03  0.7546771E-02  0.1153506E+00
         21   -1    0    0  502  503  0.00000000000E+00  0.00000000000E+00  0.77874204787E+03  0.77874204787E+03  0.00000000000E+00 0.  1.
         21   -1    0    0  503  504 -0.00000000000E+00 -0.00000000000E+00 -0.51169413032E+02  0.51169413032E+02  0.00000000000E+00 0.  1.
         -6    2    1    2    0  504  0.49232344697E+02 -0.78135392577E+02  0.28072819717E+03  0.34216792344E+03  0.17245754204E+03 0.  0.
        -24    2    3    3    0    0  0.15082784939E+02  0.19364384795E+02  0.78055282770E+02  0.11463594931E+03  0.80288877846E+02 0.  0.
          6    2    1    2  502    0 -0.49232344697E+02  0.78135392577E+02  0.44684443767E+03  0.48774353746E+03  0.17232191829E+03 0.  0.
         24    2    5    5    0    0 -0.61416556088E+02  0.65451393884E+02  0.15854212365E+03  0.19886700139E+03  0.79728294503E+02 0.  0.
          4    1    6    6  501    0 -0.27213116271E+02 -0.68715218216E+00  0.42549316994E+01  0.27552319667E+02  0.00000000000E+00 0. -1.
         -3    1    6    6    0  501 -0.34203439817E+02  0.66138546066E+02  0.15428719195E+03  0.17131468172E+03  0.00000000000E+00 0.  1.
          5    1    5    5  502    0  0.12184211390E+02  0.12683998693E+02  0.28830231401E+03  0.28887653608E+03  0.47000000000E+01 0. -1.
         13    1    4    4    0    0  0.16764456087E+02 -0.13026171924E+02  0.79384670863E+02  0.82174534443E+02  0.00000000000E+00 0. -1.
        -14    1    4    4    0    0 -0.16816711478E+01  0.32390556719E+02 -0.13293880933E+01  0.32461414866E+02  0.00000000000E+00 0.  1.
         -5    1    3    3    0  504  0.34149559758E+02 -0.97499777373E+02  0.20267291440E+03  0.22753197413E+03  0.47000000000E+01 0.  1.
<mgrwt>
<rscale>  2 0.19559875E+03</rscale>
<asrwt>0</asrwt>
<pdfrwt beam="1">  1       21 0.11980646E+00 0.19562865E+03</pdfrwt>
<pdfrwt beam="2">  1       21 0.78722179E-02 0.19562865E+03</pdfrwt>
<totfact> 0.65339382E+04</totfact>
</mgrwt>
</event>
<event>
12    1  0.2736842E-001  0.1798982E+03  0.7546771E-02  0.1167902E+00
         21   -1    0    0  502  503  0.00000000000E+00  0.00000000000E+00  0.20145917373E+03  0.20145917373E+03  0.00000000000E+00 0. -1.
         21   -1    0    0  503  504 -0.00000000000E+00 -0.00000000000E+00 -0.17100024399E+03  0.17100024399E+03  0.00000000000E+00 0. -1.
         -6    2    1    2    0  504  0.22146218682E+01  0.52594538156E+02 -0.30602383659E+02  0.18248252181E+03  0.17202405322E+03 0.  0.
        -24    2    3    3    0    0 -0.32057003317E+02 -0.26718430082E+02 -0.27856070981E+02  0.95910450927E+02  0.81739390375E+02 0.  0.
          6    2    1    2  502    0 -0.22146218682E+01 -0.52594538156E+02  0.61061313393E+02  0.18997689591E+03  0.17202222819E+03 0.  0.
         24    2    5    5    0    0 -0.19546513687E+02 -0.54768973842E+02 -0.28784992448E+02  0.98327720695E+02  0.73878671982E+02 0.  0.
          2    1    6    6  501    0 -0.27530561419E+02 -0.32452407805E+02 -0.50598550510E+02  0.66115836969E+02  0.00000000000E+00 0. -1.
         -1    1    6    6    0  501  0.79840477324E+01 -0.22316566036E+02  0.21813558062E+02  0.32211883726E+02  0.00000000000E+00 0.  1.
          5    1    5    5  502    0  0.17331891818E+02  0.21744356857E+01  0.89846305841E+02  0.91649175216E+02  0.47000000000E+01 0. -1.
         13    1    4    4    0    0  0.60552390740E+01 -0.46443597617E+02 -0.45004635425E+01  0.47052394752E+02  0.00000000000E+00 0. -1.
        -14    1    4    4    0    0 -0.38112242391E+02  0.19725167535E+02 -0.23355607438E+02  0.48858056175E+02  0.00000000000E+00 0.  1.
         -5    1    3    3    0  504  0.34271625186E+02  0.79312968238E+02 -0.27463126781E+01  0.86572070883E+02  0.47000000000E+01 0.  1.
<mgrwt>
<rscale>  2 0.17989777E+03</rscale>
<asrwt>0</asrwt>
<pdfrwt beam="1">  1       21 0.30993719E-01 0.17989821E+03</pdfrwt>
<pdfrwt beam="2">  1       21 0.26307730E-01 0.17989821E+03</pdfrwt>
<totfact> 0.13795538E+05</totfact>
</mgrwt>
</event>
<event>
12    1  0.2736842E-001  0.1849166E+03  0.7546771E-02  0.1163147E+00
         21   -1    0    0  502  503  0.00000000000E+00  0.00000000000E+00  0.21375766131E+03  0.21375766131E+03  0.00000000000E+00 0. -1.
         21   -1    0    0  503  504 -0.00000000000E+00 -0.00000000000E+00 -0.16702228310E+03  0.16702228310E+03  0.00000000000E+00 0. -1.
         -6    2    1    2    0  504  0.62020429567E+02 -0.21023300763E+02 -0.15956494982E+02  0.18560376298E+03  0.17293245572E+03 0.  0.
        -24    2    3    3    0    0 -0.18998666219E+01  0.15190136072E+02  0.42240694440E+02  0.91762300236E+02  0.80010585242E+02 0.  0.
          6    2    1    2  502    0 -0.62020429567E+02  0.21023300763E+02  0.62691873200E+02  0.19517618143E+03  0.17284373860E+03 0.  0.
         24    2    5    5    0    0 -0.41685761957E+02 -0.47659270493E+02  0.28352360298E+01  0.10171120770E+03  0.79548867968E+02 0.  0.
          4    1    6    6  501    0  0.17944106663E+02 -0.14642923771E+02 -0.19193408516E+02  0.30079779104E+02  0.00000000000E+00 0. -1.
         -3    1    6    6    0  501 -0.59629868620E+02 -0.33016346723E+02  0.22028644546E+02  0.71631428598E+02  0.00000000000E+00 0.  1.
          5    1    5    5  502    0 -0.20334667610E+02  0.68682571256E+02  0.59856637170E+02  0.93464973731E+02  0.47000000000E+01 0. -1.
         11    1    4    4    0    0  0.28286829732E+01 -0.27095445157E+02  0.40961929976E+02  0.49193945796E+02  0.00000000000E+00 0. -1.
        -12    1    4    4    0    0 -0.47285495950E+01  0.42285581229E+02  0.12787644643E+01  0.42568354440E+02  0.00000000000E+00 0.  1.
         -5    1    3    3    0  504  0.63920296189E+02 -0.36213436834E+02 -0.58197189423E+02  0.93841462739E+02  0.47000000000E+01 0.  1.
<mgrwt>
<rscale>  2 0.18489585E+03</rscale>
<asrwt>0</asrwt>
<pdfrwt beam="1">  1       21 0.32885794E-01 0.18491659E+03</pdfrwt>
<pdfrwt beam="2">  1       21 0.25695736E-01 0.18491659E+03</pdfrwt>
<totfact> 0.12826864E+05</totfact>
</mgrwt>
</event>
<event>
12    1  0.2736842E-001  0.2183871E+03  0.7546771E-02  0.1136295E+00
         21   -1    0    0  502  503  0.00000000000E+00  0.00000000000E+00  0.23543731765E+03  0.23543731765E+03  0.00000000000E+00 0. -1.
         21   -1    0    0  503  504 -0.00000000000E+00 -0.00000000000E+00 -0.36046282782E+03  0.36046282782E+03  0.00000000000E+00 0.  1.
         -6    2    1    2    0  504  0.11769344315E+03 -0.58012184101E+02 -0.26378190493E+03  0.34245266728E+03  0.17457312477E+03 0.  0.
        -24    2    3    3    0    0  0.12846231396E+03 -0.74205653846E+02 -0.14587646411E+03  0.22286178127E+03  0.79864795745E+02 0.  0.
          6    2    1    2  502    0 -0.11769344315E+03  0.58012184101E+02  0.13875639476E+03  0.25344747819E+03  0.16662871016E+03 0.  0.
         24    2    5    5    0    0 -0.10823299589E+02 -0.23904541262E+02  0.65672800940E+02  0.10016708426E+03  0.70936288868E+02 0.  0.
          2    1    6    6  501    0 -0.51707789192E+01 -0.40406548955E+02  0.71062319257E+02  0.81910190888E+02  0.00000000000E+00 0. -1.
         -1    1    6    6    0  501 -0.56525206698E+01  0.16502007693E+02 -0.53895183171E+01  0.18256893369E+02  0.00000000000E+00 0.  1.
          5    1    5    5  502    0 -0.10687014356E+03  0.81916725363E+02  0.73083593825E+02  0.15328039393E+03  0.47000000000E+01 0. -1.
         11    1    4    4    0    0  0.11210066055E+02 -0.43209270883E+02 -0.23012921226E+02  0.50222517008E+02  0.00000000000E+00 0. -1.
        -12    1    4    4    0    0  0.11725224790E+03 -0.30996382963E+02 -0.12286354288E+03  0.17263926426E+03  0.00000000000E+00 0.  1.
         -5    1    3    3    0  504 -0.10768870810E+02  0.16193469745E+02 -0.11790544082E+03  0.11959088601E+03  0.47000000000E+01 0.  1.
<mgrwt>
<rscale>  2 0.21679560E+03</rscale>
<asrwt>0</asrwt>
<pdfrwt beam="1">  1       21 0.36221126E-01 0.21838712E+03</pdfrwt>
<pdfrwt beam="2">  1       21 0.55455820E-01 0.21838712E+03</pdfrwt>
<totfact> 0.22200860E+04</totfact>
</mgrwt>
</event>
<event>
12    1  0.2736842E-001  0.2377119E+03  0.7546771E-02  0.1121340E+00
         21   -1    0    0  502  503  0.00000000000E+00  0.00000000000E+00  0.75436514582E+02  0.75436514582E+02  0.00000000000E+00 0. -1.
         21   -1    0    0  503  504 -0.00000000000E+00 -0.00000000000E+00 -0.80346628856E+03  0.80346628856E+03  0.00000000000E+00 0. -1.
         -6    2    1    2    0  504 -0.34714745465E+02 -0.15898925574E+03 -0.47869418540E+03  0.53446709998E+03  0.17327510158E+03 0.  0.
        -24    2    3    3    0    0 -0.81243317519E+02 -0.14515164320E+03 -0.41485972022E+03  0.45413456309E+03  0.80374982204E+02 0.  0.
          6    2    1    2  502    0  0.34714745465E+02  0.15898925574E+03 -0.24933558858E+03  0.34443570316E+03  0.17316183440E+03 0.  0.
         24    2    5    5    0    0  0.16069694821E+02  0.10367726217E+03 -0.25291522510E+03  0.28576749760E+03  0.81790841894E+02 0.  0.
          2    1    6    6  501    0  0.45999086591E+02  0.81352491584E+02 -0.15526134145E+03  0.18121872973E+03  0.00000000000E+00 0. -1.
         -1    1    6    6    0  501 -0.29929391770E+02  0.22324770582E+02 -0.97653883643E+02  0.10454876787E+03  0.00000000000E+00 0.  1.
          5    1    5    5  502    0  0.18645050645E+02  0.55311993571E+02  0.35796365212E+01  0.58668205563E+02  0.47000000000E+01 0. -1.
         13    1    4    4    0    0 -0.70387128759E+02 -0.10184085839E+03 -0.37270873409E+03  0.39273108968E+03  0.00000000000E+00 0. -1.
        -14    1    4    4    0    0 -0.10856188760E+02 -0.43310784806E+02 -0.42150986130E+02  0.61403473409E+02  0.00000000000E+00 0.  1.
         -5    1    3    3    0  504  0.46528572054E+02 -0.13837612538E+02 -0.63834465184E+02  0.80332536891E+02  0.47000000000E+01 0.  1.
<mgrwt>
<rscale>  2 0.23769128E+03</rscale>
<asrwt>0</asrwt>
<pdfrwt beam="1">  1       21 0.11605618E-01 0.23771192E+03</pdfrwt>
<pdfrwt beam="2">  1       21 0.12361019E+00 0.23771192E+03</pdfrwt>
<totfact> 0.29801130E+04</totfact>
</mgrwt>
</event>
<event>
12    1  0.2736842E-001  0.2492273E+03  0.7546771E-02  0.1113989E+00
         21   -1    0    0  502  503  0.00000000000E+00  0.00000000000E+00  0.12333104484E+04  0.12333104484E+04  0.00000000000E+00 0. -1.
         21   -1    0    0  503  504 -0.00000000000E+00 -0.00000000000E+00 -0.50932727818E+02  0.50932727818E+02  0.00000000000E+00 0.  1.
         -6    2    1    2    0  504 -0.17288502569E+03 -0.46403054234E+02  0.51131616619E+03  0.56882198684E+03  0.17341209693E+03 0.  0.
        -24    2    3    3    0    0 -0.16139543117E+03 -0.58631426468E+02  0.51732499856E+03  0.55038995125E+03  0.76274602079E+02 0.  0.
          6    2    1    2  502    0  0.17288502569E+03  0.46403054234E+02  0.67106155435E+03  0.71542118933E+03  0.17164321386E+03 0.  0.
         24    2    5    5    0    0  0.27993048335E+02  0.87034431314E+01  0.35800181224E+03  0.36837157053E+03  0.81688161498E+02 0.  0.
          4    1    6    6  501    0  0.26122777165E+02  0.14932442120E+02  0.36023928540E+03  0.36149373447E+03  0.00000000000E+00 0. -1.
         -3    1    6    6    0  501  0.18702711703E+01 -0.62289989884E+01 -0.22374731643E+01  0.68778360557E+01  0.00000000000E+00 0.  1.
          5    1    5    5  502    0  0.14489197736E+03  0.37699611103E+02  0.31305974211E+03  0.34704961880E+03  0.47000000000E+01 0. -1.
         13    1    4    4    0    0 -0.83682682396E+02 -0.70059108301E+02  0.28798145455E+03  0.30796816094E+03  0.00000000000E+00 0. -1.
        -14    1    4    4    0    0 -0.77712748775E+02  0.11427681833E+02  0.22934354401E+03  0.24242179031E+03  0.00000000000E+00 0.  1.
         -5    1    3    3    0  504 -0.11489594521E+02  0.12228372234E+02 -0.60088323752E+01  0.18432035597E+02  0.47000000000E+01 0.  1.
<mgrwt>
<rscale>  2 0.24891982E+03</rscale>
<asrwt>0</asrwt>
<pdfrwt beam="1">  1       21 0.18974005E+00 0.24922727E+03</pdfrwt>
<pdfrwt beam="2">  1       21 0.78358052E-02 0.24922727E+03</pdfrwt>
<totfact> 0.18749547E+04</totfact>
</mgrwt>
</event>
<event>
12    1  0.2736842E-001  0.1854743E+03  0.7546771E-02  0.1162928E+00
         21   -1    0    0  502  503  0.00000000000E+00  0.00000000000E+00  0.49149420854E+03  0.49149420854E+03  0.00000000000E+00 0.  1.
         21   -1    0    0  503  504 -0.00000000000E+00 -0.00000000000E+00 -0.90528676739E+02  0.90528676739E+02  0.00000000000E+00 0.  1.
         -6    2    1    2    0  504  0.28251482650E+02 -0.60353771801E+02  0.59576550452E+02  0.19350371584E+03  0.17162050762E+03 0.  0.
        -24    2    3    3    0    0  0.71897214425E+02 -0.68032595721E+02  0.73099490275E+02  0.14693254299E+03  0.80299397187E+02 0.  0.
          6    2    1    2  502    0 -0.28251482650E+02  0.60353771801E+02  0.34138898135E+03  0.38851916944E+03  0.17308952711E+03 0.  0.
         24    2    5    5    0    0 -0.34206463755E+02  0.90014754347E+02  0.33431380381E+03  0.35709650528E+03  0.80495071313E+02 0.  0.
          4    1    6    6  501    0 -0.26490930675E+02  0.92491772230E+02  0.19397904574E+03  0.21652798324E+03  0.00000000000E+00 0. -1.
         -3    1    6    6    0  501 -0.77155330795E+01 -0.24770178827E+01  0.14033475807E+03  0.14056852205E+03  0.00000000000E+00 0.  1.
          5    1    5    5  502    0  0.59549811043E+01 -0.29660982546E+02  0.70751775411E+01  0.31422664158E+02  0.47000000000E+01 0. -1.
         11    1    4    4    0    0  0.61784168359E+02 -0.20600124416E+02  0.73801057041E+02  0.98428880955E+02  0.00000000000E+00 0. -1.
        -12    1    4    4    0    0  0.10113046066E+02 -0.47432471306E+02 -0.70156676590E+00  0.48503662035E+02  0.00000000000E+00 0.  1.
         -5    1    3    3    0  504 -0.43645731774E+02  0.76788239200E+01 -0.13522939824E+02  0.46571172847E+02  0.47000000000E+01 0.  1.
<mgrwt>
<rscale>  2 0.18513078E+03</rscale>
<asrwt>0</asrwt>
<pdfrwt beam="1">  1       21 0.75614492E-01 0.18547428E+03</pdfrwt>
<pdfrwt beam="2">  1       21 0.13927489E-01 0.18547428E+03</pdfrwt>
<totfact> 0.70291897E+04</totfact>
</mgrwt>
</event>
<event>
12    1  0.2736842E-001  0.1749375E+03  0.7546771E-02  0.1173202E+00
         21   -1    0    0  502  503  0.00000000000E+00  0.00000000000E+00  0.34751701404E+03  0.34751701404E+03  0.00000000000E+00 0. -1.
         21   -1    0    0  503  504 -0.00000000000E+00 -0.00000000000E+00 -0.13027235459E+03  0.13027235459E+03  0.00000000000E+00 0. -1.
         -6    2    1    2    0  504 -0.22212136196E+02  0.89618782853E+00 -0.28323666714E+02  0.17721561202E+03  0.17351933869E+03 0.  0.
        -24    2    3    3    0    0  0.27678652142E+02  0.17199823728E+02 -0.70049460966E+02  0.10999931034E+03  0.78300571990E+02 0.  0.
          6    2    1    2  502    0  0.22212136196E+02 -0.89618782853E+00  0.24556832616E+03  0.30057375661E+03  0.17189123946E+03 0.  0.
         24    2    5    5    0    0  0.45233120842E+01 -0.13178858039E+02  0.36947197638E+02  0.90791431919E+02  0.81754792185E+02 0.  0.
          4    1    6    6  501    0 -0.28005705363E+02  0.21290527511E+02  0.19938427256E+02  0.40436950627E+02  0.00000000000E+00 0. -1.
         -3    1    6    6    0  501  0.32529017448E+02 -0.34469385549E+02  0.17008770382E+02  0.50354481292E+02  0.00000000000E+00 0.  1.
          5    1    5    5  502    0  0.17688824112E+02  0.12282670210E+02  0.20862112853E+03  0.20978232469E+03  0.47000000000E+01 0. -1.
         11    1    4    4    0    0  0.29891738947E+02 -0.26591104365E+02 -0.41686575050E+02  0.57778658933E+02  0.00000000000E+00 0. -1.
        -12    1    4    4    0    0 -0.22130868051E+01  0.43790928093E+02 -0.28362885916E+02  0.52220651412E+02  0.00000000000E+00 0.  1.
         -5    1    3    3    0  504 -0.49890788338E+02 -0.16303635899E+02  0.41725794252E+02  0.67216301672E+02  0.47000000000E+01 0.  1.
<mgrwt>
<rscale>  2 0.17453244E+03</rscale>
<asrwt>0</asrwt>
<pdfrwt beam="1">  1       21 0.53464156E-01 0.17493754E+03</pdfrwt>
<pdfrwt beam="2">  1       21 0.20041901E-01 0.17493754E+03</pdfrwt>
<totfact> 0.76705792E+04</totfact>
</mgrwt>
</event>
<event>
12    1  0.2736842E-001  0.1986072E+03  0.7546771E-02  0.1150972E+00
         21   -1    0    0  502  503  0.00000000000E+00  0.00000000000E+00  0.15066273282E+04  0.15066273282E+04  0.00000000000E+00 0. -1.
         21   -1    0    0  503  504 -0.00000000000E+00 -0.00000000000E+00 -0.89173139252E+02  0.89173139252E+02  0.00000000000E+00 0. -1.
         -6    2    1    2    0  504  0.48908210304E+02 -0.84434995179E+02  0.38065074574E+02  0.20222208465E+03  0.17298421943E+03 0.  0.
        -24    2    3    3    0    0  0.15740692421E+02 -0.88662990234E+02  0.82830355477E+02  0.14615087494E+03  0.79939447216E+02 0.  0.
          6    2    1    2  502    0 -0.48908210304E+02  0.84434995179E+02  0.13793891144E+04  0.13935783828E+04  0.17269944616E+03 0.  0.
         24    2    5    5    0    0 -0.71908675759E+02  0.10114701279E+02  0.48115280306E+03  0.49196699841E+03  0.72459249242E+02 0.  0.
          2    1    6    6  501    0  0.86515961043E+00  0.23232182310E+02  0.59526909088E+02  0.63905678164E+02  0.00000000000E+00 0. -1.
         -1    1    6    6    0  501 -0.72773835369E+02 -0.13117481031E+02  0.42162589397E+03  0.42806132025E+03  0.00000000000E+00 0.  1.
          5    1    5    5  502    0  0.23000465455E+02  0.74320293899E+02  0.89823631130E+03  0.90161138438E+03  0.47000000000E+01 0. -1.
         11    1    4    4    0    0 -0.18743554245E+02 -0.30462747910E+01 -0.40235167277E+01  0.19411061349E+02  0.00000000000E+00 0. -1.
        -12    1    4    4    0    0  0.34484246666E+02 -0.85616715443E+02  0.86853872205E+02  0.12673981359E+03  0.00000000000E+00 0.  1.
         -5    1    3    3    0  504  0.33167517883E+02  0.42279950553E+01 -0.44765280904E+02  0.56071209716E+02  0.47000000000E+01 0.  1.
<mgrwt>
<rscale>  2 0.19854518E+03</rscale>
<asrwt>0</asrwt>
<pdfrwt beam="1">  1       21 0.23178880E+00 0.19860720E+03</pdfrwt>
<pdfrwt beam="2">  1       21 0.13718946E-01 0.19860720E+03</pdfrwt>
<totfact> 0.39112403E+03</totfact>
</mgrwt>
</event>
<event>
12    1  0.2736842E-001  0.1971215E+03  0.7546771E-02  0.1155673E+00
         21   -1    0    0  502  503  0.00000000000E+00  0.00000000000E+00  0.19906704304E+02  0.19906704304E+02  0.00000000000E+00 0.  1.
         21   -1    0    0  503  504 -0.00000000000E+00 -0.00000000000E+00 -0.24476794109E+04  0.24476794109E+04  0.00000000000E+00 0.  1.
         -6    2    1    2    0  504  0.40289397000E+02  0.84060364800E+02 -0.18840594073E+04  0.18943433507E+04  0.17368793736E+03 0.  0.
        -24    2    3    3    0    0  0.59520022810E+02  0.26663098078E+02 -0.60165067095E+03  0.61049814184E+03  0.80441888458E+02 0.  0.
          6    2    1    2  502    0 -0.40289397000E+02 -0.84060364800E+02 -0.54371329925E+03  0.57324276448E+03  0.15586447577E+03 0.  0.
         24    2    5    5    0    0  0.17292503141E+02 -0.89934192305E+01 -0.26054406609E+03  0.27465002152E+03  0.84672969069E+02 0.  0.
          2    1    6    6  501    0  0.63222454735E+01  0.21503712737E+02 -0.22664450310E+03  0.22775010699E+03  0.00000000000E+00 0. -1.
         -1    1    6    6    0  501  0.10970257668E+02 -0.30497131968E+02 -0.33899562986E+02  0.46899914522E+02  0.00000000000E+00 0.  1.
          5    1    5    5  502    0 -0.57581900141E+02 -0.75066945569E+02 -0.28316923316E+03  0.29859274297E+03  0.47000000000E+01 0. -1.
         13    1    4    4    0    0 -0.19476463058E+02  0.12622554141E+02 -0.12333766485E+03  0.12550235479E+03  0.00000000000E+00 0. -1.
        -14    1    4    4    0    0  0.78996485867E+02  0.14040543938E+02 -0.47831300610E+03  0.48499578706E+03  0.00000000000E+00 0.  1.
         -5    1    3    3    0  504 -0.19230625809E+02  0.57397266721E+02 -0.12824087364E+04  0.12838452089E+04  0.47000000000E+01 0.  1.
<mgrwt>
<rscale>  2 0.19312430E+03</rscale>
<asrwt>0</asrwt>
<pdfrwt beam="1">  1       21 0.30625707E-02 0.19712149E+03</pdfrwt>
<pdfrwt beam="2">  1       21 0.37656596E+00 0.19712149E+03</pdfrwt>
<totfact> 0.73768098E+03</totfact>
</mgrwt>
</event>
<event>
12    1  0.2736842E-001  0.1979875E+03  0.7546771E-02  0.1151833E+00
         21   -1    0    0  502  503  0.00000000000E+00  0.00000000000E+00  0.14952195025E+03  0.14952195025E+03  0.00000000000E+00 0. -1.
         21   -1    0    0  503  504 -0.00000000000E+00 -0.00000000000E+00 -0.30362598379E+03  0.30362598379E+03  0.00000000000E+00 0. -1.
         -6    2    1    2    0  504 -0.22661262982E+02  0.90144492777E+02 -0.16343572246E+03  0.25672998478E+03  0.17481272062E+03 0.  0.
        -24    2    3    3    0    0 -0.68237113164E+02  0.81056560446E+02 -0.16280492659E+03  0.21001557012E+03  0.79841254790E+02 0.  0.
          6    2    1    2  502    0  0.22661262982E+02 -0.90144492777E+02  0.93316889206E+01  0.19641794926E+03  0.17278127200E+03 0.  0.
         24    2    5    5    0    0  0.25051969650E+01 -0.50575026704E+02  0.66379174599E+02  0.12397131190E+03  0.91643777833E+02 0.  0.
          2    1    6    6  501    0 -0.32902928881E+02 -0.57290270222E+02  0.29327785107E+02  0.72283447416E+02  0.00000000000E+00 0. -1.
         -1    1    6    6    0  501  0.35408125846E+02  0.67152435187E+01  0.37051389492E+02  0.51687864482E+02  0.00000000000E+00 0.  1.
          5    1    5    5  502    0  0.20156066017E+02 -0.39569466073E+02 -0.57047485678E+02  0.72446637360E+02  0.47000000000E+01 0. -1.
         11    1    4    4    0    0 -0.63287691529E+02  0.49455314012E+02 -0.54444615951E+02  0.97032861388E+02  0.00000000000E+00 0. -1.
        -12    1    4    4    0    0 -0.49494216352E+01  0.31601246434E+02 -0.10836031064E+03  0.11298270873E+03  0.00000000000E+00 0.  1.
         -5    1    3    3    0  504  0.45575850182E+02  0.90879323314E+01 -0.63079587521E+00  0.46714414663E+02  0.47000000000E+01 0.  1.
<mgrwt>
<rscale>  2 0.19753813E+03</rscale>
<asrwt>0</asrwt>
<pdfrwt beam="1">  1       21 0.23003377E-01 0.19798750E+03</pdfrwt>
<pdfrwt beam="2">  1       21 0.46711689E-01 0.19798750E+03</pdfrwt>
<totfact> 0.77679972E+04</totfact>
</mgrwt>
</event>
<event>
12    1  0.2736842E-001  0.1981245E+03  0.7546771E-02  0.1151851E+00
         21   -1    0    0  502  503  0.00000000000E+00  0.00000000000E+00  0.10041755618E+04  0.10041755618E+04  0.00000000000E+00 0. -1.
         21   -1    0    0  503  504 -0.00000000000E+00 -0.00000000000E+00 -0.43158656194E+02  0.43158656194E+02  0.00000000000E+00 0. -1.
         -6    2    1    2    0  504 -0.96860087659E+02  0.14742940669E+02  0.30795323155E+03  0.36487873482E+03  0.16941684516E+03 0.  0.
        -24    2    3    3    0    0 -0.49587577207E+02  0.57013903417E+02  0.10181454873E+03  0.14915490422E+03  0.78558704949E+02 0.  0.
          6    2    1    2  502    0  0.96860087659E+02 -0.14742940669E+02  0.65306367409E+03  0.68245548320E+03  0.17220363892E+03 0.  0.
         24    2    5    5    0    0  0.13861184010E+01 -0.51217497099E+02  0.27079843551E+03  0.28673528571E+03  0.79121287066E+02 0.  0.
          4    1    6    6  501    0  0.10452080560E+02 -0.92302435119E+01  0.14911076689E+01  0.14023793545E+02  0.00000000000E+00 0. -1.
         -3    1    6    6    0  501 -0.90659621586E+01 -0.41987253587E+02  0.26930732784E+03  0.27271149217E+03  0.00000000000E+00 0.  1.
          5    1    5    5  502    0  0.95473969258E+02  0.36474556430E+02  0.38226523858E+03  0.39572019749E+03  0.47000000000E+01 0. -1.
         11    1    4    4    0    0 -0.40565812310E+02 -0.92449782846E+01  0.32061491492E+02  0.52526126724E+02  0.00000000000E+00 0. -1.
        -12    1    4    4    0    0 -0.90217648965E+01  0.66258881702E+02  0.69753057236E+02  0.96628777494E+02  0.00000000000E+00 0.  1.
         -5    1    3    3    0  504 -0.47272510453E+02 -0.42270962748E+02  0.20613868282E+03  0.21572383060E+03  0.47000000000E+01 0.  1.
<mgrwt>
<rscale>  2 0.19751740E+03</rscale>
<asrwt>0</asrwt>
<pdfrwt beam="1">  1       21 0.15448853E+00 0.19812452E+03</pdfrwt>
<pdfrwt beam="2">  1       21 0.66397940E-02 0.19812452E+03</pdfrwt>
<totfact> 0.45666630E+04</totfact>
</mgrwt>
</event>
<event>
12    1  0.2736842E-001  0.2072373E+03  0.7546771E-02  0.1143965E+00
         21   -1    0    0  502  503  0.00000000000E+00  0.00000000000E+00  0.13243172071E+03  0.13243172071E+03  0.00000000000E+00 0.  1.
         21   -1    0    0  503  504 -0.00000000000E+00 -0.00000000000E+00 -0.34027175734E+03  0.34027175734E+03  0.00000000000E+00 0. -1.
         -6    2    1    2    0  504 -0.73648023976E+02  0.85392122946E+02 -0.15769654138E+03  0.26041407297E+03  0.17387191878E+03 0.  0.
        -24    2    3    3    0    0 -0.88894811503E+02  0.11429722619E+03 -0.98927689091E+02  0.19300607995E+03  0.80613372355E+02 0.  0.
          6    2    1    2  502    0  0.73648023976E+02 -0.85392122946E+02 -0.50143495246E+02  0.21228940508E+03  0.17273267003E+03 0.  0.
         24    2    5    5    0    0  0.10603493545E+02  0.19982804446E+02 -0.26140651931E+02  0.87082717449E+02  0.79926963198E+02 0.  0.
          2    1    6    6  501    0 -0.32004926880E+02  0.17730958578E+02 -0.25158939990E+02  0.44403541504E+02  0.00000000000E+00 0. -1.
         -1    1    6    6    0  501  0.42608420425E+02  0.22518458673E+01 -0.98171194116E+00  0.42679175944E+02  0.00000000000E+00 0.  1.
          5    1    5    5  502    0  0.63044530431E+02 -0.10537492739E+03 -0.24002843315E+02  0.12520668763E+03  0.47000000000E+01 0. -1.
         11    1    4    4    0    0 -0.76755263225E+02  0.69741609541E+02 -0.10360238542E+03  0.14659030254E+03  0.00000000000E+00 0. -1.
        -12    1    4    4    0    0 -0.12139548278E+02  0.44555616645E+02  0.46746963248E+01  0.46415777412E+02  0.00000000000E+00 0.  1.
         -5    1    3    3    0  504  0.15246787527E+02 -0.28905103240E+02 -0.58768852292E+02  0.67407993020E+02  0.47000000000E+01 0.  1.
<mgrwt>
<rscale>  2 0.20699814E+03</rscale>
<asrwt>0</asrwt>
<pdfrwt beam="1">  1       21 0.20374111E-01 0.20723728E+03</pdfrwt>
<pdfrwt beam="2">  1       21 0.52349501E-01 0.20723728E+03</pdfrwt>
<totfact> 0.76689055E+04</totfact>
</mgrwt>
</event>
<event>
12    1  0.2736842E-001  0.1829767E+03  0.7546771E-02  0.1164977E+00
         21   -1    0    0  502  503  0.00000000000E+00  0.00000000000E+00  0.29745508533E+02  0.29745508533E+02  0.00000000000E+00 0.  1.
         21   -1    0    0  503  504 -0.00000000000E+00 -0.00000000000E+00 -0.11892225474E+04  0.11892225474E+04  0.00000000000E+00 0.  1.
         -6    2    1    2    0  504  0.15122451856E+02 -0.58294425885E+02 -0.72129903484E+03  0.74412026695E+03  0.17267236427E+03 0.  0.
        -24    2    3    3    0    0  0.42714929930E+02  0.20321502914E+02 -0.28054253071E+03  0.29553338012E+03  0.79989614981E+02 0.  0.
          6    2    1    2  502    0 -0.15122451856E+02  0.58294425885E+02 -0.43817800402E+03  0.47484778898E+03  0.17278174340E+03 0.  0.
         24    2    5    5    0    0 -0.73028589105E+01 -0.32861967662E+02 -0.16944776222E+03  0.19093113399E+03  0.81295222127E+02 0.  0.
          2    1    6    6  501    0  0.14409655653E+02 -0.38830590248E+02 -0.16200409299E+03  0.16721476927E+03  0.00000000000E+00 0. -1.
         -1    1    6    6    0  501 -0.21712514563E+02  0.59686225859E+01 -0.74436692241E+01  0.23716364725E+02  0.00000000000E+00 0.  1.
          5    1    5    5  502    0 -0.78195929451E+01  0.91156393547E+02 -0.26873024181E+03  0.28391665499E+03  0.47000000000E+01 0. -1.
         13    1    4    4    0    0  0.24314715644E+02 -0.17612232307E+02 -0.33775011657E+02  0.45190126533E+02  0.00000000000E+00 0. -1.
        -14    1    4    4    0    0  0.18400214286E+02  0.37933735221E+02 -0.24676751906E+03  0.25034325358E+03  0.00000000000E+00 0.  1.
         -5    1    3    3    0  504 -0.27592478074E+02 -0.78615928799E+02 -0.44075650413E+03  0.44858688683E+03  0.47000000000E+01 0.  1.
<mgrwt>
<rscale>  2 0.18295084E+03</rscale>
<asrwt>0</asrwt>
<pdfrwt beam="1">  1       21 0.45762315E-02 0.18297666E+03</pdfrwt>
<pdfrwt beam="2">  1       21 0.18295734E+00 0.18297666E+03</pdfrwt>
<totfact> 0.54615101E+04</totfact>
</mgrwt>
</event>
<event>
12    1  0.2736842E-001  0.2256930E+03  0.7546771E-02  0.1129748E+00
         21   -1    0    0  502  503  0.00000000000E+00  0.00000000000E+00  0.36906907231E+03  0.36906907231E+03  0.00000000000E+00 0.  1.
         21   -1    0    0  503  504 -0.00000000000E+00 -0.00000000000E+00 -0.15198043509E+03  0.15198043509E+03  0.00000000000E+00 0.  1.
         -6    2    1    2    0  504 -0.14033018793E+03 -0.33002681520E+02  0.18793853092E+03  0.29369751420E+03  0.17365367779E+03 0.  0.
        -24    2    3    3    0    0 -0.59271963804E+02  0.30225704186E+02  0.37771105881E+02  0.11165188805E+03  0.81318686528E+02 0.  0.
          6    2    1    2  502    0  0.14033018793E+03  0.33002681520E+02  0.29150106307E+02  0.22735199320E+03  0.17337087842E+03 0.  0.
         24    2    5    5    0    0  0.63654433216E+02  0.79467844730E+02  0.43261358629E+02  0.13647075094E+03  0.79910546851E+02 0.  0.
          4    1    6    6  501    0 -0.18982961260E+02  0.11935515109E+02  0.41275451929E+01  0.22800130886E+02  0.00000000000E+00 0. -1.
         -3    1    6    6    0  501  0.82637394475E+02  0.67532329621E+02  0.39133813436E+02  0.11367062006E+03  0.00000000000E+00 0.  1.
          5    1    5    5  502    0  0.76675754711E+02 -0.46465163210E+02 -0.14111252322E+02  0.90881242260E+02  0.47000000000E+01 0. -1.
         13    1    4    4    0    0 -0.21310405338E+02 -0.26668609296E+02  0.13522209975E+01  0.34163966384E+02  0.00000000000E+00 0. -1.
        -14    1    4    4    0    0 -0.37961558466E+02  0.56894313482E+02  0.36418884884E+02  0.77487921665E+02  0.00000000000E+00 0.  1.
         -5    1    3    3    0  504 -0.81058224124E+02 -0.63228385706E+02  0.15016742504E+03  0.18204562615E+03  0.47000000000E+01 0.  1.
<mgrwt>
<rscale>  2 0.22563862E+03</rscale>
<asrwt>0</asrwt>
<pdfrwt beam="1">  1       21 0.56779857E-01 0.22569302E+03</pdfrwt>
<pdfrwt beam="2">  1       21 0.23381605E-01 0.22569302E+03</pdfrwt>
<totfact> 0.49380396E+04</totfact>
</mgrwt>
</event>
<event>
12    1  0.2736842E-001  0.2540414E+03  0.7546771E-02  0.1110788E+00
         21   -1    0    0  502  503  0.00000000000E+00  0.00000000000E+00  0.38417316865E+03  0.38417316865E+03  0.00000000000E+00 0.  1.
         21   -1    0    0  503  504 -0.00000000000E+00 -0.00000000000E+00 -0.28693259692E+03  0.28693259692E+03  0.00000000000E+00 0.  1.
         -6    2    1    2    0  504 -0.37251324906E+02  0.18174488844E+03 -0.16746263988E+03  0.30427092170E+03  0.17354593730E+03 0.  0.
        -24    2    3    3    0    0 -0.62111699187E+02  0.38983956367E+02 -0.69436717771E+02  0.12925694128E+03  0.80673955308E+02 0.  0.
          6    2    1    2  502    0  0.37251324906E+02 -0.18174488844E+03  0.26470321161E+03  0.36683484387E+03  0.17343917307E+03 0.  0.
         24    2    5    5    0    0 -0.15777601175E+02 -0.10488386008E+03  0.67789458074E+02  0.14885135593E+03  0.79446577847E+02 0.  0.
          4    1    6    6  501    0 -0.46048538250E+02 -0.42799358805E+02  0.25360373118E+02  0.67789390864E+02  0.00000000000E+00 0. -1.
         -3    1    6    6    0  501  0.30270937075E+02 -0.62084501271E+02  0.42429084956E+02  0.81061965061E+02  0.00000000000E+00 0.  1.
          5    1    5    5  502    0  0.53028926081E+02 -0.76861028369E+02  0.19691375354E+03  0.21798348794E+03  0.47000000000E+01 0. -1.
         13    1    4    4    0    0 -0.12818168646E+01 -0.15391120196E+02 -0.39391104444E+02  0.42310622126E+02  0.00000000000E+00 0. -1.
        -14    1    4    4    0    0 -0.60829882323E+02  0.54375076564E+02 -0.30045613327E+02  0.86946319157E+02  0.00000000000E+00 0.  1.
         -5    1    3    3    0  504  0.24860374281E+02  0.14276093208E+03 -0.98025922109E+02  0.17501398042E+03  0.47000000000E+01 0.  1.
<mgrwt>
<rscale>  2 0.25402322E+03</rscale>
<asrwt>0</asrwt>
<pdfrwt beam="1">  1       21 0.59103565E-01 0.25404145E+03</pdfrwt>
<pdfrwt beam="2">  1       21 0.44143476E-01 0.25404145E+03</pdfrwt>
<totfact> 0.12721761E+04</totfact>
</mgrwt>
</event>
<event>
12    1  0.2736842E-001  0.2932459E+03  0.7546771E-02  0.1089734E+00
         21   -1    0    0  502  503  0.00000000000E+00  0.00000000000E+00  0.90242860769E+03  0.90242860769E+03  0.00000000000E+00 0.  1.
         21   -1    0    0  503  504 -0.00000000000E+00 -0.00000000000E+00 -0.96443912631E+02  0.96443912631E+02  0.00000000000E+00 0. -1.
         -6    2    1    2    0  504 -0.54182344277E+02  0.22977125275E+03  0.50744303233E+03  0.58608157838E+03  0.17396157747E+03 0.  0.
        -24    2    3    3    0    0 -0.22801974350E+02  0.41846141956E+02  0.24168702171E+03  0.25905111793E+03  0.80148834087E+02 0.  0.
          6    2    1    2  502    0  0.54182344277E+02 -0.22977125275E+03  0.29854166273E+03  0.41279094194E+03  0.15980826744E+03 0.  0.
         24    2    5    5    0    0  0.84032705711E+02 -0.11839745617E+03  0.14225343335E+03  0.21851467658E+03  0.80207052817E+02 0.  0.
          2    1    6    6  501    0  0.65743294290E+02 -0.83273666805E+02  0.48334788861E+02  0.11658874792E+03  0.00000000000E+00 0. -1.
         -1    1    6    6    0  501  0.18289411421E+02 -0.35123789368E+02  0.93918644489E+02  0.10192592866E+03  0.00000000000E+00 0.  1.
          5    1    5    5  502    0 -0.29850361434E+02 -0.11137379658E+03  0.15628822938E+03  0.19427626536E+03  0.47000000000E+01 0. -1.
         11    1    4    4    0    0 -0.29516015548E+02  0.13938035785E+02  0.26739775573E+02  0.42195729796E+02  0.00000000000E+00 0. -1.
        -12    1    4    4    0    0  0.67140411985E+01  0.27908106171E+02  0.21494724614E+03  0.21685538814E+03  0.00000000000E+00 0.  1.
         -5    1    3    3    0  504 -0.31380369927E+02  0.18792511079E+03  0.26575601062E+03  0.32703046045E+03  0.47000000000E+01 0.  1.
<mgrwt>
<rscale>  2 0.29118218E+03</rscale>
<asrwt>0</asrwt>
<pdfrwt beam="1">  1       21 0.13883516E+00 0.29324595E+03</pdfrwt>
<pdfrwt beam="2">  1       21 0.14837526E-01 0.29324595E+03</pdfrwt>
<totfact> 0.13796895E+04</totfact>
</mgrwt>
</event>
<event>
12    1  0.2736842E-001  0.2796892E+03  0.7546771E-02  0.1095988E+00
         21   -1    0    0  502  503  0.00000000000E+00  0.00000000000E+00  0.57751024847E+03  0.57751024847E+03  0.00000000000E+00 0.  1.
         21   -1    0    0  503  504 -0.00000000000E+00 -0.00000000000E+00 -0.15698963673E+03  0.15698963673E+03  0.00000000000E+00 0.  1.
         -6    2    1    2    0  504 -0.15909429541E+03 -0.14990252389E+03  0.34802083389E+03  0.44648019027E+03  0.17448294466E+03 0.  0.
        -24    2    3    3    0    0 -0.72143900429E+01 -0.29819015923E+02  0.10897833167E+03  0.13882622490E+03  0.80344401244E+02 0.  0.
          6    2    1    2  502    0  0.15909429541E+03  0.14990252389E+03  0.72499777846E+02  0.28801969493E+03  0.17296637066E+03 0.  0.
         24    2    5    5    0    0  0.10381202636E+03  0.14663690024E+02  0.27393290091E+02  0.13504140662E+03  0.80584294612E+02 0.  0.
          2    1    6    6  501    0  0.62156075171E+00 -0.93642122794E+01 -0.17589733421E+02  0.19936738228E+02  0.00000000000E+00 0. -1.
         -1    1    6    6    0  501  0.10319046560E+03  0.24027902304E+02  0.44983023512E+02  0.11510466839E+03  0.00000000000E+00 0.  1.
          5    1    5    5  502    0  0.55282269052E+02  0.13523883387E+03  0.45106487755E+02  0.15297828831E+03  0.47000000000E+01 0. -1.
         13    1    4    4    0    0 -0.97991095720E+01 -0.46556701865E+02  0.11194190585E+03  0.12163280529E+03  0.00000000000E+00 0. -1.
        -14    1    4    4    0    0  0.25847195292E+01  0.16737685943E+02 -0.29635741843E+01  0.17193419605E+02  0.00000000000E+00 0.  1.
         -5    1    3    3    0  504 -0.15187990537E+03 -0.12008350797E+03  0.23904250222E+03  0.30765396537E+03  0.47000000000E+01 0.  1.
<mgrwt>
<rscale>  2 0.27945302E+03</rscale>
<asrwt>0</asrwt>
<pdfrwt beam="1">  1       21 0.88847729E-01 0.27968922E+03</pdfrwt>
<pdfrwt beam="2">  1       21 0.24152252E-01 0.27968922E+03</pdfrwt>
<totfact> 0.16700763E+04</totfact>
</mgrwt>
</event>
<event>
12    1  0.2736842E-001  0.2790221E+03  0.7546771E-02  0.1096232E+00
         21   -1    0    0  502  503  0.00000000000E+00  0.00000000000E+00  0.18523309061E+03  0.18523309061E+03  0.00000000000E+00 0.  1.
         21   -1    0    0  503  504 -0.00000000000E+00 -0.00000000000E+00 -0.10561579465E+04  0.10561579465E+04  0.00000000000E+00 0.  1.
         -6    2    1    2    0  504 -0.13866798254E+03 -0.16883410220E+03 -0.91708639243E+03  0.95857619298E+03  0.17345634355E+03 0.  0.
        -24    2    3    3    0    0 -0.12645154094E+03 -0.49408916463E+02 -0.49444338640E+03  0.51918932816E+03  0.81560179533E+02 0.  0.
          6    2    1    2  502    0  0.13866798254E+03  0.16883410220E+03  0.46161536501E+02  0.28281484416E+03  0.17354995010E+03 0.  0.
         24    2    5    5    0    0  0.13297403661E+03  0.57040337063E+02  0.42526636510E+02  0.17071859338E+03  0.80003930200E+02 0.  0.
          4    1    6    6  501    0  0.80507286748E+02 -0.82909758130E+01  0.13555433037E+02  0.82060424471E+02  0.00000000000E+00 0. -1.
         -3    1    6    6    0  501  0.52466749858E+02  0.65331312876E+02  0.28971203473E+02  0.88658168904E+02  0.00000000000E+00 0.  1.
          5    1    5    5  502    0  0.56939459367E+01  0.11179376513E+03  0.36348999905E+01  0.11209625079E+03  0.47000000000E+01 0. -1.
         13    1    4    4    0    0 -0.33570618879E+02  0.19692014849E+02 -0.81343672693E+02  0.90175135087E+02  0.00000000000E+00 0. -1.
        -14    1    4    4    0    0 -0.92880922058E+02 -0.69100931312E+02 -0.41309971371E+03  0.42901419307E+03  0.00000000000E+00 0.  1.
         -5    1    3    3    0  504 -0.12216441606E+02 -0.11942518573E+03 -0.42264300603E+03  0.43938686482E+03  0.47000000000E+01 0.  1.
<mgrwt>
<rscale>  2 0.27900757E+03</rscale>
<asrwt>0</asrwt>
<pdfrwt beam="1">  1       21 0.28497398E-01 0.27902213E+03</pdfrwt>
<pdfrwt beam="2">  1       21 0.16248584E+00 0.27902213E+03</pdfrwt>
<totfact> 0.26550357E+03</totfact>
</mgrwt>
</event>
<event>
12    1  0.2736842E-001  0.2366074E+03  0.7546771E-02  0.1122103E+00
         21   -1    0    0  502  503  0.00000000000E+00  0.00000000000E+00  0.55987425549E+03  0.55987425549E+03  0.00000000000E+00 0.  1.
         21   -1    0    0  503  504 -0.00000000000E+00 -0.00000000000E+00 -0.17374436423E+03  0.17374436423E+03  0.00000000000E+00 0.  1.
         -6    2    1    2    0  504  0.99310952548E+02  0.12669108494E+03 -0.46079425236E+02  0.24088346008E+03  0.17317110501E+03 0.  0.
        -24    2    3    3    0    0  0.21677425270E+02  0.82670374856E+02  0.32844851564E+02  0.12165293151E+03  0.80102121232E+02 0.  0.
          6    2    1    2  502    0 -0.99310952548E+02 -0.12669108494E+03  0.43220931650E+03  0.49273515963E+03  0.17340630892E+03 0.  0.
         24    2    5    5    0    0 -0.28613487944E+02 -0.12411989694E+02  0.91819699113E+02  0.12675015347E+03  0.81620800533E+02 0.  0.
          4    1    6    6  501    0  0.10286119866E+02 -0.16567994362E+02 -0.68012283922E+01  0.20653314667E+02  0.00000000000E+00 0. -1.
         -3    1    6    6    0  501 -0.38899607810E+02  0.41560046676E+01  0.98620927505E+02  0.10609683881E+03  0.00000000000E+00 0.  1.
          5    1    5    5  502    0 -0.70697464604E+02 -0.11427909525E+03  0.34038961738E+03  0.36598500616E+03  0.47000000000E+01 0. -1.
         13    1    4    4    0    0  0.39665584892E+02  0.86090952346E+02  0.38764302498E+02  0.10240938360E+03  0.00000000000E+00 0. -1.
        -14    1    4    4    0    0 -0.17988159622E+02 -0.34205774904E+01 -0.59194509343E+01  0.19243547914E+02  0.00000000000E+00 0.  1.
         -5    1    3    3    0  504  0.77633527277E+02  0.44020710084E+02 -0.78924276800E+02  0.11923052857E+03  0.47000000000E+01 0.  1.
<mgrwt>
<rscale>  2 0.23656427E+03</rscale>
<asrwt>0</asrwt>
<pdfrwt beam="1">  1       21 0.86134500E-01 0.23660736E+03</pdfrwt>
<pdfrwt beam="2">  1       21 0.26729902E-01 0.23660736E+03</pdfrwt>
<totfact> 0.15082666E+04</totfact>
</mgrwt>
</event>
<event>
12    1  0.2736842E-001  0.2279005E+03  0.7546771E-02  0.1129146E+00
         21   -1    0    0  502  503  0.00000000000E+00  0.00000000000E+00  0.49489006225E+03  0.49489006225E+03  0.00000000000E+00 0. -1.
         21   -1    0    0  503  504 -0.00000000000E+00 -0.00000000000E+00 -0.14257579963E+03  0.14257579963E+03  0.00000000000E+00 0. -1.
         -6    2    1    2    0  504 -0.13439167307E+03 -0.43836299131E+02  0.53095569853E+01  0.22231421205E+03  0.17150123781E+03 0.  0.
        -24    2    3    3    0    0 -0.12397493702E+03 -0.76322505624E+02 -0.33060737048E+02  0.17075617226E+03  0.82883943905E+02 0.  0.
          6    2    1    2  502    0  0.13439167307E+03  0.43836299131E+02  0.34700470563E+03  0.41515164983E+03  0.17876208691E+03 0.  0.
         24    2    5    5    0    0 -0.86406013961E+01  0.24947089887E+02  0.13122730297E+03  0.15554230628E+03  0.79219863098E+02 0.  0.
          2    1    6    6  501    0  0.53122393459E+01  0.34039111830E+02  0.14080208043E+02  0.37217378730E+02  0.00000000000E+00 0. -1.
         -1    1    6    6    0  501 -0.13952840742E+02 -0.90920219423E+01  0.11714709493E+03  0.11832492755E+03  0.00000000000E+00 0.  1.
          5    1    5    5  502    0  0.14303227447E+03  0.18889209243E+02  0.21577740265E+03  0.25960934356E+03  0.47000000000E+01 0. -1.
         13    1    4    4    0    0 -0.11534873450E+03 -0.28710263495E+02 -0.27867016484E+02  0.12209086939E+03  0.00000000000E+00 0. -1.
        -14    1    4    4    0    0 -0.86262025231E+01 -0.47612242129E+02 -0.51937205641E+01  0.48665302874E+02  0.00000000000E+00 0.  1.
         -5    1    3    3    0  504 -0.10416736054E+02  0.32486206493E+02  0.38370294033E+02  0.51558039786E+02  0.47000000000E+01 0.  1.
<mgrwt>
<rscale>  2 0.22647473E+03</rscale>
<asrwt>0</asrwt>
<pdfrwt beam="1">  1       21 0.76136932E-01 0.22790048E+03</pdfrwt>
<pdfrwt beam="2">  1       21 0.21934739E-01 0.22790048E+03</pdfrwt>
<totfact> 0.29283574E+04</totfact>
</mgrwt>
</event>
<event>
12    1  0.2736842E-001  0.2828174E+03  0.7546771E-02  0.1094221E+00
         21   -1    0    0  502  503  0.00000000000E+00  0.00000000000E+00  0.95198293588E+03  0.95198293588E+03  0.00000000000E+00 0. -1.
         21   -1    0    0  503  504 -0.00000000000E+00 -0.00000000000E+00 -0.14128479474E+03  0.14128479474E+03  0.00000000000E+00 0. -1.
         -6    2    1    2    0  504 -0.15608372741E+01  0.22330585680E+03  0.56736027095E+02  0.28800716652E+03  0.17280396204E+03 0.  0.
        -24    2    3    3    0    0 -0.61278741445E+01  0.74151555310E+02 -0.31454863650E+02  0.11460708955E+03  0.81298047531E+02 0.  0.
          6    2    1    2  502    0  0.15608372741E+01 -0.22330585680E+03  0.75396211404E+03  0.80526056410E+03  0.17354470545E+03 0.  0.
         24    2    5    5    0    0 -0.35793634527E+02 -0.22131513314E+03  0.57423595230E+03  0.62162259755E+03  0.80038443519E+02 0.  0.
          2    1    6    6  501    0 -0.62856956128E+01 -0.19245755157E+03  0.42139130454E+03  0.46330341102E+03  0.00000000000E+00 0. -1.
         -1    1    6    6    0  501 -0.29507938914E+02 -0.28857581574E+02  0.15284464777E+03  0.15831918653E+03  0.00000000000E+00 0.  1.
          5    1    5    5  502    0  0.37354471801E+02 -0.19907236621E+01  0.17972616174E+03  0.18363796655E+03  0.47000000000E+01 0. -1.
         11    1    4    4    0    0  0.23136540551E+01 -0.42646745062E+01 -0.35311787174E+02  0.35643551411E+02  0.00000000000E+00 0. -1.
        -12    1    4    4    0    0 -0.84415281996E+01  0.78416229816E+02  0.38569235247E+01  0.78963538143E+02  0.00000000000E+00 0.  1.
         -5    1    3    3    0  504  0.45670368704E+01  0.14915430149E+03  0.88190890745E+02  0.17340007696E+03  0.47000000000E+01 0.  1.
<mgrwt>
<rscale>  2 0.28270389E+03</rscale>
<asrwt>0</asrwt>
<pdfrwt beam="1">  1       21 0.14645891E+00 0.28281744E+03</pdfrwt>
<pdfrwt beam="2">  1       21 0.21736123E-01 0.28281744E+03</pdfrwt>
<totfact> 0.59067648E+03</totfact>
</mgrwt>
</event>
<event>
12    1  0.2736842E-001  0.1798320E+03  0.7546771E-02  0.1168223E+00
         21   -1    0    0  502  503  0.00000000000E+00  0.00000000000E+00  0.31906093049E+02  0.31906093049E+02  0.00000000000E+00 0. -1.
         21   -1    0    0  503  504 -0.00000000000E+00 -0.00000000000E+00 -0.13334992260E+04  0.13334992260E+04  0.00000000000E+00 0. -1.
         -6    2    1    2    0  504 -0.90935682713E+01 -0.48928721376E+02 -0.98972760967E+03  0.10059325414E+04  0.17280863360E+03 0.  0.
        -24    2    3    3    0    0 -0.14776657982E+02 -0.99076085731E+02 -0.72078056267E+03  0.73225086551E+03  0.81438873518E+02 0.  0.
          6    2    1    2  502    0  0.90935682713E+01  0.48928721376E+02 -0.31186552333E+03  0.35947277765E+03  0.17170864995E+03 0.  0.
         24    2    5    5    0    0 -0.65815566992E+01 -0.29077976666E+02 -0.94836501470E+02  0.12827061327E+03  0.81058883553E+02 0.  0.
          4    1    6    6  501    0  0.31509940264E+02 -0.31682013862E+02 -0.68874724567E+02  0.82099659086E+02  0.00000000000E+00 0. -1.
         -3    1    6    6    0  501 -0.38091496963E+02  0.26040371963E+01 -0.25961776902E+02  0.46170954187E+02  0.00000000000E+00 0.  1.
          5    1    5    5  502    0  0.15675124971E+02  0.78006698042E+02 -0.21702902186E+03  0.23120216438E+03  0.47000000000E+01 0. -1.
         11    1    4    4    0    0  0.16852278030E+02 -0.25968876394E+02 -0.41875321351E+03  0.41989598193E+03  0.00000000000E+00 0. -1.
        -12    1    4    4    0    0 -0.31628936012E+02 -0.73107209337E+02 -0.30202734916E+03  0.31235488357E+03  0.00000000000E+00 0.  1.
         -5    1    3    3    0  504  0.56830897108E+01  0.50147364355E+02 -0.26894704699E+03  0.27368167594E+03  0.47000000000E+01 0.  1.
<mgrwt>
<rscale>  2 0.17956719E+03</rscale>
<asrwt>0</asrwt>
<pdfrwt beam="1">  1       21 0.49086295E-02 0.17983197E+03</pdfrwt>
<pdfrwt beam="2">  1       21 0.20515373E+00 0.17983197E+03</pdfrwt>
<totfact> 0.34866805E+04</totfact>
</mgrwt>
</event>
<event>
12    1  0.2736842E-001  0.2117063E+03  0.7546771E-02  0.1140425E+00
         21   -1    0    0  502  503  0.00000000000E+00  0.00000000000E+00  0.14042147982E+04  0.14042147982E+04  0.00000000000E+00 0.  1.
         21   -1    0    0  503  504 -0.00000000000E+00 -0.00000000000E+00 -0.41225678866E+02  0.41225678866E+02  0.00000000000E+00 0.  1.
         -6    2    1    2    0  504 -0.45755060053E+02  0.11365283102E+03  0.33651356881E+03  0.39756880295E+03  0.17265306129E+03 0.  0.
        -24    2    3    3    0    0 -0.30784834325E+02  0.34573950993E+02  0.29027755916E+03  0.30463099841E+03  0.79974494264E+02 0.  0.
          6    2    1    2  502    0  0.45755060053E+02 -0.11365283102E+03  0.10264755505E+04  0.10478716741E+04  0.17138406593E+03 0.  0.
         24    2    5    5    0    0  0.22134862811E+02 -0.52005358968E+02  0.89736589928E+03  0.90278646958E+03  0.81014461414E+02 0.  0.
          4    1    6    6  501    0  0.43915760904E+02 -0.40280568897E+02  0.36386567367E+03  0.36871309546E+03  0.00000000000E+00 0. -1.
         -3    1    6    6    0  501 -0.21780898093E+02 -0.11724790072E+02  0.53350022560E+03  0.53407337412E+03  0.00000000000E+00 0.  1.
          5    1    5    5  502    0  0.23620197241E+02 -0.61647472051E+02  0.12910965125E+03  0.14508520453E+03  0.47000000000E+01 0. -1.
         11    1    4    4    0    0 -0.42223619596E+02 -0.65571930522E+01  0.87101253264E+02  0.97017829045E+02  0.00000000000E+00 0. -1.
        -12    1    4    4    0    0  0.11438785271E+02  0.41131144045E+02  0.20317630589E+03  0.20761316937E+03  0.00000000000E+00 0.  1.
         -5    1    3    3    0  504 -0.14970225728E+02  0.79078880026E+02  0.46236009651E+02  0.92937804542E+02  0.47000000000E+01 0.  1.
<mgrwt>
<rscale>  2 0.21144745E+03</rscale>
<asrwt>0</asrwt>
<pdfrwt beam="1">  1       21 0.21603301E+00 0.21170633E+03</pdfrwt>
<pdfrwt beam="2">  1       21 0.63424132E-02 0.21170633E+03</pdfrwt>
<totfact> 0.18796873E+04</totfact>
</mgrwt>
</event>
<event>
12    1  0.2736842E-001  0.2324625E+03  0.7546771E-02  0.1125046E+00
         21   -1    0    0  502  503  0.00000000000E+00  0.00000000000E+00  0.10030628111E+04  0.10030628111E+04  0.00000000000E+00 0. -1.
         21   -1    0    0  503  504 -0.00000000000E+00 -0.00000000000E+00 -0.73852635643E+03  0.73852635643E+03  0.00000000000E+00 0. -1.
         -6    2    1    2    0  504 -0.14339851131E+03  0.54029779832E+02 -0.70628299587E+03  0.74332607268E+03  0.17382643619E+03 0.  0.
        -24    2    3    3    0    0 -0.61035124494E+02  0.13720265566E+02 -0.15464250650E+03  0.18409633103E+03  0.77869263352E+02 0.  0.
          6    2    1    2  502    0  0.14339851131E+03 -0.54029779832E+02  0.97081945050E+03  0.99826309481E+03  0.17480403553E+03 0.  0.
         24    2    5    5    0    0  0.61419371329E+02 -0.14546169197E+02  0.23037565421E+03  0.25223451603E+03  0.81027025178E+02 0.  0.
          4    1    6    6  501    0  0.63755705861E+02  0.10544078407E+02  0.21033501369E+03  0.22003814579E+03  0.00000000000E+00 0. -1.
         -3    1    6    6    0  501 -0.23363345312E+01 -0.25090247604E+02  0.20040640521E+02  0.32196370236E+02  0.00000000000E+00 0.  1.
          5    1    5    5  502    0  0.81979139984E+02 -0.39483610635E+02  0.74044379629E+03  0.74602857879E+03  0.47000000000E+01 0. -1.
         13    1    4    4    0    0 -0.72908627221E+01  0.20590877968E+02 -0.11475598959E+03  0.11681642899E+03  0.00000000000E+00 0. -1.
        -14    1    4    4    0    0 -0.53744261772E+02 -0.68706124028E+01 -0.39886516907E+02  0.67279902045E+02  0.00000000000E+00 0.  1.
         -5    1    3    3    0  504 -0.82363386819E+02  0.40309514266E+02 -0.55164048937E+03  0.55922974164E+03  0.47000000000E+01 0.  1.
<mgrwt>
<rscale>  2 0.23227870E+03</rscale>
<asrwt>0</asrwt>
<pdfrwt beam="1">  1       21 0.15431736E+00 0.23246247E+03</pdfrwt>
<pdfrwt beam="2">  1       21 0.11361944E+00 0.23246247E+03</pdfrwt>
<totfact> 0.15950004E+02</totfact>
</mgrwt>
</event>
<event>
12    1  0.2736842E-001  0.2042773E+03  0.7546771E-02  0.1146286E+00
         21   -1    0    0  502  503  0.00000000000E+00  0.00000000000E+00  0.71499729240E+02  0.71499729240E+02  0.00000000000E+00 0. -1.
         21   -1    0    0  503  504 -0.00000000000E+00 -0.00000000000E+00 -0.68080527758E+03  0.68080527758E+03  0.00000000000E+00 0. -1.
         -6    2    1    2    0  504  0.17814373398E+02 -0.10610898515E+03 -0.44751322299E+03  0.49171727706E+03  0.17303562404E+03 0.  0.
        -24    2    3    3    0    0 -0.26226908551E+02 -0.79192358133E+01 -0.15016467536E+03  0.17545929666E+03  0.86521500404E+02 0.  0.
          6    2    1    2  502    0 -0.17814373398E+02  0.10610898515E+03 -0.16179232536E+03  0.26058772976E+03  0.17364544258E+03 0.  0.
         24    2    5    5    0    0 -0.68392730582E+02  0.66317603685E+02 -0.53678471829E+02  0.13468213187E+03  0.78627655142E+02 0.  0.
          2    1    6    6  501    0 -0.64678464090E+02  0.83241857156E+02 -0.51155065764E+02  0.11717231436E+03  0.00000000000E+00 0. -1.
         -1    1    6    6    0  501 -0.37142664921E+01 -0.16924253470E+02 -0.25234060648E+01  0.17509817511E+02  0.00000000000E+00 0.  1.
          5    1    5    5  502    0  0.50578357184E+02  0.39791381463E+02 -0.10811385353E+03  0.12590559789E+03  0.47000000000E+01 0. -1.
         13    1    4    4    0    0  0.10552387088E+02 -0.35639023105E+02 -0.33516847815E+02  0.50048695574E+02  0.00000000000E+00 0. -1.
        -14    1    4    4    0    0 -0.36779295639E+02  0.27719787292E+02 -0.11664782754E+03  0.12541060109E+03  0.00000000000E+00 0.  1.
         -5    1    3    3    0  504  0.44041281948E+02 -0.98189749335E+02 -0.29734854763E+03  0.31625798040E+03  0.47000000000E+01 0.  1.
<mgrwt>
<rscale>  2 0.20414763E+03</rscale>
<asrwt>0</asrwt>
<pdfrwt beam="1">  1       21 0.10999958E-01 0.20427728E+03</pdfrwt>
<pdfrwt beam="2">  1       21 0.10473928E+00 0.20427728E+03</pdfrwt>
<totfact> 0.50069743E+04</totfact>
</mgrwt>
</event>
<event>
12    1  0.2736842E-001  0.2476535E+03  0.7546771E-02  0.1114956E+00
         21   -1    0    0  502  503  0.00000000000E+00  0.00000000000E+00  0.14225821367E+03  0.14225821367E+03  0.00000000000E+00 0.  1.
         21   -1    0    0  503  504 -0.00000000000E+00 -0.00000000000E+00 -0.45819067055E+03  0.45819067055E+03  0.00000000000E+00 0.  1.
         -6    2    1    2    0  504  0.12771236395E+03  0.12137767782E+03 -0.23291453191E+03  0.33925115580E+03  0.17262438691E+03 0.  0.
        -24    2    3    3    0    0  0.90563245709E+02  0.43878682415E+02 -0.21607838652E+03  0.25154883504E+03  0.80373546908E+02 0.  0.
          6    2    1    2  502    0 -0.12771236395E+03 -0.12137767782E+03 -0.83017924970E+02  0.26119772842E+03  0.17403818227E+03 0.  0.
         24    2    5    5    0    0 -0.12230948179E+03 -0.14763647263E+03 -0.97862473948E+02  0.23019504991E+03  0.81587743009E+02 0.  0.
          2    1    6    6  501    0 -0.87525822384E+02 -0.14706650823E+03 -0.67333518900E+02  0.18391065818E+03  0.00000000000E+00 0. -1.
         -1    1    6    6    0  501 -0.34783659409E+02 -0.56996440400E+00 -0.30528955049E+02  0.46284391728E+02  0.00000000000E+00 0.  1.
          5    1    5    5  502    0 -0.54028821530E+01  0.26258794810E+02  0.14844548978E+02  0.31002678510E+02  0.47000000000E+01 0. -1.
         11    1    4    4    0    0  0.11219846172E+02 -0.19293103178E+02 -0.16758823076E+02  0.27909979027E+02  0.00000000000E+00 0. -1.
        -12    1    4    4    0    0  0.79343399537E+02  0.63171785593E+02 -0.19931956345E+03  0.22363885601E+03  0.00000000000E+00 0.  1.
         -5    1    3    3    0  504  0.37149118236E+02  0.77498995407E+02 -0.16836145387E+02  0.87702320758E+02  0.47000000000E+01 0.  1.
<mgrwt>
<rscale>  2 0.24740530E+03</rscale>
<asrwt>0</asrwt>
<pdfrwt beam="1">  1       21 0.21885879E-01 0.24765354E+03</pdfrwt>
<pdfrwt beam="2">  1       21 0.70490873E-01 0.24765354E+03</pdfrwt>
<totfact> 0.34615935E+04</totfact>
</mgrwt>
</event>
<event>
12    1  0.2736842E-001  0.2733858E+03  0.7546771E-02  0.1099595E+00
         21   -1    0    0  502  503  0.00000000000E+00  0.00000000000E+00  0.56465389412E+03  0.56465389412E+03  0.00000000000E+00 0.  1.
         21   -1    0    0  503  504 -0.00000000000E+00 -0.00000000000E+00 -0.28589804883E+03  0.28589804883E+03  0.00000000000E+00 0. -1.
         -6    2    1    2    0  504 -0.32069107390E+02 -0.20740488086E+03 -0.17329505685E+03  0.32226242116E+03  0.17255920465E+03 0.  0.
        -24    2    3    3    0    0 -0.78813134567E+02 -0.89784286249E+02 -0.90878465337E+02  0.17115255083E+03  0.82228778157E+02 0.  0.
          6    2    1    2  502    0  0.32069107390E+02  0.20740488086E+03  0.45205090215E+03  0.52828952179E+03  0.17519871131E+03 0.  0.
         24    2    5    5    0    0 -0.33656584660E+02  0.17105017813E+03  0.37026745670E+03  0.41714928175E+03  0.80775024890E+02 0.  0.
          4    1    6    6  501    0 -0.11528549804E+02  0.91733814459E+02  0.10754112043E+03  0.14182063588E+03  0.00000000000E+00 0. -1.
         -3    1    6    6    0  501 -0.22128034856E+02  0.79316363666E+02  0.26272633626E+03  0.27532864587E+03  0.00000000000E+00 0.  1.
          5    1    5    5  502    0  0.65725692050E+02  0.36354702737E+02  0.81783445449E+02  0.11114024004E+03  0.47000000000E+01 0. -1.
         13    1    4    4    0    0 -0.39351518144E+02 -0.26769649027E+02 -0.83920197392E+02  0.96476710244E+02  0.00000000000E+00 0. -1.
        -14    1    4    4    0    0 -0.39461616422E+02 -0.63014637222E+02 -0.69582679456E+01  0.74675840589E+02  0.00000000000E+00 0.  1.
         -5    1    3    3    0  504  0.46744027177E+02 -0.11762059461E+03 -0.82416591517E+02  0.15110987033E+03  0.47000000000E+01 0.  1.
<mgrwt>
<rscale>  2 0.27296384E+03</rscale>
<asrwt>0</asrwt>
<pdfrwt beam="1">  1       21 0.86869830E-01 0.27338581E+03</pdfrwt>
<pdfrwt beam="2">  1       21 0.43984315E-01 0.27338581E+03</pdfrwt>
<totfact> 0.53646575E+03</totfact>
</mgrwt>
</event>
<event>
12    1  0.2736842E-001  0.1820935E+03  0.7546771E-02  0.1165916E+00
         21   -1    0    0  502  503  0.00000000000E+00  0.00000000000E+00  0.22994033050E+03  0.22994033050E+03  0.00000000000E+00 0. -1.
         21   -1    0    0  503  504 -0.00000000000E+00 -0.00000000000E+00 -0.23371820192E+03  0.23371820192E+03  0.00000000000E+00 0. -1.
         -6    2    1    2    0  504 -0.18814615597E+02  0.53832452303E+02 -0.14569222211E+03  0.23320431199E+03  0.17293381644E+03 0.  0.
        -24    2    3    3    0    0  0.29835163474E+02  0.33596976435E+02 -0.15373349132E+03  0.17969704615E+03  0.81474831928E+02 0.  0.
          6    2    1    2  502    0  0.18814615597E+02 -0.53832452303E+02  0.14191435069E+03  0.23045422043E+03  0.17238776668E+03 0.  0.
         24    2    5    5    0    0  0.18330846197E+02  0.16883977451E+02  0.16251299054E+02  0.86182462914E+02  0.80884013106E+02 0.  0.
          2    1    6    6  501    0 -0.74313832520E+01  0.17499534253E+02  0.44230944004E+02  0.48143904740E+02  0.00000000000E+00 0. -1.
         -1    1    6    6    0  501  0.25762229449E+02 -0.61555680196E+00 -0.27979644951E+02  0.38038558174E+02  0.00000000000E+00 0.  1.
          5    1    5    5  502    0  0.48376940023E+00 -0.70716429754E+02  0.12566305164E+03  0.14427175752E+03  0.47000000000E+01 0. -1.
         13    1    4    4    0    0  0.15977181645E+02  0.35229039891E+02 -0.15984831353E+03  0.16446227204E+03  0.00000000000E+00 0. -1.
        -14    1    4    4    0    0  0.13857981829E+02 -0.16320634560E+01  0.61148222158E+01  0.15234774112E+02  0.00000000000E+00 0.  1.
         -5    1    3    3    0  504 -0.48649779071E+02  0.20235475869E+02  0.80412692091E+01  0.53507265841E+02  0.47000000000E+01 0.  1.
<mgrwt>
<rscale>  2 0.18196369E+03</rscale>
<asrwt>0</asrwt>
<pdfrwt beam="1">  1       21 0.35375435E-01 0.18209346E+03</pdfrwt>
<pdfrwt beam="2">  1       21 0.35956646E-01 0.18209346E+03</pdfrwt>
<totfact> 0.57736588E+04</totfact>
</mgrwt>
</event>
<event>
12    1  0.2736842E-001  0.2089666E+03  0.7546771E-02  0.1143398E+00
         21   -1    0    0  502  503  0.00000000000E+00  0.00000000000E+00  0.45740921126E+03  0.45740921126E+03  0.00000000000E+00 0. -1.
         21   -1    0    0  503  504 -0.00000000000E+00 -0.00000000000E+00 -0.94486836550E+02  0.94486836550E+02  0.00000000000E+00 0. -1.
         -6    2    1    2    0  504 -0.97047047417E+02 -0.46989072011E+02  0.14698911311E+03  0.25140610718E+03  0.17312749365E+03 0.  0.
        -24    2    3    3    0    0 -0.12587707888E+02 -0.79063074025E+02  0.96046086740E+02  0.14758220062E+03  0.78397927890E+02 0.  0.
          6    2    1    2  502    0  0.97047047417E+02  0.46989072011E+02  0.21593326160E+03  0.30048994063E+03  0.17899980070E+03 0.  0.
         24    2    5    5    0    0  0.92749844411E+02  0.51011053752E+02  0.62960667903E+02  0.14733202632E+03  0.80858017752E+02 0.  0.
          4    1    6    6  501    0  0.17536529814E+02 -0.22138610031E+01  0.51539247442E+02  0.54486008161E+02  0.00000000000E+00 0. -1.
         -3    1    6    6    0  501  0.75213314597E+02  0.53224914755E+02  0.11421420461E+02  0.92846018163E+02  0.00000000000E+00 0.  1.
          5    1    5    5  502    0  0.42972030064E+01 -0.40219817406E+01  0.15297259370E+03  0.15315791431E+03  0.47000000000E+01 0. -1.
         13    1    4    4    0    0 -0.15798917947E+02 -0.51611679168E+02  0.70996320029E+01  0.54440573191E+02  0.00000000000E+00 0. -1.
        -14    1    4    4    0    0  0.32112100591E+01 -0.27451394857E+02  0.88946454737E+02  0.93141627428E+02  0.00000000000E+00 0.  1.
         -5    1    3    3    0  504 -0.84459339529E+02  0.32074002013E+02  0.50943026370E+02  0.10382390657E+03  0.47000000000E+01 0.  1.
<mgrwt>
<rscale>  2 0.20770325E+03</rscale>
<asrwt>0</asrwt>
<pdfrwt beam="1">  1       21 0.70370646E-01 0.20896658E+03</pdfrwt>
<pdfrwt beam="2">  1       21 0.14536437E-01 0.20896658E+03</pdfrwt>
<totfact> 0.75517795E+04</totfact>
</mgrwt>
</event>
<event>
12    1  0.2736842E-001  0.1950169E+03  0.7546771E-02  0.1154222E+00
         21   -1    0    0  502  503  0.00000000000E+00  0.00000000000E+00  0.10775068418E+04  0.10775068418E+04  0.00000000000E+00 0.  1.
         21   -1    0    0  503  504 -0.00000000000E+00 -0.00000000000E+00 -0.43517343597E+02  0.43517343597E+02  0.00000000000E+00 0.  1.
         -6    2    1    2    0  504 -0.78989798779E+02  0.45790991081E+02  0.26978756130E+03  0.33233147521E+03  0.17123865804E+03 0.  0.
        -24    2    3    3    0    0  0.12012369281E+01  0.40345948894E+02  0.64806593696E+02  0.11210536919E+03  0.82088249179E+02 0.  0.
          6    2    1    2  502    0  0.78989798779E+02 -0.45790991081E+02  0.76420193688E+03  0.78869271016E+03  0.17232349682E+03 0.  0.
         24    2    5    5    0    0  0.11173947957E+03 -0.61181199643E+02  0.50626985410E+03  0.52819232736E+03  0.80306407158E+02 0.  0.
          4    1    6    6  501    0  0.12643785407E+02 -0.39486342784E+02  0.81045921345E+02  0.91035586133E+02  0.00000000000E+00 0. -1.
         -3    1    6    6    0  501  0.99095694160E+02 -0.21694856859E+02  0.42522393275E+03  0.43715674123E+03  0.00000000000E+00 0.  1.
          5    1    5    5  502    0 -0.32749680789E+02  0.15390208563E+02  0.25793208278E+03  0.26050038280E+03  0.47000000000E+01 0. -1.
         13    1    4    4    0    0  0.19486981796E+02  0.40808684941E+02  0.77577809667E+02  0.89796479769E+02  0.00000000000E+00 0. -1.
        -14    1    4    4    0    0 -0.18285744868E+02 -0.46273604648E+00 -0.12771215970E+02  0.22308889425E+02  0.00000000000E+00 0.  1.
         -5    1    3    3    0  504 -0.80191035707E+02  0.54450421866E+01  0.20498096761E+03  0.22022610602E+03  0.47000000000E+01 0.  1.
<mgrwt>
<rscale>  2 0.19477697E+03</rscale>
<asrwt>0</asrwt>
<pdfrwt beam="1">  1       21 0.16577026E+00 0.19501690E+03</pdfrwt>
<pdfrwt beam="2">  1       21 0.66949767E-02 0.19501690E+03</pdfrwt>
<totfact> 0.37292117E+04</totfact>
</mgrwt>
</event>
<event>
12    1  0.2736842E-001  0.1779306E+03  0.7546771E-02  0.1170043E+00
         21   -1    0    0  502  503  0.00000000000E+00  0.00000000000E+00  0.31764999620E+02  0.31764999620E+02  0.00000000000E+00 0.  1.
         21   -1    0    0  503  504 -0.00000000000E+00 -0.00000000000E+00 -0.21677290025E+04  0.21677290025E+04  0.00000000000E+00 0.  1.
         -6    2    1    2    0  504  0.40155770318E+02  0.11632946286E+02 -0.18767911197E+04  0.18851218209E+04  0.17202197917E+03 0.  0.
        -24    2    3    3    0    0  0.17453439487E+02 -0.40483317504E+02 -0.65210092206E+03  0.65910401069E+03  0.85082094466E+02 0.  0.
          6    2    1    2  502    0 -0.40155770318E+02 -0.11632946286E+02 -0.25917288321E+03  0.31437218125E+03  0.17294933831E+03 0.  0.
         24    2    5    5    0    0 -0.24692305009E+02  0.26340343562E+02 -0.50997645742E+02  0.10214563014E+03  0.80804989078E+02 0.  0.
          4    1    6    6  501    0 -0.41073910583E+02  0.21685514602E+02 -0.65143836210E+02  0.80006543922E+02  0.00000000000E+00 0. -1.
         -3    1    6    6    0  501  0.16381605574E+02  0.46548289602E+01  0.14146190468E+02  0.22139086218E+02  0.00000000000E+00 0.  1.
          5    1    5    5  502    0 -0.15463465309E+02 -0.37973289849E+02 -0.20817523747E+03  0.21222655111E+03  0.47000000000E+01 0. -1.
         11    1    4    4    0    0 -0.10182086207E+02 -0.26185298250E+02 -0.60717604363E+02  0.66902706997E+02  0.00000000000E+00 0. -1.
        -12    1    4    4    0    0  0.27635525694E+02 -0.14298019254E+02 -0.59138331770E+03  0.59220130369E+03  0.00000000000E+00 0.  1.
         -5    1    3    3    0  504  0.22702330831E+02  0.52116263790E+02 -0.12246901976E+04  0.12260178102E+04  0.47000000000E+01 0.  1.
<mgrwt>
<rscale>  2 0.17770482E+03</rscale>
<asrwt>0</asrwt>
<pdfrwt beam="1">  1       21 0.48869223E-02 0.17793056E+03</pdfrwt>
<pdfrwt beam="2">  1       21 0.33349682E+00 0.17793056E+03</pdfrwt>
<totfact> 0.62247329E+03</totfact>
</mgrwt>
</event>
<event>
12    1  0.2736842E-001  0.1912176E+03  0.7546771E-02  0.1157390E+00
         21   -1    0    0  502  503  0.00000000000E+00  0.00000000000E+00  0.94550485801E+03  0.94550485801E+03  0.00000000000E+00 0.  1.
         21   -1    0    0  503  504 -0.00000000000E+00 -0.00000000000E+00 -0.12657111533E+03  0.12657111533E+03  0.00000000000E+00 0. -1.
         -6    2    1    2    0  504  0.58920533500E+00 -0.82582043702E+02 -0.37257508028E+02  0.19481352575E+03  0.17246462480E+03 0.  0.
        -24    2    3    3    0    0 -0.44470560244E+02  0.38989786932E+01 -0.33216055443E+02  0.97100819069E+02  0.79576566660E+02 0.  0.
          6    2    1    2  502    0 -0.58920533500E+00  0.82582043702E+02  0.85619125071E+03  0.87726244758E+03  0.17235371489E+03 0.  0.
         24    2    5    5    0    0 -0.32884863054E+02 -0.15263624785E+02  0.28220678444E+03  0.29408405132E+03  0.74366441321E+02 0.  0.
          2    1    6    6  501    0 -0.29999134518E+02 -0.29011530686E+02  0.70603985098E+02  0.82015484491E+02  0.00000000000E+00 0. -1.
         -1    1    6    6    0  501 -0.28857285353E+01  0.13747905900E+02  0.21160279934E+03  0.21206856683E+03  0.00000000000E+00 0.  1.
          5    1    5    5  502    0  0.32295657719E+02  0.97845668488E+02  0.57398446627E+03  0.58317839626E+03  0.47000000000E+01 0. -1.
         11    1    4    4    0    0 -0.39945562096E+02 -0.33830321520E+02 -0.25899773244E+02  0.58403226276E+02  0.00000000000E+00 0. -1.
        -12    1    4    4    0    0 -0.45249981485E+01  0.37729300213E+02 -0.73162821986E+01  0.38697592794E+02  0.00000000000E+00 0.  1.
         -5    1    3    3    0  504  0.45059765579E+02 -0.86481022395E+02 -0.40414525853E+01  0.97712706684E+02  0.47000000000E+01 0.  1.
<mgrwt>
<rscale>  2 0.19119263E+03</rscale>
<asrwt>0</asrwt>
<pdfrwt beam="1">  1       21 0.14546228E+00 0.19121765E+03</pdfrwt>
<pdfrwt beam="2">  1       21 0.19472480E-01 0.19121765E+03</pdfrwt>
<totfact> 0.78695355E+03</totfact>
</mgrwt>
</event>
<event>
12    1  0.2736842E-001  0.2183593E+03  0.7546771E-02  0.1135196E+00
         21   -1    0    0  502  503  0.00000000000E+00  0.00000000000E+00  0.11898145324E+03  0.11898145324E+03  0.00000000000E+00 0.  1.
         21   -1    0    0  503  504 -0.00000000000E+00 -0.00000000000E+00 -0.51731541902E+03  0.51731541902E+03  0.00000000000E+00 0.  1.
         -6    2    1    2    0  504 -0.12055248568E+03 -0.53693220735E+02 -0.35056251299E+03  0.41277302157E+03  0.17341172989E+03 0.  0.
        -24    2    3    3    0    0  0.34110597674E+01 -0.22305527013E+02 -0.14282852535E+03  0.16879013787E+03  0.87068657532E+02 0.  0.
          6    2    1    2  502    0  0.12055248568E+03  0.53693220735E+02 -0.47771452787E+02  0.22352385070E+03  0.17396820506E+03 0.  0.
         24    2    5    5    0    0  0.53362658038E+02  0.68840283475E+02  0.27991964995E+02  0.12102462181E+03  0.79226580630E+02 0.  0.
          4    1    6    6  501    0 -0.16622461367E+02  0.14413784551E+02 -0.10491712158E+02  0.24374975507E+02  0.00000000000E+00 0. -1.
         -3    1    6    6    0  501  0.69985119406E+02  0.54426498924E+02  0.38483677153E+02  0.96649646303E+02  0.00000000000E+00 0.  1.
          5    1    5    5  502    0  0.67189827642E+02 -0.15147062740E+02 -0.75763417782E+02  0.10249922889E+03  0.47000000000E+01 0. -1.
         11    1    4    4    0    0  0.66671815691E+01 -0.54789887193E+02 -0.71329700095E+02  0.90190405056E+02  0.00000000000E+00 0. -1.
        -12    1    4    4    0    0 -0.32561218017E+01  0.32484360180E+02 -0.71498825253E+02  0.78599732812E+02  0.00000000000E+00 0.  1.
         -5    1    3    3    0  504 -0.12396354545E+03 -0.31387693722E+02 -0.20773398765E+03  0.24398288370E+03  0.47000000000E+01 0.  1.
<mgrwt>
<rscale>  2 0.21824848E+03</rscale>
<asrwt>0</asrwt>
<pdfrwt beam="1">  1       21 0.18304839E-01 0.21835934E+03</pdfrwt>
<pdfrwt beam="2">  1       21 0.79586987E-01 0.21835934E+03</pdfrwt>
<totfact> 0.37370081E+04</totfact>
</mgrwt>
</event>
<event>
12    1  0.2736842E-001  0.1735301E+03  0.7546771E-02  0.1174318E+00
         21   -1    0    0  502  503  0.00000000000E+00  0.00000000000E+00  0.28361813379E+03  0.28361813379E+03  0.00000000000E+00 0. -1.
         21   -1    0    0  503  504 -0.00000000000E+00 -0.00000000000E+00 -0.11100348681E+03  0.11100348681E+03  0.00000000000E+00 0. -1.
         -6    2    1    2    0  504  0.11725567690E+02  0.17838517736E+01  0.44018083967E+02  0.17863602601E+03  0.17272106707E+03 0.  0.
        -24    2    3    3    0    0 -0.39998134629E+02  0.23167730362E+02  0.68964723820E+02  0.11717842693E+03  0.82692539580E+02 0.  0.
          6    2    1    2  502    0 -0.11725567690E+02 -0.17838517736E+01  0.12859656301E+03  0.21598559458E+03  0.17312431945E+03 0.  0.
         24    2    5    5    0    0 -0.42716769774E+02  0.22444228865E+02  0.13741550511E+02  0.94489839946E+02  0.80068931636E+02 0.  0.
          4    1    6    6  501    0 -0.61084433775E+02  0.10112755731E+02 -0.92269097254E+01  0.62599614545E+02  0.00000000000E+00 0. -1.
         -3    1    6    6    0  501  0.18367664001E+02  0.12331473134E+02  0.22968460237E+02  0.31890225401E+02  0.00000000000E+00 0.  1.
          5    1    5    5  502    0  0.30991202084E+02 -0.24228080639E+02  0.11485501250E+03  0.12149575464E+03  0.47000000000E+01 0. -1.
         13    1    4    4    0    0  0.81142625815E+01  0.36980346828E+02  0.52006855616E+02  0.64328068057E+02  0.00000000000E+00 0. -1.
        -14    1    4    4    0    0 -0.48112397211E+02 -0.13812616466E+02  0.16957868204E+02  0.52850358873E+02  0.00000000000E+00 0.  1.
         -5    1    3    3    0  504  0.51723702319E+02 -0.21383878588E+02 -0.24946639854E+02  0.61457599083E+02  0.47000000000E+01 0.  1.
<mgrwt>
<rscale>  2 0.17342945E+03</rscale>
<asrwt>0</asrwt>
<pdfrwt beam="1">  1       21 0.43633559E-01 0.17353012E+03</pdfrwt>
<pdfrwt beam="2">  1       21 0.17077460E-01 0.17353012E+03</pdfrwt>
<totfact> 0.15712477E+05</totfact>
</mgrwt>
</event>
<event>
12    1  0.2736842E-001  0.2013158E+03  0.7546771E-02  0.1149799E+00
         21   -1    0    0  502  503  0.00000000000E+00  0.00000000000E+00  0.20200149999E+03  0.20200149999E+03  0.00000000000E+00 0. -1.
         21   -1    0    0  503  504 -0.00000000000E+00 -0.00000000000E+00 -0.21720200274E+03  0.21720200274E+03  0.00000000000E+00 0.  1.
         -6    2    1    2    0  504 -0.23806007598E+02 -0.91621445599E+02 -0.74403908612E+02  0.21462521279E+03  0.17767055202E+03 0.  0.
        -24    2    3    3    0    0  0.42950517146E+02 -0.53207655154E+01 -0.47173514841E+02  0.10207377866E+03  0.79502568004E+02 0.  0.
          6    2    1    2  502    0  0.23806007598E+02  0.91621445599E+02  0.59203405860E+02  0.20457828994E+03  0.17142350527E+03 0.  0.
         24    2    5    5    0    0 -0.45072716015E+02  0.37176646062E+02  0.18491677239E+01  0.99601562068E+02  0.80643654455E+02 0.  0.
          2    1    6    6  501    0 -0.10859011852E+02  0.55531649063E+02 -0.12956902127E+02  0.58047941383E+02  0.00000000000E+00 0. -1.
         -1    1    6    6    0  501 -0.34213704163E+02 -0.18355003001E+02  0.14806069850E+02  0.41553620686E+02  0.00000000000E+00 0.  1.
          5    1    5    5  502    0  0.68878723613E+02  0.54444799537E+02  0.57354238136E+02  0.10497672787E+03  0.47000000000E+01 0. -1.
         11    1    4    4    0    0 -0.14628233540E+02  0.18115452748E+02  0.11843532187E+01  0.23314320435E+02  0.00000000000E+00 0. -1.
        -12    1    4    4    0    0  0.57578750686E+02 -0.23436218264E+02 -0.48357868060E+02  0.78759458228E+02  0.00000000000E+00 0.  1.
         -5    1    3    3    0  504 -0.66756524743E+02 -0.86300680083E+02 -0.27230393771E+02  0.11255143413E+03  0.47000000000E+01 0.  1.
<mgrwt>
<rscale>  2 0.19992868E+03</rscale>
<asrwt>0</asrwt>
<pdfrwt beam="1">  1       21 0.31077154E-01 0.20131577E+03</pdfrwt>
<pdfrwt beam="2">  1       21 0.33415693E-01 0.20131577E+03</pdfrwt>
<totfact> 0.85478286E+04</totfact>
</mgrwt>
</event>
<event>
12    1  0.2736842E-001  0.1860521E+03  0.7546771E-02  0.1165974E+00
         21   -1    0    0  502  503  0.00000000000E+00  0.00000000000E+00  0.80289486244E+03  0.80289486244E+03  0.00000000000E+00 0.  1.
         21   -1    0    0  503  504 -0.00000000000E+00 -0.00000000000E+00 -0.44701614466E+02  0.44701614466E+02  0.00000000000E+00 0.  1.
         -6    2    1    2    0  504  0.62462884268E+02  0.27031014285E+02  0.21921357680E+03  0.27740836475E+03  0.15578357081E+03 0.  0.
        -24    2    3    3    0    0  0.14748481348E+02 -0.14891933560E+02  0.53314626782E+02  0.99704258380E+02  0.81603935707E+02 0.  0.
          6    2    1    2  502    0 -0.62462884268E+02 -0.27031014285E+02  0.53897967117E+03  0.57018811216E+03  0.17315631570E+03 0.  0.
         24    2    5    5    0    0 -0.71622913597E+02 -0.10025096622E+02  0.53961540478E+03  0.55029837787E+03  0.80082303254E+02 0.  0.
          4    1    6    6  501    0 -0.17640534483E+02 -0.17299459380E+02  0.39488442858E+03  0.39565663357E+03  0.00000000000E+00 0. -1.
         -3    1    6    6    0  501 -0.53982379115E+02  0.72743627577E+01  0.14473097620E+03  0.15464174430E+03  0.00000000000E+00 0.  1.
          5    1    5    5  502    0  0.91600293293E+01 -0.17005917663E+02 -0.63573360844E+00  0.19889734289E+02  0.47000000000E+01 0. -1.
         13    1    4    4    0    0 -0.14662250570E+00 -0.43479485078E+02  0.81834551664E+01  0.44243147032E+02  0.00000000000E+00 0. -1.
        -14    1    4    4    0    0  0.14895103854E+02  0.28587551518E+02  0.45131171615E+02  0.55461111348E+02  0.00000000000E+00 0.  1.
         -5    1    3    3    0  504  0.47714402920E+02  0.41922947846E+02  0.16589895002E+03  0.17770410637E+03  0.47000000000E+01 0.  1.
<mgrwt>
<rscale>  2 0.18190295E+03</rscale>
<asrwt>0</asrwt>
<pdfrwt beam="1">  1       21 0.12352228E+00 0.18605214E+03</pdfrwt>
<pdfrwt beam="2">  1       21 0.68771720E-02 0.18605214E+03</pdfrwt>
<totfact> 0.76878134E+04</totfact>
</mgrwt>
</event>
<event>
12    1  0.2736842E-001  0.1893292E+03  0.7546771E-02  0.1159606E+00
         21   -1    0    0  502  503  0.00000000000E+00  0.00000000000E+00  0.15793451817E+02  0.15793451817E+02  0.00000000000E+00 0. -1.
         21   -1    0    0  503  504 -0.00000000000E+00 -0.00000000000E+00 -0.22544222095E+04  0.22544222095E+04  0.00000000000E+00 0. -1.
         -6    2    1    2    0  504  0.47568513012E+02 -0.53004162743E+02 -0.11985423076E+04  0.12130376421E+04  0.17287120502E+03 0.  0.
        -24    2    3    3    0    0  0.71654748805E+02 -0.42433216382E+01 -0.45975968859E+03  0.47224103410E+03  0.80499777839E+02 0.  0.
          6    2    1    2  502    0 -0.47568513012E+02  0.53004162743E+02 -0.10400864501E+04  0.10571780191E+04  0.17542330465E+03 0.  0.
         24    2    5    5    0    0 -0.87744364758E+02  0.11446890266E+02 -0.85224867092E+03  0.86059158208E+03  0.80373933612E+02 0.  0.
          2    1    6    6  501    0 -0.15541628843E+01  0.15150496001E+02 -0.28291179071E+02  0.32130106825E+02  0.00000000000E+00 0. -1.
         -1    1    6    6    0  501 -0.86190201874E+02 -0.37036057347E+01 -0.82395749185E+03  0.82846147525E+03  0.00000000000E+00 0.  1.
          5    1    5    5  502    0  0.40175851746E+02  0.41557272477E+02 -0.18783777916E+03  0.19658643707E+03  0.47000000000E+01 0. -1.
         13    1    4    4    0    0 -0.95277599927E+01 -0.90177223312E+01 -0.19093172442E+03  0.19138187197E+03  0.00000000000E+00 0. -1.
        -14    1    4    4    0    0  0.81182508798E+02  0.47744006930E+01 -0.26882796417E+03  0.28085916214E+03  0.00000000000E+00 0.  1.
         -5    1    3    3    0  504 -0.24086235793E+02 -0.48760841104E+02 -0.73878261898E+03  0.74079660804E+03  0.47000000000E+01 0.  1.
<mgrwt>
<rscale>  2 0.18873586E+03</rscale>
<asrwt>0</asrwt>
<pdfrwt beam="1">  1       21 0.24297611E-02 0.18932919E+03</pdfrwt>
<pdfrwt beam="2">  1       21 0.34683430E+00 0.18932919E+03</pdfrwt>
<totfact> 0.16409084E+04</totfact>
</mgrwt>
</event>
<event>
12    1  0.2736842E-001  0.1916822E+03  0.7546771E-02  0.1159058E+00
         21   -1    0    0  502  503  0.00000000000E+00  0.00000000000E+00  0.32269447460E+03  0.32269447460E+03  0.00000000000E+00 0.  1.
         21   -1    0    0  503  504 -0.00000000000E+00 -0.00000000000E+00 -0.13281015329E+03  0.13281015329E+03  0.00000000000E+00 0.  1.
         -6    2    1    2    0  504  0.44918718217E+02 -0.62972665842E+02 -0.64321067518E+00  0.19168329489E+03  0.17538193730E+03 0.  0.
        -24    2    3    3    0    0  0.60304787061E+01 -0.75459127305E+02  0.53885114875E+02  0.12339248160E+03  0.81188991521E+02 0.  0.
          6    2    1    2  502    0 -0.44918718217E+02  0.62972665842E+02  0.19052753198E+03  0.26382133299E+03  0.16528069279E+03 0.  0.
         24    2    5    5    0    0 -0.84961597122E+02  0.71754270929E+02  0.16570263156E+03  0.21566622506E+03  0.81776586775E+02 0.  0.
          4    1    6    6  501    0 -0.67134208744E+02  0.40765873872E+02  0.46627095605E+02  0.91339720280E+02  0.00000000000E+00 0. -1.
         -3    1    6    6    0  501 -0.17827388378E+02  0.30988397057E+02  0.11907553595E+03  0.12432650478E+03  0.00000000000E+00 0.  1.
          5    1    5    5  502    0  0.40042878905E+02 -0.87816050876E+01  0.24824900426E+02  0.48155107933E+02  0.47000000000E+01 0. -1.
         11    1    4    4    0    0  0.37023984318E+02 -0.41144602484E+02  0.53748581493E+02  0.77152859577E+02  0.00000000000E+00 0. -1.
        -12    1    4    4    0    0 -0.30993505612E+02 -0.34314524821E+02  0.13653338182E+00  0.46239622027E+02  0.00000000000E+00 0.  1.
         -5    1    3    3    0  504  0.38888239511E+02  0.12486461463E+02 -0.54528325550E+02  0.68290813287E+02  0.47000000000E+01 0.  1.
<mgrwt>
<rscale>  2 0.18934047E+03</rscale>
<asrwt>0</asrwt>
<pdfrwt beam="1">  1       21 0.49645303E-01 0.19168222E+03</pdfrwt>
<pdfrwt beam="2">  1       21 0.20432331E-01 0.19168222E+03</pdfrwt>
<totfact> 0.85808999E+04</totfact>
</mgrwt>
</event>
<event>
12    1  0.2736842E-001  0.2632623E+03  0.7546771E-02  0.1105210E+00
         21   -1    0    0  502  503  0.00000000000E+00  0.00000000000E+00  0.34317851200E+03  0.34317851200E+03  0.00000000000E+00 0. -1.
         21   -1    0    0  503  504 -0.00000000000E+00 -0.00000000000E+00 -0.51123300927E+03  0.51123300927E+03  0.00000000000E+00 0.  1.
         -6    2    1    2    0  504 -0.14791993062E+02  0.19782451175E+03 -0.41633985572E+03  0.49259103070E+03  0.17307139438E+03 0.  0.
        -24    2    3    3    0    0  0.42717491101E+02  0.17826179515E+03 -0.29167877988E+03  0.35383760018E+03  0.80761903222E+02 0.  0.
          6    2    1    2  502    0  0.14791993062E+02 -0.19782451175E+03  0.24828535845E+03  0.36182049058E+03  0.17295984412E+03 0.  0.
         24    2    5    5    0    0  0.43632743551E+02 -0.79756781447E+02  0.18433330731E+03  0.22440239617E+03  0.90070565260E+02 0.  0.
          2    1    6    6  501    0  0.38275889207E+02 -0.57296059817E+02  0.18871375197E+03  0.20089988141E+03  0.00000000000E+00 0. -1.
         -1    1    6    6    0  501  0.53568543431E+01 -0.22460721630E+02 -0.43804446668E+01  0.23502514761E+02  0.00000000000E+00 0.  1.
          5    1    5    5  502    0 -0.28840750489E+02 -0.11806773030E+03  0.63952051146E+02  0.13741809442E+03  0.47000000000E+01 0. -1.
         13    1    4    4    0    0  0.31128775631E+02  0.98571070383E+02 -0.91427478568E+02  0.13800087111E+03  0.00000000000E+00 0. -1.
        -14    1    4    4    0    0  0.11588715470E+02  0.79690724771E+02 -0.20025130131E+03  0.21583672907E+03  0.00000000000E+00 0.  1.
         -5    1    3    3    0  504 -0.57509484163E+02  0.19562716593E+02 -0.12466107585E+03  0.13875343052E+03  0.47000000000E+01 0.  1.
<mgrwt>
<rscale>  2 0.26324399E+03</rscale>
<asrwt>0</asrwt>
<pdfrwt beam="1">  1       21 0.52796694E-01 0.26326232E+03</pdfrwt>
<pdfrwt beam="2">  1       21 0.78651232E-01 0.26326232E+03</pdfrwt>
<totfact> 0.46273256E+03</totfact>
</mgrwt>
</event>
<event>
12    1  0.2736842E-001  0.2010517E+03  0.7546771E-02  0.1149416E+00
         21   -1    0    0  502  503  0.00000000000E+00  0.00000000000E+00  0.18463286275E+03  0.18463286275E+03  0.00000000000E+00 0.  1.
         21   -1    0    0  503  504 -0.00000000000E+00 -0.00000000000E+00 -0.40064024293E+03  0.40064024293E+03  0.00000000000E+00 0. -1.
         -6    2    1    2    0  504  0.76814780211E+02 -0.61637025308E+02 -0.30625283696E+03  0.36489610997E+03  0.17221712337E+03 0.  0.
        -24    2    3    3    0    0 -0.98864039918E+01 -0.49942186671E+02 -0.82916234151E+02  0.12498947658E+03  0.78455747889E+02 0.  0.
          6    2    1    2  502    0 -0.76814780211E+02  0.61637025308E+02  0.90245456772E+02  0.22037699570E+03  0.17527733573E+03 0.  0.
         24    2    5    5    0    0 -0.64744651240E+02 -0.25933613693E+02  0.74462833993E+02  0.13045766513E+03  0.81302315850E+02 0.  0.
          4    1    6    6  501    0  0.31340810912E+01 -0.33691913442E+02  0.72246862778E+01  0.34600051842E+02  0.00000000000E+00 0. -1.
         -3    1    6    6    0  501 -0.67878732331E+02  0.77582997487E+01  0.67238147715E+02  0.95857613292E+02  0.00000000000E+00 0.  1.
          5    1    5    5  502    0 -0.12070128972E+02  0.87570639001E+02  0.15782622779E+02  0.89919330570E+02  0.47000000000E+01 0. -1.
         13    1    4    4    0    0  0.13504947544E+02 -0.62821941138E+02 -0.70965191658E+02  0.95734206653E+02  0.00000000000E+00 0. -1.
        -14    1    4    4    0    0 -0.23391351536E+02  0.12879754468E+02 -0.11951042494E+02  0.29255269927E+02  0.00000000000E+00 0.  1.
         -5    1    3    3    0  504  0.86701184203E+02 -0.11694838637E+02 -0.22333660281E+03  0.23990663339E+03  0.47000000000E+01 0.  1.
<mgrwt>
<rscale>  2 0.20038279E+03</rscale>
<asrwt>0</asrwt>
<pdfrwt beam="1">  1       21 0.28405056E-01 0.20105168E+03</pdfrwt>
<pdfrwt beam="2">  1       21 0.61636961E-01 0.20105168E+03</pdfrwt>
<totfact> 0.28840630E+04</totfact>
</mgrwt>
</event>
<event>
12    1  0.2736842E-001  0.2679067E+03  0.7546771E-02  0.1102500E+00
         21   -1    0    0  502  503  0.00000000000E+00  0.00000000000E+00  0.75904301568E+02  0.75904301568E+02  0.00000000000E+00 0. -1.
         21   -1    0    0  503  504 -0.00000000000E+00 -0.00000000000E+00 -0.95298622304E+03  0.95298622304E+03  0.00000000000E+00 0.  1.
         -6    2    1    2    0  504  0.20250029291E+03 -0.29446315317E+02 -0.39194319266E+03  0.47469418841E+03  0.17274736504E+03 0.  0.
        -24    2    3    3    0    0  0.19233795911E+03 -0.73425886356E+02 -0.33923008922E+03  0.40513675192E+03  0.81691388920E+02 0.  0.
          6    2    1    2  502    0 -0.20250029291E+03  0.29446315317E+02 -0.48513872881E+03  0.55419633620E+03  0.17291772247E+03 0.  0.
         24    2    5    5    0    0 -0.62403158419E+02 -0.42105877362E+02 -0.18694500262E+03  0.21701906574E+03  0.80509513735E+02 0.  0.
          4    1    6    6  501    0 -0.58311467083E+02 -0.51391861018E+02 -0.87415411966E+02  0.11697352188E+03  0.00000000000E+00 0. -1.
         -3    1    6    6    0  501 -0.40916913355E+01  0.92859836560E+01 -0.99529590656E+02  0.10004554386E+03  0.00000000000E+00 0.  1.
          5    1    5    5  502    0 -0.14009713449E+03  0.71552192679E+02 -0.29819372619E+03  0.33717727045E+03  0.47000000000E+01 0. -1.
         11    1    4    4    0    0  0.86427669359E+02 -0.34223165295E+02 -0.22977297788E+03  0.24786405233E+03  0.00000000000E+00 0. -1.
        -12    1    4    4    0    0  0.10591028976E+03 -0.39202721061E+02 -0.10945711134E+03  0.15727269959E+03  0.00000000000E+00 0.  1.
         -5    1    3    3    0  504  0.10162333792E+02  0.43979571039E+02 -0.52713103439E+02  0.69557436490E+02  0.47000000000E+01 0.  1.
<mgrwt>
<rscale>  2 0.26787920E+03</rscale>
<asrwt>0</asrwt>
<pdfrwt beam="1">  1       21 0.11677586E-01 0.26790669E+03</pdfrwt>
<pdfrwt beam="2">  1       21 0.14661325E+00 0.26790669E+03</pdfrwt>
<totfact> 0.18700975E+04</totfact>
</mgrwt>
</event>
<event>
12    1  0.2736842E-001  0.1847672E+03  0.7546771E-02  0.1163345E+00
         21   -1    0    0  502  503  0.00000000000E+00  0.00000000000E+00  0.14143914791E+03  0.14143914791E+03  0.00000000000E+00 0. -1.
         21   -1    0    0  503  504 -0.00000000000E+00 -0.00000000000E+00 -0.25875623193E+03  0.25875623193E+03  0.00000000000E+00 0. -1.
         -6    2    1    2    0  504 -0.59067128254E+02 -0.16923869067E+02 -0.11111866119E+03  0.21532423546E+03  0.17390177264E+03 0.  0.
        -24    2    3    3    0    0  0.23218307199E+02 -0.84406749678E+01 -0.95112702888E+01  0.84217373109E+02  0.79948526489E+02 0.  0.
          6    2    1    2  502    0  0.59067128254E+02  0.16923869067E+02 -0.61984228304E+01  0.18487114437E+03  0.17425147515E+03 0.  0.
         24    2    5    5    0    0  0.64884074498E+02  0.17066276708E+02  0.61232090048E+02  0.11702704949E+03  0.73788620643E+02 0.  0.
          2    1    6    6  501    0  0.16157728309E+02 -0.17079171009E+01  0.62717437856E+02  0.64787855160E+02  0.00000000000E+00 0. -1.
         -1    1    6    6    0  501  0.48726346189E+02  0.18774193809E+02 -0.14853478084E+01  0.52239194330E+02  0.00000000000E+00 0.  1.
          5    1    5    5  502    0 -0.58169462446E+01 -0.14240764077E+00 -0.67430512878E+02  0.67844094884E+02  0.47000000000E+01 0. -1.
         11    1    4    4    0    0 -0.23843740571E+02  0.16933264860E+02  0.27154759951E+01  0.29370618535E+02  0.00000000000E+00 0. -1.
        -12    1    4    4    0    0  0.47062047769E+02 -0.25373939828E+02 -0.12226746284E+02  0.54846754574E+02  0.00000000000E+00 0.  1.
         -5    1    3    3    0  504 -0.82285435452E+02 -0.84831940995E+01 -0.10160739091E+03  0.13110686235E+03  0.47000000000E+01 0.  1.
<mgrwt>
<rscale>  2 0.18468471E+03</rscale>
<asrwt>0</asrwt>
<pdfrwt beam="1">  1       21 0.21759869E-01 0.18476720E+03</pdfrwt>
<pdfrwt beam="2">  1       21 0.39808651E-01 0.18476720E+03</pdfrwt>
<totfact> 0.12018864E+05</totfact>
</mgrwt>
</event>
<event>
12    1  0.2736842E-001  0.1841960E+03  0.7546771E-02  0.1163820E+00
         21   -1    0    0  502  503  0.00000000000E+00  0.00000000000E+00  0.61089081014E+02  0.61089081014E+02  0.00000000000E+00 0.  1.
         21   -1    0    0  503  504 -0.00000000000E+00 -0.00000000000E+00 -0.17044443951E+04  0.17044443951E+04  0.00000000000E+00 0.  1.
         -6    2    1    2    0  504 -0.37051843201E+02 -0.50431425784E+02 -0.15466090310E+04  0.15575389753E+04  0.17323970972E+03 0.  0.
        -24    2    3    3    0    0 -0.24957403086E+02 -0.90959550140E+02 -0.78574960649E+03  0.79549044783E+03  0.80660379185E+02 0.  0.
          6    2    1    2  502    0  0.37051843201E+02  0.50431425784E+02 -0.96746283069E+02  0.20799450080E+03  0.17316379900E+03 0.  0.
         24    2    5    5    0    0  0.48720512650E+02  0.28174744361E+02 -0.13170271355E+03  0.16468676769E+03  0.81293432227E+02 0.  0.
          4    1    6    6  501    0  0.28551558748E+02 -0.66747636728E+01 -0.11885995887E+03  0.12242317509E+03  0.00000000000E+00 0. -1.
         -3    1    6    6    0  501  0.20168953901E+02  0.34849508034E+02 -0.12842754682E+02  0.42263592601E+02  0.00000000000E+00 0.  1.
          5    1    5    5  502    0 -0.11668669448E+02  0.22256681423E+02  0.34956430482E+02  0.43307733105E+02  0.47000000000E+01 0. -1.
         13    1    4    4    0    0 -0.40597732339E+02 -0.10535937667E+02 -0.28965562408E+03  0.29267654913E+03  0.00000000000E+00 0. -1.
        -14    1    4    4    0    0  0.15640329253E+02 -0.80423612473E+02 -0.49609398241E+03  0.50281389870E+03  0.00000000000E+00 0.  1.
         -5    1    3    3    0  504 -0.12094440115E+02  0.40528124356E+02 -0.76085942451E+03  0.76204852746E+03  0.47000000000E+01 0.  1.
<mgrwt>
<rscale>  2 0.18417814E+03</rscale>
<asrwt>0</asrwt>
<pdfrwt beam="1">  1       21 0.93983208E-02 0.18419600E+03</pdfrwt>
<pdfrwt beam="2">  1       21 0.26222220E+00 0.18419600E+03</pdfrwt>
<totfact> 0.51530700E+03</totfact>
</mgrwt>
</event>
<event>
12    1  0.2736842E-001  0.1776757E+03  0.7546771E-02  0.1170680E+00
         21   -1    0    0  502  503  0.00000000000E+00  0.00000000000E+00  0.25016551654E+02  0.25016551654E+02  0.00000000000E+00 0. -1.
         21   -1    0    0  503  504 -0.00000000000E+00 -0.00000000000E+00 -0.13508019463E+04  0.13508019463E+04  0.00000000000E+00 0. -1.
         -6    2    1    2    0  504  0.15790662564E+02 -0.24357767966E+02 -0.86006651189E+03  0.87822722983E+03  0.17528838084E+03 0.  0.
        -24    2    3    3    0    0 -0.26721007893E+02  0.44853318867E+02 -0.45551991485E+03  0.46558033982E+03  0.80875382652E+02 0.  0.
          6    2    1    2  502    0 -0.15790662564E+02  0.24357767966E+02 -0.46571888279E+03  0.49759126815E+03  0.17280146549E+03 0.  0.
         24    2    5    5    0    0 -0.65981017056E+00 -0.35644227301E+02 -0.13483153469E+03  0.16093460438E+03  0.80308516684E+02 0.  0.
          4    1    6    6  501    0 -0.31086837307E+01 -0.57626341178E+02 -0.61486062679E+02  0.84326715908E+02  0.00000000000E+00 0. -1.
         -3    1    6    6    0  501  0.24488735601E+01  0.21982113877E+02 -0.73345472010E+02  0.76607888475E+02  0.00000000000E+00 0.  1.
          5    1    5    5  502    0 -0.15130852393E+02  0.60001995267E+02 -0.33088734810E+03  0.33665666377E+03  0.47000000000E+01 0. -1.
         11    1    4    4    0    0  0.76149758377E+01 -0.20737591846E+02 -0.11550284163E+03  0.11759652205E+03  0.00000000000E+00 0. -1.
        -12    1    4    4    0    0 -0.34335983731E+02  0.65590910713E+02 -0.34001707322E+03  0.34798381777E+03  0.00000000000E+00 0.  1.
         -5    1    3    3    0  504  0.42511670457E+02 -0.69211086833E+02 -0.40454659704E+03  0.41264689002E+03  0.47000000000E+01 0.  1.
<mgrwt>
<rscale>  2 0.17705926E+03</rscale>
<asrwt>0</asrwt>
<pdfrwt beam="1">  1       21 0.38487008E-02 0.17767572E+03</pdfrwt>
<pdfrwt beam="2">  1       21 0.20781565E+00 0.17767572E+03</pdfrwt>
<totfact> 0.50571824E+04</totfact>
</mgrwt>
</event>
<event>
12    1  0.2736842E-001  0.1998435E+03  0.7546771E-02  0.1149961E+00
         21   -1    0    0  502  503  0.00000000000E+00  0.00000000000E+00  0.32255234956E+02  0.32255234956E+02  0.00000000000E+00 0. -1.
         21   -1    0    0  503  504 -0.00000000000E+00 -0.00000000000E+00 -0.16712948212E+04  0.16712948212E+04  0.00000000000E+00 0. -1.
         -6    2    1    2    0  504 -0.98286887041E+02  0.63776626549E+01 -0.38522950932E+03  0.43398065813E+03  0.17388631354E+03 0.  0.
        -24    2    3    3    0    0 -0.67219541158E+02 -0.57580520099E+02 -0.29919413264E+03  0.32226671468E+03  0.80651865298E+02 0.  0.
          6    2    1    2  502    0  0.98286887041E+02 -0.63776626549E+01 -0.12538100769E+04  0.12695693980E+04  0.17339481149E+03 0.  0.
         24    2    5    5    0    0  0.85257349900E+02  0.46065762894E+02 -0.62991397608E+03  0.64331983405E+03  0.87623749082E+02 0.  0.
          4    1    6    6  501    0  0.23221663327E+02  0.62319609362E+02 -0.31624644379E+03  0.32316372409E+03  0.00000000000E+00 0. -1.
         -3    1    6    6    0  501  0.62035686572E+02 -0.16253846468E+02 -0.31366753229E+03  0.32015610996E+03  0.00000000000E+00 0.  1.
          5    1    5    5  502    0  0.13029537141E+02 -0.52443425549E+02 -0.62389610080E+03  0.62624956393E+03  0.47000000000E+01 0. -1.
         11    1    4    4    0    0 -0.12082382915E+02  0.13449971694E+02 -0.12971153377E+02  0.22251663655E+02  0.00000000000E+00 0. -1.
        -12    1    4    4    0    0 -0.55137158243E+02 -0.71030491794E+02 -0.28622297926E+03  0.30001505102E+03  0.00000000000E+00 0.  1.
         -5    1    3    3    0  504 -0.31067345883E+02  0.63958182754E+02 -0.86035376679E+02  0.11171394345E+03  0.47000000000E+01 0.  1.
<mgrwt>
<rscale>  2 0.19973657E+03</rscale>
<asrwt>0</asrwt>
<pdfrwt beam="1">  1       21 0.49623436E-02 0.19984353E+03</pdfrwt>
<pdfrwt beam="2">  1       21 0.25712229E+00 0.19984353E+03</pdfrwt>
<totfact> 0.16349211E+04</totfact>
</mgrwt>
</event>
<event>
12    1  0.2736842E-001  0.1743349E+03  0.7546771E-02  0.1173523E+00
         21   -1    0    0  502  503  0.00000000000E+00  0.00000000000E+00  0.17911773781E+03  0.17911773781E+03  0.00000000000E+00 0. -1.
         21   -1    0    0  503  504 -0.00000000000E+00 -0.00000000000E+00 -0.36894775875E+03  0.36894775875E+03  0.00000000000E+00 0. -1.
         -6    2    1    2    0  504  0.24395101130E+02 -0.10614812760E+02 -0.29660178572E+03  0.34404256942E+03  0.17229299194E+03 0.  0.
        -24    2    3    3    0    0 -0.18995191014E+02  0.37068712726E+02 -0.24276218561E+03  0.25991630363E+03  0.82994574455E+02 0.  0.
          6    2    1    2  502    0 -0.24395101130E+02  0.10614812760E+02  0.10677176479E+03  0.20402292714E+03  0.17180614027E+03 0.  0.
         24    2    5    5    0    0 -0.26703694619E+02 -0.59267594248E+02  0.58470281328E+02  0.11891121398E+03  0.80593845779E+02 0.  0.
          4    1    6    6  501    0 -0.39084134674E+02 -0.70644972821E+02  0.61920136274E+02  0.10174667093E+03  0.00000000000E+00 0. -1.
         -3    1    6    6    0  501  0.12380440055E+02  0.11377378573E+02 -0.34498549463E+01  0.17164543055E+02  0.00000000000E+00 0.  1.
          5    1    5    5  502    0  0.23085934885E+01  0.69882407009E+02  0.48301483458E+02  0.85111713162E+02  0.47000000000E+01 0. -1.
         13    1    4    4    0    0  0.36399257210E+01  0.60157687700E+02 -0.16704400182E+03  0.17758348739E+03  0.00000000000E+00 0. -1.
        -14    1    4    4    0    0 -0.22635116735E+02 -0.23088974974E+02 -0.75718183787E+02  0.82332816246E+02  0.00000000000E+00 0.  1.
         -5    1    3    3    0  504  0.43390292144E+02 -0.47683525486E+02 -0.53839600115E+02  0.84126265790E+02  0.47000000000E+01 0.  1.
<mgrwt>
<rscale>  2 0.17421453E+03</rscale>
<asrwt>0</asrwt>
<pdfrwt beam="1">  1       21 0.27556575E-01 0.17433494E+03</pdfrwt>
<pdfrwt beam="2">  1       21 0.56761193E-01 0.17433494E+03</pdfrwt>
<totfact> 0.37009422E+04</totfact>
</mgrwt>
</event>
<event>
12    1  0.2736842E-001  0.1839930E+03  0.7546771E-02  0.1164249E+00
         21   -1    0    0  502  503  0.00000000000E+00  0.00000000000E+00  0.11589430379E+03  0.11589430379E+03  0.00000000000E+00 0. -1.
         21   -1    0    0  503  504 -0.00000000000E+00 -0.00000000000E+00 -0.29116034536E+03  0.29116034536E+03  0.00000000000E+00 0. -1.
         -6    2    1    2    0  504 -0.19878880553E+02 -0.58679752346E+02 -0.77440891512E+02  0.19962591094E+03  0.17324817290E+03 0.  0.
        -24    2    3    3    0    0 -0.46492633596E+02 -0.15629828328E+02 -0.10616596580E+03  0.14124091542E+03  0.79195501030E+02 0.  0.
          6    2    1    2  502    0  0.19878880553E+02  0.58679752346E+02 -0.97825150062E+02  0.20742873822E+03  0.17210008200E+03 0.  0.
         24    2    5    5    0    0 -0.21272926992E+01  0.65968439882E+02  0.32076381965E+01  0.10366404802E+03  0.79872307311E+02 0.  0.
          4    1    6    6  501    0  0.34552950360E+02  0.51642010763E+02  0.12078574951E+02  0.63298464650E+02  0.00000000000E+00 0. -1.
         -3    1    6    6    0  501 -0.36680243059E+02  0.14326429119E+02 -0.88709367544E+01  0.40365583374E+02  0.00000000000E+00 0.  1.
          5    1    5    5  502    0  0.22006173252E+02 -0.72886875362E+01 -0.10103278826E+03  0.10376469019E+03  0.47000000000E+01 0. -1.
         13    1    4    4    0    0 -0.44807605646E+02  0.22316406715E+02 -0.36703909452E+02  0.62071897840E+02  0.00000000000E+00 0. -1.
        -14    1    4    4    0    0 -0.16850279494E+01 -0.37946235044E+02 -0.69462056345E+02  0.79169017581E+02  0.00000000000E+00 0.  1.
         -5    1    3    3    0  504  0.26613753042E+02 -0.43049924017E+02  0.28725074284E+02  0.58384995517E+02  0.47000000000E+01 0.  1.
<mgrwt>
<rscale>  2 0.18372221E+03</rscale>
<asrwt>0</asrwt>
<pdfrwt beam="1">  1       21 0.17829893E-01 0.18399297E+03</pdfrwt>
<pdfrwt beam="2">  1       21 0.44793899E-01 0.18399297E+03</pdfrwt>
<totfact> 0.13707448E+05</totfact>
</mgrwt>
</event>
<event>
12    1  0.2736842E-001  0.3361108E+03  0.7546771E-02  0.1068477E+00
         21   -1    0    0  502  503  0.00000000000E+00  0.00000000000E+00  0.25845709390E+03  0.25845709390E+03  0.00000000000E+00 0.  1.
         21   -1    0    0  503  504 -0.00000000000E+00 -0.00000000000E+00 -0.56613618565E+03  0.56613618565E+03  0.00000000000E+00 0. -1.
         -6    2    1    2    0  504 -0.17870623588E+03 -0.22584167632E+03  0.43135775144E+02  0.33875220401E+03  0.17306640090E+03 0.  0.
        -24    2    3    3    0    0 -0.79924941545E+02 -0.19107877776E+03 -0.51939831545E+01  0.22332231722E+03  0.83347371388E+02 0.  0.
          6    2    1    2  502    0  0.17870623588E+03  0.22584167632E+03 -0.35081486689E+03  0.48584107554E+03  0.17329194540E+03 0.  0.
         24    2    5    5    0    0  0.11280489349E+03  0.15077346691E+03 -0.32167137875E+03  0.38167939404E+03  0.82152915962E+02 0.  0.
          2    1    6    6  501    0  0.56403381577E+02  0.37848062894E+02 -0.17752998559E+03  0.19008080677E+03  0.00000000000E+00 0. -1.
         -1    1    6    6    0  501  0.56401511917E+02  0.11292540402E+03 -0.14414139316E+03  0.19159858727E+03  0.00000000000E+00 0.  1.
          5    1    5    5  502    0  0.65901342388E+02  0.75068209405E+02 -0.29143488136E+02  0.10416168150E+03  0.47000000000E+01 0. -1.
         11    1    4    4    0    0 -0.73624356857E+02 -0.14938073388E+03  0.28981543260E+02  0.16904164998E+03  0.00000000000E+00 0. -1.
        -12    1    4    4    0    0 -0.63005846871E+01 -0.41698043880E+02 -0.34175526415E+02  0.54280667245E+02  0.00000000000E+00 0.  1.
         -5    1    3    3    0  504 -0.98781294338E+02 -0.34762898559E+02  0.48329758299E+02  0.11542988679E+03  0.47000000000E+01 0.  1.
<mgrwt>
<rscale>  2 0.33608175E+03</rscale>
<asrwt>0</asrwt>
<pdfrwt beam="1">  1       21 0.39762630E-01 0.33611081E+03</pdfrwt>
<pdfrwt beam="2">  1       21 0.87097874E-01 0.33611081E+03</pdfrwt>
<totfact> 0.63611984E+03</totfact>
</mgrwt>
</event>
<event>
12    1  0.2736842E-001  0.1780031E+03  0.7546771E-02  0.1174454E+00
         21   -1    0    0  502  503  0.00000000000E+00  0.00000000000E+00  0.90804705310E+02  0.90804705310E+02  0.00000000000E+00 0. -1.
         21   -1    0    0  503  504 -0.00000000000E+00 -0.00000000000E+00 -0.47701921983E+03  0.47701921983E+03  0.00000000000E+00 0. -1.
         -6    2    1    2    0  504 -0.38885332227E+02  0.49340418342E+01 -0.35192158761E+03  0.38654761279E+03  0.15502851123E+03 0.  0.
        -24    2    3    3    0    0 -0.74207769373E+02 -0.26508646686E+02 -0.24891576926E+03  0.27310773513E+03  0.80120368333E+02 0.  0.
          6    2    1    2  502    0  0.38885332227E+02 -0.49340418342E+01 -0.34292926909E+02  0.18127631235E+03  0.17363376040E+03 0.  0.
         24    2    5    5    0    0 -0.26965073787E+02 -0.38089268052E+02 -0.47073328965E+02  0.10630315933E+03  0.83105690767E+02 0.  0.
          2    1    6    6  501    0  0.24746127694E+02 -0.33225751453E+02 -0.31610516189E+02  0.52110902210E+02  0.00000000000E+00 0. -1.
         -1    1    6    6    0  501 -0.51711201482E+02 -0.48635165991E+01 -0.15462812776E+02  0.54192257116E+02  0.00000000000E+00 0.  1.
          5    1    5    5  502    0  0.65850406014E+02  0.33155226217E+02  0.12780402055E+02  0.74973153025E+02  0.47000000000E+01 0. -1.
         13    1    4    4    0    0 -0.76967528702E+02  0.74454192102E+01 -0.15529922445E+03  0.17348568776E+03  0.00000000000E+00 0. -1.
        -14    1    4    4    0    0  0.27597593286E+01 -0.33954065896E+02 -0.93616544806E+02  0.99622047379E+02  0.00000000000E+00 0.  1.
         -5    1    3    3    0  504  0.35322437146E+02  0.31442688520E+02 -0.10300581835E+03  0.11343987765E+03  0.47000000000E+01 0.  1.
<mgrwt>
<rscale>  2 0.17329559E+03</rscale>
<asrwt>0</asrwt>
<pdfrwt beam="1">  1       21 0.13969955E-01 0.17800308E+03</pdfrwt>
<pdfrwt beam="2">  1       21 0.73387572E-01 0.17800308E+03</pdfrwt>
<totfact> 0.74961065E+04</totfact>
</mgrwt>
</event>
<event>
12    1  0.2736842E-001  0.1787514E+03  0.7546771E-02  0.1169973E+00
         21   -1    0    0  502  503  0.00000000000E+00  0.00000000000E+00  0.27429802904E+02  0.27429802904E+02  0.00000000000E+00 0.  1.
         21   -1    0    0  503  504 -0.00000000000E+00 -0.00000000000E+00 -0.11918504022E+04  0.11918504022E+04  0.00000000000E+00 0.  1.
         -6    2    1    2    0  504  0.15256535340E+02 -0.39902008313E+02 -0.46089832229E+03  0.49434739229E+03  0.17357173914E+03 0.  0.
        -24    2    3    3    0    0  0.58125289158E+02  0.22361909637E+02 -0.16696745039E+03  0.19081490145E+03  0.68217247705E+02 0.  0.
          6    2    1    2  502    0 -0.15256535340E+02  0.39902008313E+02 -0.70352227704E+03  0.72493281285E+03  0.16958495431E+03 0.  0.
         24    2    5    5    0    0 -0.63351636758E+02  0.67350017861E+01 -0.28876818325E+03  0.30605784653E+03  0.78902164954E+02 0.  0.
          2    1    6    6  501    0 -0.80391120257E+02  0.76732730446E+01 -0.26325813038E+03  0.27536603738E+03  0.00000000000E+00 0. -1.
         -1    1    6    6    0  501  0.17039483499E+02 -0.93827125850E+00 -0.25510052875E+02  0.30691809145E+02  0.00000000000E+00 0.  1.
          5    1    5    5  502    0  0.48095101417E+02  0.33167006527E+02 -0.41475409379E+03  0.41887496632E+03  0.47000000000E+01 0. -1.
         11    1    4    4    0    0  0.50908461752E+02  0.15705455225E+02 -0.17180080775E+03  0.17987176083E+03  0.00000000000E+00 0. -1.
        -12    1    4    4    0    0  0.72168274059E+01  0.66564544123E+01  0.48333573634E+01  0.10943140616E+02  0.00000000000E+00 0.  1.
         -5    1    3    3    0  504 -0.42868753818E+02 -0.62263917950E+02 -0.29393087191E+03  0.30353249084E+03  0.47000000000E+01 0.  1.
<mgrwt>
<rscale>  2 0.17777633E+03</rscale>
<asrwt>0</asrwt>
<pdfrwt beam="1">  1       21 0.42199696E-02 0.17875145E+03</pdfrwt>
<pdfrwt beam="2">  1       21 0.18336160E+00 0.17875145E+03</pdfrwt>
<totfact> 0.62364937E+04</totfact>
</mgrwt>
</event>
<event>
12    1  0.2736842E-001  0.1988629E+03  0.7546771E-02  0.1151952E+00
         21   -1    0    0  502  503  0.00000000000E+00  0.00000000000E+00  0.23019259999E+03  0.23019259999E+03  0.00000000000E+00 0. -1.
         21   -1    0    0  503  504 -0.00000000000E+00 -0.00000000000E+00 -0.17051373227E+03  0.17051373227E+03  0.00000000000E+00 0. -1.
         -6    2    1    2    0  504  0.55531527006E+02  0.81698370546E+02  0.83465539691E+00  0.19886465339E+03  0.17259223469E+03 0.  0.
        -24    2    3    3    0    0  0.38196426433E+02  0.65312640654E+02 -0.66175018841E+02  0.12758082424E+03  0.78568604254E+02 0.  0.
          6    2    1    2  502    0 -0.55531527006E+02 -0.81698370546E+02  0.58844212318E+02  0.20184167887E+03  0.16588866074E+03 0.  0.
         24    2    5    5    0    0  0.18270148399E+01 -0.70566707868E+02 -0.18311524100E+02  0.10494475477E+03  0.75465829335E+02 0.  0.
          2    1    6    6  501    0 -0.16391502090E+02 -0.79041070876E+02 -0.50719090276E+01  0.80881991118E+02  0.00000000000E+00 0. -1.
         -1    1    6    6    0  501  0.18218516930E+02  0.84743630082E+01 -0.13239615072E+02  0.24062763656E+02  0.00000000000E+00 0.  1.
          5    1    5    5  502    0 -0.57358541846E+02 -0.11131662678E+02  0.77155736418E+02  0.96896924094E+02  0.47000000000E+01 0. -1.
         11    1    4    4    0    0  0.33194135988E+02  0.39239126677E+01 -0.55909180908E+02  0.65138961187E+02  0.00000000000E+00 0. -1.
        -12    1    4    4    0    0  0.50022904448E+01  0.61388727986E+02 -0.10265837933E+02  0.62441863056E+02  0.00000000000E+00 0.  1.
         -5    1    3    3    0  504  0.17335100573E+02  0.16385729892E+02  0.67009674238E+02  0.71283829145E+02  0.47000000000E+01 0.  1.
<mgrwt>
<rscale>  2 0.19739951E+03</rscale>
<asrwt>0</asrwt>
<pdfrwt beam="1">  1       21 0.35414246E-01 0.19886290E+03</pdfrwt>
<pdfrwt beam="2">  1       21 0.26232882E-01 0.19886290E+03</pdfrwt>
<totfact> 0.10593405E+05</totfact>
</mgrwt>
</event>
<event>
12    1  0.2736842E-001  0.1882772E+03  0.7546771E-02  0.1160993E+00
         21   -1    0    0  502  503  0.00000000000E+00  0.00000000000E+00  0.64595743796E+03  0.64595743796E+03  0.00000000000E+00 0. -1.
         21   -1    0    0  503  504 -0.00000000000E+00 -0.00000000000E+00 -0.86932060938E+02  0.86932060938E+02  0.00000000000E+00 0. -1.
         -6    2    1    2    0  504 -0.50223763453E+01 -0.65430887300E+02  0.54767586456E+02  0.19608103985E+03  0.17647056521E+03 0.  0.
        -24    2    3    3    0    0  0.33157157942E+02 -0.29159559624E+02 -0.39650777511E+02  0.87867346147E+02  0.64798220048E+02 0.  0.
          6    2    1    2  502    0  0.50223763453E+01  0.65430887300E+02  0.50425779056E+03  0.53680845905E+03  0.17199121224E+03 0.  0.
         24    2    5    5    0    0  0.68977245587E+02  0.49428643693E+02  0.34401646936E+03  0.36347159592E+03  0.81013694033E+02 0.  0.
          2    1    6    6  501    0  0.70165991240E+02  0.68279863322E+02  0.27461155611E+03  0.29154230021E+03  0.00000000000E+00 0. -1.
         -1    1    6    6    0  501 -0.11887456525E+01 -0.18851219629E+02  0.69404913251E+02  0.71929295708E+02  0.00000000000E+00 0.  1.
          5    1    5    5  502    0 -0.63954869242E+02  0.16002243607E+02  0.16024132120E+03  0.17333686313E+03  0.47000000000E+01 0. -1.
         11    1    4    4    0    0 -0.15317112948E+02 -0.22650296327E+02 -0.24368191831E+02  0.36625928601E+02  0.00000000000E+00 0. -1.
        -12    1    4    4    0    0  0.48474270890E+02 -0.65092632966E+01 -0.15282585680E+02  0.51241417546E+02  0.00000000000E+00 0.  1.
         -5    1    3    3    0  504 -0.38179534287E+02 -0.36271327676E+02  0.94418363967E+02  0.10821369370E+03  0.47000000000E+01 0.  1.
<mgrwt>
<rscale>  2 0.18722033E+03</rscale>
<asrwt>0</asrwt>
<pdfrwt beam="1">  1       21 0.99378064E-01 0.18827715E+03</pdfrwt>
<pdfrwt beam="2">  1       21 0.13374164E-01 0.18827715E+03</pdfrwt>
<totfact> 0.40332047E+04</totfact>
</mgrwt>
</event>
<event>
12    1  0.2736842E-001  0.1754305E+03  0.7546771E-02  0.1172414E+00
         21   -1    0    0  502  503  0.00000000000E+00  0.00000000000E+00  0.55584309690E+03  0.55584309690E+03  0.00000000000E+00 0.  1.
         21   -1    0    0  503  504 -0.00000000000E+00 -0.00000000000E+00 -0.68641548439E+02  0.68641548439E+02  0.00000000000E+00 0.  1.
         -6    2    1    2    0  504  0.38608280333E+01  0.17394916966E+02  0.10530076027E+03  0.20421798360E+03  0.17406678484E+03 0.  0.
        -24    2    3    3    0    0 -0.45461797335E+02  0.23526768354E+02  0.12093870508E+03  0.15190205589E+03  0.76339900114E+02 0.  0.
          6    2    1    2  502    0 -0.38608280333E+01 -0.17394916966E+02  0.38190078819E+03  0.42026666173E+03  0.17452325293E+03 0.  0.
         24    2    5    5    0    0  0.61654591335E+02 -0.33110219467E+02  0.22926899399E+03  0.25336011450E+03  0.82033534290E+02 0.  0.
          2    1    6    6  501    0  0.64168368956E+02  0.87287090799E+01  0.12058730704E+03  0.13687610659E+03  0.00000000000E+00 0. -1.
         -1    1    6    6    0  501 -0.25137776208E+01 -0.41838928547E+02  0.10868168694E+03  0.11648400790E+03  0.00000000000E+00 0.  1.
          5    1    5    5  502    0 -0.65515419368E+02  0.15715302501E+02  0.15263179420E+03  0.16690654723E+03  0.47000000000E+01 0. -1.
         11    1    4    4    0    0  0.10764288354E+02  0.31071479629E+02  0.61479979796E+02  0.69721550943E+02  0.00000000000E+00 0. -1.
        -12    1    4    4    0    0 -0.56226085690E+02 -0.75447112752E+01  0.59458725288E+02  0.82180504946E+02  0.00000000000E+00 0.  1.
         -5    1    3    3    0  504  0.49322625369E+02 -0.61318513884E+01 -0.15637944817E+02  0.52315927716E+02  0.47000000000E+01 0.  1.
<mgrwt>
<rscale>  2 0.17531685E+03</rscale>
<asrwt>0</asrwt>
<pdfrwt beam="1">  1       21 0.85514320E-01 0.17543048E+03</pdfrwt>
<pdfrwt beam="2">  1       21 0.10560239E-01 0.17543048E+03</pdfrwt>
<totfact> 0.87709664E+04</totfact>
</mgrwt>
</event>
<event>
12    1  0.2736842E-001  0.2057310E+03  0.7546771E-02  0.1145118E+00
         21   -1    0    0  502  503  0.00000000000E+00  0.00000000000E+00  0.14736059157E+03  0.14736059157E+03  0.00000000000E+00 0.  1.
         21   -1    0    0  503  504 -0.00000000000E+00 -0.00000000000E+00 -0.39324898310E+03  0.39324898310E+03  0.00000000000E+00 0. -1.
         -6    2    1    2    0  504 -0.55734725051E+01  0.11019121197E+03 -0.26373453531E+03  0.33410598656E+03  0.17290962479E+03 0.  0.
        -24    2    3    3    0    0 -0.37488841472E+02  0.59792536142E+01 -0.80601468065E+02  0.12094282520E+03  0.81788786541E+02 0.  0.
          6    2    1    2  502    0  0.55734725051E+01 -0.11019121197E+03  0.17846143784E+02  0.20650358812E+03  0.17364354370E+03 0.  0.
         24    2    5    5    0    0 -0.15887757923E+02 -0.10237037222E+01  0.43158153341E+02  0.92306753240E+02  0.80027755640E+02 0.  0.
          2    1    6    6  501    0 -0.50612976391E+00  0.33209042126E+02 -0.23782579926E+01  0.33297939235E+02  0.00000000000E+00 0. -1.
         -1    1    6    6    0  501 -0.15381628159E+02 -0.34232745848E+02  0.45536411333E+02  0.59008814005E+02  0.00000000000E+00 0.  1.
          5    1    5    5  502    0  0.21461230428E+02 -0.10916750825E+03 -0.25312009557E+02  0.11419683488E+03  0.47000000000E+01 0. -1.
         11    1    4    4    0    0 -0.42359573582E+02 -0.23940885516E+02 -0.76058047952E+02  0.90290232759E+02  0.00000000000E+00 0. -1.
        -12    1    4    4    0    0  0.48707321103E+01  0.29920139130E+02 -0.45434201124E+01  0.30652592438E+02  0.00000000000E+00 0.  1.
         -5    1    3    3    0  504  0.31915368967E+02  0.10421195836E+03 -0.18313306725E+03  0.21316316136E+03  0.47000000000E+01 0.  1.
<mgrwt>
<rscale>  2 0.20557606E+03</rscale>
<asrwt>0</asrwt>
<pdfrwt beam="1">  1       21 0.22670861E-01 0.20573101E+03</pdfrwt>
<pdfrwt beam="2">  1       21 0.60499843E-01 0.20573101E+03</pdfrwt>
<totfact> 0.46123685E+04</totfact>
</mgrwt>
</event>
<event>
12    1  0.2736842E-001  0.1919945E+03  0.7546771E-02  0.1156706E+00
         21   -1    0    0  502  503  0.00000000000E+00  0.00000000000E+00  0.76063975231E+03  0.76063975231E+03  0.00000000000E+00 0.  1.
         21   -1    0    0  503  504 -0.00000000000E+00 -0.00000000000E+00 -0.66832781763E+02  0.66832781763E+02  0.00000000000E+00 0.  1.
         -6    2    1    2    0  504 -0.13101087018E+02  0.80601584688E+02  0.12968068590E+03  0.23156956164E+03  0.17360624311E+03 0.  0.
        -24    2    3    3    0    0 -0.11590428865E+02 -0.25784867915E+02  0.35849297933E+02  0.89630212782E+02  0.77131092474E+02 0.  0.
          6    2    1    2  502    0  0.13101087018E+02 -0.80601584688E+02  0.56412628464E+03  0.59590297243E+03  0.17376315373E+03 0.  0.
         24    2    5    5    0    0  0.37500072350E+02 -0.11513210742E+03  0.48162048745E+03  0.50307536847E+03  0.80404445476E+02 0.  0.
          2    1    6    6  501    0  0.61504928381E+02 -0.90978088455E+02  0.39559737146E+03  0.41055712039E+03  0.00000000000E+00 0. -1.
         -1    1    6    6    0  501 -0.24004856030E+02 -0.24154018966E+02  0.86023115981E+02  0.92518248083E+02  0.00000000000E+00 0.  1.
          5    1    5    5  502    0 -0.24398985333E+02  0.34530522733E+02  0.82505797199E+02  0.92827603960E+02  0.47000000000E+01 0. -1.
         13    1    4    4    0    0 -0.38512105490E+02 -0.37275875919E+01 -0.13141323702E+01  0.38714391670E+02  0.00000000000E+00 0. -1.
        -14    1    4    4    0    0  0.26921676625E+02 -0.22057280323E+02  0.37163430303E+02  0.50915821112E+02  0.00000000000E+00 0.  1.
         -5    1    3    3    0  504 -0.15106581527E+01  0.10638645260E+03  0.93831387967E+02  0.14193934886E+03  0.47000000000E+01 0.  1.
<mgrwt>
<rscale>  2 0.19195899E+03</rscale>
<asrwt>0</asrwt>
<pdfrwt beam="1">  1       21 0.11702149E+00 0.19199450E+03</pdfrwt>
<pdfrwt beam="2">  1       21 0.10281967E-01 0.19199450E+03</pdfrwt>
<totfact> 0.43419872E+04</totfact>
</mgrwt>
</event>
<event>
12    1  0.2736842E-001  0.2251442E+03  0.7546771E-02  0.1130330E+00
         21   -1    0    0  502  503  0.00000000000E+00  0.00000000000E+00  0.14265523600E+04  0.14265523600E+04  0.00000000000E+00 0.  1.
         21   -1    0    0  503  504 -0.00000000000E+00 -0.00000000000E+00 -0.36588985327E+02  0.36588985327E+02  0.00000000000E+00 0. -1.
         -6    2    1    2    0  504  0.14204110657E+03 -0.14076159535E+01  0.83213921401E+03  0.86205891564E+03  0.17467754634E+03 0.  0.
        -24    2    3    3    0    0  0.34445379138E+02 -0.37186189120E+02  0.28941458993E+03  0.30759606346E+03  0.91023274969E+02 0.  0.
          6    2    1    2  502    0 -0.14204110657E+03  0.14076159535E+01  0.55782416065E+03  0.60108242968E+03  0.17307407583E+03 0.  0.
         24    2    5    5    0    0 -0.53711304892E+02 -0.67455882728E+02  0.32452468465E+03  0.34224836929E+03  0.66200263940E+02 0.  0.
          4    1    6    6  501    0 -0.31797532184E+02 -0.12670367025E+02  0.21622557044E+03  0.21891806359E+03  0.00000000000E+00 0. -1.
         -3    1    6    6    0  501 -0.21913772707E+02 -0.54785515703E+02  0.10829911421E+03  0.12333030570E+03  0.00000000000E+00 0.  1.
          5    1    5    5  502    0 -0.88329801683E+02  0.68863498681E+02  0.23329947600E+03  0.25883406039E+03  0.47000000000E+01 0. -1.
         11    1    4    4    0    0  0.40630487228E+02  0.18811348717E+02  0.92269494061E+02  0.10255907014E+03  0.00000000000E+00 0. -1.
        -12    1    4    4    0    0 -0.61851080893E+01 -0.55997537837E+02  0.19714509587E+03  0.20503699332E+03  0.00000000000E+00 0.  1.
         -5    1    3    3    0  504  0.10759572744E+03  0.35778573167E+02  0.54272462408E+03  0.55446285218E+03  0.47000000000E+01 0.  1.
<mgrwt>
<rscale>  2 0.22483310E+03</rscale>
<asrwt>0</asrwt>
<pdfrwt beam="1">  1       21 0.21946955E+00 0.22514418E+03</pdfrwt>
<pdfrwt beam="2">  1       21 0.56290758E-02 0.22514418E+03</pdfrwt>
<totfact> 0.21747196E+04</totfact>
</mgrwt>
</event>
<event>
12    1  0.2736842E-001  0.2692644E+03  0.7546771E-02  0.1102165E+00
         21   -1    0    0  502  503  0.00000000000E+00  0.00000000000E+00  0.29151920836E+03  0.29151920836E+03  0.00000000000E+00 0. -1.
         21   -1    0    0  503  504 -0.00000000000E+00 -0.00000000000E+00 -0.46092544916E+03  0.46092544916E+03  0.00000000000E+00 0. -1.
         -6    2    1    2    0  504 -0.16467858860E+03 -0.11753993573E+03 -0.34202366557E+03  0.43529701380E+03  0.17767562685E+03 0.  0.
        -24    2    3    3    0    0 -0.86709768792E+02  0.10235855465E+02 -0.13282791529E+03  0.17802139969E+03  0.80156140917E+02 0.  0.
          6    2    1    2  502    0  0.16467858860E+03  0.11753993573E+03  0.17261742476E+03  0.31714764373E+03  0.17277493613E+03 0.  0.
         24    2    5    5    0    0  0.13575585727E+03  0.28572680353E+02  0.88986770231E+02  0.19157745103E+03  0.97658709899E+02 0.  0.
          4    1    6    6  501    0  0.13443423011E+03  0.17840703445E+02  0.10551508062E+03  0.17182632268E+03  0.00000000000E+00 0. -1.
         -3    1    6    6    0  501  0.13216271636E+01  0.10731976907E+02 -0.16528310394E+02  0.19751128352E+02  0.00000000000E+00 0.  1.
          5    1    5    5  502    0  0.28922731325E+02  0.88967255378E+02  0.83630654533E+02  0.12557019270E+03  0.47000000000E+01 0. -1.
         13    1    4    4    0    0 -0.54584317855E+02 -0.12658538682E+02 -0.12611925734E+03  0.13800635286E+03  0.00000000000E+00 0. -1.
        -14    1    4    4    0    0 -0.32125450937E+02  0.22894394147E+02 -0.67086579454E+01  0.40015046829E+02  0.00000000000E+00 0.  1.
         -5    1    3    3    0  504 -0.77968819808E+02 -0.12777579120E+03 -0.20919575028E+03  0.25727561410E+03  0.47000000000E+01 0.  1.
<mgrwt>
<rscale>  2 0.26845870E+03</rscale>
<asrwt>0</asrwt>
<pdfrwt beam="1">  1       21 0.44849109E-01 0.26926437E+03</pdfrwt>
<pdfrwt beam="2">  1       21 0.70911608E-01 0.26926437E+03</pdfrwt>
<totfact> 0.81929448E+03</totfact>
</mgrwt>
</event>
<event>
12    1  0.2736842E-001  0.1842758E+03  0.7546771E-02  0.1164033E+00
         21   -1    0    0  502  503  0.00000000000E+00  0.00000000000E+00  0.25781138228E+03  0.25781138228E+03  0.00000000000E+00 0.  1.
         21   -1    0    0  503  504 -0.00000000000E+00 -0.00000000000E+00 -0.13407484273E+03  0.13407484273E+03  0.00000000000E+00 0.  1.
         -6    2    1    2    0  504  0.18845169260E+02 -0.58457940778E+02  0.92748579998E+02  0.20630040251E+03  0.17373855571E+03 0.  0.
        -24    2    3    3    0    0  0.47526900127E+02 -0.18880310786E+02  0.11776646040E+03  0.15119128511E+03  0.79841049127E+02 0.  0.
          6    2    1    2  502    0 -0.18845169260E+02  0.58457940778E+02  0.30987959549E+02  0.18558582250E+03  0.17236407001E+03 0.  0.
         24    2    5    5    0    0 -0.47710548545E+02  0.48783870513E+02 -0.36443964727E+02  0.11145113313E+03  0.80231103979E+02 0.  0.
          2    1    6    6  501    0 -0.61151386695E+02  0.76087548788E+01 -0.26083770178E+02  0.66915979499E+02  0.00000000000E+00 0. -1.
         -1    1    6    6    0  501  0.13440838150E+02  0.41175115634E+02 -0.10360194549E+02  0.44535153629E+02  0.00000000000E+00 0.  1.
          5    1    5    5  502    0  0.28865379286E+02  0.96740702650E+01  0.67431924276E+02  0.74134689373E+02  0.47000000000E+01 0. -1.
         13    1    4    4    0    0  0.87790968904E+01  0.14617342825E+02  0.92536924264E+02  0.94094748024E+02  0.00000000000E+00 0. -1.
        -14    1    4    4    0    0  0.38747803236E+02 -0.33497653611E+02  0.25229536136E+02  0.57096537081E+02  0.00000000000E+00 0.  1.
         -5    1    3    3    0  504 -0.28681730867E+02 -0.39577629992E+02 -0.25017880402E+02  0.55109117405E+02  0.47000000000E+01 0.  1.
<mgrwt>
<rscale>  2 0.18395108E+03</rscale>
<asrwt>0</asrwt>
<pdfrwt beam="1">  1       21 0.39663289E-01 0.18427576E+03</pdfrwt>
<pdfrwt beam="2">  1       21 0.20626899E-01 0.18427576E+03</pdfrwt>
<totfact> 0.13387732E+05</totfact>
</mgrwt>
</event>
<event>
12    1  0.2736842E-001  0.3046008E+03  0.7546771E-02  0.1083000E+00
         21   -1    0    0  502  503  0.00000000000E+00  0.00000000000E+00  0.51610243703E+03  0.51610243703E+03  0.00000000000E+00 0.  1.
         21   -1    0    0  503  504 -0.00000000000E+00 -0.00000000000E+00 -0.19516256985E+03  0.19516256985E+03  0.00000000000E+00 0. -1.
         -6    2    1    2    0  504  0.52823119370E+02  0.24451407761E+03  0.26083508302E+03  0.40079080191E+03  0.17326543301E+03 0.  0.
        -24    2    3    3    0    0  0.18461224465E+02  0.98764493237E+01  0.18233530701E+02  0.61507499029E+02  0.54884877107E+02 0.  0.
          6    2    1    2  502    0 -0.52823119370E+02 -0.24451407761E+03  0.60104784170E+02  0.31047420497E+03  0.17379364425E+03 0.  0.
         24    2    5    5    0    0  0.19618749458E+02 -0.19418895750E+03  0.68651355885E+02  0.22172976311E+03  0.79729747510E+02 0.  0.
          2    1    6    6  501    0  0.50197384793E+02 -0.10157319499E+03  0.36551753329E+02  0.11905008212E+03  0.00000000000E+00 0. -1.
         -1    1    6    6    0  501 -0.30578635335E+02 -0.92615762512E+02  0.32099602557E+02  0.10267968099E+03  0.00000000000E+00 0.  1.
          5    1    5    5  502    0 -0.72441868828E+02 -0.50325120106E+02 -0.85465717152E+01  0.88744441860E+02  0.47000000000E+01 0. -1.
         13    1    4    4    0    0 -0.15107546204E+02 -0.11376563596E+02  0.75662203590E+01  0.20369384922E+02  0.00000000000E+00 0. -1.
        -14    1    4    4    0    0  0.33568770669E+02  0.21253012919E+02  0.10667310342E+02  0.41138114107E+02  0.00000000000E+00 0.  1.
         -5    1    3    3    0  504  0.34361894906E+02  0.23463762828E+03  0.24260155231E+03  0.33928330288E+03  0.47000000000E+01 0.  1.
<mgrwt>
<rscale>  2 0.30452550E+03</rscale>
<asrwt>0</asrwt>
<pdfrwt beam="1">  1       21 0.79400375E-01 0.30460080E+03</pdfrwt>
<pdfrwt beam="2">  1       21 0.30025011E-01 0.30460080E+03</pdfrwt>
<totfact> 0.14027310E+04</totfact>
</mgrwt>
</event>
<event>
12    1  0.2736842E-001  0.2065381E+03  0.7546771E-02  0.1146538E+00
         21   -1    0    0  502  503  0.00000000000E+00  0.00000000000E+00  0.66260342603E+02  0.66260342603E+02  0.00000000000E+00 0. -1.
         21   -1    0    0  503  504 -0.00000000000E+00 -0.00000000000E+00 -0.82623350470E+03  0.82623350470E+03  0.00000000000E+00 0.  1.
         -6    2    1    2    0  504 -0.96687686524E+02  0.59773554923E+02 -0.61494573094E+03  0.64870350054E+03  0.17244301382E+03 0.  0.
        -24    2    3    3    0    0 -0.71594708797E+02  0.56641606603E+01 -0.17839177390E+03  0.20806880889E+03  0.79442552788E+02 0.  0.
          6    2    1    2  502    0  0.96687686524E+02 -0.59773554923E+02 -0.14502743115E+03  0.24379034676E+03  0.15962265125E+03 0.  0.
         24    2    5    5    0    0  0.10715794748E+03 -0.39300268145E+01 -0.75312509130E+02  0.15373266331E+03  0.80395814060E+02 0.  0.
          4    1    6    6  501    0  0.23463032358E+02 -0.17896525858E+02  0.12114509527E+02  0.31899229870E+02  0.00000000000E+00 0. -1.
         -3    1    6    6    0  501  0.83694915117E+02  0.13966499043E+02 -0.87427018657E+02  0.12183343344E+03  0.00000000000E+00 0.  1.
          5    1    5    5  502    0 -0.10470260951E+02 -0.55843528108E+02 -0.69714922023E+02  0.90057683451E+02  0.47000000000E+01 0. -1.
         13    1    4    4    0    0 -0.39160581823E+02 -0.35319808143E+02 -0.11004521443E+03  0.12202864105E+03  0.00000000000E+00 0. -1.
        -14    1    4    4    0    0 -0.32434126975E+02  0.40983968803E+02 -0.68346559471E+02  0.86040167846E+02  0.00000000000E+00 0.  1.
         -5    1    3    3    0  504 -0.25092977727E+02  0.54109394262E+02 -0.43655395704E+03  0.44063469165E+03  0.47000000000E+01 0.  1.
<mgrwt>
<rscale>  2 0.20384150E+03</rscale>
<asrwt>0</asrwt>
<pdfrwt beam="1">  1       21 0.10193899E-01 0.20653808E+03</pdfrwt>
<pdfrwt beam="2">  1       21 0.12711284E+00 0.20653808E+03</pdfrwt>
<totfact> 0.35590879E+04</totfact>
</mgrwt>
</event>
<event>
12    1  0.2736842E-001  0.1912662E+03  0.7546771E-02  0.1158402E+00
         21   -1    0    0  502  503  0.00000000000E+00  0.00000000000E+00  0.66510392029E+02  0.66510392029E+02  0.00000000000E+00 0. -1.
         21   -1    0    0  503  504 -0.00000000000E+00 -0.00000000000E+00 -0.98156557743E+03  0.98156557743E+03  0.00000000000E+00 0. -1.
         -6    2    1    2    0  504 -0.30137592387E+02 -0.75415642860E+02 -0.80725998029E+03  0.82852513717E+03  0.16789709191E+03 0.  0.
        -24    2    3    3    0    0  0.70098841260E+01 -0.91525208619E+02 -0.73873208116E+03  0.74879047670E+03  0.80846075798E+02 0.  0.
          6    2    1    2  502    0  0.30137592387E+02  0.75415642860E+02 -0.10779520511E+03  0.21955083230E+03  0.17316745668E+03 0.  0.
         24    2    5    5    0    0  0.33215961176E+01 -0.35168374352E+02 -0.41246312836E+02  0.87646444265E+02  0.68795300090E+02 0.  0.
          4    1    6    6  501    0  0.78842733237E+01 -0.32798796076E+02 -0.59655676200E+02  0.68532638157E+02  0.00000000000E+00 0. -1.
         -3    1    6    6    0  501 -0.45626772061E+01 -0.23695782767E+01  0.18409363364E+02  0.19113806109E+02  0.00000000000E+00 0.  1.
          5    1    5    5  502    0  0.26815996270E+02  0.11058401721E+03 -0.66548892277E+02  0.13190438803E+03  0.47000000000E+01 0. -1.
         11    1    4    4    0    0 -0.26287405148E+02 -0.49204015385E+01 -0.24142055560E+03  0.24289735010E+03  0.00000000000E+00 0. -1.
        -12    1    4    4    0    0  0.33297289274E+02 -0.86604807081E+02 -0.49731152556E+03  0.50589312660E+03  0.00000000000E+00 0.  1.
         -5    1    3    3    0  504 -0.37147476513E+02  0.16109565759E+02 -0.68527899131E+02  0.79734660466E+02  0.47000000000E+01 0.  1.
<mgrwt>
<rscale>  2 0.19006539E+03</rscale>
<asrwt>0</asrwt>
<pdfrwt beam="1">  1       21 0.10232368E-01 0.19126621E+03</pdfrwt>
<pdfrwt beam="2">  1       21 0.15101008E+00 0.19126621E+03</pdfrwt>
<totfact> 0.22902327E+04</totfact>
</mgrwt>
</event>
<event>
12    1  0.2736842E-001  0.2443987E+03  0.7546771E-02  0.1116921E+00
         21   -1    0    0  502  503  0.00000000000E+00  0.00000000000E+00  0.12882022015E+04  0.12882022015E+04  0.00000000000E+00 0. -1.
         21   -1    0    0  503  504 -0.00000000000E+00 -0.00000000000E+00 -0.62132264320E+02  0.62132264320E+02  0.00000000000E+00 0. -1.
         -6    2    1    2    0  504  0.16313152471E+03 -0.56950311249E+02  0.27277610032E+03  0.36624790829E+03  0.17284529821E+03 0.  0.
        -24    2    3    3    0    0  0.76230651745E+02 -0.14769199271E+02  0.48088961802E+02  0.12163104839E+03  0.80326347940E+02 0.  0.
          6    2    1    2  502    0 -0.16313152471E+03  0.56950311249E+02  0.95329383689E+03  0.98408655756E+03  0.17263250277E+03 0.  0.
         24    2    5    5    0    0 -0.11385677597E+03 -0.16361538922E+02  0.73698938813E+03  0.75039374040E+03  0.81892258628E+02 0.  0.
          4    1    6    6  501    0 -0.58144877297E+02 -0.22246941103E+02  0.58685180891E+03  0.59014472696E+03  0.00000000000E+00 0. -1.
         -3    1    6    6    0  501 -0.55711898670E+02  0.58854021806E+01  0.15013757923E+03  0.16024901344E+03  0.00000000000E+00 0.  1.
          5    1    5    5  502    0 -0.49274748748E+02  0.73311850171E+02  0.21630444875E+03  0.23369281715E+03  0.47000000000E+01 0. -1.
         13    1    4    4    0    0  0.62123371299E+02  0.14377496339E+02  0.59582735564E+02  0.87270430501E+02  0.00000000000E+00 0. -1.
        -14    1    4    4    0    0  0.14107280446E+02 -0.29146695610E+02 -0.11493773763E+02  0.34360617891E+02  0.00000000000E+00 0.  1.
         -5    1    3    3    0  504  0.86900872970E+02 -0.42181111978E+02  0.22468713852E+03  0.24461685990E+03  0.47000000000E+01 0.  1.
<mgrwt>
<rscale>  2 0.24436109E+03</rscale>
<asrwt>0</asrwt>
<pdfrwt beam="1">  1       21 0.19818493E+00 0.24439871E+03</pdfrwt>
<pdfrwt beam="2">  1       21 0.95588108E-02 0.24439871E+03</pdfrwt>
<totfact> 0.11659727E+04</totfact>
</mgrwt>
</event>
<event>
12    1  0.2736842E-001  0.1870475E+03  0.7546771E-02  0.1161994E+00
         21   -1    0    0  502  503  0.00000000000E+00  0.00000000000E+00  0.47622529032E+02  0.47622529032E+02  0.00000000000E+00 0. -1.
         21   -1    0    0  503  504 -0.00000000000E+00 -0.00000000000E+00 -0.72662896148E+03  0.72662896148E+03  0.00000000000E+00 0. -1.
         -6    2    1    2    0  504  0.58982608755E+02  0.35821088128E+01 -0.37830663007E+03  0.42202213102E+03  0.17746828753E+03 0.  0.
        -24    2    3    3    0    0 -0.17211605065E+01  0.22957704629E+02 -0.75359451112E+02  0.11241036679E+03  0.80168728900E+02 0.  0.
          6    2    1    2  502    0 -0.58982608755E+02 -0.35821088128E+01 -0.30069980238E+03  0.35222935949E+03  0.17364725998E+03 0.  0.
         24    2    5    5    0    0  0.16935683684E+02 -0.14820943947E+02 -0.24078522648E+03  0.25475246506E+03  0.80092542745E+02 0.  0.
          2    1    6    6  501    0 -0.22745530093E+01 -0.27579160591E+02 -0.22525790324E+03  0.22695133105E+03  0.00000000000E+00 0. -1.
         -1    1    6    6    0  501  0.19210236693E+02  0.12758216644E+02 -0.15527323239E+02  0.27801134018E+02  0.00000000000E+00 0.  1.
          5    1    5    5  502    0 -0.75918292439E+02  0.11238835134E+02 -0.59914575898E+02  0.97476894427E+02  0.47000000000E+01 0. -1.
         13    1    4    4    0    0  0.34605900635E+02  0.16063624720E+02 -0.13745284310E+02  0.40552943649E+02  0.00000000000E+00 0. -1.
        -14    1    4    4    0    0 -0.36327061141E+02  0.68940799093E+01 -0.61614166802E+02  0.71857423136E+02  0.00000000000E+00 0.  1.
         -5    1    3    3    0  504  0.60703769262E+02 -0.19375595817E+02 -0.30294717896E+03  0.30961176424E+03  0.47000000000E+01 0.  1.
<mgrwt>
<rscale>  2 0.18613552E+03</rscale>
<asrwt>0</asrwt>
<pdfrwt beam="1">  1       21 0.73265429E-02 0.18704751E+03</pdfrwt>
<pdfrwt beam="2">  1       21 0.11178907E+00 0.18704751E+03</pdfrwt>
<totfact> 0.88016751E+04</totfact>
</mgrwt>
</event>
<event>
12    1  0.2736842E-001  0.1976789E+03  0.7546771E-02  0.1151811E+00
         21   -1    0    0  502  503  0.00000000000E+00  0.00000000000E+00  0.86961319224E+03  0.86961319224E+03  0.00000000000E+00 0.  1.
         21   -1    0    0  503  504 -0.00000000000E+00 -0.00000000000E+00 -0.53381800446E+02  0.53381800446E+02  0.00000000000E+00 0.  1.
         -6    2    1    2    0  504  0.85981801600E+02 -0.42985388437E+02  0.22381625111E+03  0.29861455242E+03  0.17273193923E+03 0.  0.
        -24    2    3    3    0    0 -0.76143760189E+01 -0.63553321853E+01  0.16067516925E+03  0.17982527805E+03  0.80138952103E+02 0.  0.
          6    2    1    2  502    0 -0.85981801600E+02  0.42985388437E+02  0.59241514068E+03  0.62438044027E+03  0.17220517255E+03 0.  0.
         24    2    5    5    0    0  0.55717273774E+01  0.20606318689E+01  0.39141802822E+03  0.39970553382E+03  0.80753641411E+02 0.  0.
          2    1    6    6  501    0  0.37365751969E+02  0.18235055570E+02  0.14958921805E+03  0.15525994599E+03  0.00000000000E+00 0. -1.
         -1    1    6    6    0  501 -0.31794024591E+02 -0.16174423701E+02  0.24182881016E+03  0.24444558782E+03  0.00000000000E+00 0.  1.
          5    1    5    5  502    0 -0.91553528978E+02  0.40924756568E+02  0.20099711247E+03  0.22467490645E+03  0.47000000000E+01 0. -1.
         11    1    4    4    0    0  0.22945079565E+02  0.18318554014E+00  0.14109119481E+03  0.14294486869E+03  0.00000000000E+00 0. -1.
        -12    1    4    4    0    0 -0.30559455584E+02 -0.65385177255E+01  0.19583974440E+02  0.36880409359E+02  0.00000000000E+00 0.  1.
         -5    1    3    3    0  504  0.93596177619E+02 -0.36630056252E+02  0.63141081864E+02  0.11878927437E+03  0.47000000000E+01 0.  1.
<mgrwt>
<rscale>  2 0.19756374E+03</rscale>
<asrwt>0</asrwt>
<pdfrwt beam="1">  1       21 0.13378664E+00 0.19767887E+03</pdfrwt>
<pdfrwt beam="2">  1       21 0.82125853E-02 0.19767887E+03</pdfrwt>
<totfact> 0.45952517E+04</totfact>
</mgrwt>
</event>
<event>
12    1  0.2736842E-001  0.1812577E+03  0.7546771E-02  0.1168483E+00
         21   -1    0    0  502  503  0.00000000000E+00  0.00000000000E+00  0.15565486098E+03  0.15565486098E+03  0.00000000000E+00 0. -1.
         21   -1    0    0  503  504 -0.00000000000E+00 -0.00000000000E+00 -0.37403371183E+03  0.37403371183E+03  0.00000000000E+00 0. -1.
         -6    2    1    2    0  504  0.35001642205E+01 -0.54463218713E+02 -0.28996459294E+03  0.34195586319E+03  0.17284633020E+03 0.  0.
        -24    2    3    3    0    0  0.86928094117E+01  0.11520090132E+02 -0.25363377458E+03  0.26630681181E+03  0.79880842506E+02 0.  0.
          6    2    1    2  502    0 -0.35001642205E+01  0.54463218713E+02  0.71585742096E+02  0.18773270963E+03  0.16474391779E+03 0.  0.
         24    2    5    5    0    0 -0.50995740821E+02  0.68229700067E+02  0.28232213187E+02  0.12180119763E+03  0.82356641073E+02 0.  0.
          4    1    6    6  501    0 -0.44135980689E+02 -0.52047036235E+01  0.14745219267E+02  0.46824088057E+02  0.00000000000E+00 0. -1.
         -3    1    6    6    0  501 -0.68597601326E+01  0.73434403690E+02  0.13486993920E+02  0.74977109570E+02  0.00000000000E+00 0.  1.
          5    1    5    5  502    0  0.47495576601E+02 -0.13766481354E+02  0.43353528909E+02  0.65931511998E+02  0.47000000000E+01 0. -1.
         13    1    4    4    0    0 -0.34518297990E+02  0.10647137877E+01 -0.81299790947E+02  0.88330643152E+02  0.00000000000E+00 0. -1.
        -14    1    4    4    0    0  0.43211107402E+02  0.10455376345E+02 -0.17233398363E+03  0.17797616866E+03  0.00000000000E+00 0.  1.
         -5    1    3    3    0  504 -0.51926451913E+01 -0.65983308846E+02 -0.36330818366E+02  0.75649051372E+02  0.47000000000E+01 0.  1.
<mgrwt>
<rscale>  2 0.17929884E+03</rscale>
<asrwt>0</asrwt>
<pdfrwt beam="1">  1       21 0.23946902E-01 0.18125768E+03</pdfrwt>
<pdfrwt beam="2">  1       21 0.57543647E-01 0.18125768E+03</pdfrwt>
<totfact> 0.46843869E+04</totfact>
</mgrwt>
</event>
<event>
12    1  0.2736842E-001  0.2168895E+03  0.7546771E-02  0.1136695E+00
         21   -1    0    0  502  503  0.00000000000E+00  0.00000000000E+00  0.15846502034E+03  0.15846502034E+03  0.00000000000E+00 0.  1.
         21   -1    0    0  503  504 -0.00000000000E+00 -0.00000000000E+00 -0.29894215664E+03  0.29894215664E+03  0.00000000000E+00 0. -1.
         -6    2    1    2    0  504 -0.75427084386E+02  0.10420417390E+03 -0.10153143219E+03  0.23947793884E+03  0.17462329899E+03 0.  0.
        -24    2    3    3    0    0 -0.30227362640E+02  0.72073549033E+02 -0.13431477628E+03  0.17488514087E+03  0.80225079903E+02 0.  0.
          6    2    1    2  502    0  0.75427084386E+02 -0.10420417390E+03 -0.38945704103E+02  0.21792923815E+03  0.17154774861E+03 0.  0.
         24    2    5    5    0    0  0.29921197000E+02 -0.12996099011E+03 -0.13352403556E+02  0.15952284808E+03  0.86510781974E+02 0.  0.
          2    1    6    6  501    0 -0.10063779576E+02  0.74542881649E+01  0.79464758434E+01  0.14832145823E+02  0.00000000000E+00 0. -1.
         -1    1    6    6    0  501  0.39984976575E+02 -0.13741527827E+03 -0.21298879399E+02  0.14469070225E+03  0.00000000000E+00 0.  1.
          5    1    5    5  502    0  0.45505887387E+02  0.25756816207E+02 -0.25593300547E+02  0.58406390069E+02  0.47000000000E+01 0. -1.
         11    1    4    4    0    0  0.22942060391E+02  0.37120214583E+01 -0.15812925951E+02  0.28109889104E+02  0.00000000000E+00 0. -1.
        -12    1    4    4    0    0 -0.53169423031E+02  0.68361527575E+02 -0.11850185033E+03  0.14677525176E+03  0.00000000000E+00 0.  1.
         -5    1    3    3    0  504 -0.45199721746E+02  0.32130624869E+02  0.32783344089E+02  0.64592797974E+02  0.47000000000E+01 0.  1.
<mgrwt>
<rscale>  2 0.21626973E+03</rscale>
<asrwt>0</asrwt>
<pdfrwt beam="1">  1       21 0.24379234E-01 0.21688949E+03</pdfrwt>
<pdfrwt beam="2">  1       21 0.45991101E-01 0.21688949E+03</pdfrwt>
<totfact> 0.71244725E+04</totfact>
</mgrwt>
</event>
<event>
12    1  0.2736842E-001  0.1844830E+03  0.7546771E-02  0.1163875E+00
         21   -1    0    0  502  503  0.00000000000E+00  0.00000000000E+00  0.46203368284E+03  0.46203368284E+03  0.00000000000E+00 0.  1.
         21   -1    0    0  503  504 -0.00000000000E+00 -0.00000000000E+00 -0.12228582349E+03  0.12228582349E+03  0.00000000000E+00 0.  1.
         -6    2    1    2    0  504 -0.56352408642E+02  0.20501271483E+02 -0.15046372710E+02  0.18509555382E+03  0.17446511004E+03 0.  0.
        -24    2    3    3    0    0  0.18050081126E+01  0.39308142614E+02 -0.60866089172E+02  0.10856111751E+03  0.80823556552E+02 0.  0.
          6    2    1    2  502    0  0.56352408642E+02 -0.20501271483E+02  0.35479423205E+03  0.39922395251E+03  0.17293039370E+03 0.  0.
         24    2    5    5    0    0  0.70335011919E+02  0.41813756041E+02  0.26929014281E+03  0.29239832296E+03  0.79272909383E+02 0.  0.
          2    1    6    6  501    0  0.73884114053E+02  0.13251919422E+02  0.23945006173E+03  0.25093984885E+03  0.00000000000E+00 0. -1.
         -1    1    6    6    0  501 -0.35491021347E+01  0.28561836619E+02  0.29840081074E+02  0.41458474110E+02  0.00000000000E+00 0.  1.
          5    1    5    5  502    0 -0.13982603276E+02 -0.62315027524E+02  0.85504089247E+02  0.10682562955E+03  0.47000000000E+01 0. -1.
         11    1    4    4    0    0  0.25114506994E+02  0.84249565396E+01  0.95960043673E+01  0.28174485871E+02  0.00000000000E+00 0. -1.
        -12    1    4    4    0    0 -0.23309498882E+02  0.30883186074E+02 -0.70462093539E+02  0.80386631638E+02  0.00000000000E+00 0.  1.
         -5    1    3    3    0  504 -0.58157416755E+02 -0.18806871131E+02  0.45819716463E+02  0.76534436315E+02  0.47000000000E+01 0.  1.
<mgrwt>
<rscale>  2 0.18411923E+03</rscale>
<asrwt>0</asrwt>
<pdfrwt beam="1">  1       21 0.71082104E-01 0.18448298E+03</pdfrwt>
<pdfrwt beam="2">  1       21 0.18813204E-01 0.18448298E+03</pdfrwt>
<totfact> 0.46520689E+04</totfact>
</mgrwt>
</event>
<event>
12    1  0.2736842E-001  0.1931868E+03  0.7546771E-02  0.1156165E+00
         21   -1    0    0  502  503  0.00000000000E+00  0.00000000000E+00  0.15939117835E+03  0.15939117835E+03  0.00000000000E+00 0. -1.
         21   -1    0    0  503  504 -0.00000000000E+00 -0.00000000000E+00 -0.24052988862E+03  0.24052988862E+03  0.00000000000E+00 0. -1.
         -6    2    1    2    0  504 -0.19306040229E+02  0.78490724619E+02 -0.88679121403E+00  0.19072853609E+03  0.17275147189E+03 0.  0.
        -24    2    3    3    0    0  0.55238219946E+02  0.65781727405E+02  0.10213176527E+02  0.11415396708E+03  0.74487063460E+02 0.  0.
          6    2    1    2  502    0  0.19306040229E+02 -0.78490724619E+02 -0.80251919052E+02  0.20919253088E+03  0.17546403455E+03 0.  0.
         24    2    5    5    0    0  0.96763975270E+00 -0.64057560766E+02  0.21096324467E+02  0.10508600075E+03  0.80583529516E+02 0.  0.
          4    1    6    6  501    0 -0.51687960455E+01 -0.68247800383E+02  0.43758995159E+02  0.81236250325E+02  0.00000000000E+00 0. -1.
         -3    1    6    6    0  501  0.61364357982E+01  0.41902396162E+01 -0.22662670692E+02  0.23849750423E+02  0.00000000000E+00 0.  1.
          5    1    5    5  502    0  0.18338400476E+02 -0.14433163853E+02 -0.10134824352E+03  0.10410653013E+03  0.47000000000E+01 0. -1.
         11    1    4    4    0    0  0.45236817170E+02  0.26574416362E+02 -0.27154763508E+02  0.59075802270E+02  0.00000000000E+00 0. -1.
        -12    1    4    4    0    0  0.10001402776E+02  0.39207311044E+02  0.37367940035E+02  0.55078164814E+02  0.00000000000E+00 0.  1.
         -5    1    3    3    0  504 -0.74544260175E+02  0.12708997214E+02 -0.11099967741E+02  0.76574569010E+02  0.47000000000E+01 0.  1.
<mgrwt>
<rscale>  2 0.19256877E+03</rscale>
<asrwt>0</asrwt>
<pdfrwt beam="1">  1       21 0.24521720E-01 0.19318681E+03</pdfrwt>
<pdfrwt beam="2">  1       21 0.37004598E-01 0.19318681E+03</pdfrwt>
<totfact> 0.11066995E+05</totfact>
</mgrwt>
</event>
<event>
12    1  0.2736842E-001  0.2240068E+03  0.7546771E-02  0.1131402E+00
         21   -1    0    0  502  503  0.00000000000E+00  0.00000000000E+00  0.30313002183E+03  0.30313002183E+03  0.00000000000E+00 0. -1.
         21   -1    0    0  503  504 -0.00000000000E+00 -0.00000000000E+00 -0.21382346184E+03  0.21382346184E+03  0.00000000000E+00 0.  1.
         -6    2    1    2    0  504 -0.34439524336E+02 -0.13840081946E+03 -0.80368784244E+02  0.23798779271E+03  0.17273731599E+03 0.  0.
        -24    2    3    3    0    0 -0.54909733795E+02 -0.43311144890E+02  0.81608861380E+01  0.10637978299E+03  0.79744115953E+02 0.  0.
          6    2    1    2  502    0  0.34439524336E+02  0.13840081946E+03  0.16967534423E+03  0.27896569095E+03  0.16938496575E+03 0.  0.
         24    2    5    5    0    0  0.82001554554E+02  0.64340039925E+02  0.86106437750E+02  0.15750377134E+03  0.80803611788E+02 0.  0.
          4    1    6    6  501    0  0.54080208178E+02  0.50775450737E+02  0.99153483457E+02  0.12383145237E+03  0.00000000000E+00 0. -1.
         -3    1    6    6    0  501  0.27921346376E+02  0.13564589188E+02 -0.13047045707E+02  0.33672318973E+02  0.00000000000E+00 0.  1.
          5    1    5    5  502    0 -0.47562030218E+02  0.74060779539E+02  0.83568906485E+02  0.12146191961E+03  0.47000000000E+01 0. -1.
         11    1    4    4    0    0 -0.49213046971E+02  0.11556936581E+02  0.82259506140E+01  0.51216726162E+02  0.00000000000E+00 0. -1.
        -12    1    4    4    0    0 -0.56966868248E+01 -0.54868081471E+02 -0.65064476026E-01  0.55163056827E+02  0.00000000000E+00 0.  1.
         -5    1    3    3    0  504  0.20470209460E+02 -0.95089674574E+02 -0.88529670382E+02  0.13160800973E+03  0.47000000000E+01 0.  1.
<mgrwt>
<rscale>  2 0.22336031E+03</rscale>
<asrwt>0</asrwt>
<pdfrwt beam="1">  1       21 0.46635388E-01 0.22400680E+03</pdfrwt>
<pdfrwt beam="2">  1       21 0.32895917E-01 0.22400680E+03</pdfrwt>
<totfact> 0.38557739E+04</totfact>
</mgrwt>
</event>
<event>
12    1  0.2736842E-001  0.1936462E+03  0.7546771E-02  0.1155238E+00
         21   -1    0    0  502  503  0.00000000000E+00  0.00000000000E+00  0.66524149611E+03  0.66524149611E+03  0.00000000000E+00 0. -1.
         21   -1    0    0  503  504 -0.00000000000E+00 -0.00000000000E+00 -0.70855444383E+02  0.70855444383E+02  0.00000000000E+00 0. -1.
         -6    2    1    2    0  504  0.57260584340E+02  0.65560429196E+02  0.46386989071E+03  0.50266702179E+03  0.17297952161E+03 0.  0.
        -24    2    3    3    0    0  0.33264125577E+02  0.20247595643E+02  0.43409967408E+03  0.44319065072E+03  0.80367646905E+02 0.  0.
          6    2    1    2  502    0 -0.57260584340E+02 -0.65560429196E+02  0.13051616102E+03  0.23342991870E+03  0.17285286883E+03 0.  0.
         24    2    5    5    0    0 -0.13256587446E+02 -0.83245280860E+02  0.14263320325E+03  0.18425656786E+03  0.80627155677E+02 0.  0.
          2    1    6    6  501    0 -0.21659316644E+02 -0.93284569025E+02  0.95138800023E+02  0.13499084445E+03  0.00000000000E+00 0. -1.
         -1    1    6    6    0  501  0.84027291974E+01  0.10039288165E+02  0.47494403226E+02  0.49265723405E+02  0.00000000000E+00 0.  1.
          5    1    5    5  502    0 -0.44003996894E+02  0.17684851664E+02 -0.12117042230E+02  0.49173350846E+02  0.47000000000E+01 0. -1.
         11    1    4    4    0    0  0.28690867345E+02  0.34384477583E+01  0.43622276287E+02  0.52324867706E+02  0.00000000000E+00 0. -1.
        -12    1    4    4    0    0  0.45732582314E+01  0.16809147885E+02  0.39047739779E+03  0.39086578301E+03  0.00000000000E+00 0.  1.
         -5    1    3    3    0  504  0.23996458763E+02  0.45312833553E+02  0.29770216627E+02  0.59476371072E+02  0.47000000000E+01 0.  1.
<mgrwt>
<rscale>  2 0.19361793E+03</rscale>
<asrwt>0</asrwt>
<pdfrwt beam="1">  1       21 0.10234484E+00 0.19364622E+03</pdfrwt>
<pdfrwt beam="2">  1       21 0.10900838E-01 0.19364622E+03</pdfrwt>
<totfact> 0.54079283E+04</totfact>
</mgrwt>
</event>
<event>
12    1  0.2736842E-001  0.1969135E+03  0.7546771E-02  0.1152680E+00
         21   -1    0    0  502  503  0.00000000000E+00  0.00000000000E+00  0.51244372213E+03  0.51244372213E+03  0.00000000000E+00 0. -1.
         21   -1    0    0  503  504 -0.00000000000E+00 -0.00000000000E+00 -0.39806536898E+03  0.39806536898E+03  0.00000000000E+00 0. -1.
         -6    2    1    2    0  504 -0.72933589556E+02 -0.60083335507E+02 -0.35282812762E+03  0.40405770556E+03  0.17275886688E+03 0.  0.
        -24    2    3    3    0    0  0.26598871959E+02 -0.37309700933E+02 -0.19479184691E+03  0.21584796790E+03  0.80913335432E+02 0.  0.
          6    2    1    2  502    0  0.72933589556E+02  0.60083335507E+02  0.46720648077E+03  0.50645138556E+03  0.17111924078E+03 0.  0.
         24    2    5    5    0    0  0.34432520357E+02  0.58776856588E+02  0.12297873103E+03  0.16004285087E+03  0.76482864083E+02 0.  0.
          4    1    6    6  501    0 -0.15405059628E+02  0.82526227287E+00  0.21432642566E+00  0.15428637522E+02  0.00000000000E+00 0. -1.
         -3    1    6    6    0  501  0.49837579986E+02  0.57951594315E+02  0.12276440461E+03  0.14461421334E+03  0.00000000000E+00 0.  1.
          5    1    5    5  502    0  0.38501069199E+02  0.13064789186E+01  0.34422774974E+03  0.34640853469E+03  0.47000000000E+01 0. -1.
         11    1    4    4    0    0 -0.27598441893E+02 -0.17356997589E+02 -0.47260070773E+02  0.57414751151E+02  0.00000000000E+00 0. -1.
        -12    1    4    4    0    0  0.54197313852E+02 -0.19952703344E+02 -0.14753177614E+03  0.15843321675E+03  0.00000000000E+00 0.  1.
         -5    1    3    3    0  504 -0.99532461515E+02 -0.22773634574E+02 -0.15803628071E+03  0.18820973765E+03  0.47000000000E+01 0.  1.
<mgrwt>
<rscale>  2 0.19655332E+03</rscale>
<asrwt>0</asrwt>
<pdfrwt beam="1">  1       21 0.78837496E-01 0.19691354E+03</pdfrwt>
<pdfrwt beam="2">  1       21 0.61240826E-01 0.19691354E+03</pdfrwt>
<totfact> 0.35124809E+03</totfact>
</mgrwt>
</event>
<event>
12    1  0.2736842E-001  0.1972120E+03  0.7546771E-02  0.1152180E+00
         21   -1    0    0  502  503  0.00000000000E+00  0.00000000000E+00  0.44548806147E+03  0.44548806147E+03  0.00000000000E+00 0. -1.
         21   -1    0    0  503  504 -0.00000000000E+00 -0.00000000000E+00 -0.90408607754E+02  0.90408607754E+02  0.00000000000E+00 0. -1.
         -6    2    1    2    0  504 -0.20795480857E+02 -0.93173161384E+02  0.22816089460E+03  0.30137393976E+03  0.17220675862E+03 0.  0.
        -24    2    3    3    0    0 -0.36898758280E+02 -0.42540818667E+02  0.22821379569E+03  0.24803500022E+03  0.79174397223E+02 0.  0.
          6    2    1    2  502    0  0.20795480857E+02  0.93173161384E+02  0.12691855911E+03  0.23452272946E+03  0.17256563957E+03 0.  0.
         24    2    5    5    0    0 -0.25624994456E+02  0.48750936530E+02  0.13939197516E+03  0.16890359584E+03  0.77878159942E+02 0.  0.
          2    1    6    6  501    0 -0.44022252992E+02  0.22142245109E+02  0.37280936917E+02  0.61790824840E+02  0.00000000000E+00 0. -1.
         -1    1    6    6    0  501  0.18397258536E+02  0.26608691422E+02  0.10211103824E+03  0.10711277100E+03  0.00000000000E+00 0.  1.
          5    1    5    5  502    0  0.46420475313E+02  0.44422224854E+02 -0.12473416045E+02  0.65619133620E+02  0.47000000000E+01 0. -1.
         11    1    4    4    0    0 -0.91020675986E+01 -0.61859345356E+02  0.16252341846E+03  0.17413583143E+03  0.00000000000E+00 0. -1.
        -12    1    4    4    0    0 -0.27796690682E+02  0.19318526689E+02  0.65690377237E+02  0.73899168790E+02  0.00000000000E+00 0.  1.
         -5    1    3    3    0  504  0.16103277423E+02 -0.50632342717E+02 -0.52901089249E-01  0.53338939540E+02  0.47000000000E+01 0.  1.
<mgrwt>
<rscale>  2 0.19713351E+03</rscale>
<asrwt>0</asrwt>
<pdfrwt beam="1">  1       21 0.68536623E-01 0.19721204E+03</pdfrwt>
<pdfrwt beam="2">  1       21 0.13909017E-01 0.19721204E+03</pdfrwt>
<totfact> 0.87165167E+04</totfact>
</mgrwt>
</event>
<event>
12    1  0.2736842E-001  0.2601705E+03  0.7546771E-02  0.1107106E+00
         21   -1    0    0  502  503  0.00000000000E+00  0.00000000000E+00  0.31080925105E+03  0.31080925105E+03  0.00000000000E+00 0. -1.
         21   -1    0    0  503  504 -0.00000000000E+00 -0.00000000000E+00 -0.34525529804E+03  0.34525529804E+03  0.00000000000E+00 0.  1.
         -6    2    1    2    0  504  0.97873701616E+02  0.16792966149E+03 -0.21681809067E+03  0.33834102119E+03  0.17229314990E+03 0.  0.
        -24    2    3    3    0    0  0.12294301155E+03  0.78171365883E+02 -0.12741994516E+03  0.20911586748E+03  0.79169798991E+02 0.  0.
          6    2    1    2  502    0 -0.97873701616E+02 -0.16792966149E+03  0.18237204368E+03  0.31772352790E+03  0.17294231752E+03 0.  0.
         24    2    5    5    0    0 -0.13509418528E+03 -0.15153689365E+03  0.14488542369E+03  0.26221295305E+03  0.80931932597E+02 0.  0.
          2    1    6    6  501    0 -0.12619944731E+03 -0.99588650557E+02  0.13186438131E+03  0.20792406036E+03  0.00000000000E+00 0. -1.
         -1    1    6    6    0  501 -0.88947379762E+01 -0.51948243093E+02  0.13021042381E+02  0.54288892684E+02  0.00000000000E+00 0.  1.
          5    1    5    5  502    0  0.37220483669E+02 -0.16392767843E+02  0.37486619986E+02  0.55510574849E+02  0.47000000000E+01 0. -1.
         11    1    4    4    0    0  0.50607103436E+02  0.45590246515E+02 -0.12159674923E+02  0.69191091838E+02  0.00000000000E+00 0. -1.
        -12    1    4    4    0    0  0.72335908119E+02  0.32581119368E+02 -0.11526027024E+03  0.13992477564E+03  0.00000000000E+00 0.  1.
         -5    1    3    3    0  504 -0.25069309939E+02  0.89758295609E+02 -0.89398145511E+02  0.12922515371E+03  0.47000000000E+01 0.  1.
<mgrwt>
<rscale>  2 0.26006264E+03</rscale>
<asrwt>0</asrwt>
<pdfrwt beam="1">  1       21 0.47816808E-01 0.26017048E+03</pdfrwt>
<pdfrwt beam="2">  1       21 0.53116200E-01 0.26017048E+03</pdfrwt>
<totfact> 0.13500678E+04</totfact>
</mgrwt>
</event>
<event>
12    1  0.2736842E-001  0.1884361E+03  0.7546771E-02  0.1160044E+00
         21   -1    0    0  502  503  0.00000000000E+00  0.00000000000E+00  0.46332372992E+02  0.46332372992E+02  0.00000000000E+00 0. -1.
         21   -1    0    0  503  504 -0.00000000000E+00 -0.00000000000E+00 -0.18003078035E+04  0.18003078035E+04  0.00000000000E+00 0.  1.
         -6    2    1    2    0  504  0.73993043553E+02 -0.28994405808E+01 -0.15784065907E+04  0.15896149025E+04  0.17327664426E+03 0.  0.
        -24    2    3    3    0    0  0.88196931770E+02 -0.40893356744E+02 -0.14324935832E+04  0.14380959800E+04  0.81432281725E+02 0.  0.
          6    2    1    2  502    0 -0.73993043553E+02  0.28994405808E+01 -0.17556883984E+03  0.25702527402E+03  0.17249404834E+03 0.  0.
         24    2    5    5    0    0 -0.99950752810E+02  0.41568320044E+02 -0.10285875738E+03  0.17055024294E+03  0.82397713434E+02 0.  0.
          2    1    6    6  501    0 -0.68087165653E+02  0.24923631693E+02 -0.12859737528E+02  0.73637099296E+02  0.00000000000E+00 0. -1.
         -1    1    6    6    0  501 -0.31863587157E+02  0.16644688352E+02 -0.89999019855E+02  0.96913143648E+02  0.00000000000E+00 0.  1.
          5    1    5    5  502    0  0.25957709257E+02 -0.38668879464E+02 -0.72710082459E+02  0.86475031079E+02  0.47000000000E+01 0. -1.
         13    1    4    4    0    0  0.58081449604E+01 -0.37667345971E+02 -0.26926742922E+03  0.27195130435E+03  0.00000000000E+00 0. -1.
        -14    1    4    4    0    0  0.82388786810E+02 -0.32260107730E+01 -0.11632261540E+04  0.11661446757E+04  0.00000000000E+00 0.  1.
         -5    1    3    3    0  504 -0.14203888217E+02  0.37993916163E+02 -0.14591300748E+03  0.15151892244E+03  0.47000000000E+01 0.  1.
<mgrwt>
<rscale>  2 0.18825602E+03</rscale>
<asrwt>0</asrwt>
<pdfrwt beam="1">  1       21 0.71280592E-02 0.18843612E+03</pdfrwt>
<pdfrwt beam="2">  1       21 0.27697036E+00 0.18843612E+03</pdfrwt>
<totfact> 0.68227769E+03</totfact>
</mgrwt>
</event>
<event>
12    1  0.2736842E-001  0.1801475E+03  0.7546771E-02  0.1168566E+00
         21   -1    0    0  502  503  0.00000000000E+00  0.00000000000E+00  0.82297403356E+03  0.82297403356E+03  0.00000000000E+00 0. -1.
         21   -1    0    0  503  504 -0.00000000000E+00 -0.00000000000E+00 -0.38758581344E+02  0.38758581344E+02  0.00000000000E+00 0. -1.
         -6    2    1    2    0  504 -0.20732551599E+02  0.46151273732E+02  0.37110276111E+03  0.41251714886E+03  0.17289696364E+03 0.  0.
        -24    2    3    3    0    0  0.30282914002E+02  0.49325512763E+01  0.31366237303E+03  0.32520707502E+03  0.80213293450E+02 0.  0.
          6    2    1    2  502    0  0.20732551599E+02 -0.46151273732E+02  0.41311269110E+03  0.44921546604E+03  0.16903449535E+03 0.  0.
         24    2    5    5    0    0  0.71615796537E+02 -0.58399761067E+02  0.26647726940E+03  0.29344908021E+03  0.81011561903E+02 0.  0.
          2    1    6    6  501    0  0.33490736087E+02 -0.42715090103E+02  0.52423036840E+02  0.75461136472E+02  0.00000000000E+00 0. -1.
         -1    1    6    6    0  501  0.38125060451E+02 -0.15684670964E+02  0.21405423256E+03  0.21798794374E+03  0.00000000000E+00 0.  1.
          5    1    5    5  502    0 -0.50883244938E+02  0.12248487335E+02  0.14663542169E+03  0.15576638583E+03  0.47000000000E+01 0. -1.
         13    1    4    4    0    0  0.39101549355E+02  0.36089838589E+02  0.18181421429E+03  0.18944079848E+03  0.00000000000E+00 0. -1.
        -14    1    4    4    0    0 -0.88186353526E+01 -0.31157287313E+02  0.13184815874E+03  0.13576627654E+03  0.00000000000E+00 0.  1.
         -5    1    3    3    0  504 -0.51015465601E+02  0.41218722456E+02  0.57440388086E+02  0.87310073846E+02  0.47000000000E+01 0.  1.
<mgrwt>
<rscale>  2 0.17921440E+03</rscale>
<asrwt>0</asrwt>
<pdfrwt beam="1">  1       21 0.12661138E+00 0.18014755E+03</pdfrwt>
<pdfrwt beam="2">  1       21 0.59628593E-02 0.18014755E+03</pdfrwt>
<totfact> 0.92581714E+04</totfact>
</mgrwt>
</event>
<event>
12    1  0.2736842E-001  0.1906273E+03  0.7546771E-02  0.1158885E+00
         21   -1    0    0  502  503  0.00000000000E+00  0.00000000000E+00  0.61145273709E+02  0.61145273709E+02  0.00000000000E+00 0. -1.
         21   -1    0    0  503  504 -0.00000000000E+00 -0.00000000000E+00 -0.64112448752E+03  0.64112448752E+03  0.00000000000E+00 0. -1.
         -6    2    1    2    0  504 -0.65413871785E+02  0.43731845578E+02 -0.39464243950E+03  0.43639670310E+03  0.16884305872E+03 0.  0.
        -24    2    3    3    0    0 -0.28284325083E+02 -0.16347981743E+02 -0.32459706311E+03  0.33681440727E+03  0.83746235790E+02 0.  0.
          6    2    1    2  502    0  0.65413871785E+02 -0.43731845578E+02 -0.18533677431E+03  0.26587305813E+03  0.17362981941E+03 0.  0.
         24    2    5    5    0    0  0.13890603924E+02 -0.52769476975E+02 -0.18866025075E+03  0.21324738561E+03  0.83091459727E+02 0.  0.
          2    1    6    6  501    0 -0.31235106145E+02 -0.18611188803E+02 -0.39378832136E+02  0.53597580402E+02  0.00000000000E+00 0. -1.
         -1    1    6    6    0  501  0.45125710069E+02 -0.34158288172E+02 -0.14928141861E+03  0.15964980521E+03  0.00000000000E+00 0.  1.
          5    1    5    5  502    0  0.51523267861E+02  0.90376313972E+01  0.33234764427E+01  0.52625672518E+02  0.47000000000E+01 0. -1.
         13    1    4    4    0    0 -0.37461813856E+02 -0.67002066070E+01 -0.54965309867E+02  0.66854061617E+02  0.00000000000E+00 0. -1.
        -14    1    4    4    0    0  0.91774887725E+01 -0.96477751362E+01 -0.26963175325E+03  0.26996034565E+03  0.00000000000E+00 0.  1.
         -5    1    3    3    0  504 -0.37129546702E+02  0.60079827321E+02 -0.70045376388E+02  0.99582295829E+02  0.47000000000E+01 0.  1.
<mgrwt>
<rscale>  2 0.18953049E+03</rscale>
<asrwt>0</asrwt>
<pdfrwt beam="1">  1       21 0.94069646E-02 0.19062729E+03</pdfrwt>
<pdfrwt beam="2">  1       21 0.98634543E-01 0.19062729E+03</pdfrwt>
<totfact> 0.76721263E+04</totfact>
</mgrwt>
</event>
<event>
12    1  0.2736842E-001  0.1769557E+03  0.7546771E-02  0.1170919E+00
         21   -1    0    0  502  503  0.00000000000E+00  0.00000000000E+00  0.92199010495E+02  0.92199010495E+02  0.00000000000E+00 0.  1.
         21   -1    0    0  503  504 -0.00000000000E+00 -0.00000000000E+00 -0.34704164504E+03  0.34704164504E+03  0.00000000000E+00 0.  1.
         -6    2    1    2    0  504  0.13950142755E+02  0.31040395610E+02 -0.16154624421E+03  0.23919683924E+03  0.17308907026E+03 0.  0.
        -24    2    3    3    0    0  0.52526956346E+02 -0.23881560661E+02 -0.55506483463E+02  0.11361374848E+03  0.80608337372E+02 0.  0.
          6    2    1    2  502    0 -0.13950142755E+02 -0.31040395610E+02 -0.93296390335E+02  0.20004381629E+03  0.17365252473E+03 0.  0.
         24    2    5    5    0    0 -0.52395325684E+01 -0.52763681672E+02  0.99812069907E+01  0.94043212535E+02  0.77026245695E+02 0.  0.
          4    1    6    6  501    0  0.91725869312E+01  0.40034049707E+01  0.30410047351E+02  0.32014599518E+02  0.00000000000E+00 0. -1.
         -3    1    6    6    0  501 -0.14412119500E+02 -0.56767086642E+02 -0.20428840361E+02  0.62028613017E+02  0.00000000000E+00 0.  1.
          5    1    5    5  502    0 -0.87106101867E+01  0.21723286061E+02 -0.10327759733E+03  0.10600060376E+03  0.47000000000E+01 0. -1.
         11    1    4    4    0    0  0.18723340117E+02 -0.97024120474E+01  0.20386864503E+02  0.29331288907E+02  0.00000000000E+00 0. -1.
        -12    1    4    4    0    0  0.33803616230E+02 -0.14179148613E+02 -0.75893347967E+02  0.84282459570E+02  0.00000000000E+00 0.  1.
         -5    1    3    3    0  504 -0.38576813591E+02  0.54921956271E+02 -0.10603976075E+03  0.12558309077E+03  0.47000000000E+01 0.  1.
<mgrwt>
<rscale>  2 0.17681729E+03</rscale>
<asrwt>0</asrwt>
<pdfrwt beam="1">  1       21 0.14184463E-01 0.17695568E+03</pdfrwt>
<pdfrwt beam="2">  1       21 0.53391023E-01 0.17695568E+03</pdfrwt>
<totfact> 0.14495667E+05</totfact>
</mgrwt>
</event>
<event>
12    1  0.2736842E-001  0.1867822E+03  0.7546771E-02  0.1161542E+00
         21   -1    0    0  502  503  0.00000000000E+00  0.00000000000E+00  0.12579473795E+03  0.12579473795E+03  0.00000000000E+00 0. -1.
         21   -1    0    0  503  504 -0.00000000000E+00 -0.00000000000E+00 -0.28133916642E+03  0.28133916642E+03  0.00000000000E+00 0. -1.
         -6    2    1    2    0  504  0.39275047197E+02  0.55228049767E+02 -0.10461608185E+03  0.21353305498E+03  0.17337581773E+03 0.  0.
        -24    2    3    3    0    0  0.48169006994E+02 -0.23513026262E+02 -0.88949463861E+02  0.13262080316E+03  0.82481238299E+02 0.  0.
          6    2    1    2  502    0 -0.39275047197E+02 -0.55228049767E+02 -0.50928346625E+02  0.19360084939E+03  0.17405437535E+03 0.  0.
         24    2    5    5    0    0 -0.56719410549E+02 -0.50571983063E+01  0.24235884154E+02  0.10144244371E+03  0.80377388093E+02 0.  0.
          4    1    6    6  501    0 -0.11733332781E+02  0.30561301964E+02 -0.10486428874E+02  0.34374837693E+02  0.00000000000E+00 0. -1.
         -3    1    6    6    0  501 -0.44986077768E+02 -0.35618500270E+02  0.34722313027E+02  0.67067606014E+02  0.00000000000E+00 0.  1.
          5    1    5    5  502    0  0.17444363352E+02 -0.50170851460E+02 -0.75164230779E+02  0.92158405681E+02  0.47000000000E+01 0. -1.
         11    1    4    4    0    0 -0.59914625697E+01  0.21445450857E+02 -0.45596112230E+01  0.22728727212E+02  0.00000000000E+00 0. -1.
        -12    1    4    4    0    0  0.54160469564E+02 -0.44958477119E+02 -0.84389852638E+02  0.10989207595E+03  0.00000000000E+00 0.  1.
         -5    1    3    3    0  504 -0.88939597972E+01  0.78741076029E+02 -0.15666617985E+02  0.80912251817E+02  0.47000000000E+01 0.  1.
<mgrwt>
<rscale>  2 0.18662397E+03</rscale>
<asrwt>0</asrwt>
<pdfrwt beam="1">  1       21 0.19353037E-01 0.18678221E+03</pdfrwt>
<pdfrwt beam="2">  1       21 0.43282949E-01 0.18678221E+03</pdfrwt>
<totfact> 0.12620221E+05</totfact>
</mgrwt>
</event>
<event>
12    1  0.2736842E-001  0.1945786E+03  0.7546771E-02  0.1154398E+00
         21   -1    0    0  502  503  0.00000000000E+00  0.00000000000E+00  0.49164954441E+03  0.49164954441E+03  0.00000000000E+00 0. -1.
         21   -1    0    0  503  504 -0.00000000000E+00 -0.00000000000E+00 -0.14978885415E+03  0.14978885415E+03  0.00000000000E+00 0.  1.
         -6    2    1    2    0  504  0.32176424680E+01  0.88085902824E+02 -0.52640786595E+02  0.20156084602E+03  0.17345386342E+03 0.  0.
        -24    2    3    3    0    0  0.23323622846E+02  0.66304244601E+02  0.30837773392E+02  0.11285091952E+03  0.82729181881E+02 0.  0.
          6    2    1    2  502    0 -0.32176424680E+01 -0.88085902824E+02  0.39450147686E+03  0.43987755254E+03  0.17346863257E+03 0.  0.
         24    2    5    5    0    0  0.33533106565E+02 -0.14766709914E+02  0.95084492650E+02  0.12939576236E+03  0.79747586894E+02 0.  0.
          4    1    6    6  501    0 -0.70388919301E+01 -0.12122488516E+02 -0.96686836121E+01  0.17028921581E+02  0.00000000000E+00 0. -1.
         -3    1    6    6    0  501  0.40571998495E+02 -0.26442213987E+01  0.10475317626E+03  0.11236684077E+03  0.00000000000E+00 0.  1.
          5    1    5    5  502    0 -0.36750749033E+02 -0.73319192910E+02  0.29941698421E+03  0.31048179018E+03  0.47000000000E+01 0. -1.
         13    1    4    4    0    0 -0.22950095864E+02  0.28316762832E+01 -0.89543801734E+01  0.24797302576E+02  0.00000000000E+00 0. -1.
        -14    1    4    4    0    0  0.46273718710E+02  0.63472568318E+02  0.39792153565E+02  0.88053616947E+02  0.00000000000E+00 0.  1.
         -5    1    3    3    0  504 -0.20105980378E+02  0.21781658224E+02 -0.83478559987E+02  0.88709926499E+02  0.47000000000E+01 0.  1.
<mgrwt>
<rscale>  2 0.19457535E+03</rscale>
<asrwt>0</asrwt>
<pdfrwt beam="1">  1       21 0.75638391E-01 0.19457864E+03</pdfrwt>
<pdfrwt beam="2">  1       21 0.23044439E-01 0.19457864E+03</pdfrwt>
<totfact> 0.27559339E+04</totfact>
</mgrwt>
</event>
<event>
12    1  0.2736842E-001  0.2606058E+03  0.7546771E-02  0.1106798E+00
         21   -1    0    0  502  503  0.00000000000E+00  0.00000000000E+00  0.49841012919E+03  0.49841012919E+03  0.00000000000E+00 0.  1.
         21   -1    0    0  503  504 -0.00000000000E+00 -0.00000000000E+00 -0.43138989054E+03  0.43138989054E+03  0.00000000000E+00 0.  1.
         -6    2    1    2    0  504  0.70852722815E+02 -0.18161961499E+03 -0.35106280895E+03  0.43714514057E+03  0.17275701206E+03 0.  0.
        -24    2    3    3    0    0  0.40457621729E+02 -0.47178366479E+02 -0.23846988646E+03  0.25910703323E+03  0.80037181983E+02 0.  0.
          6    2    1    2  502    0 -0.70852722815E+02  0.18161961499E+03  0.41808304759E+03  0.49265487916E+03  0.17294392848E+03 0.  0.
         24    2    5    5    0    0 -0.31221259537E+02  0.97585907454E+02  0.10950205603E+03  0.17035589493E+03  0.80824837033E+02 0.  0.
          2    1    6    6  501    0 -0.15244479551E+02  0.84923967336E+02  0.34991337464E+02  0.93106756373E+02  0.00000000000E+00 0. -1.
         -1    1    6    6    0  501 -0.15976779986E+02  0.12661940118E+02  0.74510718566E+02  0.77249138555E+02  0.00000000000E+00 0.  1.
          5    1    5    5  502    0 -0.39631463278E+02  0.84033707540E+02  0.30858099157E+03  0.32229898424E+03  0.47000000000E+01 0. -1.
         13    1    4    4    0    0 -0.14810732485E+02 -0.43235991462E+02 -0.11638514268E+03  0.12503683534E+03  0.00000000000E+00 0. -1.
        -14    1    4    4    0    0  0.55268354215E+02 -0.39423750171E+01 -0.12208474378E+03  0.13407019789E+03  0.00000000000E+00 0.  1.
         -5    1    3    3    0  504  0.30395101086E+02 -0.13444124851E+03 -0.11259292249E+03  0.17803810734E+03  0.47000000000E+01 0.  1.
<mgrwt>
<rscale>  2 0.26057482E+03</rscale>
<asrwt>0</asrwt>
<pdfrwt beam="1">  1       21 0.76678482E-01 0.26060582E+03</pdfrwt>
<pdfrwt beam="2">  1       21 0.66367675E-01 0.26060582E+03</pdfrwt>
<totfact> 0.29959511E+03</totfact>
</mgrwt>
</event>
<event>
12    1  0.2736842E-001  0.2352673E+03  0.7546771E-02  0.1123090E+00
         21   -1    0    0  502  503  0.00000000000E+00  0.00000000000E+00  0.12300017090E+04  0.12300017090E+04  0.00000000000E+00 0.  1.
         21   -1    0    0  503  504 -0.00000000000E+00 -0.00000000000E+00 -0.11374302443E+03  0.11374302443E+03  0.00000000000E+00 0. -1.
         -6    2    1    2    0  504  0.96936644885E+02  0.12556809457E+03  0.35652758123E+02  0.23795339780E+03  0.17374303113E+03 0.  0.
        -24    2    3    3    0    0  0.11766800298E+03  0.51701515216E+02  0.86645502564E+00  0.15358374900E+03  0.84073846184E+02 0.  0.
          6    2    1    2  502    0 -0.96936644885E+02 -0.12556809457E+03  0.10806059264E+04  0.11057913356E+04  0.17291977964E+03 0.  0.
         24    2    5    5    0    0 -0.88839745281E+02 -0.54175233786E+02  0.92432033391E+03  0.93371641942E+03  0.81429822014E+02 0.  0.
          2    1    6    6  501    0 -0.82689091893E+02 -0.36563405167E+02  0.44806386429E+03  0.45709473307E+03  0.00000000000E+00 0. -1.
         -1    1    6    6    0  501 -0.61506533882E+01 -0.17611828619E+02  0.47625646962E+03  0.47662168635E+03  0.00000000000E+00 0.  1.
          5    1    5    5  502    0 -0.80968996032E+01 -0.71392860787E+02  0.15628559250E+03  0.17207491618E+03  0.47000000000E+01 0. -1.
         13    1    4    4    0    0  0.83179868410E+02 -0.50731041405E+01 -0.16433195601E+02  0.84939253658E+02  0.00000000000E+00 0. -1.
        -14    1    4    4    0    0  0.34488134571E+02  0.56774619356E+02  0.17299650627E+02  0.68644495344E+02  0.00000000000E+00 0.  1.
         -5    1    3    3    0  504 -0.20731358096E+02  0.73866579358E+02  0.34786303097E+02  0.84369648794E+02  0.47000000000E+01 0.  1.
<mgrwt>
<rscale>  2 0.23511532E+03</rscale>
<asrwt>0</asrwt>
<pdfrwt beam="1">  1       21 0.18923102E+00 0.23526730E+03</pdfrwt>
<pdfrwt beam="2">  1       21 0.17498928E-01 0.23526730E+03</pdfrwt>
<totfact> 0.45009263E+03</totfact>
</mgrwt>
</event>
<event>
12    1  0.2736842E-001  0.2209076E+03  0.7546771E-02  0.1133373E+00
         21   -1    0    0  502  503  0.00000000000E+00  0.00000000000E+00  0.54203328007E+03  0.54203328007E+03  0.00000000000E+00 0.  1.
         21   -1    0    0  503  504 -0.00000000000E+00 -0.00000000000E+00 -0.99994371700E+02  0.99994371700E+02  0.00000000000E+00 0.  1.
         -6    2    1    2    0  504 -0.47602179598E+02  0.13007082607E+03  0.11827471217E+03  0.25057745026E+03  0.17209231169E+03 0.  0.
        -24    2    3    3    0    0  0.25831650330E+02  0.12672201677E+02  0.54838575759E+02  0.98192418875E+02  0.76201199985E+02 0.  0.
          6    2    1    2  502    0  0.47602179598E+02 -0.13007082607E+03  0.32376419620E+03  0.39145020151E+03  0.17095501813E+03 0.  0.
         24    2    5    5    0    0 -0.12763765196E+01 -0.14670414877E+03  0.23068504146E+03  0.28490631516E+03  0.80201519046E+02 0.  0.
          2    1    6    6  501    0  0.31990391802E+02 -0.11760571496E+03  0.15396645621E+03  0.19636740818E+03  0.00000000000E+00 0. -1.
         -1    1    6    6    0  501 -0.33266768321E+02 -0.29098433815E+02  0.76718585252E+02  0.88538906974E+02  0.00000000000E+00 0.  1.
          5    1    5    5  502    0  0.48878556118E+02  0.16633322702E+02  0.93079154737E+02  0.10654388635E+03  0.47000000000E+01 0. -1.
         11    1    4    4    0    0  0.18981742534E+02  0.17690012811E+02 -0.13554673536E+02  0.29274088842E+02  0.00000000000E+00 0. -1.
        -12    1    4    4    0    0  0.68499077963E+01 -0.50178111336E+01  0.68393249295E+02  0.68918330033E+02  0.00000000000E+00 0.  1.
         -5    1    3    3    0  504 -0.73433829928E+02  0.11739862439E+03  0.63436136408E+02  0.15238503138E+03  0.47000000000E+01 0.  1.
<mgrwt>
<rscale>  2 0.22068602E+03</rscale>
<asrwt>0</asrwt>
<pdfrwt beam="1">  1       21 0.83389734E-01 0.22090756E+03</pdfrwt>
<pdfrwt beam="2">  1       21 0.15383750E-01 0.22090756E+03</pdfrwt>
<totfact> 0.46242580E+04</totfact>
</mgrwt>
</event>
<event>
12    1  0.2736842E-001  0.2211867E+03  0.7546771E-02  0.1133182E+00
         21   -1    0    0  502  503  0.00000000000E+00  0.00000000000E+00  0.69638014312E+03  0.69638014312E+03  0.00000000000E+00 0.  1.
         21   -1    0    0  503  504 -0.00000000000E+00 -0.00000000000E+00 -0.74833291310E+02  0.74833291310E+02  0.00000000000E+00 0. -1.
         -6    2    1    2    0  504 -0.12018611971E+03 -0.64070636390E+02  0.21158734300E+03  0.30539120177E+03  0.17304575287E+03 0.  0.
        -24    2    3    3    0    0 -0.45930700988E+02  0.18359698718E+02  0.47071458673E+02  0.10690645790E+03  0.82259107027E+02 0.  0.
          6    2    1    2  502    0  0.12018611971E+03  0.64070636390E+02  0.40995950882E+03  0.46582223266E+03  0.17428081866E+03 0.  0.
         24    2    5    5    0    0 -0.32113514475E+01  0.48433721972E+02  0.14166790600E+03  0.17006232476E+03  0.80593179049E+02 0.  0.
          4    1    6    6  501    0  0.15631636857E+02  0.11198835885E+02 -0.30304069159E+01  0.19466519003E+02  0.00000000000E+00 0. -1.
         -3    1    6    6    0  501 -0.18842988305E+02  0.37234886088E+02  0.14469831291E+03  0.15059580575E+03  0.00000000000E+00 0.  1.
          5    1    5    5  502    0  0.12339747116E+03  0.15636914417E+02  0.26829160282E+03  0.29575990791E+03  0.47000000000E+01 0. -1.
         13    1    4    4    0    0  0.14453278572E+02  0.28951149017E+02  0.54684441849E+01  0.32817223720E+02  0.00000000000E+00 0. -1.
        -14    1    4    4    0    0 -0.60383979560E+02 -0.10591450299E+02  0.41603014488E+02  0.74089234180E+02  0.00000000000E+00 0.  1.
         -5    1    3    3    0  504 -0.74255418721E+02 -0.82430335108E+02  0.16451588432E+03  0.19848474387E+03  0.47000000000E+01 0.  1.
<mgrwt>
<rscale>  2 0.22094333E+03</rscale>
<asrwt>0</asrwt>
<pdfrwt beam="1">  1       21 0.10713540E+00 0.22118669E+03</pdfrwt>
<pdfrwt beam="2">  1       21 0.11512815E-01 0.22118669E+03</pdfrwt>
<totfact> 0.43339147E+04</totfact>
</mgrwt>
</event>
<event>
12    1  0.2736842E-001  0.1897638E+03  0.7546771E-02  0.1158784E+00
         21   -1    0    0  502  503  0.00000000000E+00  0.00000000000E+00  0.16796691571E+03  0.16796691571E+03  0.00000000000E+00 0. -1.
         21   -1    0    0  503  504 -0.00000000000E+00 -0.00000000000E+00 -0.28277768554E+03  0.28277768554E+03  0.00000000000E+00 0. -1.
         -6    2    1    2    0  504 -0.77525256036E+02 -0.68142144139E+01 -0.16873381275E+03  0.25393191317E+03  0.17307142491E+03 0.  0.
        -24    2    3    3    0    0 -0.54964517728E+02 -0.71481530203E+02 -0.10437894118E+03  0.15983362339E+03  0.80753429869E+02 0.  0.
          6    2    1    2  502    0  0.77525256036E+02  0.68142144139E+01  0.53923042911E+02  0.19681268808E+03  0.17254257675E+03 0.  0.
         24    2    5    5    0    0  0.70571240675E+02  0.65336571902E+02  0.54716736080E+02  0.13768617453E+03  0.81941404746E+02 0.  0.
          2    1    6    6  501    0 -0.14098790098E+02  0.18725238385E+02  0.29725800365E+02  0.37855430815E+02  0.00000000000E+00 0. -1.
         -1    1    6    6    0  501  0.84670030773E+02  0.46611333516E+02  0.24990935715E+02  0.99830743717E+02  0.00000000000E+00 0.  1.
          5    1    5    5  502    0  0.69540153616E+01 -0.58522357488E+02 -0.79369316959E+00  0.59126513549E+02  0.47000000000E+01 0. -1.
         13    1    4    4    0    0 -0.40666002234E+02 -0.77400283334E+01 -0.80058643476E+02  0.90127788010E+02  0.00000000000E+00 0. -1.
        -14    1    4    4    0    0 -0.14298515494E+02 -0.63741501870E+02 -0.24320297703E+02  0.69705835382E+02  0.00000000000E+00 0.  1.
         -5    1    3    3    0  504 -0.22560738308E+02  0.64667315789E+02 -0.64354871569E+02  0.94098289777E+02  0.47000000000E+01 0.  1.
<mgrwt>
<rscale>  2 0.18964318E+03</rscale>
<asrwt>0</asrwt>
<pdfrwt beam="1">  1       21 0.25841064E-01 0.18976385E+03</pdfrwt>
<pdfrwt beam="2">  1       21 0.43504259E-01 0.18976385E+03</pdfrwt>
<totfact> 0.72294498E+04</totfact>
</mgrwt>
</event>
<event>
12    1  0.2736842E-001  0.2263441E+03  0.7546771E-02  0.1129407E+00
         21   -1    0    0  502  503  0.00000000000E+00  0.00000000000E+00  0.13699683283E+03  0.13699683283E+03  0.00000000000E+00 0.  1.
         21   -1    0    0  503  504 -0.00000000000E+00 -0.00000000000E+00 -0.41755525450E+03  0.41755525450E+03  0.00000000000E+00 0.  1.
         -6    2    1    2    0  504 -0.11287288469E+03 -0.91336597829E+02 -0.23168643725E+03  0.32389855190E+03  0.17363468695E+03 0.  0.
        -24    2    3    3    0    0 -0.59087602119E+01 -0.54702638198E+02 -0.16611543401E+03  0.19311240052E+03  0.81674780365E+02 0.  0.
          6    2    1    2  502    0  0.11287288469E+03  0.91336597829E+02 -0.48871984420E+02  0.23065353543E+03  0.17242366527E+03 0.  0.
         24    2    5    5    0    0  0.13857275154E+03  0.95999608779E+02 -0.66749390472E+02  0.19865480930E+03  0.81178320833E+02 0.  0.
          2    1    6    6  501    0 -0.10800162391E+02  0.82525585598E+01 -0.21394951362E+01  0.13759566487E+02  0.00000000000E+00 0. -1.
         -1    1    6    6    0  501  0.14937291393E+03  0.87747050219E+02 -0.64609895336E+02  0.18489524281E+03  0.00000000000E+00 0.  1.
          5    1    5    5  502    0 -0.25699866847E+02 -0.46630109497E+01  0.17877406052E+02  0.31998726134E+02  0.47000000000E+01 0. -1.
         11    1    4    4    0    0 -0.16160316510E+02 -0.28189214912E+01  0.23214636462E+01  0.16567780224E+02  0.00000000000E+00 0. -1.
        -12    1    4    4    0    0  0.10251556299E+02 -0.51883716706E+02 -0.16843689765E+03  0.17654462030E+03  0.00000000000E+00 0.  1.
         -5    1    3    3    0  504 -0.10696412448E+03 -0.36633959632E+02 -0.65571003247E+02  0.13078615137E+03  0.47000000000E+01 0.  1.
<mgrwt>
<rscale>  2 0.22611186E+03</rscale>
<asrwt>0</asrwt>
<pdfrwt beam="1">  1       21 0.21076436E-01 0.22634413E+03</pdfrwt>
<pdfrwt beam="2">  1       21 0.64239270E-01 0.22634413E+03</pdfrwt>
<totfact> 0.46034987E+04</totfact>
</mgrwt>
</event>
<event>
12    1  0.2736842E-001  0.1767604E+03  0.7546771E-02  0.1171103E+00
         21   -1    0    0  502  503  0.00000000000E+00  0.00000000000E+00  0.11381982729E+04  0.11381982729E+04  0.00000000000E+00 0. -1.
         21   -1    0    0  503  504 -0.00000000000E+00 -0.00000000000E+00 -0.27638684346E+02  0.27638684346E+02  0.00000000000E+00 0. -1.
         -6    2    1    2    0  504 -0.35685372593E+02 -0.13004366598E+02  0.61186009223E+03  0.63673828021E+03  0.17210550731E+03 0.  0.
        -24    2    3    3    0    0 -0.21729810456E+02 -0.73862258633E+02  0.42767318940E+03  0.44219947711E+03  0.81903618407E+02 0.  0.
          6    2    1    2  502    0  0.35685372593E+02  0.13004366598E+02  0.49869949628E+03  0.52909867700E+03  0.17263158182E+03 0.  0.
         24    2    5    5    0    0  0.33850963089E+02 -0.49850013881E+02  0.39625418253E+03  0.40880249870E+03  0.80443733029E+02 0.  0.
          2    1    6    6  501    0  0.58473620038E+02 -0.20993065403E+02  0.26430075619E+03  0.27150462750E+03  0.00000000000E+00 0. -1.
         -1    1    6    6    0  501 -0.24622656949E+02 -0.28856948478E+02  0.13195342635E+03  0.13729787120E+03  0.00000000000E+00 0.  1.
          5    1    5    5  502    0  0.18344095041E+01  0.62854380478E+02  0.10244531375E+03  0.12029617830E+03  0.47000000000E+01 0. -1.
         11    1    4    4    0    0 -0.47966783080E+02 -0.19682091972E+02  0.18028141079E+03  0.18758886987E+03  0.00000000000E+00 0. -1.
        -12    1    4    4    0    0  0.26236972625E+02 -0.54180166661E+02  0.24739177861E+03  0.25461060723E+03  0.00000000000E+00 0.  1.
         -5    1    3    3    0  504 -0.13955562138E+02  0.60857892035E+02  0.18418690283E+03  0.19453880310E+03  0.47000000000E+01 0.  1.
<mgrwt>
<rscale>  2 0.17663178E+03</rscale>
<asrwt>0</asrwt>
<pdfrwt beam="1">  1       21 0.17510739E+00 0.17676035E+03</pdfrwt>
<pdfrwt beam="2">  1       21 0.42521062E-02 0.17676035E+03</pdfrwt>
<totfact> 0.70152596E+04</totfact>
</mgrwt>
</event>
<event>
12    1  0.2736842E-001  0.2198554E+03  0.7546771E-02  0.1135027E+00
         21   -1    0    0  502  503  0.00000000000E+00  0.00000000000E+00  0.42636365007E+02  0.42636365007E+02  0.00000000000E+00 0.  1.
         21   -1    0    0  503  504 -0.00000000000E+00 -0.00000000000E+00 -0.19384977730E+04  0.19384977730E+04  0.00000000000E+00 0. -1.
         -6    2    1    2    0  504 -0.10486413498E+03  0.91722232176E+02 -0.15903792208E+04  0.16047622958E+04  0.16293098361E+03 0.  0.
        -24    2    3    3    0    0 -0.10683544258E+03  0.43221999855E+02 -0.75593349144E+03  0.76889273431E+03  0.80490001478E+02 0.  0.
          6    2    1    2  502    0  0.10486413498E+03 -0.91722232176E+02 -0.30548218720E+03  0.37637184221E+03  0.17007922339E+03 0.  0.
         24    2    5    5    0    0  0.15305379482E-01 -0.54046981510E+02 -0.32152700039E+02  0.81170554720E+02  0.51320428574E+02 0.  0.
          4    1    6    6  501    0 -0.23319212539E+02 -0.20234202519E+02 -0.34761018506E+01  0.31069147222E+02  0.00000000000E+00 0. -1.
         -3    1    6    6    0  501  0.23334517918E+02 -0.33812778991E+02 -0.28676598189E+02  0.50101407498E+02  0.00000000000E+00 0.  1.
          5    1    5    5  502    0  0.10484882960E+03 -0.37675250666E+02 -0.27332948716E+03  0.29520128749E+03  0.47000000000E+01 0. -1.
         11    1    4    4    0    0 -0.35887758446E+01  0.36084655274E+02 -0.16190991991E+03  0.16592107709E+03  0.00000000000E+00 0. -1.
        -12    1    4    4    0    0 -0.10324666673E+03  0.71373445810E+01 -0.59402357153E+03  0.60297165722E+03  0.00000000000E+00 0.  1.
         -5    1    3    3    0  504  0.19713075971E+01  0.48500232321E+02 -0.83444572933E+03  0.83586956146E+03  0.47000000000E+01 0.  1.
<mgrwt>
<rscale>  2 0.21847190E+03</rscale>
<asrwt>0</asrwt>
<pdfrwt beam="1">  1       21 0.65594401E-02 0.21985540E+03</pdfrwt>
<pdfrwt beam="2">  1       21 0.29823046E+00 0.21985540E+03</pdfrwt>
<totfact> 0.57421855E+03</totfact>
</mgrwt>
</event>
<event>
12    1  0.2736842E-001  0.1825351E+03  0.7546771E-02  0.1166737E+00
         21   -1    0    0  502  503  0.00000000000E+00  0.00000000000E+00  0.87985307841E+02  0.87985307841E+02  0.00000000000E+00 0. -1.
         21   -1    0    0  503  504 -0.00000000000E+00 -0.00000000000E+00 -0.87214389790E+03  0.87214389790E+03  0.00000000000E+00 0. -1.
         -6    2    1    2    0  504  0.50823035450E+02 -0.29109338945E+02 -0.75479848566E+03  0.77524797663E+03  0.16690816868E+03 0.  0.
        -24    2    3    3    0    0 -0.15934259520E+02  0.78448635219E+01 -0.55240496754E+03  0.55889785371E+03  0.83066962196E+02 0.  0.
          6    2    1    2  502    0 -0.50823035450E+02  0.29109338945E+02 -0.29360104397E+02  0.18488122911E+03  0.17288354057E+03 0.  0.
         24    2    5    5    0    0 -0.41838459465E+01 -0.51618647469E+02 -0.76590759050E+01  0.89041537822E+02  0.72026000032E+02 0.  0.
          4    1    6    6  501    0  0.21859264169E+02 -0.47151567435E+02 -0.24758359139E+02  0.57567995352E+02  0.00000000000E+00 0. -1.
         -3    1    6    6    0  501 -0.26043110116E+02 -0.44670800341E+01  0.17099283234E+02  0.31473542471E+02  0.00000000000E+00 0.  1.
          5    1    5    5  502    0 -0.46639189504E+02  0.80727986414E+02 -0.21701028492E+02  0.95839691285E+02  0.47000000000E+01 0. -1.
         11    1    4    4    0    0 -0.40162277061E+02  0.15953355765E+01 -0.49026072553E+03  0.49190561350E+03  0.00000000000E+00 0. -1.
        -12    1    4    4    0    0  0.24228017541E+02  0.62495279453E+01 -0.62144242009E+02  0.66992240210E+02  0.00000000000E+00 0.  1.
         -5    1    3    3    0  504  0.66757294970E+02 -0.36954202467E+02 -0.20239351812E+03  0.21635012293E+03  0.47000000000E+01 0.  1.
<mgrwt>
<rscale>  2 0.18110612E+03</rscale>
<asrwt>0</asrwt>
<pdfrwt beam="1">  1       21 0.13536200E-01 0.18253507E+03</pdfrwt>
<pdfrwt beam="2">  1       21 0.13417599E+00 0.18253507E+03</pdfrwt>
<totfact> 0.18981860E+04</totfact>
</mgrwt>
</event>
<event>
12    1  0.2736842E-001  0.2079726E+03  0.7546771E-02  0.1143208E+00
         21   -1    0    0  502  503  0.00000000000E+00  0.00000000000E+00  0.49135299111E+02  0.49135299111E+02  0.00000000000E+00 0. -1.
         21   -1    0    0  503  504 -0.00000000000E+00 -0.00000000000E+00 -0.10572299809E+04  0.10572299809E+04  0.00000000000E+00 0. -1.
         -6    2    1    2    0  504  0.45366802635E+01 -0.11553459073E+03 -0.27750651493E+03  0.34678879018E+03  0.17286924552E+03 0.  0.
        -24    2    3    3    0    0 -0.60614017826E+02 -0.10102907198E+03 -0.17025702278E+03  0.22037847770E+03  0.75486999442E+02 0.  0.
          6    2    1    2  502    0 -0.45366802635E+01  0.11553459073E+03 -0.73058816681E+03  0.75957648978E+03  0.17270944160E+03 0.  0.
         24    2    5    5    0    0 -0.24022295199E+02  0.67698780432E+02 -0.20306718353E+03  0.22951193547E+03  0.79241731157E+02 0.  0.
          2    1    6    6  501    0 -0.53186731276E+02  0.44751916934E+02 -0.12352842145E+03  0.14174213685E+03  0.00000000000E+00 0. -1.
         -1    1    6    6    0  501  0.29164436076E+02  0.22946863498E+02 -0.79538762086E+02  0.87769798622E+02  0.00000000000E+00 0.  1.
          5    1    5    5  502    0  0.19485614936E+02  0.47835810295E+02 -0.52752098328E+03  0.53006455431E+03  0.47000000000E+01 0. -1.
         13    1    4    4    0    0  0.16385339156E+02 -0.12084187612E+02 -0.13672187784E+02  0.24524184967E+02  0.00000000000E+00 0. -1.
        -14    1    4    4    0    0 -0.76999356982E+02 -0.88944884371E+02 -0.15658483499E+03  0.19585429273E+03  0.00000000000E+00 0.  1.
         -5    1    3    3    0  504  0.65150698090E+02 -0.14505518744E+02 -0.10724949215E+03  0.12641031249E+03  0.47000000000E+01 0.  1.
<mgrwt>
<rscale>  2 0.20793938E+03</rscale>
<asrwt>0</asrwt>
<pdfrwt beam="1">  1       21 0.75592768E-02 0.20797259E+03</pdfrwt>
<pdfrwt beam="2">  1       21 0.16265077E+00 0.20797259E+03</pdfrwt>
<totfact> 0.31572506E+04</totfact>
</mgrwt>
</event>
<event>
12    1  0.2736842E-001  0.1750552E+03  0.7546771E-02  0.1173191E+00
         21   -1    0    0  502  503  0.00000000000E+00  0.00000000000E+00  0.60377597320E+03  0.60377597320E+03  0.00000000000E+00 0. -1.
         21   -1    0    0  503  504 -0.00000000000E+00 -0.00000000000E+00 -0.63776448633E+02  0.63776448633E+02  0.00000000000E+00 0. -1.
         -6    2    1    2    0  504  0.25908281760E+02  0.27396344886E+02  0.11704866867E+03  0.21058184185E+03  0.17094596369E+03 0.  0.
        -24    2    3    3    0    0  0.11008711748E+02  0.69922673102E+02  0.27997244587E+02  0.11066821961E+03  0.80332043283E+02 0.  0.
          6    2    1    2  502    0 -0.25908281760E+02 -0.27396344886E+02  0.42295085589E+03  0.45697057998E+03  0.16885758998E+03 0.  0.
         24    2    5    5    0    0  0.29937764400E+02  0.15653635957E+02  0.12737555123E+03  0.15306445558E+03  0.77864564824E+02 0.  0.
          4    1    6    6  501    0  0.36764974269E+02  0.29297495119E+01  0.13265744413E+03  0.13768894019E+03  0.00000000000E+00 0. -1.
         -3    1    6    6    0  501 -0.68272098687E+01  0.12723886446E+02 -0.52818929084E+01  0.15375515392E+02  0.00000000000E+00 0.  1.
          5    1    5    5  502    0 -0.55846046160E+02 -0.43049980843E+02  0.29557530466E+03  0.30390612440E+03  0.47000000000E+01 0. -1.
         11    1    4    4    0    0  0.16562463130E+02  0.26095211371E+01 -0.21257695203E+02  0.27074238509E+02  0.00000000000E+00 0. -1.
        -12    1    4    4    0    0 -0.55537513813E+01  0.67313151964E+02  0.49254939790E+02  0.83593981096E+02  0.00000000000E+00 0.  1.
         -5    1    3    3    0  504  0.14899570011E+02 -0.42526328216E+02  0.89051424087E+02  0.99913622244E+02  0.47000000000E+01 0.  1.
<mgrwt>
<rscale>  2 0.17454326E+03</rscale>
<asrwt>0</asrwt>
<pdfrwt beam="1">  1       21 0.92888607E-01 0.17505519E+03</pdfrwt>
<pdfrwt beam="2">  1       21 0.98117617E-02 0.17505519E+03</pdfrwt>
<totfact> 0.82549354E+04</totfact>
</mgrwt>
</event>
<event>
12    1  0.2736842E-001  0.1922617E+03  0.7546771E-02  0.1156653E+00
         21   -1    0    0  502  503  0.00000000000E+00  0.00000000000E+00  0.16856959985E+03  0.16856959985E+03  0.00000000000E+00 0.  1.
         21   -1    0    0  503  504 -0.00000000000E+00 -0.00000000000E+00 -0.22394925392E+03  0.22394925392E+03  0.00000000000E+00 0. -1.
         -6    2    1    2    0  504  0.64288562681E+02  0.48237863361E+02  0.37465991901E+01  0.19229820798E+03  0.17465581305E+03 0.  0.
        -24    2    3    3    0    0  0.86698411117E+02  0.71256868921E+02 -0.34220647434E+02  0.14234144928E+03  0.80597019875E+02 0.  0.
          6    2    1    2  502    0 -0.64288562681E+02 -0.48237863361E+02 -0.59126253262E+02  0.20022064580E+03  0.17358710328E+03 0.  0.
         24    2    5    5    0    0  0.30487774315E+02 -0.39001342194E+02 -0.46479032290E+02  0.10404419558E+03  0.78830737127E+02 0.  0.
          2    1    6    6  501    0  0.38268872765E+02 -0.53420779060E+02 -0.54893755362E+02  0.85624824881E+02  0.00000000000E+00 0. -1.
         -1    1    6    6    0  501 -0.77810984501E+01  0.14419436866E+02  0.84147230726E+01  0.18419370701E+02  0.00000000000E+00 0.  1.
          5    1    5    5  502    0 -0.94776336996E+02 -0.92365211669E+01 -0.12647220972E+02  0.96176450215E+02  0.47000000000E+01 0. -1.
         13    1    4    4    0    0  0.67841583783E+02  0.84964186397E+02 -0.43694292631E+02  0.11717757750E+03  0.00000000000E+00 0. -1.
        -14    1    4    4    0    0  0.18856827334E+02 -0.13707317476E+02  0.94736451964E+01  0.25163871776E+02  0.00000000000E+00 0.  1.
         -5    1    3    3    0  504 -0.22409848436E+02 -0.23019005560E+02  0.37967246625E+02  0.49956758703E+02  0.47000000000E+01 0.  1.
<mgrwt>
<rscale>  2 0.19201867E+03</rscale>
<asrwt>0</asrwt>
<pdfrwt beam="1">  1       21 0.25933785E-01 0.19226171E+03</pdfrwt>
<pdfrwt beam="2">  1       21 0.34453731E-01 0.19226171E+03</pdfrwt>
<totfact> 0.11466508E+05</totfact>
</mgrwt>
</event>
<event>
12    1  0.2736842E-001  0.2204453E+03  0.7546771E-02  0.1134375E+00
         21   -1    0    0  502  503  0.00000000000E+00  0.00000000000E+00  0.29698555602E+03  0.29698555602E+03  0.00000000000E+00 0. -1.
         21   -1    0    0  503  504 -0.00000000000E+00 -0.00000000000E+00 -0.16298272832E+03  0.16298272832E+03  0.00000000000E+00 0. -1.
         -6    2    1    2    0  504  0.52387876564E+00 -0.13779035993E+03  0.95328768118E+02  0.23615629598E+03  0.16642044454E+03 0.  0.
        -24    2    3    3    0    0  0.50342260112E+02 -0.11023500494E+03  0.10200596103E+03  0.17864244014E+03  0.82594224164E+02 0.  0.
          6    2    1    2  502    0 -0.52387876564E+00  0.13779035993E+03  0.38674059587E+02  0.22381198836E+03  0.17207459286E+03 0.  0.
         24    2    5    5    0    0  0.19105230988E+02  0.15984512292E+03  0.58108451413E+02  0.18815388822E+03  0.78165339848E+02 0.  0.
          2    1    6    6  501    0 -0.20573167445E+02  0.12219692577E+03  0.45635153563E+02  0.13205268315E+03  0.00000000000E+00 0. -1.
         -1    1    6    6    0  501  0.39678398433E+02  0.37648197149E+02  0.12473297850E+02  0.56101205068E+02  0.00000000000E+00 0.  1.
          5    1    5    5  502    0 -0.19629109754E+02 -0.22054762985E+02 -0.19434391826E+02  0.35658100141E+02  0.47000000000E+01 0. -1.
         11    1    4    4    0    0  0.11524365027E+02 -0.37912021649E+02  0.86451243434E+02  0.95099683838E+02  0.00000000000E+00 0. -1.
        -12    1    4    4    0    0  0.38817895085E+02 -0.72322983291E+02  0.15554717601E+02  0.83542756302E+02  0.00000000000E+00 0.  1.
         -5    1    3    3    0  504 -0.49818381346E+02 -0.27555354993E+02 -0.66771929163E+01  0.57513855843E+02  0.47000000000E+01 0.  1.
<mgrwt>
<rscale>  2 0.21934086E+03</rscale>
<asrwt>0</asrwt>
<pdfrwt beam="1">  1       21 0.45690085E-01 0.22044528E+03</pdfrwt>
<pdfrwt beam="2">  1       21 0.25074266E-01 0.22044528E+03</pdfrwt>
<totfact> 0.68336481E+04</totfact>
</mgrwt>
</event>
<event>
12    1  0.2736842E-001  0.2052433E+03  0.7546771E-02  0.1145428E+00
         21   -1    0    0  502  503  0.00000000000E+00  0.00000000000E+00  0.12995352192E+03  0.12995352192E+03  0.00000000000E+00 0.  1.
         21   -1    0    0  503  504 -0.00000000000E+00 -0.00000000000E+00 -0.40277456411E+03  0.40277456411E+03  0.00000000000E+00 0.  1.
         -6    2    1    2    0  504 -0.40504037678E+02  0.10262986486E+03 -0.25426940604E+03  0.32664801954E+03  0.17283671945E+03 0.  0.
        -24    2    3    3    0    0 -0.16502028239E+02 -0.30085121754E+01 -0.50709006983E+02  0.96008714075E+02  0.79780334090E+02 0.  0.
          6    2    1    2  502    0  0.40504037678E+02 -0.10262986486E+03 -0.18551636146E+02  0.20608006649E+03  0.17306462484E+03 0.  0.
         24    2    5    5    0    0 -0.52777906867E+01 -0.11784798707E+03 -0.46443018589E+02  0.15015523957E+03  0.80458926567E+02 0.  0.
          2    1    6    6  501    0  0.73575514328E+01 -0.11763214438E+03 -0.59461588799E+02  0.13201187635E+03  0.00000000000E+00 0. -1.
         -1    1    6    6    0  501 -0.12635342120E+02 -0.21584268273E+00  0.13018570210E+02  0.18143363218E+02  0.00000000000E+00 0.  1.
          5    1    5    5  502    0  0.45781828365E+02  0.15218122203E+02  0.27891382444E+02  0.55924826924E+02  0.47000000000E+01 0. -1.
         13    1    4    4    0    0  0.28797443581E+02  0.13778657024E+02 -0.28673581246E+02  0.42910586195E+02  0.00000000000E+00 0. -1.
        -14    1    4    4    0    0 -0.45299471820E+02 -0.16787169199E+02 -0.22035425737E+02  0.53098127879E+02  0.00000000000E+00 0.  1.
         -5    1    3    3    0  504 -0.24002009440E+02  0.10563837704E+03 -0.20356039906E+03  0.23063930546E+03  0.47000000000E+01 0.  1.
<mgrwt>
<rscale>  2 0.20519529E+03</rscale>
<asrwt>0</asrwt>
<pdfrwt beam="1">  1       21 0.19992850E-01 0.20524334E+03</pdfrwt>
<pdfrwt beam="2">  1       21 0.61965317E-01 0.20524334E+03</pdfrwt>
<totfact> 0.55505046E+04</totfact>
</mgrwt>
</event>
<event>
12    1  0.2736842E-001  0.2093791E+03  0.7546771E-02  0.1142421E+00
         21   -1    0    0  502  503  0.00000000000E+00  0.00000000000E+00  0.41834485387E+03  0.41834485387E+03  0.00000000000E+00 0. -1.
         21   -1    0    0  503  504 -0.00000000000E+00 -0.00000000000E+00 -0.11873074175E+03  0.11873074175E+03  0.00000000000E+00 0.  1.
         -6    2    1    2    0  504 -0.11114534134E+03  0.18206068266E+02  0.54288263824E+02  0.21454748244E+03  0.17435211157E+03 0.  0.
        -24    2    3    3    0    0 -0.90663715161E+02 -0.10625733117E+02  0.98798084901E+02  0.15750378030E+03  0.81936339782E+02 0.  0.
          6    2    1    2  502    0  0.11114534134E+03 -0.18206068266E+02  0.24532584829E+03  0.32252811318E+03  0.17650740530E+03 0.  0.
         24    2    5    5    0    0  0.14288406210E+03 -0.22569976411E+02  0.15793592089E+03  0.22933219319E+03  0.82001467602E+02 0.  0.
          2    1    6    6  501    0  0.10391490104E+03  0.20713788132E+02  0.11866760723E+03  0.15908918468E+03  0.00000000000E+00 0. -1.
         -1    1    6    6    0  501  0.38969161067E+02 -0.43283764543E+02  0.39268313657E+02  0.70243008511E+02  0.00000000000E+00 0.  1.
          5    1    5    5  502    0 -0.31738720764E+02  0.43639081454E+01  0.87389927407E+02  0.93195919987E+02  0.47000000000E+01 0. -1.
         13    1    4    4    0    0 -0.11853080705E+02 -0.37052848138E+02  0.39163324157E+02  0.55201223142E+02  0.00000000000E+00 0. -1.
        -14    1    4    4    0    0 -0.78810634456E+02  0.26427115020E+02  0.59634760744E+02  0.10230255716E+03  0.00000000000E+00 0.  1.
         -5    1    3    3    0  504 -0.20481626178E+02  0.28831801383E+02 -0.44509821077E+02  0.57043702143E+02  0.47000000000E+01 0.  1.
<mgrwt>
<rscale>  2 0.20892421E+03</rscale>
<asrwt>0</asrwt>
<pdfrwt beam="1">  1       21 0.64360746E-01 0.20937911E+03</pdfrwt>
<pdfrwt beam="2">  1       21 0.18266268E-01 0.20937911E+03</pdfrwt>
<totfact> 0.60371816E+04</totfact>
</mgrwt>
</event>
<event>
12    1  0.2736842E-001  0.2834090E+03  0.7546771E-02  0.1093896E+00
         21   -1    0    0  502  503  0.00000000000E+00  0.00000000000E+00  0.31689702741E+03  0.31689702741E+03  0.00000000000E+00 0. -1.
         21   -1    0    0  503  504 -0.00000000000E+00 -0.00000000000E+00 -0.27494484204E+03  0.27494484204E+03  0.00000000000E+00 0.  1.
         -6    2    1    2    0  504  0.96990586782E+02 -0.20154162445E+03  0.10437304123E+03  0.30164020269E+03  0.17339803873E+03 0.  0.
        -24    2    3    3    0    0  0.10973187887E+03 -0.11819431262E+03  0.11800962259E+03  0.21609979549E+03  0.82230589263E+02 0.  0.
          6    2    1    2  502    0 -0.96990586782E+02  0.20154162445E+03 -0.62420855872E+02  0.29020166676E+03  0.17405299144E+03 0.  0.
         24    2    5    5    0    0 -0.67534781627E+02  0.16891897558E+03 -0.11025862330E+03  0.22506777643E+03  0.73511719703E+02 0.  0.
          2    1    6    6  501    0 -0.59521358120E+01  0.99539114438E+02 -0.35234291127E+02  0.10575877503E+03  0.00000000000E+00 0. -1.
         -1    1    6    6    0  501 -0.61582645815E+02  0.69379861147E+02 -0.75024332173E+02  0.11930900141E+03  0.00000000000E+00 0.  1.
          5    1    5    5  502    0 -0.29455805156E+02  0.32622648865E+02  0.47837767429E+02  0.65133890325E+02  0.47000000000E+01 0. -1.
         11    1    4    4    0    0  0.60085195255E+02 -0.71299506676E+02  0.11457545926E+03  0.14772063568E+03  0.00000000000E+00 0. -1.
        -12    1    4    4    0    0  0.49646683613E+02 -0.46894805945E+02  0.34341633318E+01  0.68379159809E+02  0.00000000000E+00 0.  1.
         -5    1    3    3    0  504 -0.12741292086E+02 -0.83347311829E+02 -0.13636581362E+02  0.85540407202E+02  0.47000000000E+01 0.  1.
<mgrwt>
<rscale>  2 0.28330848E+03</rscale>
<asrwt>0</asrwt>
<pdfrwt beam="1">  1       21 0.48753389E-01 0.28340897E+03</pdfrwt>
<pdfrwt beam="2">  1       21 0.42299206E-01 0.28340897E+03</pdfrwt>
<totfact> 0.20629176E+04</totfact>
</mgrwt>
</event>
<event>
12    1  0.2736842E-001  0.1852206E+03  0.7546771E-02  0.1163303E+00
         21   -1    0    0  502  503  0.00000000000E+00  0.00000000000E+00  0.56237967293E+03  0.56237967293E+03  0.00000000000E+00 0. -1.
         21   -1    0    0  503  504 -0.00000000000E+00 -0.00000000000E+00 -0.17063721816E+03  0.17063721816E+03  0.00000000000E+00 0. -1.
         -6    2    1    2    0  504  0.28713076253E+01  0.65833231303E+02 -0.99135525006E+02  0.20835712884E+03  0.17100462588E+03 0.  0.
        -24    2    3    3    0    0  0.15910608810E+02  0.10141713169E+03 -0.36324909602E+02  0.13484862084E+03  0.79536591654E+02 0.  0.
          6    2    1    2  502    0 -0.28713076253E+01 -0.65833231303E+02  0.49087797978E+03  0.52465976225E+03  0.17310232908E+03 0.  0.
         24    2    5    5    0    0  0.34882681392E+02  0.88116239421E+01  0.32680646179E+03  0.34043497803E+03  0.88312312984E+02 0.  0.
          4    1    6    6  501    0  0.53933777719E+02 -0.19524257991E+02  0.24804743667E+03  0.25459296901E+03  0.00000000000E+00 0. -1.
         -3    1    6    6    0  501 -0.19051096327E+02  0.28335881933E+02  0.78759025116E+02  0.85842009025E+02  0.00000000000E+00 0.  1.
          5    1    5    5  502    0 -0.37753989017E+02 -0.74644855245E+02  0.16407151799E+03  0.18422478421E+03  0.47000000000E+01 0. -1.
         11    1    4    4    0    0  0.55631608889E+01  0.11367409527E+03 -0.31202922541E+02  0.11801004648E+03  0.00000000000E+00 0. -1.
        -12    1    4    4    0    0  0.10347447921E+02 -0.12256963588E+02 -0.51219870608E+01  0.16838574356E+02  0.00000000000E+00 0.  1.
         -5    1    3    3    0  504 -0.13039301185E+02 -0.35583900384E+02 -0.62810615404E+02  0.73508508007E+02  0.47000000000E+01 0.  1.
<mgrwt>
<rscale>  2 0.18472892E+03</rscale>
<asrwt>0</asrwt>
<pdfrwt beam="1">  1       21 0.86519949E-01 0.18522061E+03</pdfrwt>
<pdfrwt beam="2">  1       21 0.26251880E-01 0.18522061E+03</pdfrwt>
<totfact> 0.15946322E+04</totfact>
</mgrwt>
</event>
<event>
12    1  0.2736842E-001  0.3005632E+03  0.7546771E-02  0.1086031E+00
         21   -1    0    0  502  503  0.00000000000E+00  0.00000000000E+00  0.35449911992E+03  0.35449911992E+03  0.00000000000E+00 0. -1.
         21   -1    0    0  503  504 -0.00000000000E+00 -0.00000000000E+00 -0.25238066419E+03  0.25238066419E+03  0.00000000000E+00 0. -1.
         -6    2    1    2    0  504 -0.21950390021E+03  0.91399516530E+02  0.90628603492E+01  0.29224100321E+03  0.16966683438E+03 0.  0.
        -24    2    3    3    0    0 -0.21823191138E+03  0.56205658902E+02  0.42709227620E+02  0.24330846188E+03  0.81183041708E+02 0.  0.
          6    2    1    2  502    0  0.21950390021E+03 -0.91399516530E+02  0.93055595383E+02  0.31463878090E+03  0.18385424875E+03 0.  0.
         24    2    5    5    0    0  0.46956078330E+02  0.17013331612E+02  0.47453639447E+02  0.10576627226E+03  0.80251664825E+02 0.  0.
          4    1    6    6  501    0 -0.16563358860E+02  0.92758417719E+00 -0.93542212059E+01  0.19044860816E+02  0.00000000000E+00 0. -1.
         -3    1    6    6    0  501  0.63519437191E+02  0.16085747434E+02  0.56807860653E+02  0.86721411448E+02  0.00000000000E+00 0.  1.
          5    1    5    5  502    0  0.17254782188E+03 -0.10841284814E+03  0.45601955936E+02  0.20887250864E+03  0.47000000000E+01 0. -1.
         11    1    4    4    0    0 -0.33475846064E+02  0.42354160258E+02  0.48342171678E+01  0.54202184610E+02  0.00000000000E+00 0. -1.
        -12    1    4    4    0    0 -0.18475606532E+03  0.13851498644E+02  0.37875010453E+02  0.18910627727E+03  0.00000000000E+00 0.  1.
         -5    1    3    3    0  504 -0.12719888284E+01  0.35193857628E+02 -0.33646367271E+02  0.48932541328E+02  0.47000000000E+01 0.  1.
<mgrwt>
<rscale>  2 0.29842477E+03</rscale>
<asrwt>0</asrwt>
<pdfrwt beam="1">  1       21 0.54538326E-01 0.30056317E+03</pdfrwt>
<pdfrwt beam="2">  1       21 0.38827794E-01 0.30056317E+03</pdfrwt>
<totfact> 0.19249372E+04</totfact>
</mgrwt>
</event>
<event>
12    1  0.2736842E-001  0.1983091E+03  0.7546771E-02  0.1152286E+00
         21   -1    0    0  502  503  0.00000000000E+00  0.00000000000E+00  0.36738764162E+02  0.36738764162E+02  0.00000000000E+00 0. -1.
         21   -1    0    0  503  504 -0.00000000000E+00 -0.00000000000E+00 -0.13731441500E+04  0.13731441500E+04  0.00000000000E+00 0. -1.
         -6    2    1    2    0  504 -0.73707691113E+02  0.61216422051E+02 -0.10205774020E+04  0.10396656873E+04  0.17362670812E+03 0.  0.
        -24    2    3    3    0    0 -0.73429679828E+02  0.35794593003E+02 -0.33601024594E+03  0.35461048670E+03  0.78565521278E+02 0.  0.
          6    2    1    2  502    0  0.73707691113E+02 -0.61216422051E+02 -0.31582798390E+03  0.37021722694E+03  0.16772956106E+03 0.  0.
         24    2    5    5    0    0  0.18464183780E+02 -0.84293516880E+02 -0.26984714103E+03  0.29458175035E+03  0.80713103324E+02 0.  0.
          4    1    6    6  501    0  0.14272368395E+02  0.72536032517E+01 -0.10287700566E+03  0.10411528972E+03  0.00000000000E+00 0. -1.
         -3    1    6    6    0  501  0.41918153847E+01 -0.91547120132E+02 -0.16697013536E+03  0.19046646063E+03  0.00000000000E+00 0.  1.
          5    1    5    5  502    0  0.55243507333E+02  0.23077094829E+02 -0.45980842869E+02  0.75635476591E+02  0.47000000000E+01 0. -1.
         13    1    4    4    0    0 -0.28955118065E+02 -0.24822445986E+02 -0.11013280859E+03  0.11654950971E+03  0.00000000000E+00 0. -1.
        -14    1    4    4    0    0 -0.44474561763E+02  0.60617038988E+02 -0.22587743735E+03  0.23806097699E+03  0.00000000000E+00 0.  1.
         -5    1    3    3    0  504 -0.27801128502E+00  0.25421829048E+02 -0.68456715604E+03  0.68505520056E+03  0.47000000000E+01 0.  1.
<mgrwt>
<rscale>  2 0.19701089E+03</rscale>
<asrwt>0</asrwt>
<pdfrwt beam="1">  1       21 0.56521183E-02 0.19830912E+03</pdfrwt>
<pdfrwt beam="2">  1       21 0.21125292E+00 0.19830912E+03</pdfrwt>
<totfact> 0.24779353E+04</totfact>
</mgrwt>
</event>
<event>
12    1  0.2736842E-001  0.2032324E+03  0.7546771E-02  0.1147411E+00
         21   -1    0    0  502  503  0.00000000000E+00  0.00000000000E+00  0.39081305507E+03  0.39081305507E+03  0.00000000000E+00 0.  1.
         21   -1    0    0  503  504 -0.00000000000E+00 -0.00000000000E+00 -0.10575112824E+03  0.10575112824E+03  0.00000000000E+00 0.  1.
         -6    2    1    2    0  504 -0.53265995174E+02 -0.92808355755E+02  0.11911508282E+03  0.23556696767E+03  0.17277944369E+03 0.  0.
        -24    2    3    3    0    0  0.40900607505E+00 -0.70296038297E+02  0.40400063325E+01  0.10652366709E+03  0.79932907574E+02 0.  0.
          6    2    1    2  502    0  0.53265995174E+02  0.92808355755E+02  0.16594684402E+03  0.26099721564E+03  0.17067669551E+03 0.  0.
         24    2    5    5    0    0  0.32668538066E+02  0.61577777684E+02  0.16755442333E+02  0.10711489507E+03  0.79585173334E+02 0.  0.
          4    1    6    6  501    0 -0.26445372680E+02  0.15658628967E+02  0.79521798424E+01  0.31745669966E+02  0.00000000000E+00 0. -1.
         -3    1    6    6    0  501  0.59113910747E+02  0.45919148716E+02  0.88032624905E+01  0.75369225106E+02  0.00000000000E+00 0.  1.
          5    1    5    5  502    0  0.20597457108E+02  0.31230578072E+02  0.14919140168E+03  0.15388232056E+03  0.47000000000E+01 0. -1.
         11    1    4    4    0    0  0.27139288215E+02 -0.17616441799E+02  0.27987863092E+02  0.42780842288E+02  0.00000000000E+00 0. -1.
        -12    1    4    4    0    0 -0.26730282139E+02 -0.52679596498E+02 -0.23947856760E+02  0.63742824803E+02  0.00000000000E+00 0.  1.
         -5    1    3    3    0  504 -0.53675001250E+02 -0.22512317458E+02  0.11507507648E+03  0.12904330058E+03  0.47000000000E+01 0.  1.
<mgrwt>
<rscale>  2 0.20278473E+03</rscale>
<asrwt>0</asrwt>
<pdfrwt beam="1">  1       21 0.60125085E-01 0.20323236E+03</pdfrwt>
<pdfrwt beam="2">  1       21 0.16269405E-01 0.20323236E+03</pdfrwt>
<totfact> 0.86845912E+04</totfact>
</mgrwt>
</event>
<event>
12    1  0.2736842E-001  0.1888715E+03  0.7546771E-02  0.1159589E+00
         21   -1    0    0  502  503  0.00000000000E+00  0.00000000000E+00  0.20263752713E+03  0.20263752713E+03  0.00000000000E+00 0.  1.
         21   -1    0    0  503  504 -0.00000000000E+00 -0.00000000000E+00 -0.23872757885E+03  0.23872757885E+03  0.00000000000E+00 0.  1.
         -6    2    1    2    0  504 -0.24564145456E+02  0.71018881047E+02 -0.13153604688E+03  0.23016122490E+03  0.17327832844E+03 0.  0.
        -24    2    3    3    0    0  0.17099835550E+02  0.78904351842E+02 -0.26822784156E+02  0.11709033848E+03  0.80451131133E+02 0.  0.
          6    2    1    2  502    0  0.24564145456E+02 -0.71018881047E+02  0.95445995160E+02  0.21120388109E+03  0.17277170685E+03 0.  0.
         24    2    5    5    0    0  0.40977791992E+02 -0.10334855355E+03  0.37218684316E+02  0.14244978852E+03  0.80911116851E+02 0.  0.
          2    1    6    6  501    0 -0.66637205396E+01 -0.57749894593E+02 -0.12988078627E+02  0.59566313327E+02  0.00000000000E+00 0. -1.
         -1    1    6    6    0  501  0.47641512532E+02 -0.45598658957E+02  0.50206762944E+02  0.82883475194E+02  0.00000000000E+00 0.  1.
          5    1    5    5  502    0 -0.16413646536E+02  0.32329672504E+02  0.58227310844E+02  0.68754092569E+02  0.47000000000E+01 0. -1.
         11    1    4    4    0    0 -0.30556933399E+01 -0.87024998450E+01  0.15261118755E+02  0.17831783730E+02  0.00000000000E+00 0. -1.
        -12    1    4    4    0    0  0.20155528890E+02  0.87606851687E+02 -0.42083902911E+02  0.99258554753E+02  0.00000000000E+00 0.  1.
         -5    1    3    3    0  504 -0.41663981006E+02 -0.78854707954E+01 -0.10471326273E+03  0.11307088641E+03  0.47000000000E+01 0.  1.
<mgrwt>
<rscale>  2 0.18875526E+03</rscale>
<asrwt>0</asrwt>
<pdfrwt beam="1">  1       21 0.31175004E-01 0.18887154E+03</pdfrwt>
<pdfrwt beam="2">  1       21 0.36727320E-01 0.18887154E+03</pdfrwt>
<totfact> 0.70794421E+04</totfact>
</mgrwt>
</event>
<event>
12    1  0.2736842E-001  0.2030757E+03  0.7546771E-02  0.1147201E+00
         21   -1    0    0  502  503  0.00000000000E+00  0.00000000000E+00  0.26071527609E+03  0.26071527609E+03  0.00000000000E+00 0. -1.
         21   -1    0    0  503  504 -0.00000000000E+00 -0.00000000000E+00 -0.16486609274E+03  0.16486609274E+03  0.00000000000E+00 0. -1.
         -6    2    1    2    0  504  0.10219384490E+03 -0.31579860086E+02  0.91134018979E+02  0.22245097032E+03  0.17244754357E+03 0.  0.
        -24    2    3    3    0    0  0.57906429137E+02 -0.31242197052E+02  0.12768467773E+03  0.16483560895E+03  0.80858961394E+02 0.  0.
          6    2    1    2  502    0 -0.10219384490E+03  0.31579860086E+02  0.47151643732E+01  0.20313039851E+03  0.17262345300E+03 0.  0.
         24    2    5    5    0    0 -0.11220285291E+03  0.70171202636E+02  0.27478130101E+02  0.15698156786E+03  0.79841637853E+02 0.  0.
          2    1    6    6  501    0 -0.89436719450E+02  0.79760033025E+02 -0.26269294743E+00  0.11983596564E+03  0.00000000000E+00 0. -1.
         -1    1    6    6    0  501 -0.22766133458E+02 -0.95888303894E+01  0.27740823049E+02  0.37145602220E+02  0.00000000000E+00 0.  1.
          5    1    5    5  502    0  0.10009008008E+02 -0.38591342550E+02 -0.22762965728E+02  0.46148830644E+02  0.47000000000E+01 0. -1.
         11    1    4    4    0    0  0.77373666579E+02 -0.31930969060E+02  0.11202405323E+03  0.13984155165E+03  0.00000000000E+00 0. -1.
        -12    1    4    4    0    0 -0.19467237443E+02  0.68877200772E+00  0.15660624499E+02  0.24994057298E+02  0.00000000000E+00 0.  1.
         -5    1    3    3    0  504  0.44287415764E+02 -0.33766303426E+00 -0.36550658751E+02  0.57615361376E+02  0.47000000000E+01 0.  1.
<mgrwt>
<rscale>  2 0.20303828E+03</rscale>
<asrwt>0</asrwt>
<pdfrwt beam="1">  1       21 0.40110043E-01 0.20307567E+03</pdfrwt>
<pdfrwt beam="2">  1       21 0.25364014E-01 0.20307567E+03</pdfrwt>
<totfact> 0.87875693E+04</totfact>
</mgrwt>
</event>
<event>
12    1  0.2736842E-001  0.2466251E+03  0.7546771E-02  0.1115813E+00
         21   -1    0    0  502  503  0.00000000000E+00  0.00000000000E+00  0.12578090285E+04  0.12578090285E+04  0.00000000000E+00 0.  1.
         21   -1    0    0  503  504 -0.00000000000E+00 -0.00000000000E+00 -0.23069899299E+03  0.23069899299E+03  0.00000000000E+00 0. -1.
         -6    2    1    2    0  504 -0.16523953240E+03  0.52185061203E+02 -0.14841724629E+03  0.28783958867E+03  0.17548950433E+03 0.  0.
        -24    2    3    3    0    0 -0.74579842400E+02  0.93714551796E+02 -0.10715144855E+03  0.17981721117E+03  0.80673579275E+02 0.  0.
          6    2    1    2  502    0  0.16523953240E+03 -0.52185061203E+02  0.11755272818E+04  0.12006684328E+04  0.17237433583E+03 0.  0.
         24    2    5    5    0    0  0.10541930917E+02 -0.10392285935E+02  0.39985631510E+03  0.40860434290E+03  0.82784686984E+02 0.  0.
          4    1    6    6  501    0  0.11838156552E+02 -0.81174964460E+01  0.74182441295E+01  0.16157538335E+02  0.00000000000E+00 0. -1.
         -3    1    6    6    0  501 -0.12962256344E+01 -0.22747894895E+01  0.39243807097E+03  0.39244680456E+03  0.00000000000E+00 0.  1.
          5    1    5    5  502    0  0.15469760148E+03 -0.41792775268E+02  0.77567096667E+03  0.79206408990E+03  0.47000000000E+01 0. -1.
         13    1    4    4    0    0 -0.36950710089E+02 -0.60040900786E+01 -0.33768668492E+02  0.50415543689E+02  0.00000000000E+00 0. -1.
        -14    1    4    4    0    0 -0.37629132311E+02  0.99718641875E+02 -0.73382780062E+02  0.12940166748E+03  0.00000000000E+00 0.  1.
         -5    1    3    3    0  504 -0.90659689995E+02 -0.41529490593E+02 -0.41265797734E+02  0.10802237750E+03  0.47000000000E+01 0.  1.
<mgrwt>
<rscale>  2 0.24607155E+03</rscale>
<asrwt>0</asrwt>
<pdfrwt beam="1">  1       21 0.19350908E+00 0.24662512E+03</pdfrwt>
<pdfrwt beam="2">  1       21 0.35492153E-01 0.24662512E+03</pdfrwt>
<totfact> 0.10732251E+03</totfact>
</mgrwt>
</event>
<event>
12    1  0.2736842E-001  0.1964096E+03  0.7546771E-02  0.1152918E+00
         21   -1    0    0  502  503  0.00000000000E+00  0.00000000000E+00  0.24694206885E+03  0.24694206885E+03  0.00000000000E+00 0.  1.
         21   -1    0    0  503  504 -0.00000000000E+00 -0.00000000000E+00 -0.11135019615E+04  0.11135019615E+04  0.00000000000E+00 0.  1.
         -6    2    1    2    0  504  0.90293893060E+02 -0.23043904010E+02 -0.10642036625E+04  0.10821765828E+04  0.17289509064E+03 0.  0.
        -24    2    3    3    0    0 -0.33196450010E+02  0.36095087186E+01 -0.37276906730E+03  0.37927960689E+03  0.61491542723E+02 0.  0.
          6    2    1    2  502    0 -0.90293893060E+02  0.23043904010E+02  0.19764376994E+03  0.27826744750E+03  0.17229539723E+03 0.  0.
         24    2    5    5    0    0 -0.71822844436E+02  0.60236038603E+02  0.65354113793E+02  0.13953361012E+03  0.80072260070E+02 0.  0.
          2    1    6    6  501    0 -0.27008496851E+02  0.40149219390E+02 -0.10170997883E+02  0.49445605646E+02  0.00000000000E+00 0. -1.
         -1    1    6    6    0  501 -0.44814347586E+02  0.20086819213E+02  0.75525111676E+02  0.90088004470E+02  0.00000000000E+00 0.  1.
          5    1    5    5  502    0 -0.18471048623E+02 -0.37192134593E+02  0.13228965615E+03  0.13873383739E+03  0.47000000000E+01 0. -1.
         13    1    4    4    0    0 -0.10035148198E+02  0.17168568272E+01 -0.60868729107E+01  0.11861779738E+02  0.00000000000E+00 0. -1.
        -14    1    4    4    0    0 -0.23161301812E+02  0.18926518914E+01 -0.36668219439E+03  0.36741782716E+03  0.00000000000E+00 0.  1.
         -5    1    3    3    0  504  0.12349034307E+03 -0.26653412729E+02 -0.69143459524E+03  0.70289697591E+03  0.47000000000E+01 0.  1.
<mgrwt>
<rscale>  2 0.19627752E+03</rscale>
<asrwt>0</asrwt>
<pdfrwt beam="1">  1       21 0.37991088E-01 0.19640957E+03</pdfrwt>
<pdfrwt beam="2">  1       21 0.17130799E+00 0.19640957E+03</pdfrwt>
<totfact> 0.13905672E+03</totfact>
</mgrwt>
</event>
<event>
12    1  0.2736842E-001  0.1769911E+03  0.7546771E-02  0.1171515E+00
         21   -1    0    0  502  503  0.00000000000E+00  0.00000000000E+00  0.10798364318E+03  0.10798364318E+03  0.00000000000E+00 0. -1.
         21   -1    0    0  503  504 -0.00000000000E+00 -0.00000000000E+00 -0.38888148304E+03  0.38888148304E+03  0.00000000000E+00 0. -1.
         -6    2    1    2    0  504 -0.93926708377E+01 -0.30914961215E+02 -0.26789418044E+03  0.31939697226E+03  0.17088937030E+03 0.  0.
        -24    2    3    3    0    0 -0.27001961335E+02 -0.71993998895E+02 -0.24776603486E+03  0.27015464603E+03  0.75387551651E+02 0.  0.
          6    2    1    2  502    0  0.93926708377E+01  0.30914961215E+02 -0.13003659429E+02  0.17746815396E+03  0.17401693429E+03 0.  0.
         24    2    5    5    0    0 -0.43701749116E+02  0.55663150087E+01  0.39432103497E+02  0.98517723130E+02  0.78803707057E+02 0.  0.
          4    1    6    6  501    0 -0.24072621335E+02  0.34169257923E+02  0.47118821666E+02  0.62985813007E+02  0.00000000000E+00 0. -1.
         -3    1    6    6    0  501 -0.19629127781E+02 -0.28602942914E+02 -0.76867181685E+01  0.35531910123E+02  0.00000000000E+00 0.  1.
          5    1    5    5  502    0  0.53094419954E+02  0.25348646206E+02 -0.52435762927E+02  0.78950430831E+02  0.47000000000E+01 0. -1.
         13    1    4    4    0    0 -0.32558310411E+02 -0.15209962364E+01 -0.46108870403E+02  0.56465785536E+02  0.00000000000E+00 0. -1.
        -14    1    4    4    0    0  0.55563490756E+01 -0.70473002658E+02 -0.20165716446E+03  0.21368886049E+03  0.00000000000E+00 0.  1.
         -5    1    3    3    0  504  0.17609290497E+02  0.41079037680E+02 -0.20128145573E+02  0.49242326232E+02  0.47000000000E+01 0.  1.
<mgrwt>
<rscale>  2 0.17621753E+03</rscale>
<asrwt>0</asrwt>
<pdfrwt beam="1">  1       21 0.16612868E-01 0.17699110E+03</pdfrwt>
<pdfrwt beam="2">  1       21 0.59827920E-01 0.17699110E+03</pdfrwt>
<totfact> 0.85396322E+04</totfact>
</mgrwt>
</event>
<event>
12    1  0.2736842E-001  0.2328056E+03  0.7546771E-02  0.1124742E+00
         21   -1    0    0  502  503  0.00000000000E+00  0.00000000000E+00  0.92750052640E+02  0.92750052640E+02  0.00000000000E+00 0. -1.
         21   -1    0    0  503  504 -0.00000000000E+00 -0.00000000000E+00 -0.63514689623E+03  0.63514689623E+03  0.00000000000E+00 0. -1.
         -6    2    1    2    0  504  0.13955844031E+01 -0.15638880162E+03 -0.37483183820E+03  0.44105816197E+03  0.17197089981E+03 0.  0.
        -24    2    3    3    0    0 -0.47244842005E+02 -0.82475637279E+02 -0.30092032849E+03  0.32567164537E+03  0.80465338251E+02 0.  0.
          6    2    1    2  502    0 -0.13955844031E+01  0.15638880162E+03 -0.16756500539E+03  0.28683878690E+03  0.17245014848E+03 0.  0.
         24    2    5    5    0    0  0.58866401871E+02  0.94673549805E+02 -0.13861434647E+03  0.19573165245E+03  0.81661547989E+02 0.  0.
          4    1    6    6  501    0  0.65445816089E+02  0.91243123000E+02 -0.83022203966E+02  0.13964651335E+03  0.00000000000E+00 0. -1.
         -3    1    6    6    0  501 -0.65794142184E+01  0.34304268052E+01 -0.55592142508E+02  0.56085139102E+02  0.00000000000E+00 0.  1.
          5    1    5    5  502    0 -0.60261986274E+02  0.61715251818E+02 -0.28950658914E+02  0.91107134452E+02  0.47000000000E+01 0. -1.
         13    1    4    4    0    0 -0.99529935046E+01 -0.81898192238E+02 -0.24445104361E+03  0.25799745870E+03  0.00000000000E+00 0. -1.
        -14    1    4    4    0    0 -0.37291848500E+02 -0.57744504123E+00 -0.56469284879E+02  0.67674186674E+02  0.00000000000E+00 0.  1.
         -5    1    3    3    0  504  0.48640426408E+02 -0.73913164344E+02 -0.73911509710E+02  0.11538651660E+03  0.47000000000E+01 0.  1.
<mgrwt>
<rscale>  2 0.23271688E+03</rscale>
<asrwt>0</asrwt>
<pdfrwt beam="1">  1       21 0.14269239E-01 0.23280562E+03</pdfrwt>
<pdfrwt beam="2">  1       21 0.97714904E-01 0.23280562E+03</pdfrwt>
<totfact> 0.36476142E+04</totfact>
</mgrwt>
</event>
<event>
12    1  0.2736842E-001  0.2987578E+03  0.7546771E-02  0.1086063E+00
         21   -1    0    0  502  503  0.00000000000E+00  0.00000000000E+00  0.44683374610E+03  0.44683374610E+03  0.00000000000E+00 0.  1.
         21   -1    0    0  503  504 -0.00000000000E+00 -0.00000000000E+00 -0.24488116651E+03  0.24488116651E+03  0.00000000000E+00 0. -1.
         -6    2    1    2    0  504  0.20865679581E+03  0.12155954837E+03 -0.49442094608E+02  0.30125936900E+03  0.17320018606E+03 0.  0.
        -24    2    3    3    0    0  0.22616398189E+03  0.82899860689E+02 -0.40909221988E+02  0.25771659771E+03  0.81986259127E+02 0.  0.
          6    2    1    2  502    0 -0.20865679581E+03 -0.12155954837E+03  0.25139467420E+03  0.39045554362E+03  0.17590300479E+03 0.  0.
         24    2    5    5    0    0 -0.14861859179E+03 -0.13739282521E+03  0.24548484143E+03  0.32790720455E+03  0.79347672809E+02 0.  0.
          2    1    6    6  501    0 -0.62106698907E+02 -0.88131594399E+02  0.17636832642E+03  0.20671286014E+03  0.00000000000E+00 0. -1.
         -1    1    6    6    0  501 -0.86511892886E+02 -0.49261230814E+02  0.69116515003E+02  0.12119434441E+03  0.00000000000E+00 0.  1.
          5    1    5    5  502    0 -0.60038204017E+02  0.15833276844E+02  0.59098327727E+01  0.62548339071E+02  0.47000000000E+01 0. -1.
         11    1    4    4    0    0  0.11970787381E+03  0.14009554023E+02  0.10300495149E+02  0.12096422139E+03  0.00000000000E+00 0. -1.
        -12    1    4    4    0    0  0.10645610807E+03  0.68890306666E+02 -0.51209717137E+02  0.13675237632E+03  0.00000000000E+00 0.  1.
         -5    1    3    3    0  504 -0.17507186080E+02  0.38659687680E+02 -0.85328726204E+01  0.43542771285E+02  0.47000000000E+01 0.  1.
<mgrwt>
<rscale>  2 0.29836122E+03</rscale>
<asrwt>0</asrwt>
<pdfrwt beam="1">  1       21 0.68743653E-01 0.29875784E+03</pdfrwt>
<pdfrwt beam="2">  1       21 0.37674026E-01 0.29875784E+03</pdfrwt>
<totfact> 0.12367672E+04</totfact>
</mgrwt>
</event>
<event>
12    1  0.2736842E-001  0.1760114E+03  0.7546771E-02  0.1172537E+00
         21   -1    0    0  502  503  0.00000000000E+00  0.00000000000E+00  0.93699641297E+03  0.93699641297E+03  0.00000000000E+00 0.  1.
         21   -1    0    0  503  504 -0.00000000000E+00 -0.00000000000E+00 -0.13436018078E+03  0.13436018078E+03  0.00000000000E+00 0.  1.
         -6    2    1    2    0  504 -0.18026542546E+00 -0.11191861066E+02 -0.66093039842E+02  0.18497598868E+03  0.17240225121E+03 0.  0.
        -24    2    3    3    0    0 -0.43020842253E+02 -0.16918795761E+01  0.14941709343E+02  0.92703104002E+02  0.80727662477E+02 0.  0.
          6    2    1    2  502    0  0.18026542546E+00  0.11191861066E+02  0.86872927204E+03  0.88638060507E+03  0.17565516985E+03 0.  0.
         24    2    5    5    0    0 -0.14744291883E+02 -0.61796888640E+02  0.54253882012E+03  0.55175783101E+03  0.77795135821E+02 0.  0.
          2    1    6    6  501    0 -0.42249816350E+02 -0.13839917050E+02  0.27448613209E+03  0.27806335069E+03  0.00000000000E+00 0. -1.
         -1    1    6    6    0  501  0.27505524468E+02 -0.47956971590E+02  0.26805268803E+03  0.27369448032E+03  0.00000000000E+00 0.  1.
          5    1    5    5  502    0  0.14924557308E+02  0.72988749707E+02  0.32619045192E+03  0.33462277406E+03  0.47000000000E+01 0. -1.
         11    1    4    4    0    0 -0.51103907238E+02 -0.29452900794E+02 -0.23185020739E+01  0.59029299098E+02  0.00000000000E+00 0. -1.
        -12    1    4    4    0    0  0.80830649850E+01  0.27761021217E+02  0.17260211417E+02  0.33673804904E+02  0.00000000000E+00 0.  1.
         -5    1    3    3    0  504  0.42840576827E+02 -0.94999814902E+01 -0.81034749184E+02  0.92272884677E+02  0.47000000000E+01 0.  1.
<mgrwt>
<rscale>  2 0.17519422E+03</rscale>
<asrwt>0</asrwt>
<pdfrwt beam="1">  1       21 0.14415329E+00 0.17601145E+03</pdfrwt>
<pdfrwt beam="2">  1       21 0.20670798E-01 0.17601145E+03</pdfrwt>
<totfact> 0.72957212E+03</totfact>
</mgrwt>
</event>
<event>
12    1  0.2736842E-001  0.1805677E+03  0.7546771E-02  0.1167553E+00
         21   -1    0    0  502  503  0.00000000000E+00  0.00000000000E+00  0.20009006916E+03  0.20009006916E+03  0.00000000000E+00 0. -1.
         21   -1    0    0  503  504 -0.00000000000E+00 -0.00000000000E+00 -0.20160137449E+03  0.20160137449E+03  0.00000000000E+00 0. -1.
         -6    2    1    2    0  504  0.12488736973E+02  0.48475722941E+02 -0.89952967166E+02  0.20173304622E+03  0.17349011894E+03 0.  0.
        -24    2    3    3    0    0  0.62066176126E+00  0.99089152685E+02 -0.71961340780E+02  0.14652109915E+03  0.80442230992E+02 0.  0.
          6    2    1    2  502    0 -0.12488736973E+02 -0.48475722941E+02  0.88441661837E+02  0.19995839743E+03  0.17220792343E+03 0.  0.
         24    2    5    5    0    0 -0.14586442710E+02  0.31616006304E+02  0.80631745680E+02  0.11932236174E+03  0.80771352802E+02 0.  0.
          2    1    6    6  501    0  0.28285766348E+02  0.31005229667E+02  0.55640431956E+02  0.69694092382E+02  0.00000000000E+00 0. -1.
         -1    1    6    6    0  501 -0.42872209057E+02  0.61077663663E+00  0.24991313724E+02  0.49628269355E+02  0.00000000000E+00 0.  1.
          5    1    5    5  502    0  0.20977057364E+01 -0.80091729244E+02  0.78099161566E+01  0.80636035698E+02  0.47000000000E+01 0. -1.
         11    1    4    4    0    0  0.11569866914E+02  0.94262084075E+02 -0.25204206889E+02  0.98257082999E+02  0.00000000000E+00 0. -1.
        -12    1    4    4    0    0 -0.10949205153E+02  0.48270686100E+01 -0.46757133891E+02  0.48264016146E+02  0.00000000000E+00 0.  1.
         -5    1    3    3    0  504  0.11868075212E+02 -0.50613429744E+02 -0.17991626386E+02  0.55211947074E+02  0.47000000000E+01 0.  1.
<mgrwt>
<rscale>  2 0.18025899E+03</rscale>
<asrwt>0</asrwt>
<pdfrwt beam="1">  1       21 0.30783088E-01 0.18056768E+03</pdfrwt>
<pdfrwt beam="2">  1       21 0.31015596E-01 0.18056768E+03</pdfrwt>
<totfact> 0.10164445E+05</totfact>
</mgrwt>
</event>
<event>
12    1  0.2736842E-001  0.1923415E+03  0.7546771E-02  0.1156898E+00
         21   -1    0    0  502  503  0.00000000000E+00  0.00000000000E+00  0.11299629815E+03  0.11299629815E+03  0.00000000000E+00 0. -1.
         21   -1    0    0  503  504 -0.00000000000E+00 -0.00000000000E+00 -0.32736405584E+03  0.32736405584E+03  0.00000000000E+00 0. -1.
         -6    2    1    2    0  504  0.79918411857E+02 -0.22516566421E+02 -0.13087460277E+03  0.23067878212E+03  0.17085254037E+03 0.  0.
        -24    2    3    3    0    0  0.10887265229E+03  0.97919209752E+01 -0.61483480727E+02  0.14870680999E+03  0.79902195221E+02 0.  0.
          6    2    1    2  502    0 -0.79918411857E+02  0.22516566421E+02 -0.83493154922E+02  0.20968157187E+03  0.17349728051E+03 0.  0.
         24    2    5    5    0    0 -0.12176672453E+03  0.18083258043E+02 -0.79420353529E+02  0.16714202312E+03  0.80465669161E+02 0.  0.
          2    1    6    6  501    0 -0.11960436284E+03  0.10096024934E+02 -0.39483540403E+02  0.12635696773E+03  0.00000000000E+00 0. -1.
         -1    1    6    6    0  501 -0.21623616891E+01  0.79872331086E+01 -0.39936813126E+02  0.40785055394E+02  0.00000000000E+00 0.  1.
          5    1    5    5  502    0  0.41848312673E+02  0.44333083775E+01 -0.40728013935E+01  0.42539548751E+02  0.47000000000E+01 0. -1.
         11    1    4    4    0    0  0.88333458069E+02 -0.10727954576E+02 -0.99229683644E+01  0.89534094762E+02  0.00000000000E+00 0. -1.
        -12    1    4    4    0    0  0.20539194219E+02  0.20519875551E+02 -0.51560512363E+02  0.59172715223E+02  0.00000000000E+00 0.  1.
         -5    1    3    3    0  504 -0.28954240430E+02 -0.32308487396E+02 -0.69391122047E+02  0.81971972135E+02  0.47000000000E+01 0.  1.
<mgrwt>
<rscale>  2 0.19174317E+03</rscale>
<asrwt>0</asrwt>
<pdfrwt beam="1">  1       21 0.17384046E-01 0.19234151E+03</pdfrwt>
<pdfrwt beam="2">  1       21 0.50363700E-01 0.19234151E+03</pdfrwt>
<totfact> 0.11238986E+05</totfact>
</mgrwt>
</event>
<event>
12    1  0.2736842E-001  0.2234107E+03  0.7546771E-02  0.1131543E+00
         21   -1    0    0  502  503  0.00000000000E+00  0.00000000000E+00  0.53982818807E+03  0.53982818807E+03  0.00000000000E+00 0. -1.
         21   -1    0    0  503  504 -0.00000000000E+00 -0.00000000000E+00 -0.14267611428E+03  0.14267611428E+03  0.00000000000E+00 0. -1.
         -6    2    1    2    0  504  0.11654553911E+03 -0.77661007983E+02 -0.44032038477E+01  0.22345407084E+03  0.17406389266E+03 0.  0.
        -24    2    3    3    0    0  0.68516027710E+01 -0.78433003868E+02 -0.13421143140E+02  0.11328706637E+03  0.80343959120E+02 0.  0.
          6    2    1    2  502    0 -0.11654553911E+03  0.77661007983E+02  0.40155527764E+03  0.45905023150E+03  0.17281892024E+03 0.  0.
         24    2    5    5    0    0 -0.11226665501E+03  0.43691844726E+02  0.39910365764E+03  0.42440469294E+03  0.79516254480E+02 0.  0.
          4    1    6    6  501    0 -0.97500738678E+02  0.65752361173E+02  0.31660729520E+03  0.33774242614E+03  0.00000000000E+00 0. -1.
         -3    1    6    6    0  501 -0.14765916336E+02 -0.22060516447E+02  0.82496362442E+02  0.86662266803E+02  0.00000000000E+00 0.  1.
          5    1    5    5  502    0 -0.42788840910E+01  0.33969163257E+02  0.24516200038E+01  0.34645538560E+02  0.47000000000E+01 0. -1.
         13    1    4    4    0    0 -0.16248628625E+02 -0.31936737043E+02 -0.41038243370E+02  0.54480368244E+02  0.00000000000E+00 0. -1.
        -14    1    4    4    0    0  0.23100231396E+02 -0.46496266825E+02  0.27617100230E+02  0.58806698125E+02  0.00000000000E+00 0.  1.
         -5    1    3    3    0  504  0.10969393633E+03  0.77199588445E+00  0.90179392920E+01  0.11016700448E+03  0.47000000000E+01 0.  1.
<mgrwt>
<rscale>  2 0.22316814E+03</rscale>
<asrwt>0</asrwt>
<pdfrwt beam="1">  1       21 0.83050489E-01 0.22341068E+03</pdfrwt>
<pdfrwt beam="2">  1       21 0.21950172E-01 0.22341068E+03</pdfrwt>
<totfact> 0.24069375E+04</totfact>
</mgrwt>
</event>
<event>
12    1  0.2736842E-001  0.1906162E+03  0.7546771E-02  0.1158183E+00
         21   -1    0    0  502  503  0.00000000000E+00  0.00000000000E+00  0.11154722554E+03  0.11154722554E+03  0.00000000000E+00 0. -1.
         21   -1    0    0  503  504 -0.00000000000E+00 -0.00000000000E+00 -0.11705791358E+04  0.11705791358E+04  0.00000000000E+00 0. -1.
         -6    2    1    2    0  504  0.48625849146E+02 -0.61337302777E+02 -0.10752779188E+04  0.10920426468E+04  0.17380391815E+03 0.  0.
        -24    2    3    3    0    0  0.91865672629E+02 -0.38205174898E+02 -0.92664614980E+03  0.93545953655E+03  0.80700188264E+02 0.  0.
          6    2    1    2  502    0 -0.48625849146E+02  0.61337302777E+02  0.16246008460E+02  0.19008371457E+03  0.17245622005E+03 0.  0.
         24    2    5    5    0    0  0.25490092961E+02  0.43071007349E+00 -0.24580570846E+02  0.85720476369E+02  0.78063213203E+02 0.  0.
          4    1    6    6  501    0  0.36630859734E+02 -0.62823760803E+01  0.17929901573E+02  0.41264627763E+02  0.00000000000E+00 0. -1.
         -3    1    6    6    0  501 -0.11140766773E+02  0.67130861538E+01 -0.42510472419E+02  0.44455848606E+02  0.00000000000E+00 0.  1.
          5    1    5    5  502    0 -0.74115942107E+02  0.60906592703E+02  0.40826579306E+02  0.10436323820E+03  0.47000000000E+01 0. -1.
         11    1    4    4    0    0  0.83762345431E+01 -0.37145769537E+02 -0.44531434944E+03  0.44693941348E+03  0.00000000000E+00 0. -1.
        -12    1    4    4    0    0  0.83489438086E+02 -0.10594053618E+01 -0.48133180036E+03  0.48852012307E+03  0.00000000000E+00 0.  1.
         -5    1    3    3    0  504 -0.43239823484E+02 -0.23132127879E+02 -0.14863176897E+03  0.15658311027E+03  0.47000000000E+01 0.  1.
<mgrwt>
<rscale>  2 0.19030846E+03</rscale>
<asrwt>0</asrwt>
<pdfrwt beam="1">  1       21 0.17161111E-01 0.19061621E+03</pdfrwt>
<pdfrwt beam="2">  1       21 0.18008910E+00 0.19061621E+03</pdfrwt>
<totfact> 0.55812349E+03</totfact>
</mgrwt>
</event>
<event>
12    1  0.2736842E-001  0.3428857E+03  0.7546771E-02  0.1066020E+00
         21   -1    0    0  502  503  0.00000000000E+00  0.00000000000E+00  0.78397190777E+03  0.78397190777E+03  0.00000000000E+00 0.  1.
         21   -1    0    0  503  504 -0.00000000000E+00 -0.00000000000E+00 -0.20732298992E+03  0.20732298992E+03  0.00000000000E+00 0. -1.
         -6    2    1    2    0  504  0.27120825620E+03  0.10681360401E+03  0.22218345106E+02  0.33940235356E+03  0.17244488543E+03 0.  0.
        -24    2    3    3    0    0  0.10978628308E+03  0.98004129153E+02  0.51087118000E+02  0.17511554246E+03  0.79985763125E+02 0.  0.
          6    2    1    2  502    0 -0.27120825620E+03 -0.10681360401E+03  0.55443057274E+03  0.65189254413E+03  0.18057564859E+03 0.  0.
         24    2    5    5    0    0 -0.21569876078E+03 -0.10467807084E+03  0.30449474803E+03  0.39581468280E+03  0.80428587143E+02 0.  0.
          2    1    6    6  501    0 -0.26086188059E+02 -0.48501614366E+02  0.69825376407E+02  0.88929629450E+02  0.00000000000E+00 0. -1.
         -1    1    6    6    0  501 -0.18961257272E+03 -0.56176456474E+02  0.23466937162E+03  0.30688505335E+03  0.00000000000E+00 0.  1.
          5    1    5    5  502    0 -0.55509495422E+02 -0.21355331716E+01  0.24993582472E+03  0.25607786133E+03  0.47000000000E+01 0. -1.
         13    1    4    4    0    0  0.94632506397E+02  0.39152822324E+02  0.50855886987E+02  0.11434411224E+03  0.00000000000E+00 0. -1.
        -14    1    4    4    0    0  0.15153776681E+02  0.58851306829E+02  0.23123101245E+00  0.60771430220E+02  0.00000000000E+00 0.  1.
         -5    1    3    3    0  504  0.16142197312E+03  0.88094748592E+01 -0.28868772894E+02  0.16428681110E+03  0.47000000000E+01 0.  1.
<mgrwt>
<rscale>  2 0.34182800E+03</rscale>
<asrwt>0</asrwt>
<pdfrwt beam="1">  1       21 0.12061106E+00 0.34288574E+03</pdfrwt>
<pdfrwt beam="2">  1       21 0.31895845E-01 0.34288574E+03</pdfrwt>
<totfact> 0.44931590E+03</totfact>
</mgrwt>
</event>
<event>
12    1  0.2736842E-001  0.2884202E+03  0.7546771E-02  0.1091206E+00
         21   -1    0    0  502  503  0.00000000000E+00  0.00000000000E+00  0.55790508798E+03  0.55790508798E+03  0.00000000000E+00 0. -1.
         21   -1    0    0  503  504 -0.00000000000E+00 -0.00000000000E+00 -0.15149814464E+03  0.15149814464E+03  0.00000000000E+00 0.  1.
         -6    2    1    2    0  504  0.16924266208E+03 -0.15543935846E+03  0.15763352170E+03  0.32868605005E+03  0.17430352695E+03 0.  0.
        -24    2    3    3    0    0  0.17297385346E+03 -0.17860333287E+03  0.12651344427E+03  0.28942995856E+03  0.77103468426E+02 0.  0.
          6    2    1    2  502    0 -0.16924266208E+03  0.15543935846E+03  0.24877342164E+03  0.38071718257E+03  0.17393356481E+03 0.  0.
         24    2    5    5    0    0 -0.30520355989E+02  0.14930802702E+02  0.55653170944E+02  0.10448529868E+03  0.81642398336E+02 0.  0.
          4    1    6    6  501    0 -0.16134204427E+02  0.48362249065E+02  0.24436722418E+02  0.56536475745E+02  0.00000000000E+00 0. -1.
         -3    1    6    6    0  501 -0.14386151562E+02 -0.33431446364E+02  0.31216448526E+02  0.47948822940E+02  0.00000000000E+00 0.  1.
          5    1    5    5  502    0 -0.13872230609E+03  0.14050855576E+03  0.19312025069E+03  0.27623188389E+03  0.47000000000E+01 0. -1.
         13    1    4    4    0    0  0.10066161194E+02 -0.29702279604E+02  0.43507354961E+02  0.53632480369E+02  0.00000000000E+00 0. -1.
        -14    1    4    4    0    0  0.16290769226E+03 -0.14890105326E+03  0.83006089308E+02  0.23579747820E+03  0.00000000000E+00 0.  1.
         -5    1    3    3    0  504 -0.37311913786E+01  0.23163974405E+02  0.31120077432E+02  0.39256091485E+02  0.47000000000E+01 0.  1.
<mgrwt>
<rscale>  2 0.28836429E+03</rscale>
<asrwt>0</asrwt>
<pdfrwt beam="1">  1       21 0.85831551E-01 0.28842017E+03</pdfrwt>
<pdfrwt beam="2">  1       21 0.23307407E-01 0.28842017E+03</pdfrwt>
<totfact> 0.19301641E+04</totfact>
</mgrwt>
</event>
<event>
12    1  0.2736842E-001  0.1775390E+03  0.7546771E-02  0.1171269E+00
         21   -1    0    0  502  503  0.00000000000E+00  0.00000000000E+00  0.56624798086E+03  0.56624798086E+03  0.00000000000E+00 0.  1.
         21   -1    0    0  503  504 -0.00000000000E+00 -0.00000000000E+00 -0.57743925411E+02  0.57743925411E+02  0.00000000000E+00 0.  1.
         -6    2    1    2    0  504  0.14351461762E+02  0.22687926917E+02  0.17557427989E+03  0.24668258393E+03  0.17118780030E+03 0.  0.
        -24    2    3    3    0    0  0.17382362288E+02  0.84501503373E+02  0.83510966944E+02  0.13565174054E+03  0.63124183331E+02 0.  0.
          6    2    1    2  502    0 -0.14351461762E+02 -0.22687926917E+02  0.33292977556E+03  0.37730932234E+03  0.17549752930E+03 0.  0.
         24    2    5    5    0    0 -0.54047559314E+02 -0.58088811982E+02  0.28104053484E+03  0.30285405976E+03  0.80258024795E+02 0.  0.
          2    1    6    6  501    0 -0.63290761074E+02 -0.70150296253E+02  0.21105787570E+03  0.23124059202E+03  0.00000000000E+00 0. -1.
         -1    1    6    6    0  501  0.92432017602E+01  0.12061484271E+02  0.69982659140E+02  0.71613467741E+02  0.00000000000E+00 0.  1.
          5    1    5    5  502    0  0.39696097552E+02  0.35400885065E+02  0.51889240721E+02  0.74455262586E+02  0.47000000000E+01 0. -1.
         13    1    4    4    0    0  0.15467313317E+02  0.28034139785E+02  0.70852765677E+02  0.77751303390E+02  0.00000000000E+00 0. -1.
        -14    1    4    4    0    0  0.19150489704E+01  0.56467363587E+02  0.12658201267E+02  0.57900437152E+02  0.00000000000E+00 0.  1.
         -5    1    3    3    0  504 -0.30309005261E+01 -0.61813576455E+02  0.92063312948E+02  0.11103084339E+03  0.47000000000E+01 0.  1.
<mgrwt>
<rscale>  2 0.17646453E+03</rscale>
<asrwt>0</asrwt>
<pdfrwt beam="1">  1       21 0.87115070E-01 0.17753898E+03</pdfrwt>
<pdfrwt beam="2">  1       21 0.88836812E-02 0.17753898E+03</pdfrwt>
<totfact> 0.11384621E+05</totfact>
</mgrwt>
</event>
<event>
12    1  0.2736842E-001  0.2283351E+03  0.7546771E-02  0.1127831E+00
         21   -1    0    0  502  503  0.00000000000E+00  0.00000000000E+00  0.15474122476E+03  0.15474122476E+03  0.00000000000E+00 0. -1.
         21   -1    0    0  503  504 -0.00000000000E+00 -0.00000000000E+00 -0.44053609045E+03  0.44053609045E+03  0.00000000000E+00 0.  1.
         -6    2    1    2    0  504 -0.46662997410E+02  0.13974696994E+03 -0.28730105345E+03  0.36693723237E+03  0.17433985849E+03 0.  0.
        -24    2    3    3    0    0  0.10777726896E+02  0.29838884270E+02 -0.19183011347E+03  0.21036132591E+03  0.80290575997E+02 0.  0.
          6    2    1    2  502    0  0.46662997410E+02 -0.13974696994E+03  0.15061877559E+01  0.22834008284E+03  0.17444275249E+03 0.  0.
         24    2    5    5    0    0 -0.33664140953E+02 -0.32819829363E+02 -0.82099653592E+01  0.94167223514E+02  0.81176639913E+02 0.  0.
          2    1    6    6  501    0 -0.38633398475E+02 -0.21342927345E+02 -0.40274311407E+02  0.59750147988E+02  0.00000000000E+00 0. -1.
         -1    1    6    6    0  501  0.49692575216E+01 -0.11476902018E+02  0.32064346048E+02  0.34417075525E+02  0.00000000000E+00 0.  1.
          5    1    5    5  502    0  0.80327138362E+02 -0.10692714058E+03  0.97161531151E+01  0.13417285933E+03  0.47000000000E+01 0. -1.
         13    1    4    4    0    0 -0.31627628486E+02  0.14136589503E+02 -0.12469216089E+03  0.12941516539E+03  0.00000000000E+00 0. -1.
        -14    1    4    4    0    0  0.42405355382E+02  0.15702294767E+02 -0.67137952583E+02  0.80946160521E+02  0.00000000000E+00 0.  1.
         -5    1    3    3    0  504 -0.57440724306E+02  0.10990808567E+03 -0.95470939974E+02  0.15657590646E+03  0.47000000000E+01 0.  1.
<mgrwt>
<rscale>  2 0.22831546E+03</rscale>
<asrwt>0</asrwt>
<pdfrwt beam="1">  1       21 0.23806342E-01 0.22833512E+03</pdfrwt>
<pdfrwt beam="2">  1       21 0.67774783E-01 0.22833512E+03</pdfrwt>
<totfact> 0.32465198E+04</totfact>
</mgrwt>
</event>
<event>
12    1  0.2736842E-001  0.1862609E+03  0.7546771E-02  0.1162051E+00
         21   -1    0    0  502  503  0.00000000000E+00  0.00000000000E+00  0.23375075631E+03  0.23375075631E+03  0.00000000000E+00 0.  1.
         21   -1    0    0  503  504 -0.00000000000E+00 -0.00000000000E+00 -0.18008779188E+04  0.18008779188E+04  0.00000000000E+00 0.  1.
         -6    2    1    2    0  504 -0.64491709363E+02  0.11837049245E+02 -0.17583611160E+04  0.17681987834E+04  0.17433825491E+03 0.  0.
        -24    2    3    3    0    0 -0.51142629825E+02 -0.39741066924E+02 -0.60484965989E+03  0.61344804436E+03  0.79249423167E+02 0.  0.
          6    2    1    2  502    0  0.64491709363E+02 -0.11837049245E+02  0.19123395353E+03  0.26642989167E+03  0.17353721757E+03 0.  0.
         24    2    5    5    0    0 -0.26600668142E+02 -0.34635114289E+02  0.94243569545E+02  0.13134918397E+03  0.80396337232E+02 0.  0.
          4    1    6    6  501    0 -0.30321312582E+02 -0.43858712083E+02  0.10434160595E+03  0.11717567732E+03  0.00000000000E+00 0. -1.
         -3    1    6    6    0  501  0.37206444405E+01  0.92235977943E+01 -0.10098036409E+02  0.14173506646E+02  0.00000000000E+00 0.  1.
          5    1    5    5  502    0  0.91092377505E+02  0.22798065044E+02  0.96990383983E+02  0.13508070771E+03  0.47000000000E+01 0. -1.
         13    1    4    4    0    0 -0.20013303872E+02  0.23049779995E+02 -0.23946366821E+03  0.24140147697E+03  0.00000000000E+00 0. -1.
        -14    1    4    4    0    0 -0.31129325953E+02 -0.62790846919E+02 -0.36538599168E+03  0.37204656739E+03  0.00000000000E+00 0.  1.
         -5    1    3    3    0  504 -0.13349079538E+02  0.51578116169E+02 -0.11535114561E+04  0.11547507391E+04  0.47000000000E+01 0.  1.
<mgrwt>
<rscale>  2 0.18607323E+03</rscale>
<asrwt>0</asrwt>
<pdfrwt beam="1">  1       21 0.35961654E-01 0.18626090E+03</pdfrwt>
<pdfrwt beam="2">  1       21 0.27705815E+00 0.18626090E+03</pdfrwt>
<totfact> 0.34830176E+02</totfact>
</mgrwt>
</event>
<event>
12    1  0.2736842E-001  0.2400417E+03  0.7546771E-02  0.1120087E+00
         21   -1    0    0  502  503  0.00000000000E+00  0.00000000000E+00  0.29714757909E+03  0.29714757909E+03  0.00000000000E+00 0.  1.
         21   -1    0    0  503  504 -0.00000000000E+00 -0.00000000000E+00 -0.21576747496E+03  0.21576747496E+03  0.00000000000E+00 0.  1.
         -6    2    1    2    0  504  0.16353937724E+03  0.32539290025E+02 -0.43634523719E+02  0.24397539493E+03  0.17267335743E+03 0.  0.
        -24    2    3    3    0    0  0.10519877761E+02 -0.75022519034E+01 -0.18369704679E+02  0.83729666804E+02  0.80661387550E+02 0.  0.
          6    2    1    2  502    0 -0.16353937724E+03 -0.32539290025E+02  0.12501462786E+03  0.26893965912E+03  0.16998808712E+03 0.  0.
         24    2    5    5    0    0 -0.18409513953E+03 -0.70253146224E+01  0.86566808523E+02  0.21820675938E+03  0.78612989112E+02 0.  0.
          2    1    6    6  501    0 -0.95188877840E+02 -0.89146334104E+01  0.87021461164E+02  0.12927926306E+03  0.00000000000E+00 0. -1.
         -1    1    6    6    0  501 -0.88906261694E+02  0.18893187880E+01 -0.45465264153E+00  0.88927496326E+02  0.00000000000E+00 0.  1.
          5    1    5    5  502    0  0.20555762289E+02 -0.25513975403E+02  0.38447819333E+02  0.50732899736E+02  0.47000000000E+01 0. -1.
         11    1    4    4    0    0 -0.64582990601E+01  0.35201719663E+00  0.30616941568E+02  0.31292661342E+02  0.00000000000E+00 0. -1.
        -12    1    4    4    0    0  0.16978176822E+02 -0.78542691001E+01 -0.48986646248E+02  0.52437005462E+02  0.00000000000E+00 0.  1.
         -5    1    3    3    0  504  0.15301949948E+03  0.40041541929E+02 -0.25264819040E+02  0.16024572813E+03  0.47000000000E+01 0.  1.
<mgrwt>
<rscale>  2 0.23955917E+03</rscale>
<asrwt>0</asrwt>
<pdfrwt beam="1">  1       21 0.45715012E-01 0.24004171E+03</pdfrwt>
<pdfrwt beam="2">  1       21 0.33194996E-01 0.24004171E+03</pdfrwt>
<totfact> 0.39184687E+04</totfact>
</mgrwt>
</event>
<event>
12    1  0.2736842E-001  0.1854583E+03  0.7546771E-02  0.1163061E+00
         21   -1    0    0  502  503  0.00000000000E+00  0.00000000000E+00  0.83637734417E+02  0.83637734417E+02  0.00000000000E+00 0.  1.
         21   -1    0    0  503  504 -0.00000000000E+00 -0.00000000000E+00 -0.46674742339E+03  0.46674742339E+03  0.00000000000E+00 0.  1.
         -6    2    1    2    0  504 -0.40159328158E+02 -0.44475172645E+02 -0.29078627921E+03  0.34489337742E+03  0.17551059509E+03 0.  0.
        -24    2    3    3    0    0 -0.59910384073E+02  0.31777585170E+02 -0.19256919428E+03  0.21890419909E+03  0.78975216072E+02 0.  0.
          6    2    1    2  502    0  0.40159328158E+02  0.44475172645E+02 -0.92323409762E+02  0.20549178039E+03  0.17352938425E+03 0.  0.
         24    2    5    5    0    0  0.19528076772E+02  0.66580214163E+02 -0.12288399637E+03  0.16224457414E+03  0.80053448232E+02 0.  0.
          4    1    6    6  501    0 -0.14155916588E+02  0.35304872691E+02 -0.10708583461E+03  0.11364066167E+03  0.00000000000E+00 0. -1.
         -3    1    6    6    0  501  0.33683993360E+02  0.31275341472E+02 -0.15798161763E+02  0.48603912476E+02  0.00000000000E+00 0.  1.
          5    1    5    5  502    0  0.20631251386E+02 -0.22105041518E+02  0.30560586609E+02  0.43247206247E+02  0.47000000000E+01 0. -1.
         13    1    4    4    0    0  0.15326750633E+02  0.15277268755E+02 -0.18185240663E+02  0.28266715471E+02  0.00000000000E+00 0. -1.
        -14    1    4    4    0    0 -0.75237134706E+02  0.16500316415E+02 -0.17438395361E+03  0.19063748361E+03  0.00000000000E+00 0.  1.
         -5    1    3    3    0  504  0.19751055915E+02 -0.76252757816E+02 -0.98217084936E+02  0.12598917834E+03  0.47000000000E+01 0.  1.
<mgrwt>
<rscale>  2 0.18498806E+03</rscale>
<asrwt>0</asrwt>
<pdfrwt beam="1">  1       21 0.12867344E-01 0.18545830E+03</pdfrwt>
<pdfrwt beam="2">  1       21 0.71807297E-01 0.18545830E+03</pdfrwt>
<totfact> 0.90945563E+04</totfact>
</mgrwt>
</event>
<event>
12    1  0.2736842E-001  0.1870460E+03  0.7546771E-02  0.1161318E+00
         21   -1    0    0  502  503  0.00000000000E+00  0.00000000000E+00  0.12328703440E+04  0.12328703440E+04  0.00000000000E+00 0. -1.
         21   -1    0    0  503  504 -0.00000000000E+00 -0.00000000000E+00 -0.34408279207E+02  0.34408279207E+02  0.00000000000E+00 0. -1.
         -6    2    1    2    0  504 -0.55612901513E+02 -0.44055675499E+02  0.33064824386E+03  0.37953597156E+03  0.17229508172E+03 0.  0.
        -24    2    3    3    0    0 -0.79002853101E+02 -0.66901482046E+01  0.31296270751E+03  0.33180609977E+03  0.76572989179E+02 0.  0.
          6    2    1    2  502    0  0.55612901513E+02  0.44055675499E+02  0.86781382092E+03  0.88774265163E+03  0.17306787797E+03 0.  0.
         24    2    5    5    0    0 -0.16233685116E+02  0.72184378795E+02  0.48650942078E+03  0.49868187035E+03  0.80734591341E+02 0.  0.
          4    1    6    6  501    0 -0.36109018847E+02  0.41107625440E+02  0.41118734829E+03  0.41481168438E+03  0.00000000000E+00 0. -1.
         -3    1    6    6    0  501  0.19875333730E+02  0.31076753355E+02  0.75322072491E+02  0.83870185968E+02  0.00000000000E+00 0.  1.
          5    1    5    5  502    0  0.71846586629E+02 -0.28128703295E+02  0.38130440014E+03  0.38906078128E+03  0.47000000000E+01 0. -1.
         11    1    4    4    0    0  0.32795565103E+01 -0.22145672156E+02  0.35339147234E+02  0.41833498698E+02  0.00000000000E+00 0. -1.
        -12    1    4    4    0    0 -0.82282409611E+02  0.15455523951E+02  0.27762356028E+03  0.28997260107E+03  0.00000000000E+00 0.  1.
         -5    1    3    3    0  504  0.23389951588E+02 -0.37365527295E+02  0.17685536347E+02  0.47729871791E+02  0.47000000000E+01 0.  1.
<mgrwt>
<rscale>  2 0.18686699E+03</rscale>
<asrwt>0</asrwt>
<pdfrwt beam="1">  1       21 0.18967233E+00 0.18704595E+03</pdfrwt>
<pdfrwt beam="2">  1       21 0.52935824E-02 0.18704595E+03</pdfrwt>
<totfact> 0.38412785E+04</totfact>
</mgrwt>
</event>
<event>
12    1  0.2736842E-001  0.1761268E+03  0.7546771E-02  0.1171656E+00
         21   -1    0    0  502  503  0.00000000000E+00  0.00000000000E+00  0.12195082816E+03  0.12195082816E+03  0.00000000000E+00 0. -1.
         21   -1    0    0  503  504 -0.00000000000E+00 -0.00000000000E+00 -0.44259604075E+03  0.44259604075E+03  0.00000000000E+00 0. -1.
         -6    2    1    2    0  504  0.30698069542E+02 -0.44278334056E+01 -0.34449274639E+03  0.38681291471E+03  0.17316755322E+03 0.  0.
        -24    2    3    3    0    0 -0.31877648517E+02  0.13331123153E+02 -0.28637079000E+03  0.29945530002E+03  0.80444664385E+02 0.  0.
          6    2    1    2  502    0 -0.30698069542E+02  0.44278334056E+01  0.23847533810E+02  0.17773395420E+03  0.17337438226E+03 0.  0.
         24    2    5    5    0    0  0.27076447971E+02 -0.34261831499E+02 -0.20059353624E+02  0.95364725672E+02  0.82371391285E+02 0.  0.
          2    1    6    6  501    0  0.49854977140E+02 -0.66881727454E+01  0.66327027076E+01  0.50736999768E+02  0.00000000000E+00 0. -1.
         -1    1    6    6    0  501 -0.22778529168E+02 -0.27573658754E+02 -0.26692056332E+02  0.44627725904E+02  0.00000000000E+00 0.  1.
          5    1    5    5  502    0 -0.57774517513E+02  0.38689664905E+02  0.43906887434E+02  0.82369228529E+02  0.47000000000E+01 0. -1.
         11    1    4    4    0    0  0.36701669772E+01  0.24123027474E+02 -0.23387355086E+03  0.23514299558E+03  0.00000000000E+00 0. -1.
        -12    1    4    4    0    0 -0.35547815494E+02 -0.10791904321E+02 -0.52497239144E+02  0.64312304445E+02  0.00000000000E+00 0.  1.
         -5    1    3    3    0  504  0.62575718059E+02 -0.17758956558E+02 -0.58121956391E+02  0.87357614684E+02  0.47000000000E+01 0.  1.
<mgrwt>
<rscale>  2 0.17607589E+03</rscale>
<asrwt>0</asrwt>
<pdfrwt beam="1">  1       21 0.18761666E-01 0.17612681E+03</pdfrwt>
<pdfrwt beam="2">  1       21 0.68091699E-01 0.17612681E+03</pdfrwt>
<totfact> 0.51602709E+04</totfact>
</mgrwt>
</event>
<event>
12    1  0.2736842E-001  0.1751618E+03  0.7546771E-02  0.1172912E+00
         21   -1    0    0  502  503  0.00000000000E+00  0.00000000000E+00  0.37784825518E+03  0.37784825518E+03  0.00000000000E+00 0. -1.
         21   -1    0    0  503  504 -0.00000000000E+00 -0.00000000000E+00 -0.13454304836E+03  0.13454304836E+03  0.00000000000E+00 0. -1.
         -6    2    1    2    0  504 -0.77460058074E+01 -0.97411289920E+01 -0.40895445295E+02  0.17854753911E+03  0.17335482710E+03 0.  0.
        -24    2    3    3    0    0  0.47615535279E+02  0.18860779801E+02 -0.63698570060E+02  0.11202655057E+03  0.76612479333E+02 0.  0.
          6    2    1    2  502    0  0.77460058074E+01  0.97411289920E+01  0.28420065211E+03  0.33384376442E+03  0.17471908363E+03 0.  0.
         24    2    5    5    0    0  0.93139495168E+01 -0.13568291320E+02  0.41973876020E+02  0.90447608786E+02  0.78409919539E+02 0.  0.
          2    1    6    6  501    0 -0.24484979881E+02 -0.13407201366E+02  0.48560583782E+02  0.56012477052E+02  0.00000000000E+00 0. -1.
         -1    1    6    6    0  501  0.33798929398E+02 -0.16108995399E+00 -0.65867077624E+01  0.34435131734E+02  0.00000000000E+00 0.  1.
          5    1    5    5  502    0 -0.15679437094E+01  0.23309420312E+02  0.24222677609E+03  0.24339615564E+03  0.47000000000E+01 0. -1.
         13    1    4    4    0    0  0.37386082678E+02 -0.15772950757E+02 -0.21108922847E+01  0.40632019637E+02  0.00000000000E+00 0. -1.
        -14    1    4    4    0    0  0.10229452601E+02  0.34633730558E+02 -0.61587677776E+02  0.71394530930E+02  0.00000000000E+00 0.  1.
         -5    1    3    3    0  504 -0.55361541086E+02 -0.28601908793E+02  0.22803124765E+02  0.66520988546E+02  0.47000000000E+01 0.  1.
<mgrwt>
<rscale>  2 0.17482059E+03</rscale>
<asrwt>0</asrwt>
<pdfrwt beam="1">  1       21 0.58130500E-01 0.17516178E+03</pdfrwt>
<pdfrwt beam="2">  1       21 0.20698931E-01 0.17516178E+03</pdfrwt>
<totfact> 0.60501475E+04</totfact>
</mgrwt>
</event>
<event>
12    1  0.2736842E-001  0.1737337E+03  0.7546771E-02  0.1174156E+00
         21   -1    0    0  502  503  0.00000000000E+00  0.00000000000E+00  0.18399797244E+03  0.18399797244E+03  0.00000000000E+00 0.  1.
         21   -1    0    0  503  504 -0.00000000000E+00 -0.00000000000E+00 -0.26536738005E+03  0.26536738005E+03  0.00000000000E+00 0.  1.
         -6    2    1    2    0  504 -0.15384319981E+01 -0.80881172541E+01 -0.17993605871E+03  0.25012071091E+03  0.17353846948E+03 0.  0.
        -24    2    3    3    0    0  0.64973093752E+02  0.77495449548E+01 -0.97215942077E+02  0.14269947327E+03  0.81428753629E+02 0.  0.
          6    2    1    2  502    0  0.15384319981E+01  0.80881172541E+01  0.98566651105E+02  0.19924464157E+03  0.17296027889E+03 0.  0.
         24    2    5    5    0    0  0.80944343848E+01  0.69319230798E+02  0.39191750319E+02  0.11357259668E+03  0.80573356620E+02 0.  0.
          2    1    6    6  501    0  0.27062290618E+02 -0.23685079677E+01 -0.44516749031E+01  0.27528073178E+02  0.00000000000E+00 0. -1.
         -1    1    6    6    0  501 -0.18967856233E+02  0.71687738766E+02  0.43643425222E+02  0.86044523501E+02  0.00000000000E+00 0.  1.
          5    1    5    5  502    0 -0.65560023867E+01 -0.61231113544E+02  0.59374900786E+02  0.85672044895E+02  0.47000000000E+01 0. -1.
         13    1    4    4    0    0 -0.15737057118E+02 -0.58304339509E+01 -0.16299315671E+01  0.16861364230E+02  0.00000000000E+00 0. -1.
        -14    1    4    4    0    0  0.80710150870E+02  0.13579978906E+02 -0.95586010510E+02  0.12583810904E+03  0.00000000000E+00 0.  1.
         -5    1    3    3    0  504 -0.66511525750E+02 -0.15837662209E+02 -0.82720116634E+02  0.10742123765E+03  0.47000000000E+01 0.  1.
<mgrwt>
<rscale>  2 0.17358910E+03</rscale>
<asrwt>0</asrwt>
<pdfrwt beam="1">  1       21 0.28307381E-01 0.17373366E+03</pdfrwt>
<pdfrwt beam="2">  1       21 0.40825750E-01 0.17373366E+03</pdfrwt>
<totfact> 0.69507474E+04</totfact>
</mgrwt>
</event>
<event>
12    1  0.2736842E-001  0.2669299E+03  0.7546771E-02  0.1104646E+00
         21   -1    0    0  502  503  0.00000000000E+00  0.00000000000E+00  0.20235784923E+03  0.20235784923E+03  0.00000000000E+00 0. -1.
         21   -1    0    0  503  504 -0.00000000000E+00 -0.00000000000E+00 -0.43781113726E+03  0.43781113726E+03  0.00000000000E+00 0. -1.
         -6    2    1    2    0  504 -0.24326079296E+02 -0.18693872529E+03 -0.26861620734E+03  0.37118691929E+03  0.17345667200E+03 0.  0.
        -24    2    3    3    0    0  0.83753033984E+00 -0.19830070263E+03 -0.26848423187E+03  0.34317961316E+03  0.79778405636E+02 0.  0.
          6    2    1    2  502    0  0.24326079296E+02  0.18693872529E+03  0.33162919311E+02  0.26898206720E+03  0.18898076122E+03 0.  0.
         24    2    5    5    0    0  0.25641214072E+02  0.13035347563E+03  0.97284440699E+02  0.18332414541E+03  0.80585230799E+02 0.  0.
          4    1    6    6  501    0  0.35038193778E+02  0.13102229479E+03  0.10469775620E+03  0.17133632688E+03  0.00000000000E+00 0. -1.
         -3    1    6    6    0  501 -0.93969797057E+01 -0.66881916251E+00 -0.74133154965E+01  0.11987818539E+02  0.00000000000E+00 0.  1.
          5    1    5    5  502    0 -0.13151347761E+01  0.56585249662E+02 -0.64121521389E+02  0.85657921782E+02  0.47000000000E+01 0. -1.
         11    1    4    4    0    0 -0.42162585404E+01 -0.12261637321E+02 -0.69607321279E+02  0.70804687426E+02  0.00000000000E+00 0. -1.
        -12    1    4    4    0    0  0.50537888802E+01 -0.18603906531E+03 -0.19887691059E+03  0.27237492573E+03  0.00000000000E+00 0.  1.
         -5    1    3    3    0  504 -0.25163609636E+02  0.11361977339E+02 -0.13197546447E+00  0.28007306127E+02  0.47000000000E+01 0.  1.
<mgrwt>
<rscale>  2 0.26419928E+03</rscale>
<asrwt>0</asrwt>
<pdfrwt beam="1">  1       21 0.31131977E-01 0.26692990E+03</pdfrwt>
<pdfrwt beam="2">  1       21 0.67355559E-01 0.26692990E+03</pdfrwt>
<totfact> 0.19212780E+04</totfact>
</mgrwt>
</event>
<event>
12    1  0.2736842E-001  0.1795214E+03  0.7546771E-02  0.1168478E+00
         21   -1    0    0  502  503  0.00000000000E+00  0.00000000000E+00  0.21878339602E+03  0.21878339602E+03  0.00000000000E+00 0. -1.
         21   -1    0    0  503  504 -0.00000000000E+00 -0.00000000000E+00 -0.24913112206E+03  0.24913112206E+03  0.00000000000E+00 0. -1.
         -6    2    1    2    0  504 -0.21760984817E+02  0.41571597330E+02 -0.16524444958E+03  0.24335930403E+03  0.17238411927E+03 0.  0.
        -24    2    3    3    0    0 -0.45499332200E+02  0.25138111219E+02 -0.22682527063E+02  0.97827313203E+02  0.79709298756E+02 0.  0.
          6    2    1    2  502    0  0.21760984817E+02 -0.41571597330E+02  0.13489672354E+03  0.22455521406E+03  0.17328063935E+03 0.  0.
         24    2    5    5    0    0  0.89633206463E+01  0.36686873723E+02  0.10988448838E+03  0.14127334083E+03  0.80357253712E+02 0.  0.
          4    1    6    6  501    0  0.32976168064E+02  0.22691558393E+02  0.10587822561E+03  0.11319246062E+03  0.00000000000E+00 0. -1.
         -3    1    6    6    0  501 -0.24012847418E+02  0.13995315330E+02  0.40062627650E+01  0.28080880215E+02  0.00000000000E+00 0.  1.
          5    1    5    5  502    0  0.12797664171E+02 -0.78258471053E+02  0.25012235164E+02  0.83281873224E+02  0.47000000000E+01 0. -1.
         13    1    4    4    0    0 -0.32078178144E+02 -0.26095163770E+02 -0.16435113357E+02  0.44498090254E+02  0.00000000000E+00 0. -1.
        -14    1    4    4    0    0 -0.13421154057E+02  0.51233274989E+02 -0.62474137055E+01  0.53329222949E+02  0.00000000000E+00 0.  1.
         -5    1    3    3    0  504  0.23738347384E+02  0.16433486111E+02 -0.14256192252E+03  0.14553199083E+03  0.47000000000E+01 0.  1.
<mgrwt>
<rscale>  2 0.17930467E+03</rscale>
<asrwt>0</asrwt>
<pdfrwt beam="1">  1       21 0.33658984E-01 0.17952136E+03</pdfrwt>
<pdfrwt beam="2">  1       21 0.38327865E-01 0.17952136E+03</pdfrwt>
<totfact> 0.56147078E+04</totfact>
</mgrwt>
</event>
<event>
12    1  0.2736842E-001  0.1858044E+03  0.7546771E-02  0.1163278E+00
         21   -1    0    0  502  503  0.00000000000E+00  0.00000000000E+00  0.40307142843E+03  0.40307142843E+03  0.00000000000E+00 0.  1.
         21   -1    0    0  503  504 -0.00000000000E+00 -0.00000000000E+00 -0.23421272369E+03  0.23421272369E+03  0.00000000000E+00 0.  1.
         -6    2    1    2    0  504 -0.39697143832E+02 -0.46546397143E+02 -0.17130717628E+03  0.24968111400E+03  0.17103239380E+03 0.  0.
        -24    2    3    3    0    0 -0.26841904228E+01  0.39211063569E+02 -0.75261675731E+02  0.11562467453E+03  0.78485878620E+02 0.  0.
          6    2    1    2  502    0  0.39697143832E+02  0.46546397143E+02  0.34016588101E+03  0.38760303812E+03  0.17544474412E+03 0.  0.
         24    2    5    5    0    0 -0.31354559155E+02  0.40342605773E+02  0.27821383112E+03  0.29301457154E+03  0.76445857213E+02 0.  0.
          4    1    6    6  501    0  0.57427175978E+01  0.15680025443E+02  0.21518766769E+03  0.21583459947E+03  0.00000000000E+00 0. -1.
         -3    1    6    6    0  501 -0.37097276753E+02  0.24662580330E+02  0.63026163432E+02  0.77179972065E+02  0.00000000000E+00 0.  1.
          5    1    5    5  502    0  0.71051702987E+02  0.62037913698E+01  0.61952049886E+02  0.94588466579E+02  0.47000000000E+01 0. -1.
         11    1    4    4    0    0  0.35260401004E+02  0.94436204425E+01 -0.47741398916E+02  0.60097579123E+02  0.00000000000E+00 0. -1.
        -12    1    4    4    0    0 -0.37944591426E+02  0.29767443126E+02 -0.27520276815E+02  0.55527095411E+02  0.00000000000E+00 0.  1.
         -5    1    3    3    0  504 -0.37012953409E+02 -0.85757460712E+02 -0.96045500544E+02  0.13405643947E+03  0.47000000000E+01 0.  1.
<mgrwt>
<rscale>  2 0.18475545E+03</rscale>
<asrwt>0</asrwt>
<pdfrwt beam="1">  1       21 0.62010989E-01 0.18580444E+03</pdfrwt>
<pdfrwt beam="2">  1       21 0.36032727E-01 0.18580444E+03</pdfrwt>
<totfact> 0.18001548E+04</totfact>
</mgrwt>
</event>
<event>
12    1  0.2736842E-001  0.2197169E+03  0.7546771E-02  0.1134100E+00
         21   -1    0    0  502  503  0.00000000000E+00  0.00000000000E+00  0.48082678468E+02  0.48082678468E+02  0.00000000000E+00 0. -1.
         21   -1    0    0  503  504 -0.00000000000E+00 -0.00000000000E+00 -0.14505165227E+04  0.14505165227E+04  0.00000000000E+00 0. -1.
         -6    2    1    2    0  504 -0.81519276001E+02 -0.10804831771E+03 -0.11170485876E+04  0.11384520457E+04  0.17307709827E+03 0.  0.
        -24    2    3    3    0    0 -0.93902559896E+02 -0.79685382651E+02 -0.10800287499E+04  0.10899715322E+04  0.80052416558E+02 0.  0.
          6    2    1    2  502    0  0.81519276001E+02  0.10804831771E+03 -0.28538525658E+03  0.36014715543E+03  0.17303582742E+03 0.  0.
         24    2    5    5    0    0 -0.14384656062E+02  0.51225471298E+02 -0.19093683838E+03  0.21396578260E+03  0.80582334521E+02 0.  0.
          2    1    6    6  501    0 -0.24869235688E+02  0.25289422473E+02 -0.18074457989E+03  0.18419184817E+03  0.00000000000E+00 0. -1.
         -1    1    6    6    0  501  0.10484579625E+02  0.25936048825E+02 -0.10192258483E+02  0.29773934431E+02  0.00000000000E+00 0.  1.
          5    1    5    5  502    0  0.95903932063E+02  0.56822846414E+02 -0.94448418201E+02  0.14618137282E+03  0.47000000000E+01 0. -1.
         13    1    4    4    0    0 -0.12376651244E+02 -0.54851634093E+02 -0.29341358661E+03  0.29875310218E+03  0.00000000000E+00 0. -1.
        -14    1    4    4    0    0 -0.81525908652E+02 -0.24833748558E+02 -0.78661516334E+03  0.79121843005E+03  0.00000000000E+00 0.  1.
         -5    1    3    3    0  504  0.12383283895E+02 -0.28362935062E+02 -0.37019837665E+02  0.48480513467E+02  0.47000000000E+01 0.  1.
<mgrwt>
<rscale>  2 0.21970877E+03</rscale>
<asrwt>0</asrwt>
<pdfrwt beam="1">  1       21 0.73973350E-02 0.21971689E+03</pdfrwt>
<pdfrwt beam="2">  1       21 0.22315639E+00 0.21971689E+03</pdfrwt>
<totfact> 0.12936735E+04</totfact>
</mgrwt>
</event>
<event>
12    1  0.2736842E-001  0.2088775E+03  0.7546771E-02  0.1142654E+00
         21   -1    0    0  502  503  0.00000000000E+00  0.00000000000E+00  0.32733587666E+02  0.32733587666E+02  0.00000000000E+00 0. -1.
         21   -1    0    0  503  504 -0.00000000000E+00 -0.00000000000E+00 -0.16105377084E+04  0.16105377084E+04  0.00000000000E+00 0. -1.
         -6    2    1    2    0  504  0.92543779151E+01 -0.11489619700E+03 -0.11323436449E+04  0.11512704174E+04  0.17301636942E+03 0.  0.
        -24    2    3    3    0    0  0.10838245861E+02 -0.14970517483E+03 -0.85953433237E+03  0.87620463506E+03  0.80038659633E+02 0.  0.
          6    2    1    2  502    0 -0.92543779151E+01  0.11489619700E+03 -0.44546047577E+03  0.49200087867E+03  0.17419256454E+03 0.  0.
         24    2    5    5    0    0 -0.14245231953E+02 -0.96488482020E+01 -0.21451288757E+03  0.22952182159E+03  0.79802636216E+02 0.  0.
          2    1    6    6  501    0 -0.30454269845E+02  0.51646942002E+00 -0.26017654546E+02  0.40058053379E+02  0.00000000000E+00 0. -1.
         -1    1    6    6    0  501  0.16209037892E+02 -0.10165317622E+02 -0.18849523302E+03  0.18946376821E+03  0.00000000000E+00 0.  1.
          5    1    5    5  502    0  0.49908540377E+01  0.12454504521E+03 -0.23094758820E+03  0.26247905708E+03  0.47000000000E+01 0. -1.
         11    1    4    4    0    0 -0.95114195237E+00 -0.49675959208E+02 -0.12054518193E+03  0.13038307589E+03  0.00000000000E+00 0. -1.
        -12    1    4    4    0    0  0.11789387813E+02 -0.10002921562E+03 -0.73898915044E+03  0.74582155917E+03  0.00000000000E+00 0.  1.
         -5    1    3    3    0  504 -0.15838679454E+01  0.34808977824E+02 -0.27280931257E+03  0.27506578231E+03  0.47000000000E+01 0.  1.
<mgrwt>
<rscale>  2 0.20863215E+03</rscale>
<asrwt>0</asrwt>
<pdfrwt beam="1">  1       21 0.50359362E-02 0.20887755E+03</pdfrwt>
<pdfrwt beam="2">  1       21 0.24777505E+00 0.20887755E+03</pdfrwt>
<totfact> 0.17958965E+04</totfact>
</mgrwt>
</event>
<event>
12    1  0.2736842E-001  0.2298919E+03  0.7546771E-02  0.1126911E+00
         21   -1    0    0  502  503  0.00000000000E+00  0.00000000000E+00  0.96817746757E+02  0.96817746757E+02  0.00000000000E+00 0. -1.
         21   -1    0    0  503  504 -0.00000000000E+00 -0.00000000000E+00 -0.72090458196E+03  0.72090458196E+03  0.00000000000E+00 0.  1.
         -6    2    1    2    0  504 -0.15022811871E+03 -0.42559749037E+01 -0.51444330264E+03  0.56302249427E+03  0.17249874332E+03 0.  0.
        -24    2    3    3    0    0 -0.10293609091E+03 -0.65447196874E+02 -0.26958742178E+03  0.30620077803E+03  0.78755089312E+02 0.  0.
          6    2    1    2  502    0  0.15022811871E+03  0.42559749037E+01 -0.10964353256E+03  0.25469983445E+03  0.17396465291E+03 0.  0.
         24    2    5    5    0    0  0.17623947912E+03  0.26503370634E+02 -0.10446529294E+03  0.21976501439E+03  0.74972538080E+02 0.  0.
          4    1    6    6  501    0  0.14555052032E+03  0.50608166858E+02 -0.87560498743E+02  0.17723707698E+03  0.00000000000E+00 0. -1.
         -3    1    6    6    0  501  0.30688958799E+02 -0.24104796223E+02 -0.16904794192E+02  0.42527937404E+02  0.00000000000E+00 0.  1.
          5    1    5    5  502    0 -0.26011360407E+02 -0.22247395731E+02 -0.51782396254E+01  0.34934820060E+02  0.47000000000E+01 0. -1.
         13    1    4    4    0    0 -0.20503194372E+02 -0.57013858992E+02 -0.90990103297E+02  0.10931678734E+03  0.00000000000E+00 0. -1.
        -14    1    4    4    0    0 -0.82432896541E+02 -0.84333378822E+01 -0.17859731848E+03  0.19688399068E+03  0.00000000000E+00 0.  1.
         -5    1    3    3    0  504 -0.47292027797E+02  0.61191221970E+02 -0.24485588087E+03  0.25682171624E+03  0.47000000000E+01 0.  1.
<mgrwt>
<rscale>  2 0.22961461E+03</rscale>
<asrwt>0</asrwt>
<pdfrwt beam="1">  1       21 0.14895038E-01 0.22989193E+03</pdfrwt>
<pdfrwt beam="2">  1       21 0.11090840E+00 0.22989193E+03</pdfrwt>
<totfact> 0.24899733E+04</totfact>
</mgrwt>
</event>
<event>
12    1  0.2736842E-001  0.2300091E+03  0.7546771E-02  0.1126886E+00
         21   -1    0    0  502  503  0.00000000000E+00  0.00000000000E+00  0.59027110869E+03  0.59027110869E+03  0.00000000000E+00 0. -1.
         21   -1    0    0  503  504 -0.00000000000E+00 -0.00000000000E+00 -0.92928777953E+02  0.92928777953E+02  0.00000000000E+00 0. -1.
         -6    2    1    2    0  504  0.13010946568E+03 -0.75179729534E+02  0.17980870788E+03  0.29195097934E+03  0.17413712447E+03 0.  0.
        -24    2    3    3    0    0  0.20429016168E+02 -0.46923017556E+02  0.26055277378E+02  0.10092624228E+03  0.82994666240E+02 0.  0.
          6    2    1    2  502    0 -0.13010946568E+03  0.75179729534E+02  0.31753362286E+03  0.39124890730E+03  0.17224297090E+03 0.  0.
         24    2    5    5    0    0 -0.54917867525E+02 -0.14140662616E+02  0.82628128989E+02  0.12888543816E+03  0.81043926096E+02 0.  0.
          2    1    6    6  501    0 -0.46528865658E+01  0.59002970897E+01 -0.15274835827E+02  0.17023027600E+02  0.00000000000E+00 0. -1.
         -1    1    6    6    0  501 -0.50264980959E+02 -0.20040959706E+02  0.97902964816E+02  0.11186241056E+03  0.00000000000E+00 0.  1.
          5    1    5    5  502    0 -0.75191598158E+02  0.89320392150E+02  0.23490549387E+03  0.26236346914E+03  0.47000000000E+01 0. -1.
         11    1    4    4    0    0  0.14569044838E+02 -0.66918458821E+02  0.36514374031E+02  0.77612091257E+02  0.00000000000E+00 0. -1.
        -12    1    4    4    0    0  0.58599713300E+01  0.19995441264E+02 -0.10459096653E+02  0.23314151028E+02  0.00000000000E+00 0.  1.
         -5    1    3    3    0  504  0.10968044952E+03 -0.28256711978E+02  0.15375343050E+03  0.19102473706E+03  0.47000000000E+01 0.  1.
<mgrwt>
<rscale>  2 0.22965063E+03</rscale>
<asrwt>0</asrwt>
<pdfrwt beam="1">  1       21 0.90810937E-01 0.23000914E+03</pdfrwt>
<pdfrwt beam="2">  1       21 0.14296735E-01 0.23000914E+03</pdfrwt>
<totfact> 0.43234005E+04</totfact>
</mgrwt>
</event>
<event>
12    1  0.2736842E-001  0.1848974E+03  0.7546771E-02  0.1163196E+00
         21   -1    0    0  502  503  0.00000000000E+00  0.00000000000E+00  0.56583270665E+03  0.56583270665E+03  0.00000000000E+00 0. -1.
         21   -1    0    0  503  504 -0.00000000000E+00 -0.00000000000E+00 -0.62033762600E+02  0.62033762600E+02  0.00000000000E+00 0. -1.
         -6    2    1    2    0  504  0.58498556875E+02  0.23064793386E+02  0.30378151825E+03  0.35562656879E+03  0.17387633466E+03 0.  0.
        -24    2    3    3    0    0  0.52096200810E+02  0.57780620376E+02  0.28738534904E+03  0.31642066144E+03  0.10714047748E+03 0.  0.
          6    2    1    2  502    0 -0.58498556875E+02 -0.23064793386E+02  0.20001742580E+03  0.27223990045E+03  0.17364770924E+03 0.  0.
         24    2    5    5    0    0 -0.33322179924E+02 -0.61968508754E+01  0.25126199928E+02  0.94680309531E+02  0.84760052232E+02 0.  0.
          4    1    6    6  501    0  0.31700154276E+01 -0.40015049845E+02  0.30700173362E+01  0.40257647949E+02  0.00000000000E+00 0. -1.
         -3    1    6    6    0  501 -0.36492195352E+02  0.33818198970E+02  0.22056182592E+02  0.54422661582E+02  0.00000000000E+00 0.  1.
          5    1    5    5  502    0 -0.25176376951E+02 -0.16867942510E+02  0.17489122587E+03  0.17755959092E+03  0.47000000000E+01 0. -1.
         13    1    4    4    0    0  0.44162051737E+02 -0.21349663940E+02  0.74821449939E+02  0.89467001374E+02  0.00000000000E+00 0. -1.
        -14    1    4    4    0    0  0.79341490726E+01  0.79130284316E+02  0.21256389910E+03  0.22695366007E+03  0.00000000000E+00 0.  1.
         -5    1    3    3    0  504  0.64023560653E+01 -0.34715826990E+02  0.16396169209E+02  0.39205907355E+02  0.47000000000E+01 0.  1.
<mgrwt>
<rscale>  2 0.18484362E+03</rscale>
<asrwt>0</asrwt>
<pdfrwt beam="1">  1       21 0.87051182E-01 0.18489739E+03</pdfrwt>
<pdfrwt beam="2">  1       21 0.95436562E-02 0.18489739E+03</pdfrwt>
<totfact> 0.10027252E+05</totfact>
</mgrwt>
</event>
<event>
12    1  0.2736842E-001  0.1832886E+03  0.7546771E-02  0.1165299E+00
         21   -1    0    0  502  503  0.00000000000E+00  0.00000000000E+00  0.22340245790E+03  0.22340245790E+03  0.00000000000E+00 0.  1.
         21   -1    0    0  503  504 -0.00000000000E+00 -0.00000000000E+00 -0.50729858280E+03  0.50729858280E+03  0.00000000000E+00 0.  1.
         -6    2    1    2    0  504 -0.25596486539E+02  0.48144909097E+02 -0.44903499773E+03  0.48399156289E+03  0.17216936827E+03 0.  0.
        -24    2    3    3    0    0  0.31269106403E+02  0.75131955546E+02 -0.33039542231E+03  0.34960616490E+03  0.80254393625E+02 0.  0.
          6    2    1    2  502    0  0.25596486539E+02 -0.48144909097E+02  0.16513887283E+03  0.24670947780E+03  0.17499030465E+03 0.  0.
         24    2    5    5    0    0 -0.17812139132E+02 -0.64580690097E+02  0.40089743020E+02  0.11324106001E+03  0.82026900123E+02 0.  0.
          2    1    6    6  501    0  0.24646508418E+02 -0.56633338693E+02  0.16088745667E+02  0.63825019905E+02  0.00000000000E+00 0. -1.
         -1    1    6    6    0  501 -0.42458647550E+02 -0.79473514046E+01  0.24000997353E+02  0.49416040109E+02  0.00000000000E+00 0.  1.
          5    1    5    5  502    0  0.43408625671E+02  0.16435781000E+02  0.12504912981E+03  0.13346841779E+03  0.47000000000E+01 0. -1.
         13    1    4    4    0    0  0.45915631272E+02  0.11335331953E+02 -0.11102547051E+03  0.12067887158E+03  0.00000000000E+00 0. -1.
        -14    1    4    4    0    0 -0.14646524869E+02  0.63796623594E+02 -0.21936995180E+03  0.22892729332E+03  0.00000000000E+00 0.  1.
         -5    1    3    3    0  504 -0.56865592942E+02 -0.26987046449E+02 -0.11863957542E+03  0.13438539799E+03  0.47000000000E+01 0.  1.
<mgrwt>
<rscale>  2 0.18261207E+03</rscale>
<asrwt>0</asrwt>
<pdfrwt beam="1">  1       21 0.34369609E-01 0.18328862E+03</pdfrwt>
<pdfrwt beam="2">  1       21 0.78045936E-01 0.18328862E+03</pdfrwt>
<totfact> 0.11938440E+04</totfact>
</mgrwt>
</event>
<event>
12    1  0.2736842E-001  0.2555956E+03  0.7546771E-02  0.1109872E+00
         21   -1    0    0  502  503  0.00000000000E+00  0.00000000000E+00  0.49438228488E+03  0.49438228488E+03  0.00000000000E+00 0. -1.
         21   -1    0    0  503  504 -0.00000000000E+00 -0.00000000000E+00 -0.22320294384E+03  0.22320294384E+03  0.00000000000E+00 0. -1.
         -6    2    1    2    0  504 -0.17046188332E+03  0.79269730214E+02 -0.93858647178E+02  0.27195997528E+03  0.17266105152E+03 0.  0.
        -24    2    3    3    0    0 -0.49607593924E+02 -0.39572692847E+00  0.92403457820E+01  0.94185295769E+02  0.79526196779E+02 0.  0.
          6    2    1    2  502    0  0.17046188332E+03 -0.79269730214E+02  0.36503798821E+03  0.44562525344E+03  0.17317098449E+03 0.  0.
         24    2    5    5    0    0  0.19216048322E+03 -0.89219505382E+02  0.29869772561E+03  0.37496446016E+03  0.80574460281E+02 0.  0.
          4    1    6    6  501    0  0.17992539937E+03 -0.76389742719E+02  0.29901006001E+03  0.35723319851E+03  0.00000000000E+00 0. -1.
         -3    1    6    6    0  501  0.12235083852E+02 -0.12829762662E+02 -0.31233440787E+00  0.17731261648E+02  0.00000000000E+00 0.  1.
          5    1    5    5  502    0 -0.21698599903E+02  0.99497751673E+01  0.66340262606E+02  0.70660793275E+02  0.47000000000E+01 0. -1.
         11    1    4    4    0    0 -0.41540764551E+02  0.13725180376E+02 -0.29096565868E+02  0.52541658150E+02  0.00000000000E+00 0. -1.
        -12    1    4    4    0    0 -0.80668293729E+01 -0.14120907304E+02  0.38336911650E+02  0.41643637619E+02  0.00000000000E+00 0.  1.
         -5    1    3    3    0  504 -0.12085428940E+03  0.79665457143E+02 -0.10309899296E+03  0.17777467952E+03  0.47000000000E+01 0.  1.
<mgrwt>
<rscale>  2 0.25550930E+03</rscale>
<asrwt>0</asrwt>
<pdfrwt beam="1">  1       21 0.76058813E-01 0.25559564E+03</pdfrwt>
<pdfrwt beam="2">  1       21 0.34338915E-01 0.25559564E+03</pdfrwt>
<totfact> 0.12127779E+04</totfact>
</mgrwt>
</event>
<event>
12    1  0.2736842E-001  0.1976413E+03  0.7546771E-02  0.1151802E+00
         21   -1    0    0  502  503  0.00000000000E+00  0.00000000000E+00  0.59258454096E+02  0.59258454096E+02  0.00000000000E+00 0.  1.
         21   -1    0    0  503  504 -0.00000000000E+00 -0.00000000000E+00 -0.16350074971E+04  0.16350074971E+04  0.00000000000E+00 0. -1.
         -6    2    1    2    0  504  0.41635113637E+02  0.85192571629E+02 -0.14428447645E+04  0.14563183363E+04  0.17340941531E+03 0.  0.
        -24    2    3    3    0    0  0.83584109854E+02  0.39619267832E+02 -0.11653996969E+04  0.11720042498E+04  0.82954915663E+02 0.  0.
          6    2    1    2  502    0 -0.41635113637E+02 -0.85192571629E+02 -0.13290427854E+03  0.23794761491E+03  0.17310188687E+03 0.  0.
         24    2    5    5    0    0  0.23660529257E+02 -0.96646534686E+01 -0.10310819468E+03  0.13365051996E+03  0.81104472766E+02 0.  0.
          4    1    6    6  501    0  0.36355445550E+02  0.23149962993E+02 -0.81953310748E+02  0.92595811732E+02  0.00000000000E+00 0. -1.
         -3    1    6    6    0  501 -0.12694916293E+02 -0.32814616461E+02 -0.21154883936E+02  0.41054708226E+02  0.00000000000E+00 0.  1.
          5    1    5    5  502    0 -0.65295642894E+02 -0.75527918160E+02 -0.29796083859E+02  0.10429709495E+03  0.47000000000E+01 0. -1.
         11    1    4    4    0    0  0.71862481353E+02 -0.99485855200E+01 -0.74737329856E+03  0.75088616845E+03  0.00000000000E+00 0. -1.
        -12    1    4    4    0    0  0.11721628502E+02  0.49567853352E+02 -0.41802639837E+03  0.42111808130E+03  0.00000000000E+00 0.  1.
         -5    1    3    3    0  504 -0.41948996217E+02  0.45573303797E+02 -0.27744506756E+03  0.28431408655E+03  0.47000000000E+01 0.  1.
<mgrwt>
<rscale>  2 0.19757382E+03</rscale>
<asrwt>0</asrwt>
<pdfrwt beam="1">  1       21 0.91166869E-02 0.19764130E+03</pdfrwt>
<pdfrwt beam="2">  1       21 0.25153957E+00 0.19764130E+03</pdfrwt>
<totfact> 0.61878379E+03</totfact>
</mgrwt>
</event>
<event>
12    1  0.2736842E-001  0.1757290E+03  0.7546771E-02  0.1172058E+00
         21   -1    0    0  502  503  0.00000000000E+00  0.00000000000E+00  0.70241761620E+02  0.70241761620E+02  0.00000000000E+00 0. -1.
         21   -1    0    0  503  504 -0.00000000000E+00 -0.00000000000E+00 -0.46003673892E+03  0.46003673892E+03  0.00000000000E+00 0. -1.
         -6    2    1    2    0  504  0.30822059779E+02  0.12391069053E+02 -0.25162028297E+03  0.30690951411E+03  0.17256055484E+03 0.  0.
        -24    2    3    3    0    0  0.81226028284E+02  0.27848614907E+02 -0.13145442456E+03  0.17560292900E+03  0.78631481696E+02 0.  0.
          6    2    1    2  502    0 -0.30822059779E+02 -0.12391069053E+02 -0.13817469432E+03  0.22336898643E+03  0.17233084455E+03 0.  0.
         24    2    5    5    0    0 -0.85368596268E+02 -0.10648472662E+02 -0.11588627576E+03  0.16423164723E+03  0.78365922718E+02 0.  0.
          2    1    6    6  501    0 -0.33373762711E+02  0.33511367346E+02 -0.37801350110E+02  0.60545535335E+02  0.00000000000E+00 0. -1.
         -1    1    6    6    0  501 -0.51994833556E+02 -0.44159840007E+02 -0.78084925652E+02  0.10368611190E+03  0.00000000000E+00 0.  1.
          5    1    5    5  502    0  0.54546536488E+02 -0.17425963915E+01 -0.22288418559E+02  0.59137339194E+02  0.47000000000E+01 0. -1.
         13    1    4    4    0    0 -0.14089979252E+02 -0.45745220551E+00 -0.55005318454E+01  0.15132502385E+02  0.00000000000E+00 0. -1.
        -14    1    4    4    0    0  0.95316007536E+02  0.28306067113E+02 -0.12595389271E+03  0.16047042661E+03  0.00000000000E+00 0.  1.
         -5    1    3    3    0  504 -0.50403968505E+02 -0.15457545854E+02 -0.12016585842E+03  0.13130658511E+03  0.47000000000E+01 0.  1.
<mgrwt>
<rscale>  2 0.17567259E+03</rscale>
<asrwt>0</asrwt>
<pdfrwt beam="1">  1       21 0.10806425E-01 0.17572900E+03</pdfrwt>
<pdfrwt beam="2">  1       21 0.70774881E-01 0.17572900E+03</pdfrwt>
<totfact> 0.12868926E+05</totfact>
</mgrwt>
</event>
<event>
12    1  0.2736842E-001  0.1846138E+03  0.7546771E-02  0.1163668E+00
         21   -1    0    0  502  503  0.00000000000E+00  0.00000000000E+00  0.61272147892E+03  0.61272147892E+03  0.00000000000E+00 0. -1.
         21   -1    0    0  503  504 -0.00000000000E+00 -0.00000000000E+00 -0.83384280719E+02  0.83384280719E+02  0.00000000000E+00 0. -1.
         -6    2    1    2    0  504 -0.50254623275E+02 -0.38386991901E+02  0.62134920775E+02  0.19375107884E+03  0.17227781014E+03 0.  0.
        -24    2    3    3    0    0  0.43338501196E+02 -0.46465034142E+02  0.17965376369E+02  0.89837815168E+02  0.60916772750E+02 0.  0.
          6    2    1    2  502    0  0.50254623275E+02  0.38386991901E+02  0.46720227743E+03  0.50235468079E+03  0.17344500274E+03 0.  0.
         24    2    5    5    0    0  0.66724688042E+02 -0.19398349311E+02  0.18549043292E+03  0.21426778066E+03  0.81703740277E+02 0.  0.
          4    1    6    6  501    0  0.63208840505E+02 -0.21109533593E+01  0.18616418609E+03  0.19661362574E+03  0.00000000000E+00 0. -1.
         -3    1    6    6    0  501  0.35158475365E+01 -0.17287395952E+02 -0.67375317618E+00  0.17654154923E+02  0.00000000000E+00 0.  1.
          5    1    5    5  502    0 -0.16470064766E+02  0.57785341212E+02  0.28171184451E+03  0.28808690013E+03  0.47000000000E+01 0. -1.
         13    1    4    4    0    0  0.43853335866E+02 -0.28093386503E+02  0.36607818737E+02  0.63659137792E+02  0.00000000000E+00 0. -1.
        -14    1    4    4    0    0 -0.51483466962E+00 -0.18371647639E+02 -0.18642442368E+02  0.26178677375E+02  0.00000000000E+00 0.  1.
         -5    1    3    3    0  504 -0.93593124472E+02  0.80780422412E+01  0.44169544406E+02  0.10391326368E+03  0.47000000000E+01 0. -1.
<mgrwt>
<rscale>  2 0.18433916E+03</rscale>
<asrwt>0</asrwt>
<pdfrwt beam="1">  1       21 0.94264840E-01 0.18461381E+03</pdfrwt>
<pdfrwt beam="2">  1       21 0.12828351E-01 0.18461381E+03</pdfrwt>
<totfact> 0.49306264E+04</totfact>
</mgrwt>
</event>
<event>
12    1  0.2736842E-001  0.1836480E+03  0.7546771E-02  0.1164553E+00
         21   -1    0    0  502  503  0.00000000000E+00  0.00000000000E+00  0.17270627203E+04  0.17270627203E+04  0.00000000000E+00 0. -1.
         21   -1    0    0  503  504 -0.00000000000E+00 -0.00000000000E+00 -0.84443730705E+02  0.84443730705E+02  0.00000000000E+00 0. -1.
         -6    2    1    2    0  504 -0.74187672939E+01 -0.56411468529E+02  0.26008665084E+02  0.18449830065E+03  0.17356808576E+03 0.  0.
        -24    2    3    3    0    0 -0.49063503276E+02  0.17925623309E+02  0.19022148764E+02  0.98875939858E+02  0.81768294677E+02 0.  0.
          6    2    1    2  502    0  0.74187672939E+01  0.56411468529E+02  0.16166103245E+04  0.16270081504E+04  0.17461182121E+03 0.  0.
         24    2    5    5    0    0  0.66588110161E+02  0.43896364920E+02  0.12836617547E+04  0.12885787203E+04  0.79289033203E+02 0.  0.
          4    1    6    6  501    0  0.35236288952E+02  0.35974445393E+02  0.11484650372E+04  0.11495684836E+04  0.00000000000E+00 0. -1.
         -3    1    6    6    0  501  0.31351821210E+02  0.79219195266E+01  0.13519671749E+03  0.13901023675E+03  0.00000000000E+00 0.  1.
          5    1    5    5  502    0 -0.59169342867E+02  0.12515103610E+02  0.33294856984E+03  0.33842943003E+03  0.47000000000E+01 0. -1.
         11    1    4    4    0    0  0.18730663469E+02 -0.99266615968E+01 -0.49386046456E+01  0.21766170547E+02  0.00000000000E+00 0. -1.
        -12    1    4    4    0    0 -0.67794166745E+02  0.27852284906E+02  0.23960753410E+02  0.77109769310E+02  0.00000000000E+00 0.  1.
         -5    1    3    3    0  504  0.41644735982E+02 -0.74337091838E+02  0.69865163198E+01  0.85622360796E+02  0.47000000000E+01 0.  1.
<mgrwt>
<rscale>  2 0.18339945E+03</rscale>
<asrwt>0</asrwt>
<pdfrwt beam="1">  1       21 0.26570193E+00 0.18364798E+03</pdfrwt>
<pdfrwt beam="2">  1       21 0.12991344E-01 0.18364798E+03</pdfrwt>
<totfact> 0.27690588E+03</totfact>
</mgrwt>
</event>
<event>
12    1  0.2736842E-001  0.2345500E+03  0.7546771E-02  0.1123592E+00
         21   -1    0    0  502  503  0.00000000000E+00  0.00000000000E+00  0.10822455687E+04  0.10822455687E+04  0.00000000000E+00 0.  1.
         21   -1    0    0  503  504 -0.00000000000E+00 -0.00000000000E+00 -0.50724631088E+02  0.50724631088E+02  0.00000000000E+00 0.  1.
         -6    2    1    2    0  504  0.25389101666E+02 -0.15620980233E+03  0.53152184503E+03  0.58097259240E+03  0.17311144548E+03 0.  0.
        -24    2    3    3    0    0 -0.28602789722E+02 -0.22420763986E+02  0.16323574794E+03  0.18540797009E+03  0.80058701777E+02 0.  0.
          6    2    1    2  502    0 -0.25389101666E+02  0.15620980233E+03  0.49999909256E+03  0.55199760736E+03  0.17220963138E+03 0.  0.
         24    2    5    5    0    0  0.32788931101E+02  0.12348433152E+03  0.42710260620E+03  0.45304495373E+03  0.80682090605E+02 0.  0.
          4    1    6    6  501    0  0.36005369743E+02  0.48099558091E+02  0.29369598011E+03  0.29977872318E+03  0.00000000000E+00 0. -1.
         -3    1    6    6    0  501 -0.32164386418E+01  0.75384773426E+02  0.13340662609E+03  0.15326623055E+03  0.00000000000E+00 0.  1.
          5    1    5    5  502    0 -0.58178032767E+02  0.32725470816E+02  0.72896486361E+02  0.98952653630E+02  0.47000000000E+01 0. -1.
         11    1    4    4    0    0  0.13739430403E+02 -0.78060931196E+01 -0.34426259510E+00  0.15805870882E+02  0.00000000000E+00 0. -1.
        -12    1    4    4    0    0 -0.42342220126E+02 -0.14614670867E+02  0.16358001053E+03  0.16960209921E+03  0.00000000000E+00 0.  1.
         -5    1    3    3    0  504  0.53991891388E+02 -0.13378903835E+03  0.36828609709E+03  0.39556462232E+03  0.47000000000E+01 0.  1.
<mgrwt>
<rscale>  2 0.23438358E+03</rscale>
<asrwt>0</asrwt>
<pdfrwt beam="1">  1       21 0.16649930E+00 0.23454995E+03</pdfrwt>
<pdfrwt beam="2">  1       21 0.78037902E-02 0.23454995E+03</pdfrwt>
<totfact> 0.27576742E+04</totfact>
</mgrwt>
</event>
<event>
12    1  0.2736842E-001  0.1837353E+03  0.7546771E-02  0.1164639E+00
         21   -1    0    0  502  503  0.00000000000E+00  0.00000000000E+00  0.35593541774E+03  0.35593541774E+03  0.00000000000E+00 0. -1.
         21   -1    0    0  503  504 -0.00000000000E+00 -0.00000000000E+00 -0.94550024573E+02  0.94550024573E+02  0.00000000000E+00 0. -1.
         -6    2    1    2    0  504  0.10041704687E+01  0.58888171602E+02  0.11243329769E+03  0.21395764755E+03  0.17224344226E+03 0.  0.
        -24    2    3    3    0    0  0.49624893122E+02  0.70163590985E+02  0.36191444029E+02  0.12271062018E+03  0.79765382006E+02 0.  0.
          6    2    1    2  502    0 -0.10041704687E+01 -0.58888171602E+02  0.14895209547E+03  0.23652779476E+03  0.17403978234E+03 0.  0.
         24    2    5    5    0    0 -0.47784503753E+02 -0.65470260815E+01  0.13581333106E+03  0.16495466973E+03  0.80240636981E+02 0.  0.
          2    1    6    6  501    0 -0.12621198612E+02  0.32197858302E+02  0.86079852060E+02  0.92767115209E+02  0.00000000000E+00 0. -1.
         -1    1    6    6    0  501 -0.35163305142E+02 -0.38744884383E+02  0.49733478999E+02  0.72187554521E+02  0.00000000000E+00 0.  1.
          5    1    5    5  502    0  0.46780333285E+02 -0.52341145521E+02  0.13138764412E+02  0.71573125032E+02  0.47000000000E+01 0. -1.
         11    1    4    4    0    0 -0.72186416079E+01 -0.11342845901E+02 -0.60388333356E+01  0.14738943241E+02  0.00000000000E+00 0. -1.
        -12    1    4    4    0    0  0.56843534729E+02  0.81506436886E+02  0.42230277364E+02  0.10797167694E+03  0.00000000000E+00 0.  1.
         -5    1    3    3    0  504 -0.48620722653E+02 -0.11275419383E+02  0.76241853666E+02  0.91247027371E+02  0.47000000000E+01 0.  1.
<mgrwt>
<rscale>  2 0.18330869E+03</rscale>
<asrwt>0</asrwt>
<pdfrwt beam="1">  1       21 0.54759294E-01 0.18373533E+03</pdfrwt>
<pdfrwt beam="2">  1       21 0.14546158E-01 0.18373533E+03</pdfrwt>
<totfact> 0.13099855E+05</totfact>
</mgrwt>
</event>
<event>
12    1  0.2736842E-001  0.2004784E+03  0.7546771E-02  0.1149349E+00
         21   -1    0    0  502  503  0.00000000000E+00  0.00000000000E+00  0.18162153344E+04  0.18162153344E+04  0.00000000000E+00 0. -1.
         21   -1    0    0  503  504 -0.00000000000E+00 -0.00000000000E+00 -0.28506575684E+02  0.28506575684E+02  0.00000000000E+00 0.  1.
         -6    2    1    2    0  504 -0.39829950833E+02  0.93589356427E+02  0.13304606114E+04  0.13454802163E+04  0.17276047424E+03 0.  0.
        -24    2    3    3    0    0  0.20745825672E+02  0.71955761081E+02  0.11190909876E+04  0.11244900695E+04  0.80655173306E+02 0.  0.
          6    2    1    2  502    0  0.39829950833E+02 -0.93589356427E+02  0.45724814734E+03  0.49924169376E+03  0.17268760213E+03 0.  0.
         24    2    5    5    0    0 -0.26982919363E+01 -0.12014305854E+03  0.35985473762E+03  0.38959992807E+03  0.88606074666E+02 0.  0.
          4    1    6    6  501    0  0.49229195770E+01 -0.33397203366E+02  0.21049681488E+02  0.39783129849E+02  0.00000000000E+00 0. -1.
         -3    1    6    6    0  501 -0.76212115132E+01 -0.86745855170E+02  0.33880505613E+03  0.34981679822E+03  0.00000000000E+00 0.  1.
          5    1    5    5  502    0  0.42528242769E+02  0.26553702109E+02  0.97393409715E+02  0.10964176569E+03  0.47000000000E+01 0. -1.
         13    1    4    4    0    0  0.19672175663E+01  0.24515437829E+01  0.64106780831E+03  0.64107551416E+03  0.00000000000E+00 0. -1.
        -14    1    4    4    0    0  0.18778608106E+02  0.69504217298E+02  0.47802317931E+03  0.48341455533E+03  0.00000000000E+00 0.  1.
         -5    1    3    3    0  504 -0.60575776504E+02  0.21633595346E+02  0.21136962374E+03  0.22099014681E+03  0.47000000000E+01 0.  1.
<mgrwt>
<rscale>  2 0.20046266E+03</rscale>
<asrwt>0</asrwt>
<pdfrwt beam="1">  1       21 0.27941765E+00 0.20047836E+03</pdfrwt>
<pdfrwt beam="2">  1       21 0.43856285E-02 0.20047836E+03</pdfrwt>
<totfact> 0.14941530E+04</totfact>
</mgrwt>
</event>
<event>
12    1  0.2736842E-001  0.1967119E+03  0.7546771E-02  0.1153145E+00
         21   -1    0    0  502  503  0.00000000000E+00  0.00000000000E+00  0.85934806758E+02  0.85934806758E+02  0.00000000000E+00 0. -1.
         21   -1    0    0  503  504 -0.00000000000E+00 -0.00000000000E+00 -0.48314943641E+03  0.48314943641E+03  0.00000000000E+00 0. -1.
         -6    2    1    2    0  504  0.50161523452E+02  0.71953475621E+02 -0.28092348756E+03  0.34294837284E+03  0.17607413063E+03 0.  0.
        -24    2    3    3    0    0  0.46447281063E+02 -0.24907603462E+02 -0.18585019607E+03  0.20709225412E+03  0.74626856485E+02 0.  0.
          6    2    1    2  502    0 -0.50161523452E+02 -0.71953475621E+02 -0.11629114209E+03  0.22613587033E+03  0.17297491446E+03 0.  0.
         24    2    5    5    0    0  0.23880455973E+02 -0.22650868497E+00 -0.66613065031E+02  0.11160651233E+03  0.86304030489E+02 0.  0.
          2    1    6    6  501    0  0.10712597004E+02 -0.27502740806E+02 -0.74647312919E+02  0.80270678410E+02  0.00000000000E+00 0. -1.
         -1    1    6    6    0  501  0.13167858969E+02  0.27276232121E+02  0.80342478880E+01  0.31335833923E+02  0.00000000000E+00 0.  1.
          5    1    5    5  502    0 -0.74041979425E+02 -0.71726966936E+02 -0.49678077057E+02  0.11452935800E+03  0.47000000000E+01 0. -1.
         11    1    4    4    0    0  0.46041386174E+02  0.17150672275E+02 -0.93825370936E+02  0.10591107134E+03  0.00000000000E+00 0. -1.
        -12    1    4    4    0    0  0.40589488940E+00 -0.42058275737E+02 -0.92024825136E+02  0.10118118279E+03  0.00000000000E+00 0.  1.
         -5    1    3    3    0  504  0.37142423889E+01  0.96861079083E+02 -0.95073291489E+02  0.13585611871E+03  0.47000000000E+01 0.  1.
<mgrwt>
<rscale>  2 0.19601595E+03</rscale>
<asrwt>0</asrwt>
<pdfrwt beam="1">  1       21 0.13220740E-01 0.19671192E+03</pdfrwt>
<pdfrwt beam="2">  1       21 0.74330682E-01 0.19671192E+03</pdfrwt>
<totfact> 0.79844580E+04</totfact>
</mgrwt>
</event>
<event>
12    1  0.2736842E-001  0.2060521E+03  0.7546771E-02  0.1144893E+00
         21   -1    0    0  502  503  0.00000000000E+00  0.00000000000E+00  0.51154100242E+02  0.51154100242E+02  0.00000000000E+00 0.  1.
         21   -1    0    0  503  504 -0.00000000000E+00 -0.00000000000E+00 -0.22842647517E+04  0.22842647517E+04  0.00000000000E+00 0.  1.
         -6    2    1    2    0  504  0.95203985825E+02  0.59394329247E+02 -0.20485159566E+04  0.20587734665E+04  0.17186935921E+03 0.  0.
        -24    2    3    3    0    0  0.38575336277E+02 -0.17131553065E+02 -0.53829635721E+03  0.54554898117E+03  0.77969070716E+02 0.  0.
          6    2    1    2  502    0 -0.95203985825E+02 -0.59394329247E+02 -0.18459469483E+03  0.27664538542E+03  0.17281777296E+03 0.  0.
         24    2    5    5    0    0 -0.88791939769E+02 -0.85363419575E+02 -0.77544956312E+02  0.16620424950E+03  0.80247805774E+02 0.  0.
          4    1    6    6  501    0 -0.94941924880E+02 -0.86156389756E+02 -0.86970561550E+02  0.15492182278E+03  0.00000000000E+00 0. -1.
         -3    1    6    6    0  501  0.61499851110E+01  0.79297018076E+00  0.94256052389E+01  0.11282426720E+02  0.00000000000E+00 0.  1.
          5    1    5    5  502    0 -0.64120460561E+01  0.25969090328E+02 -0.10704973852E+03  0.11044113592E+03  0.47000000000E+01 0. -1.
         13    1    4    4    0    0  0.11561888041E+02 -0.24490252754E+02 -0.48116061476E+03  0.48192217933E+03  0.00000000000E+00 0. -1.
        -14    1    4    4    0    0  0.27013448236E+02  0.73586996891E+01 -0.57135742455E+02  0.63626801841E+02  0.00000000000E+00 0.  1.
         -5    1    3    3    0  504  0.56628649548E+02  0.76525882312E+02 -0.15102195994E+04  0.15132244853E+04  0.47000000000E+01 0.  1.
<mgrwt>
<rscale>  2 0.20585311E+03</rscale>
<asrwt>0</asrwt>
<pdfrwt beam="1">  1       21 0.78698619E-02 0.20605210E+03</pdfrwt>
<pdfrwt beam="2">  1       21 0.35142533E+00 0.20605210E+03</pdfrwt>
<totfact> 0.20803214E+03</totfact>
</mgrwt>
</event>
<event>
12    1  0.2736842E-001  0.1999348E+03  0.7546771E-02  0.1150933E+00
         21   -1    0    0  502  503  0.00000000000E+00  0.00000000000E+00  0.10302130002E+03  0.10302130002E+03  0.00000000000E+00 0. -1.
         21   -1    0    0  503  504 -0.00000000000E+00 -0.00000000000E+00 -0.43686968954E+03  0.43686968954E+03  0.00000000000E+00 0. -1.
         -6    2    1    2    0  504 -0.90119418863E+02  0.40984685094E+02 -0.69584273249E+02  0.21169768910E+03  0.17370286819E+03 0.  0.
        -24    2    3    3    0    0  0.43645577044E+01  0.57378336413E+02 -0.63281987016E+02  0.11548031830E+03  0.77587184389E+02 0.  0.
          6    2    1    2  502    0  0.90119418863E+02 -0.40984685094E+02 -0.26426411628E+03  0.32819330046E+03  0.16755317141E+03 0.  0.
         24    2    5    5    0    0  0.61563998105E+02  0.39909503314E+02 -0.15728720450E+03  0.19098750092E+03  0.79712398618E+02 0.  0.
          2    1    6    6  501    0  0.59875515821E+02  0.53548738404E+02 -0.83249446483E+02  0.11568498225E+03  0.00000000000E+00 0. -1.
         -1    1    6    6    0  501  0.16884822839E+01 -0.13639235090E+02 -0.74037758015E+02  0.75302518671E+02  0.00000000000E+00 0.  1.
          5    1    5    5  502    0  0.28555420758E+02 -0.80894188408E+02 -0.10697691178E+03  0.13720579954E+03  0.47000000000E+01 0. -1.
         11    1    4    4    0    0 -0.31337899103E+02  0.41219479839E+01 -0.28384055856E+02  0.42481866746E+02  0.00000000000E+00 0. -1.
        -12    1    4    4    0    0  0.35702456807E+02  0.53256388429E+02 -0.34897931160E+02  0.72998451558E+02  0.00000000000E+00 0.  1.
         -5    1    3    3    0  504 -0.94483976567E+02 -0.16393651319E+02 -0.63022862336E+01  0.96217370798E+02  0.47000000000E+01 0.  1.
<mgrwt>
<rscale>  2 0.19859161E+03</rscale>
<asrwt>0</asrwt>
<pdfrwt beam="1">  1       21 0.15849430E-01 0.19993484E+03</pdfrwt>
<pdfrwt beam="2">  1       21 0.67210723E-01 0.19993484E+03</pdfrwt>
<totfact> 0.71641828E+04</totfact>
</mgrwt>
</event>
<event>
12    1  0.2736842E-001  0.2003239E+03  0.7546771E-02  0.1150324E+00
         21   -1    0    0  502  503  0.00000000000E+00  0.00000000000E+00  0.39440507647E+03  0.39440507647E+03  0.00000000000E+00 0. -1.
         21   -1    0    0  503  504 -0.00000000000E+00 -0.00000000000E+00 -0.10905585111E+03  0.10905585111E+03  0.00000000000E+00 0.  1.
         -6    2    1    2    0  504  0.26726925637E+02  0.82469159512E+02  0.21503448093E+03  0.29115491427E+03  0.17611321726E+03 0.  0.
        -24    2    3    3    0    0 -0.43682042097E+02  0.46509686090E+02  0.91731632912E+02  0.14460734932E+03  0.91789548955E+02 0.  0.
          6    2    1    2  502    0 -0.26726925637E+02 -0.82469159512E+02  0.70314744436E+02  0.21230601331E+03  0.18059398987E+03 0.  0.
         24    2    5    5    0    0  0.48581434837E+01  0.40455606381E+02  0.90801870283E+01  0.71310000304E+02  0.57813568487E+02 0.  0.
          4    1    6    6  501    0  0.31220326058E+02  0.20856174668E+02  0.13867341396E+01  0.37571422817E+02  0.00000000000E+00 0. -1.
         -3    1    6    6    0  501 -0.26362182574E+02  0.19599431712E+02  0.76934528887E+01  0.33738577487E+02  0.00000000000E+00 0.  1.
          5    1    5    5  502    0 -0.31585069121E+02 -0.12292476589E+03  0.61234557408E+02  0.14099601300E+03  0.47000000000E+01 0. -1.
         13    1    4    4    0    0  0.20539748667E+02 -0.11162779673E+02  0.32038930622E+02  0.39660837116E+02  0.00000000000E+00 0. -1.
        -14    1    4    4    0    0 -0.64221790764E+02  0.57672465763E+02  0.59692702290E+02  0.10494651220E+03  0.00000000000E+00 0.  1.
         -5    1    3    3    0  504  0.70408967734E+02  0.35959473422E+02  0.12330284802E+03  0.14654756496E+03  0.47000000000E+01 0.  1.
<mgrwt>
<rscale>  2 0.19930878E+03</rscale>
<asrwt>0</asrwt>
<pdfrwt beam="1">  1       21 0.60677703E-01 0.20032394E+03</pdfrwt>
<pdfrwt beam="2">  1       21 0.16777823E-01 0.20032394E+03</pdfrwt>
<totfact> 0.80572632E+04</totfact>
</mgrwt>
</event>
<event>
12    1  0.2736842E-001  0.1937294E+03  0.7546771E-02  0.1155688E+00
         21   -1    0    0  502  503  0.00000000000E+00  0.00000000000E+00  0.68152025943E+02  0.68152025943E+02  0.00000000000E+00 0. -1.
         21   -1    0    0  503  504 -0.00000000000E+00 -0.00000000000E+00 -0.61080732263E+03  0.61080732263E+03  0.00000000000E+00 0.  1.
         -6    2    1    2    0  504  0.75648207171E+02 -0.40573353660E+02 -0.38231141022E+03  0.42748121097E+03  0.17090735231E+03 0.  0.
        -24    2    3    3    0    0 -0.11155281190E+02 -0.57427188162E+02 -0.24488095880E+03  0.26399385272E+03  0.79396146345E+02 0.  0.
          6    2    1    2  502    0 -0.75648207171E+02  0.40573353660E+02 -0.16034388647E+03  0.25147813760E+03  0.17367280584E+03 0.  0.
         24    2    5    5    0    0 -0.12770993306E+02  0.45544190277E+02 -0.16444118310E+03  0.18809729602E+03  0.78117338230E+02 0.  0.
          4    1    6    6  501    0  0.70782757723E+01  0.38061144652E+02 -0.22908852299E+02  0.44984088673E+02  0.00000000000E+00 0. -1.
         -3    1    6    6    0  501 -0.19849269078E+02  0.74830456256E+01 -0.14153233080E+03  0.14311320734E+03  0.00000000000E+00 0.  1.
          5    1    5    5  502    0 -0.62877213865E+02 -0.49708366175E+01  0.40972966320E+01  0.63380841583E+02  0.47000000000E+01 0. -1.
         11    1    4    4    0    0  0.30605555769E+02 -0.10065569134E+02 -0.53358754697E+02  0.62331151351E+02  0.00000000000E+00 0. -1.
        -12    1    4    4    0    0 -0.41760836959E+02 -0.47361619028E+02 -0.19152220410E+03  0.20166270137E+03  0.00000000000E+00 0.  1.
         -5    1    3    3    0  504  0.86803488361E+02  0.16853834502E+02 -0.13743045142E+03  0.16348735825E+03  0.47000000000E+01 0.  1.
<mgrwt>
<rscale>  2 0.19310764E+03</rscale>
<asrwt>0</asrwt>
<pdfrwt beam="1">  1       21 0.10484927E-01 0.19372943E+03</pdfrwt>
<pdfrwt beam="2">  1       21 0.93970359E-01 0.19372943E+03</pdfrwt>
<totfact> 0.70879591E+04</totfact>
</mgrwt>
</event>
<event>
12    1  0.2736842E-001  0.1759069E+03  0.7546771E-02  0.1171915E+00
         21   -1    0    0  502  503  0.00000000000E+00  0.00000000000E+00  0.13490055554E+03  0.13490055554E+03  0.00000000000E+00 0.  1.
         21   -1    0    0  503  504 -0.00000000000E+00 -0.00000000000E+00 -0.44214443794E+03  0.44214443794E+03  0.00000000000E+00 0.  1.
         -6    2    1    2    0  504  0.22445054621E+02 -0.13528402904E+02 -0.35390877943E+03  0.39505360090E+03  0.17357743306E+03 0.  0.
        -24    2    3    3    0    0 -0.32603831770E+02  0.13302020885E+02 -0.99430076864E+02  0.13326790307E+03  0.81449617537E+02 0.  0.
          6    2    1    2  502    0 -0.22445054621E+02  0.13528402904E+02  0.46664897023E+02  0.18199139257E+03  0.17394383057E+03 0.  0.
         24    2    5    5    0    0 -0.69759329001E+02  0.16634773134E+02 -0.11657674421E+02  0.10667935877E+03  0.78112128087E+02 0.  0.
          4    1    6    6  501    0 -0.72643837997E+02  0.37682273597E+02 -0.19337920242E+02  0.84089452975E+02  0.00000000000E+00 0. -1.
         -3    1    6    6    0  501  0.28845089957E+01 -0.21047500463E+02  0.76802458205E+01  0.22589905793E+02  0.00000000000E+00 0.  1.
          5    1    5    5  502    0  0.47314274380E+02 -0.31063702295E+01  0.58322571444E+02  0.75312033806E+02  0.47000000000E+01 0. -1.
         11    1    4    4    0    0  0.23998371523E+02  0.72287332002E+01 -0.57002788423E+02  0.62269529526E+02  0.00000000000E+00 0. -1.
        -12    1    4    4    0    0 -0.56602203293E+02  0.60732876852E+01 -0.42427288441E+02  0.70998373540E+02  0.00000000000E+00 0.  1.
         -5    1    3    3    0  504  0.55048886391E+02 -0.26830423790E+02 -0.25447870256E+03  0.26178569784E+03  0.47000000000E+01 0.  1.
<mgrwt>
<rscale>  2 0.17581630E+03</rscale>
<asrwt>0</asrwt>
<pdfrwt beam="1">  1       21 0.20753931E-01 0.17590695E+03</pdfrwt>
<pdfrwt beam="2">  1       21 0.68022222E-01 0.17590695E+03</pdfrwt>
<totfact> 0.42865344E+04</totfact>
</mgrwt>
</event>
<event>
12    1  0.2736842E-001  0.1800272E+03  0.7546771E-02  0.1168369E+00
         21   -1    0    0  502  503  0.00000000000E+00  0.00000000000E+00  0.54317879394E+03  0.54317879394E+03  0.00000000000E+00 0. -1.
         21   -1    0    0  503  504 -0.00000000000E+00 -0.00000000000E+00 -0.59327543615E+02  0.59327543615E+02  0.00000000000E+00 0.  1.
         -6    2    1    2    0  504  0.34561318027E+02  0.25361293045E+02  0.27018353011E+03  0.32466744112E+03  0.17484887043E+03 0.  0.
        -24    2    3    3    0    0  0.60247362053E+01 -0.45594610724E+02  0.96130318132E+02  0.13449465815E+03  0.82052477309E+02 0.  0.
          6    2    1    2  502    0 -0.34561318027E+02 -0.25361293045E+02  0.21366772021E+03  0.27783889644E+03  0.17234522861E+03 0.  0.
         24    2    5    5    0    0 -0.33926622495E+01 -0.72427359512E+02  0.86456726898E+02  0.13858579401E+03  0.80461320599E+02 0.  0.
          2    1    6    6  501    0  0.24320556405E+02 -0.66667702557E+02  0.84307320180E+02  0.11019889411E+03  0.00000000000E+00 0. -1.
         -1    1    6    6    0  501 -0.27713218655E+02 -0.57596569548E+01  0.21494067172E+01  0.28386899895E+02  0.00000000000E+00 0.  1.
          5    1    5    5  502    0 -0.31168655777E+02  0.47066066467E+02  0.12721099332E+03  0.13925310243E+03  0.47000000000E+01 0. -1.
         11    1    4    4    0    0 -0.11821052131E+02 -0.44192964105E+02  0.10498838671E+03  0.11452212317E+03  0.00000000000E+00 0. -1.
        -12    1    4    4    0    0  0.17845788336E+02 -0.14016466190E+01 -0.88580685812E+01  0.19972534981E+02  0.00000000000E+00 0.  1.
         -5    1    3    3    0  504  0.28536581821E+02  0.70955903769E+02  0.17405321198E+03  0.19017278297E+03  0.47000000000E+01 0.  1.
<mgrwt>
<rscale>  2 0.17941648E+03</rscale>
<asrwt>0</asrwt>
<pdfrwt beam="1">  1       21 0.83565965E-01 0.18002724E+03</pdfrwt>
<pdfrwt beam="2">  1       21 0.91273148E-02 0.18002724E+03</pdfrwt>
<totfact> 0.11928520E+05</totfact>
</mgrwt>
</event>
<event>
12    1  0.2736842E-001  0.1774492E+03  0.7546771E-02  0.1171069E+00
         21   -1    0    0  502  503  0.00000000000E+00  0.00000000000E+00  0.27392539869E+03  0.27392539869E+03  0.00000000000E+00 0. -1.
         21   -1    0    0  503  504 -0.00000000000E+00 -0.00000000000E+00 -0.12443960296E+03  0.12443960296E+03  0.00000000000E+00 0. -1.
         -6    2    1    2    0  504 -0.23043698771E+02 -0.32142782251E+02  0.13587344628E+03  0.22349453375E+03  0.17298567198E+03 0.  0.
        -24    2    3    3    0    0  0.31605648831E+02  0.15239815377E+02  0.12120377404E+03  0.14954217723E+03  0.80257952377E+02 0.  0.
          6    2    1    2  502    0  0.23043698771E+02  0.32142782251E+02  0.13612349446E+02  0.17487046789E+03  0.16979462294E+03 0.  0.
         24    2    5    5    0    0 -0.15023043515E+02 -0.22467247459E+02  0.53221180280E+02  0.97267106537E+02  0.76797961815E+02 0.  0.
          4    1    6    6  501    0 -0.44422619924E+02 -0.34707442458E+01  0.39911153103E+02  0.59819021795E+02  0.00000000000E+00 0. -1.
         -3    1    6    6    0  501  0.29399576409E+02 -0.18996503213E+02  0.13310027177E+02  0.37448084742E+02  0.00000000000E+00 0.  1.
          5    1    5    5  502    0  0.38066742286E+02  0.54610029710E+02 -0.39608830834E+02  0.77603361352E+02  0.47000000000E+01 0. -1.
         13    1    4    4    0    0 -0.16048884872E+02  0.35312239811E+01  0.89779495514E+02  0.91270992452E+02  0.00000000000E+00 0. -1.
        -14    1    4    4    0    0  0.47654533704E+02  0.11708591396E+02  0.31424278524E+02  0.58271184781E+02  0.00000000000E+00 0.  1.
         -5    1    3    3    0  504 -0.54649347602E+02 -0.47382597629E+02  0.14669672244E+02  0.73952356522E+02  0.47000000000E+01 0.  1.
<mgrwt>
<rscale>  2 0.17666669E+03</rscale>
<asrwt>0</asrwt>
<pdfrwt beam="1">  1       21 0.42142369E-01 0.17744918E+03</pdfrwt>
<pdfrwt beam="2">  1       21 0.19144554E-01 0.17744918E+03</pdfrwt>
<totfact> 0.13639874E+05</totfact>
</mgrwt>
</event>
<event>
12    1  0.2736842E-001  0.1813885E+03  0.7546771E-02  0.1166526E+00
         21   -1    0    0  502  503  0.00000000000E+00  0.00000000000E+00  0.18712158682E+03  0.18712158682E+03  0.00000000000E+00 0. -1.
         21   -1    0    0  503  504 -0.00000000000E+00 -0.00000000000E+00 -0.21550848653E+03  0.21550848653E+03  0.00000000000E+00 0.  1.
         -6    2    1    2    0  504 -0.25803112089E+02  0.53831365520E+02 -0.10084497282E+03  0.20753674104E+03  0.17128389834E+03 0.  0.
        -24    2    3    3    0    0 -0.49797380825E+02  0.48108012940E+02 -0.13036472370E+03  0.16878125899E+03  0.81841261929E+02 0.  0.
          6    2    1    2  502    0  0.25803112089E+02 -0.53831365520E+02  0.72458073108E+02  0.19509333232E+03  0.17101935402E+03 0.  0.
         24    2    5    5    0    0  0.68301826827E+02  0.60636590418E+01  0.49983412864E+02  0.11814688942E+03  0.82209722108E+02 0.  0.
          4    1    6    6  501    0 -0.80207918771E+00  0.15819489605E+01 -0.19774239910E+02  0.19853625804E+02  0.00000000000E+00 0. -1.
         -3    1    6    6    0  501  0.69103906015E+02  0.44817100812E+01  0.69757652774E+02  0.98293263616E+02  0.00000000000E+00 0.  1.
          5    1    5    5  502    0 -0.42498714738E+02 -0.59895024562E+02  0.22474660244E+02  0.76946442898E+02  0.47000000000E+01 0. -1.
         11    1    4    4    0    0 -0.70948928569E+02  0.42429225734E+02 -0.11653715695E+03  0.14288071462E+03  0.00000000000E+00 0. -1.
        -12    1    4    4    0    0  0.21151547744E+02  0.56787872056E+01 -0.13827566748E+02  0.25900544362E+02  0.00000000000E+00 0.  1.
         -5    1    3    3    0  504  0.23994268737E+02  0.57233525803E+01  0.29519750879E+02  0.38755482050E+02  0.47000000000E+01 0.  1.
<mgrwt>
<rscale>  2 0.18132603E+03</rscale>
<asrwt>0</asrwt>
<pdfrwt beam="1">  1       21 0.28787937E-01 0.18138851E+03</pdfrwt>
<pdfrwt beam="2">  1       21 0.33155152E-01 0.18138851E+03</pdfrwt>
<totfact> 0.10155846E+05</totfact>
</mgrwt>
</event>
<event>
12    1  0.2736842E-001  0.1946488E+03  0.7546771E-02  0.1154648E+00
         21   -1    0    0  502  503  0.00000000000E+00  0.00000000000E+00  0.52053963079E+03  0.52053963079E+03  0.00000000000E+00 0. -1.
         21   -1    0    0  503  504 -0.00000000000E+00 -0.00000000000E+00 -0.11603558165E+03  0.11603558165E+03  0.00000000000E+00 0. -1.
         -6    2    1    2    0  504  0.64816813590E+02 -0.56785026444E+02  0.62759837733E+01  0.19332163485E+03  0.17293960789E+03 0.  0.
        -24    2    3    3    0    0  0.10983274671E+03 -0.49266731044E+02 -0.10172182914E+02  0.14458159804E+03  0.79435018403E+02 0.  0.
          6    2    1    2  502    0 -0.64816813590E+02  0.56785026444E+02  0.39822806537E+03  0.44325357760E+03  0.17453476288E+03 0.  0.
         24    2    5    5    0    0  0.14101369379E+02  0.67459710068E+02  0.15733476028E+03  0.18949443410E+03  0.80026574713E+02 0.  0.
          4    1    6    6  501    0  0.41766057145E+02  0.35611009701E+02  0.12441452042E+03  0.13598353001E+03  0.00000000000E+00 0. -1.
         -3    1    6    6    0  501 -0.27664687766E+02  0.31848700366E+02  0.32920239862E+02  0.53510904092E+02  0.00000000000E+00 0.  1.
          5    1    5    5  502    0 -0.78918182969E+02 -0.10674683624E+02  0.24089330508E+03  0.25375914350E+03  0.47000000000E+01 0. -1.
         11    1    4    4    0    0  0.39795079221E+02 -0.59902152224E+02  0.51596759926E+01  0.72100890616E+02  0.00000000000E+00 0. -1.
        -12    1    4    4    0    0  0.70037667492E+02  0.10635421180E+02 -0.15331858907E+02  0.72480707426E+02  0.00000000000E+00 0.  1.
         -5    1    3    3    0  504 -0.45015933123E+02 -0.75182954002E+01  0.16448166688E+02  0.48740036808E+02  0.47000000000E+01 0.  1.
<mgrwt>
<rscale>  2 0.19429052E+03</rscale>
<asrwt>0</asrwt>
<pdfrwt beam="1">  1       21 0.80083019E-01 0.19464877E+03</pdfrwt>
<pdfrwt beam="2">  1       21 0.17851628E-01 0.19464877E+03</pdfrwt>
<totfact> 0.39077995E+04</totfact>
</mgrwt>
</event>
<event>
12    1  0.2736842E-001  0.2582583E+03  0.7546771E-02  0.1108280E+00
         21   -1    0    0  502  503  0.00000000000E+00  0.00000000000E+00  0.24752306817E+03  0.24752306817E+03  0.00000000000E+00 0. -1.
         21   -1    0    0  503  504 -0.00000000000E+00 -0.00000000000E+00 -0.13362256615E+04  0.13362256615E+04  0.00000000000E+00 0.  1.
         -6    2    1    2    0  504 -0.11687953791E+02 -0.19105737280E+03 -0.12519664003E+04  0.12782124242E+04  0.17253291307E+03 0.  0.
        -24    2    3    3    0    0  0.38407535557E+02 -0.92943595403E+02 -0.89230154152E+03  0.90202527402E+03  0.85638211402E+02 0.  0.
          6    2    1    2  502    0  0.11687953791E+02  0.19105737280E+03  0.16326380695E+03  0.30553630542E+03  0.17337195652E+03 0.  0.
         24    2    5    5    0    0 -0.31636744361E+02  0.19436401204E+03  0.12961700896E+03  0.25038052288E+03  0.84330210811E+02 0.  0.
          4    1    6    6  501    0 -0.52048275983E+02  0.10611006666E+03  0.10076670839E+03  0.15531354995E+03  0.00000000000E+00 0. -1.
         -3    1    6    6    0  501  0.20411531622E+02  0.88253945385E+02  0.28850300572E+02  0.95066972931E+02  0.00000000000E+00 0.  1.
          5    1    5    5  502    0  0.43324698152E+02 -0.33066392460E+01  0.33646797988E+02  0.55155782542E+02  0.47000000000E+01 0. -1.
         13    1    4    4    0    0  0.11624030756E+02  0.16043360781E+02 -0.12545309131E+03  0.12700781723E+03  0.00000000000E+00 0. -1.
        -14    1    4    4    0    0  0.26783504801E+02 -0.10898695618E+03 -0.76684845021E+03  0.77501745679E+03  0.00000000000E+00 0.  1.
         -5    1    3    3    0  504 -0.50095489348E+02 -0.98113777394E+02 -0.35966485875E+03  0.37618715022E+03  0.47000000000E+01 0.  1.
<mgrwt>
<rscale>  2 0.25811758E+03</rscale>
<asrwt>0</asrwt>
<pdfrwt beam="1">  1       21 0.38080472E-01 0.25825833E+03</pdfrwt>
<pdfrwt beam="2">  1       21 0.20557318E+00 0.25825833E+03</pdfrwt>
<totfact> 0.76960996E+02</totfact>
</mgrwt>
</event>
<event>
12    1  0.2736842E-001  0.2093653E+03  0.7546771E-02  0.1142428E+00
         21   -1    0    0  502  503  0.00000000000E+00  0.00000000000E+00  0.19831216013E+04  0.19831216013E+04  0.00000000000E+00 0. -1.
         21   -1    0    0  503  504 -0.00000000000E+00 -0.00000000000E+00 -0.37574027922E+02  0.37574027922E+02  0.00000000000E+00 0. -1.
         -6    2    1    2    0  504 -0.92727609589E+02 -0.67098791433E+02  0.31807994106E+03  0.37981637373E+03  0.17316169167E+03 0.  0.
        -24    2    3    3    0    0 -0.89400927763E+02 -0.94872910762E+02  0.16973747095E+03  0.22878641991E+03  0.80864218340E+02 0.  0.
          6    2    1    2  502    0  0.92727609589E+02  0.67098791433E+02  0.16274676323E+04  0.16408792555E+04  0.17530881165E+03 0.  0.
         24    2    5    5    0    0  0.11126827899E+02  0.68372067284E+02  0.12649294760E+04  0.12692392232E+04  0.78250115597E+02 0.  0.
          4    1    6    6  501    0  0.16037224165E+02 -0.14401690276E+02  0.24835862979E+03  0.24929221855E+03  0.00000000000E+00 0. -1.
         -3    1    6    6    0  501 -0.49103962661E+01  0.82773757560E+02  0.10165708462E+04  0.10199470046E+04  0.00000000000E+00 0.  1.
          5    1    5    5  502    0  0.81600781690E+02 -0.12732758515E+01  0.36253815632E+03  0.37164003228E+03  0.47000000000E+01 0. -1.
         13    1    4    4    0    0 -0.49457298057E+02 -0.70372893398E+02  0.15890660842E+03  0.18069222080E+03  0.00000000000E+00 0. -1.
        -14    1    4    4    0    0 -0.39943629706E+02 -0.24500017364E+02  0.10830862529E+02  0.48094199110E+02  0.00000000000E+00 0.  1.
         -5    1    3    3    0  504 -0.33266818260E+01  0.27774119329E+02  0.14834247010E+03  0.15102995383E+03  0.47000000000E+01 0.  1.
<mgrwt>
<rscale>  2 0.20891524E+03</rscale>
<asrwt>0</asrwt>
<pdfrwt beam="1">  1       21 0.30509555E+00 0.20936532E+03</pdfrwt>
<pdfrwt beam="2">  1       21 0.57806212E-02 0.20936532E+03</pdfrwt>
<totfact> 0.65828705E+03</totfact>
</mgrwt>
</event>
<event>
12    1  0.2736842E-001  0.1855202E+03  0.7546771E-02  0.1165958E+00
         21   -1    0    0  502  503  0.00000000000E+00  0.00000000000E+00  0.26877723704E+03  0.26877723704E+03  0.00000000000E+00 0.  1.
         21   -1    0    0  503  504 -0.00000000000E+00 -0.00000000000E+00 -0.14394399258E+03  0.14394399258E+03  0.00000000000E+00 0. -1.
         -6    2    1    2    0  504  0.26288874101E+02  0.46106678278E+02 -0.26165941397E+02  0.17351732485E+03  0.16311552608E+03 0.  0.
        -24    2    3    3    0    0  0.30862109591E+02  0.59526445679E+02 -0.71523773651E+02  0.12576350210E+03  0.78771446096E+02 0.  0.
          6    2    1    2  502    0 -0.26288874101E+02 -0.46106678278E+02  0.15099918586E+03  0.23920390477E+03  0.17776620389E+03 0.  0.
         24    2    5    5    0    0  0.44940444561E+02 -0.29275182395E+02  0.34517637657E+02  0.10155596195E+03  0.79028262270E+02 0.  0.
          2    1    6    6  501    0  0.41002268196E+02 -0.49060041340E+02  0.28409003445E+01  0.64001127867E+02  0.00000000000E+00 0. -1.
         -1    1    6    6    0  501  0.39381763649E+01  0.19784858945E+02  0.31676737313E+02  0.37554834087E+02  0.00000000000E+00 0.  1.
          5    1    5    5  502    0 -0.71229318662E+02 -0.16831495883E+02  0.11648154820E+03  0.13764794282E+03  0.47000000000E+01 0. -1.
         13    1    4    4    0    0  0.37083217703E+02  0.21837454039E+02 -0.75963997210E+02  0.87307321035E+02  0.00000000000E+00 0. -1.
        -14    1    4    4    0    0 -0.62211081119E+01  0.37688991640E+02  0.44402235597E+01  0.38456181067E+02  0.00000000000E+00 0.  1.
         -5    1    3    3    0  504 -0.45732354898E+01 -0.13419767401E+02  0.45357832254E+02  0.47753822745E+02  0.47000000000E+01 0.  1.
<mgrwt>
<rscale>  2 0.18191999E+03</rscale>
<asrwt>0</asrwt>
<pdfrwt beam="1">  1       21 0.41350344E-01 0.18552023E+03</pdfrwt>
<pdfrwt beam="2">  1       21 0.22145230E-01 0.18552023E+03</pdfrwt>
<totfact> 0.10765148E+05</totfact>
</mgrwt>
</event>
<event>
12    1  0.2736842E-001  0.1943102E+03  0.7546771E-02  0.1154748E+00
         21   -1    0    0  502  503  0.00000000000E+00  0.00000000000E+00  0.40030375439E+02  0.40030375439E+02  0.00000000000E+00 0. -1.
         21   -1    0    0  503  504 -0.00000000000E+00 -0.00000000000E+00 -0.12805344478E+04  0.12805344478E+04  0.00000000000E+00 0. -1.
         -6    2    1    2    0  504 -0.33354830493E+01  0.88211201914E+02 -0.95982669937E+03  0.97919077148E+03  0.17249618122E+03 0.  0.
        -24    2    3    3    0    0  0.59849735591E+02  0.57952176561E+02 -0.47736360454E+03  0.49164517532E+03  0.83057340724E+02 0.  0.
          6    2    1    2  502    0  0.33354830493E+01 -0.88211201914E+02 -0.28067737299E+03  0.34137405176E+03  0.17310145556E+03 0.  0.
         24    2    5    5    0    0  0.32473592112E+02 -0.10894653593E+03 -0.14220165031E+03  0.19827758343E+03  0.78541765093E+02 0.  0.
          2    1    6    6  501    0  0.40338238362E+02 -0.11671829655E+03 -0.14055470087E+03  0.18709879252E+03  0.00000000000E+00 0. -1.
         -1    1    6    6    0  501 -0.78646462508E+01  0.77717606219E+01 -0.16469494384E+01  0.11178790913E+02  0.00000000000E+00 0.  1.
          5    1    5    5  502    0 -0.29138109062E+02  0.20735334017E+02 -0.13847572268E+03  0.14309646833E+03  0.47000000000E+01 0. -1.
         13    1    4    4    0    0  0.24404474157E+02  0.37420114660E+02 -0.41261981851E+03  0.41503127348E+03  0.00000000000E+00 0. -1.
        -14    1    4    4    0    0  0.35445261434E+02  0.20532061900E+02 -0.64743786031E+02  0.76613901830E+02  0.00000000000E+00 0.  1.
         -5    1    3    3    0  504 -0.63185218641E+02  0.30259025353E+02 -0.48246309483E+03  0.48754559617E+03  0.47000000000E+01 0.  1.
<mgrwt>
<rscale>  2 0.19417531E+03</rscale>
<asrwt>0</asrwt>
<pdfrwt beam="1">  1       21 0.61585192E-02 0.19431020E+03</pdfrwt>
<pdfrwt beam="2">  1       21 0.19700530E+00 0.19431020E+03</pdfrwt>
<totfact> 0.26437890E+04</totfact>
</mgrwt>
</event>
<event>
12    1  0.2736842E-001  0.2435137E+03  0.7546771E-02  0.1117490E+00
         21   -1    0    0  502  503  0.00000000000E+00  0.00000000000E+00  0.26104779460E+04  0.26104779460E+04  0.00000000000E+00 0. -1.
         21   -1    0    0  503  504 -0.00000000000E+00 -0.00000000000E+00 -0.32057953877E+02  0.32057953877E+02  0.00000000000E+00 0.  1.
         -6    2    1    2    0  504 -0.55114269095E+02 -0.16207890432E+03  0.20026366435E+04  0.20173755919E+04  0.17304218848E+03 0.  0.
        -24    2    3    3    0    0 -0.67078738110E+02 -0.16049817969E+03  0.19909028170E+04  0.19998993253E+04  0.75126971973E+02 0.  0.
          6    2    1    2  502    0  0.55114269095E+02  0.16207890432E+03  0.57578334862E+03  0.62516030798E+03  0.17318138539E+03 0.  0.
         24    2    5    5    0    0  0.87151055571E+02  0.15503927946E+03  0.54883579334E+03  0.58244997268E+03  0.79967230564E+02 0.  0.
          4    1    6    6  501    0  0.94526297892E+02  0.11463751331E+03  0.36502410529E+03  0.39410604904E+03  0.00000000000E+00 0. -1.
         -3    1    6    6    0  501 -0.73752423215E+01  0.40401766149E+02  0.18381168805E+03  0.18834392364E+03  0.00000000000E+00 0.  1.
          5    1    5    5  502    0 -0.32036786476E+02  0.70396248649E+01  0.26947555283E+02  0.42710335303E+02  0.47000000000E+01 0. -1.
         11    1    4    4    0    0 -0.45573959176E+02 -0.54563868646E+02  0.49277966769E+03  0.49788151443E+03  0.00000000000E+00 0. -1.
        -12    1    4    4    0    0 -0.21504778934E+02 -0.10593431104E+03  0.14981231493E+04  0.15020178109E+04  0.00000000000E+00 0.  1.
         -5    1    3    3    0  504  0.11964469015E+02 -0.15807246290E+01  0.11733826539E+02  0.17476266604E+02  0.47000000000E+01 0.  1.
<mgrwt>
<rscale>  2 0.24348900E+03</rscale>
<asrwt>0</asrwt>
<pdfrwt beam="1">  1       21 0.40161183E+00 0.24351375E+03</pdfrwt>
<pdfrwt beam="2">  1       21 0.49319949E-02 0.24351375E+03</pdfrwt>
<totfact> 0.21943354E+03</totfact>
</mgrwt>
</event>
<event>
12    1  0.2736842E-001  0.2291711E+03  0.7546771E-02  0.1127404E+00
         21   -1    0    0  502  503  0.00000000000E+00  0.00000000000E+00  0.16618978144E+03  0.16618978144E+03  0.00000000000E+00 0. -1.
         21   -1    0    0  503  504 -0.00000000000E+00 -0.00000000000E+00 -0.79631426220E+03  0.79631426220E+03  0.00000000000E+00 0. -1.
         -6    2    1    2    0  504  0.44917064585E+02 -0.14435736031E+03  0.59507006566E+02  0.23579159923E+03  0.17088008741E+03 0.  0.
        -24    2    3    3    0    0  0.92615587619E+02 -0.10948418826E+03  0.22855863768E+02  0.16610168966E+03  0.80640847277E+02 0.  0.
          6    2    1    2  502    0 -0.44917064585E+02  0.14435736031E+03 -0.68963148732E+03  0.72671244441E+03  0.17222891276E+03 0.  0.
         24    2    5    5    0    0 -0.95622810958E+02  0.10136077644E+03 -0.43457854194E+03  0.46309553697E+03  0.78620851384E+02 0.  0.
          2    1    6    6  501    0 -0.74810999936E+02  0.11321351749E+03 -0.37965005094E+03  0.40317260253E+03  0.00000000000E+00 0. -1.
         -1    1    6    6    0  501 -0.20811811022E+02 -0.11852741048E+02 -0.54928491005E+02  0.59922934445E+02  0.00000000000E+00 0.  1.
          5    1    5    5  502    0  0.50705746373E+02  0.42996583865E+02 -0.25505294538E+03  0.26361690744E+03  0.47000000000E+01 0. -1.
         13    1    4    4    0    0  0.66816431041E+01 -0.47428251906E+02  0.35125362758E+02  0.59395913515E+02  0.00000000000E+00 0. -1.
        -14    1    4    4    0    0  0.85933944515E+02 -0.62055936353E+02 -0.12269498990E+02  0.10670577614E+03  0.00000000000E+00 0.  1.
         -5    1    3    3    0  504 -0.47698523033E+02 -0.34873172047E+02  0.36651142797E+02  0.69689909574E+02  0.47000000000E+01 0.  1.
<mgrwt>
<rscale>  2 0.22891768E+03</rscale>
<asrwt>0</asrwt>
<pdfrwt beam="1">  1       21 0.25567658E-01 0.22917109E+03</pdfrwt>
<pdfrwt beam="2">  1       21 0.12250989E+00 0.22917109E+03</pdfrwt>
<totfact> 0.70881188E+03</totfact>
</mgrwt>
</event>
<event>
12    1  0.2736842E-001  0.3472532E+03  0.7546771E-02  0.1063907E+00
         21   -1    0    0  502  503  0.00000000000E+00  0.00000000000E+00  0.45144159674E+03  0.45144159674E+03  0.00000000000E+00 0. -1.
         21   -1    0    0  503  504 -0.00000000000E+00 -0.00000000000E+00 -0.42112201390E+03  0.42112201390E+03  0.00000000000E+00 0.  1.
         -6    2    1    2    0  504  0.97357992037E+02 -0.28381386480E+03 -0.24970271576E+03  0.42647247589E+03  0.17175109305E+03 0.  0.
        -24    2    3    3    0    0  0.89535666341E+02 -0.24047186824E+03 -0.13067189684E+03  0.29946797479E+03  0.82234836539E+02 0.  0.
          6    2    1    2  502    0 -0.97357992037E+02  0.28381386480E+03  0.28002229860E+03  0.44609113476E+03  0.17480252953E+03 0.  0.
         24    2    5    5    0    0 -0.27444929868E+02  0.74333790772E+02  0.14052745172E+03  0.18484290035E+03  0.90223037499E+02 0.  0.
          2    1    6    6  501    0 -0.10548169790E+02  0.69609494385E+02  0.14941800489E+03  0.16517410747E+03  0.00000000000E+00 0. -1.
         -1    1    6    6    0  501 -0.16896760078E+02  0.47242963867E+01 -0.88905531687E+01  0.19668792874E+02  0.00000000000E+00 0.  1.
          5    1    5    5  502    0 -0.69913062170E+02  0.20948007403E+03  0.13949484688E+03  0.26124823441E+03  0.47000000000E+01 0. -1.
         11    1    4    4    0    0 -0.12944970472E+02 -0.63468709722E+02 -0.35735907592E+02  0.73979081272E+02  0.00000000000E+00 0. -1.
        -12    1    4    4    0    0  0.10248063681E+03 -0.17700315852E+03 -0.94935989249E+02  0.22548889352E+03  0.00000000000E+00 0.  1.
         -5    1    3    3    0  504  0.78223256967E+01 -0.43341996561E+02 -0.11903081892E+03  0.12700450109E+03  0.47000000000E+01 0.  1.
<mgrwt>
<rscale>  2 0.34687111E+03</rscale>
<asrwt>0</asrwt>
<pdfrwt beam="1">  1       21 0.69452553E-01 0.34725324E+03</pdfrwt>
<pdfrwt beam="2">  1       21 0.64788002E-01 0.34725324E+03</pdfrwt>
<totfact> 0.37670986E+03</totfact>
</mgrwt>
</event>
<event>
12    1  0.2736842E-001  0.1815693E+03  0.7546771E-02  0.1166613E+00
         21   -1    0    0  502  503  0.00000000000E+00  0.00000000000E+00  0.15107955880E+03  0.15107955880E+03  0.00000000000E+00 0.  1.
         21   -1    0    0  503  504 -0.00000000000E+00 -0.00000000000E+00 -0.30130467758E+03  0.30130467758E+03  0.00000000000E+00 0.  1.
         -6    2    1    2    0  504 -0.25498733274E+02  0.43410637691E+02 -0.19523209294E+03  0.26661390829E+03  0.17444981260E+03 0.  0.
        -24    2    3    3    0    0  0.19878640056E+02 -0.35167313096E+02 -0.10893525712E+03  0.14130295812E+03  0.80422232554E+02 0.  0.
          6    2    1    2  502    0  0.25498733274E+02 -0.43410637691E+02  0.45006974154E+02  0.18577032810E+03  0.17306160237E+03 0.  0.
         24    2    5    5    0    0  0.59506350324E+02 -0.49425642146E+02 -0.17436637291E+02  0.11425814098E+03  0.82261696003E+02 0.  0.
          2    1    6    6  501    0  0.54758889031E+02  0.40898904218E+01 -0.24389900605E+02  0.60084360554E+02  0.00000000000E+00 0. -1.
         -1    1    6    6    0  501  0.47474612929E+01 -0.53515532568E+02  0.69532633135E+01  0.54173780425E+02  0.00000000000E+00 0.  1.
          5    1    5    5  502    0 -0.34007617051E+02  0.60150044558E+01  0.62443611445E+02  0.71512187118E+02  0.47000000000E+01 0. -1.
         13    1    4    4    0    0  0.28535498882E+02  0.19543129915E+02 -0.40407566142E+02  0.53188156810E+02  0.00000000000E+00 0. -1.
        -14    1    4    4    0    0 -0.86568588262E+01 -0.54710443011E+02 -0.68527690977E+02  0.88114801310E+02  0.00000000000E+00 0.  1.
         -5    1    3    3    0  504 -0.45377373330E+02  0.78577950787E+02 -0.86296835818E+02  0.12531095017E+03  0.47000000000E+01 0.  1.
<mgrwt>
<rscale>  2 0.18123502E+03</rscale>
<asrwt>0</asrwt>
<pdfrwt beam="1">  1       21 0.23243009E-01 0.18156929E+03</pdfrwt>
<pdfrwt beam="2">  1       21 0.46354566E-01 0.18156929E+03</pdfrwt>
<totfact> 0.77917841E+04</totfact>
</mgrwt>
</event>
<event>
12    1  0.2736842E-001  0.2982822E+03  0.7546771E-02  0.1086280E+00
         21   -1    0    0  502  503  0.00000000000E+00  0.00000000000E+00  0.13499464595E+04  0.13499464595E+04  0.00000000000E+00 0. -1.
         21   -1    0    0  503  504 -0.00000000000E+00 -0.00000000000E+00 -0.75309835385E+02  0.75309835385E+02  0.00000000000E+00 0.  1.
         -6    2    1    2    0  504  0.70388269478E+01  0.24278197396E+03  0.38009570798E+03  0.48229516138E+03  0.17071392297E+03 0.  0.
        -24    2    3    3    0    0  0.59594466657E+02  0.18132606383E+03  0.21724734257E+03  0.30041441948E+03  0.81374281546E+02 0.  0.
          6    2    1    2  502    0 -0.70388269478E+01 -0.24278197396E+03  0.89454091616E+03  0.94296113354E+03  0.17314622926E+03 0.  0.
         24    2    5    5    0    0 -0.50515691978E+02 -0.11570256301E+03  0.61592586290E+03  0.63362660202E+03  0.78607149689E+02 0.  0.
          4    1    6    6  501    0 -0.54340217012E+02 -0.12227352940E+03  0.60835883718E+03  0.62289979125E+03  0.00000000000E+00 0. -1.
         -3    1    6    6    0  501  0.38245250340E+01  0.65709663853E+01  0.75670257203E+01  0.10726810767E+02  0.00000000000E+00 0.  1.
          5    1    5    5  502    0  0.43476865030E+02 -0.12707941095E+03  0.27861505327E+03  0.30933453151E+03  0.47000000000E+01 0. -1.
         13    1    4    4    0    0 -0.14323787810E+02  0.37171471234E+01  0.11516522793E+02  0.18751489999E+02  0.00000000000E+00 0. -1.
        -14    1    4    4    0    0  0.73918254467E+02  0.17760891671E+03  0.20573081977E+03  0.28166292948E+03  0.00000000000E+00 0.  1.
         -5    1    3    3    0  504 -0.52555639710E+02  0.61455910129E+02  0.16284836542E+03  0.18188074190E+03  0.47000000000E+01 0.  1.
<mgrwt>
<rscale>  2 0.29793022E+03</rscale>
<asrwt>0</asrwt>
<pdfrwt beam="1">  1       21 0.20768405E+00 0.29828216E+03</pdfrwt>
<pdfrwt beam="2">  1       21 0.11586130E-01 0.29828216E+03</pdfrwt>
<totfact> 0.69400449E+03</totfact>
</mgrwt>
</event>
<event>
12    1  0.2736842E-001  0.1897503E+03  0.7546771E-02  0.1158786E+00
         21   -1    0    0  502  503  0.00000000000E+00  0.00000000000E+00  0.14407553488E+03  0.14407553488E+03  0.00000000000E+00 0.  1.
         21   -1    0    0  503  504 -0.00000000000E+00 -0.00000000000E+00 -0.28058516370E+03  0.28058516370E+03  0.00000000000E+00 0.  1.
         -6    2    1    2    0  504  0.68093832202E+02 -0.35106803761E+02 -0.13905181592E+03  0.23489334661E+03  0.17311908941E+03 0.  0.
        -24    2    3    3    0    0  0.91172744705E+02  0.19408119231E+02 -0.62558604927E+02  0.13805423076E+03  0.80350775423E+02 0.  0.
          6    2    1    2  502    0 -0.68093832202E+02  0.35106803761E+02  0.25421870970E+01  0.18976735197E+03  0.17359702620E+03 0.  0.
         24    2    5    5    0    0  0.56673012262E+01 -0.45566222219E+01 -0.44840943138E+02  0.93428661943E+02  0.81641432997E+02 0.  0.
          4    1    6    6  501    0 -0.52006748869E+01 -0.29208222180E+02 -0.56700371639E+02  0.63992963724E+02  0.00000000000E+00 0. -1.
         -3    1    6    6    0  501  0.10867976113E+02  0.24651599958E+02  0.11859428501E+02  0.29435698219E+02  0.00000000000E+00 0.  1.
          5    1    5    5  502    0 -0.73761133428E+02  0.39663425983E+02  0.47383130235E+02  0.96338690028E+02  0.47000000000E+01 0. -1.
         13    1    4    4    0    0  0.19999188859E+02 -0.28289921735E+02 -0.54095491061E+01  0.35064946147E+02  0.00000000000E+00 0. -1.
        -14    1    4    4    0    0  0.71173555847E+02  0.47698040966E+02 -0.57149055821E+02  0.10298928461E+03  0.00000000000E+00 0.  1.
         -5    1    3    3    0  504 -0.23078912503E+02 -0.54514922992E+02 -0.76493210994E+02  0.96839115854E+02  0.47000000000E+01 0.  1.
<mgrwt>
<rscale>  2 0.18964094E+03</rscale>
<asrwt>0</asrwt>
<pdfrwt beam="1">  1       21 0.22165467E-01 0.18975032E+03</pdfrwt>
<pdfrwt beam="2">  1       21 0.43166948E-01 0.18975032E+03</pdfrwt>
<totfact> 0.98314290E+04</totfact>
</mgrwt>
</event>
<event>
12    1  0.2736842E-001  0.1907960E+03  0.7546771E-02  0.1158019E+00
         21   -1    0    0  502  503  0.00000000000E+00  0.00000000000E+00  0.54183967786E+02  0.54183967786E+02  0.00000000000E+00 0.  1.
         21   -1    0    0  503  504 -0.00000000000E+00 -0.00000000000E+00 -0.11164903060E+04  0.11164903060E+04  0.00000000000E+00 0.  1.
         -6    2    1    2    0  504  0.22169107354E+02  0.71715631079E+02 -0.90333220513E+03  0.92326170355E+03  0.17540951898E+03 0.  0.
        -24    2    3    3    0    0 -0.41382372218E+02  0.61740454593E+02 -0.36361712584E+03  0.37970604723E+03  0.80217726432E+02 0.  0.
          6    2    1    2  502    0 -0.22169107354E+02 -0.71715631079E+02 -0.15897413305E+03  0.24741257021E+03  0.17408504777E+03 0.  0.
         24    2    5    5    0    0 -0.74883619325E+02 -0.46532720030E+02 -0.63310194708E+02  0.13522220573E+03  0.80647465510E+02 0.  0.
          4    1    6    6  501    0 -0.43344783977E+02 -0.69538751629E+01 -0.71554015403E+02  0.83947029716E+02  0.00000000000E+00 0. -1.
         -3    1    6    6    0  501 -0.31538835348E+02 -0.39578844867E+02  0.82438206950E+01  0.51275176019E+02  0.00000000000E+00 0.  1.
          5    1    5    5  502    0  0.52714511972E+02 -0.25182911050E+02 -0.95663938343E+02  0.11219036447E+03  0.47000000000E+01 0. -1.
         13    1    4    4    0    0  0.21061496188E+02  0.33940102376E+01 -0.11080497122E+03  0.11283992013E+03  0.00000000000E+00 0. -1.
        -14    1    4    4    0    0 -0.62443868406E+02  0.58346444356E+02 -0.25281215461E+03  0.26686612709E+03  0.00000000000E+00 0.  1.
         -5    1    3    3    0  504  0.63551479572E+02  0.99751764862E+01 -0.53971507929E+03  0.54355565632E+03  0.47000000000E+01 0.  1.
<mgrwt>
<rscale>  2 0.19049100E+03</rscale>
<asrwt>0</asrwt>
<pdfrwt beam="1">  1       21 0.83359962E-02 0.19079597E+03</pdfrwt>
<pdfrwt beam="2">  1       21 0.17176772E+00 0.19079597E+03</pdfrwt>
<totfact> 0.23194205E+04</totfact>
</mgrwt>
</event>
<event>
12    1  0.2736842E-001  0.2955859E+03  0.7546771E-02  0.1087481E+00
         21   -1    0    0  502  503  0.00000000000E+00  0.00000000000E+00  0.72987172190E+02  0.72987172190E+02  0.00000000000E+00 0.  1.
         21   -1    0    0  503  504 -0.00000000000E+00 -0.00000000000E+00 -0.13686976287E+04  0.13686976287E+04  0.00000000000E+00 0.  1.
         -6    2    1    2    0  504 -0.11369977088E+03  0.21008109579E+03 -0.90331000635E+03  0.95041182867E+03  0.17393093969E+03 0.  0.
        -24    2    3    3    0    0 -0.12056909853E+03  0.87453420013E+02 -0.54269666918E+03  0.56942783494E+03  0.86852612339E+02 0.  0.
          6    2    1    2  502    0  0.11369977088E+03 -0.21008109579E+03 -0.39240045013E+03  0.49127297220E+03  0.17409570714E+03 0.  0.
         24    2    5    5    0    0  0.83545415025E+01 -0.10070892232E+03 -0.25615730994E+03  0.28720393258E+03  0.81593174071E+02 0.  0.
          2    1    6    6  501    0  0.37547220597E+02 -0.27652493657E+02 -0.13421997878E+03  0.14208960864E+03  0.00000000000E+00 0. -1.
         -1    1    6    6    0  501 -0.29192679094E+02 -0.73056428666E+02 -0.12193733116E+03  0.14511432394E+03  0.00000000000E+00 0.  1.
          5    1    5    5  502    0  0.10534522938E+03 -0.10937217347E+03 -0.13624314019E+03  0.20406903962E+03  0.47000000000E+01 0. -1.
         13    1    4    4    0    0 -0.50948202571E+02 -0.92614900295E+01 -0.20033876132E+03  0.20692296593E+03  0.00000000000E+00 0. -1.
        -14    1    4    4    0    0 -0.69620895963E+02  0.96714910042E+02 -0.34235790787E+03  0.36250486901E+03  0.00000000000E+00 0.  1.
         -5    1    3    3    0  504  0.68693276513E+01  0.12262767578E+03 -0.36061333717E+03  0.38098399372E+03  0.47000000000E+01 0.  1.
<mgrwt>
<rscale>  2 0.29556164E+03</rscale>
<asrwt>0</asrwt>
<pdfrwt beam="1">  1       21 0.11228797E-01 0.29558589E+03</pdfrwt>
<pdfrwt beam="2">  1       21 0.21056883E+00 0.29558589E+03</pdfrwt>
<totfact> 0.70478247E+03</totfact>
</mgrwt>
</event>
<event>
12    1  0.2736842E-001  0.2192852E+03  0.7546771E-02  0.1135008E+00
         21   -1    0    0  502  503  0.00000000000E+00  0.00000000000E+00  0.12996655873E+03  0.12996655873E+03  0.00000000000E+00 0. -1.
         21   -1    0    0  503  504 -0.00000000000E+00 -0.00000000000E+00 -0.39808451608E+03  0.39808451608E+03  0.00000000000E+00 0.  1.
         -6    2    1    2    0  504 -0.75495424971E+02 -0.11166367959E+03 -0.58511341090E+02  0.22695719830E+03  0.17296721161E+03 0.  0.
        -24    2    3    3    0    0 -0.39494545848E+02 -0.10386366791E+03 -0.10127443858E+03  0.17032084966E+03  0.80032488755E+02 0.  0.
          6    2    1    2  502    0  0.75495424971E+02  0.11166367959E+03 -0.20960661626E+03  0.30109387650E+03  0.16898003538E+03 0.  0.
         24    2    5    5    0    0 -0.61011462311E+01  0.93708602329E+02 -0.82203894793E+02  0.14866707876E+03  0.80783004732E+02 0.  0.
          2    1    6    6  501    0 -0.42379180296E+02  0.38872350914E+02 -0.30997369690E+02  0.65329101600E+02  0.00000000000E+00 0. -1.
         -1    1    6    6    0  501  0.36278034065E+02  0.54836251414E+02 -0.51206525103E+02  0.83337977165E+02  0.00000000000E+00 0.  1.
          5    1    5    5  502    0  0.81596571202E+02  0.17955077263E+02 -0.12740272147E+03  0.15242679774E+03  0.47000000000E+01 0. -1.
         11    1    4    4    0    0 -0.37888275074E+02 -0.75919804722E+02 -0.24066633007E+02  0.88196037107E+02  0.00000000000E+00 0. -1.
        -12    1    4    4    0    0 -0.16062707748E+01 -0.27943863188E+02 -0.77207805575E+02  0.82124812556E+02  0.00000000000E+00 0.  1.
         -5    1    3    3    0  504 -0.36000879123E+02 -0.78000116814E+01  0.42763097491E+02  0.56636348636E+02  0.47000000000E+01 0.  1.
<mgrwt>
<rscale>  2 0.21849818E+03</rscale>
<asrwt>0</asrwt>
<pdfrwt beam="1">  1       21 0.19994855E-01 0.21928519E+03</pdfrwt>
<pdfrwt beam="2">  1       21 0.61243771E-01 0.21928519E+03</pdfrwt>
<totfact> 0.56555145E+04</totfact>
</mgrwt>
</event>
<event>
12    1  0.2736842E-001  0.1756773E+03  0.7546771E-02  0.1172214E+00
         21   -1    0    0  502  503  0.00000000000E+00  0.00000000000E+00  0.79507146892E+02  0.79507146892E+02  0.00000000000E+00 0. -1.
         21   -1    0    0  503  504 -0.00000000000E+00 -0.00000000000E+00 -0.68604955001E+03  0.68604955001E+03  0.00000000000E+00 0. -1.
         -6    2    1    2    0  504  0.25600927192E+02  0.20257358998E+02 -0.55578270498E+03  0.58269319065E+03  0.17196270295E+03 0.  0.
        -24    2    3    3    0    0  0.52469128271E+02  0.69612609786E+02 -0.36076392128E+03  0.37968516862E+03  0.80070565844E+02 0.  0.
          6    2    1    2  502    0 -0.25600927192E+02 -0.20257358998E+02 -0.50759698140E+02  0.18286350626E+03  0.17261734240E+03 0.  0.
         24    2    5    5    0    0  0.24437885650E+02  0.35901667480E+02 -0.56648443551E+02  0.10726928447E+03  0.80071925481E+02 0.  0.
          2    1    6    6  501    0  0.53861925442E+02  0.23318816815E+02 -0.41368858960E+02  0.71807079885E+02  0.00000000000E+00 0. -1.
         -1    1    6    6    0  501 -0.29424039791E+02  0.12582850665E+02 -0.15279584591E+02  0.35462204582E+02  0.00000000000E+00 0.  1.
          5    1    5    5  502    0 -0.50038812842E+02 -0.56159026477E+02  0.58887454112E+01  0.75594221790E+02  0.47000000000E+01 0. -1.
         11    1    4    4    0    0  0.36179658082E+01  0.46420107079E+02 -0.27037503991E+03  0.27435483999E+03  0.00000000000E+00 0. -1.
        -12    1    4    4    0    0  0.48851162463E+02  0.23192502706E+02 -0.90388881362E+02  0.10533032863E+03  0.00000000000E+00 0.  1.
         -5    1    3    3    0  504 -0.26868201080E+02 -0.49355250788E+02 -0.19501878370E+03  0.20300802202E+03  0.47000000000E+01 0.  1.
<mgrwt>
<rscale>  2 0.17551628E+03</rscale>
<asrwt>0</asrwt>
<pdfrwt beam="1">  1       21 0.12231868E-01 0.17567730E+03</pdfrwt>
<pdfrwt beam="2">  1       21 0.10554609E+00 0.17567730E+03</pdfrwt>
<totfact> 0.41289435E+04</totfact>
</mgrwt>
</event>
<event>
12    1  0.2736842E-001  0.2282709E+03  0.7546771E-02  0.1128199E+00
         21   -1    0    0  502  503  0.00000000000E+00  0.00000000000E+00  0.11957148813E+04  0.11957148813E+04  0.00000000000E+00 0. -1.
         21   -1    0    0  503  504 -0.00000000000E+00 -0.00000000000E+00 -0.43989463095E+02  0.43989463095E+02  0.00000000000E+00 0. -1.
         -6    2    1    2    0  504 -0.20476415685E+02  0.14730749052E+03  0.49621209749E+03  0.54619964336E+03  0.17317281642E+03 0.  0.
        -24    2    3    3    0    0  0.12725142240E+02  0.53921218693E+02  0.10857360698E+03  0.14606338089E+03  0.80478916712E+02 0.  0.
          6    2    1    2  502    0  0.20476415685E+02 -0.14730749052E+03  0.65551332075E+03  0.69350470107E+03  0.17068179857E+03 0.  0.
         24    2    5    5    0    0  0.31079927283E+02 -0.14768966207E+03  0.36820251416E+03  0.40595962617E+03  0.80323897371E+02 0.  0.
          4    1    6    6  501    0 -0.51426593487E+01 -0.10301649727E+03  0.29717835891E+03  0.31456926528E+03  0.00000000000E+00 0. -1.
         -3    1    6    6    0  501  0.36222586632E+02 -0.44673164795E+02  0.71024155246E+02  0.91390360890E+02  0.00000000000E+00 0.  1.
          5    1    5    5  502    0 -0.10603511598E+02  0.38217154302E+00  0.28731080659E+03  0.28754507489E+03  0.47000000000E+01 0. -1.
         13    1    4    4    0    0 -0.12956556863E+02  0.63484727285E+02  0.96222493402E+02  0.11600409993E+03  0.00000000000E+00 0. -1.
        -14    1    4    4    0    0  0.25681699103E+02 -0.95635085922E+01  0.12351113578E+02  0.30059280963E+02  0.00000000000E+00 0.  1.
         -5    1    3    3    0  504 -0.33201557925E+02  0.93386271830E+02  0.38763849051E+03  0.40013626247E+03  0.47000000000E+01 0.  1.
<mgrwt>
<rscale>  2 0.22779845E+03</rscale>
<asrwt>0</asrwt>
<pdfrwt beam="1">  1       21 0.18395611E+00 0.22827090E+03</pdfrwt>
<pdfrwt beam="2">  1       21 0.67676106E-02 0.22827090E+03</pdfrwt>
<totfact> 0.26793464E+04</totfact>
</mgrwt>
</event>
<event>
12    1  0.2736842E-001  0.2132118E+03  0.7546771E-02  0.1139070E+00
         21   -1    0    0  502  503  0.00000000000E+00  0.00000000000E+00  0.21978989334E+04  0.21978989334E+04  0.00000000000E+00 0.  1.
         21   -1    0    0  503  504 -0.00000000000E+00 -0.00000000000E+00 -0.27420047231E+02  0.27420047231E+02  0.00000000000E+00 0. -1.
         -6    2    1    2    0  504  0.61234701177E+02  0.10920357634E+03  0.53348079798E+03  0.57450938021E+03  0.17258086922E+03 0.  0.
        -24    2    3    3    0    0  0.87931588876E+02  0.24849110792E+02  0.34897469738E+03  0.36983160705E+03  0.81502365155E+02 0.  0.
          6    2    1    2  502    0 -0.61234701177E+02 -0.10920357634E+03  0.16369980882E+04  0.16508096005E+04  0.17243690557E+03 0.  0.
         24    2    5    5    0    0 -0.74961081206E+02 -0.22513108214E+02  0.62609470695E+03  0.63609220776E+03  0.80577360128E+02 0.  0.
          2    1    6    6  501    0  0.16999034051E+02 -0.76445203313E+01  0.83081958352E+02  0.85147035493E+02  0.00000000000E+00 0. -1.
         -1    1    6    6    0  501 -0.91960115257E+02 -0.14868587882E+02  0.54301274860E+03  0.55094517227E+03  0.00000000000E+00 0.  1.
          5    1    5    5  502    0  0.13726380029E+02 -0.86690468124E+02  0.10109033813E+04  0.10147173927E+04  0.47000000000E+01 0. -1.
         13    1    4    4    0    0 -0.12766867413E+02 -0.68379106911E+01  0.22911506006E+02  0.27105110840E+02  0.00000000000E+00 0. -1.
        -14    1    4    4    0    0  0.10069845629E+03  0.31687021483E+02  0.32606319138E+03  0.34272649621E+03  0.00000000000E+00 0.  1.
         -5    1    3    3    0  504 -0.26696887699E+02  0.84354465545E+02  0.18450610060E+03  0.20467777316E+03  0.47000000000E+01 0.  1.
<mgrwt>
<rscale>  2 0.21318265E+03</rscale>
<asrwt>0</asrwt>
<pdfrwt beam="1">  1       21 0.33813816E+00 0.21321179E+03</pdfrwt>
<pdfrwt beam="2">  1       21 0.42184705E-02 0.21321179E+03</pdfrwt>
<totfact> 0.71858136E+03</totfact>
</mgrwt>
</event>
<event>
12    1  0.2736842E-001  0.1912038E+03  0.7546771E-02  0.1160358E+00
         21   -1    0    0  502  503  0.00000000000E+00  0.00000000000E+00  0.12533719677E+04  0.12533719677E+04  0.00000000000E+00 0. -1.
         21   -1    0    0  503  504 -0.00000000000E+00 -0.00000000000E+00 -0.35724316784E+02  0.35724316784E+02  0.00000000000E+00 0. -1.
         -6    2    1    2    0  504  0.61921632446E+02 -0.30855039902E+01  0.27881485044E+03  0.33099090061E+03  0.16725264292E+03 0.  0.
        -24    2    3    3    0    0  0.98404864128E+02 -0.94386983099E+01  0.17322282627E+03  0.21899467371E+03  0.90442872923E+02 0.  0.
          6    2    1    2  502    0 -0.61921632446E+02  0.30855039902E+01  0.93883280043E+03  0.95810538383E+03  0.18087313359E+03 0.  0.
         24    2    5    5    0    0  0.26495747344E+02 -0.37705665778E+02  0.39721455147E+03  0.40778368683E+03  0.79902399743E+02 0.  0.
          2    1    6    6  501    0  0.31088046956E+02 -0.60950887899E+02  0.28554959152E+03  0.29363250265E+03  0.00000000000E+00 0. -1.
         -1    1    6    6    0  501 -0.45922996127E+01  0.23245222121E+02  0.11166495995E+03  0.11415118417E+03  0.00000000000E+00 0.  1.
          5    1    5    5  502    0 -0.88417379789E+02  0.40791169768E+02  0.54161824896E+03  0.55032169700E+03  0.47000000000E+01 0. -1.
         13    1    4    4    0    0  0.42506017176E+02  0.29088896029E+02  0.27857547302E+02  0.58557393300E+02  0.00000000000E+00 0. -1.
        -14    1    4    4    0    0  0.55898846952E+02 -0.38527594339E+02  0.14536527897E+03  0.16043728041E+03  0.00000000000E+00 0.  1.
         -5    1    3    3    0  504 -0.36483231682E+02  0.63531943197E+01  0.10559202417E+03  0.11199622690E+03  0.47000000000E+01 0.  1.
<mgrwt>
<rscale>  2 0.18791232E+03</rscale>
<asrwt>0</asrwt>
<pdfrwt beam="1">  1       21 0.19282642E+00 0.19120382E+03</pdfrwt>
<pdfrwt beam="2">  1       21 0.54960497E-02 0.19120382E+03</pdfrwt>
<totfact> 0.34264042E+04</totfact>
</mgrwt>
</event>
<event>
12    1  0.2736842E-001  0.1811853E+03  0.7546771E-02  0.1171346E+00
         21   -1    0    0  502  503  0.00000000000E+00  0.00000000000E+00  0.16512409353E+04  0.16512409353E+04  0.00000000000E+00 0.  1.
         21   -1    0    0  503  504 -0.00000000000E+00 -0.00000000000E+00 -0.36456834260E+02  0.36456834260E+02  0.00000000000E+00 0.  1.
         -6    2    1    2    0  504  0.17289826410E+02  0.52935358533E+02  0.22718432010E+03  0.29058704279E+03  0.17241526574E+03 0.  0.
        -24    2    3    3    0    0 -0.95395568522E+01  0.36613599207E+02  0.35763960542E+02  0.96550809873E+02  0.81310757109E+02 0.  0.
          6    2    1    2  502    0 -0.17289826410E+02 -0.52935358533E+02  0.13875997809E+04  0.13971107267E+04  0.15291873820E+03 0.  0.
         24    2    5    5    0    0 -0.67121842402E+02 -0.30864353951E+02  0.97868278903E+03  0.98455096705E+03  0.77863053537E+02 0.  0.
          2    1    6    6  501    0 -0.10624285526E+02  0.20471258357E+02  0.42566495074E+03  0.42628933619E+03  0.00000000000E+00 0. -1.
         -1    1    6    6    0  501 -0.56497556875E+02 -0.51335612308E+02  0.55301783829E+03  0.55826163086E+03  0.00000000000E+00 0.  1.
          5    1    5    5  502    0  0.49832015992E+02 -0.22071004582E+02  0.40891699188E+03  0.41255975969E+03  0.47000000000E+01 0. -1.
         11    1    4    4    0    0 -0.81739338418E+01  0.34118422936E+02  0.61421927752E+02  0.70735657110E+02  0.00000000000E+00 0. -1.
        -12    1    4    4    0    0 -0.13656230104E+01  0.24951762711E+01 -0.25657967210E+02  0.25815152763E+02  0.00000000000E+00 0.  1.
         -5    1    3    3    0  504  0.26829383262E+02  0.16321759326E+02  0.19142035955E+03  0.19403623292E+03  0.47000000000E+01 0.  1.
<mgrwt>
<rscale>  2 0.17638746E+03</rscale>
<asrwt>0</asrwt>
<pdfrwt beam="1">  1       21 0.25403701E+00 0.18118530E+03</pdfrwt>
<pdfrwt beam="2">  1       21 0.56087450E-02 0.18118530E+03</pdfrwt>
<totfact> 0.14082712E+04</totfact>
</mgrwt>
</event>
<event>
12    1  0.2736842E-001  0.1848417E+03  0.7546771E-02  0.1164141E+00
         21   -1    0    0  502  503  0.00000000000E+00  0.00000000000E+00  0.97263990430E+03  0.97263990430E+03  0.00000000000E+00 0. -1.
         21   -1    0    0  503  504 -0.00000000000E+00 -0.00000000000E+00 -0.35497076504E+02  0.35497076504E+02  0.00000000000E+00 0.  1.
         -6    2    1    2    0  504  0.51453541336E+02 -0.27400925757E+02  0.38384752442E+03  0.42603449092E+03  0.17540863092E+03 0.  0.
        -24    2    3    3    0    0 -0.14642492048E+02 -0.67689849454E+02  0.21946104362E+03  0.24427396695E+03  0.81916438961E+02 0.  0.
          6    2    1    2  502    0 -0.51453541336E+02  0.27400925757E+02  0.55329530338E+03  0.58210248989E+03  0.17119970311E+03 0.  0.
         24    2    5    5    0    0 -0.11627672543E+01  0.13840991808E+02  0.11591708558E+03  0.14160864297E+03  0.80145567271E+02 0.  0.
          2    1    6    6  501    0  0.16649806226E+02  0.39327502696E+02  0.36000763119E+02  0.55856275035E+02  0.00000000000E+00 0. -1.
         -1    1    6    6    0  501 -0.17812573480E+02 -0.25486510887E+02  0.79916322459E+02  0.85752367935E+02  0.00000000000E+00 0.  1.
          5    1    5    5  502    0 -0.50290774082E+02  0.13559933948E+02  0.43737821780E+03  0.44049384692E+03  0.47000000000E+01 0. -1.
         13    1    4    4    0    0 -0.19667014982E+02 -0.11305620785E+02  0.16211630091E+03  0.16369576525E+03  0.00000000000E+00 0. -1.
        -14    1    4    4    0    0  0.50245229337E+01 -0.56384228669E+02  0.57344742703E+02  0.80578201699E+02  0.00000000000E+00 0.  1.
         -5    1    3    3    0  504  0.66096033384E+02  0.40288923697E+02  0.16438648080E+03  0.18176052396E+03  0.47000000000E+01 0.  1.
<mgrwt>
<rscale>  2 0.18383624E+03</rscale>
<asrwt>0</asrwt>
<pdfrwt beam="1">  1       21 0.14963689E+00 0.18484173E+03</pdfrwt>
<pdfrwt beam="2">  1       21 0.54610894E-02 0.18484173E+03</pdfrwt>
<totfact> 0.69934301E+04</totfact>
</mgrwt>
</event>
<event>
12    1  0.2736842E-001  0.2901972E+03  0.7546771E-02  0.1090264E+00
         21   -1    0    0  502  503  0.00000000000E+00  0.00000000000E+00  0.52754739379E+03  0.52754739379E+03  0.00000000000E+00 0.  1.
         21   -1    0    0  503  504 -0.00000000000E+00 -0.00000000000E+00 -0.29481254499E+03  0.29481254499E+03  0.00000000000E+00 0. -1.
         -6    2    1    2    0  504 -0.20011326204E+03  0.11756257054E+03  0.39485831989E+03  0.48994686502E+03  0.17397862546E+03 0.  0.
        -24    2    3    3    0    0 -0.19678976287E+03  0.44411938766E+02  0.28777487203E+03  0.36013540412E+03  0.78641600005E+02 0.  0.
          6    2    1    2  502    0  0.20011326204E+03 -0.11756257054E+03 -0.16212347109E+03  0.33241307376E+03  0.17420722170E+03 0.  0.
         24    2    5    5    0    0  0.61800130877E+02 -0.60219618717E+02 -0.13720150609E+03  0.18055152262E+03  0.79554637765E+02 0.  0.
          2    1    6    6  501    0  0.76057710229E+02 -0.66310397113E+02 -0.12599947492E+03  0.16142401225E+03  0.00000000000E+00 0. -1.
         -1    1    6    6    0  501 -0.14257579352E+02  0.60907783959E+01 -0.11202031175E+02  0.19127510368E+02  0.00000000000E+00 0.  1.
          5    1    5    5  502    0  0.13831313116E+03 -0.57342951827E+02 -0.24921964994E+02  0.15186155114E+03  0.47000000000E+01 0. -1.
         11    1    4    4    0    0 -0.39239823421E+02  0.94952252994E+01  0.14743010505E+02  0.42979988417E+02  0.00000000000E+00 0. -1.
        -12    1    4    4    0    0 -0.15754993945E+03  0.34916713466E+02  0.27303186153E+03  0.31715541570E+03  0.00000000000E+00 0.  1.
         -5    1    3    3    0  504 -0.33234991749E+01  0.73150631779E+02  0.10708344786E+03  0.12981146090E+03  0.47000000000E+01 0.  1.
<mgrwt>
<rscale>  2 0.29016293E+03</rscale>
<asrwt>0</asrwt>
<pdfrwt beam="1">  1       21 0.81161138E-01 0.29019723E+03</pdfrwt>
<pdfrwt beam="2">  1       21 0.45355776E-01 0.29019723E+03</pdfrwt>
<totfact> 0.58357073E+03</totfact>
</mgrwt>
</event>
<event>
12    1  0.2736842E-001  0.1994753E+03  0.7546771E-02  0.1154836E+00
         21   -1    0    0  502  503  0.00000000000E+00  0.00000000000E+00  0.71613651421E+03  0.71613651421E+03  0.00000000000E+00 0.  1.
         21   -1    0    0  503  504 -0.00000000000E+00 -0.00000000000E+00 -0.17219013986E+03  0.17219013986E+03  0.00000000000E+00 0.  1.
         -6    2    1    2    0  504 -0.21624224073E+02  0.40790683957E+02 -0.10644580833E+03  0.20803232428E+03  0.17267093232E+03 0.  0.
        -24    2    3    3    0    0  0.29289730691E+01 -0.10534612196E+02  0.68562700579E+01  0.81159961320E+02  0.80127235975E+02 0.  0.
          6    2    1    2  502    0  0.21624224073E+02 -0.40790683957E+02  0.65039218267E+03  0.68029432979E+03  0.19405900367E+03 0.  0.
         24    2    5    5    0    0  0.13252405168E+02 -0.83972551522E+02  0.60668560458E+03  0.61810818980E+03  0.82239259781E+02 0.  0.
          2    1    6    6  501    0 -0.27091700505E+02 -0.16654918351E+02  0.89076755491E+02  0.94583375443E+02  0.00000000000E+00 0. -1.
         -1    1    6    6    0  501  0.40344105673E+02 -0.67317633171E+02  0.51760884909E+03  0.52352481436E+03  0.00000000000E+00 0.  1.
          5    1    5    5  502    0  0.83718189045E+01  0.43181867565E+02  0.43706578093E+02  0.62186139989E+02  0.47000000000E+01 0. -1.
         11    1    4    4    0    0 -0.20000406434E+02  0.26073104387E+02 -0.10661825041E+02  0.34547033782E+02  0.00000000000E+00 0. -1.
        -12    1    4    4    0    0  0.22929379503E+02 -0.36607716583E+02  0.17518095099E+02  0.46612927539E+02  0.00000000000E+00 0.  1.
         -5    1    3    3    0  504 -0.24553197142E+02  0.51325296153E+02 -0.11330207839E+03  0.12687236296E+03  0.47000000000E+01 0.  1.
<mgrwt>
<rscale>  2 0.19407523E+03</rscale>
<asrwt>0</asrwt>
<pdfrwt beam="1">  1       21 0.11017485E+00 0.19947527E+03</pdfrwt>
<pdfrwt beam="2">  1       21 0.26490791E-01 0.19947527E+03</pdfrwt>
<totfact> 0.87760278E+03</totfact>
</mgrwt>
</event>
<event>
12    1  0.2736842E-001  0.1818104E+03  0.7546771E-02  0.1166400E+00
         21   -1    0    0  502  503  0.00000000000E+00  0.00000000000E+00  0.65024725465E+03  0.65024725465E+03  0.00000000000E+00 0.  1.
         21   -1    0    0  503  504 -0.00000000000E+00 -0.00000000000E+00 -0.62958229037E+02  0.62958229037E+02  0.00000000000E+00 0.  1.
         -6    2    1    2    0  504 -0.11030118853E+02  0.53509867479E+02  0.13555653345E+03  0.22678313854E+03  0.17340717610E+03 0.  0.
        -24    2    3    3    0    0  0.74412783964E+01 -0.89097049972E+01  0.14025099378E+03  0.16134978693E+03  0.78921841209E+02 0.  0.
          6    2    1    2  502    0  0.11030118853E+02 -0.53509867479E+02  0.45173249217E+03  0.48642234515E+03  0.17192871763E+03 0.  0.
         24    2    5    5    0    0  0.44804265165E+01  0.35642992519E+02  0.19838420210E+03  0.21772441625E+03  0.82201780103E+02 0.  0.
          2    1    6    6  501    0 -0.17845838142E+02  0.54840974208E+02  0.10484160969E+03  0.11965688243E+03  0.00000000000E+00 0. -1.
         -1    1    6    6    0  501  0.22326264659E+02 -0.19197981690E+02  0.93542592414E+02  0.98067533823E+02  0.00000000000E+00 0.  1.
          5    1    5    5  502    0  0.65496923366E+01 -0.89152859998E+02  0.25334829007E+03  0.26869792890E+03  0.47000000000E+01 0. -1.
         13    1    4    4    0    0 -0.50892629446E+01 -0.39320273487E+02  0.42083371039E+02  0.57818635598E+02  0.00000000000E+00 0. -1.
        -14    1    4    4    0    0  0.12530541341E+02  0.30410568490E+02  0.98167622741E+02  0.10353115134E+03  0.00000000000E+00 0.  1.
         -5    1    3    3    0  504 -0.18471397249E+02  0.62419572476E+02 -0.46944603297E+01  0.65433351605E+02  0.47000000000E+01 0.  1.
<mgrwt>
<rscale>  2 0.18145697E+03</rscale>
<asrwt>0</asrwt>
<pdfrwt beam="1">  1       21 0.10003803E+00 0.18181039E+03</pdfrwt>
<pdfrwt beam="2">  1       21 0.96858819E-02 0.18181039E+03</pdfrwt>
<totfact> 0.70761136E+04</totfact>
</mgrwt>
</event>
<event>
12    1  0.2736842E-001  0.2683529E+03  0.7546771E-02  0.1102870E+00
         21   -1    0    0  502  503  0.00000000000E+00  0.00000000000E+00  0.73842477581E+02  0.73842477581E+02  0.00000000000E+00 0.  1.
         21   -1    0    0  503  504 -0.00000000000E+00 -0.00000000000E+00 -0.97060122799E+03  0.97060122799E+03  0.00000000000E+00 0.  1.
         -6    2    1    2    0  504  0.57476539839E+02 -0.19538922157E+03 -0.39546291626E+03  0.47791653299E+03  0.17473635518E+03 0.  0.
        -24    2    3    3    0    0  0.10277863875E+02 -0.75306810650E+02 -0.29116269899E+03  0.31194025230E+03  0.82184265579E+02 0.  0.
          6    2    1    2  502    0 -0.57476539839E+02  0.19538922157E+03 -0.50129583415E+03  0.56652717259E+03  0.16785417304E+03 0.  0.
         24    2    5    5    0    0 -0.53678058101E+02  0.20201261107E+03 -0.35132025386E+03  0.41628382852E+03  0.78586742951E+02 0.  0.
          2    1    6    6  501    0 -0.65460983623E+01  0.11165510798E+03 -0.24329920024E+03  0.26777642798E+03  0.00000000000E+00 0. -1.
         -1    1    6    6    0  501 -0.47131959738E+02  0.90357503085E+02 -0.10802105362E+03  0.14850740055E+03  0.00000000000E+00 0.  1.
          5    1    5    5  502    0 -0.37984817389E+01 -0.66233894974E+01 -0.14997558029E+03  0.15024334407E+03  0.47000000000E+01 0. -1.
         11    1    4    4    0    0 -0.19852381894E+02  0.44653689357E+01 -0.10800556606E+03  0.10990568177E+03  0.00000000000E+00 0. -1.
        -12    1    4    4    0    0  0.30130245768E+02 -0.79772179586E+02 -0.18315713293E+03  0.20203457053E+03  0.00000000000E+00 0.  1.
         -5    1    3    3    0  504  0.47198675965E+02 -0.12008241092E+03 -0.10430021728E+03  0.16597628068E+03  0.47000000000E+01 0.  1.
<mgrwt>
<rscale>  2 0.26723861E+03</rscale>
<asrwt>0</asrwt>
<pdfrwt beam="1">  1       21 0.11360382E-01 0.26835293E+03</pdfrwt>
<pdfrwt beam="2">  1       21 0.14932326E+00 0.26835293E+03</pdfrwt>
<totfact> 0.18712822E+04</totfact>
</mgrwt>
</event>
<event>
12    1  0.2736842E-001  0.1981900E+03  0.7546771E-02  0.1151491E+00
         21   -1    0    0  502  503  0.00000000000E+00  0.00000000000E+00  0.15395923176E+03  0.15395923176E+03  0.00000000000E+00 0.  1.
         21   -1    0    0  503  504 -0.00000000000E+00 -0.00000000000E+00 -0.78933015822E+03  0.78933015822E+03  0.00000000000E+00 0.  1.
         -6    2    1    2    0  504 -0.95041528219E+02 -0.30680410112E+01 -0.70642203496E+03  0.73369705600E+03  0.17388781883E+03 0.  0.
        -24    2    3    3    0    0 -0.81979605175E+02 -0.25469764244E+02 -0.25324913521E+03  0.27975849395E+03  0.82221201042E+02 0.  0.
          6    2    1    2  502    0  0.95041528219E+02  0.30680410112E+01  0.71051108500E+02  0.20959233398E+03  0.17273789823E+03 0.  0.
         24    2    5    5    0    0  0.58656962619E+02 -0.57083567277E+02  0.88249828190E+01  0.11559109298E+03  0.81143376420E+02 0.  0.
          4    1    6    6  501    0  0.39153879543E+02  0.63126216625E+00 -0.24459678132E+02  0.46170343615E+02  0.00000000000E+00 0. -1.
         -3    1    6    6    0  501  0.19503083075E+02 -0.57714829443E+02  0.33284660951E+02  0.69420749360E+02  0.00000000000E+00 0.  1.
          5    1    5    5  502    0  0.36384565601E+02  0.60151608288E+02  0.62226125681E+02  0.94001241007E+02  0.47000000000E+01 0. -1.
         13    1    4    4    0    0 -0.61870698444E+02 -0.27067411317E+02 -0.25044736252E+03  0.25939257791E+03  0.00000000000E+00 0. -1.
        -14    1    4    4    0    0 -0.20108906732E+02  0.15976470733E+01 -0.28017726867E+01  0.20365916044E+02  0.00000000000E+00 0.  1.
         -5    1    3    3    0  504 -0.13061923044E+02  0.22401723232E+02 -0.45317289976E+03  0.45393856204E+03  0.47000000000E+01 0.  1.
<mgrwt>
<rscale>  2 0.19793749E+03</rscale>
<asrwt>0</asrwt>
<pdfrwt beam="1">  1       21 0.23686035E-01 0.19819001E+03</pdfrwt>
<pdfrwt beam="2">  1       21 0.12143541E+00 0.19819001E+03</pdfrwt>
<totfact> 0.85716139E+03</totfact>
</mgrwt>
</event>
<event>
12    1  0.2736842E-001  0.2277013E+03  0.7546771E-02  0.1128753E+00
         21   -1    0    0  502  503  0.00000000000E+00  0.00000000000E+00  0.49843702528E+03  0.49843702528E+03  0.00000000000E+00 0. -1.
         21   -1    0    0  503  504 -0.00000000000E+00 -0.00000000000E+00 -0.15842084785E+03  0.15842084785E+03  0.00000000000E+00 0.  1.
         -6    2    1    2    0  504  0.10524175626E+03 -0.97151881787E+02 -0.23953587060E+02  0.22895778189E+03  0.17701292653E+03 0.  0.
        -24    2    3    3    0    0  0.55394660366E+02 -0.12398847417E+03  0.10195560391E+02  0.16267663878E+03  0.88983308720E+02 0.  0.
          6    2    1    2  502    0 -0.10524175626E+03  0.97151881787E+02  0.36396976449E+03  0.42790009125E+03  0.17352286083E+03 0.  0.
         24    2    5    5    0    0  0.77716640430E+00  0.42034785900E+02  0.85256535766E+02  0.12461629661E+03  0.80579260841E+02 0.  0.
          4    1    6    6  501    0 -0.13557587917E+02 -0.21296870351E+02  0.17177095455E+02  0.30535511870E+02  0.00000000000E+00 0. -1.
         -3    1    6    6    0  501  0.14334754321E+02  0.63331656251E+02  0.68079440311E+02  0.94080784744E+02  0.00000000000E+00 0.  1.
          5    1    5    5  502    0 -0.10601892267E+03  0.55117095887E+02  0.27871322872E+03  0.30328379463E+03  0.47000000000E+01 0. -1.
         11    1    4    4    0    0  0.50423760854E+02 -0.69397822347E+02  0.45867707942E+02  0.97275176880E+02  0.00000000000E+00 0. -1.
        -12    1    4    4    0    0  0.49708995119E+01 -0.54590651822E+02 -0.35672147551E+02  0.65401461904E+02  0.00000000000E+00 0.  1.
         -5    1    3    3    0  504  0.49847095895E+02  0.26836592382E+02 -0.34149147452E+02  0.66281143107E+02  0.47000000000E+01 0.  1.
<mgrwt>
<rscale>  2 0.22702268E+03</rscale>
<asrwt>0</asrwt>
<pdfrwt beam="1">  1       21 0.76682619E-01 0.22770132E+03</pdfrwt>
<pdfrwt beam="2">  1       21 0.24372438E-01 0.22770132E+03</pdfrwt>
<totfact> 0.23585890E+04</totfact>
</mgrwt>
</event>
<event>
12    1  0.2736842E-001  0.1860322E+03  0.7546771E-02  0.1162499E+00
         21   -1    0    0  502  503  0.00000000000E+00  0.00000000000E+00  0.32722176348E+03  0.32722176348E+03  0.00000000000E+00 0. -1.
         21   -1    0    0  503  504 -0.00000000000E+00 -0.00000000000E+00 -0.16340648053E+03  0.16340648053E+03  0.00000000000E+00 0.  1.
         -6    2    1    2    0  504  0.72787362963E+01 -0.61456913857E+02 -0.64798899853E+02  0.19699463590E+03  0.17543676037E+03 0.  0.
        -24    2    3    3    0    0  0.48189035800E+02 -0.25878742242E+02  0.16561579952E+02  0.99111662025E+02  0.80974953829E+02 0.  0.
          6    2    1    2  502    0 -0.72787362963E+01  0.61456913857E+02  0.22861418280E+03  0.29363360811E+03  0.17356934916E+03 0.  0.
         24    2    5    5    0    0 -0.59276490782E+02  0.68342114319E+02  0.19285949713E+03  0.22998095691E+03  0.86672417515E+02 0.  0.
          4    1    6    6  501    0 -0.12660316459E+02  0.76771391634E+02  0.11526917815E+03  0.13907233233E+03  0.00000000000E+00 0. -1.
         -3    1    6    6    0  501 -0.46616174323E+02 -0.84292773148E+01  0.77590318980E+02  0.90908624586E+02  0.00000000000E+00 0.  1.
          5    1    5    5  502    0  0.51997754486E+02 -0.68852004620E+01  0.35754685670E+02  0.63652651196E+02  0.47000000000E+01 0. -1.
         13    1    4    4    0    0  0.58155687684E+02 -0.14162868298E+02 -0.16974968751E+02  0.62215917678E+02  0.00000000000E+00 0. -1.
        -14    1    4    4    0    0 -0.99666518842E+01 -0.11715873944E+02  0.33536548703E+02  0.36895744347E+02  0.00000000000E+00 0.  1.
         -5    1    3    3    0  504 -0.40910299503E+02 -0.35578171616E+02 -0.81360479805E+02  0.97882973877E+02  0.47000000000E+01 0.  1.
<mgrwt>
<rscale>  2 0.18559065E+03</rscale>
<asrwt>0</asrwt>
<pdfrwt beam="1">  1       21 0.50341810E-01 0.18603223E+03</pdfrwt>
<pdfrwt beam="2">  1       21 0.25139459E-01 0.18603223E+03</pdfrwt>
<totfact> 0.56468662E+04</totfact>
</mgrwt>
</event>
<event>
12    1  0.2736842E-001  0.2429608E+03  0.7546771E-02  0.1118691E+00
         21   -1    0    0  502  503  0.00000000000E+00  0.00000000000E+00  0.25612942974E+03  0.25612942974E+03  0.00000000000E+00 0.  1.
         21   -1    0    0  503  504 -0.00000000000E+00 -0.00000000000E+00 -0.22856505285E+03  0.22856505285E+03  0.00000000000E+00 0.  1.
         -6    2    1    2    0  504  0.27760706713E+02  0.16077799013E+03 -0.13653372295E+02  0.24334413989E+03  0.18002704490E+03 0.  0.
        -24    2    3    3    0    0 -0.53997144020E+02  0.98766013356E+02 -0.24760119044E+02  0.14002288726E+03  0.79516844165E+02 0.  0.
          6    2    1    2  502    0 -0.27760706713E+02 -0.16077799013E+03  0.41217749181E+02  0.24135034270E+03  0.17300539335E+03 0.  0.
         24    2    5    5    0    0 -0.38614216213E+02 -0.16311184424E+03  0.78841986444E+02  0.20184187813E+03  0.80172024510E+02 0.  0.
          4    1    6    6  501    0 -0.44271200886E+02 -0.35032842932E+02  0.34621007347E+02  0.66225776413E+02  0.00000000000E+00 0. -1.
         -3    1    6    6    0  501  0.56569846726E+01 -0.12807900131E+03  0.44220979097E+02  0.13561610171E+03  0.00000000000E+00 0.  1.
          5    1    5    5  502    0  0.10853509500E+02  0.23338541127E+01 -0.37624237263E+02  0.39508464575E+02  0.47000000000E+01 0. -1.
         13    1    4    4    0    0 -0.15572875583E+02 -0.74879231569E+01 -0.20696592939E+02  0.26961684043E+02  0.00000000000E+00 0. -1.
        -14    1    4    4    0    0 -0.38424268437E+02  0.10625393651E+03 -0.40635261053E+01  0.11306120322E+03  0.00000000000E+00 0.  1.
         -5    1    3    3    0  504  0.81757850734E+02  0.62011976773E+02  0.11106746749E+02  0.10332125262E+03  0.47000000000E+01 0.  1.
<mgrwt>
<rscale>  2 0.24166140E+03</rscale>
<asrwt>0</asrwt>
<pdfrwt beam="1">  1       21 0.39404528E-01 0.24296081E+03</pdfrwt>
<pdfrwt beam="2">  1       21 0.35163854E-01 0.24296081E+03</pdfrwt>
<totfact> 0.47308702E+04</totfact>
</mgrwt>
</event>
<event>
12    1  0.2736842E-001  0.1806632E+03  0.7546771E-02  0.1167699E+00
         21   -1    0    0  502  503  0.00000000000E+00  0.00000000000E+00  0.45321202638E+02  0.45321202638E+02  0.00000000000E+00 0.  1.
         21   -1    0    0  503  504 -0.00000000000E+00 -0.00000000000E+00 -0.19235968854E+04  0.19235968854E+04  0.00000000000E+00 0.  1.
         -6    2    1    2    0  504 -0.29889797255E+02  0.40821317680E+02 -0.17184945742E+04  0.17277351520E+04  0.17112969888E+03 0.  0.
        -24    2    3    3    0    0 -0.22326932495E+02 -0.40752147029E+02 -0.10810860647E+04  0.10850663998E+04  0.80391437503E+02 0.  0.
          6    2    1    2  502    0  0.29889797255E+02 -0.40821317680E+02 -0.15978110854E+03  0.24118293605E+03  0.17343421242E+03 0.  0.
         24    2    5    5    0    0  0.18686809678E+01 -0.74980577980E+02 -0.45756518059E+02  0.11880754940E+03  0.79974969878E+02 0.  0.
          2    1    6    6  501    0 -0.21773717975E+02  0.28961306550E+01  0.54767346528E+01  0.22637954627E+02  0.00000000000E+00 0. -1.
         -1    1    6    6    0  501  0.23642398943E+02 -0.77876708635E+02 -0.51233252711E+02  0.96169594774E+02  0.00000000000E+00 0.  1.
          5    1    5    5  502    0  0.28021116287E+02  0.34159260300E+02 -0.11402459048E+03  0.12237538664E+03  0.47000000000E+01 0. -1.
         13    1    4    4    0    0 -0.44627920561E+01  0.65440629928E+01 -0.98582594087E+01  0.12646207019E+02  0.00000000000E+00 0. -1.
        -14    1    4    4    0    0 -0.17864140439E+02 -0.47296210021E+02 -0.10712278053E+04  0.10724201928E+04  0.00000000000E+00 0.  1.
         -5    1    3    3    0  504 -0.75628647601E+01  0.81573464709E+02 -0.63740850950E+03  0.64266875219E+03  0.47000000000E+01 0.  1.
<mgrwt>
<rscale>  2 0.18010790E+03</rscale>
<asrwt>0</asrwt>
<pdfrwt beam="1">  1       21 0.69724924E-02 0.18066324E+03</pdfrwt>
<pdfrwt beam="2">  1       21 0.29593800E+00 0.18066324E+03</pdfrwt>
<totfact> 0.55639718E+03</totfact>
</mgrwt>
</event>
<event>
12    1  0.2736842E-001  0.2184858E+03  0.7546771E-02  0.1135571E+00
         21   -1    0    0  502  503  0.00000000000E+00  0.00000000000E+00  0.51964414489E+03  0.51964414489E+03  0.00000000000E+00 0. -1.
         21   -1    0    0  503  504 -0.00000000000E+00 -0.00000000000E+00 -0.14220854966E+03  0.14220854966E+03  0.00000000000E+00 0.  1.
         -6    2    1    2    0  504  0.12925843814E+03  0.19813158380E+02 -0.11375462523E+02  0.21585931030E+03  0.17136375236E+03 0.  0.
        -24    2    3    3    0    0  0.45434815912E+02 -0.71725792559E+01 -0.63348235491E+02  0.11349775107E+03  0.82176469668E+02 0.  0.
          6    2    1    2  502    0 -0.12925843814E+03 -0.19813158380E+02  0.38881105776E+03  0.44599338425E+03  0.17503072612E+03 0.  0.
         24    2    5    5    0    0 -0.21597218456E+02  0.18749292986E+02  0.59768487751E+02  0.97612696274E+02  0.71679777575E+02 0.  0.
          4    1    6    6  501    0 -0.20645703025E+02  0.23029409264E+02  0.75336913437E+02  0.81438622721E+02  0.00000000000E+00 0. -1.
         -3    1    6    6    0  501 -0.95151543096E+00 -0.42801162783E+01 -0.15568425685E+02  0.16174073553E+02  0.00000000000E+00 0.  1.
          5    1    5    5  502    0 -0.10766121968E+03 -0.38562451366E+02  0.32904257000E+03  0.34838068798E+03  0.47000000000E+01 0. -1.
         13    1    4    4    0    0 -0.21798792620E+02  0.13825144955E+01 -0.32194554144E+02  0.38904858598E+02  0.00000000000E+00 0. -1.
        -14    1    4    4    0    0  0.67233608532E+02 -0.85550937515E+01 -0.31153681347E+02  0.74592892468E+02  0.00000000000E+00 0.  1.
         -5    1    3    3    0  504  0.83823622227E+02  0.26985737636E+02  0.51972772968E+02  0.10236155924E+03  0.47000000000E+01 0.  1.
<mgrwt>
<rscale>  2 0.21775051E+03</rscale>
<asrwt>0</asrwt>
<pdfrwt beam="1">  1       21 0.79945252E-01 0.21848584E+03</pdfrwt>
<pdfrwt beam="2">  1       21 0.21878239E-01 0.21848584E+03</pdfrwt>
<totfact> 0.26483591E+04</totfact>
</mgrwt>
</event>
<event>
12    1  0.2736842E-001  0.2733350E+03  0.7546771E-02  0.1099487E+00
         21   -1    0    0  502  503  0.00000000000E+00  0.00000000000E+00  0.33775951768E+03  0.33775951768E+03  0.00000000000E+00 0. -1.
         21   -1    0    0  503  504 -0.00000000000E+00 -0.00000000000E+00 -0.24362071492E+03  0.24362071492E+03  0.00000000000E+00 0.  1.
         -6    2    1    2    0  504  0.20347878010E+03  0.57640208896E+02  0.13633731967E+03  0.30480705993E+03  0.17202753098E+03 0.  0.
        -24    2    3    3    0    0  0.41611241414E+02 -0.63462137952E-01  0.87568029095E+02  0.12611361451E+03  0.80653484776E+02 0.  0.
          6    2    1    2  502    0 -0.20347878010E+03 -0.57640208896E+02 -0.42198516902E+02  0.27657317267E+03  0.17316465395E+03 0.  0.
         24    2    5    5    0    0 -0.17672111532E+03 -0.69757293739E+01  0.15238015468E+02  0.19530874404E+03  0.81451181587E+02 0.  0.
          4    1    6    6  501    0 -0.72652696256E+02 -0.37741044500E+02  0.26868016502E+02  0.86166646818E+02  0.00000000000E+00 0. -1.
         -3    1    6    6    0  501 -0.10406841907E+03  0.30765315126E+02 -0.11630001034E+02  0.10914209722E+03  0.00000000000E+00 0.  1.
          5    1    5    5  502    0 -0.26757664779E+02 -0.50664479522E+02 -0.57436532370E+02  0.81264428629E+02  0.47000000000E+01 0. -1.
         13    1    4    4    0    0  0.58464098891E+02  0.17844726536E+01  0.91604481506E+02  0.10868586032E+03  0.00000000000E+00 0. -1.
        -14    1    4    4    0    0 -0.16852857477E+02 -0.18479347916E+01 -0.40364524107E+01  0.17427754192E+02  0.00000000000E+00 0.  1.
         -5    1    3    3    0  504  0.16186753869E+03  0.57703671034E+02  0.48769290577E+02  0.17869344542E+03  0.47000000000E+01 0.  1.
<mgrwt>
<rscale>  2 0.27315505E+03</rscale>
<asrwt>0</asrwt>
<pdfrwt beam="1">  1       21 0.51963003E-01 0.27333497E+03</pdfrwt>
<pdfrwt beam="2">  1       21 0.37480110E-01 0.27333497E+03</pdfrwt>
<totfact> 0.23174794E+04</totfact>
</mgrwt>
</event>
<event>
12    1  0.2736842E-001  0.2493826E+03  0.7546771E-02  0.1114136E+00
         21   -1    0    0  502  503  0.00000000000E+00  0.00000000000E+00  0.18858497729E+03  0.18858497729E+03  0.00000000000E+00 0.  1.
         21   -1    0    0  503  504 -0.00000000000E+00 -0.00000000000E+00 -0.38114342410E+03  0.38114342410E+03  0.00000000000E+00 0. -1.
         -6    2    1    2    0  504 -0.15708496702E+03 -0.73622717787E+02  0.12390675931E+02  0.24693458463E+03  0.17529166779E+03 0.  0.
        -24    2    3    3    0    0 -0.14469955241E+03 -0.57552150810E+02 -0.47690125539E+02  0.18334642281E+03  0.84210166570E+02 0.  0.
          6    2    1    2  502    0  0.15708496702E+03  0.73622717787E+02 -0.20494912274E+03  0.32279381676E+03  0.17915276662E+03 0.  0.
         24    2    5    5    0    0  0.59322606699E+02  0.24948698401E+02 -0.18501132371E+03  0.21168015833E+03  0.80235218666E+02 0.  0.
          2    1    6    6  501    0  0.87250954972E+01  0.79070387896E+01 -0.14367884134E+03  0.14416052859E+03  0.00000000000E+00 0. -1.
         -1    1    6    6    0  501  0.50597511202E+02  0.17041659612E+02 -0.41332482365E+02  0.67519629743E+02  0.00000000000E+00 0.  1.
          5    1    5    5  502    0  0.97762360323E+02  0.48674019386E+02 -0.19937799035E+02  0.11111365843E+03  0.47000000000E+01 0. -1.
         11    1    4    4    0    0 -0.13430269807E+03 -0.17295182898E+02 -0.38250303707E+02  0.14071042532E+03  0.00000000000E+00 0. -1.
        -12    1    4    4    0    0 -0.10396854335E+02 -0.40256967912E+02 -0.94398218315E+01  0.42635997487E+02  0.00000000000E+00 0.  1.
         -5    1    3    3    0  504 -0.12385414616E+02 -0.16070566977E+02  0.60080801470E+02  0.63588161819E+02  0.47000000000E+01 0.  1.
<mgrwt>
<rscale>  2 0.24868999E+03</rscale>
<asrwt>0</asrwt>
<pdfrwt beam="1">  1       21 0.29013074E-01 0.24938265E+03</pdfrwt>
<pdfrwt beam="2">  1       21 0.58637449E-01 0.24938265E+03</pdfrwt>
<totfact> 0.30086489E+04</totfact>
</mgrwt>
</event>
<event>
12    1  0.2736842E-001  0.1759839E+03  0.7546771E-02  0.1171959E+00
         21   -1    0    0  502  503  0.00000000000E+00  0.00000000000E+00  0.46331003578E+03  0.46331003578E+03  0.00000000000E+00 0. -1.
         21   -1    0    0  503  504 -0.00000000000E+00 -0.00000000000E+00 -0.75822683307E+02  0.75822683307E+02  0.00000000000E+00 0. -1.
         -6    2    1    2    0  504  0.29921074805E+02 -0.80901198693E+01  0.98938129677E+02  0.20115199161E+03  0.17237357532E+03 0.  0.
        -24    2    3    3    0    0  0.58650246191E+02 -0.57022863853E+02  0.42872474145E+02  0.12124437963E+03  0.78553753389E+02 0.  0.
          6    2    1    2  502    0 -0.29921074805E+02  0.80901198693E+01  0.28854922279E+03  0.33798072748E+03  0.17323278389E+03 0.  0.
         24    2    5    5    0    0  0.48431153570E+02 -0.12570910050E+02  0.16091100398E+03  0.18672083607E+03  0.80428322144E+02 0.  0.
          4    1    6    6  501    0  0.12258140692E+02 -0.42163994122E+02  0.51075646774E+02  0.67355668707E+02  0.00000000000E+00 0. -1.
         -3    1    6    6    0  501  0.36173012878E+02  0.29593084072E+02  0.10983535721E+03  0.11936516736E+03  0.00000000000E+00 0.  1.
          5    1    5    5  502    0 -0.78352228374E+02  0.20661029920E+02  0.12763821881E+03  0.15125989141E+03  0.47000000000E+01 0. -1.
         11    1    4    4    0    0  0.56084385992E+02 -0.71715487201E+02  0.18856529228E+02  0.92973857353E+02  0.00000000000E+00 0. -1.
        -12    1    4    4    0    0  0.25658601985E+01  0.14692623347E+02  0.24015944917E+02  0.28270522274E+02  0.00000000000E+00 0.  1.
         -5    1    3    3    0  504 -0.28729171386E+02  0.48932743984E+02  0.56065655532E+02  0.79907611982E+02  0.47000000000E+01 0.  1.
<mgrwt>
<rscale>  2 0.17577205E+03</rscale>
<asrwt>0</asrwt>
<pdfrwt beam="1">  1       21 0.71278465E-01 0.17598386E+03</pdfrwt>
<pdfrwt beam="2">  1       21 0.11665028E-01 0.17598386E+03</pdfrwt>
<totfact> 0.11058988E+05</totfact>
</mgrwt>
</event>
<event>
12    1  0.2736842E-001  0.2664590E+03  0.7546771E-02  0.1103786E+00
         21   -1    0    0  502  503  0.00000000000E+00  0.00000000000E+00  0.15575762011E+03  0.15575762011E+03  0.00000000000E+00 0.  1.
         21   -1    0    0  503  504 -0.00000000000E+00 -0.00000000000E+00 -0.56187642226E+03  0.56187642226E+03  0.00000000000E+00 0. -1.
         -6    2    1    2    0  504 -0.15261544505E+03  0.13259334727E+03 -0.36381250718E+03  0.45095449465E+03  0.17357403622E+03 0.  0.
        -24    2    3    3    0    0 -0.11796604599E+03  0.50047807308E+02 -0.31389030587E+03  0.34834522018E+03  0.79978104997E+02 0.  0.
          6    2    1    2  502    0  0.15261544505E+03 -0.13259334727E+03 -0.42306294972E+02  0.26667954773E+03  0.16868814058E+03 0.  0.
         24    2    5    5    0    0  0.17253413108E+03 -0.10996004777E+03 -0.75043583172E+01  0.22039472199E+03  0.81598281799E+02 0.  0.
          4    1    6    6  501    0  0.12995111406E+03 -0.50782184883E+02  0.22926878369E+02  0.14139223493E+03  0.00000000000E+00 0. -1.
         -3    1    6    6    0  501  0.42583017015E+02 -0.59177862890E+02 -0.30431236686E+02  0.79002487053E+02  0.00000000000E+00 0.  1.
          5    1    5    5  502    0 -0.19918686024E+02 -0.22633299495E+02 -0.34801936655E+02  0.46284825741E+02  0.47000000000E+01 0. -1.
         13    1    4    4    0    0 -0.12045361958E+03  0.59123074606E+02 -0.24970187690E+03  0.28347070351E+03  0.00000000000E+00 0. -1.
        -14    1    4    4    0    0  0.24875735979E+01 -0.90752672979E+01 -0.64188428973E+02  0.64874516668E+02  0.00000000000E+00 0.  1.
         -5    1    3    3    0  504 -0.34649399066E+02  0.82545539960E+02 -0.49922201308E+02  0.10260927447E+03  0.47000000000E+01 0.  1.
<mgrwt>
<rscale>  2 0.26566635E+03</rscale>
<asrwt>0</asrwt>
<pdfrwt beam="1">  1       21 0.23962711E-01 0.26645903E+03</pdfrwt>
<pdfrwt beam="2">  1       21 0.86442526E-01 0.26645903E+03</pdfrwt>
<totfact> 0.18182678E+04</totfact>
</mgrwt>
</event>
<event>
12    1  0.2736842E-001  0.1831782E+03  0.7546771E-02  0.1164856E+00
         21   -1    0    0  502  503  0.00000000000E+00  0.00000000000E+00  0.77992015704E+03  0.77992015704E+03  0.00000000000E+00 0. -1.
         21   -1    0    0  503  504 -0.00000000000E+00 -0.00000000000E+00 -0.16222647042E+03  0.16222647042E+03  0.00000000000E+00 0. -1.
         -6    2    1    2    0  504  0.55602801373E+02 -0.19265221043E+02 -0.95206030034E+02  0.20608938100E+03  0.17304861901E+03 0.  0.
        -24    2    3    3    0    0  0.96017212959E+02 -0.42681736982E+02 -0.89193426168E+02  0.15876180671E+03  0.78795990644E+02 0.  0.
          6    2    1    2  502    0 -0.55602801373E+02  0.19265221043E+02  0.71289971665E+03  0.73605724646E+03  0.17346885545E+03 0.  0.
         24    2    5    5    0    0  0.99565513045E+01  0.34088566070E+02  0.57861909412E+03  0.58582031403E+03  0.84405100528E+02 0.  0.
          2    1    6    6  501    0 -0.15409425281E+02 -0.10127416735E+02  0.38996252560E+03  0.39039824069E+03  0.00000000000E+00 0. -1.
         -1    1    6    6    0  501  0.25365976585E+02  0.44215982804E+02  0.18865656851E+03  0.19542207334E+03  0.00000000000E+00 0.  1.
          5    1    5    5  502    0 -0.65559352677E+02 -0.14823345027E+02  0.13428062253E+03  0.15023693244E+03  0.47000000000E+01 0. -1.
         13    1    4    4    0    0  0.27066444899E+01  0.11008603944E+01 -0.47479053890E+02  0.47568880335E+02  0.00000000000E+00 0. -1.
        -14    1    4    4    0    0  0.93310568469E+02 -0.43782597377E+02 -0.41714372278E+02  0.11119292637E+03  0.00000000000E+00 0.  1.
         -5    1    3    3    0  504 -0.40414411587E+02  0.23416515939E+02 -0.60126038662E+01  0.47327574287E+02  0.47000000000E+01 0.  1.
<mgrwt>
<rscale>  2 0.18307867E+03</rscale>
<asrwt>0</asrwt>
<pdfrwt beam="1">  1       21 0.11998771E+00 0.18317823E+03</pdfrwt>
<pdfrwt beam="2">  1       21 0.24957919E-01 0.18317823E+03</pdfrwt>
<totfact> 0.80842996E+03</totfact>
</mgrwt>
</event>
<event>
12    1  0.2736842E-001  0.1816239E+03  0.7546771E-02  0.1167103E+00
         21   -1    0    0  502  503  0.00000000000E+00  0.00000000000E+00  0.43746766997E+03  0.43746766997E+03  0.00000000000E+00 0. -1.
         21   -1    0    0  503  504 -0.00000000000E+00 -0.00000000000E+00 -0.74034197560E+02  0.74034197560E+02  0.00000000000E+00 0. -1.
         -6    2    1    2    0  504  0.44294004636E+02 -0.31359765778E+02  0.19305032963E+03  0.26505788948E+03  0.17332588165E+03 0.  0.
        -24    2    3    3    0    0  0.52464386047E+02 -0.57478942513E+02  0.20625678534E+03  0.23430944240E+03  0.79389625658E+02 0.  0.
          6    2    1    2  502    0 -0.44294004636E+02  0.31359765778E+02  0.17038314278E+03  0.24644397805E+03  0.16958427172E+03 0.  0.
         24    2    5    5    0    0 -0.68683578434E+02 -0.25358798383E+02  0.10562814153E+03  0.15684963103E+03  0.89911066446E+02 0.  0.
          2    1    6    6  501    0 -0.66469046610E+01 -0.17744728502E+02 -0.12850673067E+02  0.22895338597E+02  0.00000000000E+00 0. -1.
         -1    1    6    6    0  501 -0.62036673773E+02 -0.76140698805E+01  0.11847881460E+03  0.13395429244E+03  0.00000000000E+00 0.  1.
          5    1    5    5  502    0  0.24389573798E+02  0.56718564161E+02  0.64755001244E+02  0.89594347012E+02  0.47000000000E+01 0. -1.
         13    1    4    4    0    0 -0.19872512813E+02 -0.20706043481E+02  0.70953276432E+02  0.76537732123E+02  0.00000000000E+00 0. -1.
        -14    1    4    4    0    0  0.72336898860E+02 -0.36772899032E+02  0.13530350891E+03  0.15777171027E+03  0.00000000000E+00 0.  1.
         -5    1    3    3    0  504 -0.81703814105E+01  0.26119176735E+02 -0.13206455710E+02  0.30748447085E+02  0.47000000000E+01 0.  1.
<mgrwt>
<rscale>  2 0.18072551E+03</rscale>
<asrwt>0</asrwt>
<pdfrwt beam="1">  1       21 0.67302717E-01 0.18162394E+03</pdfrwt>
<pdfrwt beam="2">  1       21 0.11389877E-01 0.18162394E+03</pdfrwt>
<totfact> 0.13061875E+05</totfact>
</mgrwt>
</event>
<event>
12    1  0.2736842E-001  0.2607428E+03  0.7546771E-02  0.1107212E+00
         21   -1    0    0  502  503  0.00000000000E+00  0.00000000000E+00  0.15634827158E+03  0.15634827158E+03  0.00000000000E+00 0. -1.
         21   -1    0    0  503  504 -0.00000000000E+00 -0.00000000000E+00 -0.47066030981E+03  0.47066030981E+03  0.00000000000E+00 0. -1.
         -6    2    1    2    0  504  0.11910948514E+03  0.15151847099E+03 -0.25117894588E+03  0.36204653538E+03  0.17561866196E+03 0.  0.
        -24    2    3    3    0    0  0.87549790602E+02  0.13729782391E+03 -0.26667973365E+03  0.32382866596E+03  0.85036852423E+02 0.  0.
          6    2    1    2  502    0 -0.11910948514E+03 -0.15151847099E+03 -0.63133092344E+02  0.26496204600E+03  0.17051153032E+03 0.  0.
         24    2    5    5    0    0 -0.11227019214E+03 -0.54734929274E+02  0.13106964278E+02  0.14147736635E+03  0.65142491136E+02 0.  0.
          4    1    6    6  501    0 -0.59746138722E+02 -0.63831902075E+02  0.51658596703E+01  0.87583097233E+02  0.00000000000E+00 0. -1.
         -3    1    6    6    0  501 -0.52524053414E+02  0.90969728005E+01  0.79411046076E+01  0.53894269116E+02  0.00000000000E+00 0.  1.
          5    1    5    5  502    0 -0.68392930014E+01 -0.96783541712E+02 -0.76240056622E+02  0.12348467965E+03  0.47000000000E+01 0. -1.
         13    1    4    4    0    0  0.35545504908E+01  0.78671321202E+02 -0.89883639362E+02  0.11950263693E+03  0.00000000000E+00 0. -1.
        -14    1    4    4    0    0  0.83995240111E+02  0.58626502712E+02 -0.17679609429E+03  0.20432602902E+03  0.00000000000E+00 0.  1.
         -5    1    3    3    0  504  0.31559694535E+02  0.14220647073E+02  0.15500787766E+02  0.38217869429E+02  0.47000000000E+01 0.  1.
<mgrwt>
<rscale>  2 0.25988559E+03</rscale>
<asrwt>0</asrwt>
<pdfrwt beam="1">  1       21 0.24053581E-01 0.26074284E+03</pdfrwt>
<pdfrwt beam="2">  1       21 0.72409277E-01 0.26074284E+03</pdfrwt>
<totfact> 0.27080556E+04</totfact>
</mgrwt>
</event>
<event>
12    1  0.2736842E-001  0.2030652E+03  0.7546771E-02  0.1148966E+00
         21   -1    0    0  502  503  0.00000000000E+00  0.00000000000E+00  0.22542930340E+03  0.22542930340E+03  0.00000000000E+00 0.  1.
         21   -1    0    0  503  504 -0.00000000000E+00 -0.00000000000E+00 -0.71345813614E+03  0.71345813614E+03  0.00000000000E+00 0.  1.
         -6    2    1    2    0  504  0.90662359872E+01  0.88406201468E+02 -0.65039645482E+03  0.67888987514E+03  0.17314173684E+03 0.  0.
        -24    2    3    3    0    0 -0.75047341127E+01 -0.12812509841E+02 -0.17986120039E+03  0.19728283592E+03  0.79686789997E+02 0.  0.
          6    2    1    2  502    0 -0.90662359872E+01 -0.88406201468E+02  0.16236762208E+03  0.25999756440E+03  0.18258596797E+03 0.  0.
         24    2    5    5    0    0  0.12066367290E+02  0.25604707318E+02  0.92481774501E+02  0.12453097835E+03  0.78446718844E+02 0.  0.
          4    1    6    6  501    0  0.25813736811E+02  0.49174140071E+02  0.54938177973E+02  0.78119449939E+02  0.00000000000E+00 0. -1.
         -3    1    6    6    0  501 -0.13747369521E+02 -0.23569432753E+02  0.37543596528E+02  0.46411528410E+02  0.00000000000E+00 0.  1.
          5    1    5    5  502    0 -0.21132603277E+02 -0.11401090879E+03  0.69885847580E+02  0.13546658605E+03  0.47000000000E+01 0. -1.
         13    1    4    4    0    0  0.24867710257E+02  0.10346863806E+02 -0.22900415565E+02  0.35353778257E+02  0.00000000000E+00 0. -1.
        -14    1    4    4    0    0 -0.32372444370E+02 -0.23159373647E+02 -0.15696078482E+03  0.16192905766E+03  0.00000000000E+00 0.  1.
         -5    1    3    3    0  504  0.16570970100E+02  0.10121871131E+03 -0.47053525443E+03  0.48160703922E+03  0.47000000000E+01 0.  1.
<mgrwt>
<rscale>  2 0.20091949E+03</rscale>
<asrwt>0</asrwt>
<pdfrwt beam="1">  1       21 0.34681432E-01 0.20306523E+03</pdfrwt>
<pdfrwt beam="2">  1       21 0.10976279E+00 0.20306523E+03</pdfrwt>
<totfact> 0.52178393E+03</totfact>
</mgrwt>
</event>
<event>
12    1  0.2736842E-001  0.2224722E+03  0.7546771E-02  0.1132278E+00
         21   -1    0    0  502  503  0.00000000000E+00  0.00000000000E+00  0.83346923066E+02  0.83346923066E+02  0.00000000000E+00 0.  1.
         21   -1    0    0  503  504 -0.00000000000E+00 -0.00000000000E+00 -0.66635028692E+03  0.66635028692E+03  0.00000000000E+00 0. -1.
         -6    2    1    2    0  504 -0.96234941711E+01  0.13900766996E+03 -0.41719436568E+03  0.47223276981E+03  0.17186304483E+03 0.  0.
        -24    2    3    3    0    0 -0.52103902047E+02  0.14994959034E+03 -0.33345587261E+03  0.37758322730E+03  0.78591210139E+02 0.  0.
          6    2    1    2  502    0  0.96234941711E+01 -0.13900766996E+03 -0.16580899817E+03  0.27746444017E+03  0.17343052712E+03 0.  0.
         24    2    5    5    0    0 -0.42881611671E+02 -0.14078810122E+03 -0.14035560149E+03  0.21889890869E+03  0.80974781829E+02 0.  0.
          2    1    6    6  501    0 -0.52439533843E+02 -0.40937224440E+02 -0.68661205585E+02  0.95603986354E+02  0.00000000000E+00 0. -1.
         -1    1    6    6    0  501  0.95579221713E+01 -0.99850876781E+02 -0.71694395907E+02  0.12329492234E+03  0.00000000000E+00 0.  1.
          5    1    5    5  502    0  0.52505105842E+02  0.17804312566E+01 -0.25453396681E+02  0.58565531480E+02  0.47000000000E+01 0. -1.
         13    1    4    4    0    0  0.13972835688E+02  0.74286822443E+02 -0.16417367148E+03  0.18073949910E+03  0.00000000000E+00 0. -1.
        -14    1    4    4    0    0 -0.66076737735E+02  0.75662767901E+02 -0.16928220113E+03  0.19684372821E+03  0.00000000000E+00 0.  1.
         -5    1    3    3    0  504  0.42480407876E+02 -0.10941920380E+02 -0.83738493067E+02  0.94649542503E+02  0.47000000000E+01 0.  1.
<mgrwt>
<rscale>  2 0.22216666E+03</rscale>
<asrwt>0</asrwt>
<pdfrwt beam="1">  1       21 0.12822604E-01 0.22247223E+03</pdfrwt>
<pdfrwt beam="2">  1       21 0.10251543E+00 0.22247223E+03</pdfrwt>
<totfact> 0.39690179E+04</totfact>
</mgrwt>
</event>
<event>
12    1  0.2736842E-001  0.2010406E+03  0.7546771E-02  0.1149069E+00
         21   -1    0    0  502  503  0.00000000000E+00  0.00000000000E+00  0.51745160374E+03  0.51745160374E+03  0.00000000000E+00 0. -1.
         21   -1    0    0  503  504 -0.00000000000E+00 -0.00000000000E+00 -0.10167558020E+03  0.10167558020E+03  0.00000000000E+00 0. -1.
         -6    2    1    2    0  504  0.84593283036E+02  0.55800550397E+02  0.35850143873E+03  0.41102383991E+03  0.17363061492E+03 0.  0.
        -24    2    3    3    0    0  0.50183566240E+02  0.48556896139E+01  0.32942982682E+03  0.34285745472E+03  0.80531083545E+02 0.  0.
          6    2    1    2  502    0 -0.84593283036E+02 -0.55800550397E+02  0.57274584810E+02  0.20810334403E+03  0.17250188049E+03 0.  0.
         24    2    5    5    0    0 -0.37909418291E+02 -0.10117469015E+03  0.40375821359E+02  0.14068039547E+03  0.80543930851E+02 0.  0.
          4    1    6    6  501    0  0.19646000525E+02 -0.15886584951E+01  0.48636809241E+01  0.20301343911E+02  0.00000000000E+00 0. -1.
         -3    1    6    6    0  501 -0.57555418816E+02 -0.99586031660E+02  0.35512140435E+02  0.12037905156E+03  0.00000000000E+00 0.  1.
          5    1    5    5  502    0 -0.46683864745E+02  0.45374139758E+02  0.16898763450E+02  0.67422948559E+02  0.47000000000E+01 0. -1.
         13    1    4    4    0    0  0.27350152649E+02  0.29432949796E+02  0.28150533434E+03  0.28435819427E+03  0.00000000000E+00 0. -1.
        -14    1    4    4    0    0  0.22833413592E+02 -0.24577260183E+02  0.47924492472E+02  0.58499260449E+02  0.00000000000E+00 0.  1.
         -5    1    3    3    0  504  0.34409716795E+02  0.50944860783E+02  0.29071611918E+02  0.68166385188E+02  0.47000000000E+01 0.  1.
<mgrwt>
<rscale>  2 0.20079663E+03</rscale>
<asrwt>0</asrwt>
<pdfrwt beam="1">  1       21 0.79607938E-01 0.20104058E+03</pdfrwt>
<pdfrwt beam="2">  1       21 0.15642397E-01 0.20104058E+03</pdfrwt>
<totfact> 0.50326527E+04</totfact>
</mgrwt>
</event>
<event>
12    1  0.2736842E-001  0.2388308E+03  0.7546771E-02  0.1120674E+00
         21   -1    0    0  502  503  0.00000000000E+00  0.00000000000E+00  0.78804243775E+03  0.78804243775E+03  0.00000000000E+00 0. -1.
         21   -1    0    0  503  504 -0.00000000000E+00 -0.00000000000E+00 -0.73282685530E+02  0.73282685530E+02  0.00000000000E+00 0. -1.
         -6    2    1    2    0  504  0.56597860548E+02 -0.15414923352E+03  0.30550777558E+03  0.38778236317E+03  0.17342103747E+03 0.  0.
        -24    2    3    3    0    0 -0.17086970902E+02 -0.77005603657E+02  0.75318965386E+02  0.13403135854E+03  0.77907836298E+02 0.  0.
          6    2    1    2  502    0 -0.56597860548E+02  0.15414923352E+03  0.40925197664E+03  0.47354276010E+03  0.17259855518E+03 0.  0.
         24    2    5    5    0    0 -0.48350625650E+02  0.23582276700E+02  0.11428976454E+03  0.15083462004E+03  0.82431944956E+02 0.  0.
          2    1    6    6  501    0 -0.32506907257E+01  0.35282050319E+02  0.93168022398E+02  0.99677833355E+02  0.00000000000E+00 0. -1.
         -1    1    6    6    0  501 -0.45099934925E+02 -0.11699773619E+02  0.21121742143E+02  0.51156786687E+02  0.00000000000E+00 0.  1.
          5    1    5    5  502    0 -0.82472348978E+01  0.13056695682E+03  0.29496221210E+03  0.32270814006E+03  0.47000000000E+01 0. -1.
         13    1    4    4    0    0 -0.79102641902E+01 -0.92149361357E+02  0.68344061035E+02  0.11499994677E+03  0.00000000000E+00 0. -1.
        -14    1    4    4    0    0 -0.91767067119E+01  0.15143757700E+02  0.69749043508E+01  0.19031411773E+02  0.00000000000E+00 0.  1.
         -5    1    3    3    0  504  0.73684831450E+02 -0.77143629860E+02  0.23018881019E+03  0.25375100463E+03  0.47000000000E+01 0.  1.
<mgrwt>
<rscale>  2 0.23868154E+03</rscale>
<asrwt>0</asrwt>
<pdfrwt beam="1">  1       21 0.12123729E+00 0.23883082E+03</pdfrwt>
<pdfrwt beam="2">  1       21 0.11274260E-01 0.23883082E+03</pdfrwt>
<totfact> 0.32934892E+04</totfact>
</mgrwt>
</event>
<event>
12    1  0.2736842E-001  0.2464374E+03  0.7546771E-02  0.1115994E+00
         21   -1    0    0  502  503  0.00000000000E+00  0.00000000000E+00  0.28305154183E+03  0.28305154183E+03  0.00000000000E+00 0. -1.
         21   -1    0    0  503  504 -0.00000000000E+00 -0.00000000000E+00 -0.23743769560E+03  0.23743769560E+03  0.00000000000E+00 0.  1.
         -6    2    1    2    0  504 -0.28518887724E+02 -0.17342149241E+03  0.10755176837E+03  0.26888428866E+03  0.17275137286E+03 0.  0.
        -24    2    3    3    0    0  0.48389466368E+01 -0.15691932705E+03  0.13485755721E+03  0.22248641501E+03  0.81648965218E+02 0.  0.
          6    2    1    2  502    0  0.28518887724E+02  0.17342149241E+03 -0.61937922133E+02  0.25160494877E+03  0.16905739576E+03 0.  0.
         24    2    5    5    0    0  0.73973180121E+02  0.13409740169E+03 -0.11701012785E+02  0.17313002367E+03  0.79893346898E+02 0.  0.
          2    1    6    6  501    0  0.74531407317E+02  0.55622952022E+02  0.40549867191E+01  0.93087520031E+02  0.00000000000E+00 0. -1.
         -1    1    6    6    0  501 -0.55822719565E+00  0.78474449673E+02 -0.15755999504E+02  0.80042503643E+02  0.00000000000E+00 0.  1.
          5    1    5    5  502    0 -0.45454292397E+02  0.39324090711E+02 -0.50236909348E+02  0.78474925093E+02  0.47000000000E+01 0. -1.
         13    1    4    4    0    0 -0.26630678734E+02 -0.77801179466E+02  0.10247372258E+03  0.13138904214E+03  0.00000000000E+00 0. -1.
        -14    1    4    4    0    0  0.31469625371E+02 -0.79118147586E+02  0.32383834635E+02  0.91097372872E+02  0.00000000000E+00 0.  1.
         -5    1    3    3    0  504 -0.33357834361E+02 -0.16502165354E+02 -0.27305788844E+02  0.46397873648E+02  0.47000000000E+01 0.  1.
<mgrwt>
<rscale>  2 0.24579103E+03</rscale>
<asrwt>0</asrwt>
<pdfrwt beam="1">  1       21 0.43546391E-01 0.24643737E+03</pdfrwt>
<pdfrwt beam="2">  1       21 0.36528876E-01 0.24643737E+03</pdfrwt>
<totfact> 0.35689950E+04</totfact>
</mgrwt>
</event>
<event>
12    1  0.2736842E-001  0.2621625E+03  0.7546771E-02  0.1105926E+00
         21   -1    0    0  502  503  0.00000000000E+00  0.00000000000E+00  0.22299957290E+03  0.22299957290E+03  0.00000000000E+00 0. -1.
         21   -1    0    0  503  504 -0.00000000000E+00 -0.00000000000E+00 -0.74215870148E+03  0.74215870148E+03  0.00000000000E+00 0.  1.
         -6    2    1    2    0  504  0.13148551275E+03 -0.14628578610E+03 -0.62895115176E+03  0.68140203920E+03  0.17332402157E+03 0.  0.
        -24    2    3    3    0    0  0.14385710737E+03 -0.15978777837E+03 -0.61864176035E+03  0.65986756220E+03  0.80501990881E+02 0.  0.
          6    2    1    2  502    0 -0.13148551275E+03  0.14628578610E+03  0.10979202317E+03  0.28375623518E+03  0.17255532843E+03 0.  0.
         24    2    5    5    0    0 -0.50821207015E+02  0.10687011835E+02  0.74420787346E+02  0.12199415023E+03  0.81529821516E+02 0.  0.
          2    1    6    6  501    0 -0.46246741365E+02  0.31133601179E+02  0.82472825246E+02  0.99548124610E+02  0.00000000000E+00 0. -1.
         -1    1    6    6    0  501 -0.45744656497E+01 -0.20446589344E+02 -0.80520378996E+01  0.22446025619E+02  0.00000000000E+00 0.  1.
          5    1    5    5  502    0 -0.80664305736E+02  0.13559877427E+03  0.35371235825E+02  0.16176208495E+03  0.47000000000E+01 0. -1.
         11    1    4    4    0    0  0.14822069711E+02 -0.44163992394E+02 -0.22517241510E+03  0.22994079346E+03  0.00000000000E+00 0. -1.
        -12    1    4    4    0    0  0.12903503766E+03 -0.11562378598E+03 -0.39346934525E+03  0.42992676874E+03  0.00000000000E+00 0.  1.
         -5    1    3    3    0  504 -0.12371594618E+02  0.13501992269E+02 -0.10309391405E+02  0.21534477002E+02  0.47000000000E+01 0.  1.
<mgrwt>
<rscale>  2 0.26203554E+03</rscale>
<asrwt>0</asrwt>
<pdfrwt beam="1">  1       21 0.34307626E-01 0.26216252E+03</pdfrwt>
<pdfrwt beam="2">  1       21 0.11417826E+00 0.26216252E+03</pdfrwt>
<totfact> 0.46488340E+03</totfact>
</mgrwt>
</event>
<event>
12    1  0.2736842E-001  0.1797747E+03  0.7546771E-02  0.1168107E+00
         21   -1    0    0  502  503  0.00000000000E+00  0.00000000000E+00  0.93917687436E+03  0.93917687436E+03  0.00000000000E+00 0.  1.
         21   -1    0    0  503  504 -0.00000000000E+00 -0.00000000000E+00 -0.35557902930E+02  0.35557902930E+02  0.00000000000E+00 0.  1.
         -6    2    1    2    0  504 -0.51712815548E+02 -0.19275146183E+01  0.54227574166E+03  0.57129845483E+03  0.17216565830E+03 0.  0.
        -24    2    3    3    0    0  0.36625560704E+02 -0.21193429787E+02  0.24968936195E+03  0.26502451896E+03  0.78119299879E+02 0.  0.
          6    2    1    2  502    0  0.51712815548E+02  0.19275146183E+01  0.36134322977E+03  0.40343632246E+03  0.17179640850E+03 0.  0.
         24    2    5    5    0    0  0.44762390138E+02  0.34132857721E+02  0.35590765419E+03  0.36971499360E+03  0.82765902627E+02 0.  0.
          4    1    6    6  501    0 -0.69699560201E+01  0.34206327842E+02  0.24331323444E+03  0.24580476644E+03  0.00000000000E+00 0. -1.
         -3    1    6    6    0  501  0.51732346158E+02 -0.73470121152E-01  0.11259441975E+03  0.12391022717E+03  0.00000000000E+00 0.  1.
          5    1    5    5  502    0  0.69504254104E+01 -0.32205343103E+02  0.54355755814E+01  0.33721328853E+02  0.47000000000E+01 0. -1.
         13    1    4    4    0    0  0.19145533853E+02  0.41503203137E+01  0.22420201023E+03  0.22505625523E+03  0.00000000000E+00 0. -1.
        -14    1    4    4    0    0  0.17480026851E+02 -0.25343750101E+02  0.25487351721E+02  0.39968263731E+02  0.00000000000E+00 0.  1.
         -5    1    3    3    0  504 -0.88338376252E+02  0.19265915169E+02  0.29258637971E+03  0.30627393588E+03  0.47000000000E+01 0.  1.
<mgrwt>
<rscale>  2 0.17968624E+03</rscale>
<asrwt>0</asrwt>
<pdfrwt beam="1">  1       21 0.14448873E+00 0.17977470E+03</pdfrwt>
<pdfrwt beam="2">  1       21 0.54704473E-02 0.17977470E+03</pdfrwt>
<totfact> 0.76608952E+04</totfact>
</mgrwt>
</event>
<event>
12    1  0.2736842E-001  0.2428591E+03  0.7546771E-02  0.1118229E+00
         21   -1    0    0  502  503  0.00000000000E+00  0.00000000000E+00  0.33700104028E+03  0.33700104028E+03  0.00000000000E+00 0. -1.
         21   -1    0    0  503  504 -0.00000000000E+00 -0.00000000000E+00 -0.17595292423E+03  0.17595292423E+03  0.00000000000E+00 0.  1.
         -6    2    1    2    0  504 -0.14441732922E+03  0.86225625889E+02  0.10990929614E+03  0.26476914493E+03  0.17242802322E+03 0.  0.
        -24    2    3    3    0    0 -0.15003363505E+03  0.14558140029E+02  0.87409598922E+02  0.18929664798E+03  0.73964531143E+02 0.  0.
          6    2    1    2  502    0  0.14441732922E+03 -0.86225625889E+02  0.51138819910E+02  0.24818481958E+03  0.17518362433E+03 0.  0.
         24    2    5    5    0    0  0.46073144722E+01 -0.36011048421E+02 -0.11256732173E+02  0.86990406116E+02  0.78247004939E+02 0.  0.
          2    1    6    6  501    0 -0.36401572762E+02 -0.10995165649E+02 -0.78905344152E+01  0.38835920236E+02  0.00000000000E+00 0. -1.
         -1    1    6    6    0  501  0.41008887234E+02 -0.25015882772E+02 -0.33661977574E+01  0.48154485880E+02  0.00000000000E+00 0.  1.
          5    1    5    5  502    0  0.13981001475E+03 -0.50214577468E+02  0.62395552083E+02  0.16119441347E+03  0.47000000000E+01 0. -1.
         11    1    4    4    0    0 -0.54991261284E+02  0.30207571404E+02  0.57258047446E+01  0.63002547787E+02  0.00000000000E+00 0. -1.
        -12    1    4    4    0    0 -0.95042373762E+02 -0.15649431375E+02  0.81683794177E+02  0.12629410019E+03  0.00000000000E+00 0.  1.
         -5    1    3    3    0  504  0.56163058265E+01  0.71667485860E+02  0.22499697216E+02  0.75472496947E+02  0.47000000000E+01 0.  1.
<mgrwt>
<rscale>  2 0.24236250E+03</rscale>
<asrwt>0</asrwt>
<pdfrwt beam="1">  1       21 0.51846314E-01 0.24285907E+03</pdfrwt>
<pdfrwt beam="2">  1       21 0.27069681E-01 0.24285907E+03</pdfrwt>
<totfact> 0.44877388E+04</totfact>
</mgrwt>
</event>
<event>
12    1  0.2736842E-001  0.2008404E+03  0.7546771E-02  0.1149784E+00
         21   -1    0    0  502  503  0.00000000000E+00  0.00000000000E+00  0.53174827481E+02  0.53174827481E+02  0.00000000000E+00 0. -1.
         21   -1    0    0  503  504 -0.00000000000E+00 -0.00000000000E+00 -0.74597687074E+03  0.74597687074E+03  0.00000000000E+00 0. -1.
         -6    2    1    2    0  504  0.90613873293E+02  0.46094946138E+02 -0.36226703038E+03  0.41421524686E+03  0.17320869303E+03 0.  0.
        -24    2    3    3    0    0  0.23041173469E+02  0.36504744813E+02 -0.78557459723E+02  0.12237410479E+03  0.83310593423E+02 0.  0.
          6    2    1    2  502    0 -0.90613873293E+02 -0.46094946138E+02 -0.33053501288E+03  0.38493645136E+03  0.16907707933E+03 0.  0.
         24    2    5    5    0    0 -0.12025391088E+03 -0.66845134861E+02 -0.25119009817E+03  0.29760485542E+03  0.80888252626E+02 0.  0.
          2    1    6    6  501    0 -0.10627167253E+03 -0.23604951450E+02 -0.13896746000E+03  0.17652993246E+03  0.00000000000E+00 0. -1.
         -1    1    6    6    0  501 -0.13982238344E+02 -0.43240183412E+02 -0.11222263818E+03  0.12107492296E+03  0.00000000000E+00 0.  1.
          5    1    5    5  502    0  0.29640037583E+02  0.20750188723E+02 -0.79344914702E+02  0.87331595938E+02  0.47000000000E+01 0. -1.
         13    1    4    4    0    0  0.58306803298E+01 -0.26739495030E+02 -0.31255349867E+02  0.41543884302E+02  0.00000000000E+00 0. -1.
        -14    1    4    4    0    0  0.17210493140E+02  0.63244239844E+02 -0.47302109855E+02  0.80830220489E+02  0.00000000000E+00 0.  1.
         -5    1    3    3    0  504  0.67572699823E+02  0.95902013247E+01 -0.28370957066E+03  0.29184114207E+03  0.47000000000E+01 0.  1.
<mgrwt>
<rscale>  2 0.19994643E+03</rscale>
<asrwt>0</asrwt>
<pdfrwt beam="1">  1       21 0.81807432E-02 0.20084041E+03</pdfrwt>
<pdfrwt beam="2">  1       21 0.11476566E+00 0.20084041E+03</pdfrwt>
<totfact> 0.67731067E+04</totfact>
</mgrwt>
</event>
<event>
12    1  0.2736842E-001  0.1952586E+03  0.7546771E-02  0.1154697E+00
         21   -1    0    0  502  503  0.00000000000E+00  0.00000000000E+00  0.15807382909E+03  0.15807382909E+03  0.00000000000E+00 0.  1.
         21   -1    0    0  503  504 -0.00000000000E+00 -0.00000000000E+00 -0.24540445318E+03  0.24540445318E+03  0.00000000000E+00 0.  1.
         -6    2    1    2    0  504  0.50823467989E+02 -0.64647123839E+02 -0.82298977499E+02  0.20815484186E+03  0.17260660756E+03 0.  0.
        -24    2    3    3    0    0 -0.33987674776E+02 -0.23768548466E+02 -0.67749971130E+02  0.11277270806E+03  0.80046980969E+02 0.  0.
          6    2    1    2  502    0 -0.50823467989E+02  0.64647123839E+02 -0.50316465938E+01  0.19532344041E+03  0.17709786387E+03 0.  0.
         24    2    5    5    0    0 -0.30993964601E+02  0.79722729986E+02  0.54857212607E+02  0.13029076738E+03  0.81547720823E+02 0.  0.
          2    1    6    6  501    0 -0.35514922599E+02  0.91136401564E+02  0.29574519680E+02  0.10218515367E+03  0.00000000000E+00 0. -1.
         -1    1    6    6    0  501  0.45209579983E+01 -0.11413671578E+02  0.25282692927E+02  0.28105613705E+02  0.00000000000E+00 0.  1.
          5    1    5    5  502    0 -0.19829503388E+02 -0.15075606147E+02 -0.59888859200E+02  0.65032673032E+02  0.47000000000E+01 0. -1.
         13    1    4    4    0    0 -0.66135318150E+01  0.26237972590E+02 -0.41716310895E+01  0.27378321984E+02  0.00000000000E+00 0. -1.
        -14    1    4    4    0    0 -0.27374142961E+02 -0.50006521056E+02 -0.63578340040E+02  0.85394386076E+02  0.00000000000E+00 0.  1.
         -5    1    3    3    0  504  0.84811142765E+02 -0.40878575373E+02 -0.14549006369E+02  0.95382133799E+02  0.47000000000E+01 0.  1.
<mgrwt>
<rscale>  2 0.19423455E+03</rscale>
<asrwt>0</asrwt>
<pdfrwt beam="1">  1       21 0.24319051E-01 0.19525862E+03</pdfrwt>
<pdfrwt beam="2">  1       21 0.37754531E-01 0.19525862E+03</pdfrwt>
<totfact> 0.10791623E+05</totfact>
</mgrwt>
</event>
<event>
12    1  0.2736842E-001  0.1756266E+03  0.7546771E-02  0.1172202E+00
         21   -1    0    0  502  503  0.00000000000E+00  0.00000000000E+00  0.94383113898E+03  0.94383113898E+03  0.00000000000E+00 0.  1.
         21   -1    0    0  503  504 -0.00000000000E+00 -0.00000000000E+00 -0.71381045539E+02  0.71381045539E+02  0.00000000000E+00 0. -1.
         -6    2    1    2    0  504  0.31754983515E+01  0.28482302121E+02  0.61890017716E+02  0.18584354661E+03  0.17287603709E+03 0.  0.
        -24    2    3    3    0    0 -0.51790090580E+02  0.31495259874E+01 -0.47569722586E+01  0.95694354793E+02  0.80266105910E+02 0.  0.
          6    2    1    2  502    0 -0.31754983515E+01 -0.28482302121E+02  0.81056007573E+03  0.82936863791E+03  0.17327254791E+03 0.  0.
         24    2    5    5    0    0  0.15305283488E+02  0.52785611771E+02  0.44627358854E+03  0.45564046414E+03  0.73671868546E+02 0.  0.
          2    1    6    6  501    0  0.30025261059E+02 -0.61735866740E+01  0.12819096457E+03  0.13180498045E+03  0.00000000000E+00 0. -1.
         -1    1    6    6    0  501 -0.14719977571E+02  0.58959198445E+02  0.31808262398E+03  0.32383548369E+03  0.00000000000E+00 0.  1.
          5    1    5    5  502    0 -0.18480781839E+02 -0.81267913893E+02  0.36428648718E+03  0.37372817377E+03  0.47000000000E+01 0. -1.
         13    1    4    4    0    0 -0.21070967648E+02  0.84679915286E+01 -0.41622099846E+02  0.47414045954E+02  0.00000000000E+00 0. -1.
        -14    1    4    4    0    0 -0.30719122933E+02 -0.53184655413E+01  0.36865127588E+02  0.48280308838E+02  0.00000000000E+00 0.  1.
         -5    1    3    3    0  504  0.54965588932E+02  0.25332776134E+02  0.66646989975E+02  0.90149191821E+02  0.47000000000E+01 0.  1.
<mgrwt>
<rscale>  2 0.17552872E+03</rscale>
<asrwt>0</asrwt>
<pdfrwt beam="1">  1       21 0.14520478E+00 0.17562660E+03</pdfrwt>
<pdfrwt beam="2">  1       21 0.10981700E-01 0.17562660E+03</pdfrwt>
<totfact> 0.22624644E+04</totfact>
</mgrwt>
</event>
<event>
12    1  0.2736842E-001  0.2369296E+03  0.7546771E-02  0.1121950E+00
         21   -1    0    0  502  503  0.00000000000E+00  0.00000000000E+00  0.27220956633E+03  0.27220956633E+03  0.00000000000E+00 0.  1.
         21   -1    0    0  503  504 -0.00000000000E+00 -0.00000000000E+00 -0.22971534238E+03  0.22971534238E+03  0.00000000000E+00 0.  1.
         -6    2    1    2    0  504  0.15127002286E+03  0.56761124896E+02 -0.59861888788E+02  0.24383107647E+03  0.17252739784E+03 0.  0.
        -24    2    3    3    0    0  0.81618619594E+02 -0.36313073774E+02 -0.35343473742E+02  0.12493041578E+03  0.79863691750E+02 0.  0.
          6    2    1    2  502    0 -0.15127002286E+03 -0.56761124896E+02  0.10235611274E+03  0.25809383223E+03  0.17329514507E+03 0.  0.
         24    2    5    5    0    0 -0.16470813795E+03 -0.55847690733E+02  0.12694827069E+03  0.22966353974E+03  0.79885810933E+02 0.  0.
          4    1    6    6  501    0 -0.13718401802E+03 -0.99035680573E+01  0.85612383146E+02  0.16200930716E+03  0.00000000000E+00 0. -1.
         -3    1    6    6    0  501 -0.27524119928E+02 -0.45944122676E+02  0.41335887541E+02  0.67654232573E+02  0.00000000000E+00 0.  1.
          5    1    5    5  502    0  0.13438115080E+02 -0.91343416267E+00 -0.24592157948E+02  0.28430292497E+02  0.47000000000E+01 0. -1.
         13    1    4    4    0    0  0.16680984138E+02 -0.50561373802E+02 -0.13155202578E+02  0.54843113583E+02  0.00000000000E+00 0. -1.
        -14    1    4    4    0    0  0.64937635456E+02  0.14248300028E+02 -0.22188271164E+02  0.70087302199E+02  0.00000000000E+00 0.  1.
         -5    1    3    3    0  504  0.69651403271E+02  0.93074198670E+02 -0.24518415047E+02  0.11890066069E+03  0.47000000000E+01 0.  1.
<mgrwt>
<rscale>  2 0.23678927E+03</rscale>
<asrwt>0</asrwt>
<pdfrwt beam="1">  1       21 0.41878395E-01 0.23692964E+03</pdfrwt>
<pdfrwt beam="2">  1       21 0.35340822E-01 0.23692964E+03</pdfrwt>
<totfact> 0.41481410E+04</totfact>
</mgrwt>
</event>
<event>
12    1  0.2736842E-001  0.2346533E+03  0.7546771E-02  0.1123505E+00
         21   -1    0    0  502  503  0.00000000000E+00  0.00000000000E+00  0.40612749047E+03  0.40612749047E+03  0.00000000000E+00 0.  1.
         21   -1    0    0  503  504 -0.00000000000E+00 -0.00000000000E+00 -0.13666378258E+03  0.13666378258E+03  0.00000000000E+00 0. -1.
         -6    2    1    2    0  504  0.63478323303E+02  0.14480102347E+03  0.10726785864E+03  0.25800882843E+03  0.17339356424E+03 0.  0.
        -24    2    3    3    0    0  0.74202830573E+02  0.21928133311E+02  0.50626304358E+02  0.12220338721E+03  0.79898323243E+02 0.  0.
          6    2    1    2  502    0 -0.63478323303E+02 -0.14480102347E+03  0.16219584925E+03  0.28478244462E+03  0.17261724515E+03 0.  0.
         24    2    5    5    0    0  0.26022968304E+02 -0.69943913554E+02  0.12105403542E+03  0.16097288542E+03  0.75424428578E+02 0.  0.
          2    1    6    6  501    0  0.34690331113E+02 -0.81717551182E+02  0.88824960526E+02  0.12558284459E+03  0.00000000000E+00 0. -1.
         -1    1    6    6    0  501 -0.86673628093E+01  0.11773637628E+02  0.32229074899E+02  0.35390040829E+02  0.00000000000E+00 0.  1.
          5    1    5    5  502    0 -0.89501291607E+02 -0.74857109919E+02  0.41141813826E+02  0.12380955920E+03  0.47000000000E+01 0. -1.
         11    1    4    4    0    0  0.39759069566E+02  0.15683555806E+02  0.70132714376E+02  0.82130111173E+02  0.00000000000E+00 0. -1.
        -12    1    4    4    0    0  0.34443761007E+02  0.62445775054E+01 -0.19506410018E+02  0.40073276037E+02  0.00000000000E+00 0.  1.
         -5    1    3    3    0  504 -0.10724507270E+02  0.12287289016E+03  0.56641554285E+02  0.13580544122E+03  0.47000000000E+01 0.  1.
<mgrwt>
<rscale>  2 0.23450988E+03</rscale>
<asrwt>0</asrwt>
<pdfrwt beam="1">  1       21 0.62481152E-01 0.23465328E+03</pdfrwt>
<pdfrwt beam="2">  1       21 0.21025198E-01 0.23465328E+03</pdfrwt>
<totfact> 0.48948330E+04</totfact>
</mgrwt>
</event>
<event>
12    1  0.2736842E-001  0.2037253E+03  0.7546771E-02  0.1146813E+00
         21   -1    0    0  502  503  0.00000000000E+00  0.00000000000E+00  0.25506153604E+03  0.25506153604E+03  0.00000000000E+00 0.  1.
         21   -1    0    0  503  504 -0.00000000000E+00 -0.00000000000E+00 -0.16209862887E+03  0.16209862887E+03  0.00000000000E+00 0.  1.
         -6    2    1    2    0  504 -0.10353837954E+03 -0.17165870592E+01  0.50803469381E+02  0.20911830752E+03  0.17443145166E+03 0.  0.
        -24    2    3    3    0    0  0.61703812221E+01 -0.19149083301E+02 -0.89372647804E+01  0.82900442571E+02  0.79924011917E+02 0.  0.
          6    2    1    2  502    0  0.10353837954E+03  0.17165870592E+01  0.42159437787E+02  0.20804185739E+03  0.17544473068E+03 0.  0.
         24    2    5    5    0    0  0.10237390469E+03  0.35785846006E+02 -0.19453735778E+02  0.13747030814E+03  0.82210672353E+02 0.  0.
          4    1    6    6  501    0  0.69039348325E+02 -0.18575525947E+02 -0.27341075877E+01  0.71546887603E+02  0.00000000000E+00 0. -1.
         -3    1    6    6    0  501  0.33334556368E+02  0.54361371954E+02 -0.16719628190E+02  0.65923420540E+02  0.00000000000E+00 0.  1.
          5    1    5    5  502    0  0.11644748493E+01 -0.34069258947E+02  0.61613173564E+02  0.70571549250E+02  0.47000000000E+01 0. -1.
         11    1    4    4    0    0  0.32650602411E+01 -0.38993824668E+02  0.22851016804E+02  0.45313882526E+02  0.00000000000E+00 0. -1.
        -12    1    4    4    0    0  0.29053209810E+01  0.19844741367E+02 -0.31788281584E+02  0.37586560045E+02  0.00000000000E+00 0.  1.
         -5    1    3    3    0  504 -0.10970876076E+03  0.17432496242E+02  0.59740734162E+02  0.12621786495E+03  0.47000000000E+01 0.  1.
<mgrwt>
<rscale>  2 0.20350695E+03</rscale>
<asrwt>0</asrwt>
<pdfrwt beam="1">  1       21 0.39240236E-01 0.20372530E+03</pdfrwt>
<pdfrwt beam="2">  1       21 0.24938250E-01 0.20372530E+03</pdfrwt>
<totfact> 0.94854086E+04</totfact>
</mgrwt>
</event>
<event>
12    1  0.2736842E-001  0.2027111E+03  0.7546771E-02  0.1148340E+00
         21   -1    0    0  502  503  0.00000000000E+00  0.00000000000E+00  0.34410412831E+03  0.34410412831E+03  0.00000000000E+00 0.  1.
         21   -1    0    0  503  504 -0.00000000000E+00 -0.00000000000E+00 -0.12464244032E+03  0.12464244032E+03  0.00000000000E+00 0.  1.
         -6    2    1    2    0  504  0.39937025618E+02  0.89759450673E+02  0.50595807057E+02  0.20491430095E+03  0.17256364055E+03 0.  0.
        -24    2    3    3    0    0 -0.16554740318E+00 -0.18247906385E+02  0.77900026838E+01  0.81917421192E+02  0.79478086663E+02 0.  0.
          6    2    1    2  502    0 -0.39937025618E+02 -0.89759450673E+02  0.16886588094E+03  0.26383226768E+03  0.17731343639E+03 0.  0.
         24    2    5    5    0    0 -0.68987509770E+02 -0.11959552372E+03  0.12350751511E+03  0.20207797038E+03  0.80740535215E+02 0.  0.
          2    1    6    6  501    0 -0.32046630248E+02 -0.84919745517E+02  0.12112076581E+03  0.15135583768E+03  0.00000000000E+00 0. -1.
         -1    1    6    6    0  501 -0.36940879521E+02 -0.34675778201E+02  0.23867493010E+01  0.50722132703E+02  0.00000000000E+00 0.  1.
          5    1    5    5  502    0  0.29050484151E+02  0.29836073046E+02  0.45358365829E+02  0.61754297299E+02  0.47000000000E+01 0. -1.
         11    1    4    4    0    0  0.29807068836E+02 -0.32549211330E+02 -0.84703435027E+01  0.44940618931E+02  0.00000000000E+00 0. -1.
        -12    1    4    4    0    0 -0.29972616239E+02  0.14301304945E+02  0.16260346186E+02  0.36976802261E+02  0.00000000000E+00 0.  1.
         -5    1    3    3    0  504  0.40102573021E+02  0.10800735706E+03  0.42805804373E+02  0.12299687976E+03  0.47000000000E+01 0.  1.
<mgrwt>
<rscale>  2 0.20166771E+03</rscale>
<asrwt>0</asrwt>
<pdfrwt beam="1">  1       21 0.52939096E-01 0.20271107E+03</pdfrwt>
<pdfrwt beam="2">  1       21 0.19175760E-01 0.20271107E+03</pdfrwt>
<totfact> 0.84048117E+04</totfact>
</mgrwt>
</event>
<event>
12    1  0.2736842E-001  0.1873042E+03  0.7546771E-02  0.1161882E+00
         21   -1    0    0  502  503  0.00000000000E+00  0.00000000000E+00  0.49243654885E+03  0.49243654885E+03  0.00000000000E+00 0.  1.
         21   -1    0    0  503  504 -0.00000000000E+00 -0.00000000000E+00 -0.33018930863E+03  0.33018930863E+03  0.00000000000E+00 0.  1.
         -6    2    1    2    0  504  0.86911982786E+01 -0.53196446059E+02 -0.28441462582E+03  0.33828127631E+03  0.17503469289E+03 0.  0.
        -24    2    3    3    0    0 -0.48495399251E+02 -0.23213521746E+02 -0.86101904178E+02  0.12966845730E+03  0.80682709269E+02 0.  0.
          6    2    1    2  502    0 -0.86911982786E+01  0.53196446059E+02  0.44666186605E+03  0.48434458117E+03  0.17938074570E+03 0.  0.
         24    2    5    5    0    0 -0.88040635803E+01  0.10642371052E+03  0.32281669161E+03  0.34946362754E+03  0.80688864738E+02 0.  0.
          4    1    6    6  501    0 -0.39748447723E+02  0.29156836432E+02  0.14452224755E+03  0.15269819987E+03  0.00000000000E+00 0. -1.
         -3    1    6    6    0  501  0.30944384143E+02  0.77266874093E+02  0.17829444405E+03  0.19676542766E+03  0.00000000000E+00 0.  1.
          5    1    5    5  502    0  0.11286530170E+00 -0.53227264466E+02  0.12384517444E+03  0.13488095364E+03  0.47000000000E+01 0. -1.
         11    1    4    4    0    0  0.18709659740E+02 -0.16224608619E+02 -0.72016270007E+01  0.25790554936E+02  0.00000000000E+00 0. -1.
        -12    1    4    4    0    0 -0.67205058992E+02 -0.69889131273E+01 -0.78900277178E+02  0.10387790236E+03  0.00000000000E+00 0.  1.
         -5    1    3    3    0  504  0.57186597530E+02 -0.29982924312E+02 -0.19831272165E+03  0.20861281901E+03  0.47000000000E+01 0.  1.
<mgrwt>
<rscale>  2 0.18625592E+03</rscale>
<asrwt>0</asrwt>
<pdfrwt beam="1">  1       21 0.75759470E-01 0.18730417E+03</pdfrwt>
<pdfrwt beam="2">  1       21 0.50798355E-01 0.18730417E+03</pdfrwt>
<totfact> 0.57542583E+03</totfact>
</mgrwt>
</event>
<event>
12    1  0.2736842E-001  0.3300194E+03  0.7546771E-02  0.1071799E+00
         21   -1    0    0  502  503  0.00000000000E+00  0.00000000000E+00  0.23367356925E+03  0.23367356925E+03  0.00000000000E+00 0. -1.
         21   -1    0    0  503  504 -0.00000000000E+00 -0.00000000000E+00 -0.45774321142E+03  0.45774321142E+03  0.00000000000E+00 0.  1.
         -6    2    1    2    0  504 -0.21677842223E+03  0.17850452233E+03 -0.10603804790E+03  0.34092530901E+03  0.16164544498E+03 0.  0.
        -24    2    3    3    0    0 -0.20805863367E+03  0.17845910828E+03 -0.13085619759E+03  0.31420327075E+03  0.80400886346E+02 0.  0.
          6    2    1    2  502    0  0.21677842223E+03 -0.17850452233E+03 -0.11803159427E+03  0.35049147166E+03  0.17336685272E+03 0.  0.
         24    2    5    5    0    0  0.15905591037E+03 -0.11282575226E+03 -0.14878804030E+03  0.25768178367E+03  0.78953072786E+02 0.  0.
          2    1    6    6  501    0 -0.83630232254E+01 -0.90173422503E+01 -0.31349010572E+01  0.12691738390E+02  0.00000000000E+00 0. -1.
         -1    1    6    6    0  501  0.16741893360E+03 -0.10380841001E+03 -0.14565313924E+03  0.24499004528E+03  0.00000000000E+00 0.  1.
          5    1    5    5  502    0  0.57722511863E+02 -0.65678770073E+02  0.30756446022E+02  0.92809687996E+02  0.47000000000E+01 0. -1.
         13    1    4    4    0    0 -0.36398309755E+01  0.31781973685E+02 -0.34178688710E+01  0.32171789637E+02  0.00000000000E+00 0. -1.
        -14    1    4    4    0    0 -0.20441880270E+03  0.14667713460E+03 -0.12743832872E+03  0.28203148111E+03  0.00000000000E+00 0.  1.
         -5    1    3    3    0  504 -0.87197885580E+01  0.45414050300E-01  0.24818149691E+02  0.26722038264E+02  0.47000000000E+01 0.  1.
<mgrwt>
<rscale>  2 0.32850807E+03</rscale>
<asrwt>0</asrwt>
<pdfrwt beam="1">  1       21 0.35949780E-01 0.33001942E+03</pdfrwt>
<pdfrwt beam="2">  1       21 0.70422032E-01 0.33001942E+03</pdfrwt>
<totfact> 0.12717188E+04</totfact>
</mgrwt>
</event>
<event>
12    1  0.2736842E-001  0.2798725E+03  0.7546771E-02  0.1095814E+00
         21   -1    0    0  502  503  0.00000000000E+00  0.00000000000E+00  0.83087444830E+03  0.83087444830E+03  0.00000000000E+00 0. -1.
         21   -1    0    0  503  504 -0.00000000000E+00 -0.00000000000E+00 -0.10694251168E+03  0.10694251168E+03  0.00000000000E+00 0. -1.
         -6    2    1    2    0  504 -0.16409121855E+03  0.14502320062E+03  0.52400305470E+03  0.59386902833E+03  0.17361902186E+03 0.  0.
        -24    2    3    3    0    0 -0.91661287967E+02  0.39134466543E+02  0.14518894792E+03  0.19389310862E+03  0.81125882372E+02 0.  0.
          6    2    1    2  502    0  0.16409121855E+03 -0.14502320062E+03  0.19992888193E+03  0.34394793165E+03  0.17427267466E+03 0.  0.
         24    2    5    5    0    0  0.51443200032E+02 -0.96520020076E+02  0.16985009165E+03  0.21757958821E+03  0.80804124060E+02 0.  0.
          4    1    6    6  501    0 -0.72930398282E+00 -0.34964981626E+02  0.67602091343E+01  0.35619969848E+02  0.00000000000E+00 0. -1.
         -3    1    6    6    0  501  0.52172504015E+02 -0.61555038449E+02  0.16308988252E+03  0.18195961836E+03  0.00000000000E+00 0.  1.
          5    1    5    5  502    0  0.11264801852E+03 -0.48503180548E+02  0.30078790276E+02  0.12636834344E+03  0.47000000000E+01 0. -1.
         13    1    4    4    0    0 -0.97307345321E+02  0.54864622437E+02  0.12863718341E+03  0.17037127459E+03  0.00000000000E+00 0. -1.
        -14    1    4    4    0    0  0.56460573545E+01 -0.15730155894E+02  0.16551764504E+02  0.23521834033E+02  0.00000000000E+00 0.  1.
         -5    1    3    3    0  504 -0.72429930588E+02  0.10588873408E+03  0.37881410678E+03  0.39997591971E+03  0.47000000000E+01 0.  1.
<mgrwt>
<rscale>  2 0.27977082E+03</rscale>
<asrwt>0</asrwt>
<pdfrwt beam="1">  1       21 0.12782683E+00 0.27987251E+03</pdfrwt>
<pdfrwt beam="2">  1       21 0.16452695E-01 0.27987251E+03</pdfrwt>
<totfact> 0.14197561E+04</totfact>
</mgrwt>
</event>
<event>
12    1  0.2736842E-001  0.3290438E+03  0.7546771E-02  0.1071592E+00
         21   -1    0    0  502  503  0.00000000000E+00  0.00000000000E+00  0.11613907523E+04  0.11613907523E+04  0.00000000000E+00 0. -1.
         21   -1    0    0  503  504 -0.00000000000E+00 -0.00000000000E+00 -0.13042526409E+03  0.13042526409E+03  0.00000000000E+00 0.  1.
         -6    2    1    2    0  504  0.18070828454E+03  0.21330426732E+03  0.17031201848E+03  0.37050779375E+03  0.17353860388E+03 0.  0.
        -24    2    3    3    0    0  0.76190860803E+02  0.17934085717E+03  0.14988465651E+03  0.25862941242E+03  0.80346576716E+02 0.  0.
          6    2    1    2  502    0 -0.18070828454E+03 -0.21330426732E+03  0.86065346976E+03  0.92130822267E+03  0.17300361724E+03 0.  0.
         24    2    5    5    0    0 -0.12056527064E+03 -0.12558376594E+03  0.34896167258E+03  0.39865857540E+03  0.82747471606E+02 0.  0.
          2    1    6    6  501    0 -0.13725174035E+01  0.10194876376E+02  0.89947459749E+01  0.13664726982E+02  0.00000000000E+00 0. -1.
         -1    1    6    6    0  501 -0.11919275324E+03 -0.13577864232E+03  0.33996692660E+03  0.38499384841E+03  0.00000000000E+00 0.  1.
          5    1    5    5  502    0 -0.60143013895E+02 -0.87720501379E+02  0.51169179719E+03  0.52264964727E+03  0.47000000000E+01 0. -1.
         13    1    4    4    0    0  0.40222225203E+02  0.30801914108E+02  0.69330440749E+02  0.85867894626E+02  0.00000000000E+00 0. -1.
        -14    1    4    4    0    0  0.35968635600E+02  0.14853894306E+03  0.80554215762E+02  0.17276151779E+03  0.00000000000E+00 0.  1.
         -5    1    3    3    0  504  0.10451742373E+03  0.33963410152E+02  0.20427361968E+02  0.11187838133E+03  0.47000000000E+01 0.  1.
<mgrwt>
<rscale>  2 0.32897335E+03</rscale>
<asrwt>0</asrwt>
<pdfrwt beam="1">  1       21 0.17867549E+00 0.32904383E+03</pdfrwt>
<pdfrwt beam="2">  1       21 0.20065426E-01 0.32904383E+03</pdfrwt>
<totfact> 0.38730027E+03</totfact>
</mgrwt>
</event>
<event>
12    1  0.2736842E-001  0.2140944E+03  0.7546771E-02  0.1138422E+00
         21   -1    0    0  502  503  0.00000000000E+00  0.00000000000E+00  0.13894132353E+03  0.13894132353E+03  0.00000000000E+00 0.  1.
         21   -1    0    0  503  504 -0.00000000000E+00 -0.00000000000E+00 -0.42417076440E+03  0.42417076440E+03  0.00000000000E+00 0.  1.
         -6    2    1    2    0  504 -0.64320121932E+02  0.10837674355E+03 -0.27574941425E+03  0.34910476778E+03  0.17307166955E+03 0.  0.
        -24    2    3    3    0    0 -0.50467342392E+02  0.51413834930E-01 -0.18363574339E+03  0.20615969120E+03  0.78947936873E+02 0.  0.
          6    2    1    2  502    0  0.64320121932E+02 -0.10837674355E+03 -0.94800266155E+01  0.21400732014E+03  0.17270398241E+03 0.  0.
         24    2    5    5    0    0 -0.23831693878E+01 -0.11724775987E+03  0.13702358842E+02  0.14268034769E+03  0.80107492077E+02 0.  0.
          4    1    6    6  501    0  0.18616677233E+02 -0.97630907476E+02  0.36622357778E+02  0.10592248040E+03  0.00000000000E+00 0. -1.
         -3    1    6    6    0  501 -0.20999846620E+02 -0.19616852396E+02 -0.22919998935E+02  0.36757867283E+02  0.00000000000E+00 0.  1.
          5    1    5    5  502    0  0.66703291320E+02  0.88710163247E+01 -0.23182385458E+02  0.71326972451E+02  0.47000000000E+01 0. -1.
         13    1    4    4    0    0 -0.44260704047E+02 -0.26983524941E+01 -0.32761072484E+02  0.55132376143E+02  0.00000000000E+00 0. -1.
        -14    1    4    4    0    0 -0.62066383449E+01  0.27497663290E+01 -0.15087467090E+03  0.15102731506E+03  0.00000000000E+00 0.  1.
         -5    1    3    3    0  504 -0.13852779541E+02  0.10832532971E+03 -0.92113670867E+02  0.14294507658E+03  0.47000000000E+01 0.  1.
<mgrwt>
<rscale>  2 0.21402005E+03</rscale>
<asrwt>0</asrwt>
<pdfrwt beam="1">  1       21 0.21375588E-01 0.21409437E+03</pdfrwt>
<pdfrwt beam="2">  1       21 0.65257040E-01 0.21409437E+03</pdfrwt>
<totfact> 0.43563937E+04</totfact>
</mgrwt>
</event>
<event>
12    1  0.2736842E-001  0.2110815E+03  0.7546771E-02  0.1140892E+00
         21   -1    0    0  502  503  0.00000000000E+00  0.00000000000E+00  0.11811306994E+03  0.11811306994E+03  0.00000000000E+00 0.  1.
         21   -1    0    0  503  504 -0.00000000000E+00 -0.00000000000E+00 -0.40668985573E+03  0.40668985573E+03  0.00000000000E+00 0. -1.
         -6    2    1    2    0  504 -0.11986140252E+03 -0.16002276746E+02 -0.21712396407E+03  0.30281712544E+03  0.17301030898E+03 0.  0.
        -24    2    3    3    0    0 -0.82414737906E+02  0.28099021346E+02 -0.21493577749E+03  0.24473050612E+03  0.78191356010E+02 0.  0.
          6    2    1    2  502    0  0.11986140252E+03  0.16002276746E+02 -0.71452821721E+02  0.22198580023E+03  0.17189927603E+03 0.  0.
         24    2    5    5    0    0  0.89556721055E+02  0.26543617442E+02  0.18390847360E+02  0.12646895116E+03  0.83253843326E+02 0.  0.
          4    1    6    6  501    0  0.87570921555E+02  0.19470511924E+02 -0.16153461294E+02  0.91152078683E+02  0.00000000000E+00 0. -1.
         -3    1    6    6    0  501  0.19857994997E+01  0.70731055183E+01  0.34544308654E+02  0.35316872479E+02  0.00000000000E+00 0.  1.
          5    1    5    5  502    0  0.30304681463E+02 -0.10541340697E+02 -0.89843669081E+02  0.95516849069E+02  0.47000000000E+01 0. -1.
         11    1    4    4    0    0 -0.26760946413E-01 -0.59457640579E+01 -0.95548723321E+02  0.95733543519E+02  0.00000000000E+00 0. -1.
        -12    1    4    4    0    0 -0.82387976959E+02  0.34044785404E+02 -0.11938705417E+03  0.14899696260E+03  0.00000000000E+00 0.  1.
         -5    1    3    3    0  504 -0.37446664612E+02 -0.44101298092E+02 -0.21881865759E+01  0.58086619323E+02  0.47000000000E+01 0.  1.
<mgrwt>
<rscale>  2 0.21085370E+03</rscale>
<asrwt>0</asrwt>
<pdfrwt beam="1">  1       21 0.18171242E-01 0.21108149E+03</pdfrwt>
<pdfrwt beam="2">  1       21 0.62567670E-01 0.21108149E+03</pdfrwt>
<totfact> 0.64768264E+04</totfact>
</mgrwt>
</event>
<event>
12    1  0.2736842E-001  0.2406543E+03  0.7546771E-02  0.1119451E+00
         21   -1    0    0  502  503  0.00000000000E+00  0.00000000000E+00  0.15552007953E+04  0.15552007953E+04  0.00000000000E+00 0. -1.
         21   -1    0    0  503  504 -0.00000000000E+00 -0.00000000000E+00 -0.13901729907E+03  0.13901729907E+03  0.00000000000E+00 0.  1.
         -6    2    1    2    0  504  0.15845826379E+03  0.51836511025E+02 -0.17261853707E+02  0.24071196598E+03  0.17276641380E+03 0.  0.
        -24    2    3    3    0    0  0.72184976206E+02 -0.39900004951E+02  0.12366370375E+02  0.11125699244E+03  0.73637694595E+02 0.  0.
          6    2    1    2  502    0 -0.15845826379E+03 -0.51836511025E+02  0.14334453500E+04  0.14535061284E+04  0.17354667608E+03 0.  0.
         24    2    5    5    0    0 -0.16149258681E+03 -0.32470647013E+02  0.14125062021E+04  0.14244409995E+04  0.82001168329E+02 0.  0.
          2    1    6    6  501    0 -0.15388752467E+03 -0.24584030928E+02  0.13957367008E+04  0.14044097275E+04  0.00000000000E+00 0. -1.
         -1    1    6    6    0  501 -0.76050621446E+01 -0.78866160849E+01  0.16769501329E+02  0.20031272009E+02  0.00000000000E+00 0.  1.
          5    1    5    5  502    0  0.30343230262E+01 -0.19365864012E+02  0.20939147871E+02  0.29065128913E+02  0.47000000000E+01 0. -1.
         11    1    4    4    0    0  0.28905194065E+02  0.14376958981E+02  0.24829342290E+02  0.40727182962E+02  0.00000000000E+00 0. -1.
        -12    1    4    4    0    0  0.43279782140E+02 -0.54276963932E+02 -0.12462971915E+02  0.70529809476E+02  0.00000000000E+00 0.  1.
         -5    1    3    3    0  504  0.86273287581E+02  0.91736515976E+02 -0.29628224081E+02  0.12945497355E+03  0.47000000000E+01 0.  1.
<mgrwt>
<rscale>  2 0.24051366E+03</rscale>
<asrwt>0</asrwt>
<pdfrwt beam="1">  1       21 0.23926165E+00 0.24065430E+03</pdfrwt>
<pdfrwt beam="2">  1       21 0.21387278E-01 0.24065430E+03</pdfrwt>
<totfact> 0.14896190E+03</totfact>
</mgrwt>
</event>
<event>
12    1  0.2736842E-001  0.2162611E+03  0.7546771E-02  0.1136825E+00
         21   -1    0    0  502  503  0.00000000000E+00  0.00000000000E+00  0.47668966414E+02  0.47668966414E+02  0.00000000000E+00 0. -1.
         21   -1    0    0  503  504 -0.00000000000E+00 -0.00000000000E+00 -0.10125249835E+04  0.10125249835E+04  0.00000000000E+00 0.  1.
         -6    2    1    2    0  504 -0.18311817383E+02 -0.12807659304E+03 -0.38550797280E+03  0.44202406146E+03  0.17329148126E+03 0.  0.
        -24    2    3    3    0    0 -0.80095841320E+01 -0.13293555328E+03 -0.18509327342E+03  0.24123091608E+03  0.78719884680E+02 0.  0.
          6    2    1    2  502    0  0.18311817383E+02  0.12807659304E+03 -0.57934804433E+03  0.61816988850E+03  0.17248454492E+03 0.  0.
         24    2    5    5    0    0  0.39747225785E+02  0.71186501128E+02 -0.52233278887E+03  0.53469061774E+03  0.80094659432E+02 0.  0.
          4    1    6    6  501    0 -0.85151612300E+00  0.71673402583E+02 -0.28287782516E+03  0.29181786389E+03  0.00000000000E+00 0. -1.
         -3    1    6    6    0  501  0.40598741908E+02 -0.48690145512E+00 -0.23945496371E+03  0.24287275385E+03  0.00000000000E+00 0.  1.
          5    1    5    5  502    0 -0.21435408402E+02  0.56890091911E+02 -0.57015255462E+02  0.83479270759E+02  0.47000000000E+01 0. -1.
         11    1    4    4    0    0 -0.35653452323E+02 -0.91571267301E+02 -0.15361726623E+03  0.18235879508E+03  0.00000000000E+00 0. -1.
        -12    1    4    4    0    0  0.27643868191E+02 -0.41364285979E+02 -0.31476007195E+02  0.58872121009E+02  0.00000000000E+00 0.  1.
         -5    1    3    3    0  504 -0.10302233251E+02  0.48589602417E+01 -0.20041469937E+03  0.20079314537E+03  0.47000000000E+01 0.  1.
<mgrwt>
<rscale>  2 0.21609943E+03</rscale>
<asrwt>0</asrwt>
<pdfrwt beam="1">  1       21 0.73336878E-02 0.21626112E+03</pdfrwt>
<pdfrwt beam="2">  1       21 0.15577306E+00 0.21626112E+03</pdfrwt>
<totfact> 0.37217592E+04</totfact>
</mgrwt>
</event>
<event>
12    1  0.2736842E-001  0.1908418E+03  0.7546771E-02  0.1158624E+00
         21   -1    0    0  502  503  0.00000000000E+00  0.00000000000E+00  0.71922839515E+03  0.71922839515E+03  0.00000000000E+00 0. -1.
         21   -1    0    0  503  504 -0.00000000000E+00 -0.00000000000E+00 -0.52655940933E+02  0.52655940933E+02  0.00000000000E+00 0.  1.
         -6    2    1    2    0  504  0.78029934472E+02  0.18246675376E+02  0.23645783525E+03  0.30133235166E+03  0.16872245396E+03 0.  0.
        -24    2    3    3    0    0  0.46349380263E+02  0.24508139167E+02  0.24828849387E+03  0.26662042393E+03  0.81794622883E+02 0.  0.
          6    2    1    2  502    0 -0.78029934472E+02 -0.18246675376E+02  0.43011461896E+03  0.47055198442E+03  0.17320211534E+03 0.  0.
         24    2    5    5    0    0 -0.69831039527E+02  0.16877789042E+02  0.13429915876E+03  0.17250865473E+03  0.81004555845E+02 0.  0.
          4    1    6    6  501    0 -0.67100329923E+02 -0.20955308293E+02  0.84846317032E+02  0.11018383155E+03  0.00000000000E+00 0. -1.
         -3    1    6    6    0  501 -0.27307096035E+01  0.37833097335E+02  0.49452841726E+02  0.62324823174E+02  0.00000000000E+00 0.  1.
          5    1    5    5  502    0 -0.81988949457E+01 -0.35124464418E+02  0.29581546020E+03  0.29804332969E+03  0.47000000000E+01 0. -1.
         11    1    4    4    0    0  0.49522362805E+02  0.28682980984E+02  0.80606124380E+02  0.98856082785E+02  0.00000000000E+00 0. -1.
        -12    1    4    4    0    0 -0.31729825427E+01 -0.41748418175E+01  0.16768236949E+03  0.16776434114E+03  0.00000000000E+00 0.  1.
         -5    1    3    3    0  504  0.31680554210E+02 -0.62614637910E+01 -0.11830658613E+02  0.34711927735E+02  0.47000000000E+01 0.  1.
<mgrwt>
<rscale>  2 0.18981956E+03</rscale>
<asrwt>0</asrwt>
<pdfrwt beam="1">  1       21 0.11065051E+00 0.19084178E+03</pdfrwt>
<pdfrwt beam="2">  1       21 0.81009145E-02 0.19084178E+03</pdfrwt>
<totfact> 0.75659129E+04</totfact>
</mgrwt>
</event>
<event>
12    1  0.2736842E-001  0.1979625E+03  0.7546771E-02  0.1151580E+00
         21   -1    0    0  502  503  0.00000000000E+00  0.00000000000E+00  0.45707351843E+03  0.45707351843E+03  0.00000000000E+00 0.  1.
         21   -1    0    0  503  504 -0.00000000000E+00 -0.00000000000E+00 -0.89937104170E+02  0.89937104170E+02  0.00000000000E+00 0.  1.
         -6    2    1    2    0  504  0.69183579521E+02  0.67073835099E+02  0.12270093754E+03  0.23246676228E+03  0.17233690394E+03 0.  0.
        -24    2    3    3    0    0  0.81521140775E+02  0.99197819384E+02  0.65336887902E+02  0.16540790772E+03  0.81270925008E+02 0.  0.
          6    2    1    2  502    0 -0.69183579521E+02 -0.67073835099E+02  0.24443547672E+03  0.31454386032E+03  0.17292735688E+03 0.  0.
         24    2    5    5    0    0 -0.62848881380E+02  0.61212373464E+01  0.20897769049E+03  0.23283099943E+03  0.80939160703E+02 0.  0.
          2    1    6    6  501    0 -0.65707473094E+02 -0.24862638215E+02  0.16082184645E+03  0.17549726236E+03  0.00000000000E+00 0. -1.
         -1    1    6    6    0  501  0.28585917135E+01  0.30983875562E+02  0.48155844036E+02  0.57333737068E+02  0.00000000000E+00 0.  1.
          5    1    5    5  502    0 -0.63346981402E+01 -0.73195072446E+02  0.35457786233E+02  0.81712860894E+02  0.47000000000E+01 0. -1.
         13    1    4    4    0    0  0.26012266459E+02  0.72647859130E+02  0.69345905964E+02  0.10374586313E+03  0.00000000000E+00 0. -1.
        -14    1    4    4    0    0  0.55508874315E+02  0.26549960254E+02 -0.40090180615E+01  0.61662044590E+02  0.00000000000E+00 0.  1.
         -5    1    3    3    0  504 -0.12337561254E+02 -0.32123984285E+02  0.57364049634E+02  0.67058854556E+02  0.47000000000E+01 0.  1.
<mgrwt>
<rscale>  2 0.19783345E+03</rscale>
<asrwt>0</asrwt>
<pdfrwt beam="1">  1       21 0.70319002E-01 0.19796247E+03</pdfrwt>
<pdfrwt beam="2">  1       21 0.13836478E-01 0.19796247E+03</pdfrwt>
<totfact> 0.83127952E+04</totfact>
</mgrwt>
</event>
<event>
12    1  0.2736842E-001  0.1845948E+03  0.7546771E-02  0.1164543E+00
         21   -1    0    0  502  503  0.00000000000E+00  0.00000000000E+00  0.24645278923E+02  0.24645278923E+02  0.00000000000E+00 0.  1.
         21   -1    0    0  503  504 -0.00000000000E+00 -0.00000000000E+00 -0.14290712014E+04  0.14290712014E+04  0.00000000000E+00 0.  1.
         -6    2    1    2    0  504  0.25654284666E+02  0.36100080418E+02 -0.52026374705E+03  0.55049005387E+03  0.17436620883E+03 0.  0.
        -24    2    3    3    0    0  0.14694391086E+02 -0.44580743094E+02 -0.33939854910E+03  0.35208686745E+03  0.81058123066E+02 0.  0.
          6    2    1    2  502    0 -0.25654284666E+02 -0.36100080418E+02 -0.88416217543E+03  0.90322642646E+03  0.17920342315E+03 0.  0.
         24    2    5    5    0    0 -0.68839909284E+02 -0.27652326639E+02 -0.36662169483E+03  0.38379731505E+03  0.85937929020E+02 0.  0.
          4    1    6    6  501    0 -0.43653962497E+02  0.26275844832E+02 -0.12573685005E+03  0.13566813894E+03  0.00000000000E+00 0. -1.
         -3    1    6    6    0  501 -0.25185946787E+02 -0.53928171472E+02 -0.24088484478E+03  0.24812917611E+03  0.00000000000E+00 0.  1.
          5    1    5    5  502    0  0.43185624618E+02 -0.84477537786E+01 -0.51754048060E+03  0.51942911141E+03  0.47000000000E+01 0. -1.
         11    1    4    4    0    0 -0.17840626828E+01  0.19720840878E+02 -0.15189669360E+03  0.15318191790E+03  0.00000000000E+00 0. -1.
        -12    1    4    4    0    0  0.16478453768E+02 -0.64301583972E+02 -0.18750185551E+03  0.19890494956E+03  0.00000000000E+00 0.  1.
         -5    1    3    3    0  504  0.10959893580E+02  0.80680823512E+02 -0.18086519795E+03  0.19840318641E+03  0.47000000000E+01 0.  1.
<mgrwt>
<rscale>  2 0.18341036E+03</rscale>
<asrwt>0</asrwt>
<pdfrwt beam="1">  1       21 0.37915808E-02 0.18459476E+03</pdfrwt>
<pdfrwt beam="2">  1       21 0.21985714E+00 0.18459476E+03</pdfrwt>
<totfact> 0.43452059E+04</totfact>
</mgrwt>
</event>
<event>
12    1  0.2736842E-001  0.2147443E+03  0.7546771E-02  0.1140128E+00
         21   -1    0    0  502  503  0.00000000000E+00  0.00000000000E+00  0.12353136971E+03  0.12353136971E+03  0.00000000000E+00 0.  1.
         21   -1    0    0  503  504 -0.00000000000E+00 -0.00000000000E+00 -0.58651466650E+03  0.58651466650E+03  0.00000000000E+00 0.  1.
         -6    2    1    2    0  504 -0.69445151464E+02  0.81920730239E+02 -0.45894523320E+03  0.50670093911E+03  0.18596096234E+03 0.  0.
        -24    2    3    3    0    0 -0.85823109548E+02  0.28085380783E+02 -0.14234110115E+03  0.18510064559E+03  0.76464796969E+02 0.  0.
          6    2    1    2  502    0  0.69445151464E+02 -0.81920730239E+02 -0.40380635902E+01  0.20334509710E+03  0.17262470117E+03 0.  0.
         24    2    5    5    0    0  0.51149642112E+02 -0.12120848270E+03 -0.25438216637E+02  0.15478266608E+03  0.77477665736E+02 0.  0.
          2    1    6    6  501    0 -0.15685616447E+02 -0.41398340339E+02 -0.24671488853E+02  0.50680800194E+02  0.00000000000E+00 0. -1.
         -1    1    6    6    0  501  0.66835258559E+02 -0.79810142362E+02 -0.76672778424E+00  0.10410186589E+03  0.00000000000E+00 0.  1.
          5    1    5    5  502    0  0.18295509352E+02  0.39287752461E+02  0.21400153047E+02  0.48562431018E+02  0.47000000000E+01 0. -1.
         11    1    4    4    0    0 -0.78845312989E+02 -0.72212413912E+01 -0.11623826989E+03  0.14064161935E+03  0.00000000000E+00 0. -1.
        -12    1    4    4    0    0 -0.69777965591E+01  0.35306622175E+02 -0.26102831261E+02  0.44459026238E+02  0.00000000000E+00 0.  1.
         -5    1    3    3    0  504  0.16377958084E+02  0.53835349455E+02 -0.31660413205E+03  0.32160029352E+03  0.47000000000E+01 0.  1.
<mgrwt>
<rscale>  2 0.21182550E+03</rscale>
<asrwt>0</asrwt>
<pdfrwt beam="1">  1       21 0.19004826E-01 0.21474430E+03</pdfrwt>
<pdfrwt beam="2">  1       21 0.90233025E-01 0.21474430E+03</pdfrwt>
<totfact> 0.26178962E+04</totfact>
</mgrwt>
</event>
<event>
12    1  0.2736842E-001  0.2095767E+03  0.7546771E-02  0.1142027E+00
         21   -1    0    0  502  503  0.00000000000E+00  0.00000000000E+00  0.13449842959E+04  0.13449842959E+04  0.00000000000E+00 0. -1.
         21   -1    0    0  503  504 -0.00000000000E+00 -0.00000000000E+00 -0.13223013845E+03  0.13223013845E+03  0.00000000000E+00 0.  1.
         -6    2    1    2    0  504 -0.11627591362E+03  0.23627738080E+02 -0.35106928215E+02  0.21187665294E+03  0.17199087638E+03 0.  0.
        -24    2    3    3    0    0  0.27263712918E+02 -0.86496964819E+01 -0.33652251103E+01  0.61294174264E+02  0.54106596338E+02 0.  0.
          6    2    1    2  502    0  0.11627591362E+03 -0.23627738080E+02  0.12478610857E+04  0.12653377814E+04  0.17275431640E+03 0.  0.
         24    2    5    5    0    0  0.18066890660E+01 -0.39191600044E+02  0.65373235601E+03  0.66006389747E+03  0.82335349702E+02 0.  0.
          4    1    6    6  501    0  0.40376051628E+01 -0.59446609961E+02  0.59338446555E+03  0.59636844790E+03  0.00000000000E+00 0. -1.
         -3    1    6    6    0  501 -0.22309160968E+01  0.20255009917E+02  0.60347890456E+02  0.63695449569E+02  0.00000000000E+00 0.  1.
          5    1    5    5  502    0  0.11446922455E+03  0.15563861964E+02  0.59412872969E+03  0.60527388396E+03  0.47000000000E+01 0. -1.
         13    1    4    4    0    0  0.16092803817E+02  0.86006187222E+01 -0.25327495860E+02  0.31215877749E+02  0.00000000000E+00 0. -1.
        -14    1    4    4    0    0  0.11170909101E+02 -0.17250315204E+02  0.21962270749E+02  0.30078296515E+02  0.00000000000E+00 0.  1.
         -5    1    3    3    0  504 -0.14353962654E+03  0.32277434562E+02 -0.31741703104E+02  0.15058247868E+03  0.47000000000E+01 0.  1.
<mgrwt>
<rscale>  2 0.20941935E+03</rscale>
<asrwt>0</asrwt>
<pdfrwt beam="1">  1       21 0.20692065E+00 0.20957674E+03</pdfrwt>
<pdfrwt beam="2">  1       21 0.20343099E-01 0.20957674E+03</pdfrwt>
<totfact> 0.26677565E+03</totfact>
</mgrwt>
</event>
<event>
12    1  0.2736842E-001  0.2025003E+03  0.7546771E-02  0.1147783E+00
         21   -1    0    0  502  503  0.00000000000E+00  0.00000000000E+00  0.63557972153E+03  0.63557972153E+03  0.00000000000E+00 0. -1.
         21   -1    0    0  503  504 -0.00000000000E+00 -0.00000000000E+00 -0.11458780285E+03  0.11458780285E+03  0.00000000000E+00 0. -1.
         -6    2    1    2    0  504  0.90375816418E+02 -0.52779124253E+02  0.12275974218E+02  0.20287201714E+03  0.17335781392E+03 0.  0.
        -24    2    3    3    0    0  0.70533597509E+02  0.10842478461E+02  0.57468417956E+02  0.12221305016E+03  0.80875601086E+02 0.  0.
          6    2    1    2  502    0 -0.90375816418E+02  0.52779124253E+02  0.50871594447E+03  0.54729550724E+03  0.17258921153E+03 0.  0.
         24    2    5    5    0    0 -0.10763332647E+03  0.46369725342E+02  0.23997443301E+03  0.27788319863E+03  0.76787103007E+02 0.  0.
          4    1    6    6  501    0 -0.64417231640E+02  0.62341268154E+02  0.18894465645E+03  0.20913176862E+03  0.00000000000E+00 0. -1.
         -3    1    6    6    0  501 -0.43216094833E+02 -0.15971542813E+02  0.51029776562E+02  0.68751430010E+02  0.00000000000E+00 0.  1.
          5    1    5    5  502    0  0.17257510055E+02  0.64093989117E+01  0.26874151146E+03  0.26941230861E+03  0.47000000000E+01 0. -1.
         13    1    4    4    0    0  0.70977642404E+02  0.13774529999E+02  0.80983674827E+01  0.72754016754E+02  0.00000000000E+00 0. -1.
        -14    1    4    4    0    0 -0.44404489456E+00 -0.29320515373E+01  0.49370050474E+02  0.49459033410E+02  0.00000000000E+00 0.  1.
         -5    1    3    3    0  504  0.19842218908E+02 -0.63621602715E+02 -0.45192443739E+02  0.80658966980E+02  0.47000000000E+01 0.  1.
<mgrwt>
<rscale>  2 0.20233566E+03</rscale>
<asrwt>0</asrwt>
<pdfrwt beam="1">  1       21 0.97781494E-01 0.20250026E+03</pdfrwt>
<pdfrwt beam="2">  1       21 0.17628893E-01 0.20250026E+03</pdfrwt>
<totfact> 0.25109984E+04</totfact>
</mgrwt>
</event>
<event>
12    1  0.2736842E-001  0.1978105E+03  0.7546771E-02  0.1151618E+00
         21   -1    0    0  502  503  0.00000000000E+00  0.00000000000E+00  0.11056770759E+04  0.11056770759E+04  0.00000000000E+00 0. -1.
         21   -1    0    0  503  504 -0.00000000000E+00 -0.00000000000E+00 -0.38976532481E+02  0.38976532481E+02  0.00000000000E+00 0. -1.
         -6    2    1    2    0  504 -0.73980214126E+02  0.60461430516E+02  0.35924933921E+03  0.41006786741E+03  0.17310953613E+03 0.  0.
        -24    2    3    3    0    0 -0.10144210892E+03  0.52584176502E+02  0.17624010149E+03  0.22478247164E+03  0.80068652430E+02 0.  0.
          6    2    1    2  502    0  0.73980214126E+02 -0.60461430516E+02  0.70745120419E+03  0.73458574095E+03  0.17320608486E+03 0.  0.
         24    2    5    5    0    0  0.74772236585E+02  0.19272675511E+02  0.40892212377E+03  0.42555522980E+03  0.88981048080E+02 0.  0.
          2    1    6    6  501    0  0.39147836613E+02  0.47682643245E+02  0.31713714672E+03  0.32308227653E+03  0.00000000000E+00 0. -1.
         -1    1    6    6    0  501  0.35624399972E+02 -0.28409967734E+02  0.91784977049E+02  0.10247295327E+03  0.00000000000E+00 0.  1.
          5    1    5    5  502    0 -0.79202245860E+00 -0.79734106027E+02  0.29852908042E+03  0.30903051115E+03  0.47000000000E+01 0. -1.
         13    1    4    4    0    0 -0.11026054064E+03  0.59040256387E+02  0.17282046543E+03  0.21333085095E+03  0.00000000000E+00 0. -1.
        -14    1    4    4    0    0  0.88184317225E+01 -0.64560798843E+01  0.34196360588E+01  0.11451620684E+02  0.00000000000E+00 0.  1.
         -5    1    3    3    0  504  0.27461894794E+02  0.78772540141E+01  0.18300923772E+03  0.18528539577E+03  0.47000000000E+01 0.  1.
<mgrwt>
<rscale>  2 0.19778939E+03</rscale>
<asrwt>0</asrwt>
<pdfrwt beam="1">  1       21 0.17010414E+00 0.19781053E+03</pdfrwt>
<pdfrwt beam="2">  1       21 0.59963904E-02 0.19781053E+03</pdfrwt>
<totfact> 0.41911982E+04</totfact>
</mgrwt>
</event>
<event>
12    1  0.2736842E-001  0.1968131E+03  0.7546771E-02  0.1152527E+00
         21   -1    0    0  502  503  0.00000000000E+00  0.00000000000E+00  0.78147802260E+02  0.78147802260E+02  0.00000000000E+00 0. -1.
         21   -1    0    0  503  504 -0.00000000000E+00 -0.00000000000E+00 -0.50300420607E+03  0.50300420607E+03  0.00000000000E+00 0. -1.
         -6    2    1    2    0  504 -0.91877501761E+02 -0.20975419540E+02 -0.24962934961E+03  0.31788394865E+03  0.17278295363E+03 0.  0.
        -24    2    3    3    0    0  0.34856496088E+01 -0.26734666674E+02 -0.78070075075E+02  0.12146100130E+03  0.89055859203E+02 0.  0.
          6    2    1    2  502    0  0.91877501761E+02  0.20975419540E+02 -0.17522705420E+03  0.26326805968E+03  0.17240680721E+03 0.  0.
         24    2    5    5    0    0  0.10842866915E+03  0.42501685694E+02 -0.18568421648E+03  0.23379326504E+03  0.81347974455E+02 0.  0.
          4    1    6    6  501    0  0.11920083160E+03  0.47823999480E+02 -0.15802213976E+03  0.20363440238E+03  0.00000000000E+00 0. -1.
         -3    1    6    6    0  501 -0.10772162455E+02 -0.53223137868E+01 -0.27662076725E+02  0.30158862657E+02  0.00000000000E+00 0.  1.
          5    1    5    5  502    0 -0.16551167385E+02 -0.21526266154E+02  0.10457162282E+02  0.29474794644E+02  0.47000000000E+01 0. -1.
         13    1    4    4    0    0 -0.15193130475E+02 -0.33719976422E+02 -0.90634922891E+02  0.97890537188E+02  0.00000000000E+00 0. -1.
        -14    1    4    4    0    0  0.18678780083E+02  0.69853097478E+01  0.12564847816E+02  0.23570464109E+02  0.00000000000E+00 0.  1.
         -5    1    3    3    0  504 -0.95363151370E+02  0.57592471341E+01 -0.17155927454E+03  0.19642294735E+03  0.47000000000E+01 0.  1.
<mgrwt>
<rscale>  2 0.19673050E+03</rscale>
<asrwt>0</asrwt>
<pdfrwt beam="1">  1       21 0.12022738E-01 0.19681309E+03</pdfrwt>
<pdfrwt beam="2">  1       21 0.77385265E-01 0.19681309E+03</pdfrwt>
<totfact> 0.86534337E+04</totfact>
</mgrwt>
</event>
<event>
12    1  0.2736842E-001  0.3325823E+03  0.7546771E-02  0.1070245E+00
         21   -1    0    0  502  503  0.00000000000E+00  0.00000000000E+00  0.18850811033E+03  0.18850811033E+03  0.00000000000E+00 0. -1.
         21   -1    0    0  503  504 -0.00000000000E+00 -0.00000000000E+00 -0.13656416250E+04  0.13656416250E+04  0.00000000000E+00 0. -1.
         -6    2    1    2    0  504 -0.23650588083E+03  0.15396992318E+03 -0.11777370819E+04  0.12237955667E+04  0.17598064117E+03 0.  0.
        -24    2    3    3    0    0 -0.77386146362E+02  0.12411983474E+03 -0.69554782053E+03  0.71513193377E+03  0.78946583415E+02 0.  0.
          6    2    1    2  502    0  0.23650588083E+03 -0.15396992318E+03  0.60356719727E+00  0.33035416866E+03  0.17173160323E+03 0.  0.
         24    2    5    5    0    0  0.14726442348E+03 -0.16755633797E+03  0.20588455800E+02  0.23777925765E+03  0.79706674992E+02 0.  0.
          2    1    6    6  501    0  0.71424037141E+02 -0.47279352738E+02  0.39522167482E+02  0.94333090691E+02  0.00000000000E+00 0. -1.
         -1    1    6    6    0  501  0.75840386342E+02 -0.12027698523E+03 -0.18933711681E+02  0.14344616696E+03  0.00000000000E+00 0.  1.
          5    1    5    5  502    0  0.89241457351E+02  0.13586414789E+02 -0.19984888603E+02  0.92574911015E+02  0.47000000000E+01 0. -1.
         13    1    4    4    0    0 -0.41940030654E+02  0.74960834850E+02 -0.56134771379E+03  0.56788145657E+03  0.00000000000E+00 0. -1.
        -14    1    4    4    0    0 -0.35446115708E+02  0.49158999888E+02 -0.13420010673E+03  0.14725047720E+03  0.00000000000E+00 0.  1.
         -5    1    3    3    0  504 -0.15911973447E+03  0.29850088444E+02 -0.48218926138E+03  0.50866363294E+03  0.47000000000E+01 0.  1.
<mgrwt>
<rscale>  2 0.33202369E+03</rscale>
<asrwt>0</asrwt>
<pdfrwt beam="1">  1       21 0.29001247E-01 0.33258225E+03</pdfrwt>
<pdfrwt beam="2">  1       21 0.21009871E+00 0.33258225E+03</pdfrwt>
<totfact> 0.11714489E+03</totfact>
</mgrwt>
</event>
<event>
12    1  0.2736842E-001  0.1821860E+03  0.7546771E-02  0.1165812E+00
         21   -1    0    0  502  503  0.00000000000E+00  0.00000000000E+00  0.83534064498E+02  0.83534064498E+02  0.00000000000E+00 0. -1.
         21   -1    0    0  503  504 -0.00000000000E+00 -0.00000000000E+00 -0.56906557862E+03  0.56906557862E+03  0.00000000000E+00 0. -1.
         -6    2    1    2    0  504  0.30136961266E+02  0.48089515236E+02 -0.42273530099E+03  0.46032256839E+03  0.17312103960E+03 0.  0.
        -24    2    3    3    0    0  0.29873199497E+02 -0.11677406213E+02 -0.36932732233E+03  0.38003149382E+03  0.83621142159E+02 0.  0.
          6    2    1    2  502    0 -0.30136961266E+02 -0.48089515236E+02 -0.62796213132E+02  0.19227707473E+03  0.17264492803E+03 0.  0.
         24    2    5    5    0    0 -0.50134849441E+02 -0.82520246326E+02 -0.14120563611E+02  0.12921520328E+03  0.84699966114E+02 0.  0.
          2    1    6    6  501    0  0.30872462390E+01 -0.35915214163E+02  0.29088046305E+02  0.46320061912E+02  0.00000000000E+00 0. -1.
         -1    1    6    6    0  501 -0.53222095680E+02 -0.46605032163E+02 -0.43208609916E+02  0.82895141368E+02  0.00000000000E+00 0.  1.
          5    1    5    5  502    0  0.19997888175E+02  0.34430731090E+02 -0.48675649521E+02  0.63061871453E+02  0.47000000000E+01 0. -1.
         13    1    4    4    0    0 -0.27549267056E+02 -0.65339031443E+01 -0.17695883220E+03  0.17920960438E+03  0.00000000000E+00 0. -1.
        -14    1    4    4    0    0  0.57422466553E+02 -0.51435030683E+01 -0.19236849012E+03  0.20082188945E+03  0.00000000000E+00 0.  1.
         -5    1    3    3    0  504  0.26376176927E+00  0.59766921449E+02 -0.53407978665E+02  0.80291074565E+02  0.47000000000E+01 0.  1.
<mgrwt>
<rscale>  2 0.18207279E+03</rscale>
<asrwt>0</asrwt>
<pdfrwt beam="1">  1       21 0.12851394E-01 0.18218598E+03</pdfrwt>
<pdfrwt beam="2">  1       21 0.87548552E-01 0.18218598E+03</pdfrwt>
<totfact> 0.58391323E+04</totfact>
</mgrwt>
</event>
<event>
12    1  0.2736842E-001  0.2200038E+03  0.7546771E-02  0.1134104E+00
         21   -1    0    0  502  503  0.00000000000E+00  0.00000000000E+00  0.27933043209E+03  0.27933043209E+03  0.00000000000E+00 0.  1.
         21   -1    0    0  503  504 -0.00000000000E+00 -0.00000000000E+00 -0.19405932881E+03  0.19405932881E+03  0.00000000000E+00 0.  1.
         -6    2    1    2    0  504  0.96852143211E+02 -0.93430752262E+02 -0.36455253417E+02  0.22300372887E+03  0.17404606998E+03 0.  0.
        -24    2    3    3    0    0  0.10532776112E+03 -0.38138397559E+02  0.23559697171E+02  0.14082730353E+03  0.82029235393E+02 0.  0.
          6    2    1    2  502    0 -0.96852143211E+02  0.93430752262E+02  0.12172635670E+03  0.25038603203E+03  0.17252888456E+03 0.  0.
         24    2    5    5    0    0 -0.34203761304E+02 -0.51042384321E+01  0.98956816118E+02  0.13132929713E+03  0.79113730107E+02 0.  0.
          2    1    6    6  501    0 -0.12204332354E+02 -0.41744376392E+02  0.46554107604E+02  0.63708897521E+02  0.00000000000E+00 0. -1.
         -1    1    6    6    0  501 -0.21999428950E+02  0.36640137960E+02  0.52402708514E+02  0.67620399610E+02  0.00000000000E+00 0.  1.
          5    1    5    5  502    0 -0.62648381907E+02  0.98534990695E+02  0.22769540582E+02  0.11905673490E+03  0.47000000000E+01 0. -1.
         13    1    4    4    0    0 -0.59539713870E+01 -0.10356160063E+02  0.23239028523E+02  0.26129528760E+02  0.00000000000E+00 0. -1.
        -14    1    4    4    0    0  0.11128173250E+03 -0.27782237496E+02  0.32066864757E+00  0.11469777477E+03  0.00000000000E+00 0.  1.
         -5    1    3    3    0  504 -0.84756179057E+01 -0.55292354703E+02 -0.60014950588E+02  0.82176425339E+02  0.47000000000E+01 0.  1.
<mgrwt>
<rscale>  2 0.21970363E+03</rscale>
<asrwt>0</asrwt>
<pdfrwt beam="1">  1       21 0.42973913E-01 0.22000381E+03</pdfrwt>
<pdfrwt beam="2">  1       21 0.29855281E-01 0.22000381E+03</pdfrwt>
<totfact> 0.55312467E+04</totfact>
</mgrwt>
</event>
<event>
12    1  0.2736842E-001  0.1777241E+03  0.7546771E-02  0.1170337E+00
         21   -1    0    0  502  503  0.00000000000E+00  0.00000000000E+00  0.21893912294E+03  0.21893912294E+03  0.00000000000E+00 0. -1.
         21   -1    0    0  503  504 -0.00000000000E+00 -0.00000000000E+00 -0.14528977982E+03  0.14528977982E+03  0.00000000000E+00 0. -1.
         -6    2    1    2    0  504 -0.32361457781E+02 -0.14199546818E+02  0.15060968851E+02  0.17709668969E+03  0.17288005564E+03 0.  0.
        -24    2    3    3    0    0 -0.83987527591E+02 -0.32488055443E+02  0.21767916463E+02  0.12171804961E+03  0.78943415656E+02 0.  0.
          6    2    1    2  502    0  0.32361457781E+02  0.14199546818E+02  0.58588374270E+02  0.18713221307E+03  0.17417513166E+03 0.  0.
         24    2    5    5    0    0  0.10667456950E+02  0.76208069311E+02  0.37358593958E+02  0.11793336838E+03  0.81185900064E+02 0.  0.
          4    1    6    6  501    0 -0.24656250988E+02  0.16373857011E+02  0.38349865892E+02  0.48443225740E+02  0.00000000000E+00 0. -1.
         -3    1    6    6    0  501  0.35323707939E+02  0.59834212300E+02 -0.99127193431E+00  0.69490142640E+02  0.00000000000E+00 0.  1.
          5    1    5    5  502    0  0.21694000831E+02 -0.62008522493E+02  0.21229780312E+02  0.69198844686E+02  0.47000000000E+01 0. -1.
         13    1    4    4    0    0 -0.17196319849E+02 -0.47275508531E+01 -0.28510679624E+02  0.33629183844E+02  0.00000000000E+00 0. -1.
        -14    1    4    4    0    0 -0.66791207742E+02 -0.27760504590E+02  0.50278596087E+02  0.88088865762E+02  0.00000000000E+00 0.  1.
         -5    1    3    3    0  504  0.51626069810E+02  0.18288508625E+02 -0.67069476114E+01  0.55378640088E+02  0.47000000000E+01 0.  1.
<mgrwt>
<rscale>  2 0.17740602E+03</rscale>
<asrwt>0</asrwt>
<pdfrwt beam="1">  1       21 0.33682942E-01 0.17772413E+03</pdfrwt>
<pdfrwt beam="2">  1       21 0.22352274E-01 0.17772413E+03</pdfrwt>
<totfact> 0.15979952E+05</totfact>
</mgrwt>
</event>
<event>
12    1  0.2736842E-001  0.2662694E+03  0.7546771E-02  0.1105005E+00
         21   -1    0    0  502  503  0.00000000000E+00  0.00000000000E+00  0.46243693012E+03  0.46243693012E+03  0.00000000000E+00 0.  1.
         21   -1    0    0  503  504 -0.00000000000E+00 -0.00000000000E+00 -0.15712121767E+03  0.15712121767E+03  0.00000000000E+00 0.  1.
         -6    2    1    2    0  504  0.57611722484E+02 -0.17728037474E+03  0.22719445676E+03  0.34206523057E+03  0.17505387442E+03 0.  0.
        -24    2    3    3    0    0  0.16748041502E+02 -0.46444409754E+02  0.16837679561E+03  0.19283555048E+03  0.79982648987E+02 0.  0.
          6    2    1    2  502    0 -0.57611722484E+02  0.17728037474E+03  0.78121255694E+02  0.27749291722E+03  0.19013665266E+03 0.  0.
         24    2    5    5    0    0 -0.63368139944E+02  0.15495970662E+03  0.12365280018E+03  0.22624294053E+03  0.88700740205E+02 0.  0.
          2    1    6    6  501    0 -0.19295926498E+02  0.22938638244E+02  0.71640922547E+02  0.77659099192E+02  0.00000000000E+00 0. -1.
         -1    1    6    6    0  501 -0.44072213445E+02  0.13202106837E+03  0.52011877636E+02  0.14858384134E+03  0.00000000000E+00 0.  1.
          5    1    5    5  502    0  0.57564174598E+01  0.22320668122E+02 -0.45531544488E+02  0.51249976692E+02  0.47000000000E+01 0. -1.
         13    1    4    4    0    0  0.34227862697E+01  0.18847127214E+02  0.79363094907E+02  0.81642087818E+02  0.00000000000E+00 0. -1.
        -14    1    4    4    0    0  0.13325255233E+02 -0.65291536968E+02  0.89013700699E+02  0.11119346266E+03  0.00000000000E+00 0.  1.
         -5    1    3    3    0  504  0.40863680982E+02 -0.13083596498E+03  0.58817661152E+02  0.14922968009E+03  0.47000000000E+01 0.  1.
<mgrwt>
<rscale>  2 0.26359121E+03</rscale>
<asrwt>0</asrwt>
<pdfrwt beam="1">  1       21 0.71144142E-01 0.26626939E+03</pdfrwt>
<pdfrwt beam="2">  1       21 0.24172495E-01 0.26626939E+03</pdfrwt>
<totfact> 0.27836208E+04</totfact>
</mgrwt>
</event>
<event>
12    1  0.2736842E-001  0.1779304E+03  0.7546771E-02  0.1169885E+00
         21   -1    0    0  502  503  0.00000000000E+00  0.00000000000E+00  0.45304231765E+02  0.45304231765E+02  0.00000000000E+00 0.  1.
         21   -1    0    0  503  504 -0.00000000000E+00 -0.00000000000E+00 -0.10802064248E+04  0.10802064248E+04  0.00000000000E+00 0.  1.
         -6    2    1    2    0  504  0.32117250158E+02  0.27444277714E+02 -0.18285850293E+03  0.25514006958E+03  0.17284246260E+03 0.  0.
        -24    2    3    3    0    0  0.65078941967E+02  0.63486894849E+02 -0.16071728044E+03  0.20130822854E+03  0.80181694552E+02 0.  0.
          6    2    1    2  502    0 -0.32117250158E+02 -0.27444277714E+02 -0.85204369013E+03  0.87037058701E+03  0.17257404989E+03 0.  0.
         24    2    5    5    0    0 -0.12798635648E+02  0.26822334317E+02 -0.73463137637E+03  0.73950494801E+03  0.79379256027E+02 0.  0.
          2    1    6    6  501    0  0.14460315263E+02  0.48045830285E+02 -0.42402879458E+03  0.42698702692E+03  0.00000000000E+00 0. -1.
         -1    1    6    6    0  501 -0.27258950911E+02 -0.21223495968E+02 -0.31060258179E+03  0.31251792109E+03  0.00000000000E+00 0.  1.
          5    1    5    5  502    0 -0.19318614510E+02 -0.54266612031E+02 -0.11741231376E+03  0.13086563900E+03  0.47000000000E+01 0. -1.
         11    1    4    4    0    0  0.60333305152E+02  0.72543710765E+02 -0.91822758434E+02  0.13165909254E+03  0.00000000000E+00 0. -1.
        -12    1    4    4    0    0  0.47456368146E+01 -0.90568159158E+01 -0.68894522002E+02  0.69649135998E+02  0.00000000000E+00 0.  1.
         -5    1    3    3    0  504 -0.32961691809E+02 -0.36042617135E+02 -0.22141222491E+02  0.53831841044E+02  0.47000000000E+01 0.  1.
<mgrwt>
<rscale>  2 0.17786517E+03</rscale>
<asrwt>0</asrwt>
<pdfrwt beam="1">  1       21 0.69698827E-02 0.17793039E+03</pdfrwt>
<pdfrwt beam="2">  1       21 0.16618558E+00 0.17793039E+03</pdfrwt>
<totfact> 0.34931695E+04</totfact>
</mgrwt>
</event>
<event>
12    1  0.2736842E-001  0.1738627E+03  0.7546771E-02  0.1174026E+00
         21   -1    0    0  502  503  0.00000000000E+00  0.00000000000E+00  0.79479952312E+02  0.79479952312E+02  0.00000000000E+00 0. -1.
         21   -1    0    0  503  504 -0.00000000000E+00 -0.00000000000E+00 -0.58157001377E+03  0.58157001377E+03  0.00000000000E+00 0. -1.
         -6    2    1    2    0  504 -0.55692216914E+01 -0.13476234774E+02 -0.44636180342E+03  0.47902723504E+03  0.17325012906E+03 0.  0.
        -24    2    3    3    0    0 -0.34602146700E+02  0.41237037470E+02 -0.35919896502E+03  0.37199498152E+03  0.80365216307E+02 0.  0.
          6    2    1    2  502    0  0.55692216914E+01  0.13476234774E+02 -0.55728258031E+02  0.18202273104E+03  0.17266734126E+03 0.  0.
         24    2    5    5    0    0  0.45964723493E+02  0.60821803869E+02 -0.39833544898E+02  0.11761674231E+03  0.80218072405E+02 0.  0.
          2    1    6    6  501    0  0.19338565908E+02  0.39864931788E+01  0.21965302018E+02  0.29535516789E+02  0.00000000000E+00 0. -1.
         -1    1    6    6    0  501  0.26626157585E+02  0.56835310690E+02 -0.61798846916E+02  0.88081225520E+02  0.00000000000E+00 0.  1.
          5    1    5    5  502    0 -0.40395501801E+02 -0.47345569094E+02 -0.15894713133E+02  0.64405988730E+02  0.47000000000E+01 0. -1.
         11    1    4    4    0    0 -0.83403937186E+01  0.61458524548E+02 -0.20058314997E+03  0.20995311967E+03  0.00000000000E+00 0. -1.
        -12    1    4    4    0    0 -0.26261752982E+02 -0.20221487079E+02 -0.15861581505E+03  0.16204186185E+03  0.00000000000E+00 0.  1.
         -5    1    3    3    0  504  0.29032925009E+02 -0.54713272244E+02 -0.87162838405E+02  0.10703225352E+03  0.47000000000E+01 0.  1.
<mgrwt>
<rscale>  2 0.17371732E+03</rscale>
<asrwt>0</asrwt>
<pdfrwt beam="1">  1       21 0.12227685E-01 0.17386268E+03</pdfrwt>
<pdfrwt beam="2">  1       21 0.89472311E-01 0.17386268E+03</pdfrwt>
<totfact> 0.60963844E+04</totfact>
</mgrwt>
</event>
<event>
12    1  0.2736842E-001  0.2118609E+03  0.7546771E-02  0.1140745E+00
         21   -1    0    0  502  503  0.00000000000E+00  0.00000000000E+00  0.10237515735E+04  0.10237515735E+04  0.00000000000E+00 0. -1.
         21   -1    0    0  503  504 -0.00000000000E+00 -0.00000000000E+00 -0.46089616667E+02  0.46089616667E+02  0.00000000000E+00 0.  1.
         -6    2    1    2    0  504  0.66490977470E+02 -0.10437513106E+03  0.35067350682E+03  0.40802582629E+03  0.16792244776E+03 0.  0.
        -24    2    3    3    0    0  0.87528141407E+02 -0.66182249260E+02  0.15070096186E+03  0.20330072468E+03  0.81111892454E+02 0.  0.
          6    2    1    2  502    0 -0.66490977470E+02  0.10437513106E+03  0.62698845000E+03  0.66181536387E+03  0.17195883621E+03 0.  0.
         24    2    5    5    0    0 -0.72565447189E+02  0.14126945693E+03  0.54238657597E+03  0.56919971965E+03  0.67692831779E+02 0.  0.
          2    1    6    6  501    0 -0.44468771607E+02  0.21084071939E+02  0.15579117140E+03  0.16337961570E+03  0.00000000000E+00 0. -1.
         -1    1    6    6    0  501 -0.28096675582E+02  0.12018538499E+03  0.38659540456E+03  0.40582010395E+03  0.00000000000E+00 0.  1.
          5    1    5    5  502    0  0.60744697192E+01 -0.36894325873E+02  0.84601874031E+02  0.92615644216E+02  0.47000000000E+01 0. -1.
         11    1    4    4    0    0  0.80917143528E+02 -0.25543826136E+02  0.13455412133E+03  0.15907508522E+03  0.00000000000E+00 0. -1.
        -12    1    4    4    0    0  0.66109978789E+01 -0.40638423124E+02  0.16146840521E+02  0.44225639461E+02  0.00000000000E+00 0.  1.
         -5    1    3    3    0  504 -0.21037163938E+02 -0.38192881796E+02  0.19997254497E+03  0.20472510160E+03  0.47000000000E+01 0.  1.
<mgrwt>
<rscale>  2 0.21104048E+03</rscale>
<asrwt>0</asrwt>
<pdfrwt beam="1">  1       21 0.15750023E+00 0.21186094E+03</pdfrwt>
<pdfrwt beam="2">  1       21 0.70907110E-02 0.21186094E+03</pdfrwt>
<totfact> 0.38401061E+04</totfact>
</mgrwt>
</event>
<event>
12    1  0.2736842E-001  0.2575120E+03  0.7546771E-02  0.1108675E+00
         21   -1    0    0  502  503  0.00000000000E+00  0.00000000000E+00  0.84766078846E+03  0.84766078846E+03  0.00000000000E+00 0. -1.
         21   -1    0    0  503  504 -0.00000000000E+00 -0.00000000000E+00 -0.27703299056E+03  0.27703299056E+03  0.00000000000E+00 0.  1.
         -6    2    1    2    0  504 -0.17701459239E+03  0.69651637791E+02 -0.19109950163E+03  0.32067346551E+03  0.17357112488E+03 0.  0.
        -24    2    3    3    0    0 -0.16047470567E+03  0.26223675210E+02 -0.75829424723E+02  0.19629968846E+03  0.79647057292E+02 0.  0.
          6    2    1    2  502    0  0.17701459239E+03 -0.69651637791E+02  0.76172729954E+03  0.80402031351E+03  0.17330513298E+03 0.  0.
         24    2    5    5    0    0  0.18269472897E+03 -0.22019536303E+02  0.50766738303E+03  0.54542872003E+03  0.76838095168E+02 0.  0.
          2    1    6    6  501    0  0.17557869159E+03 -0.24693562061E+02  0.40051176335E+03  0.43800379169E+03  0.00000000000E+00 0. -1.
         -1    1    6    6    0  501  0.71160373857E+01  0.26740257581E+01  0.10715561967E+03  0.10742492834E+03  0.00000000000E+00 0.  1.
          5    1    5    5  502    0 -0.56801365844E+01 -0.47632101488E+02  0.25405991651E+03  0.25859159348E+03  0.47000000000E+01 0. -1.
         11    1    4    4    0    0 -0.68638966249E+02  0.42879698990E+02 -0.61991086153E+02  0.10194543166E+03  0.00000000000E+00 0. -1.
        -12    1    4    4    0    0 -0.91835739417E+02 -0.16656023780E+02 -0.13838338569E+02  0.94354256803E+02  0.00000000000E+00 0.  1.
         -5    1    3    3    0  504 -0.16539886721E+02  0.43427962581E+02 -0.11527007691E+03  0.12437377705E+03  0.47000000000E+01 0.  1.
<mgrwt>
<rscale>  2 0.25746723E+03</rscale>
<asrwt>0</asrwt>
<pdfrwt beam="1">  1       21 0.13040935E+00 0.25751204E+03</pdfrwt>
<pdfrwt beam="2">  1       21 0.42620460E-01 0.25751204E+03</pdfrwt>
<totfact> 0.21541673E+03</totfact>
</mgrwt>
</event>
<event>
12    1  0.2736842E-001  0.1911256E+03  0.7546771E-02  0.1157517E+00
         21   -1    0    0  502  503  0.00000000000E+00  0.00000000000E+00  0.31164590194E+03  0.31164590194E+03  0.00000000000E+00 0.  1.
         21   -1    0    0  503  504 -0.00000000000E+00 -0.00000000000E+00 -0.11704068111E+03  0.11704068111E+03  0.00000000000E+00 0. -1.
         -6    2    1    2    0  504  0.79705456773E+02  0.51977242047E+00  0.95047508640E+02  0.21318543978E+03  0.17338042806E+03 0.  0.
        -24    2    3    3    0    0  0.72479276213E+02  0.96685397633E+00 -0.99626122032E+01  0.10782115244E+03  0.79195751051E+02 0.  0.
          6    2    1    2  502    0 -0.79705456773E+02 -0.51977242047E+00  0.99557712186E+02  0.21550114327E+03  0.17371175750E+03 0.  0.
         24    2    5    5    0    0  0.75479891375E+01 -0.52432757570E+01  0.94797593579E+01  0.89916100798E+02  0.88941414788E+02 0.  0.
          2    1    6    6  501    0  0.18846056938E+02 -0.44420716271E+02  0.93024382539E+01  0.49141726197E+02  0.00000000000E+00 0. -1.
         -1    1    6    6    0  501 -0.11298067800E+02  0.39177440514E+02  0.17732110401E+00  0.40774374600E+02  0.00000000000E+00 0.  1.
          5    1    5    5  502    0 -0.87253445911E+02  0.47235033365E+01  0.90077952828E+02  0.12558504247E+03  0.47000000000E+01 0. -1.
         13    1    4    4    0    0  0.30244981101E+02 -0.29025493623E+02  0.21605427987E+02  0.47159650978E+02  0.00000000000E+00 0. -1.
        -14    1    4    4    0    0  0.42234295112E+02  0.29992347599E+02 -0.31568040190E+02  0.60661501462E+02  0.00000000000E+00 0.  1.
         -5    1    3    3    0  504  0.72261805599E+01 -0.44708155586E+00  0.10501012084E+03  0.10536428734E+03  0.47000000000E+01 0.  1.
<mgrwt>
<rscale>  2 0.19105031E+03</rscale>
<asrwt>0</asrwt>
<pdfrwt beam="1">  1       21 0.47945523E-01 0.19112563E+03</pdfrwt>
<pdfrwt beam="2">  1       21 0.18006259E-01 0.19112563E+03</pdfrwt>
<totfact> 0.11672321E+05</totfact>
</mgrwt>
</event>
<event>
12    1  0.2736842E-001  0.2120175E+03  0.7546771E-02  0.1140128E+00
         21   -1    0    0  502  503  0.00000000000E+00  0.00000000000E+00  0.29881897094E+03  0.29881897094E+03  0.00000000000E+00 0. -1.
         21   -1    0    0  503  504 -0.00000000000E+00 -0.00000000000E+00 -0.19356166584E+03  0.19356166584E+03  0.00000000000E+00 0. -1.
         -6    2    1    2    0  504 -0.12157440118E+03  0.10565315382E+02 -0.64384314921E+02  0.22084853194E+03  0.17244353610E+03 0.  0.
        -24    2    3    3    0    0 -0.15424853033E+03 -0.23934348243E+00 -0.41824936394E+02  0.17943168840E+03  0.81570454846E+02 0.  0.
          6    2    1    2  502    0  0.12157440118E+03 -0.10565315382E+02  0.16964162002E+03  0.27153210484E+03  0.17337659532E+03 0.  0.
         24    2    5    5    0    0  0.11910106949E+03  0.39499997554E+02  0.16282299296E+03  0.22072623309E+03  0.80395449968E+02 0.  0.
          4    1    6    6  501    0  0.32904523876E+02  0.24442425863E+02  0.11261573155E+03  0.11984340978E+03  0.00000000000E+00 0. -1.
         -3    1    6    6    0  501  0.86196545617E+02  0.15057571691E+02  0.50207261411E+02  0.10088282331E+03  0.00000000000E+00 0.  1.
          5    1    5    5  502    0  0.24733316837E+01 -0.50065312936E+02  0.68186270573E+01  0.50805871747E+02  0.47000000000E+01 0. -1.
         13    1    4    4    0    0 -0.54681433049E+02 -0.14309821037E+02 -0.53961924444E+02  0.78145501394E+02  0.00000000000E+00 0. -1.
        -14    1    4    4    0    0 -0.99567097281E+02  0.14070477555E+02  0.12136988049E+02  0.10128618701E+03  0.00000000000E+00 0.  1.
         -5    1    3    3    0  504  0.32674129154E+02  0.10804658864E+02 -0.22559378527E+02  0.41416843538E+02  0.47000000000E+01 0.  1.
<mgrwt>
<rscale>  2 0.21182662E+03</rscale>
<asrwt>0</asrwt>
<pdfrwt beam="1">  1       21 0.45972149E-01 0.21201746E+03</pdfrwt>
<pdfrwt beam="2">  1       21 0.29778718E-01 0.21201746E+03</pdfrwt>
<totfact> 0.48568178E+04</totfact>
</mgrwt>
</event>
<event>
12    1  0.2736842E-001  0.2348613E+03  0.7546771E-02  0.1123719E+00
         21   -1    0    0  502  503  0.00000000000E+00  0.00000000000E+00  0.72245120771E+03  0.72245120771E+03  0.00000000000E+00 0.  1.
         21   -1    0    0  503  504 -0.00000000000E+00 -0.00000000000E+00 -0.96537055419E+02  0.96537055419E+02  0.00000000000E+00 0. -1.
         -6    2    1    2    0  504 -0.12942122938E+03 -0.90577833728E+02  0.12040074170E+03  0.26158031158E+03  0.17021669197E+03 0.  0.
        -24    2    3    3    0    0 -0.52819037593E+02 -0.11588361802E+03  0.66366879227E+02  0.16436906326E+03  0.79961007006E+02 0.  0.
          6    2    1    2  502    0  0.12942122938E+03  0.90577833728E+02  0.50551341059E+03  0.55740795155E+03  0.17379763400E+03 0.  0.
         24    2    5    5    0    0  0.15996050816E+03  0.61796691968E+02  0.38853219136E+03  0.43303875390E+03  0.84611484766E+02 0.  0.
          4    1    6    6  501    0  0.13573374732E+03  0.13298719189E+02  0.29326052320E+03  0.32342269642E+03  0.00000000000E+00 0. -1.
         -3    1    6    6    0  501  0.24226760833E+02  0.48497972778E+02  0.95271668158E+02  0.10961605748E+03  0.00000000000E+00 0.  1.
          5    1    5    5  502    0 -0.30539278774E+02  0.28781141760E+02  0.11698121923E+03  0.12436919764E+03  0.47000000000E+01 0. -1.
         13    1    4    4    0    0 -0.30572852755E+01 -0.95510235060E+01 -0.17444798562E+02  0.20121879637E+02  0.00000000000E+00 0. -1.
        -14    1    4    4    0    0 -0.49761752318E+02 -0.10633259452E+03  0.83811677789E+02  0.14424718363E+03  0.00000000000E+00 0.  1.
         -5    1    3    3    0  504 -0.76602191789E+02  0.25305784294E+02  0.54033862473E+02  0.97211248317E+02  0.47000000000E+01 0.  1.
<mgrwt>
<rscale>  2 0.23419912E+03</rscale>
<asrwt>0</asrwt>
<pdfrwt beam="1">  1       21 0.11114634E+00 0.23486127E+03</pdfrwt>
<pdfrwt beam="2">  1       21 0.14851855E-01 0.23486127E+03</pdfrwt>
<totfact> 0.24836975E+04</totfact>
</mgrwt>
</event>
<event>
12    1  0.2736842E-001  0.1863902E+03  0.7546771E-02  0.1161831E+00
         21   -1    0    0  502  503  0.00000000000E+00  0.00000000000E+00  0.25648342537E+03  0.25648342537E+03  0.00000000000E+00 0.  1.
         21   -1    0    0  503  504 -0.00000000000E+00 -0.00000000000E+00 -0.21222915979E+03  0.21222915979E+03  0.00000000000E+00 0.  1.
         -6    2    1    2    0  504 -0.40311779658E+02  0.59911446451E+02 -0.11905245365E+03  0.22090135883E+03  0.17149198995E+03 0.  0.
        -24    2    3    3    0    0  0.26698217168E+02  0.32909171901E+02 -0.11737512951E+03  0.14848336437E+03  0.80464775351E+02 0.  0.
          6    2    1    2  502    0  0.40311779658E+02 -0.59911446451E+02  0.16330671923E+03  0.24781122633E+03  0.17183392668E+03 0.  0.
         24    2    5    5    0    0  0.32558579918E+01 -0.39528976714E+02  0.18337575721E+03  0.20076398743E+03  0.71458867212E+02 0.  0.
          4    1    6    6  501    0  0.33802526411E+01  0.52283128310E+01  0.13391128073E+03  0.13405593038E+03  0.00000000000E+00 0. -1.
         -3    1    6    6    0  501 -0.12439464932E+00 -0.44757289545E+02  0.49464476481E+02  0.66708057047E+02  0.00000000000E+00 0.  1.
          5    1    5    5  502    0  0.37055921666E+02 -0.20382469737E+02 -0.20069037984E+02  0.47047238906E+02  0.47000000000E+01 0. -1.
         13    1    4    4    0    0  0.42258427612E+02 -0.64743165125E+01 -0.85117215415E+02  0.95250363981E+02  0.00000000000E+00 0. -1.
        -14    1    4    4    0    0 -0.15560210443E+02  0.39383488414E+02 -0.32257914090E+02  0.53233000386E+02  0.00000000000E+00 0.  1.
         -5    1    3    3    0  504 -0.67009996826E+02  0.27002274550E+02 -0.16773241456E+01  0.72417994461E+02  0.47000000000E+01 0.  1.
<mgrwt>
<rscale>  2 0.18631139E+03</rscale>
<asrwt>0</asrwt>
<pdfrwt beam="1">  1       21 0.39458988E-01 0.18639023E+03</pdfrwt>
<pdfrwt beam="2">  1       21 0.32650640E-01 0.18639023E+03</pdfrwt>
<totfact> 0.56053601E+04</totfact>
</mgrwt>
</event>
<event>
12    1  0.2736842E-001  0.1927636E+03  0.7546771E-02  0.1155993E+00
         21   -1    0    0  502  503  0.00000000000E+00  0.00000000000E+00  0.19166222137E+04  0.19166222137E+04  0.00000000000E+00 0. -1.
         21   -1    0    0  503  504 -0.00000000000E+00 -0.00000000000E+00 -0.73814745351E+02  0.73814745351E+02  0.00000000000E+00 0. -1.
         -6    2    1    2    0  504 -0.75565990795E+02  0.38824834023E+02  0.66812557369E+02  0.20401154858E+03  0.17302949872E+03 0.  0.
        -24    2    3    3    0    0 -0.81782328930E+01  0.67163881450E+02  0.78446632165E+02  0.12983841853E+03  0.78270494851E+02 0.  0.
          6    2    1    2  502    0  0.75565990795E+02 -0.38824834023E+02  0.17759949110E+04  0.17864254105E+04  0.17303247286E+03 0.  0.
         24    2    5    5    0    0  0.11829225227E+03 -0.28613152216E+02  0.12229843581E+04  0.12316528684E+04  0.80413174336E+02 0.  0.
          4    1    6    6  501    0  0.55082303931E+02 -0.51355546958E+02  0.51311581735E+03  0.51861285602E+03  0.00000000000E+00 0. -1.
         -3    1    6    6    0  501  0.63209948341E+02  0.22742394742E+02  0.70986854077E+03  0.71304001238E+03  0.00000000000E+00 0.  1.
          5    1    5    5  502    0 -0.42726261478E+02 -0.10211681808E+02  0.55301055286E+03  0.55477254208E+03  0.47000000000E+01 0. -1.
         11    1    4    4    0    0 -0.13258701467E+02  0.59522149767E+02  0.93842312865E+02  0.11191541074E+03  0.00000000000E+00 0. -1.
        -12    1    4    4    0    0  0.50804685736E+01  0.76417316836E+01 -0.15395680700E+02  0.17923007791E+02  0.00000000000E+00 0.  1.
         -5    1    3    3    0  504 -0.67387757902E+02 -0.28339047427E+02 -0.11634074796E+02  0.74173130044E+02  0.47000000000E+01 0.  1.
<mgrwt>
<rscale>  2 0.19276298E+03</rscale>
<asrwt>0</asrwt>
<pdfrwt beam="1">  1       21 0.29486492E+00 0.19276365E+03</pdfrwt>
<pdfrwt beam="2">  1       21 0.11356116E-01 0.19276365E+03</pdfrwt>
<totfact> 0.23657010E+03</totfact>
</mgrwt>
</event>
<event>
12    1  0.2736842E-001  0.1842693E+03  0.7546771E-02  0.1164416E+00
         21   -1    0    0  502  503  0.00000000000E+00  0.00000000000E+00  0.27261200910E+03  0.27261200910E+03  0.00000000000E+00 0. -1.
         21   -1    0    0  503  504 -0.00000000000E+00 -0.00000000000E+00 -0.15315485268E+03  0.15315485268E+03  0.00000000000E+00 0. -1.
         -6    2    1    2    0  504 -0.11644094658E+02 -0.53516070326E+02 -0.35708542127E+02  0.18486941009E+03  0.17292207517E+03 0.  0.
        -24    2    3    3    0    0 -0.32687872092E+02 -0.73147334143E+02 -0.75796663817E+02  0.13529749679E+03  0.78366120979E+02 0.  0.
          6    2    1    2  502    0  0.11644094658E+02  0.53516070326E+02  0.15516569855E+03  0.24089745169E+03  0.17594213112E+03 0.  0.
         24    2    5    5    0    0 -0.23177232716E+02  0.94204973561E+02  0.13151367327E+03  0.18216398605E+03  0.80474284069E+02 0.  0.
          4    1    6    6  501    0 -0.46494063605E+02  0.89429802311E+02  0.94543481876E+02  0.13819499795E+03  0.00000000000E+00 0. -1.
         -3    1    6    6    0  501  0.23316830889E+02  0.47751712499E+01  0.36970191393E+02  0.43968988103E+02  0.00000000000E+00 0.  1.
          5    1    5    5  502    0  0.34821327373E+02 -0.40688903235E+02  0.23652025278E+02  0.58733465641E+02  0.47000000000E+01 0. -1.
         13    1    4    4    0    0  0.25084429134E+02 -0.33318944499E+02 -0.24421762931E+02  0.48330147446E+02  0.00000000000E+00 0. -1.
        -14    1    4    4    0    0 -0.57772301226E+02 -0.39828389644E+02 -0.51374900886E+02  0.86967349343E+02  0.00000000000E+00 0.  1.
         -5    1    3    3    0  504  0.21043777434E+02  0.19631263818E+02  0.40088121690E+02  0.49571913302E+02  0.47000000000E+01 0.  1.
<mgrwt>
<rscale>  2 0.18354473E+03</rscale>
<asrwt>0</asrwt>
<pdfrwt beam="1">  1       21 0.41940309E-01 0.18426934E+03</pdfrwt>
<pdfrwt beam="2">  1       21 0.23562285E-01 0.18426934E+03</pdfrwt>
<totfact> 0.93073779E+04</totfact>
</mgrwt>
</event>
<event>
12    1  0.2736842E-001  0.2461760E+03  0.7546771E-02  0.1115746E+00
         21   -1    0    0  502  503  0.00000000000E+00  0.00000000000E+00  0.10411386331E+03  0.10411386331E+03  0.00000000000E+00 0.  1.
         21   -1    0    0  503  504 -0.00000000000E+00 -0.00000000000E+00 -0.72346215360E+03  0.72346215360E+03  0.00000000000E+00 0.  1.
         -6    2    1    2    0  504  0.17486189937E+03  0.67124629455E+01 -0.49260160033E+03  0.55068951611E+03  0.17314983539E+03 0.  0.
        -24    2    3    3    0    0  0.10874687701E+03  0.44518347846E+02 -0.18213563031E+03  0.23098388642E+03  0.79827322407E+02 0.  0.
          6    2    1    2  502    0 -0.17486189937E+03 -0.67124629455E+01 -0.12674668997E+03  0.27688650080E+03  0.17314638286E+03 0.  0.
         24    2    5    5    0    0 -0.19077253678E+03  0.95748885503E+01 -0.13974194151E+03  0.25025207262E+03  0.81316974555E+02 0.  0.
          2    1    6    6  501    0 -0.11091385625E+02  0.22255530605E+02 -0.51494724291E+01  0.25393789475E+02  0.00000000000E+00 0. -1.
         -1    1    6    6    0  501 -0.17968115116E+03 -0.12680642055E+02 -0.13459246908E+03  0.22485828314E+03  0.00000000000E+00 0.  1.
          5    1    5    5  502    0  0.15910637417E+02 -0.16287351496E+02  0.12995251546E+02  0.26634428181E+02  0.47000000000E+01 0. -1.
         11    1    4    4    0    0  0.21677946015E+02  0.10416404743E+02  0.23379638583E+01  0.24164041595E+02  0.00000000000E+00 0. -1.
        -12    1    4    4    0    0  0.87068930999E+02  0.34101943103E+02 -0.18447359417E+03  0.20681984482E+03  0.00000000000E+00 0.  1.
         -5    1    3    3    0  504  0.66115022352E+02 -0.37805884901E+02 -0.31046597002E+03  0.31970562969E+03  0.47000000000E+01 0.  1.
<mgrwt>
<rscale>  2 0.24617536E+03</rscale>
<asrwt>0</asrwt>
<pdfrwt beam="1">  1       21 0.16017517E-01 0.24617597E+03</pdfrwt>
<pdfrwt beam="2">  1       21 0.11130187E+00 0.24617597E+03</pdfrwt>
<totfact> 0.21425051E+04</totfact>
</mgrwt>
</event>
<event>
12    1  0.2736842E-001  0.2019270E+03  0.7546771E-02  0.1148943E+00
         21   -1    0    0  502  503  0.00000000000E+00  0.00000000000E+00  0.54953623955E+02  0.54953623955E+02  0.00000000000E+00 0.  1.
         21   -1    0    0  503  504 -0.00000000000E+00 -0.00000000000E+00 -0.73805531071E+03  0.73805531071E+03  0.00000000000E+00 0. -1.
         -6    2    1    2    0  504  0.90129963967E+02  0.46210433030E+02 -0.38512664858E+03  0.43305942941E+03  0.17017379186E+03 0.  0.
        -24    2    3    3    0    0  0.59010767520E+02  0.65726344144E+02 -0.14043537029E+03  0.18558178023E+03  0.83164180559E+02 0.  0.
          6    2    1    2  502    0 -0.90129963967E+02 -0.46210433030E+02 -0.29797503818E+03  0.35994950525E+03  0.17468745927E+03 0.  0.
         24    2    5    5    0    0 -0.37400177531E+02 -0.15139458050E+02 -0.48026123391E+02  0.10257354315E+03  0.81159391059E+02 0.  0.
          2    1    6    6  501    0 -0.41164720820E+02  0.24385568472E+02 -0.12880636416E+02  0.49548975614E+02  0.00000000000E+00 0. -1.
         -1    1    6    6    0  501  0.37645432891E+01 -0.39525026522E+02 -0.35145486975E+02  0.53024567536E+02  0.00000000000E+00 0.  1.
          5    1    5    5  502    0 -0.52729786436E+02 -0.31070974981E+02 -0.24994891479E+03  0.25737596210E+03  0.47000000000E+01 0. -1.
         13    1    4    4    0    0 -0.15792682596E+02  0.13467781446E+02 -0.61568772575E+02  0.64973099949E+02  0.00000000000E+00 0. -1.
        -14    1    4    4    0    0  0.74803450116E+02  0.52258562698E+02 -0.78866597710E+02  0.12060868028E+03  0.00000000000E+00 0.  1.
         -5    1    3    3    0  504  0.31119196447E+02 -0.19515911114E+02 -0.24469127829E+03  0.24747764918E+03  0.47000000000E+01 0.  1.
<mgrwt>
<rscale>  2 0.20094695E+03</rscale>
<asrwt>0</asrwt>
<pdfrwt beam="1">  1       21 0.84544040E-02 0.20192702E+03</pdfrwt>
<pdfrwt beam="2">  1       21 0.11354697E+00 0.20192702E+03</pdfrwt>
<totfact> 0.65599601E+04</totfact>
</mgrwt>
</event>
<event>
12    1  0.2736842E-001  0.2670151E+03  0.7546771E-02  0.1103281E+00
         21   -1    0    0  502  503  0.00000000000E+00  0.00000000000E+00  0.42426390469E+03  0.42426390469E+03  0.00000000000E+00 0. -1.
         21   -1    0    0  503  504 -0.00000000000E+00 -0.00000000000E+00 -0.18703246505E+03  0.18703246505E+03  0.00000000000E+00 0.  1.
         -6    2    1    2    0  504 -0.19367500901E+03 -0.56953952196E+02  0.18569054287E+02  0.26766002304E+03  0.17476646237E+03 0.  0.
        -24    2    3    3    0    0 -0.68497098999E+02  0.44309657134E+01  0.63088531603E+02  0.12123020653E+03  0.77492671439E+02 0.  0.
          6    2    1    2  502    0  0.19367500901E+03  0.56953952196E+02  0.21866238536E+03  0.34363634670E+03  0.17181076282E+03 0.  0.
         24    2    5    5    0    0  0.19204848716E+03  0.53791482147E+01  0.19895528623E+03  0.28820110760E+03  0.81025402470E+02 0.  0.
          2    1    6    6  501    0  0.13817378934E+03 -0.24547336956E+02  0.16901998938E+03  0.21968687859E+03  0.00000000000E+00 0. -1.
         -1    1    6    6    0  501  0.53874697814E+02  0.29926485171E+02  0.29935296851E+02  0.68514229009E+02  0.00000000000E+00 0.  1.
          5    1    5    5  502    0  0.16265218542E+01  0.51574803982E+02  0.19707099126E+02  0.55435239109E+02  0.47000000000E+01 0. -1.
         13    1    4    4    0    0  0.12398544499E+02 -0.78859699660E+01 -0.42071266912E+01  0.15284382323E+02  0.00000000000E+00 0. -1.
        -14    1    4    4    0    0 -0.80895643498E+02  0.12316935679E+02  0.67295658294E+02  0.10594582421E+03  0.00000000000E+00 0.  1.
         -5    1    3    3    0  504 -0.12517791001E+03 -0.61384917910E+02 -0.44519477316E+02  0.14642981651E+03  0.47000000000E+01 0.  1.
<mgrwt>
<rscale>  2 0.26653253E+03</rscale>
<asrwt>0</asrwt>
<pdfrwt beam="1">  1       21 0.65271370E-01 0.26701513E+03</pdfrwt>
<pdfrwt beam="2">  1       21 0.28774225E-01 0.26701513E+03</pdfrwt>
<totfact> 0.24032649E+04</totfact>
</mgrwt>
</event>
<event>
12    1  0.2736842E-001  0.2069549E+03  0.7546771E-02  0.1144275E+00
         21   -1    0    0  502  503  0.00000000000E+00  0.00000000000E+00  0.35036587068E+03  0.35036587068E+03  0.00000000000E+00 0.  1.
         21   -1    0    0  503  504 -0.00000000000E+00 -0.00000000000E+00 -0.13620562663E+03  0.13620562663E+03  0.00000000000E+00 0. -1.
         -6    2    1    2    0  504  0.10957283620E+03  0.13159360871E+02  0.27307467129E+02  0.20874869347E+03  0.17507411018E+03 0.  0.
        -24    2    3    3    0    0  0.50307194501E+01  0.20327442775E+02  0.55418324761E+02  0.10015428345E+03  0.80753803041E+02 0.  0.
          6    2    1    2  502    0 -0.10957283620E+03 -0.13159360871E+02  0.18685277692E+03  0.27782280384E+03  0.17347096264E+03 0.  0.
         24    2    5    5    0    0 -0.13242248740E+03  0.23118192934E+02  0.10015760745E+03  0.18099145623E+03  0.68236316458E+02 0.  0.
          4    1    6    6  501    0 -0.45322281530E+02 -0.23002857910E+02  0.22822577516E+02  0.55714546750E+02  0.00000000000E+00 0. -1.
         -3    1    6    6    0  501 -0.87100205872E+02  0.46121050843E+02  0.77335029934E+02  0.12527690948E+03  0.00000000000E+00 0.  1.
          5    1    5    5  502    0  0.22849651205E+02 -0.36277553804E+02  0.86695169475E+02  0.96831347612E+02  0.47000000000E+01 0. -1.
         11    1    4    4    0    0  0.33551737353E+02 -0.66729654189E+01  0.25629586942E+01  0.34304756290E+02  0.00000000000E+00 0. -1.
        -12    1    4    4    0    0 -0.28521017903E+02  0.27000408194E+02  0.52855366066E+02  0.65849527157E+02  0.00000000000E+00 0.  1.
         -5    1    3    3    0  504  0.10454211675E+03 -0.71680819043E+01 -0.28110857631E+02  0.10859441003E+03  0.47000000000E+01 0.  1.
<mgrwt>
<rscale>  2 0.20661544E+03</rscale>
<asrwt>0</asrwt>
<pdfrwt beam="1">  1       21 0.53902441E-01 0.20695487E+03</pdfrwt>
<pdfrwt beam="2">  1       21 0.20954712E-01 0.20695487E+03</pdfrwt>
<totfact> 0.68410032E+04</totfact>
</mgrwt>
</event>
<event>
12    1  0.2736842E-001  0.1891846E+03  0.7546771E-02  0.1159323E+00
         21   -1    0    0  502  503  0.00000000000E+00  0.00000000000E+00  0.51634067732E+03  0.51634067732E+03  0.00000000000E+00 0. -1.
         21   -1    0    0  503  504 -0.00000000000E+00 -0.00000000000E+00 -0.83942710575E+02  0.83942710575E+02  0.00000000000E+00 0. -1.
         -6    2    1    2    0  504  0.46169574676E+02 -0.57667431353E+02  0.89802782637E+02  0.20892388731E+03  0.17357271863E+03 0.  0.
        -24    2    3    3    0    0 -0.30380385841E+02  0.75259158153E+01  0.45405220449E+02  0.98908876975E+02  0.82108005990E+02 0.  0.
          6    2    1    2  502    0 -0.46169574676E+02  0.57667431353E+02  0.34259518411E+03  0.39135950059E+03  0.17416554269E+03 0.  0.
         24    2    5    5    0    0 -0.44567422066E+02  0.31171402808E+02  0.76502728053E+02  0.12390503420E+03  0.80881880775E+02 0.  0.
          4    1    6    6  501    0  0.85427003620E+01  0.53463156943E+01 -0.13138864187E+02  0.16558700828E+02  0.00000000000E+00 0. -1.
         -3    1    6    6    0  501 -0.53110122428E+02  0.25825087114E+02  0.89641592240E+02  0.10734633337E+03  0.00000000000E+00 0.  1.
          5    1    5    5  502    0 -0.16021526098E+01  0.26496028545E+02  0.26609245606E+03  0.26745446639E+03  0.47000000000E+01 0. -1.
         11    1    4    4    0    0 -0.15980394437E+02  0.33466491791E+00 -0.23348876913E+02  0.28295848814E+02  0.00000000000E+00 0. -1.
        -12    1    4    4    0    0 -0.14399991403E+02  0.71912508973E+01  0.68754097363E+02  0.70613028161E+02  0.00000000000E+00 0.  1.
         -5    1    3    3    0  504  0.76549960517E+02 -0.65193347169E+02  0.44397562188E+02  0.11001501033E+03  0.47000000000E+01 0.  1.
<mgrwt>
<rscale>  2 0.18904801E+03</rscale>
<asrwt>0</asrwt>
<pdfrwt beam="1">  1       21 0.79437026E-01 0.18918456E+03</pdfrwt>
<pdfrwt beam="2">  1       21 0.12914263E-01 0.18918456E+03</pdfrwt>
<totfact> 0.71995271E+04</totfact>
</mgrwt>
</event>
<event>
12    1  0.2736842E-001  0.2049026E+03  0.7546771E-02  0.1145846E+00
         21   -1    0    0  502  503  0.00000000000E+00  0.00000000000E+00  0.40768488236E+03  0.40768488236E+03  0.00000000000E+00 0. -1.
         21   -1    0    0  503  504 -0.00000000000E+00 -0.00000000000E+00 -0.10260663451E+03  0.10260663451E+03  0.00000000000E+00 0.  1.
         -6    2    1    2    0  504  0.42179201083E+02 -0.10050172417E+03  0.15846122368E+03  0.25833587399E+03  0.17247545569E+03 0.  0.
        -24    2    3    3    0    0  0.64571852802E+02 -0.12456439439E+03  0.97171657205E+02  0.18862974867E+03  0.80330807258E+02 0.  0.
          6    2    1    2  502    0 -0.42179201083E+02  0.10050172417E+03  0.14661702417E+03  0.25195564288E+03  0.17350911398E+03 0.  0.
         24    2    5    5    0    0 -0.67497277979E+02  0.97448256838E+02  0.16613939064E+03  0.21949733927E+03  0.80775859812E+02 0.  0.
          4    1    6    6  501    0 -0.18698402616E+02  0.66575360516E+02  0.13992695437E+03  0.15608158587E+03  0.00000000000E+00 0. -1.
         -3    1    6    6    0  501 -0.48798875363E+02  0.30872896322E+02  0.26212436271E+02  0.63415753400E+02  0.00000000000E+00 0.  1.
          5    1    5    5  502    0  0.25318076896E+02  0.30534673346E+01 -0.19522366469E+02  0.32458303607E+02  0.47000000000E+01 0. -1.
         11    1    4    4    0    0  0.72449702343E+02 -0.53555275173E+02  0.58017381783E+02  0.10715943009E+03  0.00000000000E+00 0. -1.
        -12    1    4    4    0    0 -0.78778495417E+01 -0.71009119214E+02  0.39154275423E+02  0.81470318576E+02  0.00000000000E+00 0.  1.
         -5    1    3    3    0  504 -0.22392651719E+02  0.24062670215E+02  0.61289566472E+02  0.69706125321E+02  0.47000000000E+01 0.  1.
<mgrwt>
<rscale>  2 0.20468366E+03</rscale>
<asrwt>0</asrwt>
<pdfrwt beam="1">  1       21 0.62720750E-01 0.20490265E+03</pdfrwt>
<pdfrwt beam="2">  1       21 0.15785636E-01 0.20490265E+03</pdfrwt>
<totfact> 0.83723765E+04</totfact>
</mgrwt>
</event>
<event>
12    1  0.2736842E-001  0.2214436E+03  0.7546771E-02  0.1133150E+00
         21   -1    0    0  502  503  0.00000000000E+00  0.00000000000E+00  0.19705108489E+03  0.19705108489E+03  0.00000000000E+00 0. -1.
         21   -1    0    0  503  504 -0.00000000000E+00 -0.00000000000E+00 -0.44866435350E+03  0.44866435350E+03  0.00000000000E+00 0.  1.
         -6    2    1    2    0  504 -0.87068266633E+02 -0.10755206182E+03 -0.34207624124E+03  0.40650673968E+03  0.17053810579E+03 0.  0.
        -24    2    3    3    0    0 -0.12519562792E+03 -0.84318250972E+02 -0.29776799663E+03  0.34342888155E+03  0.80586004798E+02 0.  0.
          6    2    1    2  502    0  0.87068266633E+02  0.10755206182E+03  0.90462972628E+02  0.23920869871E+03  0.17288413191E+03 0.  0.
         24    2    5    5    0    0  0.61021327177E+02  0.83794387367E+02  0.13113788158E+03  0.18517714895E+03  0.79676412970E+02 0.  0.
          2    1    6    6  501    0  0.74051253081E+01  0.34937068915E+02  0.10009619492E+03  0.10627644566E+03  0.00000000000E+00 0. -1.
         -1    1    6    6    0  501  0.53616201869E+02  0.48857318452E+02  0.31041686667E+02  0.78900703294E+02  0.00000000000E+00 0.  1.
          5    1    5    5  502    0  0.26046939456E+02  0.23757674454E+02 -0.40674908957E+02  0.54031549757E+02  0.47000000000E+01 0. -1.
         11    1    4    4    0    0 -0.10537565742E+03 -0.39621160180E+02 -0.25390213397E+03  0.27774117294E+03  0.00000000000E+00 0. -1.
        -12    1    4    4    0    0 -0.19819970500E+02 -0.44697090792E+02 -0.43865862660E+02  0.65687708613E+02  0.00000000000E+00 0.  1.
         -5    1    3    3    0  504  0.38127361288E+02 -0.23233810849E+02 -0.44308244609E+02  0.63077858125E+02  0.47000000000E+01 0.  1.
<mgrwt>
<rscale>  2 0.22098547E+03</rscale>
<asrwt>0</asrwt>
<pdfrwt beam="1">  1       21 0.30315551E-01 0.22144356E+03</pdfrwt>
<pdfrwt beam="2">  1       21 0.69025285E-01 0.22144356E+03</pdfrwt>
<totfact> 0.19618659E+04</totfact>
</mgrwt>
</event>
<event>
12    1  0.2736842E-001  0.1912518E+03  0.7546771E-02  0.1157363E+00
         21   -1    0    0  502  503  0.00000000000E+00  0.00000000000E+00  0.43728148671E+03  0.43728148671E+03  0.00000000000E+00 0.  1.
         21   -1    0    0  503  504 -0.00000000000E+00 -0.00000000000E+00 -0.14518529070E+03  0.14518529070E+03  0.00000000000E+00 0. -1.
         -6    2    1    2    0  504  0.81595376791E+02  0.54037640467E+01 -0.43663159620E+02  0.19605818664E+03  0.17275802402E+03 0.  0.
        -24    2    3    3    0    0 -0.16660259642E+02  0.29946940920E+02 -0.35316535707E+02  0.94331622992E+02  0.80478654811E+02 0.  0.
          6    2    1    2  502    0 -0.81595376791E+02 -0.54037640467E+01  0.33575935563E+03  0.38640859077E+03  0.17288796357E+03 0.  0.
         24    2    5    5    0    0 -0.91555716366E+02  0.51230658613E+02  0.25227069665E+03  0.28492404823E+03  0.80834270545E+02 0.  0.
          4    1    6    6  501    0 -0.38989960131E+02 -0.18771670301E+02  0.63503778203E+02  0.76846095821E+02  0.00000000000E+00 0. -1.
         -3    1    6    6    0  501 -0.52565756236E+02  0.70002328914E+02  0.18876691844E+03  0.20807795241E+03  0.00000000000E+00 0.  1.
          5    1    5    5  502    0  0.99603395756E+01 -0.56634422660E+02  0.83488658981E+02  0.10148454253E+03  0.47000000000E+01 0. -1.
         13    1    4    4    0    0  0.13322669993E+02 -0.19812240003E+02 -0.26336093205E+02  0.35547267054E+02  0.00000000000E+00 0. -1.
        -14    1    4    4    0    0 -0.29982929635E+02  0.49759180923E+02 -0.89804425020E+01  0.58784355939E+02  0.00000000000E+00 0.  1.
         -5    1    3    3    0  504  0.98255636432E+02 -0.24543176874E+02 -0.83466239132E+01  0.10172656365E+03  0.47000000000E+01 0.  1.
<mgrwt>
<rscale>  2 0.19122244E+03</rscale>
<asrwt>0</asrwt>
<pdfrwt beam="1">  1       21 0.67274075E-01 0.19125181E+03</pdfrwt>
<pdfrwt beam="2">  1       21 0.22336199E-01 0.19125181E+03</pdfrwt>
<totfact> 0.37956564E+04</totfact>
</mgrwt>
</event>
<event>
12    1  0.2736842E-001  0.1798594E+03  0.7546771E-02  0.1168250E+00
         21   -1    0    0  502  503  0.00000000000E+00  0.00000000000E+00  0.74253447123E+02  0.74253447123E+02  0.00000000000E+00 0.  1.
         21   -1    0    0  503  504 -0.00000000000E+00 -0.00000000000E+00 -0.93121274340E+03  0.93121274340E+03  0.00000000000E+00 0.  1.
         -6    2    1    2    0  504 -0.25213111052E+02 -0.36187586644E+02 -0.79707131743E+03  0.81711204885E+03  0.17436792399E+03 0.  0.
        -24    2    3    3    0    0 -0.68053977811E+02 -0.58206455062E+02 -0.41840401415E+03  0.43536450531E+03  0.80380334146E+02 0.  0.
          6    2    1    2  502    0  0.25213111052E+02  0.36187586644E+02 -0.59887978848E+02  0.18835414167E+03  0.17304759541E+03 0.  0.
         24    2    5    5    0    0  0.25957314037E+02 -0.19244012197E+02  0.20930757224E+02  0.90236996948E+02  0.81611916182E+02 0.  0.
          2    1    6    6  501    0 -0.13063447973E+02 -0.34812966114E+02 -0.94808729425E+01  0.38372949253E+02  0.00000000000E+00 0. -1.
         -1    1    6    6    0  501  0.39020762011E+02  0.15568953918E+02  0.30411630166E+02  0.51864047695E+02  0.00000000000E+00 0.  1.
          5    1    5    5  502    0 -0.74420298587E+00  0.55431598840E+02 -0.80818736072E+02  0.98117144722E+02  0.47000000000E+01 0. -1.
         11    1    4    4    0    0 -0.71355463330E+02 -0.11490916409E+02 -0.28329414931E+03  0.29236829229E+03  0.00000000000E+00 0. -1.
        -12    1    4    4    0    0  0.33014855189E+01 -0.46715538653E+02 -0.13510986484E+03  0.14299621301E+03  0.00000000000E+00 0.  1.
         -5    1    3    3    0  504  0.42840866760E+02  0.22018868418E+02 -0.37866730328E+03  0.38174754355E+03  0.47000000000E+01 0.  1.
<mgrwt>
<rscale>  2 0.17953864E+03</rscale>
<asrwt>0</asrwt>
<pdfrwt beam="1">  1       21 0.11423607E-01 0.17985943E+03</pdfrwt>
<pdfrwt beam="2">  1       21 0.14326350E+00 0.17985943E+03</pdfrwt>
<totfact> 0.21780461E+04</totfact>
</mgrwt>
</event>
<event>
12    1  0.2736842E-001  0.1965979E+03  0.7546771E-02  0.1152677E+00
         21   -1    0    0  502  503  0.00000000000E+00  0.00000000000E+00  0.15122137411E+03  0.15122137411E+03  0.00000000000E+00 0.  1.
         21   -1    0    0  503  504 -0.00000000000E+00 -0.00000000000E+00 -0.27105336932E+03  0.27105336932E+03  0.00000000000E+00 0.  1.
         -6    2    1    2    0  504 -0.65441167488E+02 -0.68151475554E+02 -0.11071618323E+03  0.22562979573E+03  0.17240522460E+03 0.  0.
        -24    2    3    3    0    0  0.77516622846E+01  0.15566008290E+02 -0.24641939790E+02  0.84929146071E+02  0.79393612926E+02 0.  0.
          6    2    1    2  502    0  0.65441167488E+02  0.68151475554E+02 -0.91158119868E+01  0.19664494770E+03  0.17221779061E+03 0.  0.
         24    2    5    5    0    0  0.11139849842E+03  0.64725987109E+02 -0.95032730067E+01  0.15031946482E+03  0.76854085439E+02 0.  0.
          2    1    6    6  501    0  0.10699405308E+03  0.36029496754E+02 -0.27451372031E+02  0.11618704686E+03  0.00000000000E+00 0. -1.
         -1    1    6    6    0  501  0.44044453392E+01  0.28696490355E+02  0.17948099024E+02  0.34132417963E+02  0.00000000000E+00 0.  1.
          5    1    5    5  502    0 -0.45957330933E+02  0.34254884449E+01  0.38746101982E+00  0.46325482875E+02  0.47000000000E+01 0. -1.
         13    1    4    4    0    0 -0.16342828134E+02  0.31326053456E+02 -0.39110448048E+02  0.52707084942E+02  0.00000000000E+00 0. -1.
        -14    1    4    4    0    0  0.24094490419E+02 -0.15760045166E+02  0.14468508258E+02  0.32222061129E+02  0.00000000000E+00 0.  1.
         -5    1    3    3    0  504 -0.73192829773E+02 -0.83717483844E+02 -0.86074243438E+02  0.14070064966E+03  0.47000000000E+01 0.  1.
<mgrwt>
<rscale>  2 0.19655679E+03</rscale>
<asrwt>0</asrwt>
<pdfrwt beam="1">  1       21 0.23264827E-01 0.19659789E+03</pdfrwt>
<pdfrwt beam="2">  1       21 0.41700519E-01 0.19659789E+03</pdfrwt>
<totfact> 0.95999090E+04</totfact>
</mgrwt>
</event>
<event>
12    1  0.2736842E-001  0.2126881E+03  0.7546771E-02  0.1140464E+00
         21   -1    0    0  502  503  0.00000000000E+00  0.00000000000E+00  0.18213737264E+03  0.18213737264E+03  0.00000000000E+00 0. -1.
         21   -1    0    0  503  504 -0.00000000000E+00 -0.00000000000E+00 -0.27535351344E+03  0.27535351344E+03  0.00000000000E+00 0. -1.
         -6    2    1    2    0  504  0.10959898215E+03  0.39434651956E+02 -0.12620591569E+03  0.24731387293E+03  0.17795839380E+03 0.  0.
        -24    2    3    3    0    0  0.85595457095E+01  0.11477032942E+02 -0.11559197193E+03  0.14183713625E+03  0.80939984797E+02 0.  0.
          6    2    1    2  502    0 -0.10959898215E+03 -0.39434651956E+02  0.32989774883E+02  0.21017701315E+03  0.17181100938E+03 0.  0.
         24    2    5    5    0    0  0.65749473475E+01  0.10545023633E+02  0.14372069238E+02  0.82258840743E+02  0.80034574093E+02 0.  0.
          4    1    6    6  501    0  0.20217293395E+02 -0.22240171357E+02 -0.17297379883E+02  0.34677997708E+02  0.00000000000E+00 0. -1.
         -3    1    6    6    0  501 -0.13642346048E+02  0.32785194991E+02  0.31669449121E+02  0.47580843035E+02  0.00000000000E+00 0.  1.
          5    1    5    5  502    0 -0.11617392950E+03 -0.49979675590E+02  0.18617705645E+02  0.12791817240E+03  0.47000000000E+01 0. -1.
         11    1    4    4    0    0  0.27499489473E+02  0.36049233073E+02 -0.41313228992E+02  0.61339644734E+02  0.00000000000E+00 0. -1.
        -12    1    4    4    0    0 -0.18939943763E+02 -0.24572200130E+02 -0.74278742936E+02  0.80497491521E+02  0.00000000000E+00 0.  1.
         -5    1    3    3    0  504  0.10103943644E+03  0.27957619014E+02 -0.10613943761E+02  0.10547673668E+03  0.47000000000E+01 0.  1.
<mgrwt>
<rscale>  2 0.21139731E+03</rscale>
<asrwt>0</asrwt>
<pdfrwt beam="1">  1       21 0.28021134E-01 0.21268808E+03</pdfrwt>
<pdfrwt beam="2">  1       21 0.42362079E-01 0.21268808E+03</pdfrwt>
<totfact> 0.64644460E+04</totfact>
</mgrwt>
</event>
<event>
12    1  0.2736842E-001  0.1939619E+03  0.7546771E-02  0.1155303E+00
         21   -1    0    0  502  503  0.00000000000E+00  0.00000000000E+00  0.46823860356E+02  0.46823860356E+02  0.00000000000E+00 0. -1.
         21   -1    0    0  503  504 -0.00000000000E+00 -0.00000000000E+00 -0.97968103667E+03  0.97968103667E+03  0.00000000000E+00 0. -1.
         -6    2    1    2    0  504  0.85806577444E+02  0.35771558008E+01 -0.68995481797E+03  0.71669998292E+03  0.17391276520E+03 0.  0.
        -24    2    3    3    0    0  0.11456614182E+03 -0.28710363671E+02 -0.47595059055E+03  0.49832073525E+03  0.88571466671E+02 0.  0.
          6    2    1    2  502    0 -0.85806577444E+02 -0.35771558008E+01 -0.24290235834E+03  0.30980491411E+03  0.17205221399E+03 0.  0.
         24    2    5    5    0    0 -0.12370847865E+03 -0.21518670646E+02 -0.19265966496E+03  0.24419340362E+03  0.82133007926E+02 0.  0.
          4    1    6    6  501    0 -0.12563460932E+03 -0.33628340346E+02 -0.14411387276E+03  0.19412297302E+03  0.00000000000E+00 0. -1.
         -3    1    6    6    0  501  0.19261306685E+01  0.12109669699E+02 -0.48545792199E+02  0.50070430594E+02  0.00000000000E+00 0.  1.
          5    1    5    5  502    0  0.37901901208E+02  0.17941514846E+02 -0.50242693383E+02  0.65611510487E+02  0.47000000000E+01 0. -1.
         13    1    4    4    0    0  0.53792159538E+02  0.29095626562E+02 -0.15601364905E+03  0.16757210568E+03  0.00000000000E+00 0. -1.
        -14    1    4    4    0    0  0.60773982279E+02 -0.57805990232E+02 -0.31993694150E+03  0.33074862957E+03  0.00000000000E+00 0.  1.
         -5    1    3    3    0  504 -0.28759564372E+02  0.32287519472E+02 -0.21400422743E+03  0.21837924767E+03  0.47000000000E+01 0.  1.
<mgrwt>
<rscale>  2 0.19354392E+03</rscale>
<asrwt>0</asrwt>
<pdfrwt beam="1">  1       21 0.72036714E-02 0.19396189E+03</pdfrwt>
<pdfrwt beam="2">  1       21 0.15072015E+00 0.19396189E+03</pdfrwt>
<totfact> 0.42456318E+04</totfact>
</mgrwt>
</event>
<event>
12    1  0.2736842E-001  0.2381525E+03  0.7546771E-02  0.1121812E+00
         21   -1    0    0  502  503  0.00000000000E+00  0.00000000000E+00  0.81021796669E+02  0.81021796669E+02  0.00000000000E+00 0.  1.
         21   -1    0    0  503  504 -0.00000000000E+00 -0.00000000000E+00 -0.90991826134E+03  0.90991826134E+03  0.00000000000E+00 0.  1.
         -6    2    1    2    0  504  0.81769212179E+02 -0.14339663941E+03 -0.65687398540E+03  0.69715720047E+03  0.16521479722E+03 0.  0.
        -24    2    3    3    0    0  0.15653466769E+02 -0.43038343360E+02 -0.14888457794E+03  0.17512424417E+03  0.80028453227E+02 0.  0.
          6    2    1    2  502    0 -0.81769212179E+02  0.14339663941E+03 -0.17202247927E+03  0.29378285754E+03  0.17166197527E+03 0.  0.
         24    2    5    5    0    0 -0.22400330194E+02  0.37611891060E+02 -0.11010577540E+02  0.92134649933E+02  0.80318937733E+02 0.  0.
          4    1    6    6  501    0 -0.38452579904E+02 -0.45014212543E+01  0.13288942911E+02  0.40932379582E+02  0.00000000000E+00 0. -1.
         -3    1    6    6    0  501  0.16052249710E+02  0.42113312314E+02 -0.24299520452E+02  0.51202270350E+02  0.00000000000E+00 0.  1.
          5    1    5    5  502    0 -0.59368881985E+02  0.10578474835E+03 -0.16101190173E+03  0.20164820760E+03  0.47000000000E+01 0. -1.
         11    1    4    4    0    0  0.41872919364E+02 -0.28953803896E+02 -0.48103065190E+02  0.70039767395E+02  0.00000000000E+00 0. -1.
        -12    1    4    4    0    0 -0.26219452595E+02 -0.14084539464E+02 -0.10078151275E+03  0.10508447678E+03  0.00000000000E+00 0.  1.
         -5    1    3    3    0  504  0.66115745410E+02 -0.10035829605E+03 -0.50798940746E+03  0.52203295630E+03  0.47000000000E+01 0.  1.
<mgrwt>
<rscale>  2 0.23699300E+03</rscale>
<asrwt>0</asrwt>
<pdfrwt beam="1">  1       21 0.12464892E-01 0.23815254E+03</pdfrwt>
<pdfrwt beam="2">  1       21 0.13998742E+00 0.23815254E+03</pdfrwt>
<totfact> 0.19073922E+04</totfact>
</mgrwt>
</event>
<event>
12    1  0.2736842E-001  0.2135089E+03  0.7546771E-02  0.1139484E+00
         21   -1    0    0  502  503  0.00000000000E+00  0.00000000000E+00  0.16825706071E+03  0.16825706071E+03  0.00000000000E+00 0. -1.
         21   -1    0    0  503  504 -0.00000000000E+00 -0.00000000000E+00 -0.43094833678E+03  0.43094833678E+03  0.00000000000E+00 0.  1.
         -6    2    1    2    0  504  0.89794377338E+02 -0.87616626673E+02 -0.31700688737E+03  0.38220336068E+03  0.17276092962E+03 0.  0.
        -24    2    3    3    0    0  0.14779381003E+02  0.17338448964E+02 -0.11259594080E+03  0.14044161297E+03  0.80789534307E+02 0.  0.
          6    2    1    2  502    0 -0.89794377338E+02  0.87616626673E+02  0.54315611308E+02  0.21700203681E+03  0.16852298027E+03 0.  0.
         24    2    5    5    0    0 -0.43987789875E+02  0.60934310117E+02 -0.33771921718E+02  0.11408608593E+03  0.78912460982E+02 0.  0.
          4    1    6    6  501    0 -0.52342895986E+02  0.75096896190E+02 -0.33978106933E+02  0.97641355625E+02  0.00000000000E+00 0. -1.
         -3    1    6    6    0  501  0.83551061105E+01 -0.14162586073E+02  0.20618521580E+00  0.16444730303E+02  0.00000000000E+00 0.  1.
          5    1    5    5  502    0 -0.45806587462E+02  0.26682316555E+02  0.88087533026E+02  0.10291595088E+03  0.47000000000E+01 0. -1.
         13    1    4    4    0    0 -0.24014857542E+02 -0.14240842147E+02 -0.17385285978E+02  0.32890167777E+02  0.00000000000E+00 0. -1.
        -14    1    4    4    0    0  0.38794238546E+02  0.31579291111E+02 -0.95210654823E+02  0.10755144519E+03  0.00000000000E+00 0.  1.
         -5    1    3    3    0  504  0.75014996334E+02 -0.10495507564E+03 -0.20441094657E+03  0.24176174771E+03  0.47000000000E+01 0.  1.
<mgrwt>
<rscale>  2 0.21265012E+03</rscale>
<asrwt>0</asrwt>
<pdfrwt beam="1">  1       21 0.25885702E-01 0.21350888E+03</pdfrwt>
<pdfrwt beam="2">  1       21 0.66299744E-01 0.21350888E+03</pdfrwt>
<totfact> 0.29244556E+04</totfact>
</mgrwt>
</event>
<event>
12    1  0.2736842E-001  0.1875851E+03  0.7546771E-02  0.1161625E+00
         21   -1    0    0  502  503  0.00000000000E+00  0.00000000000E+00  0.13330445395E+03  0.13330445395E+03  0.00000000000E+00 0. -1.
         21   -1    0    0  503  504 -0.00000000000E+00 -0.00000000000E+00 -0.28601650423E+03  0.28601650423E+03  0.00000000000E+00 0. -1.
         -6    2    1    2    0  504 -0.62765433136E+02 -0.46346738512E+02 -0.10123642122E+02  0.18369492327E+03  0.16599342439E+03 0.  0.
        -24    2    3    3    0    0 -0.40125166718E+02  0.29976285964E+02  0.23474383034E+02  0.97157630601E+02  0.79874600474E+02 0.  0.
          6    2    1    2  502    0  0.62765433136E+02  0.46346738512E+02 -0.14258840816E+03  0.23562603491E+03  0.17058913921E+03 0.  0.
         24    2    5    5    0    0  0.58807588160E+02  0.60282775469E+01 -0.91731107147E+01  0.96116270290E+02  0.75229774019E+02 0.  0.
          4    1    6    6  501    0  0.68324074093E+02 -0.52436297636E+01  0.12741052907E+02  0.69699420248E+02  0.00000000000E+00 0. -1.
         -3    1    6    6    0  501 -0.95164859328E+01  0.11271907310E+02 -0.21914163622E+02  0.26416850043E+02  0.00000000000E+00 0.  1.
          5    1    5    5  502    0  0.39578449762E+01  0.40318460965E+02 -0.13341529744E+03  0.13950976462E+03  0.47000000000E+01 0. -1.
         11    1    4    4    0    0 -0.80488308646E+01 -0.26867267948E+02  0.78805320680E+00  0.28058061108E+02  0.00000000000E+00 0. -1.
        -12    1    4    4    0    0 -0.32076335853E+02  0.56843553912E+02  0.22686329827E+02  0.69099569493E+02  0.00000000000E+00 0.  1.
         -5    1    3    3    0  504 -0.22640266418E+02 -0.76323024476E+02 -0.33598025156E+02  0.86537292672E+02  0.47000000000E+01 0.  1.
<mgrwt>
<rscale>  2 0.18653397E+03</rscale>
<asrwt>0</asrwt>
<pdfrwt beam="1">  1       21 0.20508378E-01 0.18758511E+03</pdfrwt>
<pdfrwt beam="2">  1       21 0.44002538E-01 0.18758511E+03</pdfrwt>
<totfact> 0.10947781E+05</totfact>
</mgrwt>
</event>
<event>
12    1  0.2736842E-001  0.2391147E+03  0.7546771E-02  0.1120743E+00
         21   -1    0    0  502  503  0.00000000000E+00  0.00000000000E+00  0.18006872500E+03  0.18006872500E+03  0.00000000000E+00 0.  1.
         21   -1    0    0  503  504 -0.00000000000E+00 -0.00000000000E+00 -0.61237443943E+03  0.61237443943E+03  0.00000000000E+00 0.  1.
         -6    2    1    2    0  504  0.99424570968E+00 -0.16318282575E+03 -0.49290183426E+03  0.54783945754E+03  0.17477479757E+03 0.  0.
        -24    2    3    3    0    0  0.42747434606E+01 -0.18418471704E+03 -0.48458285226E+03  0.52453416705E+03  0.79832751921E+02 0.  0.
          6    2    1    2  502    0 -0.99424570968E+00  0.16318282575E+03  0.60596119835E+02  0.24460370690E+03  0.17184138193E+03 0.  0.
         24    2    5    5    0    0  0.32070111659E+02  0.12100332969E+03 -0.17817963626E+02  0.14950785998E+03  0.79779837735E+02 0.  0.
          2    1    6    6  501    0 -0.20753077602E+02  0.30565937425E+02 -0.24870624865E+02  0.44536667385E+02  0.00000000000E+00 0. -1.
         -1    1    6    6    0  501  0.52823189261E+02  0.90437392267E+02  0.70526612386E+01  0.10497119259E+03  0.00000000000E+00 0.  1.
          5    1    5    5  502    0 -0.33064357369E+02  0.42179496061E+02  0.78414083461E+02  0.95095846918E+02  0.47000000000E+01 0. -1.
         13    1    4    4    0    0 -0.35078553828E+01 -0.67311895491E+02 -0.28728692012E+03  0.29508807295E+03  0.00000000000E+00 0. -1.
        -14    1    4    4    0    0  0.77825988433E+01 -0.11687282154E+03 -0.19729593214E+03  0.22944609410E+03  0.00000000000E+00 0.  1.
         -5    1    3    3    0  504 -0.32804977509E+01  0.21001891283E+02 -0.83189820036E+01  0.23305290483E+02  0.47000000000E+01 0.  1.
<mgrwt>
<rscale>  2 0.23857902E+03</rscale>
<asrwt>0</asrwt>
<pdfrwt beam="1">  1       21 0.27702880E-01 0.23911473E+03</pdfrwt>
<pdfrwt beam="2">  1       21 0.94211455E-01 0.23911473E+03</pdfrwt>
<totfact> 0.11406054E+04</totfact>
</mgrwt>
</event>
<event>
12    1  0.2736842E-001  0.2645597E+03  0.7546771E-02  0.1104525E+00
         21   -1    0    0  502  503  0.00000000000E+00  0.00000000000E+00  0.80707441380E+03  0.80707441380E+03  0.00000000000E+00 0.  1.
         21   -1    0    0  503  504 -0.00000000000E+00 -0.00000000000E+00 -0.12834397603E+03  0.12834397603E+03  0.00000000000E+00 0. -1.
         -6    2    1    2    0  504 -0.19762587799E+03  0.28190415865E+02  0.72639659712E+02  0.27435079108E+03  0.17361206525E+03 0.  0.
        -24    2    3    3    0    0 -0.50552886640E+02  0.16947898648E+02 -0.21497966083E+02  0.99305535300E+02  0.80972842233E+02 0.  0.
          6    2    1    2  502    0  0.19762587799E+03 -0.28190415865E+02  0.60609077806E+03  0.66106759875E+03  0.17266630151E+03 0.  0.
         24    2    5    5    0    0  0.17905681194E+03 -0.43834507643E+02  0.34846099549E+03  0.40225349039E+03  0.79999994950E+02 0.  0.
          4    1    6    6  501    0  0.17503326122E+02 -0.18568022261E+02  0.12075088191E+02  0.28230225483E+02  0.00000000000E+00 0. -1.
         -3    1    6    6    0  501  0.16155348582E+03 -0.25266485382E+02  0.33638590730E+03  0.37402326491E+03  0.00000000000E+00 0.  1.
          5    1    5    5  502    0  0.18569066052E+02  0.15644091778E+02  0.25762978257E+03  0.25881410836E+03  0.47000000000E+01 0. -1.
         11    1    4    4    0    0 -0.58481066610E+02 -0.24024902009E+01 -0.40398260252E+02  0.71118398058E+02  0.00000000000E+00 0. -1.
        -12    1    4    4    0    0  0.79281799698E+01  0.19350388849E+02  0.18900294169E+02  0.28187137242E+02  0.00000000000E+00 0.  1.
         -5    1    3    3    0  504 -0.14707299135E+03  0.11242517217E+02  0.94137625795E+02  0.17504525578E+03  0.47000000000E+01 0.  1.
<mgrwt>
<rscale>  2 0.26440465E+03</rscale>
<asrwt>0</asrwt>
<pdfrwt beam="1">  1       21 0.12416529E+00 0.26455970E+03</pdfrwt>
<pdfrwt beam="2">  1       21 0.19745228E-01 0.26455970E+03</pdfrwt>
<totfact> 0.10963210E+04</totfact>
</mgrwt>
</event>
<event>
12    1  0.2736842E-001  0.1751024E+03  0.7546771E-02  0.1172727E+00
         21   -1    0    0  502  503  0.00000000000E+00  0.00000000000E+00  0.15183796369E+03  0.15183796369E+03  0.00000000000E+00 0.  1.
         21   -1    0    0  503  504 -0.00000000000E+00 -0.00000000000E+00 -0.36669866364E+03  0.36669866364E+03  0.00000000000E+00 0.  1.
         -6    2    1    2    0  504 -0.99455462142E+01  0.20295138530E+02 -0.28152634520E+03  0.33153871608E+03  0.17363764187E+03 0.  0.
        -24    2    3    3    0    0  0.60204262399E+02  0.15815290655E+02 -0.13363093727E+03  0.16772111515E+03  0.79990427187E+02 0.  0.
          6    2    1    2  502    0  0.99455462142E+01 -0.20295138530E+02  0.66665645252E+02  0.18699791126E+03  0.17324290468E+03 0.  0.
         24    2    5    5    0    0  0.39798723661E+02 -0.41364214364E+01  0.10319952666E+03  0.13690668616E+03  0.80574499839E+02 0.  0.
          4    1    6    6  501    0 -0.98898553556E+00 -0.20018341494E+02  0.88488542501E+02  0.90730007398E+02  0.00000000000E+00 0. -1.
         -3    1    6    6    0  501  0.40787709197E+02  0.15881920058E+02  0.14710984159E+02  0.46176678759E+02  0.00000000000E+00 0.  1.
          5    1    5    5  502    0 -0.29853177447E+02 -0.16158717094E+02 -0.36533881408E+02  0.50091225105E+02  0.47000000000E+01 0. -1.
         13    1    4    4    0    0  0.60254658717E+02 -0.19516315881E+02 -0.66347402341E+02  0.91725068984E+02  0.00000000000E+00 0. -1.
        -14    1    4    4    0    0 -0.50396318395E-01  0.35331606535E+02 -0.67283534929E+02  0.75996046165E+02  0.00000000000E+00 0.  1.
         -5    1    3    3    0  504 -0.70149808613E+02  0.44798478758E+01 -0.14789540793E+03  0.16381760093E+03  0.47000000000E+01 0.  1.
<mgrwt>
<rscale>  2 0.17500442E+03</rscale>
<asrwt>0</asrwt>
<pdfrwt beam="1">  1       21 0.23359687E-01 0.17510236E+03</pdfrwt>
<pdfrwt beam="2">  1       21 0.56415179E-01 0.17510236E+03</pdfrwt>
<totfact> 0.51364155E+04</totfact>
</mgrwt>
</event>
<event>
12    1  0.2736842E-001  0.1845635E+03  0.7546771E-02  0.1163479E+00
         21   -1    0    0  502  503  0.00000000000E+00  0.00000000000E+00  0.75118986323E+02  0.75118986323E+02  0.00000000000E+00 0. -1.
         21   -1    0    0  503  504 -0.00000000000E+00 -0.00000000000E+00 -0.15020814407E+04  0.15020814407E+04  0.00000000000E+00 0. -1.
         -6    2    1    2    0  504 -0.40610559601E+02 -0.51065293502E+02 -0.13723973941E+04  0.13847399989E+04  0.17254963200E+03 0.  0.
        -24    2    3    3    0    0  0.61073090385E+01  0.13418992235E+02 -0.10283654708E+04  0.10315816257E+04  0.80048362029E+02 0.  0.
          6    2    1    2  502    0  0.40610559601E+02  0.51065293502E+02 -0.54565060337E+02  0.19246042817E+03  0.17264642727E+03 0.  0.
         24    2    5    5    0    0  0.36672020521E+02  0.94099150103E+02 -0.68299182203E+02  0.14687379628E+03  0.81900223467E+02 0.  0.
          2    1    6    6  501    0  0.48926023635E+02  0.10311305828E+03 -0.64873189556E+02  0.13128057472E+03  0.00000000000E+00 0. -1.
         -1    1    6    6    0  501 -0.12254003114E+02 -0.90139081735E+01 -0.34259926465E+01  0.15593221556E+02  0.00000000000E+00 0.  1.
          5    1    5    5  502    0  0.39385390795E+01 -0.43033856601E+02  0.13734121865E+02  0.45586631894E+02  0.47000000000E+01 0. -1.
         13    1    4    4    0    0 -0.10152788932E+02 -0.31513538006E+02 -0.36578791245E+03  0.36728324097E+03  0.00000000000E+00 0. -1.
        -14    1    4    4    0    0  0.16260097971E+02  0.44932530241E+02 -0.66257755837E+03  0.66429838470E+03  0.00000000000E+00 0.  1.
         -5    1    3    3    0  504 -0.46717868639E+02 -0.64484285737E+02 -0.34403192325E+03  0.35315837321E+03  0.47000000000E+01 0.  1.
<mgrwt>
<rscale>  2 0.18454082E+03</rscale>
<asrwt>0</asrwt>
<pdfrwt beam="1">  1       21 0.11556767E-01 0.18456346E+03</pdfrwt>
<pdfrwt beam="2">  1       21 0.23108945E+00 0.18456346E+03</pdfrwt>
<totfact> 0.54504458E+03</totfact>
</mgrwt>
</event>
<event>
12    1  0.2736842E-001  0.4081054E+03  0.7546771E-02  0.1041055E+00
         21   -1    0    0  502  503  0.00000000000E+00  0.00000000000E+00  0.11938120839E+04  0.11938120839E+04  0.00000000000E+00 0.  1.
         21   -1    0    0  503  504 -0.00000000000E+00 -0.00000000000E+00 -0.19878741275E+03  0.19878741275E+03  0.00000000000E+00 0. -1.
         -6    2    1    2    0  504 -0.36958359776E+03  0.92878671250E+01  0.11644574175E+03  0.42386271923E+03  0.17152753066E+03 0.  0.
        -24    2    3    3    0    0 -0.93939800326E+02 -0.29393392271E+02  0.42341310846E+02  0.13578408488E+03  0.83401879522E+02 0.  0.
          6    2    1    2  502    0  0.36958359776E+03 -0.92878671250E+01  0.87857892944E+03  0.96873677745E+03  0.17283433839E+03 0.  0.
         24    2    5    5    0    0  0.17901096981E+03 -0.53871676291E+02  0.54676781506E+03  0.58347537504E+03  0.80878828345E+02 0.  0.
          2    1    6    6  501    0  0.13133767975E+02 -0.33696241524E+02  0.11239235750E+03  0.11806766949E+03  0.00000000000E+00 0. -1.
         -1    1    6    6    0  501  0.16587720183E+03 -0.20175434767E+02  0.43437545757E+03  0.46540770556E+03  0.00000000000E+00 0.  1.
          5    1    5    5  502    0  0.19057262795E+03  0.44583809166E+02  0.33181111438E+03  0.38526140241E+03  0.47000000000E+01 0. -1.
         13    1    4    4    0    0 -0.10380834173E+03 -0.17898911440E+02  0.52345781109E+02  0.11762917854E+03  0.00000000000E+00 0. -1.
        -14    1    4    4    0    0  0.98685414041E+01 -0.11494480832E+02 -0.10004470263E+02  0.18154906342E+02  0.00000000000E+00 0.  1.
         -5    1    3    3    0  504 -0.27564379743E+03  0.38681259396E+02  0.74104430902E+02  0.28807863435E+03  0.47000000000E+01 0.  1.
<mgrwt>
<rscale>  2 0.40796739E+03</rscale>
<asrwt>0</asrwt>
<pdfrwt beam="1">  1       21 0.18366339E+00 0.40810539E+03</pdfrwt>
<pdfrwt beam="2">  1       21 0.30582680E-01 0.40810539E+03</pdfrwt>
<totfact> 0.15182697E+03</totfact>
</mgrwt>
</event>
<event>
12    1  0.2736842E-001  0.2179796E+03  0.7546771E-02  0.1136098E+00
         21   -1    0    0  502  503  0.00000000000E+00  0.00000000000E+00  0.16012302851E+03  0.16012302851E+03  0.00000000000E+00 0.  1.
         21   -1    0    0  503  504 -0.00000000000E+00 -0.00000000000E+00 -0.37044961801E+03  0.37044961801E+03  0.00000000000E+00 0.  1.
         -6    2    1    2    0  504 -0.96860696866E+02 -0.85630024920E+02  0.17804409856E+02  0.21504318749E+03  0.17091541683E+03 0.  0.
        -24    2    3    3    0    0 -0.10065942186E+03 -0.10916477399E+03  0.48525153809E+02  0.17587472014E+03  0.80795789136E+02 0.  0.
          6    2    1    2  502    0  0.96860696866E+02  0.85630024920E+02 -0.22813099935E+03  0.31552945903E+03  0.17550097118E+03 0.  0.
         24    2    5    5    0    0 -0.10001048442E+02  0.13958132384E+02 -0.44051135608E+02  0.90888013554E+02  0.77622664409E+02 0.  0.
          2    1    6    6  501    0 -0.38762300842E+02  0.25757615025E+02 -0.16590016730E+02  0.49408494750E+02  0.00000000000E+00 0. -1.
         -1    1    6    6    0  501  0.28761252400E+02 -0.11799482641E+02 -0.27461118877E+02  0.41479518804E+02  0.00000000000E+00 0.  1.
          5    1    5    5  502    0  0.10686174531E+03  0.71671892537E+02 -0.18407986374E+03  0.22464144548E+03  0.47000000000E+01 0. -1.
         11    1    4    4    0    0 -0.40112301251E+02 -0.99943987841E+02  0.33970432189E+02  0.11292381361E+03  0.00000000000E+00 0. -1.
        -12    1    4    4    0    0 -0.60547120611E+02 -0.92207861513E+01  0.14554721621E+02  0.62950906531E+02  0.00000000000E+00 0.  1.
         -5    1    3    3    0  504  0.37987249959E+01  0.23534749072E+02 -0.30720743953E+02  0.39168467350E+02  0.47000000000E+01 0.  1.
<mgrwt>
<rscale>  2 0.21705502E+03</rscale>
<asrwt>0</asrwt>
<pdfrwt beam="1">  1       21 0.24634312E-01 0.21797956E+03</pdfrwt>
<pdfrwt beam="2">  1       21 0.56992249E-01 0.21797956E+03</pdfrwt>
<totfact> 0.44501713E+04</totfact>
</mgrwt>
</event>
<event>
12    1  0.2736842E-001  0.1849900E+03  0.7546771E-02  0.1164070E+00
         21   -1    0    0  502  503  0.00000000000E+00  0.00000000000E+00  0.67358138312E+03  0.67358138312E+03  0.00000000000E+00 0.  1.
         21   -1    0    0  503  504 -0.00000000000E+00 -0.00000000000E+00 -0.28917273909E+03  0.28917273909E+03  0.00000000000E+00 0.  1.
         -6    2    1    2    0  504 -0.33967233502E+02 -0.55699046904E+02 -0.24552319528E+03  0.30741331602E+03  0.17310445017E+03 0.  0.
        -24    2    3    3    0    0  0.27822565395E+02 -0.37510611886E+01 -0.19533318504E+03  0.21224136850E+03  0.78122850173E+02 0.  0.
          6    2    1    2  502    0  0.33967233502E+02  0.55699046904E+02  0.62993183931E+03  0.65534080619E+03  0.16852683260E+03 0.  0.
         24    2    5    5    0    0 -0.31323292342E+02  0.62874384754E+02  0.27195315259E+03  0.29135568509E+03  0.77429200752E+02 0.  0.
          2    1    6    6  501    0 -0.11997703873E+02  0.62084103724E+02  0.99977155594E+02  0.11829544570E+03  0.00000000000E+00 0. -1.
         -1    1    6    6    0  501 -0.19325588469E+02  0.79028103000E+00  0.17197599700E+03  0.17306023939E+03  0.00000000000E+00 0.  1.
          5    1    5    5  502    0  0.65290525844E+02 -0.71753378501E+01  0.35797868672E+03  0.36398512110E+03  0.47000000000E+01 0. -1.
         11    1    4    4    0    0  0.27972959134E+02 -0.34794452347E+02 -0.69257005512E+02  0.82399473113E+02  0.00000000000E+00 0. -1.
        -12    1    4    4    0    0 -0.15039373901E+00  0.31043391159E+02 -0.12607617953E+03  0.12984189538E+03  0.00000000000E+00 0.  1.
         -5    1    3    3    0  504 -0.61789798896E+02 -0.51947985715E+02 -0.50190010238E+02  0.95171947522E+02  0.47000000000E+01 0.  1.
<mgrwt>
<rscale>  2 0.18391155E+03</rscale>
<asrwt>0</asrwt>
<pdfrwt beam="1">  1       21 0.10362790E+00 0.18499002E+03</pdfrwt>
<pdfrwt beam="2">  1       21 0.44488114E-01 0.18499002E+03</pdfrwt>
<totfact> 0.36816570E+03</totfact>
</mgrwt>
</event>
<event>
12    1  0.2736842E-001  0.2197368E+03  0.7546771E-02  0.1134301E+00
         21   -1    0    0  502  503  0.00000000000E+00  0.00000000000E+00  0.11498319635E+03  0.11498319635E+03  0.00000000000E+00 0. -1.
         21   -1    0    0  503  504 -0.00000000000E+00 -0.00000000000E+00 -0.55166677534E+03  0.55166677534E+03  0.00000000000E+00 0.  1.
         -6    2    1    2    0  504 -0.68726745519E+02  0.11615387741E+03 -0.38217641364E+03  0.44025369530E+03  0.17189943657E+03 0.  0.
        -24    2    3    3    0    0 -0.99748155506E+02  0.74668344916E+02 -0.19202250184E+03  0.24311420799E+03  0.81895180889E+02 0.  0.
          6    2    1    2  502    0  0.68726745519E+02 -0.11615387741E+03 -0.54507165353E+02  0.22639627640E+03  0.17340459655E+03 0.  0.
         24    2    5    5    0    0  0.10710650731E+03 -0.75779373239E+02 -0.67846621313E+02  0.16892334549E+03  0.81961059726E+02 0.  0.
          4    1    6    6  501    0  0.11500310462E+03 -0.76165804699E+02 -0.45546615380E+02  0.14526334035E+03  0.00000000000E+00 0. -1.
         -3    1    6    6    0  501 -0.78965973134E+01  0.38643145966E+00 -0.22300005933E+02  0.23660005136E+02  0.00000000000E+00 0.  1.
          5    1    5    5  502    0 -0.38379761789E+02 -0.40374504166E+02  0.13339455960E+02  0.57472930906E+02  0.47000000000E+01 0. -1.
         11    1    4    4    0    0 -0.18758156769E+02 -0.52045438222E+01 -0.84066167866E+02  0.86290650140E+02  0.00000000000E+00 0. -1.
        -12    1    4    4    0    0 -0.80989998737E+02  0.79872888738E+02 -0.10795633397E+03  0.15682355785E+03  0.00000000000E+00 0.  1.
         -5    1    3    3    0  504  0.31021409987E+02  0.41485532489E+02 -0.19015391180E+03  0.19713948731E+03  0.47000000000E+01 0.  1.
<mgrwt>
<rscale>  2 0.21943970E+03</rscale>
<asrwt>0</asrwt>
<pdfrwt beam="1">  1       21 0.17689723E-01 0.21973676E+03</pdfrwt>
<pdfrwt beam="2">  1       21 0.84871811E-01 0.21973676E+03</pdfrwt>
<totfact> 0.34362536E+04</totfact>
</mgrwt>
</event>
<event>
12    1  0.2736842E-001  0.1852136E+03  0.7546771E-02  0.1164810E+00
         21   -1    0    0  502  503  0.00000000000E+00  0.00000000000E+00  0.11923146270E+04  0.11923146270E+04  0.00000000000E+00 0.  1.
         21   -1    0    0  503  504 -0.00000000000E+00 -0.00000000000E+00 -0.30201422479E+02  0.30201422479E+02  0.00000000000E+00 0.  1.
         -6    2    1    2    0  504  0.21544434190E+01  0.42167368361E+02  0.77545171297E+03  0.79726372646E+03  0.18033680099E+03 0.  0.
        -24    2    3    3    0    0 -0.28049447353E-01  0.27537770019E+02  0.20318099301E+03  0.22478258673E+03  0.92121473123E+02 0.  0.
          6    2    1    2  502    0 -0.21544434190E+01 -0.42167368361E+02  0.38666149155E+03  0.42525232302E+03  0.17190026354E+03 0.  0.
         24    2    5    5    0    0 -0.48486024720E+02  0.14069410642E+02  0.13068031120E+03  0.15906132875E+03  0.75328080151E+02 0.  0.
          4    1    6    6  501    0 -0.64286701066E+02  0.13965326012E+02  0.68780129963E+02  0.95176239379E+02  0.00000000000E+00 0. -1.
         -3    1    6    6    0  501  0.15800676346E+02  0.10408463029E+00  0.61900181241E+02  0.63885089374E+02  0.00000000000E+00 0.  1.
          5    1    5    5  502    0  0.46331581301E+02 -0.56236779003E+02  0.25598118035E+03  0.26619099427E+03  0.47000000000E+01 0. -1.
         13    1    4    4    0    0 -0.17123876521E+02 -0.30774447204E+02  0.68298808454E+02  0.76844134351E+02  0.00000000000E+00 0. -1.
        -14    1    4    4    0    0  0.17095827074E+02  0.58312217223E+02  0.13488218456E+03  0.14793845238E+03  0.00000000000E+00 0.  1.
         -5    1    3    3    0  504  0.21824928663E+01  0.14629598342E+02  0.57227071996E+03  0.57248113973E+03  0.47000000000E+01 0.  1.
<mgrwt>
<rscale>  2 0.18312767E+03</rscale>
<asrwt>0</asrwt>
<pdfrwt beam="1">  1       21 0.18343298E+00 0.18521363E+03</pdfrwt>
<pdfrwt beam="2">  1       21 0.46463736E-02 0.18521363E+03</pdfrwt>
<totfact> 0.52768387E+04</totfact>
</mgrwt>
</event>
<event>
12    1  0.2736842E-001  0.2566155E+03  0.7546771E-02  0.1109338E+00
         21   -1    0    0  502  503  0.00000000000E+00  0.00000000000E+00  0.17187296044E+03  0.17187296044E+03  0.00000000000E+00 0. -1.
         21   -1    0    0  503  504 -0.00000000000E+00 -0.00000000000E+00 -0.57647103298E+03  0.57647103298E+03  0.00000000000E+00 0. -1.
         -6    2    1    2    0  504 -0.60558844168E+02  0.17737252992E+03 -0.41952562404E+03  0.49129468130E+03  0.17389746020E+03 0.  0.
        -24    2    3    3    0    0 -0.92206270047E+01  0.15317702073E+03 -0.39073181225E+03  0.42748082070E+03  0.80748271324E+02 0.  0.
          6    2    1    2  502    0  0.60558844168E+02 -0.17737252992E+03  0.14927551503E+02  0.25704931212E+03  0.17528014459E+03 0.  0.
         24    2    5    5    0    0  0.26375841943E+01 -0.19992477452E+02 -0.20610085932E+02  0.85560633347E+02  0.80555510871E+02 0.  0.
          2    1    6    6  501    0 -0.29152275686E+01  0.31064127925E+02 -0.33488892189E+01  0.31379828784E+02  0.00000000000E+00 0. -1.
         -1    1    6    6    0  501  0.55528117629E+01 -0.51056605377E+02 -0.17261196713E+02  0.54180804563E+02  0.00000000000E+00 0.  1.
          5    1    5    5  502    0  0.57921259974E+02 -0.15738005247E+03  0.35537637435E+02  0.17148867877E+03  0.47000000000E+01 0. -1.
         13    1    4    4    0    0 -0.26414102321E+01  0.81506732911E+02 -0.10569589213E+03  0.13349886206E+03  0.00000000000E+00 0. -1.
        -14    1    4    4    0    0 -0.65792167726E+01  0.71670287820E+02 -0.28503592012E+03  0.29398195864E+03  0.00000000000E+00 0.  1.
         -5    1    3    3    0  504 -0.51338217163E+02  0.24195509189E+02 -0.28793811795E+02  0.63813860596E+02  0.47000000000E+01 0.  1.
<mgrwt>
<rscale>  2 0.25637957E+03</rscale>
<asrwt>0</asrwt>
<pdfrwt beam="1">  1       21 0.26441994E-01 0.25661550E+03</pdfrwt>
<pdfrwt beam="2">  1       21 0.88687852E-01 0.25661550E+03</pdfrwt>
<totfact> 0.14243413E+04</totfact>
</mgrwt>
</event>
<event>
12    1  0.2736842E-001  0.1935788E+03  0.7546771E-02  0.1155398E+00
         21   -1    0    0  502  503  0.00000000000E+00  0.00000000000E+00  0.33218461992E+03  0.33218461992E+03  0.00000000000E+00 0.  1.
         21   -1    0    0  503  504 -0.00000000000E+00 -0.00000000000E+00 -0.18270713839E+03  0.18270713839E+03  0.00000000000E+00 0.  1.
         -6    2    1    2    0  504 -0.82241232651E+02  0.14524024678E+02 -0.84943109251E+02  0.21087570583E+03  0.17400765460E+03 0.  0.
        -24    2    3    3    0    0 -0.10472313498E+03  0.58971710878E+02 -0.60110220469E+02  0.15502057978E+03  0.77288704645E+02 0.  0.
          6    2    1    2  502    0  0.82241232651E+02 -0.14524024678E+02  0.23442059079E+03  0.30401605249E+03  0.17463727880E+03 0.  0.
         24    2    5    5    0    0  0.14700229740E+01 -0.46686457282E+02  0.17561332920E+03  0.19895038541E+03  0.80990296956E+02 0.  0.
          2    1    6    6  501    0 -0.32223991253E+02  0.40164446265E+01  0.66422559511E+02  0.73935606116E+02  0.00000000000E+00 0. -1.
         -1    1    6    6    0  501  0.33694014227E+02 -0.50702901909E+02  0.10919076969E+03  0.12501477929E+03  0.00000000000E+00 0.  1.
          5    1    5    5  502    0  0.80771209677E+02  0.32162432604E+02  0.58807261589E+02  0.10506566708E+03  0.47000000000E+01 0. -1.
         11    1    4    4    0    0 -0.69570502392E+02  0.55528212982E+02 -0.75281453467E+02  0.11657930552E+03  0.00000000000E+00 0. -1.
        -12    1    4    4    0    0 -0.35152632586E+02  0.34434978965E+01  0.15171232999E+02  0.38441274253E+02  0.00000000000E+00 0.  1.
         -5    1    3    3    0  504  0.22481902327E+02 -0.44447686200E+02 -0.24832888783E+02  0.55855126050E+02  0.47000000000E+01 0.  1.
<mgrwt>
<rscale>  2 0.19343667E+03</rscale>
<asrwt>0</asrwt>
<pdfrwt beam="1">  1       21 0.51105326E-01 0.19357879E+03</pdfrwt>
<pdfrwt beam="2">  1       21 0.28108791E-01 0.19357879E+03</pdfrwt>
<totfact> 0.44003065E+04</totfact>
</mgrwt>
</event>
<event>
12    1  0.2736842E-001  0.1967407E+03  0.7546771E-02  0.1152827E+00
         21   -1    0    0  502  503  0.00000000000E+00  0.00000000000E+00  0.51237542641E+03  0.51237542641E+03  0.00000000000E+00 0.  1.
         21   -1    0    0  503  504 -0.00000000000E+00 -0.00000000000E+00 -0.10326631102E+03  0.10326631102E+03  0.00000000000E+00 0.  1.
         -6    2    1    2    0  504  0.45219630895E+02  0.76598920366E+02  0.44039448302E+02  0.20160944255E+03  0.17548414372E+03 0.  0.
        -24    2    3    3    0    0  0.63422096367E+01  0.99300172905E+02 -0.13236994797E+02  0.12860614341E+03  0.80396356450E+02 0.  0.
          6    2    1    2  502    0 -0.45219630895E+02 -0.76598920366E+02  0.36506966709E+03  0.41403229487E+03  0.17388119435E+03 0.  0.
         24    2    5    5    0    0 -0.92088324516E+02 -0.74182474304E+02  0.25217400041E+03  0.29168019964E+03  0.86615895612E+02 0.  0.
          4    1    6    6  501    0 -0.48305484835E+02 -0.36919740119E+02  0.21448332125E+03  0.22293403098E+03  0.00000000000E+00 0. -1.
         -3    1    6    6    0  501 -0.43782839681E+02 -0.37262734185E+02  0.37690679160E+02  0.68746168657E+02  0.00000000000E+00 0.  1.
          5    1    5    5  502    0  0.46868693621E+02 -0.24164460613E+01  0.11289566668E+03  0.12235209524E+03  0.47000000000E+01 0. -1.
         11    1    4    4    0    0  0.18114092424E+01  0.59411145424E+02  0.32504642485E+02  0.67745975431E+02  0.00000000000E+00 0. -1.
        -12    1    4    4    0    0  0.45308003943E+01  0.39889027481E+02 -0.45741637282E+02  0.60860167982E+02  0.00000000000E+00 0.  1.
         -5    1    3    3    0  504  0.38877421258E+02 -0.22701252539E+02  0.57276443098E+02  0.73003299135E+02  0.47000000000E+01 0.  1.
<mgrwt>
<rscale>  2 0.19638260E+03</rscale>
<asrwt>0</asrwt>
<pdfrwt beam="1">  1       21 0.78826987E-01 0.19674068E+03</pdfrwt>
<pdfrwt beam="2">  1       21 0.15887125E-01 0.19674068E+03</pdfrwt>
<totfact> 0.50126935E+04</totfact>
</mgrwt>
</event>
<event>
12    1  0.2736842E-001  0.1959342E+03  0.7546771E-02  0.1153634E+00
         21   -1    0    0  502  503  0.00000000000E+00  0.00000000000E+00  0.42872702640E+02  0.42872702640E+02  0.00000000000E+00 0.  1.
         21   -1    0    0  503  504 -0.00000000000E+00 -0.00000000000E+00 -0.92611520939E+03  0.92611520939E+03  0.00000000000E+00 0.  1.
         -6    2    1    2    0  504  0.78034528222E+02  0.49380870377E+02 -0.33955525223E+03  0.39107265284E+03  0.17062295428E+03 0.  0.
        -24    2    3    3    0    0  0.52021048031E+02 -0.19004982088E+02 -0.96569538690E+02  0.13726667782E+03  0.80306203091E+02 0.  0.
          6    2    1    2  502    0 -0.78034528222E+02 -0.49380870377E+02 -0.54368725452E+03  0.57791525919E+03  0.17280728609E+03 0.  0.
         24    2    5    5    0    0 -0.99167970109E+02 -0.49739890438E+02 -0.26364973872E+03  0.29704188645E+03  0.80089665887E+02 0.  0.
          4    1    6    6  501    0 -0.95443452182E+02 -0.62218236742E+02 -0.18460893895E+03  0.21693552473E+03  0.00000000000E+00 0. -1.
         -3    1    6    6    0  501 -0.37245179274E+01  0.12478346305E+02 -0.79040799771E+02  0.80106361724E+02  0.00000000000E+00 0.  1.
          5    1    5    5  502    0  0.21133441887E+02  0.35902006093E+00 -0.28003751580E+03  0.28087337274E+03  0.47000000000E+01 0. -1.
         13    1    4    4    0    0  0.10997445676E+02 -0.25029600256E+02 -0.91496778387E+02  0.95493901143E+02  0.00000000000E+00 0. -1.
        -14    1    4    4    0    0  0.41023602356E+02  0.60246181683E+01 -0.50727603033E+01  0.41772776678E+02  0.00000000000E+00 0.  1.
         -5    1    3    3    0  504  0.26013480191E+02  0.68385852464E+02 -0.24298571354E+03  0.25380597502E+03  0.47000000000E+01 0.  1.
<mgrwt>
<rscale>  2 0.19545149E+03</rscale>
<asrwt>0</asrwt>
<pdfrwt beam="1">  1       21 0.65958004E-02 0.19593421E+03</pdfrwt>
<pdfrwt beam="2">  1       21 0.14247926E+00 0.19593421E+03</pdfrwt>
<totfact> 0.57205762E+04</totfact>
</mgrwt>
</event>
<event>
12    1  0.2736842E-001  0.2010538E+03  0.7546771E-02  0.1148893E+00
         21   -1    0    0  502  503  0.00000000000E+00  0.00000000000E+00  0.24418444480E+03  0.24418444480E+03  0.00000000000E+00 0.  1.
         21   -1    0    0  503  504 -0.00000000000E+00 -0.00000000000E+00 -0.21897603879E+03  0.21897603879E+03  0.00000000000E+00 0.  1.
         -6    2    1    2    0  504  0.98512474932E+02 -0.28410631167E+02 -0.10195736298E+03  0.22542835556E+03  0.17294729817E+03 0.  0.
        -24    2    3    3    0    0  0.12102116541E+03 -0.29507324309E+02 -0.12109920367E+03  0.19548935177E+03  0.89634060831E+02 0.  0.
          6    2    1    2  502    0 -0.98512474932E+02  0.28410631167E+02  0.12716576898E+03  0.23773212803E+03  0.17272394221E+03 0.  0.
         24    2    5    5    0    0 -0.35508055816E+02  0.84371793619E+02  0.77528472206E+02  0.13981808530E+03  0.71826258350E+02 0.  0.
          4    1    6    6  501    0  0.16951621992E+02  0.51958038390E+02  0.38154189717E+02  0.66653862862E+02  0.00000000000E+00 0. -1.
         -3    1    6    6    0  501 -0.52459677808E+02  0.32413755229E+02  0.39374282488E+02  0.73164222440E+02  0.00000000000E+00 0.  1.
          5    1    5    5  502    0 -0.63004419116E+02 -0.55961162452E+02  0.49637296779E+02  0.97914042724E+02  0.47000000000E+01 0. -1.
         13    1    4    4    0    0  0.44806881257E+02  0.17134286980E+02 -0.39227607156E+01  0.48131366591E+02  0.00000000000E+00 0. -1.
        -14    1    4    4    0    0  0.76214284156E+02 -0.46641611290E+02 -0.11717644296E+03  0.14735798518E+03  0.00000000000E+00 0.  1.
         -5    1    3    3    0  504 -0.22508690481E+02  0.10966931420E+01  0.19141840689E+02  0.29939003791E+02  0.47000000000E+01 0.  1.
<mgrwt>
<rscale>  2 0.20100578E+03</rscale>
<asrwt>0</asrwt>
<pdfrwt beam="1">  1       21 0.37566838E-01 0.20105382E+03</pdfrwt>
<pdfrwt beam="2">  1       21 0.33688621E-01 0.20105382E+03</pdfrwt>
<totfact> 0.57773924E+04</totfact>
</mgrwt>
</event>
<event>
12    1  0.2736842E-001  0.1805027E+03  0.7546771E-02  0.1167482E+00
         21   -1    0    0  502  503  0.00000000000E+00  0.00000000000E+00  0.14034888631E+03  0.14034888631E+03  0.00000000000E+00 0. -1.
         21   -1    0    0  503  504 -0.00000000000E+00 -0.00000000000E+00 -0.23827018358E+03  0.23827018358E+03  0.00000000000E+00 0. -1.
         -6    2    1    2    0  504 -0.36705842724E+02 -0.31770587571E+02 -0.81500062655E+02  0.19804916156E+03  0.17385200907E+03 0.  0.
        -24    2    3    3    0    0 -0.91069487026E+02 -0.25269277203E+02 -0.70754822333E+02  0.14205609907E+03  0.79003180701E+02 0.  0.
          6    2    1    2  502    0  0.36705842724E+02  0.31770587571E+02 -0.16421234610E+02  0.18056990833E+03  0.17314486918E+03 0.  0.
         24    2    5    5    0    0 -0.27295305924E+02  0.54539708494E+02 -0.43477573965E+02  0.10729839002E+03  0.76831188553E+02 0.  0.
          2    1    6    6  501    0 -0.45576424952E+02  0.24376559122E+02 -0.49443461319E+02  0.71526799266E+02  0.00000000000E+00 0. -1.
         -1    1    6    6    0  501  0.18281119029E+02  0.30163149372E+02  0.59658873545E+01  0.35771590752E+02  0.00000000000E+00 0.  1.
          5    1    5    5  502    0  0.64001148647E+02 -0.22769120923E+02  0.27056339355E+02  0.73271518308E+02  0.47000000000E+01 0. -1.
         13    1    4    4    0    0 -0.43141429432E+02  0.19610222913E+02 -0.26638550658E+01  0.47464090636E+02  0.00000000000E+00 0. -1.
        -14    1    4    4    0    0 -0.47928057595E+02 -0.44879500116E+02 -0.68090967267E+02  0.94592008430E+02  0.00000000000E+00 0.  1.
         -5    1    3    3    0  504  0.54363644302E+02 -0.65013103676E+01 -0.10745240321E+02  0.55993062498E+02  0.47000000000E+01 0.  1.
<mgrwt>
<rscale>  2 0.18033217E+03</rscale>
<asrwt>0</asrwt>
<pdfrwt beam="1">  1       21 0.21592136E-01 0.18050266E+03</pdfrwt>
<pdfrwt beam="2">  1       21 0.36656951E-01 0.18050266E+03</pdfrwt>
<totfact> 0.14408190E+05</totfact>
</mgrwt>
</event>
<event>
12    1  0.2736842E-001  0.1727104E+03  0.7546771E-02  0.1175352E+00
         21   -1    0    0  502  503  0.00000000000E+00  0.00000000000E+00  0.13760340987E+04  0.13760340987E+04  0.00000000000E+00 0.  1.
         21   -1    0    0  503  504 -0.00000000000E+00 -0.00000000000E+00 -0.24590934107E+03  0.24590934107E+03  0.00000000000E+00 0.  1.
         -6    2    1    2    0  504 -0.72942311107E+01  0.37772643390E+01 -0.20976397648E+03  0.27096946324E+03  0.17133607514E+03 0.  0.
        -24    2    3    3    0    0  0.45304602134E+02 -0.11166454701E+02 -0.50427664164E+02  0.10244616390E+03  0.75993884620E+02 0.  0.
          6    2    1    2  502    0  0.72942311107E+01 -0.37772643390E+01  0.13398887341E+04  0.13509739765E+04  0.17251490347E+03 0.  0.
         24    2    5    5    0    0 -0.44562847694E+02 -0.17467462432E+02  0.11491309620E+04  0.11527639975E+04  0.77922439507E+02 0.  0.
          2    1    6    6  501    0 -0.47629150426E+02 -0.34400943030E+02  0.10772787599E+04  0.10788797372E+04  0.00000000000E+00 0. -1.
         -1    1    6    6    0  501  0.30663027324E+01  0.16933480598E+02  0.71852202068E+02  0.73884260297E+02  0.00000000000E+00 0.  1.
          5    1    5    5  502    0  0.51857078805E+02  0.13690198093E+02  0.19075777215E+03  0.19820997902E+03  0.47000000000E+01 0. -1.
         11    1    4    4    0    0  0.70023510496E+01 -0.16589852285E+01  0.20253436487E+02  0.21493879169E+02  0.00000000000E+00 0. -1.
        -12    1    4    4    0    0  0.38302251084E+02 -0.95074694721E+01 -0.70681100651E+02  0.80952284731E+02  0.00000000000E+00 0.  1.
         -5    1    3    3    0  504 -0.52598833245E+02  0.14943719040E+02 -0.15933631231E+03  0.16852329934E+03  0.47000000000E+01 0.  1.
<mgrwt>
<rscale>  2 0.17241522E+03</rscale>
<asrwt>0</asrwt>
<pdfrwt beam="1">  1       21 0.21169755E+00 0.17271035E+03</pdfrwt>
<pdfrwt beam="2">  1       21 0.37832207E-01 0.17271035E+03</pdfrwt>
<totfact> 0.78217974E+02</totfact>
</mgrwt>
</event>
<event>
12    1  0.2736842E-001  0.1793283E+03  0.7546771E-02  0.1168770E+00
         21   -1    0    0  502  503  0.00000000000E+00  0.00000000000E+00  0.12145917242E+03  0.12145917242E+03  0.00000000000E+00 0.  1.
         21   -1    0    0  503  504 -0.00000000000E+00 -0.00000000000E+00 -0.39845408231E+03  0.39845408231E+03  0.00000000000E+00 0.  1.
         -6    2    1    2    0  504 -0.30772177735E+02  0.10611941440E+02 -0.28980892663E+03  0.34012767276E+03  0.17503736631E+03 0.  0.
        -24    2    3    3    0    0  0.17550496566E+02  0.60144520241E+02 -0.21765693527E+03  0.24004492165E+03  0.79508739732E+02 0.  0.
          6    2    1    2  502    0  0.30772177735E+02 -0.10611941440E+02  0.12814016735E+02  0.17978558197E+03  0.17634941519E+03 0.  0.
         24    2    5    5    0    0 -0.13431853535E+02  0.59061509004E+02  0.97277649966E+01  0.97081283250E+02  0.75242737925E+02 0.  0.
          4    1    6    6  501    0 -0.40706367575E+02  0.24016596846E+02 -0.10290008261E+02  0.48370337556E+02  0.00000000000E+00 0. -1.
         -3    1    6    6    0  501  0.27274514040E+02  0.35044912157E+02  0.20017773258E+02  0.48710945694E+02  0.00000000000E+00 0.  1.
          5    1    5    5  502    0  0.44204031270E+02 -0.69673450444E+02  0.30862517381E+01  0.82704298722E+02  0.47000000000E+01 0. -1.
         13    1    4    4    0    0  0.30544946935E+01  0.14124919062E+02  0.24973273996E+01  0.14665603312E+02  0.00000000000E+00 0. -1.
        -14    1    4    4    0    0  0.14496001872E+02  0.46019601178E+02 -0.22015426267E+03  0.22537931834E+03  0.00000000000E+00 0.  1.
         -5    1    3    3    0  504 -0.48322674301E+02 -0.49532578800E+02 -0.72151991357E+02  0.10008275112E+03  0.47000000000E+01 0.  1.
<mgrwt>
<rscale>  2 0.17900495E+03</rscale>
<asrwt>0</asrwt>
<pdfrwt beam="1">  1       21 0.18686026E-01 0.17932835E+03</pdfrwt>
<pdfrwt beam="2">  1       21 0.61300629E-01 0.17932835E+03</pdfrwt>
<totfact> 0.65201853E+04</totfact>
</mgrwt>
</event>
<event>
12    1  0.2736842E-001  0.1789066E+03  0.7546771E-02  0.1169349E+00
         21   -1    0    0  502  503  0.00000000000E+00  0.00000000000E+00  0.10529935090E+04  0.10529935090E+04  0.00000000000E+00 0.  1.
         21   -1    0    0  503  504 -0.00000000000E+00 -0.00000000000E+00 -0.32786713024E+02  0.32786713024E+02  0.00000000000E+00 0.  1.
         -6    2    1    2    0  504 -0.99457612495E+01 -0.36776251530E+02  0.35102467260E+03  0.39309537935E+03  0.17278381188E+03 0.  0.
        -24    2    3    3    0    0  0.24909539166E+02 -0.74199429763E+02  0.16120122026E+03  0.19644742159E+03  0.80496680147E+02 0.  0.
          6    2    1    2  502    0  0.99457612495E+01  0.36776251530E+02  0.66918212343E+03  0.69268484273E+03  0.17480322132E+03 0.  0.
         24    2    5    5    0    0  0.25577933892E+02  0.75936216171E+02  0.29422528205E+03  0.31533541508E+03  0.80295502830E+02 0.  0.
          2    1    6    6  501    0  0.15556020841E+02 -0.15106806102E+02  0.63162427697E+02  0.66780967704E+02  0.00000000000E+00 0. -1.
         -1    1    6    6    0  501  0.10021913051E+02  0.91043022274E+02  0.23106285436E+03  0.24855444738E+03  0.00000000000E+00 0.  1.
          5    1    5    5  502    0 -0.15632172643E+02 -0.39159964641E+02  0.37495684137E+03  0.37734942765E+03  0.47000000000E+01 0. -1.
         13    1    4    4    0    0  0.30525076169E+02 -0.48812803329E+01  0.96971631233E+02  0.10177968578E+03  0.00000000000E+00 0. -1.
        -14    1    4    4    0    0 -0.56155370024E+01 -0.69318149430E+02  0.64229589029E+02  0.94667735808E+02  0.00000000000E+00 0.  1.
         -5    1    3    3    0  504 -0.34855300416E+02  0.37423178233E+02  0.18982345233E+03  0.19664795776E+03  0.47000000000E+01 0.  1.
<mgrwt>
<rscale>  2 0.17841142E+03</rscale>
<asrwt>0</asrwt>
<pdfrwt beam="1">  1       21 0.16199897E+00 0.17890662E+03</pdfrwt>
<pdfrwt beam="2">  1       21 0.50441105E-02 0.17890662E+03</pdfrwt>
<totfact> 0.64992232E+04</totfact>
</mgrwt>
</event>
<event>
12    1  0.2736842E-001  0.1795614E+03  0.7546771E-02  0.1168830E+00
         21   -1    0    0  502  503  0.00000000000E+00  0.00000000000E+00  0.10004870514E+04  0.10004870514E+04  0.00000000000E+00 0.  1.
         21   -1    0    0  503  504 -0.00000000000E+00 -0.00000000000E+00 -0.33930181683E+02  0.33930181683E+02  0.00000000000E+00 0.  1.
         -6    2    1    2    0  504 -0.34125696019E+02 -0.28797822967E+02  0.35640268107E+03  0.39908042099E+03  0.17392076821E+03 0.  0.
        -24    2    3    3    0    0 -0.23048381156E+02  0.47619314230E+02  0.24793047012E+03  0.26584905716E+03  0.80046088079E+02 0.  0.
          6    2    1    2  502    0  0.34125696019E+02  0.28797822967E+02  0.61015418868E+03  0.63533681211E+03  0.17137926692E+03 0.  0.
         24    2    5    5    0    0  0.42835823034E+02 -0.37818308100E+02  0.46534368846E+03  0.47563162684E+03  0.80097215280E+02 0.  0.
          2    1    6    6  501    0  0.51080097709E+02 -0.26600937210E+02  0.16136471306E+03  0.17133405050E+03  0.00000000000E+00 0. -1.
         -1    1    6    6    0  501 -0.82442746756E+01 -0.11217370891E+02  0.30397897540E+03  0.30429757633E+03  0.00000000000E+00 0.  1.
          5    1    5    5  502    0 -0.87101270145E+01  0.66616131068E+02  0.14481050022E+03  0.15970518528E+03  0.47000000000E+01 0. -1.
         11    1    4    4    0    0  0.10468854785E+02  0.50881457951E+02  0.86142280256E+02  0.10059330063E+03  0.00000000000E+00 0. -1.
        -12    1    4    4    0    0 -0.33517235941E+02 -0.32621437211E+01  0.16178818987E+03  0.16525575653E+03  0.00000000000E+00 0.  1.
         -5    1    3    3    0  504 -0.11077314863E+02 -0.76417137197E+02  0.10847221094E+03  0.13323136383E+03  0.47000000000E+01 0.  1.
<mgrwt>
<rscale>  2 0.17894312E+03</rscale>
<asrwt>0</asrwt>
<pdfrwt beam="1">  1       21 0.15392106E+00 0.17956144E+03</pdfrwt>
<pdfrwt beam="2">  1       21 0.52200287E-02 0.17956144E+03</pdfrwt>
<totfact> 0.70293078E+04</totfact>
</mgrwt>
</event>
<event>
12    1  0.2736842E-001  0.3136703E+03  0.7546771E-02  0.1078712E+00
         21   -1    0    0  502  503  0.00000000000E+00  0.00000000000E+00  0.23165305986E+03  0.23165305986E+03  0.00000000000E+00 0.  1.
         21   -1    0    0  503  504 -0.00000000000E+00 -0.00000000000E+00 -0.42351774948E+03  0.42351774948E+03  0.00000000000E+00 0. -1.
         -6    2    1    2    0  504 -0.18718616139E+03  0.18267176534E+03 -0.10059306357E+03  0.32940557071E+03  0.17315147330E+03 0.  0.
        -24    2    3    3    0    0 -0.11699319932E+03  0.41219249233E+02 -0.84363705292E+02  0.17059326543E+03  0.81230488398E+02 0.  0.
          6    2    1    2  502    0  0.18718616139E+03 -0.18267176534E+03 -0.91271626046E+02  0.32576523863E+03  0.17142009250E+03 0.  0.
         24    2    5    5    0    0  0.25498223370E+02 -0.86254211297E+02 -0.52474347663E+01  0.11873484107E+03  0.77333553849E+02 0.  0.
          4    1    6    6  501    0 -0.18994946030E+02 -0.41424217628E+02 -0.25732047997E+02  0.52334616411E+02  0.00000000000E+00 0. -1.
         -3    1    6    6    0  501  0.44493169400E+02 -0.44829993669E+02  0.20484613231E+02  0.66400224660E+02  0.00000000000E+00 0.  1.
          5    1    5    5  502    0  0.16168793802E+03 -0.96417554042E+02 -0.86024191280E+02  0.20703039756E+03  0.47000000000E+01 0. -1.
         13    1    4    4    0    0 -0.26875316270E+02 -0.22111979091E+02 -0.36697585349E+02  0.50576032015E+02  0.00000000000E+00 0. -1.
        -14    1    4    4    0    0 -0.90117883047E+02  0.63331228324E+02 -0.47666119944E+02  0.12001723341E+03  0.00000000000E+00 0.  1.
         -5    1    3    3    0  504 -0.70192962074E+02  0.14145251611E+03 -0.16229358276E+02  0.15881230528E+03  0.47000000000E+01 0.  1.
<mgrwt>
<rscale>  2 0.31343194E+03</rscale>
<asrwt>0</asrwt>
<pdfrwt beam="1">  1       21 0.35638933E-01 0.31367031E+03</pdfrwt>
<pdfrwt beam="2">  1       21 0.65156576E-01 0.31367031E+03</pdfrwt>
<totfact> 0.15480014E+04</totfact>
</mgrwt>
</event>
<event>
12    1  0.2736842E-001  0.2002677E+03  0.7546771E-02  0.1149586E+00
         21   -1    0    0  502  503  0.00000000000E+00  0.00000000000E+00  0.42450943105E+03  0.42450943105E+03  0.00000000000E+00 0. -1.
         21   -1    0    0  503  504 -0.00000000000E+00 -0.00000000000E+00 -0.11490744002E+03  0.11490744002E+03  0.00000000000E+00 0. -1.
         -6    2    1    2    0  504  0.63717223827E+02  0.76514069888E+02  0.26886515165E+03  0.33504799400E+03  0.17336205181E+03 0.  0.
        -24    2    3    3    0    0  0.35283773020E+02 -0.27228234834E+02  0.13664899505E+03  0.16453661907E+03  0.80081394569E+02 0.  0.
          6    2    1    2  502    0 -0.63717223827E+02 -0.76514069888E+02  0.40736839383E+02  0.20436887707E+03  0.17376092866E+03 0.  0.
         24    2    5    5    0    0 -0.67091879363E+02  0.14360135202E+02  0.41787112073E+02  0.11330460019E+03  0.79901413813E+02 0.  0.
          2    1    6    6  501    0 -0.73183637760E+02  0.31690269589E+02  0.15512067931E+02  0.81244952298E+02  0.00000000000E+00 0. -1.
         -1    1    6    6    0  501  0.60917583977E+01 -0.17330134387E+02  0.26275044143E+02  0.32059647892E+02  0.00000000000E+00 0.  1.
          5    1    5    5  502    0  0.33746555360E+01 -0.90874205090E+02 -0.10502726903E+01  0.91064276878E+02  0.47000000000E+01 0. -1.
         13    1    4    4    0    0  0.59719820078E+02 -0.14215730554E+02  0.11075156006E+03  0.12662721651E+03  0.00000000000E+00 0. -1.
        -14    1    4    4    0    0 -0.24436047058E+02 -0.13012504280E+02  0.25897434994E+02  0.37909402564E+02  0.00000000000E+00 0.  1.
         -5    1    3    3    0  504  0.28433450806E+02  0.10374230472E+03  0.13221615660E+03  0.17051137493E+03  0.47000000000E+01 0.  1.
<mgrwt>
<rscale>  2 0.20018114E+03</rscale>
<asrwt>0</asrwt>
<pdfrwt beam="1">  1       21 0.65309142E-01 0.20026769E+03</pdfrwt>
<pdfrwt beam="2">  1       21 0.17678068E-01 0.20026769E+03</pdfrwt>
<totfact> 0.62392836E+04</totfact>
</mgrwt>
</event>
<event>
12    1  0.2736842E-001  0.2691126E+03  0.7546771E-02  0.1103244E+00
         21   -1    0    0  502  503  0.00000000000E+00  0.00000000000E+00  0.24055902129E+03  0.24055902129E+03  0.00000000000E+00 0. -1.
         21   -1    0    0  503  504 -0.00000000000E+00 -0.00000000000E+00 -0.30224845723E+03  0.30224845723E+03  0.00000000000E+00 0.  1.
         -6    2    1    2    0  504 -0.98488465507E+02 -0.16170299608E+03 -0.84795022033E+02  0.27270482825E+03  0.17700251640E+03 0.  0.
        -24    2    3    3    0    0 -0.11829886248E+03 -0.10982546079E+03 -0.12212925569E+02  0.18119536851E+03  0.81402415907E+02 0.  0.
          6    2    1    2  502    0  0.98488465507E+02  0.16170299608E+03  0.23105586094E+02  0.27010265027E+03  0.19124261240E+03 0.  0.
         24    2    5    5    0    0  0.85500374916E+02  0.27213712064E+02 -0.31462642548E+02  0.12430882465E+03  0.80074251641E+02 0.  0.
          4    1    6    6  501    0  0.61236493510E+02  0.33482812164E+02  0.15121149120E+02  0.71411875753E+02  0.00000000000E+00 0. -1.
         -3    1    6    6    0  501  0.24263881406E+02 -0.62691001000E+01 -0.46583791668E+02  0.52896948902E+02  0.00000000000E+00 0.  1.
          5    1    5    5  502    0  0.12988090591E+02  0.13448928401E+03  0.54568228642E+02  0.14579382562E+03  0.47000000000E+01 0. -1.
         13    1    4    4    0    0 -0.41828931118E+02 -0.78946208709E+02  0.21837627943E+02  0.91973068570E+02  0.00000000000E+00 0. -1.
        -14    1    4    4    0    0 -0.76469931365E+02 -0.30879252086E+02 -0.34050553513E+02  0.89222299941E+02  0.00000000000E+00 0.  1.
         -5    1    3    3    0  504  0.19810396976E+02 -0.51877535281E+02 -0.72582096463E+02  0.91509459742E+02  0.47000000000E+01 0.  1.
<mgrwt>
<rscale>  2 0.26659601E+03</rscale>
<asrwt>0</asrwt>
<pdfrwt beam="1">  1       21 0.37009081E-01 0.26911257E+03</pdfrwt>
<pdfrwt beam="2">  1       21 0.46499762E-01 0.26911257E+03</pdfrwt>
<totfact> 0.30064634E+04</totfact>
</mgrwt>
</event>
<event>
12    1  0.2736842E-001  0.1992765E+03  0.7546771E-02  0.1150398E+00
         21   -1    0    0  502  503  0.00000000000E+00  0.00000000000E+00  0.75580409082E+02  0.75580409082E+02  0.00000000000E+00 0.  1.
         21   -1    0    0  503  504 -0.00000000000E+00 -0.00000000000E+00 -0.63115070251E+03  0.63115070251E+03  0.00000000000E+00 0.  1.
         -6    2    1    2    0  504  0.63194713891E+02  0.74941150174E+02 -0.42268989429E+03  0.46721423966E+03  0.17324159763E+03 0.  0.
        -24    2    3    3    0    0  0.73457214192E+02  0.72882009668E+02 -0.17040388316E+03  0.21466745115E+03  0.79604532137E+02 0.  0.
          6    2    1    2  502    0 -0.63194713891E+02 -0.74941150174E+02 -0.13288039914E+03  0.23951687194E+03  0.17349750319E+03 0.  0.
         24    2    5    5    0    0 -0.85438560733E+02 -0.23137803289E+02 -0.30242383371E+02  0.12232033721E+03  0.78819778880E+02 0.  0.
          4    1    6    6  501    0 -0.27031156807E+02 -0.53410143298E+01  0.27034739747E+02  0.38601645374E+02  0.00000000000E+00 0. -1.
         -3    1    6    6    0  501 -0.58407403926E+02 -0.17796788959E+02 -0.57277123117E+02  0.83718691839E+02  0.00000000000E+00 0.  1.
          5    1    5    5  502    0  0.22243846841E+02 -0.51803346885E+02 -0.10263801577E+03  0.11719653472E+03  0.47000000000E+01 0. -1.
         11    1    4    4    0    0  0.70991663459E+02  0.34648920464E+02 -0.64295562004E+02  0.10185422556E+03  0.00000000000E+00 0. -1.
        -12    1    4    4    0    0  0.24655507325E+01  0.38233089204E+02 -0.10610832115E+03  0.11281322559E+03  0.00000000000E+00 0.  1.
         -5    1    3    3    0  504 -0.10262500300E+02  0.20591405054E+01 -0.25228601114E+03  0.25254678851E+03  0.47000000000E+01 0.  1.
<mgrwt>
<rscale>  2 0.19922081E+03</rscale>
<asrwt>0</asrwt>
<pdfrwt beam="1">  1       21 0.11627756E-01 0.19927652E+03</pdfrwt>
<pdfrwt beam="2">  1       21 0.97100103E-01 0.19927652E+03</pdfrwt>
<totfact> 0.54451278E+04</totfact>
</mgrwt>
</event>
<event>
12    1  0.2736842E-001  0.2480723E+03  0.7546771E-02  0.1114673E+00
         21   -1    0    0  502  503  0.00000000000E+00  0.00000000000E+00  0.51355541101E+02  0.51355541101E+02  0.00000000000E+00 0.  1.
         21   -1    0    0  503  504 -0.00000000000E+00 -0.00000000000E+00 -0.12186730085E+04  0.12186730085E+04  0.00000000000E+00 0. -1.
         -6    2    1    2    0  504  0.13509604885E+03  0.11539250094E+03 -0.49427734157E+03  0.55303700880E+03  0.17312848125E+03 0.  0.
        -24    2    3    3    0    0  0.15061450063E+03  0.11224913258E+03 -0.49619432570E+03  0.53640968374E+03  0.79005976883E+02 0.  0.
          6    2    1    2  502    0 -0.13509604885E+03 -0.11539250094E+03 -0.67304012580E+03  0.71699154078E+03  0.17183563927E+03 0.  0.
         24    2    5    5    0    0 -0.16031186507E+03 -0.11698784343E+03 -0.52192582763E+03  0.56370747892E+03  0.77288438065E+02 0.  0.
          2    1    6    6  501    0 -0.13296694011E+03 -0.12424425230E+03 -0.47789245562E+03  0.51136879112E+03  0.00000000000E+00 0. -1.
         -1    1    6    6    0  501 -0.27344924959E+02  0.72564088729E+01 -0.44033372001E+02  0.52338687799E+02  0.00000000000E+00 0.  1.
          5    1    5    5  502    0  0.25215816226E+02  0.15953424882E+01 -0.15111429818E+03  0.15328406186E+03  0.47000000000E+01 0. -1.
         11    1    4    4    0    0  0.44909945334E+02 -0.22661941378E+01 -0.15335469713E+03  0.15981145753E+03  0.00000000000E+00 0. -1.
        -12    1    4    4    0    0  0.10570455530E+03  0.11451532672E+03 -0.34283962857E+03  0.37659822620E+03  0.00000000000E+00 0.  1.
         -5    1    3    3    0  504 -0.15518451783E+02  0.31433683637E+01  0.19169841329E+01  0.16627325058E+02  0.47000000000E+01 0.  1.
<mgrwt>
<rscale>  2 0.24784681E+03</rscale>
<asrwt>0</asrwt>
<pdfrwt beam="1">  1       21 0.79008532E-02 0.24807225E+03</pdfrwt>
<pdfrwt beam="2">  1       21 0.18748814E+00 0.24807225E+03</pdfrwt>
<totfact> 0.19146108E+04</totfact>
</mgrwt>
</event>
<event>
12    1  0.2736842E-001  0.1868993E+03  0.7546771E-02  0.1161662E+00
         21   -1    0    0  502  503  0.00000000000E+00  0.00000000000E+00  0.12843488730E+03  0.12843488730E+03  0.00000000000E+00 0. -1.
         21   -1    0    0  503  504 -0.00000000000E+00 -0.00000000000E+00 -0.27475081294E+03  0.27475081294E+03  0.00000000000E+00 0. -1.
         -6    2    1    2    0  504  0.58261000541E+02 -0.40726647220E+02 -0.10099006944E+03  0.21243900600E+03  0.17285350204E+03 0.  0.
        -24    2    3    3    0    0  0.22443326652E+02 -0.89855685965E+02 -0.86215084037E+02  0.14969381969E+03  0.79984071707E+02 0.  0.
          6    2    1    2  502    0 -0.58261000541E+02  0.40726647220E+02 -0.45325856201E+02  0.19074669423E+03  0.17110483378E+03 0.  0.
         24    2    5    5    0    0  0.33091896468E+02  0.23814164203E+02 -0.41049215722E+01  0.88998773738E+02  0.79004704400E+02 0.  0.
          4    1    6    6  501    0  0.12145524431E+02  0.28771275261E+02  0.33418785786E+02  0.45739646777E+02  0.00000000000E+00 0. -1.
         -3    1    6    6    0  501  0.20946372036E+02 -0.49571110584E+01 -0.37523707358E+02  0.43259126961E+02  0.00000000000E+00 0.  1.
          5    1    5    5  502    0 -0.91352897009E+02  0.16912483017E+02 -0.41220934629E+02  0.10174792050E+03  0.47000000000E+01 0. -1.
         13    1    4    4    0    0  0.37111743957E+02 -0.18316701658E+02 -0.58337137630E+02  0.71526252006E+02  0.00000000000E+00 0. -1.
        -14    1    4    4    0    0 -0.14668417306E+02 -0.71538984307E+02 -0.27877946407E+02  0.78167567685E+02  0.00000000000E+00 0.  1.
         -5    1    3    3    0  504  0.35817673890E+02  0.49129038745E+02 -0.14774985403E+02  0.62745186306E+02  0.47000000000E+01 0.  1.
<mgrwt>
<rscale>  2 0.18649394E+03</rscale>
<asrwt>0</asrwt>
<pdfrwt beam="1">  1       21 0.19759213E-01 0.18689927E+03</pdfrwt>
<pdfrwt beam="2">  1       21 0.42269356E-01 0.18689927E+03</pdfrwt>
<totfact> 0.12741396E+05</totfact>
</mgrwt>
</event>
<event>
12    1  0.2736842E-001  0.2312894E+03  0.7546771E-02  0.1125848E+00
         21   -1    0    0  502  503  0.00000000000E+00  0.00000000000E+00  0.15255881728E+03  0.15255881728E+03  0.00000000000E+00 0. -1.
         21   -1    0    0  503  504 -0.00000000000E+00 -0.00000000000E+00 -0.45847988155E+03  0.45847988155E+03  0.00000000000E+00 0.  1.
         -6    2    1    2    0  504  0.13520198398E+03  0.70695958760E+02 -0.30163091201E+03  0.37970948155E+03  0.17297568686E+03 0.  0.
        -24    2    3    3    0    0  0.14423444566E+02  0.11349257939E+02 -0.58336015227E+02  0.10163757847E+03  0.81180448855E+02 0.  0.
          6    2    1    2  502    0 -0.13520198398E+03 -0.70695958760E+02 -0.42901522533E+01  0.23132921728E+03  0.17383125814E+03 0.  0.
         24    2    5    5    0    0 -0.30882229464E+02  0.18878531604E+02 -0.25905205663E+02  0.92061485773E+02  0.80586142916E+02 0.  0.
          2    1    6    6  501    0 -0.39249391069E+02  0.28800503040E+02  0.13544516794E+02  0.50531550637E+02  0.00000000000E+00 0. -1.
         -1    1    6    6    0  501  0.83671616047E+01 -0.99219714358E+01 -0.39449722456E+02  0.41529935136E+02  0.00000000000E+00 0.  1.
          5    1    5    5  502    0 -0.10431975451E+03 -0.89574490363E+02  0.21615053409E+02  0.13926773151E+03  0.47000000000E+01 0. -1.
         13    1    4    4    0    0  0.31360766203E+00 -0.25551189392E+02  0.59000026486E+01  0.26225401053E+02  0.00000000000E+00 0. -1.
        -14    1    4    4    0    0  0.14109836904E+02  0.36900447331E+02 -0.64236017876E+02  0.75412177420E+02  0.00000000000E+00 0.  1.
         -5    1    3    3    0  504  0.12077853941E+03  0.59346700821E+02 -0.24329489679E+03  0.27807190308E+03  0.47000000000E+01 0.  1.
<mgrwt>
<rscale>  2 0.23112868E+03</rscale>
<asrwt>0</asrwt>
<pdfrwt beam="1">  1       21 0.23470587E-01 0.23128943E+03</pdfrwt>
<pdfrwt beam="2">  1       21 0.70535367E-01 0.23128943E+03</pdfrwt>
<totfact> 0.30495278E+04</totfact>
</mgrwt>
</event>
<event>
12    1  0.2736842E-001  0.6979042E+03  0.7546771E-02  0.9720930E-01
         21   -1    0    0  502  503  0.00000000000E+00  0.00000000000E+00  0.40226673817E+03  0.40226673817E+03  0.00000000000E+00 0. -1.
         21   -1    0    0  503  504 -0.00000000000E+00 -0.00000000000E+00 -0.12672313266E+04  0.12672313266E+04  0.00000000000E+00 0.  1.
         -6    2    1    2    0  504  0.66721179887E+03  0.11350517009E+03 -0.25560709939E+03  0.74300637316E+03  0.16931766920E+03 0.  0.
        -24    2    3    3    0    0  0.30548808787E+03  0.34103334707E+02 -0.56807684568E+02  0.32265890748E+03  0.79972797161E+02 0.  0.
          6    2    1    2  502    0 -0.66721179887E+03 -0.11350517009E+03 -0.60935748907E+03  0.92649169164E+03  0.17033877130E+03 0.  0.
         24    2    5    5    0    0 -0.53426483946E+03 -0.12195888790E+03 -0.54975000811E+03  0.78047285331E+03  0.81239856729E+02 0.  0.
          2    1    6    6  501    0 -0.23127859679E+03 -0.89141108430E+02 -0.21937347158E+03  0.33099946613E+03  0.00000000000E+00 0. -1.
         -1    1    6    6    0  501 -0.30298624267E+03 -0.32817779467E+02 -0.33037653652E+03  0.44947338718E+03  0.00000000000E+00 0.  1.
          5    1    5    5  502    0 -0.13294695941E+03  0.84537178043E+01 -0.59607480968E+02  0.14601883834E+03  0.47000000000E+01 0. -1.
         11    1    4    4    0    0  0.17287441676E+03 -0.43912934033E+01 -0.63976958805E+02  0.18438519107E+03  0.00000000000E+00 0. -1.
        -12    1    4    4    0    0  0.13261367110E+03  0.38494628110E+02  0.71692742371E+01  0.13827371641E+03  0.00000000000E+00 0.  1.
         -5    1    3    3    0  504  0.36172371100E+03  0.79401835386E+02 -0.19879941482E+03  0.42034746567E+03  0.47000000000E+01 0.  1.
<mgrwt>
<rscale>  2 0.69784209E+03</rscale>
<asrwt>0</asrwt>
<pdfrwt beam="1">  1       21 0.61887190E-01 0.69790422E+03</pdfrwt>
<pdfrwt beam="2">  1       21 0.19495867E+00 0.69790422E+03</pdfrwt>
<totfact> 0.25874572E+02</totfact>
</mgrwt>
</event>
<event>
12    1  0.2736842E-001  0.2066219E+03  0.7546771E-02  0.1144385E+00
         21   -1    0    0  502  503  0.00000000000E+00  0.00000000000E+00  0.24346443156E+04  0.24346443156E+04  0.00000000000E+00 0.  1.
         21   -1    0    0  503  504 -0.00000000000E+00 -0.00000000000E+00 -0.18043849169E+02  0.18043849169E+02  0.00000000000E+00 0. -1.
         -6    2    1    2    0  504 -0.62657816051E+02 -0.93533742160E+02  0.99127605808E+03  0.10124651637E+04  0.17257729172E+03 0.  0.
        -24    2    3    3    0    0 -0.93473395638E+02 -0.85842730939E+02  0.94139515135E+03  0.95314445525E+03  0.78442790873E+02 0.  0.
          6    2    1    2  502    0  0.62657816051E+02  0.93533742160E+02  0.14253244083E+04  0.14402230010E+04  0.17325721004E+03 0.  0.
         24    2    5    5    0    0  0.49667922521E+02  0.11806332605E+03  0.13691611988E+04  0.13773991686E+04  0.78868433131E+02 0.  0.
          4    1    6    6  501    0  0.59400617327E+02  0.12392394772E+03  0.11968553088E+04  0.12047191409E+04  0.00000000000E+00 0. -1.
         -3    1    6    6    0  501 -0.97326948060E+01 -0.58606216669E+01  0.17230589002E+03  0.17268002771E+03  0.00000000000E+00 0.  1.
          5    1    5    5  502    0  0.12989893530E+02 -0.24529583893E+02  0.56163209494E+02  0.62823832425E+02  0.47000000000E+01 0. -1.
         11    1    4    4    0    0 -0.13834496728E+02 -0.57203945127E+02  0.52111692501E+03  0.52442972281E+03  0.00000000000E+00 0. -1.
        -12    1    4    4    0    0 -0.79638898910E+02 -0.28638785812E+02  0.42027822635E+03  0.42871473244E+03  0.00000000000E+00 0.  1.
         -5    1    3    3    0  504  0.30815579587E+02 -0.76910112208E+01  0.49880906724E+02  0.59320708479E+02  0.47000000000E+01 0.  1.
<mgrwt>
<rscale>  2 0.20647934E+03</rscale>
<asrwt>0</asrwt>
<pdfrwt beam="1">  1       21 0.37456040E+00 0.20662193E+03</pdfrwt>
<pdfrwt beam="2">  1       21 0.27759787E-02 0.20662193E+03</pdfrwt>
<totfact> 0.88237241E+03</totfact>
</mgrwt>
</event>
<event>
12    1  0.2736842E-001  0.2246828E+03  0.7546771E-02  0.1132693E+00
         21   -1    0    0  502  503  0.00000000000E+00  0.00000000000E+00  0.10797257538E+04  0.10797257538E+04  0.00000000000E+00 0. -1.
         21   -1    0    0  503  504 -0.00000000000E+00 -0.00000000000E+00 -0.15269447221E+03  0.15269447221E+03  0.00000000000E+00 0. -1.
         -6    2    1    2    0  504  0.87791077349E+02  0.11249815140E+03 -0.51954886992E+02  0.23061147302E+03  0.17354893798E+03 0.  0.
        -24    2    3    3    0    0  0.59724501980E+02  0.14508995406E+03 -0.16062504678E+02  0.17439482636E+03  0.74413980527E+02 0.  0.
          6    2    1    2  502    0 -0.87791077349E+02 -0.11249815140E+03  0.97898616863E+03  0.10018087530E+04  0.15761900894E+03 0.  0.
         24    2    5    5    0    0 -0.31269525799E+02 -0.10041786892E+03  0.85252958157E+03  0.86269017978E+03  0.79788014186E+02 0.  0.
          4    1    6    6  501    0  0.18100131587E+02 -0.53885758563E+02  0.25151282679E+03  0.25785653332E+03  0.00000000000E+00 0. -1.
         -3    1    6    6    0  501 -0.49369657386E+02 -0.46532110355E+02  0.60101675478E+03  0.60483364646E+03  0.00000000000E+00 0.  1.
          5    1    5    5  502    0 -0.56521551550E+02 -0.12080282478E+02  0.12645658706E+03  0.13911857326E+03  0.47000000000E+01 0. -1.
         13    1    4    4    0    0  0.37899550946E+01  0.10442863334E+03 -0.10247402788E+02  0.10499863087E+03  0.00000000000E+00 0. -1.
        -14    1    4    4    0    0  0.55934546886E+02  0.40661320718E+02 -0.58151018898E+01  0.69396195485E+02  0.00000000000E+00 0.  1.
         -5    1    3    3    0  504  0.28066575368E+02 -0.32591802661E+02 -0.35892382314E+02  0.56216646661E+02  0.47000000000E+01 0.  1.
<mgrwt>
<rscale>  2 0.22160413E+03</rscale>
<asrwt>0</asrwt>
<pdfrwt beam="1">  1       21 0.16611165E+00 0.22468276E+03</pdfrwt>
<pdfrwt beam="2">  1       21 0.23491458E-01 0.22468276E+03</pdfrwt>
<totfact> 0.37717128E+03</totfact>
</mgrwt>
</event>
<event>
12    1  0.2736842E-001  0.2623777E+03  0.7546771E-02  0.1105891E+00
         21   -1    0    0  502  503  0.00000000000E+00  0.00000000000E+00  0.30326684840E+03  0.30326684840E+03  0.00000000000E+00 0. -1.
         21   -1    0    0  503  504 -0.00000000000E+00 -0.00000000000E+00 -0.36007929498E+03  0.36007929498E+03  0.00000000000E+00 0. -1.
         -6    2    1    2    0  504 -0.16709403542E+03  0.10417895529E+03 -0.23081476607E+03  0.34945317149E+03  0.17340239742E+03 0.  0.
        -24    2    3    3    0    0 -0.16164063373E+03  0.95672196512E+02 -0.11774522979E+03  0.23583576715E+03  0.80459345448E+02 0.  0.
          6    2    1    2  502    0  0.16709403542E+03 -0.10417895529E+03  0.17400231948E+03  0.31389297189E+03  0.17169251358E+03 0.  0.
         24    2    5    5    0    0  0.29039131804E+02  0.13245768497E+01  0.38055385715E+02  0.93226231063E+02  0.79986824519E+02 0.  0.
          2    1    6    6  501    0  0.19965796956E+02  0.32561378184E+02 -0.57908914227E+01  0.38631733340E+02  0.00000000000E+00 0. -1.
         -1    1    6    6    0  501  0.90733348478E+01 -0.31236801334E+02  0.43846277138E+02  0.54594497724E+02  0.00000000000E+00 0.  1.
          5    1    5    5  502    0  0.13805490361E+03 -0.10550353214E+03  0.13594693377E+03  0.22066674083E+03  0.47000000000E+01 0. -1.
         13    1    4    4    0    0 -0.52858245521E+02  0.35706011895E+02  0.12777427248E+01  0.63800830962E+02  0.00000000000E+00 0. -1.
        -14    1    4    4    0    0 -0.10878238821E+03  0.59966184617E+02 -0.11902297252E+03  0.17203493619E+03  0.00000000000E+00 0.  1.
         -5    1    3    3    0  504 -0.54534016818E+01  0.85067587777E+01 -0.11306953627E+03  0.11361740433E+03  0.47000000000E+01 0.  1.
<mgrwt>
<rscale>  2 0.26209553E+03</rscale>
<asrwt>0</asrwt>
<pdfrwt beam="1">  1       21 0.46656439E-01 0.26237771E+03</pdfrwt>
<pdfrwt beam="2">  1       21 0.55396814E-01 0.26237771E+03</pdfrwt>
<totfact> 0.12979856E+04</totfact>
</mgrwt>
</event>
<event>
12    1  0.2736842E-001  0.2164963E+03  0.7546771E-02  0.1136739E+00
         21   -1    0    0  502  503  0.00000000000E+00  0.00000000000E+00  0.17872109750E+03  0.17872109750E+03  0.00000000000E+00 0.  1.
         21   -1    0    0  503  504 -0.00000000000E+00 -0.00000000000E+00 -0.26088937847E+03  0.26088937847E+03  0.00000000000E+00 0. -1.
         -6    2    1    2    0  504  0.28247984310E+02 -0.12326185192E+03 -0.42258884872E+02  0.21946636802E+03  0.17432223204E+03 0.  0.
        -24    2    3    3    0    0  0.64278136604E+02 -0.13203401647E+03 -0.33854959157E+01  0.16553721900E+03  0.76331179351E+02 0.  0.
          6    2    1    2  502    0 -0.28247984310E+02  0.12326185192E+03 -0.39909396093E+02  0.22014410795E+03  0.17572488616E+03 0.  0.
         24    2    5    5    0    0 -0.31856019851E+02  0.81074797241E+02  0.42637854767E+02  0.12725221311E+03  0.82384527275E+02 0.  0.
          2    1    6    6  501    0 -0.33893222608E+02  0.97356708586E+02  0.40266847272E+02  0.11067293361E+03  0.00000000000E+00 0. -1.
         -1    1    6    6    0  501  0.20372027567E+01 -0.16281911345E+02  0.23710074955E+01  0.16579279498E+02  0.00000000000E+00 0.  1.
          5    1    5    5  502    0  0.36080355410E+01  0.42187054678E+02 -0.82547250860E+02  0.92891894842E+02  0.47000000000E+01 0. -1.
         13    1    4    4    0    0  0.49247837812E+02 -0.55655720764E+02 -0.34211352448E+02  0.81812746068E+02  0.00000000000E+00 0. -1.
        -14    1    4    4    0    0  0.15030298792E+02 -0.76378295702E+02  0.30825856533E+02  0.83724472928E+02  0.00000000000E+00 0.  1.
         -5    1    3    3    0  504 -0.36030152293E+02  0.87721645473E+01 -0.38873388957E+02  0.53929149021E+02  0.47000000000E+01 0.  1.
<mgrwt>
<rscale>  2 0.21621155E+03</rscale>
<asrwt>0</asrwt>
<pdfrwt beam="1">  1       21 0.27495553E-01 0.21649635E+03</pdfrwt>
<pdfrwt beam="2">  1       21 0.40136827E-01 0.21649635E+03</pdfrwt>
<totfact> 0.74720060E+04</totfact>
</mgrwt>
</event>
<event>
12    1  0.2736842E-001  0.1902642E+03  0.7546771E-02  0.1158310E+00
         21   -1    0    0  502  503  0.00000000000E+00  0.00000000000E+00  0.38509523714E+02  0.38509523714E+02  0.00000000000E+00 0. -1.
         21   -1    0    0  503  504 -0.00000000000E+00 -0.00000000000E+00 -0.96681534808E+03  0.96681534808E+03  0.00000000000E+00 0. -1.
         -6    2    1    2    0  504 -0.47055912043E+01  0.78791460417E+02 -0.55026477571E+03  0.58210447244E+03  0.17269642908E+03 0.  0.
        -24    2    3    3    0    0  0.19431423542E+02  0.15044335417E+02 -0.11211347418E+03  0.13865780770E+03  0.77798742252E+02 0.  0.
          6    2    1    2  502    0  0.47055912043E+01 -0.78791460417E+02 -0.37804104866E+03  0.42322039936E+03  0.17311913569E+03 0.  0.
         24    2    5    5    0    0 -0.25782438995E+01  0.25079794749E+02 -0.98607214703E+02  0.12497947417E+03  0.72531667048E+02 0.  0.
          4    1    6    6  501    0 -0.31462549427E+02  0.31377157067E+02 -0.74884500750E+02  0.87075291873E+02  0.00000000000E+00 0. -1.
         -3    1    6    6    0  501  0.28884305528E+02 -0.62973623179E+01 -0.23722713953E+02  0.37904182293E+02  0.00000000000E+00 0.  1.
          5    1    5    5  502    0  0.72838351038E+01 -0.10387125517E+03 -0.27943383395E+03  0.29824092520E+03  0.47000000000E+01 0. -1.
         11    1    4    4    0    0  0.25947297178E+02  0.28153793536E+02 -0.11709378265E+03  0.12319436779E+03  0.00000000000E+00 0. -1.
        -12    1    4    4    0    0 -0.65158736358E+01 -0.13109458119E+02  0.49803084697E+01  0.15463439910E+02  0.00000000000E+00 0.  1.
         -5    1    3    3    0  504 -0.24137014746E+02  0.63747125000E+02 -0.43815130154E+03  0.44344666474E+03  0.47000000000E+01 0.  1.
<mgrwt>
<rscale>  2 0.19016801E+03</rscale>
<asrwt>0</asrwt>
<pdfrwt beam="1">  1       21 0.59245419E-02 0.19026422E+03</pdfrwt>
<pdfrwt beam="2">  1       21 0.14874083E+00 0.19026422E+03</pdfrwt>
<totfact> 0.61655877E+04</totfact>
</mgrwt>
</event>
<event>
12    1  0.2736842E-001  0.2004874E+03  0.7546771E-02  0.1149409E+00
         21   -1    0    0  502  503  0.00000000000E+00  0.00000000000E+00  0.31950552848E+03  0.31950552848E+03  0.00000000000E+00 0. -1.
         21   -1    0    0  503  504 -0.00000000000E+00 -0.00000000000E+00 -0.13558486230E+03  0.13558486230E+03  0.00000000000E+00 0. -1.
         -6    2    1    2    0  504 -0.82643453789E+02 -0.56203373416E+02  0.15389786963E+03  0.25274447567E+03  0.17380004622E+03 0.  0.
        -24    2    3    3    0    0 -0.16591438926E+02 -0.36171254533E+02  0.16006952417E+03  0.18328705148E+03  0.79926561131E+02 0.  0.
          6    2    1    2  502    0  0.82643453789E+02  0.56203373416E+02  0.30022796551E+02  0.20234591512E+03  0.17336014944E+03 0.  0.
         24    2    5    5    0    0  0.66241616217E+02 -0.28328363948E+02 -0.93492252660E+01  0.10754675373E+03  0.79299737089E+02 0.  0.
          4    1    6    6  501    0  0.35882529526E+02  0.12542405848E+02 -0.33983375214E+02  0.50987622621E+02  0.00000000000E+00 0. -1.
         -3    1    6    6    0  501  0.30359086691E+02 -0.40870769796E+02  0.24634149948E+02  0.56559131112E+02  0.00000000000E+00 0.  1.
          5    1    5    5  502    0  0.16401837572E+02  0.84531737364E+02  0.39372021817E+02  0.94799161386E+02  0.47000000000E+01 0. -1.
         13    1    4    4    0    0  0.27890214145E+00 -0.36186777916E+02  0.18363840658E+02  0.40580676757E+02  0.00000000000E+00 0. -1.
        -14    1    4    4    0    0 -0.16870341067E+02  0.15523383333E-01  0.14170568351E+03  0.14270637473E+03  0.00000000000E+00 0.  1.
         -5    1    3    3    0  504 -0.66052014863E+02 -0.20032118883E+02 -0.61716545374E+01  0.69457424183E+02  0.47000000000E+01 0.  1.
<mgrwt>
<rscale>  2 0.20039207E+03</rscale>
<asrwt>0</asrwt>
<pdfrwt beam="1">  1       21 0.49154697E-01 0.20048745E+03</pdfrwt>
<pdfrwt beam="2">  1       21 0.20859210E-01 0.20048745E+03</pdfrwt>
<totfact> 0.83955254E+04</totfact>
</mgrwt>
</event>
<event>
12    1  0.2736842E-001  0.2045164E+03  0.7546771E-02  0.1146104E+00
         21   -1    0    0  502  503  0.00000000000E+00  0.00000000000E+00  0.47778082303E+03  0.47778082303E+03  0.00000000000E+00 0. -1.
         21   -1    0    0  503  504 -0.00000000000E+00 -0.00000000000E+00 -0.14650712851E+03  0.14650712851E+03  0.00000000000E+00 0. -1.
         -6    2    1    2    0  504 -0.50146102709E+02 -0.97092774309E+02 -0.32950953493E+02  0.20657209421E+03  0.17217614913E+03 0.  0.
        -24    2    3    3    0    0  0.26113019886E+01 -0.11532494491E+03  0.16986702932E+01  0.14070524197E+03  0.80550715825E+02 0.  0.
          6    2    1    2  502    0  0.50146102709E+02  0.97092774309E+02  0.36422464802E+03  0.41771585734E+03  0.17287366719E+03 0.  0.
         24    2    5    5    0    0  0.63720226773E+02  0.82684799345E+02  0.14267499071E+03  0.19523397664E+03  0.82843885212E+02 0.  0.
          2    1    6    6  501    0  0.73072127663E+02  0.29128370986E+02  0.78603804400E+02  0.11120501744E+03  0.00000000000E+00 0. -1.
         -1    1    6    6    0  501 -0.93519008900E+01  0.53556428358E+02  0.64071186314E+02  0.84028959201E+02  0.00000000000E+00 0.  1.
          5    1    5    5  502    0 -0.13574124064E+02  0.14407974964E+02  0.22154965730E+03  0.22248188069E+03  0.47000000000E+01 0. -1.
         11    1    4    4    0    0 -0.36828660343E+01 -0.12245491345E+02 -0.30055058834E+02  0.32662243065E+02  0.00000000000E+00 0. -1.
        -12    1    4    4    0    0  0.62941680229E+01 -0.10307945357E+03  0.31753729128E+02  0.10804299890E+03  0.00000000000E+00 0.  1.
         -5    1    3    3    0  504 -0.52757404698E+02  0.18232170602E+02 -0.34649623786E+02  0.65866852239E+02  0.47000000000E+01 0.  1.
<mgrwt>
<rscale>  2 0.20436889E+03</rscale>
<asrwt>0</asrwt>
<pdfrwt beam="1">  1       21 0.73504742E-01 0.20451636E+03</pdfrwt>
<pdfrwt beam="2">  1       21 0.22539558E-01 0.20451636E+03</pdfrwt>
<totfact> 0.30463381E+04</totfact>
</mgrwt>
</event>
<event>
12    1  0.2736842E-001  0.1877618E+03  0.7546771E-02  0.1160763E+00
         21   -1    0    0  502  503  0.00000000000E+00  0.00000000000E+00  0.91812663099E+02  0.91812663099E+02  0.00000000000E+00 0. -1.
         21   -1    0    0  503  504 -0.00000000000E+00 -0.00000000000E+00 -0.38651289591E+03  0.38651289591E+03  0.00000000000E+00 0. -1.
         -6    2    1    2    0  504  0.94977868904E+01  0.70745196270E+02 -0.17384475119E+03  0.25503084558E+03  0.17240546374E+03 0.  0.
        -24    2    3    3    0    0 -0.28578307476E+02  0.41536765066E+02 -0.18176554449E+03  0.20616623280E+03  0.83209253536E+02 0.  0.
          6    2    1    2  502    0 -0.94977868904E+01 -0.70745196270E+02 -0.12085548162E+03  0.22329471343E+03  0.17366459299E+03 0.  0.
         24    2    5    5    0    0 -0.59303981666E+02 -0.70745550258E+02 -0.39847456223E+02  0.12808417191E+03  0.79346330754E+02 0.  0.
          4    1    6    6  501    0 -0.24288405465E+02 -0.78990102525E+02 -0.14070933777E+02  0.83829315363E+02  0.00000000000E+00 0. -1.
         -3    1    6    6    0  501 -0.35015576201E+02  0.82445522663E+01 -0.25776522446E+02  0.44254856549E+02  0.00000000000E+00 0.  1.
          5    1    5    5  502    0  0.49806194775E+02  0.35398860018E-03 -0.81008025393E+02  0.95210541519E+02  0.47000000000E+01 0. -1.
         13    1    4    4    0    0  0.24661804709E+01  0.21889777772E+02 -0.16379119564E+03  0.16526584701E+03  0.00000000000E+00 0. -1.
        -14    1    4    4    0    0 -0.31044487947E+02  0.19646987294E+02 -0.17974348844E+02  0.40900385792E+02  0.00000000000E+00 0.  1.
         -5    1    3    3    0  504  0.38076094366E+02  0.29208431204E+02  0.79207932930E+01  0.48864612778E+02  0.47000000000E+01 0.  1.
<mgrwt>
<rscale>  2 0.18747009E+03</rscale>
<asrwt>0</asrwt>
<pdfrwt beam="1">  1       21 0.14125025E-01 0.18776177E+03</pdfrwt>
<pdfrwt beam="2">  1       21 0.59463523E-01 0.18776177E+03</pdfrwt>
<totfact> 0.11578656E+05</totfact>
</mgrwt>
</event>
<event>
12    1  0.2736842E-001  0.2049249E+03  0.7546771E-02  0.1146353E+00
         21   -1    0    0  502  503  0.00000000000E+00  0.00000000000E+00  0.42972184821E+03  0.42972184821E+03  0.00000000000E+00 0.  1.
         21   -1    0    0  503  504 -0.00000000000E+00 -0.00000000000E+00 -0.15963488090E+03  0.15963488090E+03  0.00000000000E+00 0. -1.
         -6    2    1    2    0  504  0.60399923404E+02  0.92013292014E+02 -0.51536613196E+02  0.20799607580E+03  0.16879498924E+03 0.  0.
        -24    2    3    3    0    0  0.93517854336E+02  0.10785457349E+03 -0.50579393397E+02  0.17097243717E+03  0.79341673360E+02 0.  0.
          6    2    1    2  502    0 -0.60399923404E+02 -0.92013292014E+02  0.32162358050E+03  0.38136065331E+03  0.17285723504E+03 0.  0.
         24    2    5    5    0    0 -0.97889351531E+01  0.14350469763E+02  0.17716755253E+03  0.19490863276E+03  0.79367967223E+02 0.  0.
          4    1    6    6  501    0  0.52696699346E+01  0.44189143309E+02  0.72847766696E+02  0.85365373075E+02  0.00000000000E+00 0. -1.
         -3    1    6    6    0  501 -0.15058605088E+02 -0.29838673545E+02  0.10431978583E+03  0.10954325968E+03  0.00000000000E+00 0.  1.
          5    1    5    5  502    0 -0.50610988251E+02 -0.10636376178E+03  0.14445602797E+03  0.18645202055E+03  0.47000000000E+01 0. -1.
         13    1    4    4    0    0  0.91996524893E+02  0.63285213671E+02 -0.12552210181E+02  0.11236519409E+03  0.00000000000E+00 0. -1.
        -14    1    4    4    0    0  0.15213294429E+01  0.44569359819E+02 -0.38027183216E+02  0.58607243078E+02  0.00000000000E+00 0.  1.
         -5    1    3    3    0  504 -0.33117930932E+02 -0.15841281475E+02 -0.95721979919E+00  0.37023638634E+02  0.47000000000E+01 0.  1.
<mgrwt>
<rscale>  2 0.20406584E+03</rscale>
<asrwt>0</asrwt>
<pdfrwt beam="1">  1       21 0.66111053E-01 0.20492491E+03</pdfrwt>
<pdfrwt beam="2">  1       21 0.24559213E-01 0.20492491E+03</pdfrwt>
<totfact> 0.32694267E+04</totfact>
</mgrwt>
</event>
<event>
12    1  0.2736842E-001  0.1929449E+03  0.7546771E-02  0.1155844E+00
         21   -1    0    0  502  503  0.00000000000E+00  0.00000000000E+00  0.11523639495E+03  0.11523639495E+03  0.00000000000E+00 0. -1.
         21   -1    0    0  503  504 -0.00000000000E+00 -0.00000000000E+00 -0.32311944950E+03  0.32311944950E+03  0.00000000000E+00 0. -1.
         -6    2    1    2    0  504 -0.33823265997E+01  0.85208317054E+02 -0.99100838898E+02  0.21690713194E+03  0.17307752652E+03 0.  0.
        -24    2    3    3    0    0 -0.34634452282E+02 -0.69727858987E+01 -0.78072914142E+02  0.11721603544E+03  0.79975333781E+02 0.  0.
          6    2    1    2  502    0  0.33823265997E+01 -0.85208317054E+02 -0.10878221565E+03  0.22144871251E+03  0.17301463639E+03 0.  0.
         24    2    5    5    0    0 -0.36024710069E+02 -0.30332445242E+02 -0.12093855934E+03  0.15264360705E+03  0.80349851685E+02 0.  0.
          2    1    6    6  501    0 -0.19981765508E+02  0.22810304279E+02 -0.16884955673E+02  0.34708538751E+02  0.00000000000E+00 0. -1.
         -1    1    6    6    0  501 -0.16042944561E+02 -0.53142749521E+02 -0.10405360367E+03  0.11793506830E+03  0.00000000000E+00 0.  1.
          5    1    5    5  502    0  0.39407036669E+02 -0.54875871812E+02  0.12156343699E+02  0.68805105467E+02  0.47000000000E+01 0. -1.
         11    1    4    4    0    0 -0.61871168665E+01  0.33345337451E+02 -0.50085988320E+02  0.60488000222E+02  0.00000000000E+00 0. -1.
        -12    1    4    4    0    0 -0.28447335416E+02 -0.40318123349E+02 -0.27986925822E+02  0.56728035217E+02  0.00000000000E+00 0.  1.
         -5    1    3    3    0  504  0.31252125683E+02  0.92181102953E+02 -0.21027924756E+02  0.99691096498E+02  0.47000000000E+01 0.  1.
<mgrwt>
<rscale>  2 0.19293078E+03</rscale>
<asrwt>0</asrwt>
<pdfrwt beam="1">  1       21 0.17728677E-01 0.19294488E+03</pdfrwt>
<pdfrwt beam="2">  1       21 0.49710683E-01 0.19294488E+03</pdfrwt>
<totfact> 0.11135955E+05</totfact>
</mgrwt>
</event>
<event>
12    1  0.2736842E-001  0.1937398E+03  0.7546771E-02  0.1155607E+00
         21   -1    0    0  502  503  0.00000000000E+00  0.00000000000E+00  0.13080598498E+03  0.13080598498E+03  0.00000000000E+00 0.  1.
         21   -1    0    0  503  504 -0.00000000000E+00 -0.00000000000E+00 -0.32822443078E+03  0.32822443078E+03  0.00000000000E+00 0. -1.
         -6    2    1    2    0  504 -0.19300732199E+02  0.89679798833E+02 -0.18269723156E+03  0.26473215160E+03  0.16819586526E+03 0.  0.
        -24    2    3    3    0    0 -0.18058823621E+02 -0.81535539927E+01 -0.12517073486E+03  0.15113507820E+03  0.82349847870E+02 0.  0.
          6    2    1    2  502    0  0.19300732199E+02 -0.89679798833E+02 -0.14721214233E+02  0.19429826416E+03  0.17064617407E+03 0.  0.
         24    2    5    5    0    0  0.15081468849E+02 -0.24566433097E+02 -0.68549278222E+02  0.10958047941E+03  0.80485511645E+02 0.  0.
          2    1    6    6  501    0  0.14705421150E+02  0.11859362988E+02 -0.70610937268E+02  0.73094448240E+02  0.00000000000E+00 0. -1.
         -1    1    6    6    0  501  0.37604769981E+00 -0.36425796085E+02  0.20616590462E+01  0.36486031167E+02  0.00000000000E+00 0.  1.
          5    1    5    5  502    0  0.42192633492E+01 -0.65113365736E+02  0.53828063989E+02  0.84717784753E+02  0.47000000000E+01 0. -1.
         11    1    4    4    0    0 -0.27329618353E+02  0.28404731959E+02 -0.94945600795E+02  0.10280274290E+03  0.00000000000E+00 0. -1.
        -12    1    4    4    0    0  0.92707947328E+01 -0.36558285952E+02 -0.30225134069E+02  0.48332335307E+02  0.00000000000E+00 0.  1.
         -5    1    3    3    0  504 -0.12419085782E+01  0.97833352826E+02 -0.57526496693E+02  0.11359707339E+03  0.47000000000E+01 0.  1.
<mgrwt>
<rscale>  2 0.19319884E+03</rscale>
<asrwt>0</asrwt>
<pdfrwt beam="1">  1       21 0.20123998E-01 0.19373978E+03</pdfrwt>
<pdfrwt beam="2">  1       21 0.50496066E-01 0.19373978E+03</pdfrwt>
<totfact> 0.85140152E+04</totfact>
</mgrwt>
</event>
<event>
12    1  0.2736842E-001  0.2303482E+03  0.7546771E-02  0.1126576E+00
         21   -1    0    0  502  503  0.00000000000E+00  0.00000000000E+00  0.10167241572E+04  0.10167241572E+04  0.00000000000E+00 0.  1.
         21   -1    0    0  503  504 -0.00000000000E+00 -0.00000000000E+00 -0.54699634910E+02  0.54699634910E+02  0.00000000000E+00 0.  1.
         -6    2    1    2    0  504 -0.67748436160E+02  0.13578964316E+03  0.35998681975E+03  0.42682338329E+03  0.17192734610E+03 0.  0.
        -24    2    3    3    0    0 -0.35668857066E+02  0.55881508634E+02  0.73203804763E+02  0.12735552684E+03  0.80409096590E+02 0.  0.
          6    2    1    2  502    0  0.67748436160E+02 -0.13578964316E+03  0.60203770254E+03  0.64460040882E+03  0.17329631843E+03 0.  0.
         24    2    5    5    0    0 -0.54641059503E+01 -0.58525157087E+01  0.20231749016E+03  0.21793652284E+03  0.80621664398E+02 0.  0.
          2    1    6    6  501    0 -0.36857980735E+02  0.16731429043E+02  0.80105235614E+02  0.89751324416E+02  0.00000000000E+00 0. -1.
         -1    1    6    6    0  501  0.31393874785E+02 -0.22583944752E+02  0.12221225455E+03  0.12818519843E+03  0.00000000000E+00 0.  1.
          5    1    5    5  502    0  0.73212542111E+02 -0.12993712745E+03  0.39972021238E+03  0.42666388598E+03  0.47000000000E+01 0. -1.
         13    1    4    4    0    0  0.16089056177E+02 -0.92250998736E+01  0.25313152416E+02  0.31380182944E+02  0.00000000000E+00 0. -1.
        -14    1    4    4    0    0 -0.51757913243E+02  0.65106608508E+02  0.47890652347E+02  0.95975343901E+02  0.00000000000E+00 0.  1.
         -5    1    3    3    0  504 -0.32079579094E+02  0.79908134526E+02  0.28678301499E+03  0.29946785645E+03  0.47000000000E+01 0.  1.
<mgrwt>
<rscale>  2 0.23009073E+03</rscale>
<asrwt>0</asrwt>
<pdfrwt beam="1">  1       21 0.15641909E+00 0.23034820E+03</pdfrwt>
<pdfrwt beam="2">  1       21 0.84153292E-02 0.23034820E+03</pdfrwt>
<totfact> 0.28719797E+04</totfact>
</mgrwt>
</event>
<event>
12    1  0.2736842E-001  0.1739951E+03  0.7546771E-02  0.1173839E+00
         21   -1    0    0  502  503  0.00000000000E+00  0.00000000000E+00  0.39075928888E+02  0.39075928888E+02  0.00000000000E+00 0.  1.
         21   -1    0    0  503  504 -0.00000000000E+00 -0.00000000000E+00 -0.12551331882E+04  0.12551331882E+04  0.00000000000E+00 0.  1.
         -6    2    1    2    0  504 -0.24139273824E+02  0.10052330001E+02 -0.10094565677E+04  0.10243421658E+04  0.17201905917E+03 0.  0.
        -24    2    3    3    0    0 -0.16164796645E+02  0.13877833348E+02 -0.19817298468E+03  0.21299675920E+03  0.75107873510E+02 0.  0.
          6    2    1    2  502    0  0.24139273824E+02 -0.10052330001E+02 -0.20660069162E+03  0.26986695128E+03  0.17164082188E+03 0.  0.
         24    2    5    5    0    0  0.51870932956E+02  0.80650012651E+01 -0.47594997273E+02  0.10737946424E+03  0.80681024060E+02 0.  0.
          2    1    6    6  501    0  0.39772687107E+02 -0.28124648608E+02 -0.49136491564E+02  0.69190008688E+02  0.00000000000E+00 0. -1.
         -1    1    6    6    0  501  0.12098245849E+02  0.36189649873E+02  0.15414942911E+01  0.38189455550E+02  0.00000000000E+00 0.  1.
          5    1    5    5  502    0 -0.27731659131E+02 -0.18117331266E+02 -0.15900569435E+03  0.16248748704E+03  0.47000000000E+01 0. -1.
         11    1    4    4    0    0 -0.45826156971E+02  0.50005252351E+01 -0.10128511852E+03  0.11128215108E+03  0.00000000000E+00 0. -1.
        -12    1    4    4    0    0  0.29661360326E+02  0.88773081125E+01 -0.96887866161E+02  0.10171460812E+03  0.00000000000E+00 0.  1.
         -5    1    3    3    0  504 -0.79744771795E+01 -0.38255033471E+01 -0.81128358303E+03  0.81134540663E+03  0.47000000000E+01 0.  1.
<mgrwt>
<rscale>  2 0.17390159E+03</rscale>
<asrwt>0</asrwt>
<pdfrwt beam="1">  1       21 0.60116819E-02 0.17399515E+03</pdfrwt>
<pdfrwt beam="2">  1       21 0.19309740E+00 0.17399515E+03</pdfrwt>
<totfact> 0.29644034E+04</totfact>
</mgrwt>
</event>
<event>
12    1  0.2736842E-001  0.1805578E+03  0.7546771E-02  0.1168028E+00
         21   -1    0    0  502  503  0.00000000000E+00  0.00000000000E+00  0.16327725229E+03  0.16327725229E+03  0.00000000000E+00 0. -1.
         21   -1    0    0  503  504 -0.00000000000E+00 -0.00000000000E+00 -0.25109067073E+03  0.25109067073E+03  0.00000000000E+00 0. -1.
         -6    2    1    2    0  504  0.45051260278E+02  0.27630816982E+00 -0.14046317114E+03  0.22629048468E+03  0.17160357984E+03 0.  0.
        -24    2    3    3    0    0 -0.15345792761E+02 -0.49004643228E+02 -0.65883041263E+02  0.11830575447E+03  0.83777849110E+02 0.  0.
          6    2    1    2  502    0 -0.45051260278E+02 -0.27630816982E+00  0.52649752692E+02  0.18807743834E+03  0.17484688718E+03 0.  0.
         24    2    5    5    0    0 -0.67081403073E+02  0.44300122247E+02  0.71207504754E+02  0.13479643327E+03  0.81468731538E+02 0.  0.
          2    1    6    6  501    0  0.13409070323E+02 -0.10539769739E+02  0.10402180388E+02  0.19977368943E+02  0.00000000000E+00 0. -1.
         -1    1    6    6    0  501 -0.80490473396E+02  0.54839891986E+02  0.60805324366E+02  0.11481906432E+03  0.00000000000E+00 0.  1.
          5    1    5    5  502    0  0.22030142795E+02 -0.44576430417E+02 -0.18557752062E+02  0.53281005076E+02  0.47000000000E+01 0. -1.
         11    1    4    4    0    0 -0.45142257640E+02 -0.23603511707E+02 -0.60006690427E+02  0.78713099836E+02  0.00000000000E+00 0. -1.
        -12    1    4    4    0    0  0.29796464879E+02 -0.25401131522E+02 -0.58763508352E+01  0.39592654635E+02  0.00000000000E+00 0.  1.
         -5    1    3    3    0  504  0.60397053039E+02  0.49280951398E+02 -0.74580129874E+02  0.10798473021E+03  0.47000000000E+01 0.  1.
<mgrwt>
<rscale>  2 0.17976793E+03</rscale>
<asrwt>0</asrwt>
<pdfrwt beam="1">  1       21 0.25119577E-01 0.18055782E+03</pdfrwt>
<pdfrwt beam="2">  1       21 0.38629334E-01 0.18055782E+03</pdfrwt>
<totfact> 0.97435429E+04</totfact>
</mgrwt>
</event>
<event>
12    1  0.2736842E-001  0.1823545E+03  0.7546771E-02  0.1165656E+00
         21   -1    0    0  502  503  0.00000000000E+00  0.00000000000E+00  0.77499997504E+03  0.77499997504E+03  0.00000000000E+00 0. -1.
         21   -1    0    0  503  504 -0.00000000000E+00 -0.00000000000E+00 -0.67837943956E+02  0.67837943956E+02  0.00000000000E+00 0. -1.
         -6    2    1    2    0  504  0.50949457976E+02 -0.25567310741E+02  0.97829918102E+02  0.20693928347E+03  0.17321558683E+03 0.  0.
        -24    2    3    3    0    0  0.24981777645E+02 -0.49736380137E+02  0.12757335931E+03  0.16040728768E+03  0.79735432596E+02 0.  0.
          6    2    1    2  502    0 -0.50949457976E+02  0.25567310741E+02  0.60933211298E+03  0.63589863552E+03  0.17271918278E+03 0.  0.
         24    2    5    5    0    0  0.20126175240E+02  0.57319997853E+02  0.31827186453E+03  0.33457134335E+03  0.83368812865E+02 0.  0.
          4    1    6    6  501    0 -0.17927197636E+02  0.36294522529E+02  0.25253250638E+03  0.25575641450E+03  0.00000000000E+00 0. -1.
         -3    1    6    6    0  501  0.38053372876E+02  0.21025475324E+02  0.65739358148E+02  0.78814928850E+02  0.00000000000E+00 0.  1.
          5    1    5    5  502    0 -0.71075633216E+02 -0.31752687113E+02  0.29106024845E+03  0.30132729217E+03  0.47000000000E+01 0. -1.
         11    1    4    4    0    0 -0.22514129582E+02 -0.13438695437E+01  0.99763428401E+01  0.24662105195E+02  0.00000000000E+00 0. -1.
        -12    1    4    4    0    0  0.47495907227E+02 -0.48392510593E+02  0.11759701647E+03  0.13574518249E+03  0.00000000000E+00 0.  1.
         -5    1    3    3    0  504  0.25967680331E+02  0.24169069397E+02 -0.29743441212E+02  0.46531995792E+02  0.47000000000E+01 0.  1.
<mgrwt>
<rscale>  2 0.18223655E+03</rscale>
<asrwt>0</asrwt>
<pdfrwt beam="1">  1       21 0.11923076E+00 0.18235453E+03</pdfrwt>
<pdfrwt beam="2">  1       21 0.10436607E-01 0.18235453E+03</pdfrwt>
<totfact> 0.40597244E+04</totfact>
</mgrwt>
</event>
<event>
12    1  0.2736842E-001  0.1938410E+03  0.7546771E-02  0.1155084E+00
         21   -1    0    0  502  503  0.00000000000E+00  0.00000000000E+00  0.72012992793E+03  0.72012992793E+03  0.00000000000E+00 0.  1.
         21   -1    0    0  503  504 -0.00000000000E+00 -0.00000000000E+00 -0.59089476706E+02  0.59089476706E+02  0.00000000000E+00 0.  1.
         -6    2    1    2    0  504 -0.20956425832E+01  0.85719614814E+02  0.46412430794E+03  0.50290381349E+03  0.17363360366E+03 0.  0.
        -24    2    3    3    0    0  0.88555803574E+01  0.14503509121E+02  0.39072072179E+03  0.39993857929E+03  0.83662486746E+02 0.  0.
          6    2    1    2  502    0  0.20956425832E+01 -0.85719614814E+02  0.19691614329E+03  0.27631559115E+03  0.17384502968E+03 0.  0.
         24    2    5    5    0    0  0.29489885774E+02 -0.11743364394E+03  0.17609459426E+03  0.22928527001E+03  0.83078967392E+02 0.  0.
          2    1    6    6  501    0  0.39525732134E+02 -0.13194946769E+02  0.42251024818E+02  0.59342558246E+02  0.00000000000E+00 0. -1.
         -1    1    6    6    0  501 -0.10035846360E+02 -0.10423869717E+03  0.13384356944E+03  0.16994271176E+03  0.00000000000E+00 0.  1.
          5    1    5    5  502    0 -0.27394243191E+02  0.31714029121E+02  0.20821549025E+02  0.47030321144E+02  0.47000000000E+01 0. -1.
         11    1    4    4    0    0 -0.17145264929E+02 -0.25909526648E+02  0.85746194598E+02  0.91201280521E+02  0.00000000000E+00 0. -1.
        -12    1    4    4    0    0  0.26000845287E+02  0.40413035769E+02  0.30497452719E+03  0.30873729877E+03  0.00000000000E+00 0.  1.
         -5    1    3    3    0  504 -0.10951222941E+02  0.71216105693E+02  0.73403586151E+02  0.10296523420E+03  0.47000000000E+01 0.  1.
<mgrwt>
<rscale>  2 0.19379360E+03</rscale>
<asrwt>0</asrwt>
<pdfrwt beam="1">  1       21 0.11078921E+00 0.19384101E+03</pdfrwt>
<pdfrwt beam="2">  1       21 0.90906892E-02 0.19384101E+03</pdfrwt>
<totfact> 0.61575159E+04</totfact>
</mgrwt>
</event>
<event>
12    1  0.2736842E-001  0.1792864E+03  0.7546771E-02  0.1168513E+00
         21   -1    0    0  502  503  0.00000000000E+00  0.00000000000E+00  0.30539411590E+03  0.30539411590E+03  0.00000000000E+00 0. -1.
         21   -1    0    0  503  504 -0.00000000000E+00 -0.00000000000E+00 -0.27785843992E+03  0.27785843992E+03  0.00000000000E+00 0. -1.
         -6    2    1    2    0  504  0.44733271610E+02  0.73916858382E+01 -0.21610777575E+03  0.28079560828E+03  0.17345864142E+03 0.  0.
        -24    2    3    3    0    0  0.33991435896E+02  0.36188038552E+02 -0.22849840551E+03  0.24732570135E+03  0.80582190223E+02 0.  0.
          6    2    1    2  502    0 -0.44733271610E+02 -0.73916858382E+01  0.24364345174E+03  0.30245694754E+03  0.17338503664E+03 0.  0.
         24    2    5    5    0    0 -0.36104907408E+02 -0.20085524954E+02  0.40543919132E+02  0.98724052882E+02  0.79972724020E+02 0.  0.
          4    1    6    6  501    0 -0.57257152219E+02  0.41823809596E+01  0.30456490354E+02  0.64988241978E+02  0.00000000000E+00 0. -1.
         -3    1    6    6    0  501  0.21152244811E+02 -0.24267905914E+02  0.10087428778E+02  0.33735810904E+02  0.00000000000E+00 0.  1.
          5    1    5    5  502    0 -0.86283642022E+01  0.12693839116E+02  0.20309953260E+03  0.20373289465E+03  0.47000000000E+01 0. -1.
         13    1    4    4    0    0 -0.85025398633E+01  0.48693062745E+02 -0.13759489014E+03  0.14620417688E+03  0.00000000000E+00 0. -1.
        -14    1    4    4    0    0  0.42493975760E+02 -0.12505024193E+02 -0.90903515368E+02  0.10112152447E+03  0.00000000000E+00 0.  1.
         -5    1    3    3    0  504  0.10741835714E+02 -0.28796352714E+02  0.12390629761E+02  0.33469906932E+02  0.47000000000E+01 0.  1.
<mgrwt>
<rscale>  2 0.17926857E+03</rscale>
<asrwt>0</asrwt>
<pdfrwt beam="1">  1       21 0.46983710E-01 0.17928637E+03</pdfrwt>
<pdfrwt beam="2">  1       21 0.42747452E-01 0.17928637E+03</pdfrwt>
<totfact> 0.22998861E+04</totfact>
</mgrwt>
</event>
<event>
12    1  0.2736842E-001  0.1813249E+03  0.7546771E-02  0.1166971E+00
         21   -1    0    0  502  503  0.00000000000E+00  0.00000000000E+00  0.14908348630E+03  0.14908348630E+03  0.00000000000E+00 0. -1.
         21   -1    0    0  503  504 -0.00000000000E+00 -0.00000000000E+00 -0.25863218304E+03  0.25863218304E+03  0.00000000000E+00 0. -1.
         -6    2    1    2    0  504  0.43765292585E+02  0.26938013293E+02 -0.13551144373E+03  0.22636710686E+03  0.17388978778E+03 0.  0.
        -24    2    3    3    0    0  0.86494381306E+02  0.54865189199E+02 -0.10827022849E+03  0.16831647392E+03  0.78208222292E+02 0.  0.
          6    2    1    2  502    0 -0.43765292585E+02 -0.26938013293E+02  0.25962746989E+02  0.18134856248E+03  0.17196563461E+03 0.  0.
         24    2    5    5    0    0  0.23518986475E+02  0.25427086747E+02  0.38840299892E+02  0.94993485738E+02  0.79470208076E+02 0.  0.
          4    1    6    6  501    0 -0.13835276243E+02  0.26297333366E+02  0.48063831541E+02  0.56507490772E+02  0.00000000000E+00 0. -1.
         -3    1    6    6    0  501  0.37354262718E+02 -0.87024661934E+00 -0.92235316497E+01  0.38485994966E+02  0.00000000000E+00 0.  1.
          5    1    5    5  502    0 -0.67284279061E+02 -0.52365100039E+02 -0.12877552903E+02  0.86355076745E+02  0.47000000000E+01 0. -1.
         11    1    4    4    0    0  0.51253040233E+02  0.58187023021E+02 -0.10795584677E+03  0.13291752568E+03  0.00000000000E+00 0. -1.
        -12    1    4    4    0    0  0.35241341072E+02 -0.33218338212E+01 -0.31438171092E+00  0.35398948238E+02  0.00000000000E+00 0.  1.
         -5    1    3    3    0  504 -0.42729088720E+02 -0.27927175907E+02 -0.27241215240E+02  0.58050632940E+02  0.47000000000E+01 0.  1.
<mgrwt>
<rscale>  2 0.18086201E+03</rscale>
<asrwt>0</asrwt>
<pdfrwt beam="1">  1       21 0.22935921E-01 0.18132489E+03</pdfrwt>
<pdfrwt beam="2">  1       21 0.39789566E-01 0.18132489E+03</pdfrwt>
<totfact> 0.10907409E+05</totfact>
</mgrwt>
</event>
<event>
12    1  0.2736842E-001  0.2188885E+03  0.7546771E-02  0.1134821E+00
         21   -1    0    0  502  503  0.00000000000E+00  0.00000000000E+00  0.83448016019E+02  0.83448016019E+02  0.00000000000E+00 0. -1.
         21   -1    0    0  503  504 -0.00000000000E+00 -0.00000000000E+00 -0.67977995518E+03  0.67977995518E+03  0.00000000000E+00 0. -1.
         -6    2    1    2    0  504 -0.13805446297E+02  0.13336092519E+03 -0.44931908978E+03  0.49955213069E+03  0.17230484647E+03 0.  0.
        -24    2    3    3    0    0  0.11871439192E+02  0.83848813029E+02 -0.42072529226E+03  0.43669954955E+03  0.80778527551E+02 0.  0.
          6    2    1    2  502    0  0.13805446297E+02 -0.13336092519E+03 -0.14701284939E+03  0.26367584052E+03  0.17302151390E+03 0.  0.
         24    2    5    5    0    0 -0.56749154836E+02 -0.51920462255E+02 -0.70560923627E+02  0.13147339086E+03  0.79938773977E+02 0.  0.
          2    1    6    6  501    0 -0.37925182843E+02 -0.72442127254E+02 -0.43397088076E+02  0.92571532061E+02  0.00000000000E+00 0. -1.
         -1    1    6    6    0  501 -0.18823971992E+02  0.20521664998E+02 -0.27163835551E+02  0.38901858795E+02  0.00000000000E+00 0.  1.
          5    1    5    5  502    0  0.70554601133E+02 -0.81440462936E+02 -0.76451925758E+02  0.13220244966E+03  0.47000000000E+01 0. -1.
         13    1    4    4    0    0 -0.27701091408E+02  0.52282893936E+02 -0.30020567926E+03  0.30598088392E+03  0.00000000000E+00 0. -1.
        -14    1    4    4    0    0  0.39572530601E+02  0.31565919093E+02 -0.12051961300E+03  0.13071866563E+03  0.00000000000E+00 0.  1.
         -5    1    3    3    0  504 -0.25676885490E+02  0.49512112162E+02 -0.28593797522E+02  0.62852581139E+02  0.47000000000E+01 0.  1.
<mgrwt>
<rscale>  2 0.21874684E+03</rscale>
<asrwt>0</asrwt>
<pdfrwt beam="1">  1       21 0.12838156E-01 0.21888849E+03</pdfrwt>
<pdfrwt beam="2">  1       21 0.10458154E+00 0.21888849E+03</pdfrwt>
<totfact> 0.37815883E+04</totfact>
</mgrwt>
</event>
<event>
12    1  0.2736842E-001  0.1978002E+03  0.7546771E-02  0.1152461E+00
         21   -1    0    0  502  503  0.00000000000E+00  0.00000000000E+00  0.56996406420E+03  0.56996406420E+03  0.00000000000E+00 0.  1.
         21   -1    0    0  503  504 -0.00000000000E+00 -0.00000000000E+00 -0.78989977099E+02  0.78989977099E+02  0.00000000000E+00 0.  1.
         -6    2    1    2    0  504 -0.33601530075E+02 -0.89978992394E+02  0.12268261313E+03  0.23275726029E+03  0.17291511432E+03 0.  0.
        -24    2    3    3    0    0  0.33395522860E+02 -0.61285577953E+02  0.21282622090E+02  0.10779340425E+03  0.79342831973E+02 0.  0.
          6    2    1    2  502    0  0.33601530075E+02  0.89978992394E+02  0.36829147397E+03  0.41619678100E+03  0.16839200937E+03 0.  0.
         24    2    5    5    0    0  0.73447512979E+02  0.38789202430E+02  0.30111244833E+03  0.32269165582E+03  0.81006535570E+02 0.  0.
          2    1    6    6  501    0  0.12751631590E+02  0.50039521310E+01  0.19734143448E+03  0.19781629207E+03  0.00000000000E+00 0. -1.
         -1    1    6    6    0  501  0.60695881389E+02  0.33785250299E+02  0.10377101386E+03  0.12487536375E+03  0.00000000000E+00 0.  1.
          5    1    5    5  502    0 -0.39845982904E+02  0.51189789964E+02  0.67179025642E+02  0.93505125188E+02  0.47000000000E+01 0. -1.
         11    1    4    4    0    0  0.46436585202E+02 -0.64499704337E+02  0.36533294109E+02  0.87471423237E+02  0.00000000000E+00 0. -1.
        -12    1    4    4    0    0 -0.13041062342E+02  0.32141263841E+01 -0.15250672019E+02  0.20321981017E+02  0.00000000000E+00 0.  1.
         -5    1    3    3    0  504 -0.66997052935E+02 -0.28693414442E+02  0.10139999104E+03  0.12496385604E+03  0.47000000000E+01 0.  1.
<mgrwt>
<rscale>  2 0.19680734E+03</rscale>
<asrwt>0</asrwt>
<pdfrwt beam="1">  1       21 0.87686776E-01 0.19780020E+03</pdfrwt>
<pdfrwt beam="2">  1       21 0.12152305E-01 0.19780020E+03</pdfrwt>
<totfact> 0.63852140E+04</totfact>
</mgrwt>
</event>
<event>
12    1  0.2736842E-001  0.1892195E+03  0.7546771E-02  0.1159357E+00
         21   -1    0    0  502  503  0.00000000000E+00  0.00000000000E+00  0.17073888921E+03  0.17073888921E+03  0.00000000000E+00 0.  1.
         21   -1    0    0  503  504 -0.00000000000E+00 -0.00000000000E+00 -0.26456704227E+03  0.26456704227E+03  0.00000000000E+00 0.  1.
         -6    2    1    2    0  504 -0.20752210742E+02  0.74265098962E+02 -0.14694408653E+03  0.23957583435E+03  0.17279483980E+03 0.  0.
        -24    2    3    3    0    0 -0.61270344309E+02  0.80766583746E+02 -0.59220984573E+02  0.14261490887E+03  0.80960429082E+02 0.  0.
          6    2    1    2  502    0  0.20752210742E+02 -0.74265098962E+02  0.53115933471E+02  0.19573009713E+03  0.17188079986E+03 0.  0.
         24    2    5    5    0    0 -0.13422352849E+02  0.14621850143E+02  0.55573634098E+02  0.10035231770E+03  0.81167732523E+02 0.  0.
          2    1    6    6  501    0  0.19547308271E+02  0.27226328639E+02  0.55756390310E+02  0.65054940567E+02  0.00000000000E+00 0. -1.
         -1    1    6    6    0  501 -0.32969661120E+02 -0.12604478496E+02 -0.18275621134E+00  0.35297377131E+02  0.00000000000E+00 0.  1.
          5    1    5    5  502    0  0.34174563591E+02 -0.88886949104E+02 -0.24577006275E+01  0.95377779436E+02  0.47000000000E+01 0. -1.
         11    1    4    4    0    0 -0.92859459704E+01 -0.13299996836E+02  0.55345086408E+01  0.17139121748E+02  0.00000000000E+00 0. -1.
        -12    1    4    4    0    0 -0.51984398339E+02  0.94066580582E+02 -0.64755493214E+02  0.12547578712E+03  0.00000000000E+00 0.  1.
         -5    1    3    3    0  504  0.40518133567E+02 -0.65014847841E+01 -0.87723101957E+02  0.96960925476E+02  0.47000000000E+01 0.  1.
<mgrwt>
<rscale>  2 0.18901056E+03</rscale>
<asrwt>0</asrwt>
<pdfrwt beam="1">  1       21 0.26267522E-01 0.18921949E+03</pdfrwt>
<pdfrwt beam="2">  1       21 0.40702622E-01 0.18921949E+03</pdfrwt>
<totfact> 0.80236120E+04</totfact>
</mgrwt>
</event>
<event>
12    1  0.2736842E-001  0.2409444E+03  0.7546771E-02  0.1119560E+00
         21   -1    0    0  502  503  0.00000000000E+00  0.00000000000E+00  0.34368298966E+03  0.34368298966E+03  0.00000000000E+00 0. -1.
         21   -1    0    0  503  504 -0.00000000000E+00 -0.00000000000E+00 -0.50067621022E+03  0.50067621022E+03  0.00000000000E+00 0. -1.
         -6    2    1    2    0  504  0.85943163363E+02 -0.14090987749E+03 -0.42288284841E+03  0.48553963160E+03  0.17227016420E+03 0.  0.
        -24    2    3    3    0    0  0.75995080727E+02 -0.13903442649E+03 -0.22088226462E+03  0.28323093798E+03  0.79529650816E+02 0.  0.
          6    2    1    2  502    0 -0.85943163363E+02  0.14090987749E+03  0.26588962785E+03  0.35881956828E+03  0.17553451934E+03 0.  0.
         24    2    5    5    0    0  0.45853109534E+01  0.95640096404E+02  0.85407767629E+02  0.15183998086E+03  0.81196304712E+02 0.  0.
          4    1    6    6  501    0  0.26626803055E+02  0.49764863107E+02  0.83654910436E+02  0.10091418275E+03  0.00000000000E+00 0. -1.
         -3    1    6    6    0  501 -0.22041492101E+02  0.45875233297E+02  0.17528571929E+01  0.50925798103E+02  0.00000000000E+00 0.  1.
          5    1    5    5  502    0 -0.90528474316E+02  0.45269781089E+02  0.18048186022E+03  0.20697958743E+03  0.47000000000E+01 0. -1.
         13    1    4    4    0    0  0.89335355176E+02 -0.10465282270E+03 -0.19286008721E+03  0.23691355432E+03  0.00000000000E+00 0. -1.
        -14    1    4    4    0    0 -0.13340274449E+02 -0.34381603795E+02 -0.28022177414E+02  0.46317383658E+02  0.00000000000E+00 0.  1.
         -5    1    3    3    0  504  0.99480826360E+01 -0.18754509984E+01 -0.20200058379E+03  0.20230869362E+03  0.47000000000E+01 0.  1.
<mgrwt>
<rscale>  2 0.24035025E+03</rscale>
<asrwt>0</asrwt>
<pdfrwt beam="1">  1       21 0.52874306E-01 0.24094437E+03</pdfrwt>
<pdfrwt beam="2">  1       21 0.77027109E-01 0.24094437E+03</pdfrwt>
<totfact> 0.49031646E+03</totfact>
</mgrwt>
</event>
<event>
12    1  0.2736842E-001  0.2444682E+03  0.7546771E-02  0.1117363E+00
         21   -1    0    0  502  503  0.00000000000E+00  0.00000000000E+00  0.12835354307E+04  0.12835354307E+04  0.00000000000E+00 0.  1.
         21   -1    0    0  503  504 -0.00000000000E+00 -0.00000000000E+00 -0.54929376858E+02  0.54929376858E+02  0.00000000000E+00 0. -1.
         -6    2    1    2    0  504  0.15625142542E+03 -0.64583653650E+02  0.88788216624E+03  0.92092314097E+03  0.17657614275E+03 0.  0.
        -24    2    3    3    0    0  0.13329992938E+03 -0.10573351230E+03  0.58425909400E+03  0.61362989009E+03  0.78958889941E+02 0.  0.
          6    2    1    2  502    0 -0.15625142542E+03  0.64583653650E+02  0.34072388761E+03  0.41754166659E+03  0.17222868370E+03 0.  0.
         24    2    5    5    0    0 -0.50192529375E+02  0.90798558685E+02  0.18796266820E+03  0.22967524907E+03  0.81590974590E+02 0.  0.
          4    1    6    6  501    0  0.61126563708E+01  0.33555097146E+02  0.11824166899E+02  0.36098753929E+02  0.00000000000E+00 0. -1.
         -3    1    6    6    0  501 -0.56305185745E+02  0.57243461539E+02  0.17613850130E+03  0.19357649514E+03  0.00000000000E+00 0.  1.
          5    1    5    5  502    0 -0.10605889605E+03 -0.26214905035E+02  0.15276121941E+03  0.18786641752E+03  0.47000000000E+01 0. -1.
         11    1    4    4    0    0  0.27252919719E+02  0.87162484693E+01  0.57144170968E+02  0.63907361831E+02  0.00000000000E+00 0. -1.
        -12    1    4    4    0    0  0.10604700966E+03 -0.11444976077E+03  0.52711492303E+03  0.54972252826E+03  0.00000000000E+00 0.  1.
         -5    1    3    3    0  504  0.22951496040E+02  0.41149858653E+02  0.30362307224E+03  0.30729325088E+03  0.47000000000E+01 0.  1.
<mgrwt>
<rscale>  2 0.24368407E+03</rscale>
<asrwt>0</asrwt>
<pdfrwt beam="1">  1       21 0.19746697E+00 0.24446818E+03</pdfrwt>
<pdfrwt beam="2">  1       21 0.84506744E-02 0.24446818E+03</pdfrwt>
<totfact> 0.14646125E+04</totfact>
</mgrwt>
</event>
<event>
12    1  0.2736842E-001  0.2143298E+03  0.7546771E-02  0.1138247E+00
         21   -1    0    0  502  503  0.00000000000E+00  0.00000000000E+00  0.64169046861E+02  0.64169046861E+02  0.00000000000E+00 0. -1.
         21   -1    0    0  503  504 -0.00000000000E+00 -0.00000000000E+00 -0.73895633327E+03  0.73895633327E+03  0.00000000000E+00 0.  1.
         -6    2    1    2    0  504  0.12648051164E+03 -0.44947434941E+01 -0.40979942002E+03  0.46230894088E+03  0.17255859767E+03 0.  0.
        -24    2    3    3    0    0  0.70398507673E+02 -0.43891114988E+02 -0.13097962939E+03  0.17515074249E+03  0.81484596238E+02 0.  0.
          6    2    1    2  502    0 -0.12648051164E+03  0.44947434941E+01 -0.26498786639E+03  0.34081643925E+03  0.17297327361E+03 0.  0.
         24    2    5    5    0    0 -0.58875178247E+02  0.38988226652E+02 -0.75255787094E+02  0.13641332430E+03  0.89212068273E+02 0.  0.
          4    1    6    6  501    0 -0.58708834376E+02  0.30201264776E+02 -0.56587699597E+01  0.66263604680E+02  0.00000000000E+00 0. -1.
         -3    1    6    6    0  501 -0.16634387166E+00  0.87869618766E+01 -0.69597017135E+02  0.70149719624E+02  0.00000000000E+00 0.  1.
          5    1    5    5  502    0 -0.67605333392E+02 -0.34493483158E+02 -0.18973207930E+03  0.20440311494E+03  0.47000000000E+01 0. -1.
         13    1    4    4    0    0  0.21173776787E+02  0.22554574229E+02 -0.53671598078E+02  0.61948995814E+02  0.00000000000E+00 0. -1.
        -14    1    4    4    0    0  0.49224730886E+02 -0.66445689217E+02 -0.77308031308E+02  0.11320174668E+03  0.00000000000E+00 0.  1.
         -5    1    3    3    0  504  0.56082003966E+02  0.39396371494E+02 -0.27881979063E+03  0.28715819839E+03  0.47000000000E+01 0.  1.
<mgrwt>
<rscale>  2 0.21424615E+03</rscale>
<asrwt>0</asrwt>
<pdfrwt beam="1">  1       21 0.98721614E-02 0.21432983E+03</pdfrwt>
<pdfrwt beam="2">  1       21 0.11368559E+00 0.21432983E+03</pdfrwt>
<totfact> 0.49489417E+04</totfact>
</mgrwt>
</event>
<event>
12    1  0.2736842E-001  0.2036550E+03  0.7546771E-02  0.1146745E+00
         21   -1    0    0  502  503  0.00000000000E+00  0.00000000000E+00  0.52460621210E+02  0.52460621210E+02  0.00000000000E+00 0.  1.
         21   -1    0    0  503  504 -0.00000000000E+00 -0.00000000000E+00 -0.81055104617E+03  0.81055104617E+03  0.00000000000E+00 0.  1.
         -6    2    1    2    0  504 -0.56185699607E+02 -0.89829068997E+02 -0.44867320464E+03  0.49273013748E+03  0.17392311331E+03 0.  0.
        -24    2    3    3    0    0  0.13267759844E+02  0.16606445509E+00 -0.24452684934E+03  0.25901935155E+03  0.84389474486E+02 0.  0.
          6    2    1    2  502    0  0.56185699607E+02  0.89829068997E+02 -0.30941722032E+03  0.37028152990E+03  0.17361826136E+03 0.  0.
         24    2    5    5    0    0  0.36777313421E+02  0.27000156496E+01 -0.23128680688E+03  0.25156081184E+03  0.91811732105E+02 0.  0.
          4    1    6    6  501    0  0.40680061861E+01 -0.25261449995E+02 -0.19069775665E+03  0.19240666288E+03  0.00000000000E+00 0. -1.
         -3    1    6    6    0  501  0.32709307235E+02  0.27961465645E+02 -0.40589050227E+02  0.59154148960E+02  0.00000000000E+00 0.  1.
          5    1    5    5  502    0  0.19408386186E+02  0.87129053347E+02 -0.78130413445E+02  0.11872071806E+03  0.47000000000E+01 0. -1.
         13    1    4    4    0    0  0.11185524374E+02 -0.35492441316E+02 -0.19151248283E+03  0.19509449102E+03  0.00000000000E+00 0. -1.
        -14    1    4    4    0    0  0.20822354702E+01  0.35658505771E+02 -0.53014366509E+02  0.63924860537E+02  0.00000000000E+00 0.  1.
         -5    1    3    3    0  504 -0.69453459451E+02 -0.89995133452E+02 -0.20414635530E+03  0.23371078593E+03  0.47000000000E+01 0.  1.
<mgrwt>
<rscale>  2 0.20358986E+03</rscale>
<asrwt>0</asrwt>
<pdfrwt beam="1">  1       21 0.80708650E-02 0.20365496E+03</pdfrwt>
<pdfrwt beam="2">  1       21 0.12470016E+00 0.20365496E+03</pdfrwt>
<totfact> 0.56386438E+04</totfact>
</mgrwt>
</event>
<event>
12    1  0.2736842E-001  0.2185997E+03  0.7546771E-02  0.1134988E+00
         21   -1    0    0  502  503  0.00000000000E+00  0.00000000000E+00  0.33929187431E+03  0.33929187431E+03  0.00000000000E+00 0. -1.
         21   -1    0    0  503  504 -0.00000000000E+00 -0.00000000000E+00 -0.17867167890E+03  0.17867167890E+03  0.00000000000E+00 0.  1.
         -6    2    1    2    0  504 -0.40680448995E+02  0.12579020720E+03 -0.39209958557E+02  0.22179142681E+03  0.17371223618E+03 0.  0.
        -24    2    3    3    0    0  0.23164482361E+01  0.14797020323E+03 -0.23638443165E+02  0.17074980177E+03  0.81830140119E+02 0.  0.
          6    2    1    2  502    0  0.40680448995E+02 -0.12579020720E+03  0.19983015397E+03  0.29617212641E+03  0.17409124869E+03 0.  0.
         24    2    5    5    0    0  0.55261031773E+02 -0.93071892793E+02  0.21670060895E+03  0.25630003412E+03  0.83751983327E+02 0.  0.
          4    1    6    6  501    0  0.36138306161E+01 -0.84301412796E+02  0.12903894536E+03  0.15417794067E+03  0.00000000000E+00 0. -1.
         -3    1    6    6    0  501  0.51647201157E+02 -0.87704799964E+01  0.87661663591E+02  0.10212209345E+03  0.00000000000E+00 0.  1.
          5    1    5    5  502    0 -0.14580582778E+02 -0.32718314411E+02 -0.16870454984E+02  0.39872092287E+02  0.47000000000E+01 0. -1.
         13    1    4    4    0    0 -0.31663587442E+02  0.77702065547E+02  0.12331928426E+02  0.84807253337E+02  0.00000000000E+00 0. -1.
        -14    1    4    4    0    0  0.33980035678E+02  0.70268137683E+02 -0.35970371591E+02  0.85942548430E+02  0.00000000000E+00 0.  1.
         -5    1    3    3    0  504 -0.42996897232E+02 -0.22179996027E+02 -0.15571515392E+02  0.51041625042E+02  0.47000000000E+01 0.  1.
<mgrwt>
<rscale>  2 0.21852425E+03</rscale>
<asrwt>0</asrwt>
<pdfrwt beam="1">  1       21 0.52198750E-01 0.21859972E+03</pdfrwt>
<pdfrwt beam="2">  1       21 0.27487951E-01 0.21859972E+03</pdfrwt>
<totfact> 0.43409231E+04</totfact>
</mgrwt>
</event>
<event>
12    1  0.2736842E-001  0.1954298E+03  0.7546771E-02  0.1154332E+00
         21   -1    0    0  502  503  0.00000000000E+00  0.00000000000E+00  0.21740298455E+02  0.21740298455E+02  0.00000000000E+00 0.  1.
         21   -1    0    0  503  504 -0.00000000000E+00 -0.00000000000E+00 -0.23958742994E+04  0.23958742994E+04  0.00000000000E+00 0.  1.
         -6    2    1    2    0  504  0.56840237815E+02  0.56955960587E+02 -0.18179296792E+04  0.18280757566E+04  0.17469361553E+03 0.  0.
        -24    2    3    3    0    0  0.80432737195E+02 -0.34149232806E+01 -0.80184996361E+03  0.80991990996E+03  0.80782482539E+02 0.  0.
          6    2    1    2  502    0 -0.56840237815E+02 -0.56955960587E+02 -0.55620432169E+03  0.58953884119E+03  0.17809549047E+03 0.  0.
         24    2    5    5    0    0 -0.28987062929E+02 -0.78054362239E+02 -0.19621691997E+03  0.22782906624E+03  0.80450422349E+02 0.  0.
          2    1    6    6  501    0 -0.16147654193E+02  0.63876854398E+01 -0.44883147488E+01  0.17935836487E+02  0.00000000000E+00 0. -1.
         -1    1    6    6    0  501 -0.12839408736E+02 -0.84442047678E+02 -0.19172860522E+03  0.20989322975E+03  0.00000000000E+00 0.  1.
          5    1    5    5  502    0 -0.27853174887E+02  0.21098401651E+02 -0.35998740171E+03  0.36170977495E+03  0.47000000000E+01 0. -1.
         11    1    4    4    0    0 -0.16448727715E+02  0.34888773667E+01 -0.13124828963E+03  0.13232099773E+03  0.00000000000E+00 0. -1.
        -12    1    4    4    0    0  0.96881464910E+02 -0.69038006473E+01 -0.67060167398E+03  0.67759891223E+03  0.00000000000E+00 0.  1.
         -5    1    3    3    0  504 -0.23592499380E+02  0.60370883868E+02 -0.10160797156E+04  0.10181558467E+04  0.47000000000E+01 0.  1.
<mgrwt>
<rscale>  2 0.19465138E+03</rscale>
<asrwt>0</asrwt>
<pdfrwt beam="1">  1       21 0.33446630E-02 0.19542978E+03</pdfrwt>
<pdfrwt beam="2">  1       21 0.36859586E+00 0.19542978E+03</pdfrwt>
<totfact> 0.71341890E+03</totfact>
</mgrwt>
</event>
<event>
12    1  0.2736842E-001  0.2146465E+03  0.7546771E-02  0.1138592E+00
         21   -1    0    0  502  503  0.00000000000E+00  0.00000000000E+00  0.11158786692E+03  0.11158786692E+03  0.00000000000E+00 0. -1.
         21   -1    0    0  503  504 -0.00000000000E+00 -0.00000000000E+00 -0.61770042326E+03  0.61770042326E+03  0.00000000000E+00 0. -1.
         -6    2    1    2    0  504 -0.35923158806E+02 -0.11370642780E+03 -0.46762409723E+03  0.51453418275E+03  0.17847549931E+03 0.  0.
        -24    2    3    3    0    0 -0.26098252224E+02 -0.10973382891E+03 -0.47860301810E+03  0.49856743497E+03  0.82377219520E+02 0.  0.
          6    2    1    2  502    0  0.35923158806E+02  0.11370642780E+03 -0.38488459122E+02  0.21475410742E+03  0.17440854368E+03 0.  0.
         24    2    5    5    0    0  0.52545816473E+01 -0.17043103466E+01  0.14498745938E+02  0.84025633084E+02  0.82580736732E+02 0.  0.
          4    1    6    6  501    0 -0.23458118926E+02  0.12443471467E+02 -0.22711736529E+02  0.34942042039E+02  0.00000000000E+00 0. -1.
         -3    1    6    6    0  501  0.28712700573E+02 -0.14147781813E+02  0.37210482467E+02  0.49083591045E+02  0.00000000000E+00 0.  1.
          5    1    5    5  502    0  0.30668577159E+02  0.11541073814E+03 -0.52987205060E+02  0.13072847434E+03  0.47000000000E+01 0. -1.
         11    1    4    4    0    0 -0.39203993172E+02 -0.33655907624E+02 -0.29346881226E+03  0.29798257829E+03  0.00000000000E+00 0. -1.
        -12    1    4    4    0    0  0.13105740949E+02 -0.76077921281E+02 -0.18513420585E+03  0.20058485668E+03  0.00000000000E+00 0.  1.
         -5    1    3    3    0  504 -0.98249065823E+01 -0.39725988903E+01  0.10978920877E+02  0.15966747788E+02  0.47000000000E+01 0.  1.
<mgrwt>
<rscale>  2 0.21379913E+03</rscale>
<asrwt>0</asrwt>
<pdfrwt beam="1">  1       21 0.17167364E-01 0.21464652E+03</pdfrwt>
<pdfrwt beam="2">  1       21 0.95030836E-01 0.21464652E+03</pdfrwt>
<totfact> 0.28010114E+04</totfact>
</mgrwt>
</event>
<event>
12    1  0.2736842E-001  0.2079300E+03  0.7546771E-02  0.1144763E+00
         21   -1    0    0  502  503  0.00000000000E+00  0.00000000000E+00  0.79401031953E+03  0.79401031953E+03  0.00000000000E+00 0. -1.
         21   -1    0    0  503  504 -0.00000000000E+00 -0.00000000000E+00 -0.29929138488E+03  0.29929138488E+03  0.00000000000E+00 0. -1.
         -6    2    1    2    0  504 -0.11437180374E+03 -0.17730535526E+02 -0.24983691456E+03  0.32025687494E+03  0.16355641439E+03 0.  0.
        -24    2    3    3    0    0 -0.55763765066E+02  0.50166494626E+02 -0.13155553089E+03  0.17173925099E+03  0.81001468784E+02 0.  0.
          6    2    1    2  502    0  0.11437180374E+03  0.17730535526E+02  0.74455584921E+03  0.77304482947E+03  0.17274146695E+03 0.  0.
         24    2    5    5    0    0  0.30736021985E+02  0.21214866244E+02  0.60749180644E+03  0.61237209884E+03  0.67516804908E+02 0.  0.
          2    1    6    6  501    0  0.34846131970E+02  0.27921689176E+01  0.13338951486E+03  0.13789420508E+03  0.00000000000E+00 0. -1.
         -1    1    6    6    0  501 -0.41101099846E+01  0.18422697326E+02  0.47410229159E+03  0.47447789376E+03  0.00000000000E+00 0.  1.
          5    1    5    5  502    0  0.83635781750E+02 -0.34843307180E+01  0.13706404277E+03  0.16067273063E+03  0.47000000000E+01 0. -1.
         13    1    4    4    0    0 -0.31648476032E+02  0.70359185015E+00 -0.10681101263E+03  0.11140338189E+03  0.00000000000E+00 0. -1.
        -14    1    4    4    0    0 -0.24115289033E+02  0.49462902776E+02 -0.24744518255E+02  0.60335869098E+02  0.00000000000E+00 0.  1.
         -5    1    3    3    0  504 -0.58608038670E+02 -0.67897030152E+02 -0.11828138367E+03  0.14851762395E+03  0.47000000000E+01 0.  1.
<mgrwt>
<rscale>  2 0.20601231E+03</rscale>
<asrwt>0</asrwt>
<pdfrwt beam="1">  1       21 0.12215543E+00 0.20793003E+03</pdfrwt>
<pdfrwt beam="2">  1       21 0.46044829E-01 0.20793003E+03</pdfrwt>
<totfact> 0.22526723E+03</totfact>
</mgrwt>
</event>
<event>
12    1  0.2736842E-001  0.1787642E+03  0.7546771E-02  0.1169242E+00
         21   -1    0    0  502  503  0.00000000000E+00  0.00000000000E+00  0.25065733339E+02  0.25065733339E+02  0.00000000000E+00 0. -1.
         21   -1    0    0  503  504 -0.00000000000E+00 -0.00000000000E+00 -0.15042355816E+04  0.15042355816E+04  0.00000000000E+00 0. -1.
         -6    2    1    2    0  504 -0.23296942342E+02  0.35846919056E+02 -0.10409074183E+04  0.10559826113E+04  0.17257830935E+03 0.  0.
        -24    2    3    3    0    0  0.47375241963E+02  0.24696301342E+02 -0.76785902353E+03  0.77367708572E+03  0.78194834245E+02 0.  0.
          6    2    1    2  502    0  0.23296942342E+02 -0.35846919056E+02 -0.43826242999E+03  0.47331870363E+03  0.17357675113E+03 0.  0.
         24    2    5    5    0    0  0.54269099504E+02 -0.58526913788E+02 -0.40983903374E+03  0.42532249404E+03  0.80997873810E+02 0.  0.
          2    1    6    6  501    0  0.20841936937E+02  0.33508822912E+01 -0.19630170506E+02  0.28826348043E+02  0.00000000000E+00 0. -1.
         -1    1    6    6    0  501  0.33427162567E+02 -0.61877796079E+02 -0.39020886323E+03  0.39649614600E+03  0.00000000000E+00 0.  1.
          5    1    5    5  502    0 -0.30972157162E+02  0.22679994731E+02 -0.28423396256E+02  0.47996209590E+02  0.47000000000E+01 0. -1.
         13    1    4    4    0    0  0.32568333644E+02 -0.25259561014E+02 -0.40588072432E+03  0.40796801854E+03  0.00000000000E+00 0. -1.
        -14    1    4    4    0    0  0.14806908319E+02  0.49955862356E+02 -0.36197829921E+03  0.36570906718E+03  0.00000000000E+00 0.  1.
         -5    1    3    3    0  504 -0.70672184305E+02  0.11150617714E+02 -0.27304839477E+03  0.28230552562E+03  0.47000000000E+01 0.  1.
<mgrwt>
<rscale>  2 0.17852137E+03</rscale>
<asrwt>0</asrwt>
<pdfrwt beam="1">  1       21 0.38562650E-02 0.17876420E+03</pdfrwt>
<pdfrwt beam="2">  1       21 0.23142096E+00 0.17876420E+03</pdfrwt>
<totfact> 0.36111517E+04</totfact>
</mgrwt>
</event>
<event>
12    1  0.2736842E-001  0.1879103E+03  0.7546771E-02  0.1160451E+00
         21   -1    0    0  502  503  0.00000000000E+00  0.00000000000E+00  0.14176524774E+03  0.14176524774E+03  0.00000000000E+00 0. -1.
         21   -1    0    0  503  504 -0.00000000000E+00 -0.00000000000E+00 -0.28322836346E+03  0.28322836346E+03  0.00000000000E+00 0. -1.
         -6    2    1    2    0  504 -0.33504157915E+02 -0.63282183598E+02  0.36904529361E+01  0.18754925378E+03  0.17330302881E+03 0.  0.
        -24    2    3    3    0    0 -0.63345427802E+02 -0.98209325230E+02  0.23799586638E+00  0.14124141351E+03  0.79318128210E+02 0.  0.
          6    2    1    2  502    0  0.33504157915E+02  0.63282183598E+02 -0.14515356866E+03  0.23744435742E+03  0.17373284380E+03 0.  0.
         24    2    5    5    0    0 -0.16659585480E+02 -0.86758789292E+01 -0.19545804664E+02  0.84167600242E+02  0.79682706951E+02 0.  0.
          2    1    6    6  501    0 -0.24342634994E+02  0.27422345960E+01  0.26512553151E+02  0.36097080265E+02  0.00000000000E+00 0. -1.
         -1    1    6    6    0  501  0.76830495142E+01 -0.11418113525E+02 -0.46058357815E+02  0.48070519978E+02  0.00000000000E+00 0.  1.
          5    1    5    5  502    0  0.50163743395E+02  0.71958062527E+02 -0.12560776399E+03  0.15327675717E+03  0.47000000000E+01 0. -1.
         13    1    4    4    0    0 -0.30955741463E+02 -0.53058497462E+02  0.39652729485E+02  0.73114985044E+02  0.00000000000E+00 0. -1.
        -14    1    4    4    0    0 -0.32389686339E+02 -0.45150827768E+02 -0.39414733618E+02  0.68126428466E+02  0.00000000000E+00 0.  1.
         -5    1    3    3    0  504  0.29841269886E+02  0.34927141632E+02  0.34524570697E+01  0.46307840274E+02  0.47000000000E+01 0.  1.
<mgrwt>
<rscale>  2 0.18781085E+03</rscale>
<asrwt>0</asrwt>
<pdfrwt beam="1">  1       21 0.21810038E-01 0.18791026E+03</pdfrwt>
<pdfrwt beam="2">  1       21 0.43573594E-01 0.18791026E+03</pdfrwt>
<totfact> 0.99499530E+04</totfact>
</mgrwt>
</event>
<event>
12    1  0.2736842E-001  0.2529989E+03  0.7546771E-02  0.1111450E+00
         21   -1    0    0  502  503  0.00000000000E+00  0.00000000000E+00  0.29733838668E+03  0.29733838668E+03  0.00000000000E+00 0.  1.
         21   -1    0    0  503  504 -0.00000000000E+00 -0.00000000000E+00 -0.28091917875E+03  0.28091917875E+03  0.00000000000E+00 0.  1.
         -6    2    1    2    0  504 -0.50583467957E+02 -0.17730294405E+03 -0.13171044948E+03  0.28522984388E+03  0.17324375930E+03 0.  0.
        -24    2    3    3    0    0 -0.58386589615E+02 -0.42227123246E+02 -0.23069302424E+02  0.11164598833E+03  0.82100610299E+02 0.  0.
          6    2    1    2  502    0  0.50583467957E+02  0.17730294405E+03  0.14812965741E+03  0.29302772156E+03  0.17299661556E+03 0.  0.
         24    2    5    5    0    0  0.24407904319E+02  0.84859168705E+02 -0.12879508872E+01  0.11532368839E+03  0.74169198326E+02 0.  0.
          4    1    6    6  501    0  0.10339924966E+02  0.89945435592E+01 -0.30011647544E+02  0.32992648430E+02  0.00000000000E+00 0. -1.
         -3    1    6    6    0  501  0.14067979353E+02  0.75864625146E+02  0.28723696657E+02  0.82331039962E+02  0.00000000000E+00 0.  1.
          5    1    5    5  502    0  0.26175563638E+02  0.92443775346E+02  0.14941760830E+03  0.17770403316E+03  0.47000000000E+01 0. -1.
         13    1    4    4    0    0  0.91259176099E+01 -0.25341275776E+02  0.16504344116E+02  0.31588858873E+02  0.00000000000E+00 0. -1.
        -14    1    4    4    0    0 -0.67512507225E+02 -0.16885847470E+02 -0.39573646540E+02  0.80057129458E+02  0.00000000000E+00 0.  1.
         -5    1    3    3    0  504  0.78031216580E+01 -0.13507582080E+03 -0.10864114706E+03  0.17358385555E+03  0.47000000000E+01 0.  1.
<mgrwt>
<rscale>  2 0.25295655E+03</rscale>
<asrwt>0</asrwt>
<pdfrwt beam="1">  1       21 0.45744367E-01 0.25299886E+03</pdfrwt>
<pdfrwt beam="2">  1       21 0.43218335E-01 0.25299886E+03</pdfrwt>
<totfact> 0.22844896E+04</totfact>
</mgrwt>
</event>
<event>
12    1  0.2736842E-001  0.1742237E+03  0.7546771E-02  0.1173983E+00
         21   -1    0    0  502  503  0.00000000000E+00  0.00000000000E+00  0.13376568071E+03  0.13376568071E+03  0.00000000000E+00 0.  1.
         21   -1    0    0  503  504 -0.00000000000E+00 -0.00000000000E+00 -0.22453209581E+03  0.22453209581E+03  0.00000000000E+00 0.  1.
         -6    2    1    2    0  504 -0.47217151053E+01  0.43769225156E+01 -0.43744713152E+02  0.17784021196E+03  0.17225588238E+03 0.  0.
        -24    2    3    3    0    0 -0.50689663959E+02 -0.26470746297E+02 -0.63198773556E+02  0.11897442003E+03  0.83010151188E+02 0.  0.
          6    2    1    2  502    0  0.47217151053E+01 -0.43769225156E+01 -0.47021701953E+02  0.18045756456E+03  0.17410468147E+03 0.  0.
         24    2    5    5    0    0  0.51964299771E+02  0.42262369932E+02 -0.46697649173E+02  0.11390472528E+03  0.79418005770E+02 0.  0.
          4    1    6    6  501    0  0.36432917866E+02  0.39859926892E+02  0.10130360695E+02  0.54943566356E+02  0.00000000000E+00 0. -1.
         -3    1    6    6    0  501  0.15531381905E+02  0.24024430401E+01 -0.56828009868E+02  0.58961158926E+02  0.00000000000E+00 0.  1.
          5    1    5    5  502    0 -0.47242584665E+02 -0.46639292448E+02 -0.32405278063E+00  0.66552839279E+02  0.47000000000E+01 0. -1.
         13    1    4    4    0    0 -0.31951173766E+02  0.12890547437E+02 -0.66872166753E+02  0.75225862604E+02  0.00000000000E+00 0. -1.
        -14    1    4    4    0    0 -0.18738490194E+02 -0.39361293734E+02  0.36733931979E+01  0.43748557424E+02  0.00000000000E+00 0.  1.
         -5    1    3    3    0  504  0.45967948854E+02  0.30847668813E+02  0.19454060403E+02  0.58865791927E+02  0.47000000000E+01 0.  1.
<mgrwt>
<rscale>  2 0.17375996E+03</rscale>
<asrwt>0</asrwt>
<pdfrwt beam="1">  1       21 0.20579336E-01 0.17422368E+03</pdfrwt>
<pdfrwt beam="2">  1       21 0.34543399E-01 0.17422368E+03</pdfrwt>
<totfact> 0.17773171E+05</totfact>
</mgrwt>
</event>
<event>
12    1  0.2736842E-001  0.1968183E+03  0.7546771E-02  0.1153421E+00
         21   -1    0    0  502  503  0.00000000000E+00  0.00000000000E+00  0.30058180507E+03  0.30058180507E+03  0.00000000000E+00 0. -1.
         21   -1    0    0  503  504 -0.00000000000E+00 -0.00000000000E+00 -0.43683605134E+03  0.43683605134E+03  0.00000000000E+00 0. -1.
         -6    2    1    2    0  504  0.30213841248E+01 -0.85505528173E+02 -0.37937642499E+03  0.42739197909E+03  0.17724871746E+03 0.  0.
        -24    2    3    3    0    0  0.35955465962E+02  0.80332618276E+01 -0.24457031942E+03  0.25997353602E+03  0.80089134477E+02 0.  0.
          6    2    1    2  502    0 -0.30213841248E+01  0.85505528173E+02  0.24312217873E+03  0.31002587732E+03  0.17230010651E+03 0.  0.
         24    2    5    5    0    0 -0.56710090554E+01 -0.23423471381E+02  0.10254599772E+03  0.13210370297E+03  0.79717547222E+02 0.  0.
          4    1    6    6  501    0 -0.35658697835E+02 -0.12407412598E+02  0.90325943764E+02  0.97899247880E+02  0.00000000000E+00 0. -1.
         -3    1    6    6    0  501  0.29987688779E+02 -0.11016058782E+02  0.12220053956E+02  0.34204455092E+02  0.00000000000E+00 0.  1.
          5    1    5    5  502    0  0.26496249306E+01  0.10892899955E+03  0.14057618101E+03  0.17792217434E+03  0.47000000000E+01 0. -1.
         13    1    4    4    0    0  0.48595461762E+02 -0.13499934902E+02 -0.88032253637E+02  0.10145661549E+03  0.00000000000E+00 0. -1.
        -14    1    4    4    0    0 -0.12639995800E+02  0.21533196729E+02 -0.15653806579E+03  0.15851692053E+03  0.00000000000E+00 0.  1.
         -5    1    3    3    0  504 -0.32934081837E+02 -0.93538790000E+02 -0.13480610557E+03  0.16741844307E+03  0.47000000000E+01 0.  1.
<mgrwt>
<rscale>  2 0.19569760E+03</rscale>
<asrwt>0</asrwt>
<pdfrwt beam="1">  1       21 0.46243355E-01 0.19681827E+03</pdfrwt>
<pdfrwt beam="2">  1       21 0.67205546E-01 0.19681827E+03</pdfrwt>
<totfact> 0.90522256E+03</totfact>
</mgrwt>
</event>
<event>
12    1  0.2736842E-001  0.1887832E+03  0.7546771E-02  0.1159818E+00
         21   -1    0    0  502  503  0.00000000000E+00  0.00000000000E+00  0.14372578131E+03  0.14372578131E+03  0.00000000000E+00 0.  1.
         21   -1    0    0  503  504 -0.00000000000E+00 -0.00000000000E+00 -0.24678521750E+03  0.24678521750E+03  0.00000000000E+00 0.  1.
         -6    2    1    2    0  504 -0.31040474470E+01  0.75840993949E+02 -0.44778862272E+02  0.19293644739E+03  0.17163284870E+03 0.  0.
        -24    2    3    3    0    0 -0.25529698024E+02 -0.37217967136E+01  0.19881164145E+02  0.87883334740E+02  0.81624766984E+02 0.  0.
          6    2    1    2  502    0  0.31040474470E+01 -0.75840993949E+02 -0.58280573921E+02  0.19757455142E+03  0.17285134249E+03 0.  0.
         24    2    5    5    0    0 -0.51453896664E+02 -0.22061338012E+02  0.61840330484E+01  0.97341841143E+02  0.79391344966E+02 0.  0.
          2    1    6    6  501    0 -0.18437497903E+02  0.24698212458E+02  0.22104259735E+02  0.37928107334E+02  0.00000000000E+00 0. -1.
         -1    1    6    6    0  501 -0.33016398761E+02 -0.46759550470E+02 -0.15920226687E+02  0.59413733808E+02  0.00000000000E+00 0.  1.
          5    1    5    5  502    0  0.54557944111E+02 -0.53779655937E+02 -0.64464606969E+02  0.10023271028E+03  0.47000000000E+01 0. -1.
         11    1    4    4    0    0  0.21460607218E+02 -0.24646705297E+02  0.15753338135E+02  0.36279269653E+02  0.00000000000E+00 0. -1.
        -12    1    4    4    0    0 -0.46990305242E+02  0.20924908583E+02  0.41278260104E+01  0.51604065087E+02  0.00000000000E+00 0.  1.
         -5    1    3    3    0  504  0.22425650577E+02  0.79562790663E+02 -0.64660026418E+02  0.10505311265E+03  0.47000000000E+01 0.  1.
<mgrwt>
<rscale>  2 0.18850378E+03</rscale>
<asrwt>0</asrwt>
<pdfrwt beam="1">  1       21 0.22111659E-01 0.18878315E+03</pdfrwt>
<pdfrwt beam="2">  1       21 0.37966956E-01 0.18878315E+03</pdfrwt>
<totfact> 0.12808769E+05</totfact>
</mgrwt>
</event>
<event>
12    1  0.2736842E-001  0.3411564E+03  0.7546771E-02  0.1066331E+00
         21   -1    0    0  502  503  0.00000000000E+00  0.00000000000E+00  0.84647291952E+03  0.84647291952E+03  0.00000000000E+00 0.  1.
         21   -1    0    0  503  504 -0.00000000000E+00 -0.00000000000E+00 -0.14023325331E+03  0.14023325331E+03  0.00000000000E+00 0. -1.
         -6    2    1    2    0  504 -0.14867654025E+03  0.25301031725E+03  0.28284808714E+03  0.44297083297E+03  0.17349692854E+03 0.  0.
        -24    2    3    3    0    0 -0.42157810438E+02  0.20416575815E+03  0.18732758150E+03  0.29171512977E+03  0.80902140669E+02 0.  0.
          6    2    1    2  502    0  0.14867654025E+03 -0.25301031725E+03  0.42339157908E+03  0.54373533986E+03  0.17397918357E+03 0.  0.
         24    2    5    5    0    0  0.94271874431E+02 -0.62879603776E+02  0.13520881444E+03  0.19419142029E+03  0.81165592049E+02 0.  0.
          4    1    6    6  501    0  0.50728445324E+02 -0.28588668519E+02  0.12491301878E+03  0.13781853791E+03  0.00000000000E+00 0. -1.
         -3    1    6    6    0  501  0.43543429108E+02 -0.34290935257E+02  0.10295795663E+02  0.56372882378E+02  0.00000000000E+00 0.  1.
          5    1    5    5  502    0  0.54404665818E+02 -0.19013071347E+03  0.28818276464E+03  0.34954391957E+03  0.47000000000E+01 0. -1.
         11    1    4    4    0    0  0.17066542608E+02  0.43632056534E+02  0.70044542791E+02  0.84268981297E+02  0.00000000000E+00 0. -1.
        -12    1    4    4    0    0 -0.59224353046E+02  0.16053370161E+03  0.11728303871E+03  0.20744614847E+03  0.00000000000E+00 0.  1.
         -5    1    3    3    0  504 -0.10651872981E+03  0.48844559103E+02  0.95520505633E+02  0.15125570320E+03  0.47000000000E+01 0.  1.
<mgrwt>
<rscale>  2 0.34109496E+03</rscale>
<asrwt>0</asrwt>
<pdfrwt beam="1">  1       21 0.13022660E+00 0.34115640E+03</pdfrwt>
<pdfrwt beam="2">  1       21 0.21574347E-01 0.34115640E+03</pdfrwt>
<totfact> 0.79121602E+03</totfact>
</mgrwt>
</event>
<event>
12    1  0.2736842E-001  0.2524347E+03  0.7546771E-02  0.1111894E+00
         21   -1    0    0  502  503  0.00000000000E+00  0.00000000000E+00  0.42003536032E+03  0.42003536032E+03  0.00000000000E+00 0. -1.
         21   -1    0    0  503  504 -0.00000000000E+00 -0.00000000000E+00 -0.21811158101E+03  0.21811158101E+03  0.00000000000E+00 0.  1.
         -6    2    1    2    0  504 -0.18150870774E+03 -0.29350851590E+02 -0.75587457967E+02  0.26350853996E+03  0.17296358968E+03 0.  0.
        -24    2    3    3    0    0 -0.92000001813E+02 -0.81641306890E+02 -0.28112639783E+02  0.14939434928E+03  0.79994048259E+02 0.  0.
          6    2    1    2  502    0  0.18150870774E+03  0.29350851590E+02  0.27751123728E+03  0.37463840137E+03  0.17185622330E+03 0.  0.
         24    2    5    5    0    0  0.64571400782E+02  0.41767178237E+02  0.21377194146E+03  0.24079787403E+03  0.79819860966E+02 0.  0.
          2    1    6    6  501    0  0.79694096748E+02  0.37906353158E+02  0.20428812487E+03  0.22253466838E+03  0.00000000000E+00 0. -1.
         -1    1    6    6    0  501 -0.15122695966E+02  0.38608250796E+01  0.94838165861E+01  0.18263205650E+02  0.00000000000E+00 0.  1.
          5    1    5    5  502    0  0.11693730696E+03 -0.12416326647E+02  0.63739295827E+02  0.13384052734E+03  0.47000000000E+01 0. -1.
         13    1    4    4    0    0  0.25562326691E+01 -0.30523817371E+02 -0.28596009540E+02  0.41904289923E+02  0.00000000000E+00 0. -1.
        -14    1    4    4    0    0 -0.94556234482E+02 -0.51117489520E+02  0.48336975685E+00  0.10749005936E+03  0.00000000000E+00 0.  1.
         -5    1    3    3    0  504 -0.89508705931E+02  0.52290455300E+02 -0.47474818184E+02  0.11411419068E+03  0.47000000000E+01 0.  1.
<mgrwt>
<rscale>  2 0.25224514E+03</rscale>
<asrwt>0</asrwt>
<pdfrwt beam="1">  1       21 0.64620825E-01 0.25243472E+03</pdfrwt>
<pdfrwt beam="2">  1       21 0.33555628E-01 0.25243472E+03</pdfrwt>
<totfact> 0.18267060E+04</totfact>
</mgrwt>
</event>
<event>
12    1  0.2736842E-001  0.1838936E+03  0.7546771E-02  0.1164829E+00
         21   -1    0    0  502  503  0.00000000000E+00  0.00000000000E+00  0.26401854973E+03  0.26401854973E+03  0.00000000000E+00 0.  1.
         21   -1    0    0  503  504 -0.00000000000E+00 -0.00000000000E+00 -0.12673288553E+03  0.12673288553E+03  0.00000000000E+00 0.  1.
         -6    2    1    2    0  504 -0.29343411131E+01 -0.60328950916E+02  0.84893586118E+02  0.20254324724E+03  0.17369125874E+03 0.  0.
        -24    2    3    3    0    0 -0.68230472168E+02 -0.52036267979E+02  0.44988220382E+02  0.12542722079E+03  0.79654737613E+02 0.  0.
          6    2    1    2  502    0  0.29343411131E+01  0.60328950916E+02  0.52392078084E+02  0.18820818802E+03  0.17037957482E+03 0.  0.
         24    2    5    5    0    0 -0.36759822763E+02 -0.24531294558E+01  0.68300309611E+02  0.11210051369E+03  0.80896788949E+02 0.  0.
          2    1    6    6  501    0 -0.22017860303E+02 -0.40549341214E+02  0.24632522082E+02  0.52304840974E+02  0.00000000000E+00 0. -1.
         -1    1    6    6    0  501 -0.14741962460E+02  0.38096211758E+02  0.43667787530E+02  0.59795672713E+02  0.00000000000E+00 0.  1.
          5    1    5    5  502    0  0.39694163876E+02  0.62782080372E+02 -0.15908231528E+02  0.76107674330E+02  0.47000000000E+01 0. -1.
         11    1    4    4    0    0  0.47430732924E+01  0.46820288904E+01 -0.14192852295E+02  0.15679770249E+02  0.00000000000E+00 0. -1.
        -12    1    4    4    0    0 -0.72973545461E+02 -0.56718296869E+02  0.59181072677E+02  0.10974745054E+03  0.00000000000E+00 0.  1.
         -5    1    3    3    0  504  0.65296131055E+02 -0.82926829370E+01  0.39905365736E+02  0.77116026451E+02  0.47000000000E+01 0.  1.
<mgrwt>
<rscale>  2 0.18310737E+03</rscale>
<asrwt>0</asrwt>
<pdfrwt beam="1">  1       21 0.40618238E-01 0.18389357E+03</pdfrwt>
<pdfrwt beam="2">  1       21 0.19497367E-01 0.18389357E+03</pdfrwt>
<totfact> 0.14175681E+05</totfact>
</mgrwt>
</event>
<event>
12    1  0.2736842E-001  0.2510925E+03  0.7546771E-02  0.1112625E+00
         21   -1    0    0  502  503  0.00000000000E+00  0.00000000000E+00  0.11047011746E+03  0.11047011746E+03  0.00000000000E+00 0.  1.
         21   -1    0    0  503  504 -0.00000000000E+00 -0.00000000000E+00 -0.58998377974E+03  0.58998377974E+03  0.00000000000E+00 0. -1.
         -6    2    1    2    0  504 -0.76322851244E+02  0.16489337569E+03 -0.30323120069E+03  0.39365924506E+03  0.17321500277E+03 0.  0.
        -24    2    3    3    0    0 -0.81399591190E+02  0.80685181570E+02 -0.26775835317E+03  0.30202297410E+03  0.79920893521E+02 0.  0.
          6    2    1    2  502    0  0.76322851244E+02 -0.16489337569E+03 -0.17628246159E+03  0.30679465215E+03  0.17329872865E+03 0.  0.
         24    2    5    5    0    0 -0.22166903975E+02 -0.45101639735E+02 -0.67358434261E+02  0.11722454476E+03  0.81724572123E+02 0.  0.
          2    1    6    6  501    0 -0.49936007908E+02 -0.21183373217E+02 -0.21089285231E+02  0.58198781243E+02  0.00000000000E+00 0. -1.
         -1    1    6    6    0  501  0.27769103933E+02 -0.23918266518E+02 -0.46269149030E+02  0.59025763514E+02  0.00000000000E+00 0.  1.
          5    1    5    5  502    0  0.98489755219E+02 -0.11979173595E+03 -0.10892402733E+03  0.18957010739E+03  0.47000000000E+01 0. -1.
         13    1    4    4    0    0 -0.30910599377E+01  0.56529736791E+02 -0.90690509837E+02  0.10691087114E+03  0.00000000000E+00 0. -1.
        -14    1    4    4    0    0 -0.78308531252E+02  0.24155444779E+02 -0.17706784333E+03  0.19511210296E+03  0.00000000000E+00 0.  1.
         -5    1    3    3    0  504  0.50767399459E+01  0.84208194117E+02 -0.35472847519E+02  0.91636270964E+02  0.47000000000E+01 0.  1.
<mgrwt>
<rscale>  2 0.25107807E+03</rscale>
<asrwt>0</asrwt>
<pdfrwt beam="1">  1       21 0.16995402E-01 0.25109252E+03</pdfrwt>
<pdfrwt beam="2">  1       21 0.90766737E-01 0.25109252E+03</pdfrwt>
<totfact> 0.31209708E+04</totfact>
</mgrwt>
</event>
<event>
12    1  0.2736842E-001  0.2026349E+03  0.7546771E-02  0.1147596E+00
         21   -1    0    0  502  503  0.00000000000E+00  0.00000000000E+00  0.74393984362E+02  0.74393984362E+02  0.00000000000E+00 0.  1.
         21   -1    0    0  503  504 -0.00000000000E+00 -0.00000000000E+00 -0.58229053775E+03  0.58229053775E+03  0.00000000000E+00 0.  1.
         -6    2    1    2    0  504 -0.10517661352E+03  0.11352105236E+02 -0.32972718419E+03  0.38686005865E+03  0.17248100956E+03 0.  0.
        -24    2    3    3    0    0 -0.18547116940E+02 -0.39925444461E+02 -0.91301224506E+02  0.12801051735E+03  0.78184028379E+02 0.  0.
          6    2    1    2  502    0  0.10517661352E+03 -0.11352105236E+02 -0.17816936920E+03  0.26982446346E+03  0.17282918341E+03 0.  0.
         24    2    5    5    0    0  0.70310037394E+02  0.42767011716E+02 -0.16880612932E+03  0.20459933631E+03  0.81196431417E+02 0.  0.
          4    1    6    6  501    0  0.25856953295E+02  0.61654632724E+02 -0.10682212544E+03  0.12601921382E+03  0.00000000000E+00 0. -1.
         -3    1    6    6    0  501  0.44453084099E+02 -0.18887621008E+02 -0.61984003885E+02  0.78580122492E+02  0.00000000000E+00 0.  1.
          5    1    5    5  502    0  0.34866576121E+02 -0.54119116953E+02 -0.93632398749E+01  0.65225127145E+02  0.47000000000E+01 0. -1.
         13    1    4    4    0    0 -0.16197524152E+02 -0.63588845653E+02 -0.71689669025E+02  0.97186983311E+02  0.00000000000E+00 0. -1.
        -14    1    4    4    0    0 -0.23495927885E+01  0.23663401192E+02 -0.19611555481E+02  0.30823534038E+02  0.00000000000E+00 0.  1.
         -5    1    3    3    0  504 -0.86629496575E+02  0.51277549698E+02 -0.23842595969E+03  0.25884954130E+03  0.47000000000E+01 0.  1.
<mgrwt>
<rscale>  2 0.20256067E+03</rscale>
<asrwt>0</asrwt>
<pdfrwt beam="1">  1       21 0.11445228E-01 0.20263494E+03</pdfrwt>
<pdfrwt beam="2">  1       21 0.89583160E-01 0.20263494E+03</pdfrwt>
<totfact> 0.67495299E+04</totfact>
</mgrwt>
</event>
<event>
12    1  0.2736842E-001  0.2264938E+03  0.7546771E-02  0.1129377E+00
         21   -1    0    0  502  503  0.00000000000E+00  0.00000000000E+00  0.17762118598E+03  0.17762118598E+03  0.00000000000E+00 0. -1.
         21   -1    0    0  503  504 -0.00000000000E+00 -0.00000000000E+00 -0.29351247124E+03  0.29351247124E+03  0.00000000000E+00 0. -1.
         -6    2    1    2    0  504 -0.58059874741E+01 -0.14323656018E+03 -0.92635705430E+02  0.24344908049E+03  0.17359625343E+03 0.  0.
        -24    2    3    3    0    0 -0.44741030416E+02 -0.14425931178E+03 -0.36619781016E+02  0.17506152769E+03  0.80579285662E+02 0.  0.
          6    2    1    2  502    0  0.58059874741E+01  0.14323656018E+03 -0.23255579828E+02  0.22768457673E+03  0.17535399290E+03 0.  0.
         24    2    5    5    0    0  0.12710091264E+02  0.10514292803E+02 -0.33345618680E+02  0.94317542609E+02  0.86670478167E+02 0.  0.
          4    1    6    6  501    0  0.21105131103E+02  0.26005992970E+02 -0.56222003877E+02  0.65441973910E+02  0.00000000000E+00 0. -1.
         -3    1    6    6    0  501 -0.83950398391E+01 -0.15491700168E+02  0.22876385198E+02  0.28875568699E+02  0.00000000000E+00 0.  1.
          5    1    5    5  502    0 -0.69041037899E+01  0.13272226738E+03  0.10090038851E+02  0.13336703412E+03  0.47000000000E+01 0. -1.
         13    1    4    4    0    0 -0.10501150504E+02 -0.75357464767E+02 -0.57464156421E+02  0.95347527138E+02  0.00000000000E+00 0. -1.
        -14    1    4    4    0    0 -0.34239879912E+02 -0.68901847010E+02  0.20844375405E+02  0.79714000551E+02  0.00000000000E+00 0.  1.
         -5    1    3    3    0  504  0.38935042942E+02  0.10227515983E+01 -0.56015924413E+02  0.68387552797E+02  0.47000000000E+01 0.  1.
<mgrwt>
<rscale>  2 0.22615351E+03</rscale>
<asrwt>0</asrwt>
<pdfrwt beam="1">  1       21 0.27326336E-01 0.22649381E+03</pdfrwt>
<pdfrwt beam="2">  1       21 0.45155765E-01 0.22649381E+03</pdfrwt>
<totfact> 0.59182047E+04</totfact>
</mgrwt>
</event>
<event>
12    1  0.2736842E-001  0.1949887E+03  0.7546771E-02  0.1154212E+00
         21   -1    0    0  502  503  0.00000000000E+00  0.00000000000E+00  0.39906931062E+02  0.39906931062E+02  0.00000000000E+00 0.  1.
         21   -1    0    0  503  504 -0.00000000000E+00 -0.00000000000E+00 -0.16454213741E+04  0.16454213741E+04  0.00000000000E+00 0.  1.
         -6    2    1    2    0  504 -0.37728972712E+02  0.82932829553E+02 -0.13500906612E+04  0.13639843921E+04  0.17148556410E+03 0.  0.
        -24    2    3    3    0    0  0.23001299605E+02 -0.81086521203E+01 -0.61577185067E+03  0.62154050672E+03  0.80887696197E+02 0.  0.
          6    2    1    2  502    0  0.37728972712E+02 -0.82932829553E+02 -0.25542378180E+03  0.32134391308E+03  0.17239278570E+03 0.  0.
         24    2    5    5    0    0  0.96607781317E+01 -0.59166290326E+02 -0.26485130630E+03  0.28308636282E+03  0.79985585078E+02 0.  0.
          4    1    6    6  501    0 -0.15372850150E+02 -0.24033278862E+01 -0.16361682299E+03  0.16435499771E+03  0.00000000000E+00 0. -1.
         -3    1    6    6    0  501  0.25033628282E+02 -0.56762962440E+02 -0.10123448331E+03  0.11873136511E+03  0.00000000000E+00 0.  1.
          5    1    5    5  502    0  0.28068194580E+02 -0.23766539226E+02  0.94275244968E+01  0.38257550260E+02  0.47000000000E+01 0. -1.
         11    1    4    4    0    0 -0.30155215631E+02 -0.84799204643E+01 -0.23029946923E+03  0.23242007575E+03  0.00000000000E+00 0. -1.
        -12    1    4    4    0    0  0.53156515236E+02  0.37126834395E+00 -0.38547238143E+03  0.38912043097E+03  0.00000000000E+00 0.  1.
         -5    1    3    3    0  504 -0.60730272317E+02  0.91041481673E+02 -0.73431881055E+03  0.74244388535E+03  0.47000000000E+01 0.  1.
<mgrwt>
<rscale>  2 0.19478801E+03</rscale>
<asrwt>0</asrwt>
<pdfrwt beam="1">  1       21 0.61395301E-02 0.19498872E+03</pdfrwt>
<pdfrwt beam="2">  1       21 0.25314166E+00 0.19498872E+03</pdfrwt>
<totfact> 0.12054077E+04</totfact>
</mgrwt>
</event>
<event>
12    1  0.2736842E-001  0.2322882E+03  0.7546771E-02  0.1125496E+00
         21   -1    0    0  502  503  0.00000000000E+00  0.00000000000E+00  0.55837287898E+03  0.55837287898E+03  0.00000000000E+00 0. -1.
         21   -1    0    0  503  504 -0.00000000000E+00 -0.00000000000E+00 -0.22901600417E+03  0.22901600417E+03  0.00000000000E+00 0.  1.
         -6    2    1    2    0  504  0.14576026300E+03  0.42965764323E+02 -0.13547740835E+03  0.26890878638E+03  0.17568635703E+03 0.  0.
        -24    2    3    3    0    0  0.74777518956E+02  0.35707604719E+01 -0.88108645114E-01  0.11097567156E+03  0.81921695810E+02 0.  0.
          6    2    1    2  502    0 -0.14576026300E+03 -0.42965764323E+02  0.46483428316E+03  0.51848009677E+03  0.17221669133E+03 0.  0.
         24    2    5    5    0    0 -0.53402581705E+02 -0.78855104209E+02  0.21586749104E+03  0.25047909007E+03  0.84089462383E+02 0.  0.
          4    1    6    6  501    0 -0.65690689545E+02 -0.81582264200E+02  0.21330460694E+03  0.23763372629E+03  0.00000000000E+00 0. -1.
         -3    1    6    6    0  501  0.12288107840E+02  0.27271599911E+01  0.25628840925E+01  0.12845363785E+02  0.00000000000E+00 0.  1.
          5    1    5    5  502    0 -0.92357681297E+02  0.35889339886E+02  0.24896679212E+03  0.26800100670E+03  0.47000000000E+01 0. -1.
         11    1    4    4    0    0  0.10999912085E+02 -0.33734804571E+02  0.87949242614E+01  0.36556610867E+02  0.00000000000E+00 0. -1.
        -12    1    4    4    0    0  0.63777606871E+02  0.37305565043E+02 -0.88830329065E+01  0.74419060697E+02  0.00000000000E+00 0.  1.
         -5    1    3    3    0  504  0.70982744047E+02  0.39395003851E+02 -0.13538929971E+03  0.15793311482E+03  0.47000000000E+01 0.  1.
<mgrwt>
<rscale>  2 0.23163218E+03</rscale>
<asrwt>0</asrwt>
<pdfrwt beam="1">  1       21 0.85903519E-01 0.23228820E+03</pdfrwt>
<pdfrwt beam="2">  1       21 0.35233232E-01 0.23228820E+03</pdfrwt>
<totfact> 0.88449223E+03</totfact>
</mgrwt>
</event>
<event>
12    1  0.2736842E-001  0.2181886E+03  0.7546771E-02  0.1136524E+00
         21   -1    0    0  502  503  0.00000000000E+00  0.00000000000E+00  0.47562954123E+02  0.47562954123E+02  0.00000000000E+00 0.  1.
         21   -1    0    0  503  504 -0.00000000000E+00 -0.00000000000E+00 -0.10298571385E+04  0.10298571385E+04  0.00000000000E+00 0. -1.
         -6    2    1    2    0  504  0.37682705847E+02 -0.11926156591E+03 -0.61334487447E+03  0.64878287479E+03  0.17054024793E+03 0.  0.
        -24    2    3    3    0    0  0.27815816754E+02 -0.21338325105E+02 -0.13939049124E+03  0.16469490348E+03  0.80409317890E+02 0.  0.
          6    2    1    2  502    0 -0.37682705847E+02  0.11926156591E+03 -0.36894930993E+03  0.42863721785E+03  0.17878188892E+03 0.  0.
         24    2    5    5    0    0  0.53549747720E+02  0.54019082562E+02 -0.18850616611E+03  0.21612425267E+03  0.73413085820E+02 0.  0.
          2    1    6    6  501    0  0.40077863407E+01 -0.30311547957E+01 -0.98410426814E+02  0.98538633826E+02  0.00000000000E+00 0. -1.
         -1    1    6    6    0  501  0.49541961379E+02  0.57050237357E+02 -0.90095739298E+02  0.11758561885E+03  0.00000000000E+00 0.  1.
          5    1    5    5  502    0 -0.91232453568E+02  0.65242483350E+02 -0.18044314382E+03  0.21251296518E+03  0.47000000000E+01 0. -1.
         11    1    4    4    0    0  0.53974931039E+02 -0.11949359862E+02 -0.11548780848E+03  0.12803715980E+03  0.00000000000E+00 0. -1.
        -12    1    4    4    0    0 -0.26159114285E+02 -0.93889652426E+01 -0.23902682758E+02  0.36657743678E+02  0.00000000000E+00 0.  1.
         -5    1    3    3    0  504  0.98668890939E+01 -0.97923240807E+02 -0.47395438323E+03  0.48408797132E+03  0.47000000000E+01 0.  1.
<mgrwt>
<rscale>  2 0.21649388E+03</rscale>
<asrwt>0</asrwt>
<pdfrwt beam="1">  1       21 0.73173772E-02 0.21818861E+03</pdfrwt>
<pdfrwt beam="2">  1       21 0.15843957E+00 0.21818861E+03</pdfrwt>
<totfact> 0.35652222E+04</totfact>
</mgrwt>
</event>
<event>
12    1  0.2736842E-001  0.2084212E+03  0.7546771E-02  0.1144104E+00
         21   -1    0    0  502  503  0.00000000000E+00  0.00000000000E+00  0.21375414465E+03  0.21375414465E+03  0.00000000000E+00 0. -1.
         21   -1    0    0  503  504 -0.00000000000E+00 -0.00000000000E+00 -0.29976368730E+03  0.29976368730E+03  0.00000000000E+00 0. -1.
         -6    2    1    2    0  504  0.79890066507E+02  0.78774633080E+02 -0.19280596467E+03  0.27932798771E+03  0.16811341160E+03 0.  0.
        -24    2    3    3    0    0  0.56797391987E+02  0.19285080935E+02 -0.28833954879E+02  0.10331324848E+03  0.79021340625E+02 0.  0.
          6    2    1    2  502    0 -0.79890066507E+02 -0.78774633080E+02  0.10679642201E+03  0.23418984424E+03  0.17564606984E+03 0.  0.
         24    2    5    5    0    0 -0.57017182247E+02  0.85108791685E+01  0.52137410672E+01  0.98237424070E+02  0.79372629139E+02 0.  0.
          4    1    6    6  501    0 -0.63107095119E+02  0.16298376838E+01  0.31385281031E+02  0.70499629010E+02  0.00000000000E+00 0. -1.
         -3    1    6    6    0  501  0.60899128715E+01  0.68810414847E+01 -0.26171539964E+02  0.27737795060E+02  0.00000000000E+00 0.  1.
          5    1    5    5  502    0 -0.22872884260E+02 -0.87285512248E+02  0.10158268095E+03  0.13595242017E+03  0.47000000000E+01 0. -1.
         13    1    4    4    0    0 -0.17724873780E+02  0.81446300600E+01 -0.19163363107E+02  0.27344846587E+02  0.00000000000E+00 0. -1.
        -14    1    4    4    0    0  0.74522265767E+02  0.11140450875E+02 -0.96705917721E+01  0.75968401891E+02  0.00000000000E+00 0.  1.
         -5    1    3    3    0  504  0.23092674520E+02  0.59489552145E+02 -0.16397200979E+03  0.17601473923E+03  0.47000000000E+01 0.  1.
<mgrwt>
<rscale>  2 0.20682615E+03</rscale>
<asrwt>0</asrwt>
<pdfrwt beam="1">  1       21 0.32885253E-01 0.20842123E+03</pdfrwt>
<pdfrwt beam="2">  1       21 0.46117490E-01 0.20842123E+03</pdfrwt>
<totfact> 0.39782684E+04</totfact>
</mgrwt>
</event>
<event>
12    1  0.2736842E-001  0.1800410E+03  0.7546771E-02  0.1168111E+00
         21   -1    0    0  502  503  0.00000000000E+00  0.00000000000E+00  0.21850811581E+03  0.21850811581E+03  0.00000000000E+00 0. -1.
         21   -1    0    0  503  504 -0.00000000000E+00 -0.00000000000E+00 -0.43069175654E+03  0.43069175654E+03  0.00000000000E+00 0. -1.
         -6    2    1    2    0  504  0.41152163228E+02  0.31951925162E+02 -0.36931177331E+03  0.41023538670E+03  0.17084338013E+03 0.  0.
        -24    2    3    3    0    0  0.37325578416E+02  0.83592211484E+02 -0.29821271110E+03  0.32215287669E+03  0.80441272185E+02 0.  0.
          6    2    1    2  502    0 -0.41152163228E+02 -0.31951925162E+02  0.15712813258E+03  0.23896448566E+03  0.17233789280E+03 0.  0.
         24    2    5    5    0    0 -0.50027819333E+02  0.31853311234E+02  0.46913707793E+02  0.11121788142E+03  0.81554307207E+02 0.  0.
          4    1    6    6  501    0 -0.65287450267E+01  0.12631769142E+02  0.60186821553E+02  0.61843670589E+02  0.00000000000E+00 0. -1.
         -3    1    6    6    0  501 -0.43499074307E+02  0.19221542092E+02 -0.13273113760E+02  0.49374210827E+02  0.00000000000E+00 0.  1.
          5    1    5    5  502    0  0.88756561053E+01 -0.63805236397E+02  0.11021442479E+03  0.12774660424E+03  0.47000000000E+01 0. -1.
         11    1    4    4    0    0  0.19871721173E+02  0.96562097719E+02 -0.26172666980E+03  0.27967833971E+03  0.00000000000E+00 0. -1.
        -12    1    4    4    0    0  0.17453857244E+02 -0.12969886235E+02 -0.36486041301E+02  0.42474536978E+02  0.00000000000E+00 0.  1.
         -5    1    3    3    0  504  0.38265848121E+01 -0.51640286322E+02 -0.71099062213E+02  0.88082510013E+02  0.47000000000E+01 0.  1.
<mgrwt>
<rscale>  2 0.17968246E+03</rscale>
<asrwt>0</asrwt>
<pdfrwt beam="1">  1       21 0.33616633E-01 0.18004104E+03</pdfrwt>
<pdfrwt beam="2">  1       21 0.66260270E-01 0.18004104E+03</pdfrwt>
<totfact> 0.17953847E+04</totfact>
</mgrwt>
</event>
<event>
12    1  0.2736842E-001  0.1728719E+03  0.7546771E-02  0.1175934E+00
         21   -1    0    0  502  503  0.00000000000E+00  0.00000000000E+00  0.93583454104E+02  0.93583454104E+02  0.00000000000E+00 0. -1.
         21   -1    0    0  503  504 -0.00000000000E+00 -0.00000000000E+00 -0.62841976852E+03  0.62841976852E+03  0.00000000000E+00 0. -1.
         -6    2    1    2    0  504 -0.20795540884E+01 -0.11149220201E+02 -0.52204293491E+03  0.54865859803E+03  0.16843040594E+03 0.  0.
        -24    2    3    3    0    0  0.21748311786E+02  0.17813570182E+02 -0.13392021868E+03  0.15869969856E+03  0.80378212249E+02 0.  0.
          6    2    1    2  502    0  0.20795540884E+01  0.11149220201E+02 -0.12793379506E+02  0.17334462460E+03  0.17249944539E+03 0.  0.
         24    2    5    5    0    0  0.58131329988E+02  0.23654638883E+02  0.25650320457E+02  0.10407561894E+03  0.78962029170E+02 0.  0.
          4    1    6    6  501    0  0.58455790794E+02 -0.15839223357E+02  0.21904604787E+02  0.64403200113E+02  0.00000000000E+00 0. -1.
         -3    1    6    6    0  501 -0.32446080565E+00  0.39493862241E+02  0.37457156701E+01  0.39672418824E+02  0.00000000000E+00 0.  1.
          5    1    5    5  502    0 -0.56051775900E+02 -0.12505418682E+02 -0.38443699964E+02  0.69269005658E+02  0.47000000000E+01 0. -1.
         13    1    4    4    0    0 -0.10525465647E+02 -0.14865740869E+02 -0.99889323082E+02  0.10153645919E+03  0.00000000000E+00 0. -1.
        -14    1    4    4    0    0  0.32273777433E+02  0.32679311051E+02 -0.34030895598E+02  0.57163239374E+02  0.00000000000E+00 0.  1.
         -5    1    3    3    0  504 -0.23827865874E+02 -0.28962790383E+02 -0.38812271623E+03  0.38995889947E+03  0.47000000000E+01 0.  1.
<mgrwt>
<rscale>  2 0.17184780E+03</rscale>
<asrwt>0</asrwt>
<pdfrwt beam="1">  1       21 0.14397455E-01 0.17287188E+03</pdfrwt>
<pdfrwt beam="2">  1       21 0.96679964E-01 0.17287188E+03</pdfrwt>
<totfact> 0.37977850E+04</totfact>
</mgrwt>
</event>
<event>
12    1  0.2736842E-001  0.3078112E+03  0.7546771E-02  0.1081439E+00
         21   -1    0    0  502  503  0.00000000000E+00  0.00000000000E+00  0.96938715115E+02  0.96938715115E+02  0.00000000000E+00 0. -1.
         21   -1    0    0  503  504 -0.00000000000E+00 -0.00000000000E+00 -0.16141572879E+04  0.16141572879E+04  0.00000000000E+00 0.  1.
         -6    2    1    2    0  504 -0.22916683282E+03  0.11002215304E+03 -0.12961530212E+04  0.13321267100E+04  0.17299308058E+03 0.  0.
        -24    2    3    3    0    0 -0.88610298361E+02  0.11123368699E+03 -0.58962415045E+03  0.61173602275E+03  0.79621634244E+02 0.  0.
          6    2    1    2  502    0  0.22916683282E+03 -0.11002215304E+03 -0.22106555161E+03  0.37896929296E+03  0.17356680406E+03 0.  0.
         24    2    5    5    0    0  0.12301215545E+03  0.11275322634E+02 -0.10831358927E+03  0.18220296417E+03  0.78784282969E+02 0.  0.
          4    1    6    6  501    0  0.12683160641E+03  0.88002806193E+00 -0.11328797990E+03  0.17006233334E+03  0.00000000000E+00 0. -1.
         -3    1    6    6    0  501 -0.38194509520E+01  0.10395294572E+02  0.49743906280E+01  0.12140630829E+02  0.00000000000E+00 0.  1.
          5    1    5    5  502    0  0.10615467737E+03 -0.12129747567E+03 -0.11275196234E+03  0.19676632878E+03  0.47000000000E+01 0. -1.
         11    1    4    4    0    0 -0.54397259518E+02  0.10280554427E+02 -0.17009714436E+03  0.17887926140E+03  0.00000000000E+00 0. -1.
        -12    1    4    4    0    0 -0.34213038842E+02  0.10095313256E+03 -0.41952700609E+03  0.43285676134E+03  0.00000000000E+00 0.  1.
         -5    1    3    3    0  504 -0.14055653446E+03 -0.12115339489E+01 -0.70652887071E+03  0.72039068730E+03  0.47000000000E+01 0.  1.
<mgrwt>
<rscale>  2 0.30773040E+03</rscale>
<asrwt>0</asrwt>
<pdfrwt beam="1">  1       21 0.14913651E-01 0.30781122E+03</pdfrwt>
<pdfrwt beam="2">  1       21 0.24833185E+00 0.30781122E+03</pdfrwt>
<totfact> 0.24364578E+03</totfact>
</mgrwt>
</event>
<event>
12    1  0.2736842E-001  0.1839293E+03  0.7546771E-02  0.1166537E+00
         21   -1    0    0  502  503  0.00000000000E+00  0.00000000000E+00  0.15977155450E+03  0.15977155450E+03  0.00000000000E+00 0. -1.
         21   -1    0    0  503  504 -0.00000000000E+00 -0.00000000000E+00 -0.23991086741E+03  0.23991086741E+03  0.00000000000E+00 0. -1.
         -6    2    1    2    0  504 -0.31658993166E+01  0.14632353663E+01 -0.12238632732E+03  0.22092619648E+03  0.18389618593E+03 0.  0.
        -24    2    3    3    0    0 -0.14374479925E+02  0.63282711860E+02 -0.12145945404E+03  0.15791644289E+03  0.77290857589E+02 0.  0.
          6    2    1    2  502    0  0.31658993166E+01 -0.14632353663E+01  0.42247014412E+02  0.17875622543E+03  0.17365717355E+03 0.  0.
         24    2    5    5    0    0  0.42337919827E+02  0.52938681722E+02  0.55345577645E+02  0.11028960486E+03  0.67124216918E+02 0.  0.
          2    1    6    6  501    0  0.30983395178E+02  0.65062980545E+02  0.59171289546E+02  0.93243786499E+02  0.00000000000E+00 0. -1.
         -1    1    6    6    0  501  0.11354524649E+02 -0.12124298823E+02 -0.38257119011E+01  0.17045818358E+02  0.00000000000E+00 0.  1.
          5    1    5    5  502    0 -0.39172020510E+02 -0.54401917089E+02 -0.13098563233E+02  0.68466620572E+02  0.47000000000E+01 0. -1.
         11    1    4    4    0    0  0.26509663406E+02  0.23976696776E+01 -0.42543209479E+02  0.50184018837E+02  0.00000000000E+00 0. -1.
        -12    1    4    4    0    0 -0.40884143331E+02  0.60885042183E+02 -0.78916244556E+02  0.10773242405E+03  0.00000000000E+00 0.  1.
         -5    1    3    3    0  504  0.11208580608E+02 -0.61819476494E+02 -0.92687327989E+00  0.63009753589E+02  0.47000000000E+01 0.  1.
<mgrwt>
<rscale>  2 0.18131477E+03</rscale>
<asrwt>0</asrwt>
<pdfrwt beam="1">  1       21 0.24580239E-01 0.18392926E+03</pdfrwt>
<pdfrwt beam="2">  1       21 0.36909364E-01 0.18392926E+03</pdfrwt>
<totfact> 0.11109962E+05</totfact>
</mgrwt>
</event>
<event>
12    1  0.2736842E-001  0.1815512E+03  0.7546771E-02  0.1166698E+00
         21   -1    0    0  502  503  0.00000000000E+00  0.00000000000E+00  0.27330395875E+03  0.27330395875E+03  0.00000000000E+00 0.  1.
         21   -1    0    0  503  504 -0.00000000000E+00 -0.00000000000E+00 -0.16304201107E+03  0.16304201107E+03  0.00000000000E+00 0.  1.
         -6    2    1    2    0  504 -0.41608271887E+02  0.28241910636E+02 -0.57754499271E+02  0.18897911715E+03  0.17276767848E+03 0.  0.
        -24    2    3    3    0    0 -0.31465105579E+02  0.64716624722E+01 -0.10490609922E+03  0.13585482040E+03  0.80120579678E+02 0.  0.
          6    2    1    2  502    0  0.41608271887E+02 -0.28241910636E+02  0.16801644695E+03  0.24736685267E+03  0.17444764127E+03 0.  0.
         24    2    5    5    0    0  0.46725972893E+02 -0.74890690004E+02  0.69129808280E+02  0.13780884617E+03  0.80127496510E+02 0.  0.
          4    1    6    6  501    0  0.60180902971E+02 -0.21763443302E+02  0.42952889567E+02  0.77073596444E+02  0.00000000000E+00 0. -1.
         -3    1    6    6    0  501 -0.13454930078E+02 -0.53127246702E+02  0.26176918713E+02  0.60735249722E+02  0.00000000000E+00 0.  1.
          5    1    5    5  502    0 -0.51177010060E+01  0.46648779368E+02  0.98886638674E+02  0.10955800650E+03  0.47000000000E+01 0. -1.
         13    1    4    4    0    0 -0.41723715055E+02 -0.26701869302E+02 -0.75773985449E+02  0.90529305162E+02  0.00000000000E+00 0. -1.
        -14    1    4    4    0    0  0.10258609476E+02  0.33173531775E+02 -0.29132113770E+02  0.45325515237E+02  0.00000000000E+00 0.  1.
         -5    1    3    3    0  504 -0.10143166309E+02  0.21770248164E+02  0.47151599948E+02  0.53124296753E+02  0.47000000000E+01 0.  1.
<mgrwt>
<rscale>  2 0.18114643E+03</rscale>
<asrwt>0</asrwt>
<pdfrwt beam="1">  1       21 0.42046763E-01 0.18155119E+03</pdfrwt>
<pdfrwt beam="2">  1       21 0.25083386E-01 0.18155119E+03</pdfrwt>
<totfact> 0.82300897E+04</totfact>
</mgrwt>
</event>
<event>
12    1  0.2736842E-001  0.1894537E+03  0.7546771E-02  0.1162117E+00
         21   -1    0    0  502  503  0.00000000000E+00  0.00000000000E+00  0.40402803935E+03  0.40402803935E+03  0.00000000000E+00 0. -1.
         21   -1    0    0  503  504 -0.00000000000E+00 -0.00000000000E+00 -0.97654531357E+02  0.97654531357E+02  0.00000000000E+00 0. -1.
         -6    2    1    2    0  504  0.28414827142E+02 -0.16190449659E+02  0.59685241950E+02  0.19863291455E+03  0.18660968243E+03 0.  0.
        -24    2    3    3    0    0  0.76844467991E+02 -0.56767229612E+02  0.38200092293E+02  0.13173293817E+03  0.82260132080E+02 0.  0.
          6    2    1    2  502    0 -0.28414827142E+02  0.16190449659E+02  0.24668826604E+03  0.30304965615E+03  0.17295797301E+03 0.  0.
         24    2    5    5    0    0 -0.19796361615E+02  0.26281390319E+02  0.26581838990E+03  0.27929767370E+03  0.79152806130E+02 0.  0.
          4    1    6    6  501    0 -0.22971073550E+02  0.26748314988E+02  0.27095596182E+03  0.27324032612E+03  0.00000000000E+00 0. -1.
         -3    1    6    6    0  501  0.31747119350E+01 -0.46692466946E+00 -0.51375719189E+01  0.60573475828E+01  0.00000000000E+00 0.  1.
          5    1    5    5  502    0 -0.86184655268E+01 -0.10090940659E+02 -0.19130123856E+02  0.23751982448E+02  0.47000000000E+01 0. -1.
         11    1    4    4    0    0 -0.16564137013E+02 -0.19290857499E+02  0.76768343990E+01  0.26560150685E+02  0.00000000000E+00 0. -1.
        -12    1    4    4    0    0  0.93408605004E+02 -0.37476372113E+02  0.30523257894E+02  0.10517278749E+03  0.00000000000E+00 0.  1.
         -5    1    3    3    0  504 -0.48429640849E+02  0.40576779952E+02  0.21485149657E+02  0.66899976381E+02  0.47000000000E+01 0.  1.
<mgrwt>
<rscale>  2 0.18600281E+03</rscale>
<asrwt>0</asrwt>
<pdfrwt beam="1">  1       21 0.62158159E-01 0.18945371E+03</pdfrwt>
<pdfrwt beam="2">  1       21 0.15023774E-01 0.18945371E+03</pdfrwt>
<totfact> 0.94047820E+04</totfact>
</mgrwt>
</event>
<event>
12    1  0.2736842E-001  0.1988809E+03  0.7546771E-02  0.1153573E+00
         21   -1    0    0  502  503  0.00000000000E+00  0.00000000000E+00  0.84634638115E+02  0.84634638115E+02  0.00000000000E+00 0.  1.
         21   -1    0    0  503  504 -0.00000000000E+00 -0.00000000000E+00 -0.96900339597E+03  0.96900339597E+03  0.00000000000E+00 0.  1.
         -6    2    1    2    0  504  0.80756897177E+01  0.69598319201E+02 -0.83919745207E+03  0.86244186729E+03  0.18613024495E+03 0.  0.
        -24    2    3    3    0    0  0.35359176235E+01 -0.22327415530E+02 -0.60521318897E+03  0.61096289080E+03  0.80508593525E+02 0.  0.
          6    2    1    2  502    0 -0.80756897177E+01 -0.69598319201E+02 -0.45171305784E+02  0.19119616680E+03  0.17206505901E+03 0.  0.
         24    2    5    5    0    0 -0.26069042212E+02 -0.16005312679E+02  0.34856507504E+02  0.93101763383E+02  0.80729159749E+02 0.  0.
          4    1    6    6  501    0 -0.40693508425E+02 -0.38942597606E+02  0.34192296450E+02  0.65890823889E+02  0.00000000000E+00 0. -1.
         -3    1    6    6    0  501  0.14624466213E+02  0.22937284926E+02  0.66421105428E+00  0.27210939494E+02  0.00000000000E+00 0.  1.
          5    1    5    5  502    0  0.17993352494E+02 -0.53593006521E+02 -0.80027813288E+02  0.98094403417E+02  0.47000000000E+01 0. -1.
         11    1    4    4    0    0 -0.17539537476E+02 -0.39652630758E+02 -0.19132645068E+03  0.19617792239E+03  0.00000000000E+00 0. -1.
        -12    1    4    4    0    0  0.21075455099E+02  0.17325215228E+02 -0.41388673829E+03  0.41478496841E+03  0.00000000000E+00 0.  1.
         -5    1    3    3    0  504  0.45397720941E+01  0.91925734731E+02 -0.23398426310E+03  0.25147897649E+03  0.47000000000E+01 0.  1.
<mgrwt>
<rscale>  2 0.19552244E+03</rscale>
<asrwt>0</asrwt>
<pdfrwt beam="1">  1       21 0.13020713E-01 0.19888090E+03</pdfrwt>
<pdfrwt beam="2">  1       21 0.14907746E+00 0.19888090E+03</pdfrwt>
<totfact> 0.15330197E+04</totfact>
</mgrwt>
</event>
<event>
12    1  0.2736842E-001  0.2051409E+03  0.7546771E-02  0.1145867E+00
         21   -1    0    0  502  503  0.00000000000E+00  0.00000000000E+00  0.14255013707E+03  0.14255013707E+03  0.00000000000E+00 0.  1.
         21   -1    0    0  503  504 -0.00000000000E+00 -0.00000000000E+00 -0.29404323080E+03  0.29404323080E+03  0.00000000000E+00 0.  1.
         -6    2    1    2    0  504 -0.82602174864E+02  0.66466535620E+02 -0.92157606722E+02  0.22489067355E+03  0.17561853810E+03 0.  0.
        -24    2    3    3    0    0 -0.36320200903E+02 -0.34124434679E+02 -0.40321770875E+02  0.10254032293E+03  0.80031484959E+02 0.  0.
          6    2    1    2  502    0  0.82602174864E+02 -0.66466535620E+02 -0.59335487009E+02  0.21170269432E+03  0.17336784914E+03 0.  0.
         24    2    5    5    0    0 -0.15425868250E+02 -0.25296612730E+02 -0.62014671677E+02  0.10524271208E+03  0.79701523927E+02 0.  0.
          4    1    6    6  501    0  0.20144229197E+02  0.19257942188E+02 -0.23336590430E+02  0.36349068216E+02  0.00000000000E+00 0. -1.
         -3    1    6    6    0  501 -0.35570097447E+02 -0.44554554917E+02 -0.38678081247E+02  0.68893643866E+02  0.00000000000E+00 0.  1.
          5    1    5    5  502    0  0.98028043113E+02 -0.41169922891E+02  0.26791846678E+01  0.10645998224E+03  0.47000000000E+01 0. -1.
         13    1    4    4    0    0 -0.47843559400E+02 -0.61450760538E+01 -0.51238850368E+02  0.70371783570E+02  0.00000000000E+00 0. -1.
        -14    1    4    4    0    0  0.11523358497E+02 -0.27979358625E+02  0.10917079492E+02  0.32168539363E+02  0.00000000000E+00 0.  1.
         -5    1    3    3    0  504 -0.46281973960E+02  0.10059097030E+03 -0.51835835847E+02  0.12235035062E+03  0.47000000000E+01 0.  1.
<mgrwt>
<rscale>  2 0.20465834E+03</rscale>
<asrwt>0</asrwt>
<pdfrwt beam="1">  1       21 0.21930791E-01 0.20514090E+03</pdfrwt>
<pdfrwt beam="2">  1       21 0.45237420E-01 0.20514090E+03</pdfrwt>
<totfact> 0.90555070E+04</totfact>
</mgrwt>
</event>
<event>
12    1  0.2736842E-001  0.2066334E+03  0.7546771E-02  0.1144709E+00
         21   -1    0    0  502  503  0.00000000000E+00  0.00000000000E+00  0.40765226397E+03  0.40765226397E+03  0.00000000000E+00 0.  1.
         21   -1    0    0  503  504 -0.00000000000E+00 -0.00000000000E+00 -0.13026832096E+03  0.13026832096E+03  0.00000000000E+00 0.  1.
         -6    2    1    2    0  504  0.97465387340E+02  0.54776956745E+02  0.17647009940E+02  0.20738560822E+03  0.17377386691E+03 0.  0.
        -24    2    3    3    0    0 -0.11295222666E+02  0.37812149433E+01 -0.32193341286E+02  0.77248808737E+02  0.69203233931E+02 0.  0.
          6    2    1    2  502    0 -0.97465387340E+02 -0.54776956745E+02  0.25973693307E+03  0.33053497671E+03  0.17114344775E+03 0.  0.
         24    2    5    5    0    0 -0.44286987014E+02 -0.94479198516E+02  0.20930550751E+03  0.24705067311E+03  0.79608940718E+02 0.  0.
          4    1    6    6  501    0  0.72689008318E+00 -0.63114941062E+02  0.16457467809E+03  0.17626357770E+03  0.00000000000E+00 0. -1.
         -3    1    6    6    0  501 -0.45013877098E+02 -0.31364257454E+02  0.44730829415E+02  0.70787095414E+02  0.00000000000E+00 0.  1.
          5    1    5    5  502    0 -0.53178400325E+02  0.39702241771E+02  0.50431425566E+02  0.83484303599E+02  0.47000000000E+01 0. -1.
         13    1    4    4    0    0 -0.29229859092E+02  0.22471283246E+02 -0.12443133857E+01  0.36890263608E+02  0.00000000000E+00 0. -1.
        -14    1    4    4    0    0  0.17934636426E+02 -0.18690068303E+02 -0.30949027900E+02  0.40358545128E+02  0.00000000000E+00 0.  1.
         -5    1    3    3    0  504  0.10876061001E+03  0.50995741802E+02  0.49840351225E+02  0.13013679949E+03  0.47000000000E+01 0.  1.
<mgrwt>
<rscale>  2 0.20607941E+03</rscale>
<asrwt>0</asrwt>
<pdfrwt beam="1">  1       21 0.62715732E-01 0.20663343E+03</pdfrwt>
<pdfrwt beam="2">  1       21 0.20041280E-01 0.20663343E+03</pdfrwt>
<totfact> 0.53797861E+04</totfact>
</mgrwt>
</event>
<event>
12    1  0.2736842E-001  0.2301367E+03  0.7546771E-02  0.1126581E+00
         21   -1    0    0  502  503  0.00000000000E+00  0.00000000000E+00  0.61982811074E+02  0.61982811074E+02  0.00000000000E+00 0.  1.
         21   -1    0    0  503  504 -0.00000000000E+00 -0.00000000000E+00 -0.97370997528E+03  0.97370997528E+03  0.00000000000E+00 0.  1.
         -6    2    1    2    0  504 -0.14934162994E+03 -0.34281363084E+01 -0.27423352061E+03  0.35800409373E+03  0.17506636670E+03 0.  0.
        -24    2    3    3    0    0 -0.11066325165E+03 -0.53915611350E+02 -0.11629221427E+03  0.18767339089E+03  0.80896069957E+02 0.  0.
          6    2    1    2  502    0  0.14934162994E+03  0.34281363084E+01 -0.63749364360E+03  0.67768869263E+03  0.17478313401E+03 0.  0.
         24    2    5    5    0    0  0.30216697690E+02 -0.41548345654E+02 -0.19082817479E+03  0.21320428552E+03  0.80008507218E+02 0.  0.
          2    1    6    6  501    0 -0.17526701668E+02 -0.27792084322E+01 -0.65199203312E+01  0.18905518560E+02  0.00000000000E+00 0. -1.
         -1    1    6    6    0  501  0.47743399358E+02 -0.38769137222E+02 -0.18430825446E+03  0.19429876696E+03  0.00000000000E+00 0.  1.
          5    1    5    5  502    0  0.11912493225E+03  0.44976481963E+02 -0.44666546881E+03  0.46448440710E+03  0.47000000000E+01 0. -1.
         11    1    4    4    0    0 -0.95215995833E+02 -0.50649054114E+02 -0.12846714208E+03  0.16773556314E+03  0.00000000000E+00 0. -1.
        -12    1    4    4    0    0 -0.15447255818E+02 -0.32665572352E+01  0.12174927809E+02  0.19937827756E+02  0.00000000000E+00 0.  1.
         -5    1    3    3    0  504 -0.38678378284E+02  0.50487475041E+02 -0.15794130633E+03  0.17033070284E+03  0.47000000000E+01 0.  1.
<mgrwt>
<rscale>  2 0.23008285E+03</rscale>
<asrwt>0</asrwt>
<pdfrwt beam="1">  1       21 0.95358170E-02 0.23013671E+03</pdfrwt>
<pdfrwt beam="2">  1       21 0.14980154E+00 0.23013671E+03</pdfrwt>
<totfact> 0.25867283E+04</totfact>
</mgrwt>
</event>
<event>
12    1  0.2736842E-001  0.1787522E+03  0.7546771E-02  0.1169309E+00
         21   -1    0    0  502  503  0.00000000000E+00  0.00000000000E+00  0.63942521755E+02  0.63942521755E+02  0.00000000000E+00 0. -1.
         21   -1    0    0  503  504 -0.00000000000E+00 -0.00000000000E+00 -0.54272123822E+03  0.54272123822E+03  0.00000000000E+00 0. -1.
         -6    2    1    2    0  504 -0.26344598985E+02  0.30550900405E+02 -0.32877230905E+03  0.37422398363E+03  0.17414064235E+03 0.  0.
        -24    2    3    3    0    0 -0.59956568689E+02  0.53547516263E+02 -0.30767727092E+03  0.32811867502E+03  0.80835853628E+02 0.  0.
          6    2    1    2  502    0  0.26344598985E+02 -0.30550900405E+02 -0.15000640741E+03  0.23243977634E+03  0.17291307628E+03 0.  0.
         24    2    5    5    0    0  0.11555529303E+02 -0.24812443940E+02 -0.25878726480E+01  0.84095713913E+02  0.79474551789E+02 0.  0.
          2    1    6    6  501    0  0.54899222043E+01 -0.51387256527E+02  0.12177835850E+02  0.53095094549E+02  0.00000000000E+00 0. -1.
         -1    1    6    6    0  501  0.60656070991E+01  0.26574812587E+02 -0.14765708498E+02  0.31000619364E+02  0.00000000000E+00 0.  1.
          5    1    5    5  502    0  0.14789069681E+02 -0.57384564647E+01 -0.14741853477E+03  0.14834406243E+03  0.47000000000E+01 0. -1.
         13    1    4    4    0    0 -0.59422308112E+02  0.41499744314E+02 -0.12096191542E+03  0.14101427042E+03  0.00000000000E+00 0. -1.
        -14    1    4    4    0    0 -0.53426057771E+00  0.12047771949E+02 -0.18671535550E+03  0.18710440461E+03  0.00000000000E+00 0.  1.
         -5    1    3    3    0  504  0.33611969705E+02 -0.22996615858E+02 -0.21095038132E+02  0.46105308611E+02  0.47000000000E+01 0.  1.
<mgrwt>
<rscale>  2 0.17845255E+03</rscale>
<asrwt>0</asrwt>
<pdfrwt beam="1">  1       21 0.98373106E-02 0.17875223E+03</pdfrwt>
<pdfrwt beam="2">  1       21 0.83495579E-01 0.17875223E+03</pdfrwt>
<totfact> 0.10482450E+05</totfact>
</mgrwt>
</event>
<event>
12    1  0.2736842E-001  0.1770469E+03  0.7546771E-02  0.1170698E+00
         21   -1    0    0  502  503  0.00000000000E+00  0.00000000000E+00  0.36041312255E+03  0.36041312255E+03  0.00000000000E+00 0. -1.
         21   -1    0    0  503  504 -0.00000000000E+00 -0.00000000000E+00 -0.10388530892E+03  0.10388530892E+03  0.00000000000E+00 0. -1.
         -6    2    1    2    0  504  0.34578294321E+02  0.13950638480E+02  0.34554314034E+02  0.18036564671E+03  0.17305342280E+03 0.  0.
        -24    2    3    3    0    0 -0.24322720939E+02 -0.42417742321E+02  0.64658891550E+01  0.94007244890E+02  0.80029336820E+02 0.  0.
          6    2    1    2  502    0 -0.34578294321E+02 -0.13950638480E+02  0.22197349960E+03  0.28393278476E+03  0.17307603238E+03 0.  0.
         24    2    5    5    0    0 -0.21324079196E+02  0.52240376224E+02  0.82738184406E+02  0.12912487913E+03  0.81509839841E+02 0.  0.
          2    1    6    6  501    0  0.56262688669E+01  0.16075629805E+02  0.82275929726E+02  0.84020291522E+02  0.00000000000E+00 0. -1.
         -1    1    6    6    0  501 -0.26950348063E+02  0.36164746419E+02  0.46225467917E+00  0.45104587612E+02  0.00000000000E+00 0.  1.
          5    1    5    5  502    0 -0.13254215125E+02 -0.66191014705E+02  0.13923531520E+03  0.15480790563E+03  0.47000000000E+01 0. -1.
         13    1    4    4    0    0 -0.33579299869E+02  0.10347329435E+02 -0.12325070815E+02  0.37236326036E+02  0.00000000000E+00 0. -1.
        -14    1    4    4    0    0  0.92565789294E+01 -0.52765071756E+02  0.18790959970E+02  0.56770918854E+02  0.00000000000E+00 0.  1.
         -5    1    3    3    0  504  0.58901015261E+02  0.56368380801E+02  0.28088424879E+02  0.86358401821E+02  0.47000000000E+01 0.  1.
<mgrwt>
<rscale>  2 0.17704134E+03</rscale>
<asrwt>0</asrwt>
<pdfrwt beam="1">  1       21 0.55448172E-01 0.17704686E+03</pdfrwt>
<pdfrwt beam="2">  1       21 0.15982355E-01 0.17704686E+03</pdfrwt>
<totfact> 0.10774916E+05</totfact>
</mgrwt>
</event>
<event>
12    1  0.2736842E-001  0.1837732E+03  0.7546771E-02  0.1164661E+00
         21   -1    0    0  502  503  0.00000000000E+00  0.00000000000E+00  0.17953399819E+03  0.17953399819E+03  0.00000000000E+00 0. -1.
         21   -1    0    0  503  504 -0.00000000000E+00 -0.00000000000E+00 -0.25866615084E+03  0.25866615084E+03  0.00000000000E+00 0. -1.
         -6    2    1    2    0  504  0.24306699098E+01  0.67515349789E+02 -0.15574147659E+03  0.24089004607E+03  0.17090458200E+03 0.  0.
        -24    2    3    3    0    0  0.61581902130E+02  0.54943064463E+02 -0.13377941477E+03  0.17638149787E+03  0.80015185871E+02 0.  0.
          6    2    1    2  502    0 -0.24306699098E+01 -0.67515349789E+02  0.76609323938E+02  0.19731010296E+03  0.16881367718E+03 0.  0.
         24    2    5    5    0    0  0.43961274226E+01 -0.10836674893E+03  0.77783017664E+02  0.15560986878E+03  0.80009719505E+02 0.  0.
          4    1    6    6  501    0  0.29337744699E+02 -0.38805204612E+02  0.64077706577E+02  0.80451846773E+02  0.00000000000E+00 0. -1.
         -3    1    6    6    0  501 -0.24941617277E+02 -0.69561544317E+02  0.13705311088E+02  0.75158022008E+02  0.00000000000E+00 0.  1.
          5    1    5    5  502    0 -0.68267973323E+01  0.40851399139E+02 -0.11736937262E+01  0.41700234177E+02  0.47000000000E+01 0. -1.
         11    1    4    4    0    0  0.82525106712E+01  0.52312785514E+02 -0.10011803901E+03  0.11326232028E+03  0.00000000000E+00 0. -1.
        -12    1    4    4    0    0  0.53329391459E+02  0.26302789491E+01 -0.33661375767E+02  0.63119177588E+02  0.00000000000E+00 0.  1.
         -5    1    3    3    0  504 -0.59151232221E+02  0.12572285327E+02 -0.21962061815E+02  0.64508548199E+02  0.47000000000E+01 0.  1.
<mgrwt>
<rscale>  2 0.18328559E+03</rscale>
<asrwt>0</asrwt>
<pdfrwt beam="1">  1       21 0.27620615E-01 0.18377325E+03</pdfrwt>
<pdfrwt beam="2">  1       21 0.39794793E-01 0.18377325E+03</pdfrwt>
<totfact> 0.76412778E+04</totfact>
</mgrwt>
</event>
<event>
12    1  0.2736842E-001  0.2419521E+03  0.7546771E-02  0.1118600E+00
         21   -1    0    0  502  503  0.00000000000E+00  0.00000000000E+00  0.78676378145E+03  0.78676378145E+03  0.00000000000E+00 0.  1.
         21   -1    0    0  503  504 -0.00000000000E+00 -0.00000000000E+00 -0.18061935236E+03  0.18061935236E+03  0.00000000000E+00 0. -1.
         -6    2    1    2    0  504 -0.14348479169E+03 -0.87519769750E+02 -0.68325573200E+02  0.25082844907E+03  0.17320199585E+03 0.  0.
        -24    2    3    3    0    0 -0.10537897298E+03 -0.12825846206E+03 -0.43584599262E+02  0.18962468887E+03  0.80640835187E+02 0.  0.
          6    2    1    2  502    0  0.14348479169E+03  0.87519769750E+02  0.67447000230E+03  0.71655468474E+03  0.17404952363E+03 0.  0.
         24    2    5    5    0    0  0.15898749509E+02  0.36375155213E+02  0.39896034210E+03  0.40862347064E+03  0.78916817167E+02 0.  0.
          2    1    6    6  501    0  0.88039367600E+01  0.11116718107E+02  0.70509204408E+01  0.15836862158E+02  0.00000000000E+00 0. -1.
         -1    1    6    6    0  501  0.70948127493E+01  0.25258437106E+02  0.39190942166E+03  0.39278660848E+03  0.00000000000E+00 0.  1.
          5    1    5    5  502    0  0.12758604218E+03  0.51144614537E+02  0.27550966019E+03  0.30793121410E+03  0.47000000000E+01 0. -1.
         11    1    4    4    0    0 -0.52065488490E+02 -0.54168764884E+02 -0.60904555915E+02  0.96718328728E+02  0.00000000000E+00 0. -1.
        -12    1    4    4    0    0 -0.53313484490E+02 -0.74089697180E+02  0.17319956654E+02  0.92906360144E+02  0.00000000000E+00 0.  1.
         -5    1    3    3    0  504 -0.38105818714E+02  0.40738692314E+02 -0.24740973938E+02  0.61203760201E+02  0.47000000000E+01 0.  1.
<mgrwt>
<rscale>  2 0.24179975E+03</rscale>
<asrwt>0</asrwt>
<pdfrwt beam="1">  1       21 0.12104058E+00 0.24195213E+03</pdfrwt>
<pdfrwt beam="2">  1       21 0.27787593E-01 0.24195213E+03</pdfrwt>
<totfact> 0.61686457E+03</totfact>
</mgrwt>
</event>
<event>
12    1  0.2736842E-001  0.2838345E+03  0.7546771E-02  0.1093663E+00
         21   -1    0    0  502  503  0.00000000000E+00  0.00000000000E+00  0.46495753342E+03  0.46495753342E+03  0.00000000000E+00 0. -1.
         21   -1    0    0  503  504 -0.00000000000E+00 -0.00000000000E+00 -0.19046065723E+03  0.19046065723E+03  0.00000000000E+00 0. -1.
         -6    2    1    2    0  504 -0.61694767504E+01 -0.22512019744E+03  0.23644325453E+03  0.36941500737E+03  0.17275667663E+03 0.  0.
        -24    2    3    3    0    0  0.24029781994E+02 -0.14621021507E+03  0.22955728985E+03  0.28451337573E+03  0.79350199951E+02 0.  0.
          6    2    1    2  502    0  0.61694767504E+01  0.22512019744E+03  0.38053621661E+02  0.28600318329E+03  0.17214115426E+03 0.  0.
         24    2    5    5    0    0 -0.50636583699E+02  0.16476789948E+03 -0.13964662931E+01  0.19409166163E+03  0.89202571095E+02 0.  0.
          2    1    6    6  501    0 -0.59514211335E+02  0.13954115809E+03  0.28092874890E+02  0.15428183877E+03  0.00000000000E+00 0. -1.
         -1    1    6    6    0  501  0.88776276351E+01  0.25226741383E+02 -0.29489341184E+02  0.39809822867E+02  0.00000000000E+00 0.  1.
          5    1    5    5  502    0  0.56806060450E+02  0.60352297960E+02  0.39450087954E+02  0.91911521653E+02  0.47000000000E+01 0. -1.
         11    1    4    4    0    0  0.43500305491E+01 -0.13894325695E+03  0.22254536966E+03  0.26239396520E+03  0.00000000000E+00 0. -1.
        -12    1    4    4    0    0  0.19679751445E+02 -0.72669581198E+01  0.70119201872E+01  0.22119410525E+02  0.00000000000E+00 0.  1.
         -5    1    3    3    0  504 -0.30199258744E+02 -0.78909982369E+02  0.68859646795E+01  0.84901631643E+02  0.47000000000E+01 0.  1.
<mgrwt>
<rscale>  2 0.28374092E+03</rscale>
<asrwt>0</asrwt>
<pdfrwt beam="1">  1       21 0.71531928E-01 0.28383452E+03</pdfrwt>
<pdfrwt beam="2">  1       21 0.29301640E-01 0.28383452E+03</pdfrwt>
<totfact> 0.18795040E+04</totfact>
</mgrwt>
</event>
<event>
12    1  0.2736842E-001  0.1905434E+03  0.7546771E-02  0.1158040E+00
         21   -1    0    0  502  503  0.00000000000E+00  0.00000000000E+00  0.81871112316E+02  0.81871112316E+02  0.00000000000E+00 0.  1.
         21   -1    0    0  503  504 -0.00000000000E+00 -0.00000000000E+00 -0.89764023603E+03  0.89764023603E+03  0.00000000000E+00 0.  1.
         -6    2    1    2    0  504  0.35636195309E+02  0.70512627121E+02 -0.75668178897E+03  0.78030386861E+03  0.17339212384E+03 0.  0.
        -24    2    3    3    0    0 -0.22632257305E+02  0.17858491824E+02 -0.59232691711E+03  0.59808892840E+03  0.77640483855E+02 0.  0.
          6    2    1    2  502    0 -0.35636195309E+02 -0.70512627121E+02 -0.59087334741E+02  0.19920747973E+03  0.17306165911E+03 0.  0.
         24    2    5    5    0    0 -0.29328948069E+02  0.19203414185E+01  0.24990427165E+02  0.87953372633E+02  0.79040492165E+02 0.  0.
          2    1    6    6  501    0  0.62876807551E+01 -0.33507373820E+02  0.10146823287E+02  0.35570170823E+02  0.00000000000E+00 0. -1.
         -1    1    6    6    0  501 -0.35616628824E+02  0.35427715238E+02  0.14843603878E+02  0.52383201810E+02  0.00000000000E+00 0.  1.
          5    1    5    5  502    0 -0.63072472406E+01 -0.72432968540E+02 -0.84077761906E+02  0.11125410710E+03  0.47000000000E+01 0. -1.
         13    1    4    4    0    0 -0.13624110849E+02  0.24166338499E+02 -0.65317788389E+02  0.70965074459E+02  0.00000000000E+00 0. -1.
        -14    1    4    4    0    0 -0.90081464560E+01 -0.63078466751E+01 -0.52700912873E+03  0.52712385394E+03  0.00000000000E+00 0.  1.
         -5    1    3    3    0  504  0.58268452615E+02  0.52654135298E+02 -0.16435487186E+03  0.18221494021E+03  0.47000000000E+01 0.  1.
<mgrwt>
<rscale>  2 0.19046822E+03</rscale>
<asrwt>0</asrwt>
<pdfrwt beam="1">  1       21 0.12595556E-01 0.19054343E+03</pdfrwt>
<pdfrwt beam="2">  1       21 0.13809850E+00 0.19054343E+03</pdfrwt>
<totfact> 0.19971458E+04</totfact>
</mgrwt>
</event>
<event>
12    1  0.2736842E-001  0.2110476E+03  0.7546771E-02  0.1141658E+00
         21   -1    0    0  502  503  0.00000000000E+00  0.00000000000E+00  0.11376456426E+04  0.11376456426E+04  0.00000000000E+00 0.  1.
         21   -1    0    0  503  504 -0.00000000000E+00 -0.00000000000E+00 -0.40730507063E+02  0.40730507063E+02  0.00000000000E+00 0.  1.
         -6    2    1    2    0  504  0.94712059428E+02  0.60526455344E+02  0.39885776716E+03  0.44911271317E+03  0.17314989089E+03 0.  0.
        -24    2    3    3    0    0  0.47892873102E+02 -0.11311073562E+02  0.31621406683E+03  0.32992908186E+03  0.80250827548E+02 0.  0.
          6    2    1    2  502    0 -0.94712059428E+02 -0.60526455344E+02  0.69805736842E+03  0.72926343653E+03  0.17862598987E+03 0.  0.
         24    2    5    5    0    0 -0.22726707947E+02 -0.65850147946E+02  0.58978443681E+03  0.59905072498E+03  0.78506967533E+02 0.  0.
          4    1    6    6  501    0 -0.18249904301E+02 -0.36444994847E+02  0.95018708329E+02  0.10339173849E+03  0.00000000000E+00 0. -1.
         -3    1    6    6    0  501 -0.44768036460E+01 -0.29405153099E+02  0.49476572848E+03  0.49565898648E+03  0.00000000000E+00 0.  1.
          5    1    5    5  502    0 -0.71985351481E+02  0.53236926014E+01  0.10827293160E+03  0.13021271155E+03  0.47000000000E+01 0. -1.
         11    1    4    4    0    0  0.20600398425E+02 -0.37399674606E+02  0.79666077611E+02  0.90386923821E+02  0.00000000000E+00 0. -1.
        -12    1    4    4    0    0  0.27292474676E+02  0.26088601044E+02  0.23654798922E+03  0.23954215804E+03  0.00000000000E+00 0.  1.
         -5    1    3    3    0  504  0.46819186326E+02  0.71837528906E+02  0.82643700332E+02  0.11918363131E+03  0.47000000000E+01 0.  1.
<mgrwt>
<rscale>  2 0.20988441E+03</rscale>
<asrwt>0</asrwt>
<pdfrwt beam="1">  1       21 0.17502238E+00 0.21104755E+03</pdfrwt>
<pdfrwt beam="2">  1       21 0.62662327E-02 0.21104755E+03</pdfrwt>
<totfact> 0.35611835E+04</totfact>
</mgrwt>
</event>
