<event>
12    1  0.1441827E-001  0.2192070E+03  0.7546771E-02  0.1134496E+00
         21   -1    0    0  504  503  0.00000000000E+00  0.00000000000E+00  0.61353472244E+03  0.61353472244E+03  0.00000000000E+00 0.  1.
         21   -1    0    0  502  504 -0.00000000000E+00 -0.00000000000E+00 -0.11610049161E+03  0.11610049161E+03  0.00000000000E+00 0.  1.
          6    2    1    2  502    0  0.10843325635E+03 -0.73240791496E+02  0.40540914836E+02  0.22292437615E+03  0.17586849372E+03 0.  0.
         24    2    3    3    0    0  0.14682787640E+03 -0.57438120126E+02  0.29371082158E+02  0.17967248101E+03  0.81006030852E+02 0.  0.
         -6    2    1    2    0  503 -0.10843325635E+03  0.73240791496E+02  0.45689331599E+03  0.50671083789E+03  0.17573385108E+03 0.  0.
        -24    2    5    5    0    0 -0.50473674593E+02  0.15651691058E+02  0.98597923017E+02  0.13918737438E+03  0.82819125223E+02 0.  0.
          4    1    4    4  501    0  0.34739063948E+02 -0.72761609306E+01  0.43408334124E+02  0.56071637690E+02  0.00000000000E+00 0. -1.
         -3    1    4    4    0  501  0.11208881245E+03 -0.50161959195E+02 -0.14037251966E+02  0.12360084332E+03  0.00000000000E+00 0.  1.
          5    1    3    3  502    0 -0.38394620048E+02 -0.15802671370E+02  0.11169832678E+02  0.43251895139E+02  0.47000000000E+01 0. -1.
         11    1    6    6    0    0 -0.12268810307E+02  0.47061715179E+02  0.45058460431E+02  0.66299272985E+02  0.00000000000E+00 0. -1.
        -12    1    6    6    0    0 -0.38204864286E+02 -0.31410024122E+02  0.53539462586E+02  0.72888101392E+02  0.00000000000E+00 0.  1.
         -5    1    5    5    0  503 -0.57959581759E+02  0.57589100438E+02  0.35829539298E+03  0.36752346352E+03  0.47000000000E+01 0.  1.
<mgrwt>
<rscale>  2 0.21918000E+03</rscale>
<asrwt>0</asrwt>
<pdfrwt beam="1">  1       21 0.94389955E-01 0.21920701E+03</pdfrwt>
<pdfrwt beam="2">  1       21 0.17861615E-01 0.21920701E+03</pdfrwt>
<totfact> 0.26381415E+04</totfact>
</mgrwt>
</event>
<event>
12    1  0.1441827E-001  0.1809174E+03  0.7546771E-02  0.1167026E+00
         21   -1    0    0  504  503  0.00000000000E+00  0.00000000000E+00  0.25880571154E+02  0.25880571154E+02  0.00000000000E+00 0. -1.
         21   -1    0    0  502  504 -0.00000000000E+00 -0.00000000000E+00 -0.12637809322E+04  0.12637809322E+04  0.00000000000E+00 0. -1.
          6    2    1    2  502    0  0.36538231665E+02 -0.40372695007E+02 -0.59278653098E+03  0.61977977511E+03  0.17252855256E+03 0.  0.
         24    2    3    3    0    0  0.33822618790E+02 -0.80712518510E+02 -0.53801541942E+03  0.55154019294E+03  0.84127954373E+02 0.  0.
         -6    2    1    2    0  503 -0.36538231665E+02  0.40372695007E+02 -0.64511383009E+03  0.66988172827E+03  0.17206010351E+03 0.  0.
        -24    2    5    5    0    0 -0.58687753613E+02  0.84091267845E+02 -0.49830966694E+03  0.51504159377E+03  0.80247899626E+02 0.  0.
          4    1    4    4  501    0  0.44505273465E+02 -0.65285224592E+02 -0.51842943260E+03  0.52441582403E+03  0.00000000000E+00 0. -1.
         -3    1    4    4    0  501 -0.10682654675E+02 -0.15427293918E+02 -0.19585986824E+02  0.27124368904E+02  0.00000000000E+00 0.  1.
          5    1    3    3  502    0  0.27156128756E+01  0.40339823503E+02 -0.54771111561E+02  0.68239582173E+02  0.47000000000E+01 0. -1.
         11    1    6    6    0    0 -0.53208406337E+02  0.20735634601E+02 -0.14114132019E+03  0.15225627512E+03  0.00000000000E+00 0. -1.
        -12    1    6    6    0    0 -0.54793472761E+01  0.63355633245E+02 -0.35716834674E+03  0.36278531865E+03  0.00000000000E+00 0.  1.
         -5    1    5    5    0  503  0.22149521947E+02 -0.43718572838E+02 -0.14680416316E+03  0.15484013451E+03  0.47000000000E+01 0.  1.
<mgrwt>
<rscale>  2 0.18080561E+03</rscale>
<asrwt>0</asrwt>
<pdfrwt beam="1">  1       21 0.39816266E-02 0.18091738E+03</pdfrwt>
<pdfrwt beam="2">  1       21 0.19442782E+00 0.18091738E+03</pdfrwt>
<totfact> 0.58035948E+04</totfact>
</mgrwt>
</event>
<event>
12    1  0.1441827E-001  0.1755096E+03  0.7546771E-02  0.1172290E+00
         21   -1    0    0  504  503  0.00000000000E+00  0.00000000000E+00  0.95474192153E+03  0.95474192153E+03  0.00000000000E+00 0. -1.
         21   -1    0    0  502  504 -0.00000000000E+00 -0.00000000000E+00 -0.78553943877E+02  0.78553943877E+02  0.00000000000E+00 0. -1.
          6    2    1    2  502    0  0.24623600913E+02 -0.21655972562E+02  0.41416184151E+02  0.18033006850E+03  0.17241905471E+03 0.  0.
         24    2    3    3    0    0  0.35955157139E+01  0.62453916970E+01  0.89479674504E+02  0.12072423322E+03  0.80720478733E+02 0.  0.
         -6    2    1    2    0  503 -0.24623600913E+02  0.21655972562E+02  0.83477179350E+03  0.85296579690E+03  0.17213773727E+03 0.  0.
        -24    2    5    5    0    0 -0.10562820651E+02 -0.35223760361E+02  0.70363998135E+03  0.70926245067E+03  0.81189371905E+02 0.  0.
          4    1    4    4  501    0 -0.28988070074E+02  0.28770130856E+02  0.38152269344E+02  0.55889393379E+02  0.00000000000E+00 0. -1.
         -3    1    4    4    0  501  0.32583585788E+02 -0.22524739159E+02  0.51327405160E+02  0.64834839843E+02  0.00000000000E+00 0.  1.
          5    1    3    3  502    0  0.21028085199E+02 -0.27901364259E+02 -0.48063490353E+02  0.59605835281E+02  0.47000000000E+01 0. -1.
         11    1    6    6    0    0  0.93673414758E+01 -0.24271253440E+02  0.65555429246E+03  0.65607032488E+03  0.00000000000E+00 0. -1.
        -12    1    6    6    0    0 -0.19930162127E+02 -0.10952506921E+02  0.48085688888E+02  0.53192125790E+02  0.00000000000E+00 0.  1.
         -5    1    5    5    0  503 -0.14060780262E+02  0.56879732923E+02  0.13113181215E+03  0.14370334623E+03  0.47000000000E+01 0.  1.
<mgrwt>
<rscale>  2 0.17544051E+03</rscale>
<asrwt>0</asrwt>
<pdfrwt beam="1">  1       21 0.14688336E+00 0.17550964E+03</pdfrwt>
<pdfrwt beam="2">  1       21 0.12085223E-01 0.17550964E+03</pdfrwt>
<totfact> 0.18518359E+04</totfact>
</mgrwt>
</event>
<event>
12    1  0.1441827E-001  0.1786625E+03  0.7546771E-02  0.1169408E+00
         21   -1    0    0  504  503  0.00000000000E+00  0.00000000000E+00  0.15508955981E+03  0.15508955981E+03  0.00000000000E+00 0. -1.
         21   -1    0    0  502  504 -0.00000000000E+00 -0.00000000000E+00 -0.52807772224E+03  0.52807772224E+03  0.00000000000E+00 0. -1.
          6    2    1    2  502    0 -0.11789951186E+02  0.35098930995E+02 -0.45367244350E+03  0.48713095580E+03  0.17351352742E+03 0.  0.
         24    2    3    3    0    0  0.41816518105E+02  0.32587369556E+01 -0.37788344136E+03  0.38887865633E+03  0.81679088746E+02 0.  0.
         -6    2    1    2    0  503  0.11789951186E+02 -0.35098930995E+02  0.80684281074E+02  0.19603632626E+03  0.17478372377E+03 0.  0.
        -24    2    5    5    0    0  0.17975234140E+02  0.35339767180E+02  0.89793759193E+02  0.12458745980E+03  0.76727490271E+02 0.  0.
          4    1    4    4  501    0  0.16234419498E+02  0.14692490645E+02 -0.34492211033E+03  0.34561638829E+03  0.00000000000E+00 0. -1.
         -3    1    4    4    0  501  0.25582098607E+02 -0.11433753689E+02 -0.32961331030E+02  0.43262268039E+02  0.00000000000E+00 0.  1.
          5    1    3    3  502    0 -0.53606469291E+02  0.31840194039E+02 -0.75789002141E+02  0.98252299474E+02  0.47000000000E+01 0. -1.
         11    1    6    6    0    0  0.23164386073E+02  0.57627821105E+02  0.55107785619E+02  0.83032659739E+02  0.00000000000E+00 0. -1.
        -12    1    6    6    0    0 -0.51891519328E+01 -0.22288053925E+02  0.34685973574E+02  0.41554800064E+02  0.00000000000E+00 0.  1.
         -5    1    5    5    0  503 -0.61852829543E+01 -0.70438698175E+02 -0.91094781192E+01  0.71448866453E+02  0.47000000000E+01 0.  1.
<mgrwt>
<rscale>  2 0.17835108E+03</rscale>
<asrwt>0</asrwt>
<pdfrwt beam="1">  1       21 0.23859933E-01 0.17866250E+03</pdfrwt>
<pdfrwt beam="2">  1       21 0.81242725E-01 0.17866250E+03</pdfrwt>
<totfact> 0.22171631E+04</totfact>
</mgrwt>
</event>
<event>
12    1  0.1441827E-001  0.2468123E+03  0.7546771E-02  0.1115368E+00
         21   -1    0    0  504  503  0.00000000000E+00  0.00000000000E+00  0.76870004671E+02  0.76870004671E+02  0.00000000000E+00 0.  1.
         21   -1    0    0  502  504 -0.00000000000E+00 -0.00000000000E+00 -0.84660482663E+03  0.84660482663E+03  0.00000000000E+00 0.  1.
          6    2    1    2  502    0  0.16237447260E+03 -0.68931873799E+02 -0.50218085895E+03  0.55946736293E+03  0.17233990401E+03 0.  0.
         24    2    3    3    0    0  0.11059130035E+03 -0.87457191942E+02 -0.46610881654E+03  0.49352825023E+03  0.80209156493E+02 0.  0.
         -6    2    1    2    0  503 -0.16237447260E+03  0.68931873799E+02 -0.26755396301E+03  0.36400746837E+03  0.17262456758E+03 0.  0.
        -24    2    5    5    0    0 -0.76168013075E+02  0.44225842754E+02 -0.24328721725E+03  0.27098646761E+03  0.80545044322E+02 0.  0.
          4    1    4    4  501    0  0.82839193616E+02 -0.55392042279E+02 -0.19362458604E+03  0.21776384150E+03  0.00000000000E+00 0. -1.
         -3    1    4    4    0  501  0.27752106739E+02 -0.32065149663E+02 -0.27248423050E+03  0.27576440873E+03  0.00000000000E+00 0.  1.
          5    1    3    3  502    0  0.51783172242E+02  0.18525318143E+02 -0.36072042410E+02  0.65939112698E+02  0.47000000000E+01 0. -1.
         11    1    6    6    0    0 -0.50179982943E+02  0.57371531283E+02 -0.10548743100E+03  0.13014269625E+03  0.00000000000E+00 0. -1.
        -12    1    6    6    0    0 -0.25988030132E+02 -0.13145688529E+02 -0.13779978626E+03  0.14084377135E+03  0.00000000000E+00 0.  1.
         -5    1    5    5    0  503 -0.86206459521E+02  0.24706031045E+02 -0.24266745756E+02  0.93021000762E+02  0.47000000000E+01 0.  1.
<mgrwt>
<rscale>  2 0.24676254E+03</rscale>
<asrwt>0</asrwt>
<pdfrwt beam="1">  1       21 0.11826155E-01 0.24681231E+03</pdfrwt>
<pdfrwt beam="2">  1       21 0.13024689E+00 0.24681231E+03</pdfrwt>
<totfact> 0.25125102E+04</totfact>
</mgrwt>
</event>
<event>
12    1  0.1441827E-001  0.1866896E+03  0.7546771E-02  0.1161591E+00
         21   -1    0    0  504  503  0.00000000000E+00  0.00000000000E+00  0.69424037745E+02  0.69424037745E+02  0.00000000000E+00 0.  1.
         21   -1    0    0  502  504 -0.00000000000E+00 -0.00000000000E+00 -0.18664755777E+04  0.18664755777E+04  0.00000000000E+00 0.  1.
          6    2    1    2  502    0  0.43043115998E+02 -0.56051908385E+02 -0.17262035218E+04  0.17362187089E+04  0.17228546112E+03 0.  0.
         24    2    3    3    0    0 -0.86853040709E+01 -0.78790567094E+02 -0.14411425241E+04  0.14455733262E+04  0.80666466269E+02 0.  0.
         -6    2    1    2    0  503 -0.43043115998E+02  0.56051908385E+02 -0.70848018155E+02  0.19968090657E+03  0.17279611252E+03 0.  0.
        -24    2    5    5    0    0 -0.71645213916E+02 -0.95413783419E+01 -0.69244710160E+02  0.12795071860E+03  0.79702458735E+02 0.  0.
          2    1    4    4  501    0 -0.19055001784E+01 -0.78606941951E+02 -0.70041717401E+03  0.70481692651E+03  0.00000000000E+00 0. -1.
         -1    1    4    4    0  501 -0.67798038925E+01 -0.18362514289E+00 -0.74072535007E+03  0.74075639970E+03  0.00000000000E+00 0.  1.
          5    1    3    3  502    0  0.51728420069E+02  0.22738658709E+02 -0.28506099777E+03  0.29064538271E+03  0.47000000000E+01 0. -1.
         11    1    6    6    0    0 -0.13001188612E+00 -0.10823947947E+02 -0.53666404446E+02  0.54747216536E+02  0.00000000000E+00 0. -1.
        -12    1    6    6    0    0 -0.71515202030E+02  0.12825696046E+01 -0.15578305714E+02  0.73203502068E+02  0.00000000000E+00 0.  1.
         -5    1    5    5    0  503  0.28602097918E+02  0.65593286727E+02 -0.16033079950E+01  0.71730187964E+02  0.47000000000E+01 0.  1.
<mgrwt>
<rscale>  2 0.18657139E+03</rscale>
<asrwt>0</asrwt>
<pdfrwt beam="1">  1       21 0.10680622E-01 0.18668964E+03</pdfrwt>
<pdfrwt beam="2">  1       21 0.28715006E+00 0.18668964E+03</pdfrwt>
<totfact> 0.29440544E+03</totfact>
</mgrwt>
</event>
<event>
12    1  0.1441827E-001  0.2658883E+03  0.7546771E-02  0.1105697E+00
         21   -1    0    0  504  503  0.00000000000E+00  0.00000000000E+00  0.65220378056E+03  0.65220378056E+03  0.00000000000E+00 0. -1.
         21   -1    0    0  502  504 -0.00000000000E+00 -0.00000000000E+00 -0.11658414997E+03  0.11658414997E+03  0.00000000000E+00 0.  1.
          6    2    1    2  502    0  0.62834954615E+02  0.17291206655E+03  0.14247653842E+03  0.30165569198E+03  0.19196296055E+03 0.  0.
         24    2    3    3    0    0 -0.27155903758E+02  0.78102215762E+02  0.10650848906E+02  0.11594795166E+03  0.80579697795E+02 0.  0.
         -6    2    1    2    0  503 -0.62834954615E+02 -0.17291206655E+03  0.39314309216E+03  0.46713223855E+03  0.17263899646E+03 0.  0.
        -24    2    5    5    0    0 -0.89378005084E+02 -0.63878463174E+02  0.24922433278E+03  0.28457386571E+03  0.82465939290E+02 0.  0.
          2    1    4    4  501    0 -0.38113505073E+02  0.86299861858E+02 -0.58358540234E+01  0.94521757378E+02  0.00000000000E+00 0. -1.
         -1    1    4    4    0  501  0.10957601315E+02 -0.81976460958E+01  0.16486702929E+02  0.21426194286E+02  0.00000000000E+00 0.  1.
          5    1    3    3  502    0  0.89990858373E+02  0.94809850785E+02  0.13182568951E+03  0.18570774031E+03  0.47000000000E+01 0. -1.
         13    1    6    6    0    0  0.50645289633E+01  0.10339124032E+02  0.52897504925E+01  0.12669980254E+02  0.00000000000E+00 0. -1.
        -14    1    6    6    0    0 -0.94442534048E+02 -0.74217587206E+02  0.24393458229E+03  0.27190388545E+03  0.00000000000E+00 0.  1.
         -5    1    5    5    0  503  0.26543050470E+02 -0.10903360337E+03  0.14391875938E+03  0.18255837284E+03  0.47000000000E+01 0.  1.
<mgrwt>
<rscale>  2 0.26242192E+03</rscale>
<asrwt>0</asrwt>
<pdfrwt beam="1">  1       21 0.10033904E+00 0.26588831E+03</pdfrwt>
<pdfrwt beam="2">  1       21 0.17936023E-01 0.26588831E+03</pdfrwt>
<totfact> 0.22130784E+04</totfact>
</mgrwt>
</event>
<event>
12    1  0.1441827E-001  0.2491252E+03  0.7546771E-02  0.1114129E+00
         21   -1    0    0  504  503  0.00000000000E+00  0.00000000000E+00  0.95305323296E+03  0.95305323296E+03  0.00000000000E+00 0. -1.
         21   -1    0    0  502  504 -0.00000000000E+00 -0.00000000000E+00 -0.10084812282E+03  0.10084812282E+03  0.00000000000E+00 0. -1.
          6    2    1    2  502    0  0.16240962872E+03  0.72710756822E+02  0.11145699088E+03  0.27292129088E+03  0.17435489252E+03 0.  0.
         24    2    3    3    0    0  0.77219754223E+02  0.25968070061E+01  0.11927356712E+03  0.16221235024E+03  0.78211437196E+02 0.  0.
         -6    2    1    2    0  503 -0.16240962872E+03 -0.72710756822E+02  0.74074811926E+03  0.78098006490E+03  0.17192540222E+03 0.  0.
        -24    2    5    5    0    0 -0.79053814273E+02 -0.57386423110E+02  0.23933150519E+03  0.27242944021E+03  0.85997229081E+02 0.  0.
          2    1    4    4  501    0  0.90650769996E+02  0.13723815776E+02  0.10687825021E+03  0.14081500484E+03  0.00000000000E+00 0. -1.
         -1    1    4    4    0  501 -0.13431015773E+02 -0.11127008770E+02  0.12395316903E+02  0.21397345395E+02  0.00000000000E+00 0.  1.
          5    1    3    3  502    0  0.85189874492E+02  0.70113949816E+02 -0.78165762372E+01  0.11070894065E+03  0.47000000000E+01 0. -1.
         11    1    6    6    0    0 -0.79914141315E+02 -0.31217552890E+02  0.22853342595E+03  0.24410721490E+03  0.00000000000E+00 0. -1.
        -12    1    6    6    0    0  0.86032704154E+00 -0.26168870220E+02  0.10798079236E+02  0.28322225308E+02  0.00000000000E+00 0.  1.
         -5    1    5    5    0  503 -0.83355814442E+02 -0.15324333712E+02  0.50141661407E+03  0.50855062468E+03  0.47000000000E+01 0.  1.
<mgrwt>
<rscale>  2 0.24870057E+03</rscale>
<asrwt>0</asrwt>
<pdfrwt beam="1">  1       21 0.14662357E+00 0.24912521E+03</pdfrwt>
<pdfrwt beam="2">  1       21 0.15515097E-01 0.24912521E+03</pdfrwt>
<totfact> 0.11270662E+04</totfact>
</mgrwt>
</event>
<event>
12    1  0.1441827E-001  0.3343811E+03  0.7546771E-02  0.1069321E+00
         21   -1    0    0  504  503  0.00000000000E+00  0.00000000000E+00  0.10572634859E+03  0.10572634859E+03  0.00000000000E+00 0. -1.
         21   -1    0    0  502  504 -0.00000000000E+00 -0.00000000000E+00 -0.10557448336E+04  0.10557448336E+04  0.00000000000E+00 0.  1.
          6    2    1    2  502    0 -0.28531239278E+03 -0.67046985011E+00 -0.49446026993E+03  0.59636589509E+03  0.17250423557E+03 0.  0.
         24    2    3    3    0    0 -0.25363965921E+03  0.22339765143E+02 -0.48828288967E+03  0.55645495683E+03  0.79936204630E+02 0.  0.
         -6    2    1    2    0  503  0.28531239278E+03  0.67046985011E+00 -0.45555821511E+03  0.56510528712E+03  0.17437628040E+03 0.  0.
        -24    2    5    5    0    0  0.51395191839E+02 -0.27018726431E+02 -0.13106585156E+03  0.16410487254E+03  0.79879123830E+02 0.  0.
          2    1    4    4  501    0 -0.27439793425E+02  0.98717411738E+01 -0.12473868783E+03  0.12810204439E+03  0.00000000000E+00 0. -1.
         -1    1    4    4    0  501 -0.22619986579E+03  0.12468023969E+02 -0.36354420184E+03  0.42835291244E+03  0.00000000000E+00 0.  1.
          5    1    3    3  502    0 -0.31672733567E+02 -0.23010234993E+02 -0.61773802623E+01  0.39910938262E+02  0.47000000000E+01 0. -1.
         11    1    6    6    0    0 -0.14754502697E+01 -0.42133318450E+02 -0.71766589903E+02  0.83233628441E+02  0.00000000000E+00 0. -1.
        -12    1    6    6    0    0  0.52870642109E+02  0.15114592019E+02 -0.59299261654E+02  0.80871244096E+02  0.00000000000E+00 0.  1.
         -5    1    5    5    0  503  0.23391720094E+03  0.27689196281E+02 -0.32449236355E+03  0.40100041458E+03  0.47000000000E+01 0.  1.
<mgrwt>
<rscale>  2 0.33413770E+03</rscale>
<asrwt>0</asrwt>
<pdfrwt beam="1">  1       21 0.16265592E-01 0.33438107E+03</pdfrwt>
<pdfrwt beam="2">  1       21 0.16242228E+00 0.33438107E+03</pdfrwt>
<totfact> 0.74897927E+03</totfact>
</mgrwt>
</event>
<event>
12    1  0.1441827E-001  0.1841092E+03  0.7546771E-02  0.1164420E+00
         21   -1    0    0  504  503  0.00000000000E+00  0.00000000000E+00  0.12441078870E+04  0.12441078870E+04  0.00000000000E+00 0. -1.
         21   -1    0    0  502  504 -0.00000000000E+00 -0.00000000000E+00 -0.47856841505E+02  0.47856841505E+02  0.00000000000E+00 0. -1.
          6    2    1    2  502    0 -0.14355654835E+02  0.61910388211E+02  0.17284987745E+03  0.25253373825E+03  0.17279244147E+03 0.  0.
         24    2    3    3    0    0 -0.56320519353E+02  0.90478398897E+02  0.13080230026E+03  0.18644841586E+03  0.79343736091E+02 0.  0.
         -6    2    1    2    0  503  0.14355654835E+02 -0.61910388211E+02  0.10234011680E+04  0.10394309902E+04  0.17037561954E+03 0.  0.
        -24    2    5    5    0    0  0.69625400058E+02 -0.25481878435E+02  0.74195817551E+03  0.75027008503E+03  0.83103813477E+02 0.  0.
          4    1    4    4  501    0 -0.43150199724E+02  0.27523322611E+02  0.13922810503E+02  0.53040717152E+02  0.00000000000E+00 0. -1.
         -3    1    4    4    0  501 -0.13170319630E+02  0.62955076286E+02  0.11687948975E+03  0.13340769871E+03  0.00000000000E+00 0.  1.
          5    1    3    3  502    0  0.41964864518E+02 -0.28568010686E+02  0.42047577190E+02  0.66085322396E+02  0.47000000000E+01 0. -1.
         11    1    6    6    0    0  0.81359954416E+02 -0.17363976713E+02  0.42929808788E+03  0.43728457339E+03  0.00000000000E+00 0. -1.
        -12    1    6    6    0    0 -0.11734554358E+02 -0.81179017220E+01  0.31266008764E+03  0.31298551164E+03  0.00000000000E+00 0.  1.
         -5    1    5    5    0  503 -0.55269745223E+02 -0.36428509776E+02  0.28144299249E+03  0.28916090518E+03  0.47000000000E+01 0.  1.
<mgrwt>
<rscale>  2 0.18354001E+03</rscale>
<asrwt>0</asrwt>
<pdfrwt beam="1">  1       21 0.19140119E+00 0.18410923E+03</pdfrwt>
<pdfrwt beam="2">  1       21 0.73625919E-02 0.18410923E+03</pdfrwt>
<totfact> 0.21300102E+04</totfact>
</mgrwt>
</event>
<event>
12    1  0.1441827E-001  0.1893740E+03  0.7546771E-02  0.1159251E+00
         21   -1    0    0  504  503  0.00000000000E+00  0.00000000000E+00  0.27125962671E+03  0.27125962671E+03  0.00000000000E+00 0.  1.
         21   -1    0    0  502  504 -0.00000000000E+00 -0.00000000000E+00 -0.14963699317E+03  0.14963699317E+03  0.00000000000E+00 0.  1.
          6    2    1    2  502    0  0.71529332653E+02  0.36669423459E+02 -0.12551518393E+02  0.18880777602E+03  0.17038117157E+03 0.  0.
         24    2    3    3    0    0  0.84983241637E+02  0.81662584341E+02 -0.12972921528E+02  0.14160968523E+03  0.77421426095E+02 0.  0.
         -6    2    1    2    0  503 -0.71529332653E+02 -0.36669423459E+02  0.13417415194E+03  0.23208884386E+03  0.17146847043E+03 0.  0.
        -24    2    5    5    0    0 -0.13226544489E+02  0.35704923915E+02  0.24669848957E+02  0.88385873690E+02  0.75853003562E+02 0.  0.
          2    1    4    4  501    0  0.26093266197E+02  0.25156801390E+02  0.32064970679E+02  0.48393031953E+02  0.00000000000E+00 0. -1.
         -1    1    4    4    0  501  0.58889975441E+02  0.56505782951E+02 -0.45037892208E+02  0.93216653280E+02  0.00000000000E+00 0.  1.
          5    1    3    3  502    0 -0.13453908984E+02 -0.44993160882E+02  0.42140313538E+00  0.47198090785E+02  0.47000000000E+01 0. -1.
         11    1    6    6    0    0 -0.87710993843E+01  0.25372568704E+02 -0.25465972732E+02  0.37002907916E+02  0.00000000000E+00 0. -1.
        -12    1    6    6    0    0 -0.44554451052E+01  0.10332355211E+02  0.50135821689E+02  0.51382965774E+02  0.00000000000E+00 0.  1.
         -5    1    5    5    0  503 -0.58302788164E+02 -0.72374347374E+02  0.10950430298E+03  0.14370297017E+03  0.47000000000E+01 0.  1.
<mgrwt>
<rscale>  2 0.18912758E+03</rscale>
<asrwt>0</asrwt>
<pdfrwt beam="1">  1       21 0.41732250E-01 0.18937404E+03</pdfrwt>
<pdfrwt beam="2">  1       21 0.23021076E-01 0.18937404E+03</pdfrwt>
<totfact> 0.98060657E+04</totfact>
</mgrwt>
</event>
<event>
12    1  0.1441827E-001  0.2835967E+03  0.7546771E-02  0.1093850E+00
         21   -1    0    0  504  503  0.00000000000E+00  0.00000000000E+00  0.69105638522E+03  0.69105638522E+03  0.00000000000E+00 0.  1.
         21   -1    0    0  502  504 -0.00000000000E+00 -0.00000000000E+00 -0.17409935265E+03  0.17409935265E+03  0.00000000000E+00 0.  1.
          6    2    1    2  502    0 -0.19999209313E+03  0.98993295156E+02  0.89401246499E+01  0.28373756692E+03  0.17501591714E+03 0.  0.
         24    2    3    3    0    0 -0.12429255502E+03  0.89153751771E+01 -0.42581308040E+02  0.15520352565E+03  0.82139171127E+02 0.  0.
         -6    2    1    2    0  503  0.19999209313E+03 -0.98993295156E+02  0.50801690792E+03  0.58141817094E+03  0.17369341084E+03 0.  0.
        -24    2    5    5    0    0  0.88315814608E+02 -0.12001716908E+03  0.30392776426E+03  0.34777728621E+03  0.79832016959E+02 0.  0.
          4    1    4    4  501    0 -0.36853278623E+02 -0.13740892514E+02  0.21149115454E+02  0.44657153479E+02  0.00000000000E+00 0. -1.
         -3    1    4    4    0  501 -0.87439276394E+02  0.22656267691E+02 -0.63730423494E+02  0.11054637217E+03  0.00000000000E+00 0.  1.
          5    1    3    3  502    0 -0.75699538114E+02  0.90077919979E+02  0.51521432690E+02  0.12853404127E+03  0.47000000000E+01 0. -1.
         13    1    6    6    0    0  0.93341071775E+02 -0.99588727314E+02  0.29475991674E+03  0.32482899933E+03  0.00000000000E+00 0. -1.
        -14    1    6    6    0    0 -0.50252571662E+01 -0.20428441765E+02  0.91678475149E+01  0.22948286877E+02  0.00000000000E+00 0.  1.
         -5    1    5    5    0  503  0.11167627852E+03  0.21023873923E+02  0.20408914366E+03  0.23364088473E+03  0.47000000000E+01 0.  1.
<mgrwt>
<rscale>  2 0.28339291E+03</rscale>
<asrwt>0</asrwt>
<pdfrwt beam="1">  1       21 0.10631637E+00 0.28359669E+03</pdfrwt>
<pdfrwt beam="2">  1       21 0.26784516E-01 0.28359669E+03</pdfrwt>
<totfact> 0.89022228E+03</totfact>
</mgrwt>
</event>
<event>
12    1  0.1441827E-001  0.2175940E+03  0.7546771E-02  0.1135813E+00
         21   -1    0    0  504  503  0.00000000000E+00  0.00000000000E+00  0.19738433309E+03  0.19738433309E+03  0.00000000000E+00 0. -1.
         21   -1    0    0  502  504 -0.00000000000E+00 -0.00000000000E+00 -0.30693633082E+03  0.30693633082E+03  0.00000000000E+00 0.  1.
          6    2    1    2  502    0  0.11778775607E+03 -0.51221051840E+02 -0.17333775109E+03  0.27819621560E+03  0.17564056135E+03 0.  0.
         24    2    3    3    0    0  0.20371939657E+02  0.26256636541E+02 -0.10557461159E+03  0.13639859024E+03  0.79712921903E+02 0.  0.
         -6    2    1    2    0  503 -0.11778775607E+03  0.51221051840E+02  0.63785753365E+02  0.22612444831E+03  0.17483161086E+03 0.  0.
        -24    2    5    5    0    0 -0.12061880426E+03  0.90336529824E+02  0.72690403978E+02  0.18563471807E+03  0.80416224504E+02 0.  0.
          2    1    4    4  501    0  0.16973472519E+02  0.37884526377E+02 -0.13680165197E+02  0.43709072604E+02  0.00000000000E+00 0. -1.
         -1    1    4    4    0  501  0.33984671388E+01 -0.11627889835E+02 -0.91894446397E+02  0.92689517635E+02  0.00000000000E+00 0.  1.
          5    1    3    3  502    0  0.97415816416E+02 -0.77477688381E+02 -0.67763139496E+02  0.14179762537E+03  0.47000000000E+01 0. -1.
         13    1    6    6    0    0 -0.26592257209E+02  0.62500920186E+02  0.51681410483E+02  0.85349173148E+02  0.00000000000E+00 0. -1.
        -14    1    6    6    0    0 -0.94026547047E+02  0.27835609638E+02  0.21008993494E+02  0.10028554493E+03  0.00000000000E+00 0.  1.
         -5    1    5    5    0  503  0.28310481827E+01 -0.39115477985E+02 -0.89046506122E+01  0.40489730233E+02  0.47000000000E+01 0.  1.
<mgrwt>
<rscale>  2 0.21743072E+03</rscale>
<asrwt>0</asrwt>
<pdfrwt beam="1">  1       21 0.30366821E-01 0.21759402E+03</pdfrwt>
<pdfrwt beam="2">  1       21 0.47220974E-01 0.21759402E+03</pdfrwt>
<totfact> 0.44109274E+04</totfact>
</mgrwt>
</event>
<event>
12    1  0.1441827E-001  0.1785268E+03  0.7546771E-02  0.1170158E+00
         21   -1    0    0  504  503  0.00000000000E+00  0.00000000000E+00  0.57777539224E+02  0.57777539224E+02  0.00000000000E+00 0.  1.
         21   -1    0    0  502  504 -0.00000000000E+00 -0.00000000000E+00 -0.72143105366E+03  0.72143105366E+03  0.00000000000E+00 0.  1.
          6    2    1    2  502    0 -0.45865557269E+02  0.86508966444E+01 -0.52448408971E+03  0.55284615062E+03  0.16845420309E+03 0.  0.
         24    2    3    3    0    0 -0.62051053673E+02 -0.37300006333E+02 -0.45146007368E+03  0.46493680700E+03  0.84311402797E+02 0.  0.
         -6    2    1    2    0  503  0.45865557269E+02 -0.86508966444E+01 -0.13916942472E+03  0.22636244226E+03  0.17231755318E+03 0.  0.
        -24    2    5    5    0    0  0.87652641226E+02  0.26484246819E+02 -0.10713695665E+03  0.16288955275E+03  0.81671770347E+02 0.  0.
          4    1    4    4  501    0 -0.27729376734E+01 -0.48088116921E+02 -0.25251501749E+03  0.25706806537E+03  0.00000000000E+00 0. -1.
         -3    1    4    4    0  501 -0.59278116000E+02  0.10788110587E+02 -0.19894505619E+03  0.20786874163E+03  0.00000000000E+00 0.  1.
          5    1    3    3  502    0  0.16185496404E+02  0.45950902978E+02 -0.73024016034E+02  0.87909343622E+02  0.47000000000E+01 0. -1.
         11    1    6    6    0    0  0.60825676950E+02  0.11606066750E+02 -0.11553598792E+03  0.13108405039E+03  0.00000000000E+00 0. -1.
        -12    1    6    6    0    0  0.26826964276E+02  0.14878180069E+02  0.83990312656E+01  0.31805502364E+02  0.00000000000E+00 0.  1.
         -5    1    5    5    0  503 -0.41787083957E+02 -0.35135143463E+02 -0.32032468065E+02  0.63472889506E+02  0.47000000000E+01 0.  1.
<mgrwt>
<rscale>  2 0.17758793E+03</rscale>
<asrwt>0</asrwt>
<pdfrwt beam="1">  1       21 0.88888523E-02 0.17852682E+03</pdfrwt>
<pdfrwt beam="2">  1       21 0.11098939E+00 0.17852682E+03</pdfrwt>
<totfact> 0.64237471E+04</totfact>
</mgrwt>
</event>
<event>
12    1  0.1441827E-001  0.2065116E+03  0.7546771E-02  0.1145086E+00
         21   -1    0    0  504  503  0.00000000000E+00  0.00000000000E+00  0.43002498804E+02  0.43002498804E+02  0.00000000000E+00 0. -1.
         21   -1    0    0  502  504 -0.00000000000E+00 -0.00000000000E+00 -0.12955661067E+04  0.12955661067E+04  0.00000000000E+00 0. -1.
          6    2    1    2  502    0 -0.10172112332E+03  0.48941690838E+02 -0.28911315603E+03  0.35323424558E+03  0.16865805415E+03 0.  0.
         24    2    3    3    0    0 -0.53656355842E+01  0.61020570727E+02 -0.11419573817E+03  0.15311310121E+03  0.81551548405E+02 0.  0.
         -6    2    1    2    0  503  0.10172112332E+03 -0.48941690838E+02 -0.96345045190E+03  0.98533435995E+03  0.17292932548E+03 0.  0.
        -24    2    5    5    0    0  0.49019874550E+02 -0.94936480382E+02 -0.70271526113E+03  0.71533830074E+03  0.80524920802E+02 0.  0.
          4    1    4    4  501    0  0.23247289126E+01 -0.56325661787E+01  0.10139482934E+02  0.11829593418E+02  0.00000000000E+00 0. -1.
         -3    1    4    4    0  501 -0.76903644968E+01  0.66653136905E+02 -0.12433522111E+03  0.14128350779E+03  0.00000000000E+00 0.  1.
          5    1    3    3  502    0 -0.96355487738E+02 -0.12078879888E+02 -0.17491741786E+03  0.20012114438E+03  0.47000000000E+01 0. -1.
         13    1    6    6    0    0  0.35936903079E+02 -0.44836523151E+02 -0.56985028599E+03  0.57274001366E+03  0.00000000000E+00 0. -1.
        -14    1    6    6    0    0  0.13082971471E+02 -0.50099957231E+02 -0.13286497514E+03  0.14259828707E+03  0.00000000000E+00 0.  1.
         -5    1    5    5    0  503  0.52701248772E+02  0.45994789544E+02 -0.26073519077E+03  0.26999605922E+03  0.47000000000E+01 0.  1.
<mgrwt>
<rscale>  2 0.20561493E+03</rscale>
<asrwt>0</asrwt>
<pdfrwt beam="1">  1       21 0.66157690E-02 0.20651157E+03</pdfrwt>
<pdfrwt beam="2">  1       21 0.19931786E+00 0.20651157E+03</pdfrwt>
<totfact> 0.22383882E+04</totfact>
</mgrwt>
</event>
<event>
12    1  0.1441827E-001  0.2088106E+03  0.7546771E-02  0.1142544E+00
         21   -1    0    0  504  503  0.00000000000E+00  0.00000000000E+00  0.81710946122E+02  0.81710946122E+02  0.00000000000E+00 0. -1.
         21   -1    0    0  502  504 -0.00000000000E+00 -0.00000000000E+00 -0.76736886909E+03  0.76736886909E+03  0.00000000000E+00 0. -1.
          6    2    1    2  502    0 -0.71463698428E+01 -0.11650969040E+03 -0.57726036583E+03  0.61380993371E+03  0.17293792587E+03 0.  0.
         24    2    3    3    0    0 -0.38022101743E+02 -0.13384283200E+03 -0.53293330034E+03  0.55688254704E+03  0.82101672854E+02 0.  0.
         -6    2    1    2    0  503  0.71463698428E+01  0.11650969040E+03 -0.10839755714E+03  0.23526988150E+03  0.17313667488E+03 0.  0.
        -24    2    5    5    0    0 -0.37487983118E+02  0.13206911147E+03 -0.75613080961E+02  0.17755304751E+03  0.83427498966E+02 0.  0.
          4    1    4    4  501    0 -0.42242199469E+02 -0.14338075978E+03 -0.51368157845E+03  0.53498711174E+03  0.00000000000E+00 0. -1.
         -3    1    4    4    0  501  0.42200977258E+01  0.95379277780E+01 -0.19251721895E+02  0.21895435302E+02  0.00000000000E+00 0.  1.
          5    1    3    3  502    0  0.30875731900E+02  0.17333141604E+02 -0.44327065488E+02  0.56927386669E+02  0.47000000000E+01 0. -1.
         13    1    6    6    0    0  0.16691619508E+02  0.40143203900E+01  0.35807978820E+01  0.17537019230E+02  0.00000000000E+00 0. -1.
        -14    1    6    6    0    0 -0.54179602626E+02  0.12805479108E+03 -0.79193878843E+02  0.16001602828E+03  0.00000000000E+00 0.  1.
         -5    1    5    5    0  503  0.44634352961E+02 -0.15559421072E+02 -0.32784476175E+02  0.57716833995E+02  0.47000000000E+01 0.  1.
<mgrwt>
<rscale>  2 0.20876944E+03</rscale>
<asrwt>0</asrwt>
<pdfrwt beam="1">  1       21 0.12570915E-01 0.20881065E+03</pdfrwt>
<pdfrwt beam="2">  1       21 0.11805675E+00 0.20881065E+03</pdfrwt>
<totfact> 0.29408054E+04</totfact>
</mgrwt>
</event>
<event>
12    1  0.1441827E-001  0.2271679E+03  0.7546771E-02  0.1128780E+00
         21   -1    0    0  504  503  0.00000000000E+00  0.00000000000E+00  0.96268779579E+02  0.96268779579E+02  0.00000000000E+00 0. -1.
         21   -1    0    0  502  504 -0.00000000000E+00 -0.00000000000E+00 -0.55895991332E+03  0.55895991332E+03  0.00000000000E+00 0. -1.
          6    2    1    2  502    0 -0.14384624654E+03  0.27646093751E+02 -0.30047184346E+03  0.37668099506E+03  0.17363523313E+03 0.  0.
         24    2    3    3    0    0 -0.15419089401E+03 -0.40756382900E+01 -0.29493372304E+03  0.34253365559E+03  0.80944188176E+02 0.  0.
         -6    2    1    2    0  503  0.14384624654E+03 -0.27646093751E+02 -0.16221929029E+03  0.27854769785E+03  0.17267794500E+03 0.  0.
        -24    2    5    5    0    0  0.10477445575E+03 -0.83700927409E+02 -0.97631178384E+02  0.18440704026E+03  0.80564121526E+02 0.  0.
          4    1    4    4  501    0 -0.14850976092E+03 -0.26565109631E+02 -0.25997971493E+03  0.30058327683E+03  0.00000000000E+00 0. -1.
         -3    1    4    4    0  501 -0.56811330931E+01  0.22489471341E+02 -0.34954008114E+02  0.41950378755E+02  0.00000000000E+00 0.  1.
          5    1    3    3  502    0  0.10344647471E+02  0.31721732041E+02 -0.55381204115E+01  0.34147339466E+02  0.47000000000E+01 0. -1.
         11    1    6    6    0    0  0.80530067188E+02 -0.36415376693E+02 -0.20473355289E+02  0.90721164332E+02  0.00000000000E+00 0. -1.
        -12    1    6    6    0    0  0.24244388561E+02 -0.47285550716E+02 -0.77157823094E+02  0.93685875925E+02  0.00000000000E+00 0.  1.
         -5    1    5    5    0  503  0.39071790789E+02  0.56054833658E+02 -0.64588111903E+02  0.94140657588E+02  0.47000000000E+01 0.  1.
<mgrwt>
<rscale>  2 0.22698494E+03</rscale>
<asrwt>0</asrwt>
<pdfrwt beam="1">  1       21 0.14810581E-01 0.22716787E+03</pdfrwt>
<pdfrwt beam="2">  1       21 0.85993834E-01 0.22716787E+03</pdfrwt>
<totfact> 0.46054598E+04</totfact>
</mgrwt>
</event>
<event>
12    1  0.1441827E-001  0.2934457E+03  0.7546771E-02  0.1088804E+00
         21   -1    0    0  504  503  0.00000000000E+00  0.00000000000E+00  0.36771300903E+03  0.36771300903E+03  0.00000000000E+00 0.  1.
         21   -1    0    0  502  504 -0.00000000000E+00 -0.00000000000E+00 -0.24243133562E+03  0.24243133562E+03  0.00000000000E+00 0.  1.
          6    2    1    2  502    0 -0.62559357639E+01 -0.23703163576E+03  0.13058372964E+01  0.29158447945E+03  0.16969581717E+03 0.  0.
         24    2    3    3    0    0 -0.11977536571E+02 -0.52998396917E+02 -0.24980466010E+02  0.10553601949E+03  0.86957094414E+02 0.  0.
         -6    2    1    2    0  503  0.62559357639E+01  0.23703163576E+03  0.12397583612E+03  0.31855986520E+03  0.17287928358E+03 0.  0.
        -24    2    5    5    0    0  0.11871568877E+01  0.34749830051E+02  0.42234961774E+02  0.10027729150E+03  0.84040366283E+02 0.  0.
          2    1    4    4  501    0 -0.33911720852E+02 -0.12467248846E+02  0.19865288668E+02  0.41231866303E+02  0.00000000000E+00 0. -1.
         -1    1    4    4    0  501  0.21934184281E+02 -0.40531148070E+02 -0.44845754678E+02  0.64304153183E+02  0.00000000000E+00 0.  1.
          5    1    3    3  502    0  0.57216008074E+01 -0.18403323884E+03  0.26286303306E+02  0.18604845997E+03  0.47000000000E+01 0. -1.
         13    1    6    6    0    0 -0.23313355333E+02  0.36183083869E+02 -0.85397132344E+01  0.43882283410E+02  0.00000000000E+00 0. -1.
        -14    1    6    6    0    0  0.24500512220E+02 -0.14332538186E+01  0.50774675008E+02  0.56395008093E+02  0.00000000000E+00 0.  1.
         -5    1    5    5    0  503  0.50687788763E+01  0.20228180571E+03  0.81740874347E+02  0.21828257369E+03  0.47000000000E+01 0.  1.
<mgrwt>
<rscale>  2 0.29297855E+03</rscale>
<asrwt>0</asrwt>
<pdfrwt beam="1">  1       21 0.56571232E-01 0.29344570E+03</pdfrwt>
<pdfrwt beam="2">  1       21 0.37297129E-01 0.29344570E+03</pdfrwt>
<totfact> 0.19365314E+04</totfact>
</mgrwt>
</event>
<event>
12    1  0.1441827E-001  0.2357287E+03  0.7546771E-02  0.1122754E+00
         21   -1    0    0  504  503  0.00000000000E+00  0.00000000000E+00  0.13507164110E+04  0.13507164110E+04  0.00000000000E+00 0. -1.
         21   -1    0    0  502  504 -0.00000000000E+00 -0.00000000000E+00 -0.66786160841E+02  0.66786160841E+02  0.00000000000E+00 0. -1.
          6    2    1    2  502    0 -0.12066535758E+03  0.10408688243E+03  0.10822950203E+04  0.11076689631E+04  0.17370611206E+03 0.  0.
         24    2    3    3    0    0 -0.10141846672E+03  0.11597726334E+03  0.10662088103E+04  0.10795143877E+04  0.69380509238E+02 0.  0.
         -6    2    1    2    0  503  0.12066535758E+03 -0.10408688243E+03  0.20163522993E+03  0.30983360875E+03  0.17304881261E+03 0.  0.
        -24    2    5    5    0    0  0.10316813181E+03 -0.14001103023E+03  0.14225215721E+03  0.23810400099E+03  0.78810450107E+02 0.  0.
          4    1    4    4  501    0 -0.96215800897E+01  0.20314395334E+01  0.25665484563E+03  0.25684316486E+03  0.00000000000E+00 0. -1.
         -3    1    4    4    0  501 -0.91796886630E+02  0.11394582380E+03  0.80955396471E+03  0.82267122287E+03  0.00000000000E+00 0.  1.
          5    1    3    3  502    0 -0.19246890864E+02 -0.11890380901E+02  0.16086209918E+02  0.28154575391E+02  0.47000000000E+01 0. -1.
         11    1    6    6    0    0  0.78199696902E+02 -0.80279653255E+02  0.43912977011E+02  0.12036762385E+03  0.00000000000E+00 0. -1.
        -12    1    6    6    0    0  0.24968434909E+02 -0.59731376976E+02  0.98339180203E+02  0.11773637713E+03  0.00000000000E+00 0.  1.
         -5    1    5    5    0  503  0.17497225773E+02  0.35924147797E+02  0.59383072713E+02  0.71729607761E+02  0.47000000000E+01 0.  1.
<mgrwt>
<rscale>  2 0.23560762E+03</rscale>
<asrwt>0</asrwt>
<pdfrwt beam="1">  1       21 0.20780250E+00 0.23572870E+03</pdfrwt>
<pdfrwt beam="2">  1       21 0.10274795E-01 0.23572870E+03</pdfrwt>
<totfact> 0.89474475E+03</totfact>
</mgrwt>
</event>
<event>
12    1  0.1441827E-001  0.3902097E+03  0.7546771E-02  0.1047227E+00
         21   -1    0    0  504  503  0.00000000000E+00  0.00000000000E+00  0.83240954684E+03  0.83240954684E+03  0.00000000000E+00 0.  1.
         21   -1    0    0  502  504 -0.00000000000E+00 -0.00000000000E+00 -0.96380968807E+03  0.96380968807E+03  0.00000000000E+00 0.  1.
          6    2    1    2  502    0 -0.34964516109E+03 -0.12615339424E+02 -0.87411486354E+03  0.95725672517E+03  0.17277950620E+03 0.  0.
         24    2    3    3    0    0 -0.34807391489E+03 -0.41320974736E+02 -0.82821753701E+03  0.90289555432E+03  0.80082583801E+02 0.  0.
         -6    2    1    2    0  503  0.34964516109E+03  0.12615339424E+02  0.74271472231E+03  0.83896250974E+03  0.17269061509E+03 0.  0.
        -24    2    5    5    0    0  0.17024773446E+03 -0.50258181470E+02  0.30798943859E+03  0.36446838056E+03  0.80433390170E+02 0.  0.
          2    1    4    4  501    0 -0.25728530152E+03 -0.43627600682E+02 -0.52357583433E+03  0.58500491298E+03  0.00000000000E+00 0. -1.
         -1    1    4    4    0  501 -0.90788613370E+02  0.23066259460E+01 -0.30464170268E+03  0.31789064134E+03  0.00000000000E+00 0.  1.
          5    1    3    3  502    0 -0.15712462006E+01  0.28705635312E+02 -0.45897326530E+02  0.54361170847E+02  0.47000000000E+01 0. -1.
         13    1    6    6    0    0  0.88347607082E+02  0.15016835621E+02  0.12858448949E+03  0.15673154107E+03  0.00000000000E+00 0. -1.
        -14    1    6    6    0    0  0.81900127380E+02 -0.65275017091E+02  0.17940494910E+03  0.20773683949E+03  0.00000000000E+00 0.  1.
         -5    1    5    5    0  503  0.17939742663E+03  0.62873520894E+02  0.43472528373E+03  0.47449412918E+03  0.47000000000E+01 0.  1.
<mgrwt>
<rscale>  2 0.39019990E+03</rscale>
<asrwt>0</asrwt>
<pdfrwt beam="1">  1       21 0.12806301E+00 0.39020974E+03</pdfrwt>
<pdfrwt beam="2">  1       21 0.14827841E+00 0.39020974E+03</pdfrwt>
<totfact> 0.11527060E+02</totfact>
</mgrwt>
</event>
<event>
12    1  0.1441827E-001  0.2153084E+03  0.7546771E-02  0.1137637E+00
         21   -1    0    0  504  503  0.00000000000E+00  0.00000000000E+00  0.19591800741E+03  0.19591800741E+03  0.00000000000E+00 0.  1.
         21   -1    0    0  502  504 -0.00000000000E+00 -0.00000000000E+00 -0.23552564090E+03  0.23552564090E+03  0.00000000000E+00 0.  1.
          6    2    1    2  502    0  0.85841462543E+02 -0.94387299221E+02 -0.15529582469E+02  0.21479309404E+03  0.17209644496E+03 0.  0.
         24    2    3    3    0    0  0.93730473877E+02 -0.20578977961E+02 -0.46972954355E+02  0.13404236387E+03  0.80944430345E+02 0.  0.
         -6    2    1    2    0  503 -0.85841462543E+02  0.94387299221E+02 -0.24078051020E+02  0.21665055428E+03  0.17343584169E+03 0.  0.
        -24    2    5    5    0    0 -0.10737912466E+03  0.52547720514E+02  0.27397419467E+02  0.14674894273E+03  0.80579738479E+02 0.  0.
          4    1    4    4  501    0  0.72975178221E+02  0.76409520127E+01 -0.61868404920E+02  0.95976352876E+02  0.00000000000E+00 0. -1.
         -3    1    4    4    0  501  0.20755295655E+02 -0.28219929974E+02  0.14895450565E+02  0.38066010994E+02  0.00000000000E+00 0.  1.
          5    1    3    3  502    0 -0.78890113342E+01 -0.73808321260E+02  0.31443371886E+02  0.80750730167E+02  0.47000000000E+01 0. -1.
         11    1    6    6    0    0  0.20889323157E+01 -0.12781387167E+02  0.13180829719E+02  0.18478684159E+02  0.00000000000E+00 0. -1.
        -12    1    6    6    0    0 -0.10946805698E+03  0.65329107681E+02  0.14216589748E+02  0.12827025857E+03  0.00000000000E+00 0.  1.
         -5    1    5    5    0  503  0.21537662120E+02  0.41839578707E+02 -0.51475470487E+02  0.69901611555E+02  0.47000000000E+01 0.  1.
<mgrwt>
<rscale>  2 0.21503854E+03</rscale>
<asrwt>0</asrwt>
<pdfrwt beam="1">  1       21 0.30141232E-01 0.21530841E+03</pdfrwt>
<pdfrwt beam="2">  1       21 0.36234714E-01 0.21530841E+03</pdfrwt>
<totfact> 0.76810449E+04</totfact>
</mgrwt>
</event>
<event>
12    1  0.1441827E-001  0.2003518E+03  0.7546771E-02  0.1153777E+00
         21   -1    0    0  504  503  0.00000000000E+00  0.00000000000E+00  0.74536926635E+02  0.74536926635E+02  0.00000000000E+00 0.  1.
         21   -1    0    0  502  504 -0.00000000000E+00 -0.00000000000E+00 -0.71658133872E+03  0.71658133872E+03  0.00000000000E+00 0.  1.
          6    2    1    2  502    0  0.22000288792E+01  0.54251970387E+02 -0.53335783333E+03  0.56318490517E+03  0.17250664512E+03 0.  0.
         24    2    3    3    0    0 -0.65267768181E+02  0.42484811156E+02 -0.28600335721E+03  0.30648138642E+03  0.77897876394E+02 0.  0.
         -6    2    1    2    0  503 -0.22000288792E+01 -0.54251970387E+02 -0.10868657875E+03  0.22793336019E+03  0.19285416217E+03 0.  0.
        -24    2    5    5    0    0  0.74255192080E+02 -0.56924605556E+02 -0.70875427704E+02  0.14246806352E+03  0.80743907530E+02 0.  0.
          4    1    4    4  501    0 -0.65929353022E+02  0.55876544080E+02 -0.18042573603E+03  0.20005577720E+03  0.00000000000E+00 0. -1.
         -3    1    4    4    0  501  0.66158484068E+00 -0.13391732924E+02 -0.10557762118E+03  0.10642560922E+03  0.00000000000E+00 0.  1.
          5    1    3    3  502    0  0.67467797060E+02  0.11767159231E+02 -0.24735447612E+03  0.25670351874E+03  0.47000000000E+01 0. -1.
         13    1    6    6    0    0  0.76546924950E+02 -0.25768569168E+02 -0.75890493519E+02  0.11082787503E+03  0.00000000000E+00 0. -1.
        -14    1    6    6    0    0 -0.22917328702E+01 -0.31156036388E+02  0.50150658150E+01  0.31640188497E+02  0.00000000000E+00 0.  1.
         -5    1    5    5    0  503 -0.76455220959E+02  0.26726351687E+01 -0.37811151047E+02  0.85465296665E+02  0.47000000000E+01 0.  1.
<mgrwt>
<rscale>  2 0.19528751E+03</rscale>
<asrwt>0</asrwt>
<pdfrwt beam="1">  1       21 0.11467219E-01 0.20035180E+03</pdfrwt>
<pdfrwt beam="2">  1       21 0.11024328E+00 0.20035180E+03</pdfrwt>
<totfact> 0.41168827E+04</totfact>
</mgrwt>
</event>
<event>
12    1  0.1441827E-001  0.1845707E+03  0.7546771E-02  0.1163772E+00
         21   -1    0    0  504  503  0.00000000000E+00  0.00000000000E+00  0.61828229881E+02  0.61828229881E+02  0.00000000000E+00 0.  1.
         21   -1    0    0  502  504 -0.00000000000E+00 -0.00000000000E+00 -0.13820663168E+04  0.13820663168E+04  0.00000000000E+00 0.  1.
          6    2    1    2  502    0 -0.40728804363E+02  0.42402075578E+02 -0.12203551259E+04  0.12340304406E+04  0.17351577257E+03 0.  0.
         24    2    3    3    0    0  0.25350799569E+02  0.24105035948E+02 -0.98789550686E+03  0.99162404582E+03  0.78466553206E+02 0.  0.
         -6    2    1    2    0  503  0.40728804363E+02 -0.42402075578E+02 -0.99882961022E+02  0.20986410615E+03  0.17495589624E+03 0.  0.
        -24    2    5    5    0    0  0.69726698612E+02  0.18920970294E+02 -0.95418866694E+02  0.14172152061E+03  0.75897389067E+02 0.  0.
          4    1    4    4  501    0 -0.28068196866E+02  0.31531192237E+01 -0.36497297551E+03  0.36606425487E+03  0.00000000000E+00 0. -1.
         -3    1    4    4    0  501  0.53418996435E+02  0.20951916724E+02 -0.62292253134E+03  0.62555979095E+03  0.00000000000E+00 0.  1.
          5    1    3    3  502    0 -0.66079603932E+02  0.18297039630E+02 -0.23245961908E+03  0.24240639475E+03  0.47000000000E+01 0. -1.
         13    1    6    6    0    0  0.29606396446E+02  0.42542801950E+02 -0.74314100454E+02  0.90603610494E+02  0.00000000000E+00 0. -1.
        -14    1    6    6    0    0  0.40120302166E+02 -0.23621831657E+02 -0.21104766240E+02  0.51117910118E+02  0.00000000000E+00 0.  1.
         -5    1    5    5    0  503 -0.28997894249E+02 -0.61323045872E+02 -0.44640943283E+01  0.68142585540E+02  0.47000000000E+01 0.  1.
<mgrwt>
<rscale>  2 0.18422860E+03</rscale>
<asrwt>0</asrwt>
<pdfrwt beam="1">  1       21 0.95120356E-02 0.18457068E+03</pdfrwt>
<pdfrwt beam="2">  1       21 0.21262558E+00 0.18457068E+03</pdfrwt>
<totfact> 0.99739603E+03</totfact>
</mgrwt>
</event>
<event>
12    1  0.1441827E-001  0.2195033E+03  0.7546771E-02  0.1135108E+00
         21   -1    0    0  504  503  0.00000000000E+00  0.00000000000E+00  0.13859689603E+04  0.13859689603E+04  0.00000000000E+00 0. -1.
         21   -1    0    0  502  504 -0.00000000000E+00 -0.00000000000E+00 -0.75832668000E+02  0.75832668000E+02  0.00000000000E+00 0. -1.
          6    2    1    2  502    0 -0.19411891986E+02 -0.12816311785E+03  0.11561723618E+03  0.24809080788E+03  0.17714146134E+03 0.  0.
         24    2    3    3    0    0 -0.18929944691E+02  0.64916038538E+01  0.39408450300E+02  0.93294181965E+02  0.82160177134E+02 0.  0.
         -6    2    1    2    0  503  0.19411891986E+02  0.12816311785E+03  0.11945190561E+04  0.12137108204E+04  0.17150969018E+03 0.  0.
        -24    2    5    5    0    0  0.68865191334E+02  0.10904589211E+03  0.83648923265E+03  0.85174598562E+03  0.95517362347E+02 0.  0.
          2    1    4    4  501    0 -0.28878835861E+02  0.14018163146E+02 -0.16442225930E+02  0.36067199118E+02  0.00000000000E+00 0. -1.
         -1    1    4    4    0  501  0.99488911701E+01 -0.75265592926E+01  0.55850676231E+02  0.57226982847E+02  0.00000000000E+00 0.  1.
          5    1    3    3  502    0 -0.48194729578E+00 -0.13465472170E+03  0.76208785875E+02  0.15479662592E+03  0.47000000000E+01 0. -1.
         11    1    6    6    0    0 -0.63177324322E+01  0.75774456594E+02  0.47316484903E+03  0.47923549156E+03  0.00000000000E+00 0. -1.
        -12    1    6    6    0    0  0.75182923766E+02  0.33271435515E+02  0.36332438362E+03  0.37251049406E+03  0.00000000000E+00 0.  1.
         -5    1    5    5    0  503 -0.49453299347E+02  0.19117225741E+02  0.35802982342E+03  0.36196483475E+03  0.47000000000E+01 0.  1.
<mgrwt>
<rscale>  2 0.21836469E+03</rscale>
<asrwt>0</asrwt>
<pdfrwt beam="1">  1       21 0.21322597E+00 0.21950331E+03</pdfrwt>
<pdfrwt beam="2">  1       21 0.11666565E-01 0.21950331E+03</pdfrwt>
<totfact> 0.66768257E+03</totfact>
</mgrwt>
</event>
<event>
12    1  0.1441827E-001  0.1807686E+03  0.7546771E-02  0.1168803E+00
         21   -1    0    0  504  503  0.00000000000E+00  0.00000000000E+00  0.47824805783E+03  0.47824805783E+03  0.00000000000E+00 0.  1.
         21   -1    0    0  502  504 -0.00000000000E+00 -0.00000000000E+00 -0.68072950658E+02  0.68072950658E+02  0.00000000000E+00 0.  1.
          6    2    1    2  502    0 -0.50394072569E+02 -0.12455561292E+02  0.14987333962E+03  0.22940730585E+03  0.16574374948E+03 0.  0.
         24    2    3    3    0    0 -0.52072128985E+02 -0.47559439392E+02  0.22604587865E+02  0.97291737864E+02  0.63097606703E+02 0.  0.
         -6    2    1    2    0  503  0.50394072569E+02  0.12455561292E+02  0.26030176755E+03  0.31691370263E+03  0.17315478963E+03 0.  0.
        -24    2    5    5    0    0 -0.24619260375E+02  0.13177171723E+02  0.56799924124E+02  0.99974515032E+02  0.77388154386E+02 0.  0.
          4    1    4    4  501    0  0.11605616426E+01 -0.10123311629E+02  0.30104972621E+02  0.31782663799E+02  0.00000000000E+00 0. -1.
         -3    1    4    4    0  501 -0.53232690628E+02 -0.37436127762E+02 -0.75003847554E+01  0.65509074064E+02  0.00000000000E+00 0.  1.
          5    1    3    3  502    0  0.16780564162E+01  0.35103878099E+02  0.12726875176E+03  0.13211556799E+03  0.47000000000E+01 0. -1.
         13    1    6    6    0    0 -0.50151846108E+02  0.21503466322E+02  0.31124701425E+02  0.62820010909E+02  0.00000000000E+00 0. -1.
        -14    1    6    6    0    0  0.25532585732E+02 -0.83262945986E+01  0.25675222699E+02  0.37154504122E+02  0.00000000000E+00 0.  1.
         -5    1    5    5    0  503  0.75013332944E+02 -0.72161043065E+00  0.20350184342E+03  0.21693918760E+03  0.47000000000E+01 0.  1.
<mgrwt>
<rscale>  2 0.17897048E+03</rscale>
<asrwt>0</asrwt>
<pdfrwt beam="1">  1       21 0.73576622E-01 0.18076859E+03</pdfrwt>
<pdfrwt beam="2">  1       21 0.10472762E-01 0.18076859E+03</pdfrwt>
<totfact> 0.12461043E+05</totfact>
</mgrwt>
</event>
<event>
12    1  0.1441827E-001  0.2130017E+03  0.7546771E-02  0.1139993E+00
         21   -1    0    0  504  503  0.00000000000E+00  0.00000000000E+00  0.81523472933E+03  0.81523472933E+03  0.00000000000E+00 0.  1.
         21   -1    0    0  502  504 -0.00000000000E+00 -0.00000000000E+00 -0.55103190628E+02  0.55103190628E+02  0.00000000000E+00 0.  1.
          6    2    1    2  502    0  0.96358502012E+02  0.76490247258E+02  0.33561807057E+03  0.39538380477E+03  0.16897675861E+03 0.  0.
         24    2    3    3    0    0  0.38133651010E+00  0.55831971353E+01  0.82667830547E+02  0.11566011972E+03  0.80696812688E+02 0.  0.
         -6    2    1    2    0  503 -0.96358502012E+02 -0.76490247258E+02  0.42451346813E+03  0.47495411518E+03  0.17387929166E+03 0.  0.
        -24    2    5    5    0    0 -0.13699110575E+03 -0.47551164405E+02  0.32771858283E+03  0.36595953355E+03  0.74156822869E+02 0.  0.
          2    1    4    4  501    0 -0.36048537051E+02 -0.11163448049E+02  0.24430124235E+02  0.44954983772E+02  0.00000000000E+00 0. -1.
         -1    1    4    4    0  501  0.36429873561E+02  0.16746645185E+02  0.58237706312E+02  0.70705135945E+02  0.00000000000E+00 0.  1.
          5    1    3    3  502    0  0.95977165502E+02  0.70907050123E+02  0.25295024002E+03  0.27972368505E+03  0.47000000000E+01 0. -1.
         13    1    6    6    0    0 -0.90507436524E+02 -0.37400569762E+02  0.13093947928E+03  0.16351007895E+03  0.00000000000E+00 0. -1.
        -14    1    6    6    0    0 -0.46483669228E+02 -0.10150594642E+02  0.19677910354E+03  0.20244945460E+03  0.00000000000E+00 0.  1.
         -5    1    5    5    0  503  0.40632603739E+02 -0.28939082853E+02  0.96794885306E+02  0.10899458163E+03  0.47000000000E+01 0.  1.
<mgrwt>
<rscale>  2 0.21199892E+03</rscale>
<asrwt>0</asrwt>
<pdfrwt beam="1">  1       21 0.12542072E+00 0.21300171E+03</pdfrwt>
<pdfrwt beam="2">  1       21 0.84774146E-02 0.21300171E+03</pdfrwt>
<totfact> 0.50759773E+04</totfact>
</mgrwt>
</event>
<event>
12    1  0.1441827E-001  0.3421577E+03  0.7546771E-02  0.1066024E+00
         21   -1    0    0  504  503  0.00000000000E+00  0.00000000000E+00  0.74066944006E+02  0.74066944006E+02  0.00000000000E+00 0. -1.
         21   -1    0    0  502  504 -0.00000000000E+00 -0.00000000000E+00 -0.15797286564E+04  0.15797286564E+04  0.00000000000E+00 0.  1.
          6    2    1    2  502    0 -0.14378943113E+03  0.25790259007E+03 -0.70328583851E+03  0.78151183960E+03  0.17017825455E+03 0.  0.
         24    2    3    3    0    0 -0.16402973359E+03  0.20494311882E+03 -0.50007581831E+03  0.57048867086E+03  0.80461568862E+02 0.  0.
         -6    2    1    2    0  503  0.14378943113E+03 -0.25790259007E+03 -0.80237587391E+03  0.87228376082E+03  0.17286633538E+03 0.  0.
        -24    2    5    5    0    0  0.10131290891E+03 -0.16766020544E+03 -0.35041031708E+03  0.40941996068E+03  0.80393183112E+02 0.  0.
          2    1    4    4  501    0 -0.15072157660E+03  0.19084606838E+03 -0.39666706390E+03  0.46527838447E+03  0.00000000000E+00 0. -1.
         -1    1    4    4    0  501 -0.13308156992E+02  0.14097050439E+02 -0.10340875441E+03  0.10521028639E+03  0.00000000000E+00 0.  1.
          5    1    3    3  502    0  0.20240302460E+02  0.52959471248E+02 -0.20321002019E+03  0.21102316874E+03  0.47000000000E+01 0. -1.
         13    1    6    6    0    0  0.92105292299E+02 -0.87166835888E+02 -0.17412888799E+03  0.21541195831E+03  0.00000000000E+00 0. -1.
        -14    1    6    6    0    0  0.92076166131E+01 -0.80493369553E+02 -0.17628142909E+03  0.19400800238E+03  0.00000000000E+00 0.  1.
         -5    1    5    5    0  503  0.42476522216E+02 -0.90242384624E+02 -0.45196555683E+03  0.46286380014E+03  0.47000000000E+01 0.  1.
<mgrwt>
<rscale>  2 0.34181969E+03</rscale>
<asrwt>0</asrwt>
<pdfrwt beam="1">  1       21 0.11394915E-01 0.34215774E+03</pdfrwt>
<pdfrwt beam="2">  1       21 0.24303516E+00 0.34215774E+03</pdfrwt>
<totfact> 0.41912617E+03</totfact>
</mgrwt>
</event>
<event>
12    1  0.1441827E-001  0.1844134E+03  0.7546771E-02  0.1164165E+00
         21   -1    0    0  504  503  0.00000000000E+00  0.00000000000E+00  0.11924379868E+03  0.11924379868E+03  0.00000000000E+00 0.  1.
         21   -1    0    0  502  504 -0.00000000000E+00 -0.00000000000E+00 -0.36155265254E+03  0.36155265254E+03  0.00000000000E+00 0. -1.
          6    2    1    2  502    0  0.57005703225E+02  0.28482701561E+02 -0.23488581990E+03  0.29862964101E+03  0.17305316990E+03 0.  0.
         24    2    3    3    0    0  0.59835491377E+02  0.92150106227E+01 -0.25229496715E+03  0.27208872876E+03  0.81940975230E+02 0.  0.
         -6    2    1    2    0  503 -0.57005703225E+02 -0.28482701561E+02 -0.74230339650E+01  0.18216681021E+03  0.17049554487E+03 0.  0.
        -24    2    5    5    0    0  0.54730798408E+00 -0.60617354954E+02  0.31441005912E+02  0.10550202923E+03  0.80420010261E+02 0.  0.
          4    1    4    4  501    0  0.52857145211E+02  0.27798580386E+02 -0.24288723677E+03  0.25012166771E+03  0.00000000000E+00 0. -1.
         -3    1    4    4    0  501  0.69783461668E+01 -0.18583569763E+02 -0.94077303734E+01  0.21967061049E+02  0.00000000000E+00 0.  1.
          5    1    3    3  502    0 -0.28297881525E+01  0.19267690938E+02  0.17409147251E+02  0.26540912250E+02  0.47000000000E+01 0. -1.
         11    1    6    6    0    0 -0.14910921579E+02 -0.47632028280E+02 -0.17236703979E+02  0.52803879256E+02  0.00000000000E+00 0. -1.
        -12    1    6    6    0    0  0.15458229563E+02 -0.12985326674E+02  0.48677709891E+02  0.52698149970E+02  0.00000000000E+00 0.  1.
         -5    1    5    5    0  503 -0.57553011209E+02  0.32134653393E+02 -0.38864039877E+02  0.76664780985E+02  0.47000000000E+01 0.  1.
<mgrwt>
<rscale>  2 0.18381101E+03</rscale>
<asrwt>0</asrwt>
<pdfrwt beam="1">  1       21 0.18345200E-01 0.18441343E+03</pdfrwt>
<pdfrwt beam="2">  1       21 0.55623486E-01 0.18441343E+03</pdfrwt>
<totfact> 0.82829143E+04</totfact>
</mgrwt>
</event>
<event>
12    1  0.1441827E-001  0.2034811E+03  0.7546771E-02  0.1150009E+00
         21   -1    0    0  504  503  0.00000000000E+00  0.00000000000E+00  0.41087114849E+03  0.41087114849E+03  0.00000000000E+00 0.  1.
         21   -1    0    0  502  504 -0.00000000000E+00 -0.00000000000E+00 -0.94830956504E+02  0.94830956504E+02  0.00000000000E+00 0. -1.
          6    2    1    2  502    0  0.10012265555E+03  0.36536323387E+02  0.13493443714E+03  0.24415543073E+03  0.17333529054E+03 0.  0.
         24    2    3    3    0    0  0.10681421233E+03  0.40671053490E+02  0.32194319033E+02  0.14100750398E+03  0.76047560465E+02 0.  0.
         -6    2    1    2    0  503 -0.10012265555E+03 -0.36536323387E+02  0.18110575486E+03  0.26154667427E+03  0.15571743416E+03 0.  0.
        -24    2    5    5    0    0 -0.12312443504E+03 -0.36443692768E+02  0.11200955318E+03  0.18857088701E+03  0.80777906499E+02 0.  0.
          2    1    4    4  501    0  0.10911910471E+03  0.44362396002E+02  0.98054503181E+01  0.11819961103E+03  0.00000000000E+00 0. -1.
         -1    1    4    4    0  501 -0.23048923805E+01 -0.36913425121E+01  0.22388868715E+02  0.22807892949E+02  0.00000000000E+00 0.  1.
          5    1    3    3  502    0 -0.66915567804E+01 -0.41347301034E+01  0.10274011810E+03  0.10314792675E+03  0.47000000000E+01 0. -1.
         11    1    6    6    0    0 -0.96027743348E+02  0.88905069033E+01  0.55697717888E+02  0.11136698067E+03  0.00000000000E+00 0. -1.
        -12    1    6    6    0    0 -0.27096691693E+02 -0.45334199672E+02  0.56311835295E+02  0.77203906344E+02  0.00000000000E+00 0.  1.
         -5    1    5    5    0  503  0.23001779493E+02 -0.92630618538E-01  0.69096201672E+02  0.72975787257E+02  0.47000000000E+01 0.  1.
<mgrwt>
<rscale>  2 0.19968047E+03</rscale>
<asrwt>0</asrwt>
<pdfrwt beam="1">  1       21 0.63210945E-01 0.20348113E+03</pdfrwt>
<pdfrwt beam="2">  1       21 0.14589378E-01 0.20348113E+03</pdfrwt>
<totfact> 0.95113487E+04</totfact>
</mgrwt>
</event>
<event>
12    1  0.1441827E-001  0.1772066E+03  0.7546771E-02  0.1171409E+00
         21   -1    0    0  504  503  0.00000000000E+00  0.00000000000E+00  0.41751550853E+03  0.41751550853E+03  0.00000000000E+00 0.  1.
         21   -1    0    0  502  504 -0.00000000000E+00 -0.00000000000E+00 -0.11454969221E+03  0.11454969221E+03  0.00000000000E+00 0.  1.
          6    2    1    2  502    0  0.15573050998E+02  0.32438497788E+02  0.31125567785E+03  0.35816514370E+03  0.17351483253E+03 0.  0.
         24    2    3    3    0    0 -0.91977093853E+01  0.11140154142E+02  0.31389983634E+03  0.32505484944E+03  0.83179606864E+02 0.  0.
         -6    2    1    2    0  503 -0.15573050998E+02 -0.32438497788E+02 -0.82898615385E+01  0.17390005704E+03  0.16993449320E+03 0.  0.
        -24    2    5    5    0    0 -0.43232705151E+02 -0.70339704438E+02  0.17275418214E+02  0.12026022611E+03  0.85716632548E+02 0.  0.
          2    1    4    4  501    0 -0.34503339575E+02 -0.20895267237E+02  0.11133113765E+03  0.11841332208E+03  0.00000000000E+00 0. -1.
         -1    1    4    4    0  501  0.25305630190E+02  0.32035421379E+02  0.20256869868E+03  0.20664152736E+03  0.00000000000E+00 0.  1.
          5    1    3    3  502    0  0.24770760384E+02  0.21298343646E+02 -0.26441584842E+01  0.33110294262E+02  0.47000000000E+01 0. -1.
         11    1    6    6    0    0 -0.65363443565E+01 -0.39179163123E+02  0.48643796214E+02  0.62800872054E+02  0.00000000000E+00 0. -1.
        -12    1    6    6    0    0 -0.36696360795E+02 -0.31160541314E+02 -0.31368378000E+02  0.57459354060E+02  0.00000000000E+00 0.  1.
         -5    1    5    5    0  503  0.27659654153E+02  0.37901206650E+02 -0.25565279753E+02  0.53639830930E+02  0.47000000000E+01 0.  1.
<mgrwt>
<rscale>  2 0.17632395E+03</rscale>
<asrwt>0</asrwt>
<pdfrwt beam="1">  1       21 0.64233155E-01 0.17720658E+03</pdfrwt>
<pdfrwt beam="2">  1       21 0.17623030E-01 0.17720658E+03</pdfrwt>
<totfact> 0.65741190E+04</totfact>
</mgrwt>
</event>
<event>
12    1  0.1441827E-001  0.1921952E+03  0.7546771E-02  0.1156872E+00
         21   -1    0    0  504  503  0.00000000000E+00  0.00000000000E+00  0.13574060676E+03  0.13574060676E+03  0.00000000000E+00 0.  1.
         21   -1    0    0  502  504 -0.00000000000E+00 -0.00000000000E+00 -0.55442515801E+03  0.55442515801E+03  0.00000000000E+00 0.  1.
          6    2    1    2  502    0 -0.12567316331E+02 -0.77857874110E+02 -0.45616602613E+03  0.49434991217E+03  0.17342031678E+03 0.  0.
         24    2    3    3    0    0 -0.27180163049E+02 -0.11662891166E+03 -0.30798123641E+03  0.34040982465E+03  0.81763943405E+02 0.  0.
         -6    2    1    2    0  503  0.12567316331E+02  0.77857874110E+02  0.37481474879E+02  0.19581585259E+03  0.17526893954E+03 0.  0.
        -24    2    5    5    0    0 -0.24059755108E+02 -0.21365255841E+02  0.17726374155E+02  0.88116614509E+02  0.80093491864E+02 0.  0.
          4    1    4    4  501    0  0.14952049254E+01 -0.87026513844E+02 -0.12168842024E+03  0.14961257090E+03  0.00000000000E+00 0. -1.
         -3    1    4    4    0  501 -0.28675367974E+02 -0.29602397819E+02 -0.18629281617E+03  0.19079725375E+03  0.00000000000E+00 0.  1.
          5    1    3    3  502    0  0.14612846718E+02  0.38771037553E+02 -0.14818478972E+03  0.15394008752E+03  0.47000000000E+01 0. -1.
         13    1    6    6    0    0 -0.47543911231E+02  0.81143395778E+01  0.57693634987E+01  0.48575215461E+02  0.00000000000E+00 0. -1.
        -14    1    6    6    0    0  0.23484156123E+02 -0.29479595418E+02  0.11957010656E+02  0.39541399048E+02  0.00000000000E+00 0.  1.
         -5    1    5    5    0  503  0.36627071438E+02  0.99223129950E+02  0.19755100725E+02  0.10769923808E+03  0.47000000000E+01 0.  1.
<mgrwt>
<rscale>  2 0.19177271E+03</rscale>
<asrwt>0</asrwt>
<pdfrwt beam="1">  1       21 0.20883170E-01 0.19219518E+03</pdfrwt>
<pdfrwt beam="2">  1       21 0.85296179E-01 0.19219518E+03</pdfrwt>
<totfact> 0.25316158E+04</totfact>
</mgrwt>
</event>
<event>
12    1  0.1441827E-001  0.2157474E+03  0.7546771E-02  0.1137183E+00
         21   -1    0    0  504  503  0.00000000000E+00  0.00000000000E+00  0.24791535195E+03  0.24791535195E+03  0.00000000000E+00 0.  1.
         21   -1    0    0  502  504 -0.00000000000E+00 -0.00000000000E+00 -0.22954339579E+03  0.22954339579E+03  0.00000000000E+00 0.  1.
          6    2    1    2  502    0 -0.47275892530E+02 -0.12087795153E+03  0.11153454338E+03  0.24245618510E+03  0.17175144292E+03 0.  0.
         24    2    3    3    0    0 -0.88569980065E+02 -0.11067345754E+03  0.56355682188E+02  0.17262689263E+03  0.80813523454E+02 0.  0.
         -6    2    1    2    0  503  0.47275892530E+02  0.12087795153E+03 -0.93162587224E+02  0.23500256265E+03  0.17233817805E+03 0.  0.
        -24    2    5    5    0    0  0.75764209635E+02  0.45068100246E+02 -0.94027402199E+02  0.15387577504E+03  0.84055057298E+02 0.  0.
          4    1    4    4  501    0 -0.36272465384E+02  0.35403522101E+01  0.21285756828E+02  0.42205559853E+02  0.00000000000E+00 0. -1.
         -3    1    4    4    0  501 -0.52297514681E+02 -0.11421380975E+03  0.35069925360E+02  0.13042133278E+03  0.00000000000E+00 0.  1.
          5    1    3    3  502    0  0.41294087535E+02 -0.10204493986E+02  0.55178861196E+02  0.69829292462E+02  0.47000000000E+01 0. -1.
         13    1    6    6    0    0  0.54223358324E+01 -0.22182344231E+02 -0.86602416242E+01  0.24422487720E+02  0.00000000000E+00 0. -1.
        -14    1    6    6    0    0  0.70341873803E+02  0.67250444477E+02 -0.85367160575E+02  0.12945328732E+03  0.00000000000E+00 0.  1.
         -5    1    5    5    0  503 -0.28488317106E+02  0.75809851281E+02  0.86481497492E+00  0.81126787609E+02  0.47000000000E+01 0.  1.
<mgrwt>
<rscale>  2 0.21563020E+03</rscale>
<asrwt>0</asrwt>
<pdfrwt beam="1">  1       21 0.38140823E-01 0.21574739E+03</pdfrwt>
<pdfrwt beam="2">  1       21 0.35314369E-01 0.21574739E+03</pdfrwt>
<totfact> 0.50690021E+04</totfact>
</mgrwt>
</event>
<event>
12    1  0.1441827E-001  0.2087272E+03  0.7546771E-02  0.1142733E+00
         21   -1    0    0  504  503  0.00000000000E+00  0.00000000000E+00  0.32627640293E+03  0.32627640293E+03  0.00000000000E+00 0.  1.
         21   -1    0    0  502  504 -0.00000000000E+00 -0.00000000000E+00 -0.13544259820E+03  0.13544259820E+03  0.00000000000E+00 0.  1.
          6    2    1    2  502    0 -0.10033129509E+03  0.58333356006E+02  0.64801594872E+02  0.21855503768E+03  0.17348748832E+03 0.  0.
         24    2    3    3    0    0 -0.65596372833E+02  0.87050376750E+01 -0.29313823190E+02  0.10653143874E+03  0.78172791940E+02 0.  0.
         -6    2    1    2    0  503  0.10033129509E+03 -0.58333356006E+02  0.12603220985E+03  0.24316396345E+03  0.17255563161E+03 0.  0.
        -24    2    5    5    0    0  0.54715601092E+01 -0.52771050542E+02  0.12270852495E+02  0.94863440891E+02  0.77677389576E+02 0.  0.
          4    1    4    4  501    0 -0.55478702503E+02  0.25872181347E+02  0.10406340617E+02  0.62093060193E+02  0.00000000000E+00 0. -1.
         -3    1    4    4    0  501 -0.10117670329E+02 -0.17167143672E+02 -0.39720163807E+02  0.44438378544E+02  0.00000000000E+00 0.  1.
          5    1    3    3  502    0 -0.34734922253E+02  0.49628318331E+02  0.94115418062E+02  0.11202359895E+03  0.47000000000E+01 0. -1.
         11    1    6    6    0    0  0.29352422932E+02 -0.44865703955E+02 -0.17022140213E+02  0.56251661139E+02  0.00000000000E+00 0. -1.
        -12    1    6    6    0    0 -0.23880862823E+02 -0.79053465861E+01  0.29292992708E+02  0.38611779752E+02  0.00000000000E+00 0.  1.
         -5    1    5    5    0  503  0.94859734976E+02 -0.55623054640E+01  0.11376135736E+03  0.14830052255E+03  0.47000000000E+01 0.  1.
<mgrwt>
<rscale>  2 0.20853349E+03</rscale>
<asrwt>0</asrwt>
<pdfrwt beam="1">  1       21 0.50196370E-01 0.20872723E+03</pdfrwt>
<pdfrwt beam="2">  1       21 0.20837323E-01 0.20872723E+03</pdfrwt>
<totfact> 0.80239302E+04</totfact>
</mgrwt>
</event>
<event>
12    1  0.1441827E-001  0.2095302E+03  0.7546771E-02  0.1141961E+00
         21   -1    0    0  504  503  0.00000000000E+00  0.00000000000E+00  0.37004381591E+02  0.37004381591E+02  0.00000000000E+00 0.  1.
         21   -1    0    0  502  504 -0.00000000000E+00 -0.00000000000E+00 -0.14296510083E+04  0.14296510083E+04  0.00000000000E+00 0.  1.
          6    2    1    2  502    0 -0.53682038905E+02  0.10432438363E+03 -0.99904033505E+03  0.10207531599E+04  0.17346493626E+03 0.  0.
         24    2    3    3    0    0 -0.26843579412E+02  0.12583998456E+03 -0.94075749668E+03  0.95291361953E+03  0.80395393320E+02 0.  0.
         -6    2    1    2    0  503  0.53682038905E+02 -0.10432438363E+03 -0.39360629166E+03  0.44590222997E+03  0.17360169220E+03 0.  0.
        -24    2    5    5    0    0  0.69768439141E+02 -0.60644266676E+02 -0.37461808787E+03  0.39541097554E+03  0.86404662159E+02 0.  0.
          2    1    4    4  501    0  0.26213403929E+02  0.18825370295E+02 -0.19718621039E+03  0.19980975621E+03  0.00000000000E+00 0. -1.
         -1    1    4    4    0  501 -0.53056983341E+02  0.10701461427E+03 -0.74357128629E+03  0.75310386332E+03  0.00000000000E+00 0.  1.
          5    1    3    3  502    0 -0.26838459493E+02 -0.21515600928E+02 -0.58282838367E+02  0.67839540383E+02  0.47000000000E+01 0. -1.
         11    1    6    6    0    0  0.11182863151E+02 -0.12075099319E+02 -0.24162118131E+03  0.24218104738E+03  0.00000000000E+00 0. -1.
        -12    1    6    6    0    0  0.58585575990E+02 -0.48569167357E+02 -0.13299690656E+03  0.15322992816E+03  0.00000000000E+00 0.  1.
         -5    1    5    5    0  503 -0.16086400236E+02 -0.43680116959E+02 -0.18988203791E+02  0.50491254424E+02  0.47000000000E+01 0.  1.
<mgrwt>
<rscale>  2 0.20950183E+03</rscale>
<asrwt>0</asrwt>
<pdfrwt beam="1">  1       21 0.56929823E-02 0.20953016E+03</pdfrwt>
<pdfrwt beam="2">  1       21 0.21994629E+00 0.20953016E+03</pdfrwt>
<totfact> 0.21431325E+04</totfact>
</mgrwt>
</event>
<event>
12    1  0.1441827E-001  0.2486907E+03  0.7546771E-02  0.1114301E+00
         21   -1    0    0  504  503  0.00000000000E+00  0.00000000000E+00  0.58103464102E+03  0.58103464102E+03  0.00000000000E+00 0. -1.
         21   -1    0    0  502  504 -0.00000000000E+00 -0.00000000000E+00 -0.24415429381E+03  0.24415429381E+03  0.00000000000E+00 0.  1.
          6    2    1    2  502    0 -0.26903819878E+02 -0.17587523882E+03 -0.14208029982E+03  0.28551276806E+03  0.17226379183E+03 0.  0.
         24    2    3    3    0    0 -0.42676135455E+02 -0.14777866401E+03 -0.39599524797E+02  0.17798331766E+03  0.80312844091E+02 0.  0.
         -6    2    1    2    0  503  0.26903819878E+02  0.17587523882E+03  0.47896064703E+03  0.53967616676E+03  0.17375600250E+03 0.  0.
        -24    2    5    5    0    0  0.83795796561E+02  0.10834285340E+03  0.33526716231E+03  0.37095382786E+03  0.80266823012E+02 0.  0.
          2    1    4    4  501    0 -0.79703736456E+01  0.44733765809E+01  0.10561437117E+02  0.13967172515E+02  0.00000000000E+00 0. -1.
         -1    1    4    4    0  501 -0.34705761809E+02 -0.15225204059E+03 -0.50160961914E+02  0.16401614514E+03  0.00000000000E+00 0.  1.
          5    1    3    3  502    0  0.15772315577E+02 -0.28096574807E+02 -0.10248077503E+03  0.10752945040E+03  0.47000000000E+01 0. -1.
         13    1    6    6    0    0  0.56617546203E+02  0.11638480558E+03  0.28961418207E+03  0.31721813309E+03  0.00000000000E+00 0. -1.
        -14    1    6    6    0    0  0.27178250358E+02 -0.80419521750E+01  0.45652980238E+02  0.53735694766E+02  0.00000000000E+00 0.  1.
         -5    1    5    5    0  503 -0.56891976683E+02  0.67532385419E+02  0.14369348472E+03  0.16872233890E+03  0.47000000000E+01 0.  1.
<mgrwt>
<rscale>  2 0.24843022E+03</rscale>
<asrwt>0</asrwt>
<pdfrwt beam="1">  1       21 0.89389945E-01 0.24869070E+03</pdfrwt>
<pdfrwt beam="2">  1       21 0.37562199E-01 0.24869070E+03</pdfrwt>
<totfact> 0.70253920E+03</totfact>
</mgrwt>
</event>
<event>
12    1  0.1441827E-001  0.1969430E+03  0.7546771E-02  0.1153890E+00
         21   -1    0    0  504  503  0.00000000000E+00  0.00000000000E+00  0.51781445294E+02  0.51781445294E+02  0.00000000000E+00 0.  1.
         21   -1    0    0  502  504 -0.00000000000E+00 -0.00000000000E+00 -0.15459095598E+04  0.15459095598E+04  0.00000000000E+00 0.  1.
          6    2    1    2  502    0  0.51100534279E+02  0.76455869573E+02 -0.13363938569E+04  0.13508275502E+04  0.17415442921E+03 0.  0.
         24    2    3    3    0    0  0.73313559206E+02  0.60378141179E+02 -0.12950508892E+04  0.13009954040E+04  0.80073950853E+02 0.  0.
         -6    2    1    2    0  503 -0.51100534279E+02 -0.76455869573E+02 -0.15773425766E+03  0.24686345488E+03  0.16614663619E+03 0.  0.
        -24    2    5    5    0    0 -0.38655401720E+02 -0.14029796253E+02 -0.15903399276E+03  0.18302243933E+03  0.80711381974E+02 0.  0.
          2    1    4    4  501    0  0.18634987262E+02  0.57288792545E+02 -0.91961357990E+03  0.92158472472E+03  0.00000000000E+00 0. -1.
         -1    1    4    4    0  501  0.54678571944E+02  0.30893486335E+01 -0.37543730933E+03  0.37941067926E+03  0.00000000000E+00 0.  1.
          5    1    3    3  502    0 -0.22213024927E+02  0.16077728394E+02 -0.41342967623E+02  0.49832146237E+02  0.47000000000E+01 0. -1.
         13    1    6    6    0    0 -0.51024281183E+01  0.27013083489E+02 -0.99860837790E+02  0.10357571326E+03  0.00000000000E+00 0. -1.
        -14    1    6    6    0    0 -0.33552973601E+02 -0.41042879741E+02 -0.59173154974E+02  0.79446726078E+02  0.00000000000E+00 0.  1.
         -5    1    5    5    0  503 -0.12445132560E+02 -0.62426073320E+02  0.12997351009E+01  0.63841015546E+02  0.47000000000E+01 0.  1.
<mgrwt>
<rscale>  2 0.19515774E+03</rscale>
<asrwt>0</asrwt>
<pdfrwt beam="1">  1       21 0.79663757E-02 0.19694296E+03</pdfrwt>
<pdfrwt beam="2">  1       21 0.23783225E+00 0.19694296E+03</pdfrwt>
<totfact> 0.94500352E+03</totfact>
</mgrwt>
</event>
<event>
12    1  0.1441827E-001  0.2282614E+03  0.7546771E-02  0.1128018E+00
         21   -1    0    0  504  503  0.00000000000E+00  0.00000000000E+00  0.13566175602E+03  0.13566175602E+03  0.00000000000E+00 0.  1.
         21   -1    0    0  502  504 -0.00000000000E+00 -0.00000000000E+00 -0.13586148909E+04  0.13586148909E+04  0.00000000000E+00 0.  1.
          6    2    1    2  502    0  0.11338544673E+03 -0.95625410096E+02 -0.12443986448E+04  0.12650100785E+04  0.17240079154E+03 0.  0.
         24    2    3    3    0    0 -0.29573289965E+00 -0.54416060416E+01 -0.50124745313E+03  0.50780976629E+03  0.81191446216E+02 0.  0.
         -6    2    1    2    0  503 -0.11338544673E+03  0.95625410096E+02  0.21445509897E+02  0.22926656845E+03  0.17350150123E+03 0.  0.
        -24    2    5    5    0    0 -0.44827517815E+02  0.77223939388E+02 -0.53469721716E+02  0.12595545739E+03  0.70941686882E+02 0.  0.
          4    1    4    4  501    0 -0.22603893040E+01  0.27623419720E+02 -0.69927099796E+02  0.75219425434E+02  0.00000000000E+00 0. -1.
         -3    1    4    4    0  501  0.19646564043E+01 -0.33065025762E+02 -0.43132035333E+03  0.43259034086E+03  0.00000000000E+00 0.  1.
          5    1    3    3  502    0  0.11368117963E+03 -0.90183804054E+02 -0.74315119168E+03  0.75720031221E+03  0.47000000000E+01 0. -1.
         13    1    6    6    0    0  0.79785140599E+01  0.19152806626E+02  0.11803392480E+02  0.23870625511E+02  0.00000000000E+00 0. -1.
        -14    1    6    6    0    0 -0.52806031875E+02  0.58071132762E+02 -0.65273114196E+02  0.10208483188E+03  0.00000000000E+00 0.  1.
         -5    1    5    5    0  503 -0.68557928918E+02  0.18401470708E+02  0.74915231613E+02  0.10331111106E+03  0.47000000000E+01 0.  1.
<mgrwt>
<rscale>  2 0.22805219E+03</rscale>
<asrwt>0</asrwt>
<pdfrwt beam="1">  1       21 0.20871039E-01 0.22826136E+03</pdfrwt>
<pdfrwt beam="2">  1       21 0.20901768E+00 0.22826136E+03</pdfrwt>
<totfact> 0.24232791E+03</totfact>
</mgrwt>
</event>
<event>
12    1  0.1441827E-001  0.1940431E+03  0.7546771E-02  0.1155318E+00
         21   -1    0    0  504  503  0.00000000000E+00  0.00000000000E+00  0.60612462930E+02  0.60612462930E+02  0.00000000000E+00 0. -1.
         21   -1    0    0  502  504 -0.00000000000E+00 -0.00000000000E+00 -0.71824364345E+03  0.71824364345E+03  0.00000000000E+00 0. -1.
          6    2    1    2  502    0 -0.52885510525E+02 -0.63589890314E+02 -0.47521688424E+03  0.51253358760E+03  0.17326003571E+03 0.  0.
         24    2    3    3    0    0  0.18707988034E+02 -0.85958720973E+02 -0.16812170430E+03  0.19637613764E+03  0.50594361834E+02 0.  0.
         -6    2    1    2    0  503  0.52885510525E+02  0.63589890314E+02 -0.18241429628E+03  0.26632251878E+03  0.17553392023E+03 0.  0.
        -24    2    5    5    0    0  0.87135877613E+02  0.78010729657E+02 -0.17918515073E+03  0.22872510352E+03  0.80805443086E+02 0.  0.
          4    1    4    4  501    0  0.38171996541E+01 -0.51594502866E+02 -0.48079090153E+02  0.70626925809E+02  0.00000000000E+00 0. -1.
         -3    1    4    4    0  501  0.14890788380E+02 -0.34364218107E+02 -0.12004261414E+03  0.12574921183E+03  0.00000000000E+00 0.  1.
          5    1    3    3  502    0 -0.71593498560E+02  0.22368830660E+02 -0.30709517994E+03  0.31615744996E+03  0.47000000000E+01 0. -1.
         11    1    6    6    0    0  0.77433920095E+02  0.27632838571E+02 -0.69582421258E+02  0.10770932688E+03  0.00000000000E+00 0. -1.
        -12    1    6    6    0    0  0.97019575182E+01  0.50377891085E+02 -0.10960272947E+03  0.12101577664E+03  0.00000000000E+00 0.  1.
         -5    1    5    5    0  503 -0.34250367088E+02 -0.14420839343E+02 -0.32291455505E+01  0.37597415257E+02  0.47000000000E+01 0.  1.
<mgrwt>
<rscale>  2 0.19352737E+03</rscale>
<asrwt>0</asrwt>
<pdfrwt beam="1">  1       21 0.93249936E-02 0.19404306E+03</pdfrwt>
<pdfrwt beam="2">  1       21 0.11049903E+00 0.19404306E+03</pdfrwt>
<totfact> 0.59251433E+04</totfact>
</mgrwt>
</event>
<event>
12    1  0.1441827E-001  0.4263413E+03  0.7546771E-02  0.1035143E+00
         21   -1    0    0  504  503  0.00000000000E+00  0.00000000000E+00  0.23394517772E+04  0.23394517772E+04  0.00000000000E+00 0.  1.
         21   -1    0    0  502  504 -0.00000000000E+00 -0.00000000000E+00 -0.78523622052E+02  0.78523622052E+02  0.00000000000E+00 0. -1.
          6    2    1    2  502    0 -0.54727481643E+02 -0.38620999962E+03  0.98922545858E+03  0.10771879808E+04  0.17208624901E+03 0.  0.
         24    2    3    3    0    0 -0.80786698672E+02 -0.31023055981E+03  0.65874187677E+03  0.73705058814E+03  0.80828326338E+02 0.  0.
         -6    2    1    2    0  503  0.54727481643E+02  0.38620999962E+03  0.12717026965E+04  0.13407874184E+04  0.16831485933E+03 0.  0.
        -24    2    5    5    0    0  0.11883589455E+02  0.76880368478E+02  0.36983689964E+03  0.38637428697E+03  0.80336458374E+02 0.  0.
          2    1    4    4  501    0 -0.61445361645E+02 -0.27223794147E+03  0.61793518619E+03  0.67803607838E+03  0.00000000000E+00 0. -1.
         -1    1    4    4    0  501 -0.19341337027E+02 -0.37992618344E+02  0.40806690579E+02  0.59014509764E+02  0.00000000000E+00 0.  1.
          5    1    3    3  502    0  0.26059217029E+02 -0.75979439808E+02  0.33048358181E+03  0.34013739270E+03  0.47000000000E+01 0. -1.
         13    1    6    6    0    0 -0.20987157095E+02  0.48366350571E+02  0.29608090177E+03  0.30073853266E+03  0.00000000000E+00 0. -1.
        -14    1    6    6    0    0  0.32870746550E+02  0.28514017907E+02  0.73755997864E+02  0.85635754314E+02  0.00000000000E+00 0.  1.
         -5    1    5    5    0  503  0.42843892188E+02  0.30932963114E+03  0.90186579689E+03  0.95441313141E+03  0.47000000000E+01 0.  1.
<mgrwt>
<rscale>  2 0.42596378E+03</rscale>
<asrwt>0</asrwt>
<pdfrwt beam="1">  1       21 0.35991560E+00 0.42634134E+03</pdfrwt>
<pdfrwt beam="2">  1       21 0.12080559E-01 0.42634134E+03</pdfrwt>
<totfact> 0.70767897E+02</totfact>
</mgrwt>
</event>
<event>
12    1  0.1441827E-001  0.1872440E+03  0.7546771E-02  0.1164119E+00
         21   -1    0    0  504  503  0.00000000000E+00  0.00000000000E+00  0.94275337635E+03  0.94275337635E+03  0.00000000000E+00 0.  1.
         21   -1    0    0  502  504 -0.00000000000E+00 -0.00000000000E+00 -0.11854495427E+03  0.11854495427E+03  0.00000000000E+00 0.  1.
          6    2    1    2  502    0  0.36178147666E+01 -0.19156728910E+02 -0.29914572850E+02  0.18961856462E+03  0.18622633953E+03 0.  0.
         24    2    3    3    0    0 -0.41043493900E+02  0.43311221938E+02  0.19889261740E+02  0.97970382342E+02  0.75114464295E+02 0.  0.
         -6    2    1    2    0  503 -0.36178147666E+01  0.19156728910E+02  0.85412299493E+03  0.87167976600E+03  0.17297241147E+03 0.  0.
        -24    2    5    5    0    0 -0.54090379692E+02  0.44617858299E+02  0.68287723401E+03  0.69128312092E+03  0.81452526605E+02 0.  0.
          4    1    4    4  501    0 -0.57386272274E+02  0.24719415536E+02  0.32235071477E+02  0.70308844273E+02  0.00000000000E+00 0. -1.
         -3    1    4    4    0  501  0.16342778374E+02  0.18591806402E+02 -0.12345809737E+02  0.27661538069E+02  0.00000000000E+00 0.  1.
          5    1    3    3  502    0  0.44661308667E+02 -0.62467950848E+02 -0.49803834590E+02  0.91648182278E+02  0.47000000000E+01 0. -1.
         11    1    6    6    0    0 -0.49160556596E+02 -0.34467578843E+01  0.19948327791E+03  0.20548045802E+03  0.00000000000E+00 0. -1.
        -12    1    6    6    0    0 -0.49298230958E+01  0.48064616183E+02  0.48339395610E+03  0.48580266290E+03  0.00000000000E+00 0.  1.
         -5    1    5    5    0  503  0.50472564925E+02 -0.25461129389E+02  0.17124576092E+03  0.18039664507E+03  0.47000000000E+01 0.  1.
<mgrwt>
<rscale>  2 0.18385922E+03</rscale>
<asrwt>0</asrwt>
<pdfrwt beam="1">  1       21 0.14503898E+00 0.18724401E+03</pdfrwt>
<pdfrwt beam="2">  1       21 0.18237686E-01 0.18724401E+03</pdfrwt>
<totfact> 0.89824005E+03</totfact>
</mgrwt>
</event>
<event>
12    1  0.1441827E-001  0.1842528E+03  0.7546771E-02  0.1163877E+00
         21   -1    0    0  504  503  0.00000000000E+00  0.00000000000E+00  0.31963830932E+03  0.31963830932E+03  0.00000000000E+00 0.  1.
         21   -1    0    0  502  504 -0.00000000000E+00 -0.00000000000E+00 -0.12488893724E+03  0.12488893724E+03  0.00000000000E+00 0.  1.
          6    2    1    2  502    0 -0.92816107121E+01 -0.61647961753E+02  0.18416471560E+03  0.26051054415E+03  0.17338535595E+03 0.  0.
         24    2    3    3    0    0  0.58501751783E+02 -0.48624623385E+02  0.83803490803E+02  0.13861445309E+03  0.80025824418E+02 0.  0.
         -6    2    1    2    0  503  0.92816107121E+01  0.61647961753E+02  0.10584656478E+02  0.18401670240E+03  0.17281056775E+03 0.  0.
        -24    2    5    5    0    0  0.61328068968E+02  0.47757541868E+01 -0.11004001522E+02  0.10382043089E+03  0.82907502369E+02 0.  0.
          4    1    4    4  501    0 -0.40975510081E+01 -0.33488752665E+02  0.10523168390E+01  0.33754908533E+02  0.00000000000E+00 0. -1.
         -3    1    4    4    0  501  0.62599302791E+02 -0.15135870719E+02  0.82751173964E+02  0.10485954456E+03  0.00000000000E+00 0.  1.
          5    1    3    3  502    0 -0.67783362495E+02 -0.13023338368E+02  0.10036122480E+03  0.12189609106E+03  0.47000000000E+01 0. -1.
         13    1    6    6    0    0  0.20696473789E+02 -0.24723816762E+02  0.26022144142E+02  0.41433840377E+02  0.00000000000E+00 0. -1.
        -14    1    6    6    0    0  0.40631595179E+02  0.29499570949E+02 -0.37026145665E+02  0.62386590512E+02  0.00000000000E+00 0.  1.
         -5    1    5    5    0  503 -0.52046458256E+02  0.56872207566E+02  0.21588658001E+02  0.80196271514E+02  0.47000000000E+01 0.  1.
<mgrwt>
<rscale>  2 0.18411747E+03</rscale>
<asrwt>0</asrwt>
<pdfrwt beam="1">  1       21 0.49175124E-01 0.18425282E+03</pdfrwt>
<pdfrwt beam="2">  1       21 0.19213683E-01 0.18425282E+03</pdfrwt>
<totfact> 0.98440066E+04</totfact>
</mgrwt>
</event>
<event>
12    1  0.1441827E-001  0.2069580E+03  0.7546771E-02  0.1146835E+00
         21   -1    0    0  504  503  0.00000000000E+00  0.00000000000E+00  0.72596345271E+03  0.72596345271E+03  0.00000000000E+00 0.  1.
         21   -1    0    0  502  504 -0.00000000000E+00 -0.00000000000E+00 -0.57359786182E+02  0.57359786182E+02  0.00000000000E+00 0.  1.
          6    2    1    2  502    0  0.57005419369E+02  0.99133859742E+02  0.26918952015E+03  0.33955062928E+03  0.17249490458E+03 0.  0.
         24    2    3    3    0    0  0.93798712505E+02  0.43890678387E+02  0.22395625951E+03  0.25909136397E+03  0.79040107517E+02 0.  0.
         -6    2    1    2    0  503 -0.57005419369E+02 -0.99133859742E+02  0.39941414638E+03  0.44377260961E+03  0.15596579345E+03 0.  0.
        -24    2    5    5    0    0 -0.89225612563E+02 -0.71811188928E+02  0.35771253729E+03  0.38422612869E+03  0.80953084170E+02 0.  0.
          4    1    4    4  501    0  0.75266951711E+02 -0.73798050632E+01  0.13585033145E+03  0.15548275820E+03  0.00000000000E+00 0. -1.
         -3    1    4    4    0  501  0.18531760794E+02  0.51270483451E+02  0.88105928058E+02  0.10360860577E+03  0.00000000000E+00 0.  1.
          5    1    3    3  502    0 -0.36793293136E+02  0.55243181354E+02  0.45233260641E+02  0.80459265310E+02  0.47000000000E+01 0. -1.
         11    1    6    6    0    0  0.13622186725E+02  0.12071766772E+01  0.26746358916E+02  0.30039789646E+02  0.00000000000E+00 0. -1.
        -12    1    6    6    0    0 -0.10284779929E+03 -0.73018365605E+02  0.33096617838E+03  0.35418633904E+03  0.00000000000E+00 0.  1.
         -5    1    5    5    0  503  0.32220193194E+02 -0.27322670814E+02  0.41701609087E+02  0.59546480923E+02  0.47000000000E+01 0.  1.
<mgrwt>
<rscale>  2 0.20348119E+03</rscale>
<asrwt>0</asrwt>
<pdfrwt beam="1">  1       21 0.11168668E+00 0.20695804E+03</pdfrwt>
<pdfrwt beam="2">  1       21 0.88245830E-02 0.20695804E+03</pdfrwt>
<totfact> 0.63197705E+04</totfact>
</mgrwt>
</event>
<event>
12    1  0.1441827E-001  0.3142984E+03  0.7546771E-02  0.1078305E+00
         21   -1    0    0  504  503  0.00000000000E+00  0.00000000000E+00  0.14131150708E+03  0.14131150708E+03  0.00000000000E+00 0.  1.
         21   -1    0    0  502  504 -0.00000000000E+00 -0.00000000000E+00 -0.86900714428E+03  0.86900714428E+03  0.00000000000E+00 0.  1.
          6    2    1    2  502    0 -0.11770178578E+03  0.23480280755E+03 -0.58727791592E+03  0.66609221550E+03  0.17261929270E+03 0.  0.
         24    2    3    3    0    0 -0.69082132190E+02  0.23941620193E+03 -0.44277922186E+03  0.51349104673E+03  0.74344852086E+02 0.  0.
         -6    2    1    2    0  503  0.11770178578E+03 -0.23480280755E+03 -0.14041772128E+03  0.34422643586E+03  0.17259384082E+03 0.  0.
        -24    2    5    5    0    0  0.49678070950E+02 -0.31348799585E+02 -0.43191244287E+02  0.10865089179E+03  0.80553551974E+02 0.  0.
          4    1    4    4  501    0 -0.26148621965E+02  0.14816592421E+03 -0.19742854240E+03  0.24822353008E+03  0.00000000000E+00 0. -1.
         -3    1    4    4    0  501 -0.42933510224E+02  0.91250277713E+02 -0.24535067946E+03  0.26526751666E+03  0.00000000000E+00 0.  1.
          5    1    3    3  502    0 -0.48619653592E+02 -0.46133943807E+01 -0.14449869406E+03  0.15260116877E+03  0.47000000000E+01 0. -1.
         13    1    6    6    0    0 -0.17631663406E+02  0.34364159437E+01 -0.24907135070E+02  0.30709117317E+02  0.00000000000E+00 0. -1.
        -14    1    6    6    0    0  0.67309734357E+02 -0.34785215529E+02 -0.18284109217E+02  0.77941774475E+02  0.00000000000E+00 0.  1.
         -5    1    5    5    0  503  0.68023714831E+02 -0.20345400796E+03 -0.97226476995E+02  0.23557554407E+03  0.47000000000E+01 0.  1.
<mgrwt>
<rscale>  2 0.31429491E+03</rscale>
<asrwt>0</asrwt>
<pdfrwt beam="1">  1       21 0.21740232E-01 0.31429841E+03</pdfrwt>
<pdfrwt beam="2">  1       21 0.13369341E+00 0.31429841E+03</pdfrwt>
<totfact> 0.73776000E+03</totfact>
</mgrwt>
</event>
<event>
12    1  0.1441827E-001  0.1833353E+03  0.7546771E-02  0.1164668E+00
         21   -1    0    0  504  503  0.00000000000E+00  0.00000000000E+00  0.12080881094E+04  0.12080881094E+04  0.00000000000E+00 0. -1.
         21   -1    0    0  502  504 -0.00000000000E+00 -0.00000000000E+00 -0.27856116585E+02  0.27856116585E+02  0.00000000000E+00 0. -1.
          6    2    1    2  502    0 -0.50432691027E+02 -0.29534726704E+02  0.62121315618E+03  0.64770178656E+03  0.17377014272E+03 0.  0.
         24    2    3    3    0    0 -0.17623325067E+02 -0.78467316335E+02  0.29810411335E+03  0.31923200655E+03  0.81088287018E+02 0.  0.
         -6    2    1    2    0  503  0.50432691027E+02  0.29534726704E+02  0.55901883659E+03  0.58824243938E+03  0.17352622688E+03 0.  0.
        -24    2    5    5    0    0 -0.18850637355E+02  0.57519753021E+02  0.39781570362E+03  0.41050138793E+03  0.81179966309E+02 0.  0.
          4    1    4    4  501    0 -0.47956051075E+02 -0.61508936835E+02  0.18121983343E+03  0.19729105447E+03  0.00000000000E+00 0. -1.
         -3    1    4    4    0  501  0.30332726008E+02 -0.16958379500E+02  0.11688427992E+03  0.12194095208E+03  0.00000000000E+00 0.  1.
          5    1    3    3  502    0 -0.32809365959E+02  0.48932589631E+02  0.32310904283E+03  0.32846978001E+03  0.47000000000E+01 0. -1.
         11    1    6    6    0    0  0.16958247024E+01 -0.18150692111E+02  0.36788810702E+02  0.41057764654E+02  0.00000000000E+00 0. -1.
        -12    1    6    6    0    0 -0.20546462057E+02  0.75670445132E+02  0.36102689292E+03  0.36944362328E+03  0.00000000000E+00 0.  1.
         -5    1    5    5    0  503  0.69283328381E+02 -0.27985026317E+02  0.16120313297E+03  0.17774105144E+03  0.47000000000E+01 0.  1.
<mgrwt>
<rscale>  2 0.18327744E+03</rscale>
<asrwt>0</asrwt>
<pdfrwt beam="1">  1       21 0.18585967E+00 0.18333526E+03</pdfrwt>
<pdfrwt beam="2">  1       21 0.42855573E-02 0.18333526E+03</pdfrwt>
<totfact> 0.58314837E+04</totfact>
</mgrwt>
</event>
<event>
12    1  0.1441827E-001  0.1832976E+03  0.7546771E-02  0.1165025E+00
         21   -1    0    0  504  503  0.00000000000E+00  0.00000000000E+00  0.12456724872E+03  0.12456724872E+03  0.00000000000E+00 0. -1.
         21   -1    0    0  502  504 -0.00000000000E+00 -0.00000000000E+00 -0.11472987844E+04  0.11472987844E+04  0.00000000000E+00 0. -1.
          6    2    1    2  502    0 -0.16412201414E+02  0.56542417564E+02 -0.10687995637E+04  0.10844033017E+04  0.17358458480E+03 0.  0.
         24    2    3    3    0    0  0.54830568603E+02  0.50635619192E+02 -0.71093793596E+03  0.71944103360E+03  0.81192948270E+02 0.  0.
         -6    2    1    2    0  503  0.16412201414E+02 -0.56542417564E+02  0.46068028028E+02  0.18746273139E+03  0.17191162589E+03 0.  0.
        -24    2    5    5    0    0 -0.27325942056E+02 -0.41773356302E+02  0.83106836928E+02  0.12809006319E+03  0.83717367005E+02 0.  0.
          4    1    4    4  501    0  0.57344356376E+02 -0.21394115232E+01 -0.35775762847E+03  0.36233061286E+03  0.00000000000E+00 0. -1.
         -3    1    4    4    0  501 -0.25137877727E+01  0.52775030715E+02 -0.35318030750E+03  0.35711042074E+03  0.00000000000E+00 0.  1.
          5    1    3    3  502    0 -0.71242770018E+02  0.59067983720E+01 -0.35786162770E+03  0.36496226809E+03  0.47000000000E+01 0. -1.
         13    1    6    6    0    0 -0.41421407933E+02  0.62433104696E+00  0.70323165607E+02  0.81617831663E+02  0.00000000000E+00 0. -1.
        -14    1    6    6    0    0  0.14095465876E+02 -0.42397687349E+02  0.12783671321E+02  0.46472231529E+02  0.00000000000E+00 0.  1.
         -5    1    5    5    0  503  0.43738143471E+02 -0.14769061262E+02 -0.37038808900E+02  0.59372668203E+02  0.47000000000E+01 0.  1.
<mgrwt>
<rscale>  2 0.18290044E+03</rscale>
<asrwt>0</asrwt>
<pdfrwt beam="1">  1       21 0.19164192E-01 0.18329761E+03</pdfrwt>
<pdfrwt beam="2">  1       21 0.17650751E+00 0.18329761E+03</pdfrwt>
<totfact> 0.48462476E+03</totfact>
</mgrwt>
</event>
<event>
12    1  0.1441827E-001  0.1921087E+03  0.7546771E-02  0.1158307E+00
         21   -1    0    0  504  503  0.00000000000E+00  0.00000000000E+00  0.64266198814E+02  0.64266198814E+02  0.00000000000E+00 0.  1.
         21   -1    0    0  502  504 -0.00000000000E+00 -0.00000000000E+00 -0.90810444913E+03  0.90810444913E+03  0.00000000000E+00 0.  1.
          6    2    1    2  502    0 -0.78549753203E+02  0.21032188922E+02 -0.72128085812E+03  0.74449773508E+03  0.16558497679E+03 0.  0.
         24    2    3    3    0    0 -0.15695790093E+02 -0.43480556158E+02 -0.41171157963E+03  0.42205744115E+03  0.80555212392E+02 0.  0.
         -6    2    1    2    0  503  0.78549753203E+02 -0.21032188922E+02 -0.12255739219E+03  0.22787291286E+03  0.17404980132E+03 0.  0.
        -24    2    5    5    0    0  0.12560537169E+02  0.23250076009E+02 -0.12158814719E+03  0.14825805837E+03  0.80612909672E+02 0.  0.
          2    1    4    4  501    0  0.10699503275E+02  0.57250828362E+01 -0.80730891671E+01  0.14575003002E+02  0.00000000000E+00 0. -1.
         -1    1    4    4    0  501 -0.26395293368E+02 -0.49205638994E+02 -0.40363849046E+03  0.40748243815E+03  0.00000000000E+00 0.  1.
          5    1    3    3  502    0 -0.62853963110E+02  0.64512745080E+02 -0.30956927850E+03  0.32244029392E+03  0.47000000000E+01 0. -1.
         11    1    6    6    0    0  0.19380197310E+02  0.33529611619E+02 -0.12843672718E+03  0.13414849903E+03  0.00000000000E+00 0. -1.
        -12    1    6    6    0    0 -0.68196601413E+01 -0.10279535610E+02  0.68485799917E+01  0.14109559338E+02  0.00000000000E+00 0.  1.
         -5    1    5    5    0  503  0.65989216034E+02 -0.44282264931E+02 -0.96924499655E+00  0.79614854494E+02  0.47000000000E+01 0.  1.
<mgrwt>
<rscale>  2 0.19017100E+03</rscale>
<asrwt>0</asrwt>
<pdfrwt beam="1">  1       21 0.98871081E-02 0.19210869E+03</pdfrwt>
<pdfrwt beam="2">  1       21 0.13970837E+00 0.19210869E+03</pdfrwt>
<totfact> 0.29795170E+04</totfact>
</mgrwt>
</event>
<event>
12    1  0.1441827E-001  0.2344199E+03  0.7546771E-02  0.1123598E+00
         21   -1    0    0  504  503  0.00000000000E+00  0.00000000000E+00  0.33632837551E+03  0.33632837551E+03  0.00000000000E+00 0.  1.
         21   -1    0    0  502  504 -0.00000000000E+00 -0.00000000000E+00 -0.49802398656E+03  0.49802398656E+03  0.00000000000E+00 0.  1.
          6    2    1    2  502    0 -0.36351310335E+02 -0.15438881234E+03 -0.42286439576E+03  0.48340816976E+03  0.17237122221E+03 0.  0.
         24    2    3    3    0    0 -0.39961244601E+02 -0.14927527111E+03 -0.43501463824E+03  0.46895485452E+03  0.82467644934E+02 0.  0.
         -6    2    1    2    0  503  0.36351310335E+02  0.15438881234E+03  0.26116878472E+03  0.35094419230E+03  0.17261335077E+03 0.  0.
        -24    2    5    5    0    0  0.78366338420E+01  0.17860624229E+03  0.22292956548E+03  0.29724225029E+03  0.81815411580E+02 0.  0.
          4    1    4    4  501    0 -0.61370649739E+02 -0.93348522338E+02 -0.32548688559E+03  0.34412500049E+03  0.00000000000E+00 0. -1.
         -3    1    4    4    0  501  0.21409405137E+02 -0.55926748772E+02 -0.10952775265E+03  0.12482985403E+03  0.00000000000E+00 0.  1.
          5    1    3    3  502    0  0.36099342662E+01 -0.51135412285E+01  0.12150242472E+02  0.14453315240E+02  0.47000000000E+01 0. -1.
         13    1    6    6    0    0 -0.65781711465E+01  0.98217628089E+01 -0.53501104254E+01  0.12975478483E+02  0.00000000000E+00 0. -1.
        -14    1    6    6    0    0  0.14414804989E+02  0.16878447948E+03  0.22827967591E+03  0.28426677180E+03  0.00000000000E+00 0.  1.
         -5    1    5    5    0  503  0.28514676493E+02 -0.24217429953E+02  0.38239219234E+02  0.53701942019E+02  0.47000000000E+01 0.  1.
<mgrwt>
<rscale>  2 0.23437533E+03</rscale>
<asrwt>0</asrwt>
<pdfrwt beam="1">  1       21 0.51742827E-01 0.23441991E+03</pdfrwt>
<pdfrwt beam="2">  1       21 0.76619074E-01 0.23441991E+03</pdfrwt>
<totfact> 0.52159452E+03</totfact>
</mgrwt>
</event>
<event>
12    1  0.1441827E-001  0.2348689E+03  0.7546771E-02  0.1123268E+00
         21   -1    0    0  504  503  0.00000000000E+00  0.00000000000E+00  0.10194264848E+03  0.10194264848E+03  0.00000000000E+00 0. -1.
         21   -1    0    0  502  504 -0.00000000000E+00 -0.00000000000E+00 -0.54103153646E+03  0.54103153646E+03  0.00000000000E+00 0.  1.
          6    2    1    2  502    0  0.14147398564E+03  0.72777405354E+02 -0.21702640758E+03  0.31978720097E+03  0.17277717725E+03 0.  0.
         24    2    3    3    0    0  0.14356993558E+03  0.27304572697E+01 -0.15932431959E+03  0.22888841715E+03  0.79911744403E+02 0.  0.
         -6    2    1    2    0  503 -0.14147398564E+03 -0.72777405354E+02 -0.22206248040E+03  0.32318698396E+03  0.17270391442E+03 0.  0.
        -24    2    5    5    0    0 -0.24609030605E+02 -0.67125812691E+02 -0.15278245079E+03  0.18713122070E+03  0.81019364187E+02 0.  0.
          2    1    4    4  501    0  0.86897566323E+02  0.56795986101E+01 -0.38128470577E+02  0.95064321076E+02  0.00000000000E+00 0. -1.
         -1    1    4    4    0  501  0.56672369259E+02 -0.29491413404E+01 -0.12119584902E+03  0.13382409608E+03  0.00000000000E+00 0.  1.
          5    1    3    3  502    0 -0.20959499459E+01  0.70046948085E+02 -0.57702087982E+02  0.90898783818E+02  0.47000000000E+01 0. -1.
         11    1    6    6    0    0  0.17346259546E+02 -0.76015143228E+01 -0.12166479910E+01  0.18977775754E+02  0.00000000000E+00 0. -1.
        -12    1    6    6    0    0 -0.41955290151E+02 -0.59524298368E+02 -0.15156580280E+03  0.16815344494E+03  0.00000000000E+00 0.  1.
         -5    1    5    5    0  503 -0.11686495503E+03 -0.56515926635E+01 -0.69280029613E+02  0.13605576326E+03  0.47000000000E+01 0.  1.
<mgrwt>
<rscale>  2 0.23485541E+03</rscale>
<asrwt>0</asrwt>
<pdfrwt beam="1">  1       21 0.15683485E-01 0.23486888E+03</pdfrwt>
<pdfrwt beam="2">  1       21 0.83235620E-01 0.23486888E+03</pdfrwt>
<totfact> 0.44540342E+04</totfact>
</mgrwt>
</event>
<event>
12    1  0.1441827E-001  0.2027993E+03  0.7546771E-02  0.1147538E+00
         21   -1    0    0  504  503  0.00000000000E+00  0.00000000000E+00  0.45030243849E+02  0.45030243849E+02  0.00000000000E+00 0. -1.
         21   -1    0    0  502  504 -0.00000000000E+00 -0.00000000000E+00 -0.19204199620E+04  0.19204199620E+04  0.00000000000E+00 0.  1.
          6    2    1    2  502    0 -0.35167914223E+01 -0.10447935504E+03 -0.16511580119E+04  0.16635655476E+04  0.17377930693E+03 0.  0.
         24    2    3    3    0    0 -0.69152448146E+02 -0.63981148422E+02 -0.11167172148E+04  0.11235681404E+04  0.80451102607E+02 0.  0.
         -6    2    1    2    0  503  0.35167914223E+01  0.10447935504E+03 -0.22423170626E+03  0.30188465824E+03  0.17299186494E+03 0.  0.
        -24    2    5    5    0    0  0.43170824275E+02  0.12198113065E+03 -0.20092836830E+03  0.25244894209E+03  0.81333528569E+02 0.  0.
          4    1    4    4  501    0 -0.64264596291E+02 -0.19364124871E+02 -0.41275658929E+03  0.41817808368E+03  0.00000000000E+00 0. -1.
         -3    1    4    4    0  501 -0.48878518548E+01 -0.44617023551E+02 -0.70396062548E+03  0.70539005671E+03  0.00000000000E+00 0.  1.
          5    1    3    3  502    0  0.65635656724E+02 -0.40498206613E+02 -0.53444079714E+03  0.53999740723E+03  0.47000000000E+01 0. -1.
         13    1    6    6    0    0  0.28339586698E+02  0.91460684055E+00 -0.57936930433E+02  0.64503151767E+02  0.00000000000E+00 0. -1.
        -14    1    6    6    0    0  0.14831237577E+02  0.12106652381E+03 -0.14299143787E+03  0.18794579032E+03  0.00000000000E+00 0.  1.
         -5    1    5    5    0  503 -0.39654032853E+02 -0.17501775615E+02 -0.23303337957E+02  0.49435716148E+02  0.47000000000E+01 0.  1.
<mgrwt>
<rscale>  2 0.20263049E+03</rscale>
<asrwt>0</asrwt>
<pdfrwt beam="1">  1       21 0.69277312E-02 0.20279929E+03</pdfrwt>
<pdfrwt beam="2">  1       21 0.29544916E+00 0.20279929E+03</pdfrwt>
<totfact> 0.55210208E+03</totfact>
</mgrwt>
</event>
<event>
12    1  0.1441827E-001  0.2966433E+03  0.7546771E-02  0.1087012E+00
         21   -1    0    0  504  503  0.00000000000E+00  0.00000000000E+00  0.21001262041E+03  0.21001262041E+03  0.00000000000E+00 0.  1.
         21   -1    0    0  502  504 -0.00000000000E+00 -0.00000000000E+00 -0.43955108223E+03  0.43955108223E+03  0.00000000000E+00 0. -1.
          6    2    1    2  502    0 -0.15839888865E+03  0.18058740776E+03 -0.43154044362E+02  0.29976573660E+03  0.17405517955E+03 0.  0.
         24    2    3    3    0    0 -0.14473280642E+02  0.44809561037E+02  0.15813191905E+02  0.93248354152E+02  0.78916575578E+02 0.  0.
         -6    2    1    2    0  503  0.15839888865E+03 -0.18058740776E+03 -0.18638441745E+03  0.34979796604E+03  0.17296660431E+03 0.  0.
        -24    2    5    5    0    0  0.11608965861E+03 -0.18530525108E+03 -0.19723039806E+03  0.30561590760E+03  0.81770460106E+02 0.  0.
          2    1    4    4  501    0  0.22226659784E+02  0.52746432768E+01 -0.18432118503E+02  0.29352840738E+02  0.00000000000E+00 0. -1.
         -1    1    4    4    0  501 -0.36699940426E+02  0.39534917760E+02  0.34245310408E+02  0.63895513415E+02  0.00000000000E+00 0.  1.
          5    1    3    3  502    0 -0.14392560801E+03  0.13577784672E+03 -0.58967236267E+02  0.20651738245E+03  0.47000000000E+01 0. -1.
         13    1    6    6    0    0  0.23559998731E+02 -0.59573271259E+02 -0.10863714100E+03  0.12611929509E+03  0.00000000000E+00 0. -1.
        -14    1    6    6    0    0  0.92529659879E+02 -0.12573197982E+03 -0.88593257058E+02  0.17949661251E+03  0.00000000000E+00 0.  1.
         -5    1    5    5    0  503  0.42309230040E+02  0.47178433259E+01  0.10845980604E+02  0.44182058434E+02  0.47000000000E+01 0.  1.
<mgrwt>
<rscale>  2 0.29648378E+03</rscale>
<asrwt>0</asrwt>
<pdfrwt beam="1">  1       21 0.32309634E-01 0.29664326E+03</pdfrwt>
<pdfrwt beam="2">  1       21 0.67623243E-01 0.29664326E+03</pdfrwt>
<totfact> 0.17468617E+04</totfact>
</mgrwt>
</event>
<event>
12    1  0.1441827E-001  0.1792912E+03  0.7546771E-02  0.1168974E+00
         21   -1    0    0  504  503  0.00000000000E+00  0.00000000000E+00  0.40253747943E+03  0.40253747943E+03  0.00000000000E+00 0. -1.
         21   -1    0    0  502  504 -0.00000000000E+00 -0.00000000000E+00 -0.13007837251E+03  0.13007837251E+03  0.00000000000E+00 0. -1.
          6    2    1    2  502    0 -0.35847809324E+02  0.26086172074E+02 -0.30222009721E+02  0.18182053390E+03  0.17372329397E+03 0.  0.
         24    2    3    3    0    0  0.44134935083E+02  0.40137894495E+02 -0.13631687838E+02  0.98802348627E+02  0.77570214075E+02 0.  0.
         -6    2    1    2    0  503  0.35847809324E+02 -0.26086172074E+02  0.30268111664E+03  0.35079531804E+03  0.17168559339E+03 0.  0.
        -24    2    5    5    0    0  0.72889557317E+02 -0.70648316942E+01  0.11607541407E+03  0.15954239462E+03  0.81347861164E+02 0.  0.
          2    1    4    4  501    0  0.39566069699E+02 -0.23692430121E+01 -0.33276051731E+02  0.51753094619E+02  0.00000000000E+00 0. -1.
         -1    1    4    4    0  501  0.45688653840E+01  0.42507137507E+02  0.19644363892E+02  0.47049254008E+02  0.00000000000E+00 0.  1.
          5    1    3    3  502    0 -0.79982744407E+02 -0.14051722421E+02 -0.16590321883E+02  0.83018185273E+02  0.47000000000E+01 0. -1.
         11    1    6    6    0    0  0.50952241187E+02 -0.43049109002E+02  0.79163450375E+02  0.10351912163E+03  0.00000000000E+00 0. -1.
        -12    1    6    6    0    0  0.21937316130E+02  0.35984277308E+02  0.36911963692E+02  0.56023272985E+02  0.00000000000E+00 0.  1.
         -5    1    5    5    0  503 -0.37041747994E+02 -0.19021340380E+02  0.18660570257E+03  0.19125292342E+03  0.47000000000E+01 0.  1.
<mgrwt>
<rscale>  2 0.17879573E+03</rscale>
<asrwt>0</asrwt>
<pdfrwt beam="1">  1       21 0.61928843E-01 0.17929121E+03</pdfrwt>
<pdfrwt beam="2">  1       21 0.20012057E-01 0.17929121E+03</pdfrwt>
<totfact> 0.56155426E+04</totfact>
</mgrwt>
</event>
<event>
12    1  0.1441827E-001  0.1838221E+03  0.7546771E-02  0.1164196E+00
         21   -1    0    0  504  503  0.00000000000E+00  0.00000000000E+00  0.80260626154E+03  0.80260626154E+03  0.00000000000E+00 0. -1.
         21   -1    0    0  502  504 -0.00000000000E+00 -0.00000000000E+00 -0.42378045986E+02  0.42378045986E+02  0.00000000000E+00 0. -1.
          6    2    1    2  502    0 -0.61348880486E+02 -0.52810169430E+01  0.34334422053E+03  0.38937170400E+03  0.17301299325E+03 0.  0.
         24    2    3    3    0    0 -0.28867844668E+02 -0.65779650792E+02  0.14585773500E+03  0.18023513534E+03  0.77781168923E+02 0.  0.
         -6    2    1    2    0  503  0.61348880486E+02  0.52810169430E+01  0.41688399503E+03  0.45561260352E+03  0.17320220813E+03 0.  0.
        -24    2    5    5    0    0  0.69023407475E+02  0.63921783601E+02  0.25965878175E+03  0.28756649209E+03  0.80134756706E+02 0.  0.
          2    1    4    4  501    0 -0.54513077435E+02 -0.31713868988E+02  0.92007510080E+02  0.11154742045E+03  0.00000000000E+00 0. -1.
         -1    1    4    4    0  501  0.25645232767E+02 -0.34065781804E+02  0.53850224921E+02  0.68687714896E+02  0.00000000000E+00 0.  1.
          5    1    3    3  502    0 -0.32481035819E+02  0.60498633849E+02  0.19748648552E+03  0.20913656866E+03  0.47000000000E+01 0. -1.
         13    1    6    6    0    0  0.35240807933E+02  0.40723224839E+01  0.17482387913E+03  0.17838690274E+03  0.00000000000E+00 0. -1.
        -14    1    6    6    0    0  0.33782599542E+02  0.59849461117E+02  0.84834902623E+02  0.10917958935E+03  0.00000000000E+00 0.  1.
         -5    1    5    5    0  503 -0.76745269888E+01 -0.58640766658E+02  0.15722521327E+03  0.16804611143E+03  0.47000000000E+01 0.  1.
<mgrwt>
<rscale>  2 0.18377756E+03</rscale>
<asrwt>0</asrwt>
<pdfrwt beam="1">  1       21 0.12347787E+00 0.18382214E+03</pdfrwt>
<pdfrwt beam="2">  1       21 0.65197000E-02 0.18382214E+03</pdfrwt>
<totfact> 0.84438592E+04</totfact>
</mgrwt>
</event>
<event>
12    1  0.1441827E-001  0.1820993E+03  0.7546771E-02  0.1166055E+00
         21   -1    0    0  504  503  0.00000000000E+00  0.00000000000E+00  0.13875778893E+03  0.13875778893E+03  0.00000000000E+00 0. -1.
         21   -1    0    0  502  504 -0.00000000000E+00 -0.00000000000E+00 -0.24159220125E+03  0.24159220125E+03  0.00000000000E+00 0. -1.
          6    2    1    2  502    0 -0.57072363256E+02  0.28187785031E+01 -0.26543144762E+02  0.18291512630E+03  0.17172129960E+03 0.  0.
         24    2    3    3    0    0  0.11001409843E+01 -0.50397907800E+02  0.79056172686E+01  0.96747480652E+02  0.82197425794E+02 0.  0.
         -6    2    1    2    0  503  0.57072363256E+02 -0.28187785031E+01 -0.76291267551E+02  0.19743486389E+03  0.17290161310E+03 0.  0.
        -24    2    5    5    0    0  0.65213468191E+02 -0.63597860027E+02 -0.66404612263E+02  0.13514352987E+03  0.74543389397E+02 0.  0.
          2    1    4    4  501    0  0.94471348886E+01 -0.23044793736E+01  0.38119856866E+02  0.39340595703E+02  0.00000000000E+00 0. -1.
         -1    1    4    4    0  501 -0.83469939043E+01 -0.48093428426E+02 -0.30214239597E+02  0.57406884949E+02  0.00000000000E+00 0.  1.
          5    1    3    3  502    0 -0.58172504241E+02  0.53216686303E+02 -0.34448762031E+02  0.86167645646E+02  0.47000000000E+01 0. -1.
         11    1    6    6    0    0  0.69307052242E+02 -0.21048687780E+02 -0.54869003363E+02  0.90868709014E+02  0.00000000000E+00 0. -1.
        -12    1    6    6    0    0 -0.40935840515E+01 -0.42549172247E+02 -0.11535608900E+02  0.44274820858E+02  0.00000000000E+00 0.  1.
         -5    1    5    5    0  503 -0.81411049348E+01  0.60779081524E+02 -0.98866552876E+01  0.62291334014E+02  0.47000000000E+01 0.  1.
<mgrwt>
<rscale>  2 0.18181861E+03</rscale>
<asrwt>0</asrwt>
<pdfrwt beam="1">  1       21 0.21347352E-01 0.18209934E+03</pdfrwt>
<pdfrwt beam="2">  1       21 0.37168031E-01 0.18209934E+03</pdfrwt>
<totfact> 0.14311365E+05</totfact>
</mgrwt>
</event>
<event>
12    1  0.1441827E-001  0.2600239E+03  0.7546771E-02  0.1107671E+00
         21   -1    0    0  504  503  0.00000000000E+00  0.00000000000E+00  0.59871272873E+03  0.59871272873E+03  0.00000000000E+00 0.  1.
         21   -1    0    0  502  504 -0.00000000000E+00 -0.00000000000E+00 -0.11137940698E+03  0.11137940698E+03  0.00000000000E+00 0.  1.
          6    2    1    2  502    0 -0.15936789283E+03  0.10040053308E+03  0.24609916362E+03  0.35801844561E+03  0.17925963504E+03 0.  0.
         24    2    3    3    0    0 -0.14063105161E+03  0.49789877429E+02  0.91494609119E+02  0.19419791589E+03  0.84175070344E+02 0.  0.
         -6    2    1    2    0  503  0.15936789283E+03 -0.10040053308E+03  0.24123415813E+03  0.35207369010E+03  0.17402175698E+03 0.  0.
        -24    2    5    5    0    0  0.66867857275E+02 -0.75785039059E+02  0.21814007306E+03  0.25349577224E+03  0.80376194162E+02 0.  0.
          4    1    4    4  501    0 -0.68045834384E+02 -0.17797523106E+02  0.24365246297E+02  0.74435560271E+02  0.00000000000E+00 0. -1.
         -3    1    4    4    0  501 -0.72585217224E+02  0.67587400535E+02  0.67129362823E+02  0.11976235562E+03  0.00000000000E+00 0.  1.
          5    1    3    3  502    0 -0.18736841219E+02  0.50610655653E+02  0.15460455450E+03  0.16382052972E+03  0.47000000000E+01 0. -1.
         13    1    6    6    0    0 -0.17494889571E+02 -0.12327753535E+02  0.21645289531E+02  0.30439501100E+02  0.00000000000E+00 0. -1.
        -14    1    6    6    0    0  0.84362746846E+02 -0.63457285524E+02  0.19649478353E+03  0.22305627114E+03  0.00000000000E+00 0.  1.
         -5    1    5    5    0  503  0.92500035553E+02 -0.24615494023E+02  0.23094085068E+02  0.98577917854E+02  0.47000000000E+01 0.  1.
<mgrwt>
<rscale>  2 0.25912347E+03</rscale>
<asrwt>0</asrwt>
<pdfrwt beam="1">  1       21 0.92109649E-01 0.26002386E+03</pdfrwt>
<pdfrwt beam="2">  1       21 0.17135294E-01 0.26002386E+03</pdfrwt>
<totfact> 0.29582855E+04</totfact>
</mgrwt>
</event>
<event>
12    1  0.1441827E-001  0.2157360E+03  0.7546771E-02  0.1138494E+00
         21   -1    0    0  504  503  0.00000000000E+00  0.00000000000E+00  0.12886471069E+03  0.12886471069E+03  0.00000000000E+00 0. -1.
         21   -1    0    0  502  504 -0.00000000000E+00 -0.00000000000E+00 -0.99042763137E+03  0.99042763137E+03  0.00000000000E+00 0. -1.
          6    2    1    2  502    0  0.33502981328E+02  0.10939205838E+03 -0.87847072012E+03  0.90289482846E+03  0.17441098864E+03 0.  0.
         24    2    3    3    0    0 -0.30673719703E+02  0.70174978691E+02 -0.70275930886E+03  0.71170586868E+03  0.82396557043E+02 0.  0.
         -6    2    1    2    0  503 -0.33502981328E+02 -0.10939205838E+03  0.16907799442E+02  0.21639751360E+03  0.18290144346E+03 0.  0.
        -24    2    5    5    0    0 -0.47710165960E+02  0.10433440847E+02  0.15127379107E+02  0.95628087605E+02  0.80813222412E+02 0.  0.
          4    1    4    4  501    0 -0.13565166001E+02  0.78969738841E+02 -0.37909089636E+03  0.38746630961E+03  0.00000000000E+00 0. -1.
         -3    1    4    4    0  501 -0.17108553702E+02 -0.87947601500E+01 -0.32366841249E+03  0.32423955906E+03  0.00000000000E+00 0.  1.
          5    1    3    3  502    0  0.64176701032E+02  0.39217079686E+02 -0.17571141127E+03  0.19118895978E+03  0.47000000000E+01 0. -1.
         11    1    6    6    0    0 -0.30256082069E+02 -0.15458983141E+02  0.42285236829E+02  0.54244372203E+02  0.00000000000E+00 0. -1.
        -12    1    6    6    0    0 -0.17454083891E+02  0.25892423989E+02 -0.27157857723E+02  0.41383715403E+02  0.00000000000E+00 0.  1.
         -5    1    5    5    0  503  0.14207184631E+02 -0.11982549922E+03  0.17804203355E+01  0.12076942600E+03  0.47000000000E+01 0.  1.
<mgrwt>
<rscale>  2 0.21392591E+03</rscale>
<asrwt>0</asrwt>
<pdfrwt beam="1">  1       21 0.19825340E-01 0.21573597E+03</pdfrwt>
<pdfrwt beam="2">  1       21 0.15237348E+00 0.21573597E+03</pdfrwt>
<totfact> 0.66076556E+03</totfact>
</mgrwt>
</event>
<event>
12    1  0.1441827E-001  0.1936016E+03  0.7546771E-02  0.1155262E+00
         21   -1    0    0  504  503  0.00000000000E+00  0.00000000000E+00  0.10985031815E+04  0.10985031815E+04  0.00000000000E+00 0.  1.
         21   -1    0    0  502  504 -0.00000000000E+00 -0.00000000000E+00 -0.89853753908E+02  0.89853753908E+02  0.00000000000E+00 0.  1.
          6    2    1    2  502    0  0.65950623759E+02  0.57740573304E+02  0.97229197184E+03  0.99137101148E+03  0.17257272474E+03 0.  0.
         24    2    3    3    0    0  0.67139615429E+02 -0.27334730625E+02  0.58035364209E+03  0.59027630276E+03  0.79754926190E+02 0.  0.
         -6    2    1    2    0  503 -0.65950623759E+02 -0.57740573304E+02  0.36357455708E+02  0.19698592388E+03  0.17262135164E+03 0.  0.
        -24    2    5    5    0    0 -0.54514049034E+02 -0.10215116506E+03  0.48162901384E+02  0.14939858891E+03  0.81201177543E+02 0.  0.
          2    1    4    4  501    0 -0.33911104554E+01  0.81951195024E+01  0.26621419869E+03  0.26636189517E+03  0.00000000000E+00 0. -1.
         -1    1    4    4    0  501  0.70530725884E+02 -0.35529850127E+02  0.31413944340E+03  0.32391440759E+03  0.00000000000E+00 0.  1.
          5    1    3    3  502    0 -0.11889916703E+01  0.85075303929E+02  0.39193832975E+03  0.40109470872E+03  0.47000000000E+01 0. -1.
         13    1    6    6    0    0 -0.61367119168E+02 -0.35286968731E+02  0.40995722634E+02  0.81803072995E+02  0.00000000000E+00 0. -1.
        -14    1    6    6    0    0  0.68530701336E+01 -0.66864196331E+02  0.71671787503E+01  0.67595515919E+02  0.00000000000E+00 0.  1.
         -5    1    5    5    0  503 -0.11436574725E+02  0.44410591758E+02 -0.11805445676E+02  0.47587334968E+02  0.47000000000E+01 0.  1.
<mgrwt>
<rscale>  2 0.19359079E+03</rscale>
<asrwt>0</asrwt>
<pdfrwt beam="1">  1       21 0.16900048E+00 0.19360163E+03</pdfrwt>
<pdfrwt beam="2">  1       21 0.13823655E-01 0.19360163E+03</pdfrwt>
<totfact> 0.98596247E+03</totfact>
</mgrwt>
</event>
<event>
12    1  0.1441827E-001  0.1943995E+03  0.7546771E-02  0.1154957E+00
         21   -1    0    0  504  503  0.00000000000E+00  0.00000000000E+00  0.13933836057E+03  0.13933836057E+03  0.00000000000E+00 0. -1.
         21   -1    0    0  502  504 -0.00000000000E+00 -0.00000000000E+00 -0.27275910431E+03  0.27275910431E+03  0.00000000000E+00 0.  1.
          6    2    1    2  502    0 -0.80551119646E+02 -0.23682648204E+01 -0.41752489528E+02  0.19883263727E+03  0.17690973888E+03 0.  0.
         24    2    3    3    0    0 -0.54608003939E+02  0.68425828210E+02 -0.26251550517E+02  0.12171442950E+03  0.80381156890E+02 0.  0.
         -6    2    1    2    0  503  0.80551119646E+02  0.23682648204E+01 -0.91668254212E+02  0.21326482761E+03  0.17488489446E+03 0.  0.
        -24    2    5    5    0    0  0.86419726733E+01 -0.51005148441E+02 -0.24730999689E+02  0.10136159841E+03  0.83584343201E+02 0.  0.
          2    1    4    4  501    0 -0.23321843825E+02  0.74839640234E+02  0.29430521844E+01  0.78444513549E+02  0.00000000000E+00 0. -1.
         -1    1    4    4    0  501 -0.31286160114E+02 -0.64138120237E+01 -0.29194602701E+02  0.43269915949E+02  0.00000000000E+00 0.  1.
          5    1    3    3  502    0 -0.25943115707E+02 -0.70794093030E+02 -0.15500939011E+02  0.77118207778E+02  0.47000000000E+01 0. -1.
         13    1    6    6    0    0 -0.58524755054E+01 -0.14092488919E+02 -0.51369998442E+02  0.53588491800E+02  0.00000000000E+00 0. -1.
        -14    1    6    6    0    0  0.14494448179E+02 -0.36912659522E+02  0.26638998753E+02  0.47773106614E+02  0.00000000000E+00 0.  1.
         -5    1    5    5    0  503  0.71909146973E+02  0.53373413261E+02 -0.66937254522E+02  0.11190322920E+03  0.47000000000E+01 0.  1.
<mgrwt>
<rscale>  2 0.19393760E+03</rscale>
<asrwt>0</asrwt>
<pdfrwt beam="1">  1       21 0.21436671E-01 0.19439945E+03</pdfrwt>
<pdfrwt beam="2">  1       21 0.41962939E-01 0.19439945E+03</pdfrwt>
<totfact> 0.11072278E+05</totfact>
</mgrwt>
</event>
<event>
12    1  0.1441827E-001  0.2608729E+03  0.7546771E-02  0.1106856E+00
         21   -1    0    0  504  503  0.00000000000E+00  0.00000000000E+00  0.47763654413E+03  0.47763654413E+03  0.00000000000E+00 0.  1.
         21   -1    0    0  502  504 -0.00000000000E+00 -0.00000000000E+00 -0.36474805534E+03  0.36474805534E+03  0.00000000000E+00 0.  1.
          6    2    1    2  502    0 -0.69803390963E+02  0.18200604921E+03 -0.27291456301E+03  0.37754073145E+03  0.17336646118E+03 0.  0.
         24    2    3    3    0    0  0.19517800937E+02  0.11821508732E+03 -0.19645809030E+03  0.24369289112E+03  0.80216535175E+02 0.  0.
         -6    2    1    2    0  503  0.69803390963E+02 -0.18200604921E+03  0.38580305180E+03  0.46484386802E+03  0.17098862979E+03 0.  0.
        -24    2    5    5    0    0  0.49801055664E+02 -0.24038833030E+02  0.18256150545E+03  0.20661344578E+03  0.79387669489E+02 0.  0.
          4    1    4    4  501    0  0.82534796079E+01  0.82947258221E+02 -0.61070163949E+02  0.10333408197E+03  0.00000000000E+00 0. -1.
         -3    1    4    4    0  501  0.11264321329E+02  0.35267829094E+02 -0.13538792635E+03  0.14035880915E+03  0.00000000000E+00 0.  1.
          5    1    3    3  502    0 -0.89321191900E+02  0.63790961900E+02 -0.76456472715E+02  0.13384784034E+03  0.47000000000E+01 0. -1.
         11    1    6    6    0    0  0.10457296127E+02  0.28056424623E+02  0.75467354304E+02  0.81190144541E+02  0.00000000000E+00 0. -1.
        -12    1    6    6    0    0  0.39343759537E+02 -0.52095257653E+02  0.10709415115E+03  0.12542330124E+03  0.00000000000E+00 0.  1.
         -5    1    5    5    0  503  0.20002335299E+02 -0.15796721618E+03  0.20324154635E+03  0.25823042224E+03  0.47000000000E+01 0.  1.
<mgrwt>
<rscale>  2 0.26047843E+03</rscale>
<asrwt>0</asrwt>
<pdfrwt beam="1">  1       21 0.73482546E-01 0.26087285E+03</pdfrwt>
<pdfrwt beam="2">  1       21 0.56115085E-01 0.26087285E+03</pdfrwt>
<totfact> 0.47448754E+03</totfact>
</mgrwt>
</event>
<event>
12    1  0.1441827E-001  0.3066342E+03  0.7546771E-02  0.1082254E+00
         21   -1    0    0  504  503  0.00000000000E+00  0.00000000000E+00  0.16427829119E+04  0.16427829119E+04  0.00000000000E+00 0. -1.
         21   -1    0    0  502  504 -0.00000000000E+00 -0.00000000000E+00 -0.66657787546E+02  0.66657787546E+02  0.00000000000E+00 0. -1.
          6    2    1    2  502    0  0.21124911972E+03 -0.13817722338E+03  0.46196823369E+03  0.55447198158E+03  0.17408444436E+03 0.  0.
         24    2    3    3    0    0  0.11384007874E+03 -0.48095665267E+02  0.35362637587E+03  0.38311487920E+03  0.80328328827E+02 0.  0.
         -6    2    1    2    0  503 -0.21124911972E+03  0.13817722338E+03  0.11141568907E+04  0.11549687179E+04  0.16996478051E+03 0.  0.
        -24    2    5    5    0    0 -0.12001105125E+03  0.39168068983E+02  0.37823426215E+03  0.40681672600E+03  0.80634368828E+02 0.  0.
          4    1    4    4  501    0  0.55348677922E+02 -0.63243890843E+02  0.24210623626E+03  0.25627855063E+03  0.00000000000E+00 0. -1.
         -3    1    4    4    0  501  0.58491400819E+02  0.15148225576E+02  0.11152013961E+03  0.12683632857E+03  0.00000000000E+00 0.  1.
          5    1    3    3  502    0  0.97409040976E+02 -0.90081558116E+02  0.10834185783E+03  0.17135710237E+03  0.47000000000E+01 0. -1.
         11    1    6    6    0    0 -0.11701494991E+03  0.68910260737E+01  0.30386031732E+03  0.32568554955E+03  0.00000000000E+00 0. -1.
        -12    1    6    6    0    0 -0.29961013382E+01  0.32277042910E+02  0.74373944832E+02  0.81131176449E+02  0.00000000000E+00 0.  1.
         -5    1    5    5    0  503 -0.91238068470E+02  0.99009154400E+02  0.73592262855E+03  0.74815199191E+03  0.47000000000E+01 0.  1.
<mgrwt>
<rscale>  2 0.30605256E+03</rscale>
<asrwt>0</asrwt>
<pdfrwt beam="1">  1       21 0.25273580E+00 0.30663419E+03</pdfrwt>
<pdfrwt beam="2">  1       21 0.10255045E-01 0.30663419E+03</pdfrwt>
<totfact> 0.45226242E+03</totfact>
</mgrwt>
</event>
<event>
12    1  0.1441827E-001  0.2037761E+03  0.7546771E-02  0.1146979E+00
         21   -1    0    0  504  503  0.00000000000E+00  0.00000000000E+00  0.36211634503E+03  0.36211634503E+03  0.00000000000E+00 0.  1.
         21   -1    0    0  502  504 -0.00000000000E+00 -0.00000000000E+00 -0.13717537043E+03  0.13717537043E+03  0.00000000000E+00 0. -1.
          6    2    1    2  502    0 -0.99947400753E+02  0.32283670050E+02  0.94555030817E+01  0.20399532690E+03  0.17462235993E+03 0.  0.
         24    2    3    3    0    0 -0.12001912507E+03  0.27302255635E+02  0.51682881696E+02  0.15674143699E+03  0.82138628327E+02 0.  0.
         -6    2    1    2    0  503  0.99947400753E+02 -0.32283670050E+02  0.21548547152E+03  0.29529638856E+03  0.17243622123E+03 0.  0.
        -24    2    5    5    0    0 -0.82649005498E+01  0.17501721941E+01  0.29968510910E+02  0.77795038579E+02  0.71292248509E+02 0.  0.
          4    1    4    4  501    0 -0.60554722633E+02 -0.23879303480E+02  0.46326838640E+01  0.65257622756E+02  0.00000000000E+00 0. -1.
         -3    1    4    4    0  501 -0.59464402440E+02  0.51181559116E+02  0.47050197832E+02  0.91483814236E+02  0.00000000000E+00 0.  1.
          5    1    3    3  502    0  0.20071724321E+02  0.49814144150E+01 -0.42227378614E+02  0.47253889908E+02  0.47000000000E+01 0. -1.
         11    1    6    6    0    0 -0.17155394831E+02  0.33204087582E+02  0.24410647285E+02  0.44639653951E+02  0.00000000000E+00 0. -1.
        -12    1    6    6    0    0  0.88904942816E+01 -0.31453915387E+02  0.55578636250E+01  0.33155384628E+02  0.00000000000E+00 0.  1.
         -5    1    5    5    0  503  0.10821230130E+03 -0.34033842244E+02  0.18551696061E+03  0.21750134998E+03  0.47000000000E+01 0.  1.
<mgrwt>
<rscale>  2 0.20330690E+03</rscale>
<asrwt>0</asrwt>
<pdfrwt beam="1">  1       21 0.55710207E-01 0.20377607E+03</pdfrwt>
<pdfrwt beam="2">  1       21 0.21103903E-01 0.20377607E+03</pdfrwt>
<totfact> 0.63038922E+04</totfact>
</mgrwt>
</event>
<event>
12    1  0.1441827E-001  0.1986749E+03  0.7546771E-02  0.1151032E+00
         21   -1    0    0  504  503  0.00000000000E+00  0.00000000000E+00  0.13160147822E+03  0.13160147822E+03  0.00000000000E+00 0. -1.
         21   -1    0    0  502  504 -0.00000000000E+00 -0.00000000000E+00 -0.52432018981E+03  0.52432018981E+03  0.00000000000E+00 0. -1.
          6    2    1    2  502    0  0.86130830305E+02  0.43988241631E+02 -0.41170662997E+03  0.45713681571E+03  0.17354605667E+03 0.  0.
         24    2    3    3    0    0  0.32167730985E+02  0.15463844861E+01 -0.70991725751E+02  0.10954213324E+03  0.76957778083E+02 0.  0.
         -6    2    1    2    0  503 -0.86130830305E+02 -0.43988241631E+02  0.18987918376E+02  0.19878485232E+03  0.17263079428E+03 0.  0.
        -24    2    5    5    0    0 -0.10711302087E+03 -0.17915276383E+02  0.58015171000E+02  0.14715861591E+03  0.80596164951E+02 0.  0.
          4    1    4    4  501    0  0.37777954343E+02 -0.30830369439E+02 -0.53236021746E+02  0.72192517102E+02  0.00000000000E+00 0. -1.
         -3    1    4    4    0  501 -0.56102233580E+01  0.32376753925E+02 -0.17755704004E+02  0.37349616136E+02  0.00000000000E+00 0.  1.
          5    1    3    3  502    0  0.53963099320E+02  0.42441857145E+02 -0.34071490422E+03  0.34759468247E+03  0.47000000000E+01 0. -1.
         11    1    6    6    0    0 -0.72849647238E+02 -0.42083720540E+02  0.12130389917E+02  0.85001511732E+02  0.00000000000E+00 0. -1.
        -12    1    6    6    0    0 -0.34263373628E+02  0.24168444157E+02  0.45884781082E+02  0.62157104182E+02  0.00000000000E+00 0.  1.
         -5    1    5    5    0  503  0.20982190561E+02 -0.26072965249E+02 -0.39027252623E+02  0.51626236401E+02  0.47000000000E+01 0.  1.
<mgrwt>
<rscale>  2 0.19847486E+03</rscale>
<asrwt>0</asrwt>
<pdfrwt beam="1">  1       21 0.20246381E-01 0.19867491E+03</pdfrwt>
<pdfrwt beam="2">  1       21 0.80664646E-01 0.19867491E+03</pdfrwt>
<totfact> 0.30351406E+04</totfact>
</mgrwt>
</event>
<event>
12    1  0.1441827E-001  0.1922224E+03  0.7546771E-02  0.1157200E+00
         21   -1    0    0  504  503  0.00000000000E+00  0.00000000000E+00  0.15229848637E+03  0.15229848637E+03  0.00000000000E+00 0.  1.
         21   -1    0    0  502  504 -0.00000000000E+00 -0.00000000000E+00 -0.11614127018E+04  0.11614127018E+04  0.00000000000E+00 0.  1.
          6    2    1    2  502    0 -0.12208839954E+02  0.82460207409E+02 -0.10892010226E+04  0.11054725397E+04  0.16959341679E+03 0.  0.
         24    2    3    3    0    0 -0.45174144016E+02  0.11012802063E+03 -0.88427071577E+03  0.89601910865E+03  0.82138054985E+02 0.  0.
         -6    2    1    2    0  503  0.12208839954E+02 -0.82460207409E+02  0.80086807138E+02  0.20823864841E+03  0.17320709118E+03 0.  0.
        -24    2    5    5    0    0  0.51253251186E+02 -0.62767768946E+02  0.10712017348E+03  0.15661354718E+03  0.80538084269E+02 0.  0.
          2    1    4    4  501    0 -0.54732246257E+02  0.37248840644E+02 -0.30493762106E+03  0.31204174024E+03  0.00000000000E+00 0. -1.
         -1    1    4    4    0  501  0.95581022415E+01  0.72879179982E+02 -0.57933309471E+03  0.58397736841E+03  0.00000000000E+00 0.  1.
          5    1    3    3  502    0  0.32965304062E+02 -0.27667813217E+02 -0.20493030678E+03  0.20945343110E+03  0.47000000000E+01 0. -1.
         13    1    6    6    0    0  0.40982923769E+02 -0.31275942031E+01  0.10196545001E+02  0.42347980072E+02  0.00000000000E+00 0. -1.
        -14    1    6    6    0    0  0.10270327416E+02 -0.59640174743E+02  0.96923628479E+02  0.11426556711E+03  0.00000000000E+00 0.  1.
         -5    1    5    5    0  503 -0.39044411232E+02 -0.19692438463E+02 -0.27033366342E+02  0.51625101228E+02  0.47000000000E+01 0.  1.
<mgrwt>
<rscale>  2 0.19140474E+03</rscale>
<asrwt>0</asrwt>
<pdfrwt beam="1">  1       21 0.23430536E-01 0.19222237E+03</pdfrwt>
<pdfrwt beam="2">  1       21 0.17867888E+00 0.19222237E+03</pdfrwt>
<totfact> 0.31847792E+03</totfact>
</mgrwt>
</event>
<event>
12    1  0.1441827E-001  0.2070145E+03  0.7546771E-02  0.1146333E+00
         21   -1    0    0  504  503  0.00000000000E+00  0.00000000000E+00  0.53595108295E+03  0.53595108295E+03  0.00000000000E+00 0.  1.
         21   -1    0    0  502  504 -0.00000000000E+00 -0.00000000000E+00 -0.82622608698E+02  0.82622608698E+02  0.00000000000E+00 0. -1.
          6    2    1    2  502    0  0.83532801708E+02  0.38776544401E+02  0.14241659745E+03  0.25127177190E+03  0.18540136669E+03 0.  0.
         24    2    3    3    0    0 -0.95938692493E+01  0.55937485631E+02  0.11783333287E+03  0.15332534958E+03  0.80018272062E+02 0.  0.
         -6    2    1    2    0  503 -0.83532801708E+02 -0.38776544401E+02  0.31091187680E+03  0.36730191974E+03  0.17252001552E+03 0.  0.
        -24    2    5    5    0    0 -0.71957413294E+02 -0.34537390195E+01  0.83496938592E+02  0.13682126043E+03  0.80984695529E+02 0.  0.
          2    1    4    4  501    0  0.24249496446E+02  0.37004496462E+02  0.20915195648E+02  0.48936859782E+02  0.00000000000E+00 0. -1.
         -1    1    4    4    0  501 -0.33843365695E+02  0.18932989168E+02  0.96918137222E+02  0.10438848980E+03  0.00000000000E+00 0.  1.
          5    1    3    3  502    0  0.93126670958E+02 -0.17160941229E+02  0.24583264576E+02  0.97946422317E+02  0.47000000000E+01 0. -1.
         11    1    6    6    0    0 -0.44096957954E+02 -0.39434897997E+02  0.29186401142E+02  0.65965891887E+02  0.00000000000E+00 0. -1.
        -12    1    6    6    0    0 -0.27860455340E+02  0.35981158977E+02  0.54310537451E+02  0.70855368542E+02  0.00000000000E+00 0.  1.
         -5    1    5    5    0  503 -0.11575388415E+02 -0.35322805382E+02  0.22741493821E+03  0.23048065931E+03  0.47000000000E+01 0.  1.
<mgrwt>
<rscale>  2 0.20409001E+03</rscale>
<asrwt>0</asrwt>
<pdfrwt beam="1">  1       21 0.82454011E-01 0.20701453E+03</pdfrwt>
<pdfrwt beam="2">  1       21 0.12711171E-01 0.20701453E+03</pdfrwt>
<totfact> 0.67523575E+04</totfact>
</mgrwt>
</event>
<event>
12    1  0.1441827E-001  0.2062384E+03  0.7546771E-02  0.1145023E+00
         21   -1    0    0  504  503  0.00000000000E+00  0.00000000000E+00  0.34479229365E+03  0.34479229365E+03  0.00000000000E+00 0. -1.
         21   -1    0    0  502  504 -0.00000000000E+00 -0.00000000000E+00 -0.14066798322E+03  0.14066798322E+03  0.00000000000E+00 0. -1.
          6    2    1    2  502    0 -0.95475625087E+02 -0.63417566148E+02  0.14261705396E+02  0.20673087496E+03  0.17145517123E+03 0.  0.
         24    2    3    3    0    0 -0.12625584100E+03 -0.84802833346E+02  0.17519619948E+01  0.16693973242E+03  0.68802230760E+02 0.  0.
         -6    2    1    2    0  503  0.95475625087E+02  0.63417566148E+02  0.18986260503E+03  0.27872940191E+03  0.16883390660E+03 0.  0.
        -24    2    5    5    0    0  0.38850030155E+02  0.10048272880E+03  0.11010489021E+03  0.17402186943E+03  0.80959375992E+02 0.  0.
          2    1    4    4  501    0 -0.68884688630E+02 -0.46486193946E+02  0.35222819021E+02  0.90259146545E+02  0.00000000000E+00 0. -1.
         -1    1    4    4    0  501 -0.57371152374E+02 -0.38316639400E+02 -0.33470857026E+02  0.76680585873E+02  0.00000000000E+00 0.  1.
          5    1    3    3  502    0  0.30780215917E+02  0.21385267198E+02  0.12509743401E+02  0.39791142544E+02  0.47000000000E+01 0. -1.
         13    1    6    6    0    0 -0.18557885877E+02 -0.45080867671E+00  0.13152270015E+02  0.22750396991E+02  0.00000000000E+00 0. -1.
        -14    1    6    6    0    0  0.57407916032E+02  0.10093353748E+03  0.96952620197E+02  0.15127147244E+03  0.00000000000E+00 0.  1.
         -5    1    5    5    0  503  0.56625594932E+02 -0.37065162656E+02  0.79757714820E+02  0.10470753248E+03  0.47000000000E+01 0.  1.
<mgrwt>
<rscale>  2 0.20569270E+03</rscale>
<asrwt>0</asrwt>
<pdfrwt beam="1">  1       21 0.53044968E-01 0.20623835E+03</pdfrwt>
<pdfrwt beam="2">  1       21 0.21641228E-01 0.20623835E+03</pdfrwt>
<totfact> 0.66619716E+04</totfact>
</mgrwt>
</event>
<event>
12    1  0.1441827E-001  0.1855740E+03  0.7546771E-02  0.1163670E+00
         21   -1    0    0  504  503  0.00000000000E+00  0.00000000000E+00  0.34364246593E+02  0.34364246593E+02  0.00000000000E+00 0.  1.
         21   -1    0    0  502  504 -0.00000000000E+00 -0.00000000000E+00 -0.12944675207E+04  0.12944675207E+04  0.00000000000E+00 0.  1.
          6    2    1    2  502    0  0.66304753877E+02  0.12637741879E+02 -0.95330017795E+03  0.97027095491E+03  0.16759613288E+03 0.  0.
         24    2    3    3    0    0  0.75676860680E+02  0.38828578027E+02 -0.91659352409E+03  0.92397554778E+03  0.79702438927E+02 0.  0.
         -6    2    1    2    0  503 -0.66304753877E+02 -0.12637741879E+02 -0.30680309615E+03  0.35856081237E+03  0.17286319290E+03 0.  0.
        -24    2    5    5    0    0  0.38451365706E+00 -0.51502877073E+02 -0.12982227056E+03  0.16542288300E+03  0.88646568397E+02 0.  0.
          2    1    4    4  501    0  0.75303311346E+00  0.41194172880E+02 -0.28934425714E+03  0.29226293997E+03  0.00000000000E+00 0. -1.
         -1    1    4    4    0  501  0.74923827567E+02 -0.23655948532E+01 -0.62724926695E+03  0.63171260781E+03  0.00000000000E+00 0.  1.
          5    1    3    3  502    0 -0.93721068033E+01 -0.26190836148E+02 -0.36706653862E+02  0.46295407135E+02  0.47000000000E+01 0. -1.
         13    1    6    6    0    0  0.22642072747E+02 -0.21108408731E+02 -0.12337933033E+03  0.12720333144E+03  0.00000000000E+00 0. -1.
        -14    1    6    6    0    0 -0.22257559090E+02 -0.30394468342E+02 -0.64429402315E+01  0.38219551557E+02  0.00000000000E+00 0.  1.
         -5    1    5    5    0  503 -0.66689267534E+02  0.38865135194E+02 -0.17698082559E+03  0.19313792938E+03  0.47000000000E+01 0.  1.
<mgrwt>
<rscale>  2 0.18433768E+03</rscale>
<asrwt>0</asrwt>
<pdfrwt beam="1">  1       21 0.52868072E-02 0.18557402E+03</pdfrwt>
<pdfrwt beam="2">  1       21 0.19914885E+00 0.18557402E+03</pdfrwt>
<totfact> 0.33435404E+04</totfact>
</mgrwt>
</event>
<event>
12    1  0.1441827E-001  0.1831079E+03  0.7546771E-02  0.1166008E+00
         21   -1    0    0  504  503  0.00000000000E+00  0.00000000000E+00  0.12380284392E+03  0.12380284392E+03  0.00000000000E+00 0.  1.
         21   -1    0    0  502  504 -0.00000000000E+00 -0.00000000000E+00 -0.26524121466E+03  0.26524121466E+03  0.00000000000E+00 0.  1.
          6    2    1    2  502    0 -0.16201759488E+02  0.57434936931E+02 -0.56393544797E+02  0.19159522609E+03  0.17311045542E+03 0.  0.
         24    2    3    3    0    0 -0.16534574623E+02  0.29022426262E+02  0.36264863932E+02  0.94564034009E+02  0.80694007137E+02 0.  0.
         -6    2    1    2    0  503  0.16201759488E+02 -0.57434936931E+02 -0.85044825948E+02  0.19744883249E+03  0.16790518170E+03 0.  0.
        -24    2    5    5    0    0  0.31815090976E+02 -0.61850735205E+02  0.44195763366E+01  0.10640354338E+03  0.80401914957E+02 0.  0.
          4    1    4    4  501    0 -0.41193066662E+02 -0.86103857040E+01  0.13895691090E+02  0.44318142040E+02  0.00000000000E+00 0. -1.
         -3    1    4    4    0  501  0.24658492039E+02  0.37632811966E+02  0.22369172843E+02  0.50245891969E+02  0.00000000000E+00 0.  1.
          5    1    3    3  502    0  0.33281513502E+00  0.28412510669E+02 -0.92658408729E+02  0.97031192081E+02  0.47000000000E+01 0. -1.
         11    1    6    6    0    0 -0.23552042659E+02 -0.59602736389E+00 -0.16102613733E+01  0.23614548561E+02  0.00000000000E+00 0. -1.
        -12    1    6    6    0    0  0.55367133635E+02 -0.61254707841E+02  0.60298377099E+01  0.82788994815E+02  0.00000000000E+00 0.  1.
         -5    1    5    5    0  503 -0.15613331487E+02  0.44157982738E+01 -0.89464402285E+02  0.91045289119E+02  0.47000000000E+01 0.  1.
<mgrwt>
<rscale>  2 0.18186708E+03</rscale>
<asrwt>0</asrwt>
<pdfrwt beam="1">  1       21 0.19046592E-01 0.18310789E+03</pdfrwt>
<pdfrwt beam="2">  1       21 0.40806340E-01 0.18310789E+03</pdfrwt>
<totfact> 0.14671817E+05</totfact>
</mgrwt>
</event>
<event>
12    1  0.1441827E-001  0.1918873E+03  0.7546771E-02  0.1156853E+00
         21   -1    0    0  504  503  0.00000000000E+00  0.00000000000E+00  0.95839614010E+02  0.95839614010E+02  0.00000000000E+00 0.  1.
         21   -1    0    0  502  504 -0.00000000000E+00 -0.00000000000E+00 -0.52836303633E+03  0.52836303633E+03  0.00000000000E+00 0. -1.
          6    2    1    2  502    0  0.80215965884E+02 -0.19125916958E+02 -0.37955918744E+03  0.42514002094E+03  0.17285386531E+03 0.  0.
         24    2    3    3    0    0  0.10786347502E+02 -0.68256776604E+02 -0.23129241953E+03  0.25414458900E+03  0.79485570649E+02 0.  0.
         -6    2    1    2    0  503 -0.80215965884E+02  0.19125916958E+02 -0.52964234874E+02  0.19906262939E+03  0.17326372489E+03 0.  0.
        -24    2    5    5    0    0 -0.11077246884E+03  0.31728001457E+02 -0.75844875034E+02  0.15858885886E+03  0.78235383025E+02 0.  0.
          4    1    4    4  501    0  0.13046677532E+02 -0.85342236407E+02 -0.20769395584E+03  0.22492285878E+03  0.00000000000E+00 0. -1.
         -3    1    4    4    0  501 -0.22603300298E+01  0.17085459803E+02 -0.23598463693E+02  0.29221730223E+02  0.00000000000E+00 0.  1.
          5    1    3    3  502    0  0.69429618381E+02  0.49130859646E+02 -0.14826676791E+03  0.17099543194E+03  0.47000000000E+01 0. -1.
         11    1    6    6    0    0 -0.71731799272E+02  0.13203358614E+02 -0.87421761077E+02  0.11385229034E+03  0.00000000000E+00 0. -1.
        -12    1    6    6    0    0 -0.39040669570E+02  0.18524642844E+02  0.11576886044E+02  0.44736568525E+02  0.00000000000E+00 0.  1.
         -5    1    5    5    0  503  0.30556502957E+02 -0.12602084500E+02  0.22880640160E+02  0.40473770529E+02  0.47000000000E+01 0.  1.
<mgrwt>
<rscale>  2 0.19179469E+03</rscale>
<asrwt>0</asrwt>
<pdfrwt beam="1">  1       21 0.14744556E-01 0.19188726E+03</pdfrwt>
<pdfrwt beam="2">  1       21 0.81286621E-01 0.19188726E+03</pdfrwt>
<totfact> 0.53713165E+04</totfact>
</mgrwt>
</event>
<event>
12    1  0.1441827E-001  0.1958506E+03  0.7546771E-02  0.1153455E+00
         21   -1    0    0  504  503  0.00000000000E+00  0.00000000000E+00  0.33462887855E+02  0.33462887855E+02  0.00000000000E+00 0.  1.
         21   -1    0    0  502  504 -0.00000000000E+00 -0.00000000000E+00 -0.27806023197E+04  0.27806023197E+04  0.00000000000E+00 0.  1.
          6    2    1    2  502    0  0.70491381441E+02  0.57182358534E+02 -0.24526539991E+04  0.24603999412E+04  0.17267708109E+03 0.  0.
         24    2    3    3    0    0  0.86379910483E+02  0.14139540500E+02 -0.98235860711E+03  0.98938132838E+03  0.78648359419E+02 0.  0.
         -6    2    1    2    0  503 -0.70491381441E+02 -0.57182358534E+02 -0.29448543272E+03  0.35366526633E+03  0.17354709316E+03 0.  0.
        -24    2    5    5    0    0 -0.10507623284E+02 -0.82399981641E+02 -0.24819307574E+03  0.27367119110E+03  0.79974688948E+02 0.  0.
          4    1    4    4  501    0  0.52108223331E+02 -0.31183588294E+02 -0.53023660034E+03  0.53370266578E+03  0.00000000000E+00 0. -1.
         -3    1    4    4    0  501  0.34271687152E+02  0.45323128794E+02 -0.45212200677E+03  0.45567866260E+03  0.00000000000E+00 0.  1.
          5    1    3    3  502    0 -0.15888529042E+02  0.43042818034E+02 -0.14702953920E+04  0.14710186128E+04  0.47000000000E+01 0. -1.
         11    1    6    6    0    0  0.15834771952E+02  0.63974539592E+01 -0.78597312041E+02  0.80431367513E+02  0.00000000000E+00 0. -1.
        -12    1    6    6    0    0 -0.26342395237E+02 -0.88797435600E+02 -0.16959576370E+03  0.19323982359E+03  0.00000000000E+00 0.  1.
         -5    1    5    5    0  503 -0.59983758157E+02  0.25217623106E+02 -0.46292356976E+02  0.79994075232E+02  0.47000000000E+01 0.  1.
<mgrwt>
<rscale>  2 0.19565767E+03</rscale>
<asrwt>0</asrwt>
<pdfrwt beam="1">  1       21 0.51481374E-02 0.19585058E+03</pdfrwt>
<pdfrwt beam="2">  1       21 0.42778490E+00 0.19585058E+03</pdfrwt>
<totfact> 0.14804181E+03</totfact>
</mgrwt>
</event>
<event>
12    1  0.1441827E-001  0.1821390E+03  0.7546771E-02  0.1168167E+00
         21   -1    0    0  504  503  0.00000000000E+00  0.00000000000E+00  0.28860680919E+03  0.28860680919E+03  0.00000000000E+00 0. -1.
         21   -1    0    0  502  504 -0.00000000000E+00 -0.00000000000E+00 -0.11063150242E+03  0.11063150242E+03  0.00000000000E+00 0. -1.
          6    2    1    2  502    0  0.52858069237E+02 -0.17541261440E+02  0.60971945235E+02  0.18275639570E+03  0.16303573451E+03 0.  0.
         24    2    3    3    0    0  0.92861887193E+02  0.65260055200E+01  0.53520314831E+02  0.13524686418E+03  0.82227558211E+02 0.  0.
         -6    2    1    2    0  503 -0.52858069237E+02  0.17541261440E+02  0.11700336153E+03  0.21648191591E+03  0.17341557591E+03 0.  0.
        -24    2    5    5    0    0 -0.92283534603E+02 -0.19163215742E+02  0.59614883187E+02  0.13763324179E+03  0.80656651001E+02 0.  0.
          2    1    4    4  501    0  0.19550364674E+02 -0.26551821430E+02  0.42919328752E+02  0.54122867262E+02  0.00000000000E+00 0. -1.
         -1    1    4    4    0  501  0.73311522519E+02  0.33077826950E+02  0.10600986079E+02  0.81123996916E+02  0.00000000000E+00 0.  1.
          5    1    3    3  502    0 -0.40003817956E+02 -0.24067266960E+02  0.74516304036E+01  0.47509531524E+02  0.47000000000E+01 0. -1.
         11    1    6    6    0    0 -0.42547604653E+02  0.29918288567E+02  0.12929345716E+02  0.53596367723E+02  0.00000000000E+00 0. -1.
        -12    1    6    6    0    0 -0.49735929950E+02 -0.49081504309E+02  0.46685537471E+02  0.84036874062E+02  0.00000000000E+00 0.  1.
         -5    1    5    5    0  503  0.39425465365E+02  0.36704477181E+02  0.57388478341E+02  0.78848674122E+02  0.47000000000E+01 0.  1.
<mgrwt>
<rscale>  2 0.17962407E+03</rscale>
<asrwt>0</asrwt>
<pdfrwt beam="1">  1       21 0.44401047E-01 0.18213905E+03</pdfrwt>
<pdfrwt beam="2">  1       21 0.17020231E-01 0.18213905E+03</pdfrwt>
<totfact> 0.15213243E+05</totfact>
</mgrwt>
</event>
<event>
12    1  0.1441827E-001  0.1754768E+03  0.7546771E-02  0.1172266E+00
         21   -1    0    0  504  503  0.00000000000E+00  0.00000000000E+00  0.86484238668E+02  0.86484238668E+02  0.00000000000E+00 0. -1.
         21   -1    0    0  502  504 -0.00000000000E+00 -0.00000000000E+00 -0.42377104329E+03  0.42377104329E+03  0.00000000000E+00 0. -1.
          6    2    1    2  502    0  0.73929231295E+01  0.26971732891E+02 -0.27069183905E+03  0.32256668830E+03  0.17318506572E+03 0.  0.
         24    2    3    3    0    0  0.42514908140E+02  0.63064406412E+02 -0.23888497806E+03  0.26281720028E+03  0.78880994231E+02 0.  0.
         -6    2    1    2    0  503 -0.73929231295E+01 -0.26971732891E+02 -0.66594965577E+02  0.18768859366E+03  0.17323391430E+03 0.  0.
        -24    2    5    5    0    0 -0.33538748914E+02 -0.41163526401E+02 -0.10199630628E+03  0.14120896229E+03  0.81959996034E+02 0.  0.
          4    1    4    4  501    0  0.52503770259E+02  0.55981648969E+02 -0.23852273457E+03  0.25056672928E+03  0.00000000000E+00 0. -1.
         -3    1    4    4    0  501 -0.99888621189E+01  0.70827574426E+01 -0.36224348475E+00  0.12250471002E+02  0.00000000000E+00 0.  1.
          5    1    3    3  502    0 -0.35121985011E+02 -0.36092673521E+02 -0.31806860990E+02  0.59749488023E+02  0.47000000000E+01 0. -1.
         11    1    6    6    0    0 -0.45936527484E+02  0.45929413583E+01 -0.30173628989E+02  0.55151677707E+02  0.00000000000E+00 0. -1.
        -12    1    6    6    0    0  0.12397778570E+02 -0.45756467759E+02 -0.71822677294E+02  0.86057284578E+02  0.00000000000E+00 0.  1.
         -5    1    5    5    0  503  0.26145825784E+02  0.14191793510E+02  0.35401340705E+02  0.46479631374E+02  0.47000000000E+01 0.  1.
<mgrwt>
<rscale>  2 0.17546478E+03</rscale>
<asrwt>0</asrwt>
<pdfrwt beam="1">  1       21 0.13305268E-01 0.17547683E+03</pdfrwt>
<pdfrwt beam="2">  1       21 0.65195545E-01 0.17547683E+03</pdfrwt>
<totfact> 0.10624703E+05</totfact>
</mgrwt>
</event>
<event>
12    1  0.1441827E-001  0.1819998E+03  0.7546771E-02  0.1166242E+00
         21   -1    0    0  504  503  0.00000000000E+00  0.00000000000E+00  0.16438863094E+03  0.16438863094E+03  0.00000000000E+00 0. -1.
         21   -1    0    0  502  504 -0.00000000000E+00 -0.00000000000E+00 -0.35114815468E+03  0.35114815468E+03  0.00000000000E+00 0. -1.
          6    2    1    2  502    0 -0.10562196171E+02 -0.61735390268E+02 -0.26280886180E+03  0.31967549577E+03  0.17088331211E+03 0.  0.
         24    2    3    3    0    0 -0.67139587229E+02 -0.68533910069E+02 -0.17205353440E+03  0.21241021480E+03  0.79442178034E+02 0.  0.
         -6    2    1    2    0  503  0.10562196171E+02  0.61735390268E+02  0.76049338059E+02  0.19586128985E+03  0.16927883697E+03 0.  0.
        -24    2    5    5    0    0  0.33320560095E+02  0.99681318024E+02  0.31879376326E+02  0.13316430363E+03  0.75298155614E+02 0.  0.
          4    1    4    4  501    0 -0.28307040501E+02 -0.71672442553E+02 -0.14733697844E+03  0.16627210463E+03  0.00000000000E+00 0. -1.
         -3    1    4    4    0  501 -0.38832546727E+02  0.31385324838E+01 -0.24716555957E+02  0.46138110168E+02  0.00000000000E+00 0.  1.
          5    1    3    3  502    0  0.56577391058E+02  0.67985198012E+01 -0.90755327400E+02  0.10726528097E+03  0.47000000000E+01 0. -1.
         11    1    6    6    0    0  0.49841657862E+01  0.30045622538E+02 -0.24585471284E+02  0.39141113175E+02  0.00000000000E+00 0. -1.
        -12    1    6    6    0    0  0.28336394309E+02  0.69635695485E+02  0.56464847610E+02  0.94023190457E+02  0.00000000000E+00 0.  1.
         -5    1    5    5    0  503 -0.22758363924E+02 -0.37945927756E+02  0.44169961733E+02  0.62696986222E+02  0.47000000000E+01 0.  1.
<mgrwt>
<rscale>  2 0.18162221E+03</rscale>
<asrwt>0</asrwt>
<pdfrwt beam="1">  1       21 0.25290559E-01 0.18199979E+03</pdfrwt>
<pdfrwt beam="2">  1       21 0.54022792E-01 0.18199979E+03</pdfrwt>
<totfact> 0.48241640E+04</totfact>
</mgrwt>
</event>
<event>
12    1  0.1441827E-001  0.2543301E+03  0.7546771E-02  0.1110614E+00
         21   -1    0    0  504  503  0.00000000000E+00  0.00000000000E+00  0.17925777878E+03  0.17925777878E+03  0.00000000000E+00 0. -1.
         21   -1    0    0  502  504 -0.00000000000E+00 -0.00000000000E+00 -0.83719925170E+03  0.83719925170E+03  0.00000000000E+00 0.  1.
          6    2    1    2  502    0 -0.11828487807E+03  0.14592761783E+03 -0.71236306425E+03  0.75636955304E+03  0.17131136396E+03 0.  0.
         24    2    3    3    0    0 -0.10385660554E+03  0.10874723345E+03 -0.32404216937E+03  0.36597774545E+03  0.79525010754E+02 0.  0.
         -6    2    1    2    0  503  0.11828487807E+03 -0.14592761783E+03  0.54421591341E+02  0.26008747744E+03  0.17145729582E+03 0.  0.
        -24    2    5    5    0    0  0.10316979512E+03 -0.16980997679E+03  0.72899421349E+02  0.22599417893E+03  0.79243980420E+02 0.  0.
          4    1    4    4  501    0 -0.45207353823E+02  0.22042419754E+02 -0.43338170897E+02  0.66391039794E+02  0.00000000000E+00 0. -1.
         -3    1    4    4    0  501 -0.58649251715E+02  0.86704813695E+02 -0.28070399847E+03  0.29958670565E+03  0.00000000000E+00 0.  1.
          5    1    3    3  502    0 -0.14428272531E+02  0.37180384386E+02 -0.38832089488E+03  0.39039180759E+03  0.47000000000E+01 0. -1.
         11    1    6    6    0    0  0.75470845252E+02 -0.92497745741E+02  0.79776086327E+02  0.14358239934E+03  0.00000000000E+00 0. -1.
        -12    1    6    6    0    0  0.27698949872E+02 -0.77312231049E+02 -0.68766649784E+01  0.82411779589E+02  0.00000000000E+00 0.  1.
         -5    1    5    5    0  503  0.15115082945E+02  0.23882358956E+02 -0.18477830008E+02  0.34093298514E+02  0.47000000000E+01 0.  1.
<mgrwt>
<rscale>  2 0.25430548E+03</rscale>
<asrwt>0</asrwt>
<pdfrwt beam="1">  1       21 0.27578119E-01 0.25433007E+03</pdfrwt>
<pdfrwt beam="2">  1       21 0.12879989E+00 0.25433007E+03</pdfrwt>
<totfact> 0.53099053E+03</totfact>
</mgrwt>
</event>
<event>
12    1  0.1441827E-001  0.3574971E+03  0.7546771E-02  0.1059635E+00
         21   -1    0    0  504  503  0.00000000000E+00  0.00000000000E+00  0.18603658004E+03  0.18603658004E+03  0.00000000000E+00 0. -1.
         21   -1    0    0  502  504 -0.00000000000E+00 -0.00000000000E+00 -0.76660086942E+03  0.76660086942E+03  0.00000000000E+00 0.  1.
          6    2    1    2  502    0  0.27691420205E+03 -0.14527217451E+03 -0.44460524402E+03  0.57015992348E+03  0.17211343747E+03 0.  0.
         24    2    3    3    0    0  0.13599855440E+03 -0.60179750465E+02 -0.32513536190E+03  0.36670702201E+03  0.81509675958E+02 0.  0.
         -6    2    1    2    0  503 -0.27691420205E+03  0.14527217451E+03 -0.13595904535E+03  0.38247752598E+03  0.17325910043E+03 0.  0.
        -24    2    5    5    0    0 -0.26581534069E+03  0.77885414007E+02 -0.12137218393E+03  0.31248447818E+03  0.78685506976E+02 0.  0.
          2    1    4    4  501    0  0.10687595812E+03 -0.88579875895E+01 -0.24260521105E+03  0.26525124467E+03  0.00000000000E+00 0. -1.
         -1    1    4    4    0  501  0.29122596279E+02 -0.51321762876E+02 -0.82530150844E+02  0.10145577735E+03  0.00000000000E+00 0.  1.
          5    1    3    3  502    0  0.14091564765E+03 -0.85092424044E+02 -0.11946988212E+03  0.20345290147E+03  0.47000000000E+01 0. -1.
         13    1    6    6    0    0 -0.46865239278E+01  0.67204589234E+01  0.89129057341E+01  0.12106525649E+02  0.00000000000E+00 0. -1.
        -14    1    6    6    0    0 -0.26112881676E+03  0.71164955084E+02 -0.13028508967E+03  0.30037795253E+03  0.00000000000E+00 0.  1.
         -5    1    5    5    0  503 -0.11098861357E+02  0.67386760502E+02 -0.14586861423E+02  0.69993047801E+02  0.47000000000E+01 0.  1.
<mgrwt>
<rscale>  2 0.35735859E+03</rscale>
<asrwt>0</asrwt>
<pdfrwt beam="1">  1       21 0.28621012E-01 0.35749713E+03</pdfrwt>
<pdfrwt beam="2">  1       21 0.11793860E+00 0.35749713E+03</pdfrwt>
<totfact> 0.58527186E+03</totfact>
</mgrwt>
</event>
<event>
12    1  0.1441827E-001  0.2055143E+03  0.7546771E-02  0.1145927E+00
         21   -1    0    0  504  503  0.00000000000E+00  0.00000000000E+00  0.65621743008E+03  0.65621743008E+03  0.00000000000E+00 0.  1.
         21   -1    0    0  502  504 -0.00000000000E+00 -0.00000000000E+00 -0.88047555354E+02  0.88047555354E+02  0.00000000000E+00 0. -1.
          6    2    1    2  502    0  0.78797350105E+02 -0.78082510779E+02  0.84602511454E+02  0.21883800709E+03  0.16860186099E+03 0.  0.
         24    2    3    3    0    0  0.65172696427E+02 -0.18941911179E+01 -0.22124725666E+01  0.10243687870E+03  0.78976900184E+02 0.  0.
         -6    2    1    2    0  503 -0.78797350105E+02  0.78082510779E+02  0.48356736327E+03  0.52542697834E+03  0.17300350828E+03 0.  0.
        -24    2    5    5    0    0  0.10028543336E+02  0.49390760924E+02  0.13824836754E+03  0.16768327865E+03  0.80405546242E+02 0.  0.
          2    1    4    4  501    0 -0.15792357520E+02 -0.29697300672E+01 -0.13104836779E+02  0.20735346626E+02  0.00000000000E+00 0. -1.
         -1    1    4    4    0  501  0.80965053947E+02  0.10755389492E+01  0.10892364212E+02  0.81701532071E+02  0.00000000000E+00 0.  1.
          5    1    3    3  502    0  0.13624653678E+02 -0.76188319661E+02  0.86814984021E+02  0.11640112839E+03  0.47000000000E+01 0. -1.
         11    1    6    6    0    0 -0.50744417214E+01 -0.15989301277E+02  0.34780306169E+01  0.17131970438E+02  0.00000000000E+00 0. -1.
        -12    1    6    6    0    0  0.15102985058E+02  0.65380062201E+02  0.13477033692E+03  0.15055130822E+03  0.00000000000E+00 0.  1.
         -5    1    5    5    0  503 -0.88825893442E+02  0.28691749855E+02  0.34531899573E+03  0.35774369969E+03  0.47000000000E+01 0.  1.
<mgrwt>
<rscale>  2 0.20458515E+03</rscale>
<asrwt>0</asrwt>
<pdfrwt beam="1">  1       21 0.10095652E+00 0.20551427E+03</pdfrwt>
<pdfrwt beam="2">  1       21 0.13545778E-01 0.20551427E+03</pdfrwt>
<totfact> 0.37614439E+04</totfact>
</mgrwt>
</event>
<event>
12    1  0.1441827E-001  0.2376218E+03  0.7546771E-02  0.1121437E+00
         21   -1    0    0  504  503  0.00000000000E+00  0.00000000000E+00  0.56434152138E+02  0.56434152138E+02  0.00000000000E+00 0.  1.
         21   -1    0    0  502  504 -0.00000000000E+00 -0.00000000000E+00 -0.12078618041E+04  0.12078618041E+04  0.00000000000E+00 0. -1.
          6    2    1    2  502    0 -0.47790215923E+02  0.15544886937E+03 -0.83870403296E+03  0.87171588550E+03  0.17325090018E+03 0.  0.
         24    2    3    3    0    0 -0.87171371041E+02  0.14279038626E+03 -0.55525549637E+03  0.58522631245E+03  0.78697066025E+02 0.  0.
         -6    2    1    2    0  503  0.47790215923E+02 -0.15544886937E+03 -0.31272361901E+03  0.39258007074E+03  0.17284326522E+03 0.  0.
        -24    2    5    5    0    0 -0.21548207979E+01 -0.15662677239E+03 -0.26421512435E+03  0.32278710403E+03  0.99223452416E+02 0.  0.
          4    1    4    4  501    0 -0.74589016028E+02  0.11225809467E+03 -0.51887129543E+03  0.53609031175E+03  0.00000000000E+00 0. -1.
         -3    1    4    4    0  501 -0.12582355012E+02  0.30532291582E+02 -0.36384200941E+02  0.49136000702E+02  0.00000000000E+00 0.  1.
          5    1    3    3  502    0  0.39381155118E+02  0.12658483113E+02 -0.28344853659E+03  0.28648957305E+03  0.47000000000E+01 0. -1.
         11    1    6    6    0    0  0.45708023734E+01 -0.25455308713E+02 -0.13877898737E+03  0.14116824115E+03  0.00000000000E+00 0. -1.
        -12    1    6    6    0    0 -0.67256231713E+01 -0.13117146368E+03 -0.12543613698E+03  0.18161886287E+03  0.00000000000E+00 0.  1.
         -5    1    5    5    0  503  0.49945036721E+02  0.11779030208E+01 -0.48508494660E+02  0.69792966714E+02  0.47000000000E+01 0.  1.
<mgrwt>
<rscale>  2 0.23754753E+03</rscale>
<asrwt>0</asrwt>
<pdfrwt beam="1">  1       21 0.86821774E-02 0.23762182E+03</pdfrwt>
<pdfrwt beam="2">  1       21 0.18582489E+00 0.23762182E+03</pdfrwt>
<totfact> 0.16757374E+04</totfact>
</mgrwt>
</event>
<event>
12    1  0.1441827E-001  0.2439306E+03  0.7546771E-02  0.1117245E+00
         21   -1    0    0  504  503  0.00000000000E+00  0.00000000000E+00  0.11739414352E+03  0.11739414352E+03  0.00000000000E+00 0. -1.
         21   -1    0    0  502  504 -0.00000000000E+00 -0.00000000000E+00 -0.10102289567E+04  0.10102289567E+04  0.00000000000E+00 0.  1.
          6    2    1    2  502    0 -0.25449279756E+01  0.17184668184E+03 -0.84450083578E+03  0.87894995574E+03  0.17272406995E+03 0.  0.
         24    2    3    3    0    0 -0.42985207540E+02  0.15101738046E+03 -0.47536737034E+03  0.50699447276E+03  0.80095451559E+02 0.  0.
         -6    2    1    2    0  503  0.25449279756E+01 -0.17184668184E+03 -0.48333977371E+02  0.24867314445E+03  0.17310228388E+03 0.  0.
        -24    2    5    5    0    0 -0.56017063304E+02 -0.13795103109E+03 -0.63111905054E+01  0.16888325425E+03  0.79456428821E+02 0.  0.
          2    1    4    4  501    0 -0.53169617369E+02  0.15204714868E+03 -0.40449470880E+03  0.43538639515E+03  0.00000000000E+00 0. -1.
         -1    1    4    4    0  501  0.10184409829E+02 -0.10297682165E+01 -0.70872661541E+02  0.71608077618E+02  0.00000000000E+00 0.  1.
          5    1    3    3  502    0  0.40440279565E+02  0.20829301383E+02 -0.36913346544E+03  0.37195548298E+03  0.47000000000E+01 0. -1.
         11    1    6    6    0    0 -0.53615293551E+02 -0.10669876097E+03 -0.37003801029E+02  0.12501402555E+03  0.00000000000E+00 0. -1.
        -12    1    6    6    0    0 -0.24017697524E+01 -0.31252270117E+02  0.30692610523E+02  0.43869228693E+02  0.00000000000E+00 0.  1.
         -5    1    5    5    0  503  0.58561991279E+02 -0.33895650759E+02 -0.42022786866E+02  0.79789890205E+02  0.47000000000E+01 0.  1.
<mgrwt>
<rscale>  2 0.24386355E+03</rscale>
<asrwt>0</asrwt>
<pdfrwt beam="1">  1       21 0.18060637E-01 0.24393064E+03</pdfrwt>
<pdfrwt beam="2">  1       21 0.15541984E+00 0.24393064E+03</pdfrwt>
<totfact> 0.73120145E+03</totfact>
</mgrwt>
</event>
<event>
12    1  0.1441827E-001  0.1735296E+03  0.7546771E-02  0.1174258E+00
         21   -1    0    0  504  503  0.00000000000E+00  0.00000000000E+00  0.17987331782E+03  0.17987331782E+03  0.00000000000E+00 0.  1.
         21   -1    0    0  502  504 -0.00000000000E+00 -0.00000000000E+00 -0.24596318453E+03  0.24596318453E+03  0.00000000000E+00 0.  1.
          6    2    1    2  502    0 -0.16938677530E+02 -0.14806164757E+01  0.87392802433E+02  0.19429361102E+03  0.17269451162E+03 0.  0.
         24    2    3    3    0    0 -0.54878602952E+02 -0.40102536684E+02  0.91842381951E+02  0.13976857623E+03  0.80500666254E+02 0.  0.
         -6    2    1    2    0  503  0.16938677530E+02  0.14806164757E+01 -0.15348266914E+03  0.23154289132E+03  0.17252846077E+03 0.  0.
        -24    2    5    5    0    0 -0.49323892003E+02  0.97425725696E+01 -0.47249254197E+02  0.10597770311E+03  0.80442634793E+02 0.  0.
          4    1    4    4  501    0 -0.14827124016E+01  0.17035910511E+02 -0.24397735726E+01  0.17273481933E+02  0.00000000000E+00 0. -1.
         -3    1    4    4    0  501 -0.53395890550E+02 -0.57138447195E+02  0.94282155524E+02  0.12249509429E+03  0.00000000000E+00 0.  1.
          5    1    3    3  502    0  0.37939925422E+02  0.38621920208E+02 -0.44495795179E+01  0.54525034796E+02  0.47000000000E+01 0. -1.
         13    1    6    6    0    0 -0.41243495348E+02 -0.28865113741E+02 -0.92041569239E+01  0.51175552801E+02  0.00000000000E+00 0. -1.
        -14    1    6    6    0    0 -0.80803966553E+01  0.38607686311E+02 -0.38045097273E+02  0.54802150313E+02  0.00000000000E+00 0.  1.
         -5    1    5    5    0  503  0.66262569533E+02 -0.82619560939E+01 -0.10623341495E+03  0.12556518821E+03  0.47000000000E+01 0.  1.
<mgrwt>
<rscale>  2 0.17348822E+03</rscale>
<asrwt>0</asrwt>
<pdfrwt beam="1">  1       21 0.27672818E-01 0.17352955E+03</pdfrwt>
<pdfrwt beam="2">  1       21 0.37840490E-01 0.17352955E+03</pdfrwt>
<totfact> 0.84593889E+04</totfact>
</mgrwt>
</event>
<event>
12    1  0.1441827E-001  0.2861521E+03  0.7546771E-02  0.1092415E+00
         21   -1    0    0  504  503  0.00000000000E+00  0.00000000000E+00  0.20345357183E+04  0.20345357183E+04  0.00000000000E+00 0. -1.
         21   -1    0    0  502  504 -0.00000000000E+00 -0.00000000000E+00 -0.51938840622E+02  0.51938840622E+02  0.00000000000E+00 0.  1.
          6    2    1    2  502    0  0.31749054061E+01  0.22791011470E+03  0.49583905599E+03  0.57248529258E+03  0.17300271779E+03 0.  0.
         24    2    3    3    0    0 -0.28733224881E+00  0.51346205259E+02  0.97909967621E+02  0.13710448159E+03  0.81084904619E+02 0.  0.
         -6    2    1    2    0  503 -0.31749054061E+01 -0.22791011470E+03  0.14867578217E+04  0.15139892663E+04  0.17251544235E+03 0.  0.
        -24    2    5    5    0    0 -0.38900292344E+02 -0.63199450742E+02  0.77085220582E+03  0.77849701830E+03  0.79605784806E+02 0.  0.
          4    1    4    4  501    0  0.16636455842E+02 -0.16235103246E+02  0.41065444980E+02  0.47188144823E+02  0.00000000000E+00 0. -1.
         -3    1    4    4    0  501 -0.16923788090E+02  0.67581308505E+02  0.56844522640E+02  0.89916336762E+02  0.00000000000E+00 0.  1.
          5    1    3    3  502    0  0.34622376549E+01  0.17656390945E+03  0.39792908837E+03  0.43538081099E+03  0.47000000000E+01 0. -1.
         13    1    6    6    0    0  0.15877427428E+02  0.89632077489E+01  0.12768601052E+03  0.12898119661E+03  0.00000000000E+00 0. -1.
        -14    1    6    6    0    0 -0.54777719772E+02 -0.72162658491E+02  0.64316619530E+03  0.64951582170E+03  0.00000000000E+00 0.  1.
         -5    1    5    5    0  503  0.35725386938E+02 -0.16471066396E+03  0.71590561586E+03  0.73549224803E+03  0.47000000000E+01 0.  1.
<mgrwt>
<rscale>  2 0.28607852E+03</rscale>
<asrwt>0</asrwt>
<pdfrwt beam="1">  1       21 0.31300543E+00 0.28615213E+03</pdfrwt>
<pdfrwt beam="2">  1       21 0.79905924E-02 0.28615213E+03</pdfrwt>
<totfact> 0.31415590E+03</totfact>
</mgrwt>
</event>
<event>
12    1  0.1441827E-001  0.1776751E+03  0.7546771E-02  0.1170590E+00
         21   -1    0    0  504  503  0.00000000000E+00  0.00000000000E+00  0.95102872195E+02  0.95102872195E+02  0.00000000000E+00 0.  1.
         21   -1    0    0  502  504 -0.00000000000E+00 -0.00000000000E+00 -0.34273879718E+03  0.34273879718E+03  0.00000000000E+00 0.  1.
          6    2    1    2  502    0 -0.43214107921E+01 -0.39015113264E+02 -0.16844562428E+03  0.24331781680E+03  0.17113964468E+03 0.  0.
         24    2    3    3    0    0 -0.17358329623E+02 -0.89992161569E+02 -0.11154107013E+03  0.16567221815E+03  0.81277135726E+02 0.  0.
         -6    2    1    2    0  503  0.43214107921E+01  0.39015113264E+02 -0.79190300712E+02  0.19452385258E+03  0.17328465552E+03 0.  0.
        -24    2    5    5    0    0  0.67633799989E+02  0.27268021124E+02 -0.22126318358E+02  0.10835633618E+03  0.77030161296E+02 0.  0.
          4    1    4    4  501    0 -0.49228111333E+02 -0.66993130495E+02 -0.73271586380E+02  0.11081611728E+03  0.00000000000E+00 0. -1.
         -3    1    4    4    0  501  0.31869781710E+02 -0.22999031075E+02 -0.38269483746E+02  0.54856100871E+02  0.00000000000E+00 0.  1.
          5    1    3    3  502    0  0.13036918831E+02  0.50977048305E+02 -0.56904554150E+02  0.77645598649E+02  0.47000000000E+01 0. -1.
         11    1    6    6    0    0  0.12199019536E+02 -0.17953054204E+02 -0.29293037495E+02  0.36458336201E+02  0.00000000000E+00 0. -1.
        -12    1    6    6    0    0  0.55434780453E+02  0.45221075329E+02  0.71667191364E+01  0.71897999979E+02  0.00000000000E+00 0.  1.
         -5    1    5    5    0  503 -0.63312389197E+02  0.11747092140E+02 -0.57063982353E+02  0.86167516395E+02  0.47000000000E+01 0.  1.
<mgrwt>
<rscale>  2 0.17714989E+03</rscale>
<asrwt>0</asrwt>
<pdfrwt beam="1">  1       21 0.14631211E-01 0.17767506E+03</pdfrwt>
<pdfrwt beam="2">  1       21 0.52729045E-01 0.17767506E+03</pdfrwt>
<totfact> 0.14064064E+05</totfact>
</mgrwt>
</event>
<event>
12    1  0.1441827E-001  0.3392861E+03  0.7546771E-02  0.1067183E+00
         21   -1    0    0  504  503  0.00000000000E+00  0.00000000000E+00  0.10215268414E+03  0.10215268414E+03  0.00000000000E+00 0.  1.
         21   -1    0    0  502  504 -0.00000000000E+00 -0.00000000000E+00 -0.12660838091E+04  0.12660838091E+04  0.00000000000E+00 0. -1.
          6    2    1    2  502    0 -0.73623391629E+02 -0.28214715461E+03 -0.81029437330E+03  0.87816097186E+03  0.17193690836E+03 0.  0.
         24    2    3    3    0    0  0.38969529949E+01 -0.58165923948E+02 -0.18434013418E+03  0.20881965760E+03  0.78904393900E+02 0.  0.
         -6    2    1    2    0  503  0.73623391629E+02  0.28214715461E+03 -0.35363675165E+03  0.49007552135E+03  0.17345790228E+03 0.  0.
        -24    2    5    5    0    0  0.58944360565E+02  0.62126385711E+02 -0.97353578456E+02  0.15195162755E+03  0.79230375696E+02 0.  0.
          4    1    4    4  501    0 -0.25188875400E+02  0.48778876791E+01 -0.75304681417E+02  0.79555441520E+02  0.00000000000E+00 0. -1.
         -3    1    4    4    0  501  0.29085828395E+02 -0.63043811627E+02 -0.10903545277E+03  0.12926421608E+03  0.00000000000E+00 0.  1.
          5    1    3    3  502    0 -0.77520344623E+02 -0.22398123066E+03 -0.62595423911E+03  0.66934131426E+03  0.47000000000E+01 0. -1.
         11    1    6    6    0    0  0.59097248263E+02  0.72583272588E+02 -0.10371923562E+03  0.13970861122E+03  0.00000000000E+00 0. -1.
        -12    1    6    6    0    0 -0.15288769885E+00 -0.10456886877E+02  0.63656571603E+01  0.12243016331E+02  0.00000000000E+00 0.  1.
         -5    1    5    5    0  503  0.14679031064E+02  0.22002076890E+03 -0.25628317319E+03  0.33812389380E+03  0.47000000000E+01 0.  1.
<mgrwt>
<rscale>  2 0.33909218E+03</rscale>
<asrwt>0</asrwt>
<pdfrwt beam="1">  1       21 0.15715797E-01 0.33928611E+03</pdfrwt>
<pdfrwt beam="2">  1       21 0.19478214E+00 0.33928611E+03</pdfrwt>
<totfact> 0.47228027E+03</totfact>
</mgrwt>
</event>
<event>
12    1  0.1441827E-001  0.2152810E+03  0.7546771E-02  0.1137467E+00
         21   -1    0    0  504  503  0.00000000000E+00  0.00000000000E+00  0.28486446797E+03  0.28486446797E+03  0.00000000000E+00 0.  1.
         21   -1    0    0  502  504 -0.00000000000E+00 -0.00000000000E+00 -0.23587305454E+03  0.23587305454E+03  0.00000000000E+00 0.  1.
          6    2    1    2  502    0  0.60009821010E+02 -0.11322853698E+03 -0.12059454349E+03  0.24668408004E+03  0.17288178395E+03 0.  0.
         24    2    3    3    0    0 -0.24124451388E+02 -0.20705333077E+02 -0.75396157510E+02  0.11362731340E+03  0.78840889206E+02 0.  0.
         -6    2    1    2    0  503 -0.60009821010E+02  0.11322853698E+03  0.16958595693E+03  0.27405344247E+03  0.17298558419E+03 0.  0.
        -24    2    5    5    0    0 -0.68032230002E+01  0.11268544835E+03  0.17236728103E+03  0.22056453913E+03  0.78701602509E+02 0.  0.
          2    1    4    4  501    0 -0.37999876591E+02  0.31033830743E-01 -0.79712095802E+02  0.88306340663E+02  0.00000000000E+00 0. -1.
         -1    1    4    4    0  501  0.13875425202E+02 -0.20736366907E+02  0.43159382926E+01  0.25320972738E+02  0.00000000000E+00 0.  1.
          5    1    3    3  502    0  0.84134272398E+02 -0.92523203907E+02 -0.45198385981E+02  0.13305676664E+03  0.47000000000E+01 0. -1.
         11    1    6    6    0    0  0.27258032845E+02  0.61448790214E+02  0.50607737823E+02  0.84143314059E+02  0.00000000000E+00 0. -1.
        -12    1    6    6    0    0 -0.34061255845E+02  0.51236658132E+02  0.12175954321E+03  0.13642122507E+03  0.00000000000E+00 0.  1.
         -5    1    5    5    0  503 -0.53206598010E+02  0.54308863787E+00 -0.27813241045E+01  0.53488903343E+02  0.47000000000E+01 0.  1.
<mgrwt>
<rscale>  2 0.21526011E+03</rscale>
<asrwt>0</asrwt>
<pdfrwt beam="1">  1       21 0.43825303E-01 0.21528096E+03</pdfrwt>
<pdfrwt beam="2">  1       21 0.36288162E-01 0.21528096E+03</pdfrwt>
<totfact> 0.36211152E+04</totfact>
</mgrwt>
</event>
<event>
12    1  0.1441827E-001  0.2352078E+03  0.7546771E-02  0.1123161E+00
         21   -1    0    0  504  503  0.00000000000E+00  0.00000000000E+00  0.51763328576E+03  0.51763328576E+03  0.00000000000E+00 0. -1.
         21   -1    0    0  502  504 -0.00000000000E+00 -0.00000000000E+00 -0.12870311051E+03  0.12870311051E+03  0.00000000000E+00 0. -1.
          6    2    1    2  502    0 -0.41564900618E+01  0.15920551718E+03  0.60569631618E+02  0.24288142141E+03  0.17308677442E+03 0.  0.
         24    2    3    3    0    0 -0.54887547137E+02  0.40213750141E+02  0.37157956142E+02  0.11134101954E+03  0.79914456740E+02 0.  0.
         -6    2    1    2    0  503  0.41564900618E+01 -0.15920551718E+03  0.32836054363E+03  0.40345497486E+03  0.17202208293E+03 0.  0.
        -24    2    5    5    0    0  0.27948380299E+02 -0.17326469901E+03  0.22958753680E+03  0.30078116363E+03  0.83409252803E+02 0.  0.
          4    1    4    4  501    0 -0.58109881237E+02  0.51502087179E+02  0.58077394034E+01  0.77864967207E+02  0.00000000000E+00 0. -1.
         -3    1    4    4    0  501  0.32223340995E+01 -0.11288337038E+02  0.31350216739E+02  0.33476052332E+02  0.00000000000E+00 0.  1.
          5    1    3    3  502    0  0.50731057076E+02  0.11899176704E+03  0.23411675476E+02  0.13154040187E+03  0.47000000000E+01 0. -1.
         11    1    6    6    0    0 -0.23525707505E+02 -0.10398106255E+03  0.10880860492E+03  0.15233132569E+03  0.00000000000E+00 0. -1.
        -12    1    6    6    0    0  0.51474087804E+02 -0.69283636469E+02  0.12077893188E+03  0.14844983794E+03  0.00000000000E+00 0.  1.
         -5    1    5    5    0  503 -0.23791890237E+02  0.14059181835E+02  0.98773006830E+02  0.10267381123E+03  0.47000000000E+01 0.  1.
<mgrwt>
<rscale>  2 0.23501195E+03</rscale>
<asrwt>0</asrwt>
<pdfrwt beam="1">  1       21 0.79635889E-01 0.23520779E+03</pdfrwt>
<pdfrwt beam="2">  1       21 0.19800479E-01 0.23520779E+03</pdfrwt>
<totfact> 0.31968197E+04</totfact>
</mgrwt>
</event>
<event>
12    1  0.1441827E-001  0.1836921E+03  0.7546771E-02  0.1164838E+00
         21   -1    0    0  504  503  0.00000000000E+00  0.00000000000E+00  0.17616052553E+03  0.17616052553E+03  0.00000000000E+00 0.  1.
         21   -1    0    0  502  504 -0.00000000000E+00 -0.00000000000E+00 -0.19081620098E+03  0.19081620098E+03  0.00000000000E+00 0.  1.
          6    2    1    2  502    0  0.40679244617E+02  0.36559521081E+02  0.10174119683E+02  0.18161411498E+03  0.17288370231E+03 0.  0.
         24    2    3    3    0    0  0.58234594463E+02  0.67927267216E+02 -0.33469278119E+02  0.12487821825E+03  0.80430063987E+02 0.  0.
         -6    2    1    2    0  503 -0.40679244617E+02 -0.36559521081E+02 -0.24829795127E+02  0.18536261153E+03  0.17536071254E+03 0.  0.
        -24    2    5    5    0    0 -0.38053401408E+02 -0.84485928344E+01 -0.82424048225E+02  0.12104848144E+03  0.79621423332E+02 0.  0.
          2    1    4    4  501    0 -0.64217983097E+01  0.98186370773E+01 -0.36047457734E+02  0.37908631427E+02  0.00000000000E+00 0. -1.
         -1    1    4    4    0  501  0.64656392772E+02  0.58108630139E+02  0.25781796147E+01  0.86969586828E+02  0.00000000000E+00 0.  1.
          5    1    3    3  502    0 -0.17555349846E+02 -0.31367746135E+02  0.43643397802E+02  0.56735896728E+02  0.47000000000E+01 0. -1.
         13    1    6    6    0    0  0.19315678124E+02 -0.17661653467E+02 -0.95842657786E+01  0.27872703046E+02  0.00000000000E+00 0. -1.
        -14    1    6    6    0    0 -0.57369079531E+02  0.92130606325E+01 -0.72839782446E+02  0.93175778394E+02  0.00000000000E+00 0.  1.
         -5    1    5    5    0  503 -0.26258432090E+01 -0.28110928247E+02  0.57594253098E+02  0.64314130091E+02  0.47000000000E+01 0.  1.
<mgrwt>
<rscale>  2 0.18309841E+03</rscale>
<asrwt>0</asrwt>
<pdfrwt beam="1">  1       21 0.27101619E-01 0.18369208E+03</pdfrwt>
<pdfrwt beam="2">  1       21 0.29356339E-01 0.18369208E+03</pdfrwt>
<totfact> 0.14464716E+05</totfact>
</mgrwt>
</event>
<event>
12    1  0.1441827E-001  0.1734105E+03  0.7546771E-02  0.1175644E+00
         21   -1    0    0  504  503  0.00000000000E+00  0.00000000000E+00  0.56608622209E+02  0.56608622209E+02  0.00000000000E+00 0.  1.
         21   -1    0    0  502  504 -0.00000000000E+00 -0.00000000000E+00 -0.61644908904E+03  0.61644908904E+03  0.00000000000E+00 0.  1.
          6    2    1    2  502    0 -0.27907133009E+01  0.15117172152E+02 -0.41935039554E+03  0.45379063948E+03  0.17272774319E+03 0.  0.
         24    2    3    3    0    0  0.45828149459E+02  0.47831334424E+02 -0.33341571235E+03  0.34967114081E+03  0.81950067950E+02 0.  0.
         -6    2    1    2    0  503  0.27907133009E+01 -0.15117172152E+02 -0.14049007129E+03  0.21926707176E+03  0.16764328694E+03 0.  0.
        -24    2    5    5    0    0 -0.42621062246E+02  0.37356796558E+02 -0.80860281192E+02  0.12765075980E+03  0.80896515422E+02 0.  0.
          4    1    4    4  501    0  0.41839710094E+02 -0.78556918979E+01 -0.20917226559E+03  0.21346032401E+03  0.00000000000E+00 0. -1.
         -3    1    4    4    0  501  0.39884393650E+01  0.55687026322E+02 -0.12424344676E+03  0.13621081680E+03  0.00000000000E+00 0.  1.
          5    1    3    3  502    0 -0.48618862760E+02 -0.32714162272E+02 -0.85934683187E+02  0.10411949867E+03  0.47000000000E+01 0. -1.
         11    1    6    6    0    0 -0.22719008038E+02 -0.89790108523E+01 -0.72536004143E+02  0.76539191655E+02  0.00000000000E+00 0. -1.
        -12    1    6    6    0    0 -0.19902054207E+02  0.46335807411E+02 -0.83242770492E+01  0.51111568147E+02  0.00000000000E+00 0.  1.
         -5    1    5    5    0  503  0.45411775546E+02 -0.52473968711E+02 -0.59629790097E+02  0.91616311962E+02  0.47000000000E+01 0.  1.
<mgrwt>
<rscale>  2 0.17213040E+03</rscale>
<asrwt>0</asrwt>
<pdfrwt beam="1">  1       21 0.87090197E-02 0.17341047E+03</pdfrwt>
<pdfrwt beam="2">  1       21 0.94838312E-01 0.17341047E+03</pdfrwt>
<totfact> 0.97006723E+04</totfact>
</mgrwt>
</event>
<event>
12    1  0.1441827E-001  0.3018182E+03  0.7546771E-02  0.1084439E+00
         21   -1    0    0  504  503  0.00000000000E+00  0.00000000000E+00  0.86382941198E+03  0.86382941198E+03  0.00000000000E+00 0.  1.
         21   -1    0    0  502  504 -0.00000000000E+00 -0.00000000000E+00 -0.10561524570E+03  0.10561524570E+03  0.00000000000E+00 0.  1.
          6    2    1    2  502    0 -0.19102820769E+03 -0.15657186171E+03  0.34686656785E+03  0.45924759386E+03  0.17200410625E+03 0.  0.
         24    2    3    3    0    0 -0.16146093185E+03 -0.10190177714E+03  0.16009918624E+03  0.26235374739E+03  0.82122680408E+02 0.  0.
         -6    2    1    2    0  503  0.19102820769E+03  0.15657186171E+03  0.41134759843E+03  0.51019706382E+03  0.17345798678E+03 0.  0.
        -24    2    5    5    0    0  0.12595281067E+03  0.15164735293E+03  0.21250526521E+03  0.30086617368E+03  0.80628385556E+02 0.  0.
          2    1    4    4  501    0 -0.97326537583E+02 -0.46419195722E+02  0.13722138195E+03  0.17451906576E+03  0.00000000000E+00 0. -1.
         -1    1    4    4    0  501 -0.64134394265E+02 -0.55482581414E+02  0.22877804296E+02  0.87834681633E+02  0.00000000000E+00 0.  1.
          5    1    3    3  502    0 -0.29567275844E+02 -0.54670084578E+02  0.18676738160E+03  0.19689384647E+03  0.47000000000E+01 0. -1.
         11    1    6    6    0    0 -0.10609362341E+02  0.16816671429E+02  0.11542399169E+02  0.22990997930E+02  0.00000000000E+00 0. -1.
        -12    1    6    6    0    0  0.13656217301E+03  0.13483068150E+03  0.20096286604E+03  0.27787517575E+03  0.00000000000E+00 0.  1.
         -5    1    5    5    0  503  0.65075397021E+02  0.49245087869E+01  0.19884233322E+03  0.20933089014E+03  0.47000000000E+01 0.  1.
<mgrwt>
<rscale>  2 0.30160963E+03</rscale>
<asrwt>0</asrwt>
<pdfrwt beam="1">  1       21 0.13289683E+00 0.30181815E+03</pdfrwt>
<pdfrwt beam="2">  1       21 0.16248500E-01 0.30181815E+03</pdfrwt>
<totfact> 0.13017396E+04</totfact>
</mgrwt>
</event>
<event>
12    1  0.1441827E-001  0.2038929E+03  0.7546771E-02  0.1147191E+00
         21   -1    0    0  504  503  0.00000000000E+00  0.00000000000E+00  0.26305649104E+02  0.26305649104E+02  0.00000000000E+00 0.  1.
         21   -1    0    0  502  504 -0.00000000000E+00 -0.00000000000E+00 -0.15677889898E+04  0.15677889898E+04  0.00000000000E+00 0. -1.
          6    2    1    2  502    0 -0.86224713078E+02  0.48821475647E+02 -0.70363364625E+03  0.73257942851E+03  0.17819672643E+03 0.  0.
         24    2    3    3    0    0 -0.65862943117E+02  0.84903770413E+02 -0.31663767846E+03  0.34334363525E+03  0.77967011853E+02 0.  0.
         -6    2    1    2    0  503  0.86224713078E+02 -0.48821475647E+02 -0.83784969446E+03  0.86151521041E+03  0.17435053665E+03 0.  0.
        -24    2    5    5    0    0  0.76950766064E+02 -0.83530989490E+02 -0.78689606763E+03  0.79899226636E+03  0.79274042797E+02 0.  0.
          4    1    4    4  501    0 -0.55312857852E+02  0.99006953532E+02 -0.29023145068E+03  0.31160260598E+03  0.00000000000E+00 0. -1.
         -3    1    4    4    0  501 -0.10550085266E+02 -0.14103183119E+02 -0.26406227784E+02  0.31741029268E+02  0.00000000000E+00 0.  1.
          5    1    3    3  502    0 -0.20361769960E+02 -0.36082294766E+02 -0.38699596779E+03  0.38923579326E+03  0.47000000000E+01 0. -1.
         13    1    6    6    0    0  0.78391833525E+02 -0.88395750937E+02 -0.57388158632E+03  0.58591736914E+03  0.00000000000E+00 0. -1.
        -14    1    6    6    0    0 -0.14410674615E+01  0.48647614473E+01 -0.21301448131E+03  0.21307489722E+03  0.00000000000E+00 0.  1.
         -5    1    5    5    0  503  0.92739470143E+01  0.34709513843E+02 -0.50953626834E+02  0.62522944044E+02  0.47000000000E+01 0.  1.
<mgrwt>
<rscale>  2 0.20304948E+03</rscale>
<asrwt>0</asrwt>
<pdfrwt beam="1">  1       21 0.40470208E-02 0.20389289E+03</pdfrwt>
<pdfrwt beam="2">  1       21 0.24119843E+00 0.20389289E+03</pdfrwt>
<totfact> 0.28540364E+04</totfact>
</mgrwt>
</event>
<event>
12    1  0.1441827E-001  0.2128747E+03  0.7546771E-02  0.1139581E+00
         21   -1    0    0  504  503  0.00000000000E+00  0.00000000000E+00  0.13454990895E+03  0.13454990895E+03  0.00000000000E+00 0.  1.
         21   -1    0    0  502  504 -0.00000000000E+00 -0.00000000000E+00 -0.34433898294E+03  0.34433898294E+03  0.00000000000E+00 0.  1.
          6    2    1    2  502    0  0.11545754765E+03 -0.39510496056E+02 -0.64295239936E+02  0.22104380181E+03  0.17272799377E+03 0.  0.
         24    2    3    3    0    0  0.78580123259E+01 -0.35376885162E+02 -0.70558129704E+02  0.11308056488E+03  0.80594615975E+02 0.  0.
         -6    2    1    2    0  503 -0.11545754765E+03  0.39510496056E+02 -0.14549383405E+03  0.25784509008E+03  0.17442508456E+03 0.  0.
        -24    2    5    5    0    0  0.11057390866E+02  0.67100587971E+01 -0.51995369403E+02  0.97078329699E+02  0.80953028825E+02 0.  0.
          4    1    4    4  501    0 -0.12945902196E+02 -0.56664695887E+02 -0.40982471454E+02  0.71119948749E+02  0.00000000000E+00 0. -1.
         -3    1    4    4    0  501  0.20803914522E+02  0.21287810725E+02 -0.29575658250E+02  0.41960616128E+02  0.00000000000E+00 0.  1.
          5    1    3    3  502    0  0.10759953532E+03 -0.41336108943E+01  0.62628897680E+01  0.10796323693E+03  0.47000000000E+01 0. -1.
         13    1    6    6    0    0  0.29264873912E+02  0.36571173940E+02 -0.26692151608E+02  0.53910616449E+02  0.00000000000E+00 0. -1.
        -14    1    6    6    0    0 -0.18207483046E+02 -0.29861115143E+02 -0.25303217795E+02  0.43167713250E+02  0.00000000000E+00 0.  1.
         -5    1    5    5    0  503 -0.12651493851E+03  0.32800437259E+02 -0.93498464647E+02  0.16076676038E+03  0.47000000000E+01 0.  1.
<mgrwt>
<rscale>  2 0.21252676E+03</rscale>
<asrwt>0</asrwt>
<pdfrwt beam="1">  1       21 0.20699986E-01 0.21287469E+03</pdfrwt>
<pdfrwt beam="2">  1       21 0.52975228E-01 0.21287469E+03</pdfrwt>
<totfact> 0.72426027E+04</totfact>
</mgrwt>
</event>
<event>
12    1  0.1441827E-001  0.3280870E+03  0.7546771E-02  0.1072319E+00
         21   -1    0    0  504  503  0.00000000000E+00  0.00000000000E+00  0.28072686467E+03  0.28072686467E+03  0.00000000000E+00 0. -1.
         21   -1    0    0  502  504 -0.00000000000E+00 -0.00000000000E+00 -0.69943729252E+03  0.69943729252E+03  0.00000000000E+00 0.  1.
          6    2    1    2  502    0  0.14184416224E+03 -0.23722351879E+03 -0.54004683868E+03  0.63035907455E+03  0.17119348901E+03 0.  0.
         24    2    3    3    0    0  0.11035569192E+03 -0.22783010942E+03 -0.36109469577E+03  0.44835435111E+03  0.80915433356E+02 0.  0.
         -6    2    1    2    0  503 -0.14184416224E+03  0.23722351879E+03  0.12133641083E+03  0.34980508263E+03  0.17676624965E+03 0.  0.
        -24    2    5    5    0    0 -0.13058777265E+03  0.26030791247E+03  0.10857349459E+03  0.32074346587E+03  0.79213581603E+02 0.  0.
          2    1    4    4  501    0  0.46589439338E+02 -0.17202724093E+03 -0.21296657638E+03  0.27770255695E+03  0.00000000000E+00 0. -1.
         -1    1    4    4    0  501  0.63766252578E+02 -0.55802868490E+02 -0.14812811938E+03  0.17065179417E+03  0.00000000000E+00 0.  1.
          5    1    3    3  502    0  0.31488470320E+02 -0.93934093751E+01 -0.17895214291E+03  0.18200472344E+03  0.47000000000E+01 0. -1.
         11    1    6    6    0    0 -0.84866978166E+02  0.83086504105E+02  0.44360509322E+02  0.12678180443E+03  0.00000000000E+00 0. -1.
        -12    1    6    6    0    0 -0.45720794484E+02  0.17722140837E+03  0.64212985273E+02  0.19396166144E+03  0.00000000000E+00 0.  1.
         -5    1    5    5    0  503 -0.11256389587E+02 -0.23084393678E+02  0.12762916233E+02  0.29061616762E+02  0.47000000000E+01 0.  1.
<mgrwt>
<rscale>  2 0.32734231E+03</rscale>
<asrwt>0</asrwt>
<pdfrwt beam="1">  1       21 0.43188749E-01 0.32808699E+03</pdfrwt>
<pdfrwt beam="2">  1       21 0.10760574E+00 0.32808699E+03</pdfrwt>
<totfact> 0.32489266E+03</totfact>
</mgrwt>
</event>
<event>
12    1  0.1441827E-001  0.1861188E+03  0.7546771E-02  0.1162131E+00
         21   -1    0    0  504  503  0.00000000000E+00  0.00000000000E+00  0.52692593233E+03  0.52692593233E+03  0.00000000000E+00 0.  1.
         21   -1    0    0  502  504 -0.00000000000E+00 -0.00000000000E+00 -0.66409751316E+02  0.66409751316E+02  0.00000000000E+00 0. -1.
          6    2    1    2  502    0 -0.56626666749E+02  0.38144247560E+02  0.19627874558E+03  0.27013042053E+03  0.17257906919E+03 0.  0.
         24    2    3    3    0    0 -0.35112854209E+02  0.60837708483E+02  0.20990255904E+03  0.23569881308E+03  0.80998190676E+02 0.  0.
         -6    2    1    2    0  503  0.56626666749E+02 -0.38144247560E+02  0.26423743544E+03  0.32320526311E+03  0.17314345731E+03 0.  0.
        -24    2    5    5    0    0 -0.13414048414E+02  0.11393342886E+02  0.19488097903E+03  0.21278749872E+03  0.83607288357E+02 0.  0.
          2    1    4    4  501    0 -0.15572905533E+02 -0.18192498247E+02  0.68110881559E+02  0.72198161790E+02  0.00000000000E+00 0. -1.
         -1    1    4    4    0  501 -0.19539948677E+02  0.79030206730E+02  0.14179167748E+03  0.16350065129E+03  0.00000000000E+00 0.  1.
          5    1    3    3  502    0 -0.21513812540E+02 -0.22693460923E+02 -0.13623813461E+02  0.34431607454E+02  0.47000000000E+01 0. -1.
         11    1    6    6    0    0 -0.22977143717E+02 -0.32644742638E+02  0.10254881924E+03  0.11004493938E+03  0.00000000000E+00 0. -1.
        -12    1    6    6    0    0  0.95630953030E+01  0.44038085524E+02  0.92332159793E+02  0.10274255934E+03  0.00000000000E+00 0.  1.
         -5    1    5    5    0  503  0.70040715163E+02 -0.49537590446E+02  0.69356456400E+02  0.11041776439E+03  0.47000000000E+01 0.  1.
<mgrwt>
<rscale>  2 0.18598746E+03</rscale>
<asrwt>0</asrwt>
<pdfrwt beam="1">  1       21 0.81065525E-01 0.18611883E+03</pdfrwt>
<pdfrwt beam="2">  1       21 0.10216885E-01 0.18611883E+03</pdfrwt>
<totfact> 0.10454389E+05</totfact>
</mgrwt>
</event>
<event>
12    1  0.1441827E-001  0.2496930E+03  0.7546771E-02  0.1113592E+00
         21   -1    0    0  504  503  0.00000000000E+00  0.00000000000E+00  0.60372479920E+02  0.60372479920E+02  0.00000000000E+00 0. -1.
         21   -1    0    0  502  504 -0.00000000000E+00 -0.00000000000E+00 -0.10835545151E+04  0.10835545151E+04  0.00000000000E+00 0.  1.
          6    2    1    2  502    0 -0.83925834028E+02  0.15738827565E+03 -0.63900717412E+03  0.68605886414E+03  0.17473403092E+03 0.  0.
         24    2    3    3    0    0 -0.85814270695E+01  0.13807996704E+03 -0.51557055993E+03  0.54008531118E+03  0.82093988201E+02 0.  0.
         -6    2    1    2    0  503  0.83925834028E+02 -0.15738827565E+03 -0.38417486107E+03  0.45786813088E+03  0.17389159403E+03 0.  0.
        -24    2    5    5    0    0  0.36857784504E+02 -0.17780904254E+03 -0.32033042245E+03  0.37582782769E+03  0.75235793546E+02 0.  0.
          4    1    4    4  501    0 -0.29611920637E+02  0.10519102427E+03 -0.45564141941E+03  0.46856282451E+03  0.00000000000E+00 0. -1.
         -3    1    4    4    0  501  0.21030493568E+02  0.32888942769E+02 -0.59929140523E+02  0.71522486673E+02  0.00000000000E+00 0.  1.
          5    1    3    3  502    0 -0.75344406958E+02  0.19308308615E+02 -0.12343661419E+03  0.14597355296E+03  0.47000000000E+01 0. -1.
         11    1    6    6    0    0  0.44398524015E+02 -0.79993184410E+02 -0.20450982770E+03  0.22404108577E+03  0.00000000000E+00 0. -1.
        -12    1    6    6    0    0 -0.75407395109E+01 -0.97815858129E+02 -0.11582059474E+03  0.15178674191E+03  0.00000000000E+00 0.  1.
         -5    1    5    5    0  503  0.47068049524E+02  0.20420766885E+02 -0.63844438621E+02  0.82040303199E+02  0.47000000000E+01 0.  1.
<mgrwt>
<rscale>  2 0.24954567E+03</rscale>
<asrwt>0</asrwt>
<pdfrwt beam="1">  1       21 0.92880750E-02 0.24969300E+03</pdfrwt>
<pdfrwt beam="2">  1       21 0.16670067E+00 0.24969300E+03</pdfrwt>
<totfact> 0.20071827E+04</totfact>
</mgrwt>
</event>
<event>
12    1  0.1441827E-001  0.2092692E+03  0.7546771E-02  0.1143044E+00
         21   -1    0    0  504  503  0.00000000000E+00  0.00000000000E+00  0.34222093682E+02  0.34222093682E+02  0.00000000000E+00 0.  1.
         21   -1    0    0  502  504 -0.00000000000E+00 -0.00000000000E+00 -0.12592314478E+04  0.12592314478E+04  0.00000000000E+00 0.  1.
          6    2    1    2  502    0 -0.10884802117E+03 -0.12539824814E+02 -0.57194926466E+03  0.60903164796E+03  0.17829315172E+03 0.  0.
         24    2    3    3    0    0 -0.14617927548E+03 -0.18584809820E+02 -0.42492405078E+03  0.45714791641E+03  0.81914545789E+02 0.  0.
         -6    2    1    2    0  503  0.10884802117E+03  0.12539824814E+02 -0.65306008941E+03  0.68442189348E+03  0.17303383765E+03 0.  0.
        -24    2    5    5    0    0  0.25861504479E+01  0.39837699143E+02 -0.21448948483E+03  0.23231236657E+03  0.79809561550E+02 0.  0.
          4    1    4    4  501    0 -0.61628316654E+01  0.21737149980E+02 -0.66784184744E+02  0.70502563891E+02  0.00000000000E+00 0. -1.
         -3    1    4    4    0  501 -0.14001644381E+03 -0.40321959800E+02 -0.35813986603E+03  0.38664535252E+03  0.00000000000E+00 0.  1.
          5    1    3    3  502    0  0.37331254311E+02  0.60449850063E+01 -0.14702521389E+03  0.15188373155E+03  0.47000000000E+01 0. -1.
         13    1    6    6    0    0 -0.25943344740E+01  0.60140485310E+01 -0.19028800287E+03  0.19040069166E+03  0.00000000000E+00 0. -1.
        -14    1    6    6    0    0  0.51804849219E+01  0.33823650612E+02 -0.24201481961E+02  0.41911674911E+02  0.00000000000E+00 0.  1.
         -5    1    5    5    0  503  0.10626187072E+03 -0.27297874329E+02 -0.43857060458E+03  0.45210952690E+03  0.47000000000E+01 0.  1.
<mgrwt>
<rscale>  2 0.20814456E+03</rscale>
<asrwt>0</asrwt>
<pdfrwt beam="1">  1       21 0.52649375E-02 0.20926917E+03</pdfrwt>
<pdfrwt beam="2">  1       21 0.19372792E+00 0.20926917E+03</pdfrwt>
<totfact> 0.35926224E+04</totfact>
</mgrwt>
</event>
<event>
12    1  0.1441827E-001  0.2220056E+03  0.7546771E-02  0.1132502E+00
         21   -1    0    0  504  503  0.00000000000E+00  0.00000000000E+00  0.81458025292E+02  0.81458025292E+02  0.00000000000E+00 0.  1.
         21   -1    0    0  502  504 -0.00000000000E+00 -0.00000000000E+00 -0.14437855778E+04  0.14437855778E+04  0.00000000000E+00 0. -1.
          6    2    1    2  502    0 -0.54597993914E+02  0.12821764767E+03 -0.12633307467E+04  0.12826889903E+04  0.17281714084E+03 0.  0.
         24    2    3    3    0    0 -0.64352790222E+02  0.15349730144E+03 -0.11922610531E+04  0.12064839492E+04  0.80089935040E+02 0.  0.
         -6    2    1    2    0  503  0.54597993914E+02 -0.12821764767E+03 -0.98996805823E+02  0.24255461281E+03  0.17208040713E+03 0.  0.
        -24    2    5    5    0    0  0.10351669833E+03 -0.87322188679E+02 -0.70128938875E+02  0.17240532949E+03  0.80403097577E+02 0.  0.
          2    1    4    4  501    0 -0.66889141648E+02  0.92546126553E+02 -0.94196897990E+03  0.94886484913E+03  0.00000000000E+00 0. -1.
         -1    1    4    4    0  501  0.25363514260E+01  0.60951174887E+02 -0.25029207318E+03  0.25761910003E+03  0.00000000000E+00 0.  1.
          5    1    3    3  502    0  0.97547963080E+01 -0.25279653775E+02 -0.71069693581E+02  0.76205041118E+02  0.47000000000E+01 0. -1.
         13    1    6    6    0    0  0.74859289950E+02 -0.32170814951E+02 -0.74088253169E+02  0.11012694441E+03  0.00000000000E+00 0. -1.
        -14    1    6    6    0    0  0.28657408381E+02 -0.55151373727E+02  0.39593142938E+01  0.62278385085E+02  0.00000000000E+00 0.  1.
         -5    1    5    5    0  503 -0.48918704417E+02 -0.40895458986E+02 -0.28867866948E+02  0.70149283315E+02  0.47000000000E+01 0.  1.
<mgrwt>
<rscale>  2 0.22186217E+03</rscale>
<asrwt>0</asrwt>
<pdfrwt beam="1">  1       21 0.12532004E-01 0.22200556E+03</pdfrwt>
<pdfrwt beam="2">  1       21 0.22212085E+00 0.22200556E+03</pdfrwt>
<totfact> 0.51593020E+03</totfact>
</mgrwt>
</event>
<event>
12    1  0.1441827E-001  0.3561091E+03  0.7546771E-02  0.1060303E+00
         21   -1    0    0  504  503  0.00000000000E+00  0.00000000000E+00  0.40157072399E+03  0.40157072399E+03  0.00000000000E+00 0. -1.
         21   -1    0    0  502  504 -0.00000000000E+00 -0.00000000000E+00 -0.47530494250E+03  0.47530494250E+03  0.00000000000E+00 0.  1.
          6    2    1    2  502    0  0.72346378262E+02  0.30207590829E+03 -0.29197364390E+03  0.45921293154E+03  0.17071629959E+03 0.  0.
         24    2    3    3    0    0  0.10871299189E+03  0.27065220041E+03 -0.23238750827E+03  0.38251496831E+03  0.85103576853E+02 0.  0.
         -6    2    1    2    0  503 -0.72346378262E+02 -0.30207590829E+03  0.21823942539E+03  0.41766273495E+03  0.17415470295E+03 0.  0.
        -24    2    5    5    0    0 -0.95890001173E+01 -0.19153121314E+03  0.20076636161E+03  0.28926485298E+03  0.81184165232E+02 0.  0.
          4    1    4    4  501    0  0.91159568787E+01  0.10001693411E+03 -0.44440577416E+02  0.10982464523E+03  0.00000000000E+00 0. -1.
         -3    1    4    4    0  501  0.99597035008E+02  0.17063526630E+03 -0.18794693085E+03  0.27269032308E+03  0.00000000000E+00 0.  1.
          5    1    3    3  502    0 -0.36366613624E+02  0.31423707880E+02 -0.59586135634E+02  0.76697963227E+02  0.47000000000E+01 0. -1.
         11    1    6    6    0    0 -0.16611542392E+02 -0.19504515157E+03  0.20203266260E+03  0.28131077343E+03  0.00000000000E+00 0. -1.
        -12    1    6    6    0    0  0.70225422752E+01  0.35139384332E+01 -0.12663009815E+01  0.79540795504E+01  0.00000000000E+00 0.  1.
         -5    1    5    5    0  503 -0.62757378145E+02 -0.11054469515E+03  0.17473063773E+02  0.12839788197E+03  0.47000000000E+01 0.  1.
<mgrwt>
<rscale>  2 0.35569118E+03</rscale>
<asrwt>0</asrwt>
<pdfrwt beam="1">  1       21 0.61780112E-01 0.35610913E+03</pdfrwt>
<pdfrwt beam="2">  1       21 0.73123837E-01 0.35610913E+03</pdfrwt>
<totfact> 0.37107033E+03</totfact>
</mgrwt>
</event>
<event>
12    1  0.1441827E-001  0.2273800E+03  0.7546771E-02  0.1129894E+00
         21   -1    0    0  504  503  0.00000000000E+00  0.00000000000E+00  0.18372416400E+03  0.18372416400E+03  0.00000000000E+00 0.  1.
         21   -1    0    0  502  504 -0.00000000000E+00 -0.00000000000E+00 -0.28625999117E+03  0.28625999117E+03  0.00000000000E+00 0.  1.
          6    2    1    2  502    0  0.13634441767E+03 -0.50326241531E+02 -0.10457018634E+03  0.25027303605E+03  0.17486891629E+03 0.  0.
         24    2    3    3    0    0  0.12237453695E+03 -0.24935350016E+02 -0.14000711028E+03  0.20425433857E+03  0.80749891147E+02 0.  0.
         -6    2    1    2    0  503 -0.13634441767E+03  0.50326241531E+02  0.20343591611E+01  0.21971111912E+03  0.16476136207E+03 0.  0.
        -24    2    5    5    0    0 -0.20140373759E+02  0.54981917317E+02  0.24976375725E+02  0.10107941483E+03  0.78514857640E+02 0.  0.
          2    1    4    4  501    0  0.51014244612E+02 -0.37463365076E+02 -0.10771098159E+03  0.12493043037E+03  0.00000000000E+00 0. -1.
         -1    1    4    4    0  501  0.71360292336E+02  0.12528015060E+02 -0.32296128687E+02  0.79323908198E+02  0.00000000000E+00 0.  1.
          5    1    3    3  502    0  0.13969880726E+02 -0.25390891515E+02  0.35436923943E+02  0.46018697482E+02  0.47000000000E+01 0. -1.
         11    1    6    6    0    0  0.26796040096E+01  0.32410960814E+02 -0.25455999489E+02  0.41299619472E+02  0.00000000000E+00 0. -1.
        -12    1    6    6    0    0 -0.22819977768E+02  0.22570956502E+02  0.50432375214E+02  0.59779795354E+02  0.00000000000E+00 0.  1.
         -5    1    5    5    0  503 -0.11620404392E+03 -0.46556757858E+01 -0.22942016564E+02  0.11863170429E+03  0.47000000000E+01 0.  1.
<mgrwt>
<rscale>  2 0.22543563E+03</rscale>
<asrwt>0</asrwt>
<pdfrwt beam="1">  1       21 0.28265256E-01 0.22738001E+03</pdfrwt>
<pdfrwt beam="2">  1       21 0.44039999E-01 0.22738001E+03</pdfrwt>
<totfact> 0.58337034E+04</totfact>
</mgrwt>
</event>
<event>
12    1  0.1441827E-001  0.1897573E+03  0.7546771E-02  0.1158952E+00
         21   -1    0    0  504  503  0.00000000000E+00  0.00000000000E+00  0.11851698830E+03  0.11851698830E+03  0.00000000000E+00 0.  1.
         21   -1    0    0  502  504 -0.00000000000E+00 -0.00000000000E+00 -0.13277592745E+04  0.13277592745E+04  0.00000000000E+00 0.  1.
          6    2    1    2  502    0  0.72442351440E+02 -0.21214721058E+02 -0.12398149918E+04  0.12540718823E+04  0.17279210972E+03 0.  0.
         24    2    3    3    0    0  0.99881496215E+02  0.17284261806E+02 -0.10714866933E+04  0.10791673814E+04  0.79015467094E+02 0.  0.
         -6    2    1    2    0  503 -0.72442351440E+02  0.21214721058E+02  0.30572705625E+02  0.19220438057E+03  0.17409731448E+03 0.  0.
        -24    2    5    5    0    0 -0.11119396471E+02  0.65943613280E+02 -0.89498158995E+01  0.10649966475E+03  0.82400717702E+02 0.  0.
          2    1    4    4  501    0  0.41130363172E+02 -0.27482107748E+02 -0.28906870306E+03  0.29327067380E+03  0.00000000000E+00 0. -1.
         -1    1    4    4    0  501  0.58751133042E+02  0.44766369554E+02 -0.78241799027E+03  0.78589670757E+03  0.00000000000E+00 0.  1.
          5    1    3    3  502    0 -0.27439144775E+02 -0.38498982865E+02 -0.16832829851E+03  0.17490450088E+03  0.47000000000E+01 0. -1.
         13    1    6    6    0    0  0.30622371682E+02  0.36083588576E+01 -0.60570462816E+01  0.31423521616E+02  0.00000000000E+00 0. -1.
        -14    1    6    6    0    0 -0.41741768153E+02  0.62335254423E+02 -0.28927696178E+01  0.75076143139E+02  0.00000000000E+00 0.  1.
         -5    1    5    5    0  503 -0.61322954969E+02 -0.44728892222E+02  0.39522521525E+02  0.85704715817E+02  0.47000000000E+01 0.  1.
<mgrwt>
<rscale>  2 0.18945740E+03</rscale>
<asrwt>0</asrwt>
<pdfrwt beam="1">  1       21 0.18233382E-01 0.18975730E+03</pdfrwt>
<pdfrwt beam="2">  1       21 0.20427066E+00 0.18975730E+03</pdfrwt>
<totfact> 0.34669376E+03</totfact>
</mgrwt>
</event>
<event>
12    1  0.1441827E-001  0.1959503E+03  0.7546771E-02  0.1153570E+00
         21   -1    0    0  504  503  0.00000000000E+00  0.00000000000E+00  0.14755707075E+03  0.14755707075E+03  0.00000000000E+00 0. -1.
         21   -1    0    0  502  504 -0.00000000000E+00 -0.00000000000E+00 -0.32161114982E+03  0.32161114982E+03  0.00000000000E+00 0. -1.
          6    2    1    2  502    0  0.50733617135E+02  0.75212066055E+02 -0.19167993331E+03  0.27411260563E+03  0.17368295525E+03 0.  0.
         24    2    3    3    0    0 -0.24950611986E+02  0.53334333513E+01 -0.47120887677E+02  0.96544214527E+02  0.80308335516E+02 0.  0.
         -6    2    1    2    0  503 -0.50733617135E+02 -0.75212066055E+02  0.17625854242E+02  0.19505561494E+03  0.17177097366E+03 0.  0.
        -24    2    5    5    0    0 -0.99635790313E+02 -0.59186907254E+02  0.13035063558E+01  0.14086394310E+03  0.80066039211E+02 0.  0.
          2    1    4    4  501    0 -0.35739225091E+02  0.28886483161E+02 -0.38544823359E+01  0.46114836589E+02  0.00000000000E+00 0. -1.
         -1    1    4    4    0  501  0.10788613105E+02 -0.23553049810E+02 -0.43266405341E+02  0.50429377938E+02  0.00000000000E+00 0.  1.
          5    1    3    3  502    0  0.75684229121E+02  0.69878632704E+02 -0.14455904563E+03  0.17756839111E+03  0.47000000000E+01 0. -1.
         11    1    6    6    0    0 -0.18047228464E+02 -0.31925290507E+02  0.32854639062E+02  0.49237728797E+02  0.00000000000E+00 0. -1.
        -12    1    6    6    0    0 -0.81588561849E+02 -0.27261616747E+02 -0.31551132706E+02  0.91626214302E+02  0.00000000000E+00 0.  1.
         -5    1    5    5    0  503  0.48902173178E+02 -0.16025158801E+02  0.16322347887E+02  0.54191671839E+02  0.47000000000E+01 0.  1.
<mgrwt>
<rscale>  2 0.19552576E+03</rscale>
<asrwt>0</asrwt>
<pdfrwt beam="1">  1       21 0.22701088E-01 0.19595031E+03</pdfrwt>
<pdfrwt beam="2">  1       21 0.49478638E-01 0.19595031E+03</pdfrwt>
<totfact> 0.70752484E+04</totfact>
</mgrwt>
</event>
<event>
12    1  0.1441827E-001  0.1799619E+03  0.7546771E-02  0.1169741E+00
         21   -1    0    0  504  503  0.00000000000E+00  0.00000000000E+00  0.13581052074E+03  0.13581052074E+03  0.00000000000E+00 0. -1.
         21   -1    0    0  502  504 -0.00000000000E+00 -0.00000000000E+00 -0.28404166858E+03  0.28404166858E+03  0.00000000000E+00 0.  1.
          6    2    1    2  502    0  0.42418749345E+02 -0.22697156644E+02 -0.16830256917E+03  0.24639809929E+03  0.17341210261E+03 0.  0.
         24    2    3    3    0    0  0.19373642346E+02 -0.82644975597E+02 -0.10723286948E+03  0.15764892367E+03  0.78414060144E+02 0.  0.
         -6    2    1    2    0  503 -0.42418749345E+02  0.22697156644E+02  0.20071421326E+02  0.17345409002E+03  0.16543563152E+03 0.  0.
        -24    2    5    5    0    0 -0.43739826923E+02  0.46671921867E+02 -0.39056072691E+02  0.10946436302E+03  0.79784893350E+02 0.  0.
          4    1    4    4  501    0  0.33808577636E+02 -0.83577384003E+02 -0.60114700740E+02  0.10836039998E+03  0.00000000000E+00 0. -1.
         -3    1    4    4    0  501 -0.14434935290E+02  0.93240840646E+00 -0.47118168739E+02  0.49288523690E+02  0.00000000000E+00 0.  1.
          5    1    3    3  502    0  0.23045106999E+02  0.59947818952E+02 -0.61069699688E+02  0.88749175623E+02  0.47000000000E+01 0. -1.
         13    1    6    6    0    0 -0.16571666454E+02 -0.21811555675E+02 -0.33641983860E+01  0.27598585486E+02  0.00000000000E+00 0. -1.
        -14    1    6    6    0    0 -0.27168160470E+02  0.68483477543E+02 -0.35691874305E+02  0.81865777533E+02  0.00000000000E+00 0.  1.
         -5    1    5    5    0  503  0.13210775782E+01 -0.23974765223E+02  0.59127494017E+02  0.63989727005E+02  0.47000000000E+01 0.  1.
<mgrwt>
<rscale>  2 0.17801215E+03</rscale>
<asrwt>0</asrwt>
<pdfrwt beam="1">  1       21 0.20893927E-01 0.17996185E+03</pdfrwt>
<pdfrwt beam="2">  1       21 0.43698717E-01 0.17996185E+03</pdfrwt>
<totfact> 0.10753411E+05</totfact>
</mgrwt>
</event>
<event>
12    1  0.1441827E-001  0.1996529E+03  0.7546771E-02  0.1150344E+00
         21   -1    0    0  504  503  0.00000000000E+00  0.00000000000E+00  0.46698554192E+02  0.46698554192E+02  0.00000000000E+00 0. -1.
         21   -1    0    0  502  504 -0.00000000000E+00 -0.00000000000E+00 -0.86181207490E+03  0.86181207490E+03  0.00000000000E+00 0. -1.
          6    2    1    2  502    0  0.95517841165E+02 -0.21294194181E+02 -0.46794722074E+03  0.50875916398E+03  0.17402351809E+03 0.  0.
         24    2    3    3    0    0  0.12316763179E+03 -0.93041099521E+01 -0.44943624144E+03  0.47307976662E+03  0.80961092367E+02 0.  0.
         -6    2    1    2    0  503 -0.95517841165E+02  0.21294194181E+02 -0.34716629996E+03  0.39975146511E+03  0.17233598969E+03 0.  0.
        -24    2    5    5    0    0 -0.81871711038E+02 -0.39647891874E+02 -0.15103128570E+03  0.19386025951E+03  0.80600363284E+02 0.  0.
          2    1    4    4  501    0  0.13289491378E+03 -0.15290957721E+02 -0.38349797820E+03  0.40615953858E+03  0.00000000000E+00 0. -1.
         -1    1    4    4    0  501 -0.97272819863E+01  0.59868477684E+01 -0.65938263248E+02  0.66920228042E+02  0.00000000000E+00 0.  1.
          5    1    3    3  502    0 -0.27649790627E+02 -0.11990084229E+02 -0.18510979299E+02  0.35679397363E+02  0.47000000000E+01 0. -1.
         11    1    6    6    0    0 -0.82301793087E+02 -0.19057664718E+02 -0.15127350866E+03  0.17326411675E+03  0.00000000000E+00 0. -1.
        -12    1    6    6    0    0  0.43008204934E+00 -0.20590227156E+02  0.24222296386E+00  0.20596142767E+02  0.00000000000E+00 0.  1.
         -5    1    5    5    0  503 -0.13646130127E+02  0.60942086056E+02 -0.19613501427E+03  0.20589120560E+03  0.47000000000E+01 0.  1.
<mgrwt>
<rscale>  2 0.19928460E+03</rscale>
<asrwt>0</asrwt>
<pdfrwt beam="1">  1       21 0.71843924E-02 0.19965291E+03</pdfrwt>
<pdfrwt beam="2">  1       21 0.13258648E+00 0.19965291E+03</pdfrwt>
<totfact> 0.59255059E+04</totfact>
</mgrwt>
</event>
<event>
12    1  0.1441827E-001  0.2115785E+03  0.7546771E-02  0.1140506E+00
         21   -1    0    0  504  503  0.00000000000E+00  0.00000000000E+00  0.38918554818E+03  0.38918554818E+03  0.00000000000E+00 0.  1.
         21   -1    0    0  502  504 -0.00000000000E+00 -0.00000000000E+00 -0.19261892576E+03  0.19261892576E+03  0.00000000000E+00 0. -1.
          6    2    1    2  502    0  0.90296817073E+02  0.83884836871E+02 -0.86825451383E+02  0.22870093439E+03  0.17197464160E+03 0.  0.
         24    2    3    3    0    0  0.92188042894E+02  0.21468326563E+02 -0.10559466641E+03  0.16332684987E+03  0.81030253722E+02 0.  0.
         -6    2    1    2    0  503 -0.90296817073E+02 -0.83884836871E+02  0.28339207381E+03  0.35310353955E+03  0.17082406481E+03 0.  0.
        -24    2    5    5    0    0 -0.90238152877E+02 -0.12149740850E+03  0.21381939582E+03  0.27387503137E+03  0.79901528596E+02 0.  0.
          4    1    4    4  501    0  0.33035593824E+02 -0.30728429179E+02 -0.46223992267E+02  0.64592911997E+02  0.00000000000E+00 0. -1.
         -3    1    4    4    0  501  0.59152449070E+02  0.52196755743E+02 -0.59370674139E+02  0.98733937877E+02  0.00000000000E+00 0.  1.
          5    1    3    3  502    0 -0.18912258207E+01  0.62416510307E+02  0.18769215023E+02  0.65374084518E+02  0.47000000000E+01 0. -1.
         11    1    6    6    0    0 -0.66738022726E+01 -0.67860898638E+02  0.60212361191E+02  0.90967959419E+02  0.00000000000E+00 0. -1.
        -12    1    6    6    0    0 -0.83564350604E+02 -0.53636509866E+02  0.15360703463E+03  0.18290707195E+03  0.00000000000E+00 0.  1.
         -5    1    5    5    0  503 -0.58664196365E-01  0.37612571634E+02  0.69572677985E+02  0.79228508180E+02  0.47000000000E+01 0.  1.
<mgrwt>
<rscale>  2 0.21134457E+03</rscale>
<asrwt>0</asrwt>
<pdfrwt beam="1">  1       21 0.59874700E-01 0.21157849E+03</pdfrwt>
<pdfrwt beam="2">  1       21 0.29633681E-01 0.21157849E+03</pdfrwt>
<totfact> 0.28112402E+04</totfact>
</mgrwt>
</event>
<event>
12    1  0.1441827E-001  0.2488047E+03  0.7546771E-02  0.1114919E+00
         21   -1    0    0  504  503  0.00000000000E+00  0.00000000000E+00  0.23924835648E+03  0.23924835648E+03  0.00000000000E+00 0. -1.
         21   -1    0    0  502  504 -0.00000000000E+00 -0.00000000000E+00 -0.49116747977E+03  0.49116747977E+03  0.00000000000E+00 0. -1.
          6    2    1    2  502    0  0.92060309258E+00  0.18006853430E+03  0.12751674311E+03  0.27957879066E+03  0.17169232907E+03 0.  0.
         24    2    3    3    0    0  0.27067444714E+02  0.17454239405E+02  0.50867580008E+02  0.97853034549E+02  0.77138891865E+02 0.  0.
         -6    2    1    2    0  503 -0.92060309258E+00 -0.18006853430E+03 -0.37943586640E+03  0.45083704559E+03  0.16388087262E+03 0.  0.
        -24    2    5    5    0    0 -0.43772047853E+02 -0.14304667851E+03 -0.19761680602E+03  0.26034524828E+03  0.79679996699E+02 0.  0.
          4    1    4    4  501    0  0.39106856540E+02  0.41116963710E+02  0.30736281265E+02  0.64534253844E+02  0.00000000000E+00 0. -1.
         -3    1    4    4    0  501 -0.12039411826E+02 -0.23662724305E+02  0.20131298742E+02  0.33318780705E+02  0.00000000000E+00 0.  1.
          5    1    3    3  502    0 -0.26146841621E+02  0.16261429489E+03  0.76649163100E+02  0.18172575611E+03  0.47000000000E+01 0. -1.
         11    1    6    6    0    0  0.12854432290E+02 -0.38535333318E+02 -0.16805899195E+02  0.43961876565E+02  0.00000000000E+00 0. -1.
        -12    1    6    6    0    0 -0.56626480143E+02 -0.10451134520E+03 -0.18081090682E+03  0.21638337171E+03  0.00000000000E+00 0.  1.
         -5    1    5    5    0  503  0.42851444761E+02 -0.37021855781E+02 -0.18181906038E+03  0.19049179731E+03  0.47000000000E+01 0.  1.
<mgrwt>
<rscale>  2 0.24746269E+03</rscale>
<asrwt>0</asrwt>
<pdfrwt beam="1">  1       21 0.36807440E-01 0.24880470E+03</pdfrwt>
<pdfrwt beam="2">  1       21 0.75564227E-01 0.24880470E+03</pdfrwt>
<totfact> 0.10749505E+04</totfact>
</mgrwt>
</event>
<event>
12    1  0.1441827E-001  0.2059516E+03  0.7546771E-02  0.1146881E+00
         21   -1    0    0  504  503  0.00000000000E+00  0.00000000000E+00  0.64183069324E+03  0.64183069324E+03  0.00000000000E+00 0.  1.
         21   -1    0    0  502  504 -0.00000000000E+00 -0.00000000000E+00 -0.83330532609E+02  0.83330532609E+02  0.00000000000E+00 0. -1.
          6    2    1    2  502    0  0.36872879203E+02  0.10836615185E+03  0.94732182152E+02  0.21771979201E+03  0.15913795716E+03 0.  0.
         24    2    3    3    0    0  0.49330544030E+02  0.12662531622E+03  0.46948271453E+02  0.16486165528E+03  0.80670638442E+02 0.  0.
         -6    2    1    2    0  503 -0.36872879203E+02 -0.10836615185E+03  0.46376797848E+03  0.50744143384E+03  0.17121109435E+03 0.  0.
        -24    2    5    5    0    0 -0.58644139778E+02 -0.88807024962E+02  0.18846557156E+03  0.23054785774E+03  0.79418009491E+02 0.  0.
          2    1    4    4  501    0  0.67550820471E+02  0.70588448692E+02  0.18539231443E+02  0.99446194183E+02  0.00000000000E+00 0. -1.
         -1    1    4    4    0  501 -0.18220276441E+02  0.56036867532E+02  0.28409040010E+02  0.65415461098E+02  0.00000000000E+00 0.  1.
          5    1    3    3  502    0 -0.12457664828E+02 -0.18259164369E+02  0.47783910699E+02  0.52858136726E+02  0.47000000000E+01 0. -1.
         11    1    6    6    0    0 -0.21427962731E+01 -0.51463708491E+02  0.33540744392E+02  0.61466140288E+02  0.00000000000E+00 0. -1.
        -12    1    6    6    0    0 -0.56501343505E+02 -0.37343316471E+02  0.15492482717E+03  0.16908171745E+03  0.00000000000E+00 0.  1.
         -5    1    5    5    0  503  0.21771260575E+02 -0.19559126892E+02  0.27530240692E+03  0.27689357610E+03  0.47000000000E+01 0.  1.
<mgrwt>
<rscale>  2 0.20342508E+03</rscale>
<asrwt>0</asrwt>
<pdfrwt beam="1">  1       21 0.98743180E-01 0.20595162E+03</pdfrwt>
<pdfrwt beam="2">  1       21 0.12820082E-01 0.20595162E+03</pdfrwt>
<totfact> 0.43782024E+04</totfact>
</mgrwt>
</event>
<event>
12    1  0.1441827E-001  0.1793046E+03  0.7546771E-02  0.1168770E+00
         21   -1    0    0  504  503  0.00000000000E+00  0.00000000000E+00  0.16379340945E+03  0.16379340945E+03  0.00000000000E+00 0. -1.
         21   -1    0    0  502  504 -0.00000000000E+00 -0.00000000000E+00 -0.19588860028E+03  0.19588860028E+03  0.00000000000E+00 0. -1.
          6    2    1    2  502    0 -0.39961807869E+02 -0.24136367313E+02 -0.28282321413E+02  0.18033689702E+03  0.17187785316E+03 0.  0.
         24    2    3    3    0    0 -0.16307903207E+01 -0.14501001631E+02  0.47417102689E+02  0.94811462275E+02  0.80795378740E+02 0.  0.
         -6    2    1    2    0  503  0.39961807869E+02  0.24136367313E+02 -0.38128694226E+01  0.17934511272E+03  0.17312025060E+03 0.  0.
        -24    2    5    5    0    0  0.23791693959E+02 -0.21225695137E+01  0.63746594002E+02  0.10493156929E+03  0.79852714316E+02 0.  0.
          4    1    4    4  501    0 -0.31929181054E+02 -0.14008042717E+02  0.53544176266E+02  0.63895826746E+02  0.00000000000E+00 0. -1.
         -3    1    4    4    0  501  0.30298390733E+02 -0.49295891419E+00 -0.61270735766E+01  0.30915635529E+02  0.00000000000E+00 0.  1.
          5    1    3    3  502    0 -0.38331017548E+02 -0.96353656822E+01 -0.75699424103E+02  0.85525434741E+02  0.47000000000E+01 0. -1.
         11    1    6    6    0    0 -0.66353464450E+01  0.32279128936E+02  0.43918472913E+02  0.54907214921E+02  0.00000000000E+00 0. -1.
        -12    1    6    6    0    0  0.30427040404E+02 -0.34401698450E+02  0.19828121090E+02  0.50024354368E+02  0.00000000000E+00 0.  1.
         -5    1    5    5    0  503  0.16170113910E+02  0.26258936827E+02 -0.67559463425E+02  0.74413543427E+02  0.47000000000E+01 0.  1.
<mgrwt>
<rscale>  2 0.17900401E+03</rscale>
<asrwt>0</asrwt>
<pdfrwt beam="1">  1       21 0.25198986E-01 0.17930458E+03</pdfrwt>
<pdfrwt beam="2">  1       21 0.30136708E-01 0.17930458E+03</pdfrwt>
<totfact> 0.15823959E+05</totfact>
</mgrwt>
</event>
<event>
12    1  0.1441827E-001  0.1983628E+03  0.7546771E-02  0.1151587E+00
         21   -1    0    0  504  503  0.00000000000E+00  0.00000000000E+00  0.10441624705E+04  0.10441624705E+04  0.00000000000E+00 0.  1.
         21   -1    0    0  502  504 -0.00000000000E+00 -0.00000000000E+00 -0.47276974987E+02  0.47276974987E+02  0.00000000000E+00 0.  1.
          6    2    1    2  502    0  0.84262190543E+02  0.40426601078E+02  0.24533686344E+03  0.31415369035E+03  0.17253387425E+03 0.  0.
         24    2    3    3    0    0  0.61581626773E+02  0.82875813261E+02  0.22414948138E+03  0.26135843728E+03  0.86049669115E+02 0.  0.
         -6    2    1    2    0  503 -0.84262190543E+02 -0.40426601078E+02  0.75154863203E+03  0.77728575510E+03  0.17496677384E+03 0.  0.
        -24    2    5    5    0    0 -0.65722819482E+02 -0.92183055952E+02  0.45845728835E+03  0.47904581036E+03  0.80527004008E+02 0.  0.
          4    1    4    4  501    0 -0.59042981089E+01  0.44371176120E+02  0.13927048891E+03  0.14628715285E+03  0.00000000000E+00 0. -1.
         -3    1    4    4    0  501  0.67485924882E+02  0.38504637140E+02  0.84878992465E+02  0.11507128443E+03  0.00000000000E+00 0.  1.
          5    1    3    3  502    0  0.22680563770E+02 -0.42449212183E+02  0.21187382067E+02  0.52795253070E+02  0.47000000000E+01 0. -1.
         13    1    6    6    0    0  0.57283561041E+01  0.77642016205E+01  0.92790538969E+02  0.93290840990E+02  0.00000000000E+00 0. -1.
        -14    1    6    6    0    0 -0.71451175586E+02 -0.99947257572E+02  0.36566674938E+03  0.38575496937E+03  0.00000000000E+00 0.  1.
         -5    1    5    5    0  503 -0.18539371061E+02  0.51756454874E+02  0.29309134368E+03  0.29823994474E+03  0.47000000000E+01 0.  1.
<mgrwt>
<rscale>  2 0.19782496E+03</rscale>
<asrwt>0</asrwt>
<pdfrwt beam="1">  1       21 0.16064036E+00 0.19836280E+03</pdfrwt>
<pdfrwt beam="2">  1       21 0.72733816E-02 0.19836280E+03</pdfrwt>
<totfact> 0.35124644E+04</totfact>
</mgrwt>
</event>
<event>
12    1  0.1441827E-001  0.1771010E+03  0.7546771E-02  0.1170779E+00
         21   -1    0    0  504  503  0.00000000000E+00  0.00000000000E+00  0.12352456669E+03  0.12352456669E+03  0.00000000000E+00 0. -1.
         21   -1    0    0  502  504 -0.00000000000E+00 -0.00000000000E+00 -0.46216862219E+03  0.46216862219E+03  0.00000000000E+00 0. -1.
          6    2    1    2  502    0  0.28191040464E+01  0.35025843803E+02 -0.36643225758E+03  0.40698570625E+03  0.17357997757E+03 0.  0.
         24    2    3    3    0    0  0.55141756957E+02  0.54066865859E+02 -0.18701562575E+03  0.21906913352E+03  0.83979769251E+02 0.  0.
         -6    2    1    2    0  503 -0.28191040464E+01 -0.35025843803E+02  0.27788202073E+02  0.17870748263E+03  0.17300122280E+03 0.  0.
        -24    2    5    5    0    0  0.60326687099E+02 -0.37544875793E+01  0.38856986837E+02  0.10722394148E+03  0.79584564123E+02 0.  0.
          4    1    4    4  501    0  0.64176451138E+01  0.63107709666E+02 -0.89706618982E+02  0.10986831517E+03  0.00000000000E+00 0. -1.
         -3    1    4    4    0  501  0.48724111843E+02 -0.90408438066E+01 -0.97309006770E+02  0.10920081836E+03  0.00000000000E+00 0.  1.
          5    1    3    3  502    0 -0.52322652911E+02 -0.19041022056E+02 -0.17941663183E+03  0.18791657272E+03  0.47000000000E+01 0. -1.
         13    1    6    6    0    0  0.37147497248E+02 -0.41421641398E+02  0.19667902013E+02  0.59012840107E+02  0.00000000000E+00 0. -1.
        -14    1    6    6    0    0  0.23179189851E+02  0.37667153819E+02  0.19189084824E+02  0.48211101371E+02  0.00000000000E+00 0.  1.
         -5    1    5    5    0  503 -0.63145791145E+02 -0.31271356224E+02 -0.11068784764E+02  0.71483541152E+02  0.47000000000E+01 0.  1.
<mgrwt>
<rscale>  2 0.17695903E+03</rscale>
<asrwt>0</asrwt>
<pdfrwt beam="1">  1       21 0.19003779E-01 0.17710100E+03</pdfrwt>
<pdfrwt beam="2">  1       21 0.71102866E-01 0.17710100E+03</pdfrwt>
<totfact> 0.45797587E+04</totfact>
</mgrwt>
</event>
<event>
12    1  0.1441827E-001  0.1800347E+03  0.7546771E-02  0.1168082E+00
         21   -1    0    0  504  503  0.00000000000E+00  0.00000000000E+00  0.42918542305E+03  0.42918542305E+03  0.00000000000E+00 0. -1.
         21   -1    0    0  502  504 -0.00000000000E+00 -0.00000000000E+00 -0.83552674238E+02  0.83552674238E+02  0.00000000000E+00 0.  1.
          6    2    1    2  502    0  0.48975724070E+02  0.44038481942E+01  0.91263890968E+02  0.20184543275E+03  0.17318910330E+03 0.  0.
         24    2    3    3    0    0  0.38888942162E+02  0.63850498031E+02  0.25480743606E+02  0.11248571128E+03  0.80090767415E+02 0.  0.
         -6    2    1    2    0  503 -0.48975724070E+02 -0.44038481942E+01  0.25436885784E+03  0.31089266453E+03  0.17185085857E+03 0.  0.
        -24    2    5    5    0    0 -0.27331507983E+02  0.64279859730E+02  0.12925719058E+03  0.16645948583E+03  0.78245941817E+02 0.  0.
          4    1    4    4  501    0  0.77553375592E+01  0.61706064067E+02 -0.12389688245E+02  0.63413626123E+02  0.00000000000E+00 0. -1.
         -3    1    4    4    0  501  0.31133604603E+02  0.21444339641E+01  0.37870431852E+02  0.49072085153E+02  0.00000000000E+00 0.  1.
          5    1    3    3  502    0  0.10086781908E+02 -0.59446649836E+02  0.65783147361E+02  0.89359721479E+02  0.47000000000E+01 0. -1.
         11    1    6    6    0    0  0.16947989325E+02 -0.81216716713E+01  0.14539378489E+02  0.23761090458E+02  0.00000000000E+00 0. -1.
        -12    1    6    6    0    0 -0.44279497308E+02  0.72401531401E+02  0.11471781209E+03  0.14269839537E+03  0.00000000000E+00 0.  1.
         -5    1    5    5    0  503 -0.21644216087E+02 -0.68683707924E+02  0.12511166726E+03  0.14443317870E+03  0.47000000000E+01 0.  1.
<mgrwt>
<rscale>  2 0.17971205E+03</rscale>
<asrwt>0</asrwt>
<pdfrwt beam="1">  1       21 0.66028526E-01 0.18003467E+03</pdfrwt>
<pdfrwt beam="2">  1       21 0.12854258E-01 0.18003467E+03</pdfrwt>
<totfact> 0.10976973E+05</totfact>
</mgrwt>
</event>
<event>
12    1  0.1441827E-001  0.2268448E+03  0.7546771E-02  0.1129926E+00
         21   -1    0    0  504  503  0.00000000000E+00  0.00000000000E+00  0.27032268435E+03  0.27032268435E+03  0.00000000000E+00 0.  1.
         21   -1    0    0  502  504 -0.00000000000E+00 -0.00000000000E+00 -0.22823640502E+03  0.22823640502E+03  0.00000000000E+00 0.  1.
          6    2    1    2  502    0 -0.21803995934E+02  0.13642473768E+03 -0.86521838312E+02  0.24278505470E+03  0.17992062414E+03 0.  0.
         24    2    3    3    0    0  0.30380331664E+02  0.94804183782E+02 -0.11370257522E+03  0.17056070277E+03  0.79068830148E+02 0.  0.
         -6    2    1    2    0  503  0.21803995934E+02 -0.13642473768E+03  0.12860811764E+03  0.25577403468E+03  0.17260702652E+03 0.  0.
        -24    2    5    5    0    0  0.47608071198E+02 -0.79921534461E+02  0.14684623132E+03  0.19086501323E+03  0.78814069233E+02 0.  0.
          2    1    4    4  501    0  0.11735404652E+02  0.89511778710E+02 -0.48381347458E+02  0.10242476767E+03  0.00000000000E+00 0. -1.
         -1    1    4    4    0  501  0.18644927012E+02  0.52924050718E+01 -0.65321227765E+02  0.68135935096E+02  0.00000000000E+00 0.  1.
          5    1    3    3  502    0 -0.52184327597E+02  0.41620553893E+02  0.27180736912E+02  0.72224351934E+02  0.47000000000E+01 0. -1.
         13    1    6    6    0    0  0.24694404283E+02  0.11518053226E+02  0.26672268368E+02  0.38129897101E+02  0.00000000000E+00 0. -1.
        -14    1    6    6    0    0  0.22913666915E+02 -0.91439587687E+02  0.12017396296E+03  0.15273511613E+03  0.00000000000E+00 0.  1.
         -5    1    5    5    0  503 -0.25804075264E+02 -0.56503203215E+02 -0.18238113683E+02  0.64909021441E+02  0.47000000000E+01 0.  1.
<mgrwt>
<rscale>  2 0.22539192E+03</rscale>
<asrwt>0</asrwt>
<pdfrwt beam="1">  1       21 0.41588105E-01 0.22684478E+03</pdfrwt>
<pdfrwt beam="2">  1       21 0.35113293E-01 0.22684478E+03</pdfrwt>
<totfact> 0.42810901E+04</totfact>
</mgrwt>
</event>
<event>
12    1  0.1441827E-001  0.1888922E+03  0.7546771E-02  0.1159914E+00
         21   -1    0    0  504  503  0.00000000000E+00  0.00000000000E+00  0.62313254578E+03  0.62313254578E+03  0.00000000000E+00 0. -1.
         21   -1    0    0  502  504 -0.00000000000E+00 -0.00000000000E+00 -0.25515921815E+03  0.25515921815E+03  0.00000000000E+00 0.  1.
          6    2    1    2  502    0 -0.50302867080E+02 -0.52498977620E+02 -0.20312497024E+03  0.27738063382E+03  0.17433800903E+03 0.  0.
         24    2    3    3    0    0  0.37615594962E+01 -0.49008061508E+02 -0.20227800364E+03  0.22299353913E+03  0.79961167524E+02 0.  0.
         -6    2    1    2    0  503  0.50302867080E+02  0.52498977620E+02  0.57109829787E+03  0.60091113011E+03  0.17220452773E+03 0.  0.
        -24    2    5    5    0    0  0.40517655121E+02  0.50094809424E+02  0.57845473474E+03  0.58757930498E+03  0.80550538069E+02 0.  0.
          4    1    4    4  501    0  0.41128533747E+02 -0.19591033258E+02 -0.11303735296E+03  0.12187209704E+03  0.00000000000E+00 0. -1.
         -3    1    4    4    0  501 -0.37366974250E+02 -0.29417028250E+02 -0.89240650680E+02  0.10112144209E+03  0.00000000000E+00 0.  1.
          5    1    3    3  502    0 -0.54064426577E+02 -0.34909161119E+01 -0.84696660116E+00  0.54387094690E+02  0.47000000000E+01 0. -1.
         11    1    6    6    0    0 -0.37841156911E+01  0.30354886998E+02  0.64992233112E+02  0.71831254069E+02  0.00000000000E+00 0. -1.
        -12    1    6    6    0    0  0.44301770812E+02  0.19739922425E+02  0.51346250163E+03  0.51574805091E+03  0.00000000000E+00 0.  1.
         -5    1    5    5    0  503  0.97852119593E+01  0.24041681964E+01 -0.73564368744E+01  0.13331825130E+02  0.47000000000E+01 0.  1.
<mgrwt>
<rscale>  2 0.18839844E+03</rscale>
<asrwt>0</asrwt>
<pdfrwt beam="1">  1       21 0.95866545E-01 0.18889220E+03</pdfrwt>
<pdfrwt beam="2">  1       21 0.39255264E-01 0.18889220E+03</pdfrwt>
<totfact> 0.56901645E+03</totfact>
</mgrwt>
</event>
<event>
12    1  0.1441827E-001  0.2732257E+03  0.7546771E-02  0.1099530E+00
         21   -1    0    0  504  503  0.00000000000E+00  0.00000000000E+00  0.12652640090E+04  0.12652640090E+04  0.00000000000E+00 0.  1.
         21   -1    0    0  502  504 -0.00000000000E+00 -0.00000000000E+00 -0.78733673259E+02  0.78733673259E+02  0.00000000000E+00 0.  1.
          6    2    1    2  502    0 -0.16887540347E+03 -0.12669101908E+03  0.93028018709E+03  0.96940933646E+03  0.17252164768E+03 0.  0.
         24    2    3    3    0    0 -0.14611373572E+03 -0.95233637056E+02  0.90321206351E+03  0.92184428924E+03  0.59884827322E+02 0.  0.
         -6    2    1    2    0  503  0.16887540347E+03  0.12669101908E+03  0.25625014864E+03  0.37458834579E+03  0.17344386385E+03 0.  0.
        -24    2    5    5    0    0  0.35458296759E+02  0.10385702015E+03  0.14898327224E+03  0.20181743202E+03  0.80564812529E+02 0.  0.
          2    1    4    4  501    0 -0.37150188722E+02 -0.58524163319E+02  0.35479487785E+03  0.36150327739E+03  0.00000000000E+00 0. -1.
         -1    1    4    4    0  501 -0.10896354699E+03 -0.36709473737E+02  0.54841718566E+03  0.56034101185E+03  0.00000000000E+00 0.  1.
          5    1    3    3  502    0 -0.22761667751E+02 -0.31457382028E+02  0.27068123573E+02  0.47565047216E+02  0.47000000000E+01 0. -1.
         11    1    6    6    0    0  0.23243371642E+02  0.58775625950E+01  0.10988412778E+01  0.24000156655E+02  0.00000000000E+00 0. -1.
        -12    1    6    6    0    0  0.12214925117E+02  0.97979457551E+02  0.14788443096E+03  0.17781727537E+03  0.00000000000E+00 0.  1.
         -5    1    5    5    0  503  0.13341710671E+03  0.22833998938E+02  0.10726687640E+03  0.17277091376E+03  0.47000000000E+01 0.  1.
<mgrwt>
<rscale>  2 0.27307947E+03</rscale>
<asrwt>0</asrwt>
<pdfrwt beam="1">  1       21 0.19465599E+00 0.27322571E+03</pdfrwt>
<pdfrwt beam="2">  1       21 0.12112874E-01 0.27322571E+03</pdfrwt>
<totfact> 0.79073368E+03</totfact>
</mgrwt>
</event>
<event>
12    1  0.1441827E-001  0.1884583E+03  0.7546771E-02  0.1162059E+00
         21   -1    0    0  504  503  0.00000000000E+00  0.00000000000E+00  0.13333306293E+04  0.13333306293E+04  0.00000000000E+00 0.  1.
         21   -1    0    0  502  504 -0.00000000000E+00 -0.00000000000E+00 -0.80032576972E+02  0.80032576972E+02  0.00000000000E+00 0.  1.
          6    2    1    2  502    0 -0.11890445004E+02 -0.41642390962E+02  0.47513907742E+02  0.19435565109E+03  0.18341503830E+03 0.  0.
         24    2    3    3    0    0 -0.71202912319E+02 -0.48221618536E+02 -0.60339041395E+00  0.11755318110E+03  0.80144913067E+02 0.  0.
         -6    2    1    2    0  503  0.11890445004E+02  0.41642390962E+02  0.12057841446E+04  0.12190075552E+04  0.17374851034E+03 0.  0.
        -24    2    5    5    0    0 -0.31773951687E+02 -0.31063433603E+02  0.74779672439E+03  0.75321008468E+03  0.78428118350E+02 0.  0.
          4    1    4    4  501    0 -0.63406026548E+02 -0.46932032685E+02  0.31163479933E+02  0.84818054541E+02  0.00000000000E+00 0. -1.
         -3    1    4    4    0  501 -0.77968857707E+01 -0.12895858510E+01 -0.31766870347E+02  0.32735126562E+02  0.00000000000E+00 0.  1.
          5    1    3    3  502    0  0.59312467315E+02  0.65792275737E+01  0.48117298156E+02  0.76802469988E+02  0.47000000000E+01 0. -1.
         13    1    6    6    0    0 -0.27347689325E+02 -0.22324249883E+01  0.76361823553E+02  0.81141899960E+02  0.00000000000E+00 0. -1.
        -14    1    6    6    0    0 -0.44262623622E+01 -0.28831008615E+02  0.67143490084E+03  0.67206818472E+03  0.00000000000E+00 0.  1.
         -5    1    5    5    0  503  0.43664396691E+02  0.72705824565E+02  0.45798742021E+03  0.46579747051E+03  0.47000000000E+01 0.  1.
<mgrwt>
<rscale>  2 0.18606461E+03</rscale>
<asrwt>0</asrwt>
<pdfrwt beam="1">  1       21 0.20512777E+00 0.18845834E+03</pdfrwt>
<pdfrwt beam="2">  1       21 0.12312705E-01 0.18845834E+03</pdfrwt>
<totfact> 0.70053199E+03</totfact>
</mgrwt>
</event>
<event>
12    1  0.1441827E-001  0.2214223E+03  0.7546771E-02  0.1133416E+00
         21   -1    0    0  504  503  0.00000000000E+00  0.00000000000E+00  0.19214505338E+03  0.19214505338E+03  0.00000000000E+00 0. -1.
         21   -1    0    0  502  504 -0.00000000000E+00 -0.00000000000E+00 -0.27864821853E+03  0.27864821853E+03  0.00000000000E+00 0. -1.
          6    2    1    2  502    0  0.95364746543E+02 -0.95104241749E+02 -0.11696536830E+03  0.25041713467E+03  0.17575150716E+03 0.  0.
         24    2    3    3    0    0  0.86764541193E+02 -0.27189390629E+02 -0.76920095170E+01  0.12138555917E+03  0.80049599580E+02 0.  0.
         -6    2    1    2    0  503 -0.95364746543E+02  0.95104241749E+02  0.30462203150E+02  0.22037613724E+03  0.17175111168E+03 0.  0.
        -24    2    5    5    0    0 -0.67026056453E+02  0.15671639695E+02  0.71258532892E+02  0.12657288492E+03  0.78770706190E+02 0.  0.
          4    1    4    4  501    0  0.28269424809E+02 -0.44683912201E+02 -0.24181928460E+02  0.58142738607E+02  0.00000000000E+00 0. -1.
         -3    1    4    4    0  501  0.58495116383E+02  0.17494521572E+02  0.16489918943E+02  0.63242820561E+02  0.00000000000E+00 0.  1.
          5    1    3    3  502    0  0.86002053501E+01 -0.67914851121E+02 -0.10927335879E+03  0.12903157550E+03  0.47000000000E+01 0. -1.
         13    1    6    6    0    0 -0.71292763120E+02 -0.15598800161E+02  0.47618358223E+02  0.87140625884E+02  0.00000000000E+00 0. -1.
        -14    1    6    6    0    0  0.42667066664E+01  0.31270439856E+02  0.23640174669E+02  0.39432259039E+02  0.00000000000E+00 0.  1.
         -5    1    5    5    0  503 -0.28338690090E+02  0.79432602054E+02 -0.40796329741E+02  0.93803252318E+02  0.47000000000E+01 0.  1.
<mgrwt>
<rscale>  2 0.22062763E+03</rscale>
<asrwt>0</asrwt>
<pdfrwt beam="1">  1       21 0.29560777E-01 0.22142232E+03</pdfrwt>
<pdfrwt beam="2">  1       21 0.42868957E-01 0.22142232E+03</pdfrwt>
<totfact> 0.56642021E+04</totfact>
</mgrwt>
</event>
<event>
12    1  0.1441827E-001  0.2978103E+03  0.7546771E-02  0.1086952E+00
         21   -1    0    0  504  503  0.00000000000E+00  0.00000000000E+00  0.20058054007E+03  0.20058054007E+03  0.00000000000E+00 0. -1.
         21   -1    0    0  502  504 -0.00000000000E+00 -0.00000000000E+00 -0.62768544757E+03  0.62768544757E+03  0.00000000000E+00 0.  1.
          6    2    1    2  502    0  0.19180652491E+03  0.14796027986E+03 -0.44416943179E+03  0.53476859357E+03  0.17323099352E+03 0.  0.
         24    2    3    3    0    0  0.11360846976E+03  0.33849752364E+02 -0.31413392665E+03  0.34485421573E+03  0.78686822880E+02 0.  0.
         -6    2    1    2    0  503 -0.19180652491E+03 -0.14796027986E+03  0.17064524296E+02  0.29349739407E+03  0.16482577141E+03 0.  0.
        -24    2    5    5    0    0 -0.42297384656E+02 -0.10058846154E+03  0.18628085870E+02  0.13658465744E+03  0.80007847874E+02 0.  0.
          4    1    4    4  501    0  0.21312179785E+02 -0.24540013705E+02 -0.85643464017E+02  0.91603625521E+02  0.00000000000E+00 0. -1.
         -3    1    4    4    0  501  0.92296289976E+02  0.58389766068E+02 -0.22849046263E+03  0.25325059020E+03  0.00000000000E+00 0.  1.
          5    1    3    3  502    0  0.78198055152E+02  0.11411052750E+03 -0.13003550514E+03  0.18991437785E+03  0.47000000000E+01 0. -1.
         13    1    6    6    0    0 -0.46131335241E+02 -0.58122402064E+02  0.44679371921E+02  0.86617319215E+02  0.00000000000E+00 0. -1.
        -14    1    6    6    0    0  0.38339505853E+01 -0.42466059476E+02 -0.26051286050E+02  0.49967338226E+02  0.00000000000E+00 0.  1.
         -5    1    5    5    0  503 -0.14950914026E+03 -0.47371818320E+02 -0.15635615745E+01  0.15691273663E+03  0.47000000000E+01 0.  1.
<mgrwt>
<rscale>  2 0.29660058E+03</rscale>
<asrwt>0</asrwt>
<pdfrwt beam="1">  1       21 0.30858545E-01 0.29781028E+03</pdfrwt>
<pdfrwt beam="2">  1       21 0.96566992E-01 0.29781028E+03</pdfrwt>
<totfact> 0.84471786E+03</totfact>
</mgrwt>
</event>
<event>
12    1  0.1441827E-001  0.1860803E+03  0.7546771E-02  0.1162116E+00
         21   -1    0    0  504  503  0.00000000000E+00  0.00000000000E+00  0.49968595916E+02  0.49968595916E+02  0.00000000000E+00 0. -1.
         21   -1    0    0  502  504 -0.00000000000E+00 -0.00000000000E+00 -0.71048581537E+03  0.71048581537E+03  0.00000000000E+00 0. -1.
          6    2    1    2  502    0  0.52583840306E+01  0.67320471417E+02 -0.39163243761E+03  0.43346069296E+03  0.17306793370E+03 0.  0.
         24    2    3    3    0    0  0.22530738816E+02  0.47409681617E+02 -0.92136917608E+02  0.13277076913E+03  0.79897142914E+02 0.  0.
         -6    2    1    2    0  503 -0.52583840306E+01 -0.67320471417E+02 -0.26888478184E+03  0.32699371833E+03  0.17339599028E+03 0.  0.
        -24    2    5    5    0    0  0.34757383210E+01 -0.16974784402E+02 -0.41037441149E+02  0.93439712252E+02  0.82138201753E+02 0.  0.
          2    1    4    4  501    0  0.48938350372E+02  0.23359574767E+02 -0.76523122701E+02  0.93789232742E+02  0.00000000000E+00 0. -1.
         -1    1    4    4    0  501 -0.26407611556E+02  0.24050106849E+02 -0.15613794908E+02  0.38981536386E+02  0.00000000000E+00 0.  1.
          5    1    3    3  502    0 -0.17272354785E+02  0.19910789800E+02 -0.29949552000E+03  0.30068992383E+03  0.47000000000E+01 0. -1.
         13    1    6    6    0    0  0.27017101408E+02 -0.40940099805E+02 -0.32291996545E+02  0.58726387437E+02  0.00000000000E+00 0. -1.
        -14    1    6    6    0    0 -0.23541363087E+02  0.23965315403E+02 -0.87454446044E+01  0.34713324815E+02  0.00000000000E+00 0.  1.
         -5    1    5    5    0  503 -0.87341223517E+01 -0.50345687014E+02 -0.22784734069E+03  0.23355400607E+03  0.47000000000E+01 0.  1.
<mgrwt>
<rscale>  2 0.18600381E+03</rscale>
<asrwt>0</asrwt>
<pdfrwt beam="1">  1       21 0.76874765E-02 0.18608027E+03</pdfrwt>
<pdfrwt beam="2">  1       21 0.10930551E+00 0.18608027E+03</pdfrwt>
<totfact> 0.85539309E+04</totfact>
</mgrwt>
</event>
<event>
12    1  0.1441827E-001  0.1978223E+03  0.7546771E-02  0.1151932E+00
         21   -1    0    0  504  503  0.00000000000E+00  0.00000000000E+00  0.12482326639E+03  0.12482326639E+03  0.00000000000E+00 0. -1.
         21   -1    0    0  502  504 -0.00000000000E+00 -0.00000000000E+00 -0.49136016911E+03  0.49136016911E+03  0.00000000000E+00 0. -1.
          6    2    1    2  502    0  0.69002910015E+02  0.65987285099E+02 -0.36946210632E+03  0.41833952289E+03  0.17143507522E+03 0.  0.
         24    2    3    3    0    0  0.91234996101E+02 -0.10049872826E+01 -0.24296450034E+03  0.27340517731E+03  0.85987255084E+02 0.  0.
         -6    2    1    2    0  503 -0.69002910015E+02 -0.65987285099E+02  0.29252036072E+01  0.19784391261E+03  0.17325684274E+03 0.  0.
        -24    2    5    5    0    0 -0.56688690655E+01  0.27766269058E+02 -0.82514202255E+01  0.84054912354E+02  0.78702227295E+02 0.  0.
          2    1    4    4  501    0  0.10064123707E+03  0.17447789081E+02 -0.21953349325E+03  0.24213227501E+03  0.00000000000E+00 0. -1.
         -1    1    4    4    0  501 -0.94062409656E+01 -0.18452776363E+02 -0.23431007092E+02  0.31272902295E+02  0.00000000000E+00 0.  1.
          5    1    3    3  502    0 -0.22232086086E+02  0.66992272382E+02 -0.12649760598E+03  0.14493434558E+03  0.47000000000E+01 0. -1.
         11    1    6    6    0    0 -0.23408312965E+02  0.88633726035E+01  0.29229876685E+02  0.38482387930E+02  0.00000000000E+00 0. -1.
        -12    1    6    6    0    0  0.17739443899E+02  0.18902896455E+02 -0.37481296911E+02  0.45572524424E+02  0.00000000000E+00 0.  1.
         -5    1    5    5    0  503 -0.63334040950E+02 -0.93753554157E+02  0.11176623833E+02  0.11378900026E+03  0.47000000000E+01 0.  1.
<mgrwt>
<rscale>  2 0.19742268E+03</rscale>
<asrwt>0</asrwt>
<pdfrwt beam="1">  1       21 0.19203579E-01 0.19782229E+03</pdfrwt>
<pdfrwt beam="2">  1       21 0.75593872E-01 0.19782229E+03</pdfrwt>
<totfact> 0.38791536E+04</totfact>
</mgrwt>
</event>
<event>
12    1  0.1441827E-001  0.1786103E+03  0.7546771E-02  0.1169798E+00
         21   -1    0    0  504  503  0.00000000000E+00  0.00000000000E+00  0.26855300905E+03  0.26855300905E+03  0.00000000000E+00 0.  1.
         21   -1    0    0  502  504 -0.00000000000E+00 -0.00000000000E+00 -0.13208425284E+03  0.13208425284E+03  0.00000000000E+00 0.  1.
          6    2    1    2  502    0  0.16399633922E+02 -0.22721344796E+02  0.11226941260E+01  0.17861378775E+03  0.17639846153E+03 0.  0.
         24    2    3    3    0    0  0.42536376598E+02 -0.43064891459E+02  0.55561355235E+02  0.11471819298E+03  0.80057925239E+02 0.  0.
         -6    2    1    2    0  503 -0.16399633922E+02  0.22721344796E+02  0.13534606209E+03  0.22202347414E+03  0.17375459431E+03 0.  0.
        -24    2    5    5    0    0 -0.52601309341E+02 -0.15929766190E+02  0.27958931552E+02  0.10219628403E+03  0.81496769394E+02 0.  0.
          4    1    4    4  501    0 -0.45738015473E+01 -0.85842488016E+01  0.55491631590E+02  0.56337644294E+02  0.00000000000E+00 0. -1.
         -3    1    4    4    0  501  0.47110178146E+02 -0.34480642658E+02  0.69723644840E-01  0.58380548682E+02  0.00000000000E+00 0.  1.
          5    1    3    3  502    0 -0.26136742676E+02  0.20343546664E+02 -0.54438661109E+02  0.63895594777E+02  0.47000000000E+01 0. -1.
         13    1    6    6    0    0 -0.16379793094E+02 -0.40819840807E+02 -0.88546775182E+01  0.44866048849E+02  0.00000000000E+00 0. -1.
        -14    1    6    6    0    0 -0.36221516247E+02  0.24890074617E+02  0.36813609071E+02  0.57330235186E+02  0.00000000000E+00 0.  1.
         -5    1    5    5    0  503  0.36201675419E+02  0.38651110986E+02  0.10738713053E+03  0.11982719010E+03  0.47000000000E+01 0.  1.
<mgrwt>
<rscale>  2 0.17795399E+03</rscale>
<asrwt>0</asrwt>
<pdfrwt beam="1">  1       21 0.41315848E-01 0.17861026E+03</pdfrwt>
<pdfrwt beam="2">  1       21 0.20320654E-01 0.17861026E+03</pdfrwt>
<totfact> 0.12702008E+05</totfact>
</mgrwt>
</event>
<event>
12    1  0.1441827E-001  0.2686260E+03  0.7546771E-02  0.1102592E+00
         21   -1    0    0  504  503  0.00000000000E+00  0.00000000000E+00  0.72694344899E+02  0.72694344899E+02  0.00000000000E+00 0. -1.
         21   -1    0    0  502  504 -0.00000000000E+00 -0.00000000000E+00 -0.12114114600E+04  0.12114114600E+04  0.00000000000E+00 0.  1.
          6    2    1    2  502    0 -0.76639802347E+01 -0.20327478866E+03 -0.84725199808E+03  0.88773244647E+03  0.16986339208E+03 0.  0.
         24    2    3    3    0    0  0.58015088148E+02 -0.11773402714E+03 -0.56284322596E+03  0.58352626382E+03  0.80519264521E+02 0.  0.
         -6    2    1    2    0  503  0.76639802347E+01  0.20327478866E+03 -0.29146511706E+03  0.39637335846E+03  0.17544386151E+03 0.  0.
        -24    2    5    5    0    0 -0.81293405465E+01  0.22126745298E+03 -0.22505283351E+03  0.32562135244E+03  0.79718977449E+02 0.  0.
          4    1    4    4  501    0  0.25398025752E+02  0.43270051936E+01 -0.65474352759E+02  0.70361022983E+02  0.00000000000E+00 0. -1.
         -3    1    4    4    0  501  0.32617062396E+02 -0.12206103233E+03 -0.49736887320E+03  0.51316524084E+03  0.00000000000E+00 0.  1.
          5    1    3    3  502    0 -0.65679068382E+02 -0.85540761519E+02 -0.28440877212E+03  0.30420618265E+03  0.47000000000E+01 0. -1.
         13    1    6    6    0    0 -0.36793987834E+02  0.15072804252E+03 -0.12138029415E+03  0.19699217282E+03  0.00000000000E+00 0. -1.
        -14    1    6    6    0    0  0.28664647287E+02  0.70539410458E+02 -0.10367253936E+03  0.12862917962E+03  0.00000000000E+00 0.  1.
         -5    1    5    5    0  503  0.15793320781E+02 -0.17992664322E+02 -0.66412283549E+02  0.70752006027E+02  0.47000000000E+01 0.  1.
<mgrwt>
<rscale>  2 0.26771866E+03</rscale>
<asrwt>0</asrwt>
<pdfrwt beam="1">  1       21 0.11183747E-01 0.26862599E+03</pdfrwt>
<pdfrwt beam="2">  1       21 0.18637096E+00 0.26862599E+03</pdfrwt>
<totfact> 0.10399580E+04</totfact>
</mgrwt>
</event>
<event>
12    1  0.1441827E-001  0.1793413E+03  0.7546771E-02  0.1169386E+00
         21   -1    0    0  504  503  0.00000000000E+00  0.00000000000E+00  0.14544106149E+03  0.14544106149E+03  0.00000000000E+00 0.  1.
         21   -1    0    0  502  504 -0.00000000000E+00 -0.00000000000E+00 -0.23662881015E+03  0.23662881015E+03  0.00000000000E+00 0.  1.
          6    2    1    2  502    0  0.30183772123E+02 -0.14030243662E+02 -0.10184696114E+03  0.20624285727E+03  0.17622543756E+03 0.  0.
         24    2    3    3    0    0 -0.70532388771E+01  0.54595203050E+02 -0.76150294493E+02  0.12391148050E+03  0.80776254388E+02 0.  0.
         -6    2    1    2    0  503 -0.30183772123E+02  0.14030243662E+02  0.10659212489E+02  0.17582701437E+03  0.17231834590E+03 0.  0.
        -24    2    5    5    0    0  0.12389236284E+01  0.41919016939E+02  0.47012553489E+02  0.12007017725E+03  0.10221510831E+03 0.  0.
          4    1    4    4  501    0  0.27222611820E+02  0.55530357809E+02 -0.59401176395E+02  0.85750749208E+02  0.00000000000E+00 0. -1.
         -3    1    4    4    0  501 -0.34275850697E+02 -0.93515475963E+00 -0.16749118098E+02  0.38160731289E+02  0.00000000000E+00 0.  1.
          5    1    3    3  502    0  0.37237011001E+02 -0.68625446711E+02 -0.25696666652E+02  0.82331376775E+02  0.47000000000E+01 0. -1.
         11    1    6    6    0    0 -0.24993535414E+02  0.37844717440E+02 -0.18807592762E+02  0.49098116013E+02  0.00000000000E+00 0. -1.
        -12    1    6    6    0    0  0.26232459042E+02  0.40742994993E+01  0.65820146251E+02  0.70972061237E+02  0.00000000000E+00 0.  1.
         -5    1    5    5    0  503 -0.31422695752E+02 -0.27888773277E+02 -0.36353341000E+02  0.55756837115E+02  0.47000000000E+01 0.  1.
<mgrwt>
<rscale>  2 0.17837411E+03</rscale>
<asrwt>0</asrwt>
<pdfrwt beam="1">  1       21 0.22375548E-01 0.17934133E+03</pdfrwt>
<pdfrwt beam="2">  1       21 0.36404432E-01 0.17934133E+03</pdfrwt>
<totfact> 0.13665851E+05</totfact>
</mgrwt>
</event>
<event>
12    1  0.1441827E-001  0.1765124E+03  0.7546771E-02  0.1171790E+00
         21   -1    0    0  504  503  0.00000000000E+00  0.00000000000E+00  0.40241831792E+03  0.40241831792E+03  0.00000000000E+00 0.  1.
         21   -1    0    0  502  504 -0.00000000000E+00 -0.00000000000E+00 -0.91180521671E+02  0.91180521671E+02  0.00000000000E+00 0.  1.
          6    2    1    2  502    0  0.19243079614E+02 -0.79856529934E+01  0.57196794544E+02  0.18554809634E+03  0.17527850975E+03 0.  0.
         24    2    3    3    0    0  0.29115211175E+02  0.35704002814E+02  0.90472434362E+02  0.12955163921E+03  0.80472942674E+02 0.  0.
         -6    2    1    2    0  503 -0.19243079614E+02  0.79856529934E+01  0.25404100170E+03  0.30805074325E+03  0.17298659805E+03 0.  0.
        -24    2    5    5    0    0  0.63061486836E+02  0.51173339367E+01  0.14596465653E+03  0.17209172259E+03  0.65627294626E+02 0.  0.
          2    1    4    4  501    0 -0.28154909679E+02  0.12454056219E+02  0.33371485919E+02  0.45403287632E+02  0.00000000000E+00 0. -1.
         -1    1    4    4    0  501  0.57270120854E+02  0.23249946595E+02  0.57100948443E+02  0.84148351573E+02  0.00000000000E+00 0.  1.
          5    1    3    3  502    0 -0.98721315614E+01 -0.43689655807E+02 -0.33275639819E+02  0.55996457133E+02  0.47000000000E+01 0. -1.
         13    1    6    6    0    0  0.22627473559E+02 -0.29460645050E+02  0.48988196012E+02  0.61479878943E+02  0.00000000000E+00 0. -1.
        -14    1    6    6    0    0  0.40434013277E+02  0.34577978987E+02  0.96976460522E+02  0.11061184365E+03  0.00000000000E+00 0.  1.
         -5    1    5    5    0  503 -0.82304566450E+02  0.28683190567E+01  0.10807634517E+03  0.13595902065E+03  0.47000000000E+01 0.  1.
<mgrwt>
<rscale>  2 0.17594070E+03</rscale>
<asrwt>0</asrwt>
<pdfrwt beam="1">  1       21 0.61910509E-01 0.17651239E+03</pdfrwt>
<pdfrwt beam="2">  1       21 0.14027773E-01 0.17651239E+03</pdfrwt>
<totfact> 0.10796467E+05</totfact>
</mgrwt>
</event>
<event>
12    1  0.1441827E-001  0.1936870E+03  0.7546771E-02  0.1155738E+00
         21   -1    0    0  504  503  0.00000000000E+00  0.00000000000E+00  0.56229198157E+03  0.56229198157E+03  0.00000000000E+00 0.  1.
         21   -1    0    0  502  504 -0.00000000000E+00 -0.00000000000E+00 -0.19555176439E+03  0.19555176439E+03  0.00000000000E+00 0. -1.
          6    2    1    2  502    0  0.74856872612E+02 -0.40457241276E+02 -0.12482055688E+03  0.23042315471E+03  0.17399516964E+03 0.  0.
         24    2    3    3    0    0  0.96918704327E+02 -0.75133478059E+02 -0.11861623897E+03  0.18859314901E+03  0.80369701590E+02 0.  0.
         -6    2    1    2    0  503 -0.74856872612E+02  0.40457241276E+02  0.49156077406E+03  0.52742059126E+03  0.17117285339E+03 0.  0.
        -24    2    5    5    0    0 -0.45300485221E+02 -0.40997657669E+02  0.31419488523E+03  0.32996368680E+03  0.80154019270E+02 0.  0.
          2    1    4    4  501    0  0.75278642751E+02 -0.15739379014E+02 -0.92246347634E+02  0.12009991989E+03  0.00000000000E+00 0. -1.
         -1    1    4    4    0  501  0.21640061576E+02 -0.59394099045E+02 -0.26369891335E+02  0.68493229121E+02  0.00000000000E+00 0.  1.
          5    1    3    3  502    0 -0.22061831715E+02  0.34676236783E+02 -0.62043179114E+01  0.41830005699E+02  0.47000000000E+01 0. -1.
         11    1    6    6    0    0  0.21845921575E+02 -0.21810534926E+02  0.90305269425E+02  0.95435765880E+02  0.00000000000E+00 0. -1.
        -12    1    6    6    0    0 -0.67146406796E+02 -0.19187122743E+02  0.22388961580E+03  0.23452792092E+03  0.00000000000E+00 0.  1.
         -5    1    5    5    0  503 -0.29556387391E+02  0.81454898945E+02  0.17736588883E+03  0.19745690446E+03  0.47000000000E+01 0.  1.
<mgrwt>
<rscale>  2 0.19305105E+03</rscale>
<asrwt>0</asrwt>
<pdfrwt beam="1">  1       21 0.86506458E-01 0.19368701E+03</pdfrwt>
<pdfrwt beam="2">  1       21 0.30084887E-01 0.19368701E+03</pdfrwt>
<totfact> 0.12189835E+04</totfact>
</mgrwt>
</event>
<event>
12    1  0.1441827E-001  0.2821741E+03  0.7546771E-02  0.1095028E+00
         21   -1    0    0  504  503  0.00000000000E+00  0.00000000000E+00  0.54956540001E+03  0.54956540001E+03  0.00000000000E+00 0. -1.
         21   -1    0    0  502  504 -0.00000000000E+00 -0.00000000000E+00 -0.66900438573E+03  0.66900438573E+03  0.00000000000E+00 0.  1.
          6    2    1    2  502    0  0.20696262713E+03  0.79501737303E+02 -0.60009958154E+03  0.66313023343E+03  0.17455126312E+03 0.  0.
         24    2    3    3    0    0  0.20675923477E+03  0.63103108768E+02 -0.60299571745E+03  0.64582607238E+03  0.82195480438E+02 0.  0.
         -6    2    1    2    0  503 -0.20696262713E+03 -0.79501737303E+02  0.48066059581E+03  0.55543955231E+03  0.16829864123E+03 0.  0.
        -24    2    5    5    0    0 -0.14177948875E+03 -0.11052467277E+03  0.40734859059E+03  0.45244438658E+03  0.80348752138E+02 0.  0.
          4    1    4    4  501    0  0.44821699443E+02  0.49887853313E+02 -0.14211388173E+03  0.15714368594E+03  0.00000000000E+00 0. -1.
         -3    1    4    4    0  501  0.16193753532E+03  0.13215255455E+02 -0.46088183572E+03  0.48868238645E+03  0.00000000000E+00 0.  1.
          5    1    3    3  502    0  0.20339236072E+00  0.16398628535E+02  0.28961359115E+01  0.17304161046E+02  0.47000000000E+01 0. -1.
         11    1    6    6    0    0 -0.86458802179E+02 -0.18558490918E+02  0.15986171239E+03  0.18268910517E+03  0.00000000000E+00 0. -1.
        -12    1    6    6    0    0 -0.55320686573E+02 -0.91966181855E+02  0.24748687820E+03  0.26975528141E+03  0.00000000000E+00 0.  1.
         -5    1    5    5    0  503 -0.65183138376E+02  0.31022935470E+02  0.73312005221E+02  0.10299516573E+03  0.47000000000E+01 0.  1.
<mgrwt>
<rscale>  2 0.28121304E+03</rscale>
<asrwt>0</asrwt>
<pdfrwt beam="1">  1       21 0.84548524E-01 0.28217406E+03</pdfrwt>
<pdfrwt beam="2">  1       21 0.10292375E+00 0.28217406E+03</pdfrwt>
<totfact> 0.86096520E+02</totfact>
</mgrwt>
</event>
<event>
12    1  0.1441827E-001  0.3437061E+03  0.7546771E-02  0.1065265E+00
         21   -1    0    0  504  503  0.00000000000E+00  0.00000000000E+00  0.92250931970E+03  0.92250931970E+03  0.00000000000E+00 0. -1.
         21   -1    0    0  502  504 -0.00000000000E+00 -0.00000000000E+00 -0.13540496487E+03  0.13540496487E+03  0.00000000000E+00 0.  1.
          6    2    1    2  502    0  0.19180581649E+03 -0.22612773559E+03  0.26944413315E+03  0.43673105359E+03  0.17381210612E+03 0.  0.
         24    2    3    3    0    0  0.75983142968E+02 -0.31466382463E+02  0.69333713504E+02  0.13444938998E+03  0.80659180480E+02 0.  0.
         -6    2    1    2    0  503 -0.19180581649E+03  0.22612773559E+03  0.51766022168E+03  0.62118323098E+03  0.17312792178E+03 0.  0.
        -24    2    5    5    0    0 -0.15875393855E+03  0.10755097126E+03  0.40021012376E+03  0.45097896789E+03  0.80273668718E+02 0.  0.
          4    1    4    4  501    0  0.76034084512E+02  0.73254439567E+01  0.44947137837E+02  0.88628941867E+02  0.00000000000E+00 0. -1.
         -3    1    4    4    0  501 -0.50941544063E-01 -0.38791826420E+02  0.24386575668E+02  0.45820448108E+02  0.00000000000E+00 0.  1.
          5    1    3    3  502    0  0.11582267352E+03 -0.19466135313E+03  0.20011041965E+03  0.30228166361E+03  0.47000000000E+01 0. -1.
         11    1    6    6    0    0 -0.10996651682E+03  0.43153257194E+02  0.29891198664E+03  0.32140817380E+03  0.00000000000E+00 0. -1.
        -12    1    6    6    0    0 -0.48787421732E+02  0.64397714064E+02  0.10129813713E+03  0.12957079409E+03  0.00000000000E+00 0.  1.
         -5    1    5    5    0  503 -0.33051877935E+02  0.11857676434E+03  0.11745009792E+03  0.17020426310E+03  0.47000000000E+01 0.  1.
<mgrwt>
<rscale>  2 0.34361968E+03</rscale>
<asrwt>0</asrwt>
<pdfrwt beam="1">  1       21 0.14192451E+00 0.34370608E+03</pdfrwt>
<pdfrwt beam="2">  1       21 0.20831534E-01 0.34370608E+03</pdfrwt>
<totfact> 0.67505205E+03</totfact>
</mgrwt>
</event>
<event>
12    1  0.1441827E-001  0.2030652E+03  0.7546771E-02  0.1147260E+00
         21   -1    0    0  504  503  0.00000000000E+00  0.00000000000E+00  0.38712017032E+03  0.38712017032E+03  0.00000000000E+00 0.  1.
         21   -1    0    0  502  504 -0.00000000000E+00 -0.00000000000E+00 -0.15010939504E+03  0.15010939504E+03  0.00000000000E+00 0.  1.
          6    2    1    2  502    0 -0.81754184279E+02  0.63072562000E+02 -0.26507094629E+02  0.20478798397E+03  0.17485307428E+03 0.  0.
         24    2    3    3    0    0 -0.12403818358E+03  0.48085776412E+02 -0.38375950090E+02  0.15814572771E+03  0.76417568452E+02 0.  0.
         -6    2    1    2    0  503  0.81754184279E+02 -0.63072562000E+02  0.26351786990E+03  0.33244158140E+03  0.17439564948E+03 0.  0.
        -24    2    5    5    0    0  0.63613942598E+02 -0.65611519350E+02  0.70419101349E+02  0.13841905928E+03  0.76481245883E+02 0.  0.
          4    1    4    4  501    0 -0.46285886619E+02  0.41783289028E+02  0.14356597944E+02  0.63987017797E+02  0.00000000000E+00 0. -1.
         -3    1    4    4    0  501 -0.77752296959E+02  0.63024873841E+01 -0.52732548034E+02  0.94158709909E+02  0.00000000000E+00 0.  1.
          5    1    3    3  502    0  0.42283999299E+02  0.14986785588E+02  0.11868855461E+02  0.46642256259E+02  0.47000000000E+01 0. -1.
         11    1    6    6    0    0 -0.13290844125E+02 -0.23439067705E+01  0.26172098159E+02  0.29446887078E+02  0.00000000000E+00 0. -1.
        -12    1    6    6    0    0  0.76904786723E+02 -0.63267612579E+02  0.44247003190E+02  0.10897217220E+03  0.00000000000E+00 0.  1.
         -5    1    5    5    0  503  0.18140241681E+02  0.25389573497E+01  0.19309876855E+03  0.19402252212E+03  0.47000000000E+01 0.  1.
<mgrwt>
<rscale>  2 0.20296673E+03</rscale>
<asrwt>0</asrwt>
<pdfrwt beam="1">  1       21 0.59556949E-01 0.20306524E+03</pdfrwt>
<pdfrwt beam="2">  1       21 0.23093753E-01 0.20306524E+03</pdfrwt>
<totfact> 0.46127368E+04</totfact>
</mgrwt>
</event>
<event>
12    1  0.1441827E-001  0.2461675E+03  0.7546771E-02  0.1115814E+00
         21   -1    0    0  504  503  0.00000000000E+00  0.00000000000E+00  0.19538456680E+03  0.19538456680E+03  0.00000000000E+00 0.  1.
         21   -1    0    0  502  504 -0.00000000000E+00 -0.00000000000E+00 -0.42178196824E+03  0.42178196824E+03  0.00000000000E+00 0. -1.
          6    2    1    2  502    0  0.11421625439E+03  0.13350536467E+03 -0.27236821744E+03  0.36712790490E+03  0.17242220716E+03 0.  0.
         24    2    3    3    0    0  0.17317351013E+02  0.12327739509E+03 -0.18122279655E+03  0.23362289905E+03  0.78998418875E+02 0.  0.
         -6    2    1    2    0  503 -0.11421625439E+03 -0.13350536467E+03  0.45970816008E+02  0.25003863014E+03  0.17186321735E+03 0.  0.
        -24    2    5    5    0    0 -0.13376126255E+03 -0.12043503561E+03  0.76790849782E+02  0.21098987437E+03  0.78887383753E+02 0.  0.
          4    1    4    4  501    0 -0.67371921922E+01  0.75706661380E+02 -0.15829095050E+03  0.17559303331E+03  0.00000000000E+00 0. -1.
         -3    1    4    4    0  501  0.24054543205E+02  0.47570733715E+02 -0.22931846047E+02  0.58029865743E+02  0.00000000000E+00 0.  1.
          5    1    3    3  502    0  0.96898903374E+02  0.10227969578E+02 -0.91145420896E+02  0.13350500585E+03  0.47000000000E+01 0. -1.
         11    1    6    6    0    0 -0.78624238240E+02 -0.80262892990E+02  0.57580735592E+01  0.11250359213E+03  0.00000000000E+00 0. -1.
        -12    1    6    6    0    0 -0.55137024306E+02 -0.40172142617E+02  0.71032776223E+02  0.98486282242E+02  0.00000000000E+00 0.  1.
         -5    1    5    5    0  503  0.19545008160E+02 -0.13070329067E+02 -0.30820033775E+02  0.39048755777E+02  0.47000000000E+01 0.  1.
<mgrwt>
<rscale>  2 0.24606967E+03</rscale>
<asrwt>0</asrwt>
<pdfrwt beam="1">  1       21 0.30059164E-01 0.24616753E+03</pdfrwt>
<pdfrwt beam="2">  1       21 0.64889533E-01 0.24616753E+03</pdfrwt>
<totfact> 0.22561833E+04</totfact>
</mgrwt>
</event>
<event>
12    1  0.1441827E-001  0.1762612E+03  0.7546771E-02  0.1171979E+00
         21   -1    0    0  504  503  0.00000000000E+00  0.00000000000E+00  0.86013975444E+02  0.86013975444E+02  0.00000000000E+00 0.  1.
         21   -1    0    0  502  504 -0.00000000000E+00 -0.00000000000E+00 -0.39337535752E+03  0.39337535752E+03  0.00000000000E+00 0.  1.
          6    2    1    2  502    0 -0.28098261728E+02  0.76725565186E+01 -0.22732508270E+03  0.28765380233E+03  0.17383795999E+03 0.  0.
         24    2    3    3    0    0  0.33093825903E+02  0.39194651167E+02 -0.79442846077E+02  0.12446875415E+03  0.80931347288E+02 0.  0.
         -6    2    1    2    0  503  0.28098261728E+02 -0.76725565186E+01 -0.80036299376E+02  0.19173553064E+03  0.17177987093E+03 0.  0.
        -24    2    5    5    0    0 -0.41385592107E+02  0.26558850431E+02 -0.32877706247E+02  0.10092904369E+03  0.81777677409E+02 0.  0.
          4    1    4    4  501    0  0.31396224070E+02  0.60622252538E+02 -0.38885590856E+02  0.78567611424E+02  0.00000000000E+00 0. -1.
         -3    1    4    4    0  501  0.16976018338E+01 -0.21427601371E+02 -0.40557255221E+02  0.45901142726E+02  0.00000000000E+00 0.  1.
          5    1    3    3  502    0 -0.61192087631E+02 -0.31522094649E+02 -0.14788223662E+03  0.16318504818E+03  0.47000000000E+01 0. -1.
         13    1    6    6    0    0 -0.77866090345E+01 -0.11690883137E+02 -0.46212903267E+02  0.48300522328E+02  0.00000000000E+00 0. -1.
        -14    1    6    6    0    0 -0.33598983073E+02  0.38249733567E+02  0.13335197020E+02  0.52628521365E+02  0.00000000000E+00 0.  1.
         -5    1    5    5    0  503  0.69483853835E+02 -0.34231406949E+02 -0.47158593129E+02  0.90806486946E+02  0.47000000000E+01 0.  1.
<mgrwt>
<rscale>  2 0.17575165E+03</rscale>
<asrwt>0</asrwt>
<pdfrwt beam="1">  1       21 0.13232919E-01 0.17626122E+03</pdfrwt>
<pdfrwt beam="2">  1       21 0.60519286E-01 0.17626122E+03</pdfrwt>
<totfact> 0.12595656E+05</totfact>
</mgrwt>
</event>
<event>
12    1  0.1441827E-001  0.2090671E+03  0.7546771E-02  0.1142900E+00
         21   -1    0    0  504  503  0.00000000000E+00  0.00000000000E+00  0.58192436972E+02  0.58192436972E+02  0.00000000000E+00 0.  1.
         21   -1    0    0  502  504 -0.00000000000E+00 -0.00000000000E+00 -0.15731597970E+04  0.15731597970E+04  0.00000000000E+00 0. -1.
          6    2    1    2  502    0 -0.42580669010E+02 -0.10630030816E+03 -0.13483505486E+04  0.13640131092E+04  0.17137587749E+03 0.  0.
         24    2    3    3    0    0 -0.81846215037E+02 -0.43120777893E+02 -0.10202475800E+04  0.10275505049E+04  0.79979441867E+02 0.  0.
         -6    2    1    2    0  503  0.42580669010E+02  0.10630030816E+03 -0.16661681146E+03  0.26733912476E+03  0.17491762884E+03 0.  0.
        -24    2    5    5    0    0  0.40730122655E+02 -0.53579727098E+01 -0.10896278074E+03  0.14157317759E+03  0.80513516032E+02 0.  0.
          4    1    4    4  501    0 -0.26609213749E+02 -0.58069591995E+02 -0.60900592084E+03  0.61234658437E+03  0.00000000000E+00 0. -1.
         -3    1    4    4    0  501 -0.55237001288E+02  0.14948814103E+02 -0.41124165916E+03  0.41520392048E+03  0.00000000000E+00 0.  1.
          5    1    3    3  502    0  0.39265546027E+02 -0.63179530269E+02 -0.32810296860E+03  0.33646260439E+03  0.47000000000E+01 0. -1.
         11    1    6    6    0    0 -0.35037070346E+01  0.21328059052E+01  0.11934706950E+02  0.12619907052E+02  0.00000000000E+00 0. -1.
        -12    1    6    6    0    0  0.44233829690E+02 -0.74907786150E+01 -0.12089748769E+03  0.12895327054E+03  0.00000000000E+00 0.  1.
         -5    1    5    5    0  503  0.18505463542E+01  0.11165828087E+03 -0.57654030719E+02  0.12576594717E+03  0.47000000000E+01 0.  1.
<mgrwt>
<rscale>  2 0.20832461E+03</rscale>
<asrwt>0</asrwt>
<pdfrwt beam="1">  1       21 0.89526826E-02 0.20906708E+03</pdfrwt>
<pdfrwt beam="2">  1       21 0.24202458E+00 0.20906708E+03</pdfrwt>
<totfact> 0.71932719E+03</totfact>
</mgrwt>
</event>
<event>
12    1  0.1441827E-001  0.2377028E+03  0.7546771E-02  0.1121457E+00
         21   -1    0    0  504  503  0.00000000000E+00  0.00000000000E+00  0.25409179534E+03  0.25409179534E+03  0.00000000000E+00 0.  1.
         21   -1    0    0  502  504 -0.00000000000E+00 -0.00000000000E+00 -0.29264761804E+03  0.29264761804E+03  0.00000000000E+00 0.  1.
          6    2    1    2  502    0 -0.11414225708E+03 -0.11615492754E+03 -0.15387318759E+03  0.28254111908E+03  0.17213978060E+03 0.  0.
         24    2    3    3    0    0 -0.96659500371E+02 -0.22206714500E+02 -0.51139072477E+02  0.14215485934E+03  0.88071573838E+02 0.  0.
         -6    2    1    2    0  503  0.11414225708E+03  0.11615492754E+03  0.11531736490E+03  0.26419829430E+03  0.17315375255E+03 0.  0.
        -24    2    5    5    0    0  0.11023492830E+03  0.11074157115E+03  0.32555359827E+02  0.18103453340E+03  0.85429595753E+02 0.  0.
          2    1    4    4  501    0 -0.52935662903E+01  0.23522356053E+02  0.63335677968E+01  0.24928641347E+02  0.00000000000E+00 0. -1.
         -1    1    4    4    0  501 -0.91365934081E+02 -0.45729070553E+02 -0.57472640274E+02  0.11722621799E+03  0.00000000000E+00 0.  1.
          5    1    3    3  502    0 -0.17482756711E+02 -0.93948213039E+02 -0.10273411512E+03  0.14038625974E+03  0.47000000000E+01 0. -1.
         11    1    6    6    0    0  0.18821663834E+02 -0.98552796818E+01  0.20014469880E+02  0.29188363635E+02  0.00000000000E+00 0. -1.
        -12    1    6    6    0    0  0.91413264467E+02  0.12059685083E+03  0.12540889947E+02  0.15184616976E+03  0.00000000000E+00 0.  1.
         -5    1    5    5    0  503  0.39073287811E+01  0.54133563917E+01  0.82762005069E+02  0.83163760909E+02  0.47000000000E+01 0.  1.
<mgrwt>
<rscale>  2 0.23751823E+03</rscale>
<asrwt>0</asrwt>
<pdfrwt beam="1">  1       21 0.39091045E-01 0.23770285E+03</pdfrwt>
<pdfrwt beam="2">  1       21 0.45022711E-01 0.23770285E+03</pdfrwt>
<totfact> 0.29179624E+04</totfact>
</mgrwt>
</event>
<event>
12    1  0.1441827E-001  0.1795612E+03  0.7546771E-02  0.1168255E+00
         21   -1    0    0  504  503  0.00000000000E+00  0.00000000000E+00  0.23925376213E+03  0.23925376213E+03  0.00000000000E+00 0. -1.
         21   -1    0    0  502  504 -0.00000000000E+00 -0.00000000000E+00 -0.13493160619E+03  0.13493160619E+03  0.00000000000E+00 0. -1.
          6    2    1    2  502    0 -0.48504150846E+02 -0.16142973318E+02  0.44038661299E+02  0.18477490766E+03  0.17201486731E+03 0.  0.
         24    2    3    3    0    0 -0.62506098905E+02 -0.42629608808E+02 -0.22025234622E+02  0.11208292218E+03  0.79706803572E+02 0.  0.
         -6    2    1    2    0  503  0.48504150846E+02  0.16142973318E+02  0.60283494640E+02  0.18941046067E+03  0.17213069060E+03 0.  0.
        -24    2    5    5    0    0 -0.17063595508E+02 -0.22981425316E+02 -0.99140651489E+01  0.85585438005E+02  0.80045401551E+02 0.  0.
          4    1    4    4  501    0 -0.56227672986E+02 -0.13502881462E+02  0.19454291073E+02  0.61011051936E+02  0.00000000000E+00 0. -1.
         -3    1    4    4    0  501 -0.62784259198E+01 -0.29126727347E+02 -0.41479525695E+02  0.51071870240E+02  0.00000000000E+00 0.  1.
          5    1    3    3  502    0  0.14001948059E+02  0.26486635491E+02  0.66063895921E+02  0.72691985482E+02  0.47000000000E+01 0. -1.
         11    1    6    6    0    0  0.23974022270E+02 -0.31890379191E+02 -0.16321009822E+02  0.43105978592E+02  0.00000000000E+00 0. -1.
        -12    1    6    6    0    0 -0.41037617778E+02  0.89089538747E+01  0.64069446732E+01  0.42479459414E+02  0.00000000000E+00 0.  1.
         -5    1    5    5    0  503  0.65567746355E+02  0.39124398634E+02  0.70197559789E+02  0.10382502266E+03  0.47000000000E+01 0.  1.
<mgrwt>
<rscale>  2 0.17953343E+03</rscale>
<asrwt>0</asrwt>
<pdfrwt beam="1">  1       21 0.36808271E-01 0.17956120E+03</pdfrwt>
<pdfrwt beam="2">  1       21 0.20758709E-01 0.17956120E+03</pdfrwt>
<totfact> 0.15389600E+05</totfact>
</mgrwt>
</event>
<event>
12    1  0.1441827E-001  0.2174494E+03  0.7546771E-02  0.1135996E+00
         21   -1    0    0  504  503  0.00000000000E+00  0.00000000000E+00  0.10579620046E+04  0.10579620046E+04  0.00000000000E+00 0.  1.
         21   -1    0    0  502  504 -0.00000000000E+00 -0.00000000000E+00 -0.87397032521E+02  0.87397032521E+02  0.00000000000E+00 0. -1.
          6    2    1    2  502    0 -0.12058884367E+03  0.48994826701E+02  0.83384826825E+02  0.23191891496E+03  0.17289069238E+03 0.  0.
         24    2    3    3    0    0 -0.77995357235E+01 -0.10591437258E+01  0.31705598101E+01  0.84666592142E+02  0.84240280345E+02 0.  0.
         -6    2    1    2    0  503  0.12058884367E+03 -0.48994826701E+02  0.88718014524E+03  0.91344012215E+03  0.17418979414E+03 0.  0.
        -24    2    5    5    0    0  0.26500766138E+02 -0.72348918016E+01  0.18268920133E+03  0.20145273564E+03  0.80331974638E+02 0.  0.
          4    1    4    4  501    0  0.28048296440E+02 -0.18244691562E+02 -0.19674432523E+02  0.38815705565E+02  0.00000000000E+00 0. -1.
         -3    1    4    4    0  501 -0.35847832163E+02  0.17185547836E+02  0.22844992333E+02  0.45850886578E+02  0.00000000000E+00 0.  1.
          5    1    3    3  502    0 -0.11278930794E+03  0.50053970427E+02  0.80214267015E+02  0.14725232282E+03  0.47000000000E+01 0. -1.
         13    1    6    6    0    0  0.33538587680E+02  0.31188662379E+02  0.10155789542E+03  0.11140725132E+03  0.00000000000E+00 0. -1.
        -14    1    6    6    0    0 -0.70378215418E+01 -0.38423554180E+02  0.81131305910E+02  0.90045484321E+02  0.00000000000E+00 0.  1.
         -5    1    5    5    0  503  0.94088077530E+02 -0.41759934899E+02  0.70449094391E+03  0.71198738651E+03  0.47000000000E+01 0.  1.
<mgrwt>
<rscale>  2 0.21718913E+03</rscale>
<asrwt>0</asrwt>
<pdfrwt beam="1">  1       21 0.16276338E+00 0.21744941E+03</pdfrwt>
<pdfrwt beam="2">  1       21 0.13445698E-01 0.21744941E+03</pdfrwt>
<totfact> 0.11285960E+04</totfact>
</mgrwt>
</event>
<event>
12    1  0.1441827E-001  0.2582206E+03  0.7546771E-02  0.1108404E+00
         21   -1    0    0  504  503  0.00000000000E+00  0.00000000000E+00  0.16231479439E+04  0.16231479439E+04  0.00000000000E+00 0. -1.
         21   -1    0    0  502  504 -0.00000000000E+00 -0.00000000000E+00 -0.12555957521E+03  0.12555957521E+03  0.00000000000E+00 0.  1.
          6    2    1    2  502    0  0.16609423867E+03  0.91700665071E+02  0.30186735228E+02  0.25875938186E+03  0.17334610069E+03 0.  0.
         24    2    3    3    0    0  0.10235786651E+03 -0.16537101789E+02  0.11384071326E+02  0.13166347524E+03  0.80343419520E+02 0.  0.
         -6    2    1    2    0  503 -0.16609423867E+03 -0.91700665071E+02  0.14674016335E+04  0.14899481372E+04  0.17516161021E+03 0.  0.
        -24    2    5    5    0    0 -0.57619487887E+02 -0.67413594381E+02  0.10876279770E+04  0.10942124255E+04  0.80632610038E+02 0.  0.
          2    1    4    4  501    0  0.11800887941E+02 -0.31957757297E+02  0.19825524268E+02  0.39415867619E+02  0.00000000000E+00 0. -1.
         -1    1    4    4    0  501  0.90556978569E+02  0.15420655509E+02 -0.84414529423E+01  0.92247607620E+02  0.00000000000E+00 0.  1.
          5    1    3    3  502    0  0.63736372161E+02  0.10823776686E+03  0.18802663903E+02  0.12709590663E+03  0.47000000000E+01 0. -1.
         13    1    6    6    0    0 -0.36914478193E+02  0.66117966932E+01  0.21877967402E+03  0.22197058436E+03  0.00000000000E+00 0. -1.
        -14    1    6    6    0    0 -0.20705009693E+02 -0.74025391075E+02  0.86884830295E+03  0.87224184117E+03  0.00000000000E+00 0.  1.
         -5    1    5    5    0  503 -0.10847475078E+03 -0.24287070690E+02  0.37977365649E+03  0.39573571171E+03  0.47000000000E+01 0.  1.
<mgrwt>
<rscale>  2 0.25791307E+03</rscale>
<asrwt>0</asrwt>
<pdfrwt beam="1">  1       21 0.24971505E+00 0.25822064E+03</pdfrwt>
<pdfrwt beam="2">  1       21 0.19316859E-01 0.25822064E+03</pdfrwt>
<totfact> 0.15371499E+03</totfact>
</mgrwt>
</event>
<event>
12    1  0.1441827E-001  0.1888396E+03  0.7546771E-02  0.1159796E+00
         21   -1    0    0  504  503  0.00000000000E+00  0.00000000000E+00  0.80048405224E+02  0.80048405224E+02  0.00000000000E+00 0.  1.
         21   -1    0    0  502  504 -0.00000000000E+00 -0.00000000000E+00 -0.62028191870E+03  0.62028191870E+03  0.00000000000E+00 0. -1.
          6    2    1    2  502    0  0.73773423998E+02 -0.17154270211E+02 -0.45818885204E+03  0.49557787969E+03  0.17298446066E+03 0.  0.
         24    2    3    3    0    0  0.28510128404E+02 -0.52108105063E+02 -0.14117206310E+03  0.17340980094E+03  0.81322356253E+02 0.  0.
         -6    2    1    2    0  503 -0.73773423998E+02  0.17154270211E+02 -0.82044661436E+02  0.20475244423E+03  0.17162590094E+03 0.  0.
        -24    2    5    5    0    0 -0.48683718972E+02 -0.85199718474E+01 -0.11970980271E+03  0.15250866115E+03  0.80534219109E+02 0.  0.
          2    1    4    4  501    0 -0.27512216969E+01 -0.31122649409E+02 -0.13062355820E+03  0.13430823684E+03  0.00000000000E+00 0. -1.
         -1    1    4    4    0  501  0.31261350101E+02 -0.20985455654E+02 -0.10548504903E+02  0.39101564097E+02  0.00000000000E+00 0.  1.
          5    1    3    3  502    0  0.45263295595E+02  0.34953834852E+02 -0.31701678894E+03  0.32216807875E+03  0.47000000000E+01 0. -1.
         13    1    6    6    0    0 -0.59675348701E+02 -0.30581944066E+02 -0.10235276456E+03  0.12236213041E+03  0.00000000000E+00 0. -1.
        -14    1    6    6    0    0  0.10991629728E+02  0.22061972219E+02 -0.17357038148E+02  0.30146530738E+02  0.00000000000E+00 0.  1.
         -5    1    5    5    0  503 -0.25089705026E+02  0.25674242058E+02  0.37665141275E+02  0.52243783083E+02  0.47000000000E+01 0.  1.
<mgrwt>
<rscale>  2 0.18852795E+03</rscale>
<asrwt>0</asrwt>
<pdfrwt beam="1">  1       21 0.12315139E-01 0.18883964E+03</pdfrwt>
<pdfrwt beam="2">  1       21 0.95427992E-01 0.18883964E+03</pdfrwt>
<totfact> 0.51446997E+04</totfact>
</mgrwt>
</event>
<event>
12    1  0.1441827E-001  0.1886992E+03  0.7546771E-02  0.1159720E+00
         21   -1    0    0  504  503  0.00000000000E+00  0.00000000000E+00  0.26592068149E+03  0.26592068149E+03  0.00000000000E+00 0.  1.
         21   -1    0    0  502  504 -0.00000000000E+00 -0.00000000000E+00 -0.22046108855E+03  0.22046108855E+03  0.00000000000E+00 0.  1.
          6    2    1    2  502    0  0.68398475214E+02  0.35545712031E+02 -0.12988658811E+03  0.22878970889E+03  0.17184980672E+03 0.  0.
         24    2    3    3    0    0  0.89280028630E+02  0.67507292121E+02 -0.13257065534E+03  0.19022967658E+03  0.78001238414E+02 0.  0.
         -6    2    1    2    0  503 -0.68398475214E+02 -0.35545712031E+02  0.17534618105E+03  0.25759206114E+03  0.17223686511E+03 0.  0.
        -24    2    5    5    0    0 -0.55719237325E+02  0.34587688815E+02  0.15900184979E+03  0.18432075604E+03  0.66269233015E+02 0.  0.
          2    1    4    4  501    0 -0.17190630926E+01  0.41785123332E+02 -0.42843474512E+02  0.59870819420E+02  0.00000000000E+00 0. -1.
         -1    1    4    4    0  501  0.90999091722E+02  0.25722168788E+02 -0.89727180824E+02  0.13035885716E+03  0.00000000000E+00 0.  1.
          5    1    3    3  502    0 -0.20881553416E+02 -0.31961580090E+02  0.26840672309E+01  0.38560032310E+02  0.47000000000E+01 0. -1.
         11    1    6    6    0    0 -0.54980199042E+01  0.19797215900E+02  0.42883893707E+01  0.20989241617E+02  0.00000000000E+00 0. -1.
        -12    1    6    6    0    0 -0.50221217420E+02  0.14790472915E+02  0.15471346042E+03  0.16333151442E+03  0.00000000000E+00 0.  1.
         -5    1    5    5    0  503 -0.12679237889E+02 -0.70133400846E+02  0.16344331256E+02  0.73271305106E+02  0.47000000000E+01 0.  1.
<mgrwt>
<rscale>  2 0.18861083E+03</rscale>
<asrwt>0</asrwt>
<pdfrwt beam="1">  1       21 0.40910874E-01 0.18869920E+03</pdfrwt>
<pdfrwt beam="2">  1       21 0.33917091E-01 0.18869920E+03</pdfrwt>
<totfact> 0.48290093E+04</totfact>
</mgrwt>
</event>
<event>
12    1  0.1441827E-001  0.2560504E+03  0.7546771E-02  0.1109621E+00
         21   -1    0    0  504  503  0.00000000000E+00  0.00000000000E+00  0.94231627454E+02  0.94231627454E+02  0.00000000000E+00 0. -1.
         21   -1    0    0  502  504 -0.00000000000E+00 -0.00000000000E+00 -0.70123460767E+03  0.70123460767E+03  0.00000000000E+00 0.  1.
          6    2    1    2  502    0  0.27155259936E+02 -0.18650580563E+03 -0.34272624794E+03  0.42749343393E+03  0.17253269646E+03 0.  0.
         24    2    3    3    0    0  0.37533399886E+02 -0.20779073019E+03 -0.27753519277E+03  0.35797568456E+03  0.80839741781E+02 0.  0.
         -6    2    1    2    0  503 -0.27155259936E+02  0.18650580563E+03 -0.26427673227E+03  0.36797280119E+03  0.17332041865E+03 0.  0.
        -24    2    5    5    0    0 -0.52741226264E+02  0.66293419901E+02 -0.19256305829E+03  0.22559794248E+03  0.81470520840E+02 0.  0.
          4    1    4    4  501    0  0.23305939357E+02 -0.31384986052E+02 -0.16115858095E+02  0.42283626156E+02  0.00000000000E+00 0. -1.
         -3    1    4    4    0  501  0.14227460530E+02 -0.17640574414E+03 -0.26141933467E+03  0.31569205841E+03  0.00000000000E+00 0.  1.
          5    1    3    3  502    0 -0.10378139951E+02  0.21284924562E+02 -0.65191055176E+02  0.69517749369E+02  0.47000000000E+01 0. -1.
         11    1    6    6    0    0 -0.21520164298E+02  0.13476169840E+02 -0.20788868678E+01  0.25476388982E+02  0.00000000000E+00 0. -1.
        -12    1    6    6    0    0 -0.31221061965E+02  0.52817250061E+02 -0.19048417142E+03  0.20012155350E+03  0.00000000000E+00 0.  1.
         -5    1    5    5    0  503  0.25585966328E+02  0.12021238573E+03 -0.71713673984E+02  0.14237485871E+03  0.47000000000E+01 0.  1.
<mgrwt>
<rscale>  2 0.25591713E+03</rscale>
<asrwt>0</asrwt>
<pdfrwt beam="1">  1       21 0.14497173E-01 0.25605037E+03</pdfrwt>
<pdfrwt beam="2">  1       21 0.10788225E+00 0.25605037E+03</pdfrwt>
<totfact> 0.27628097E+04</totfact>
</mgrwt>
</event>
<event>
12    1  0.1441827E-001  0.1938666E+03  0.7546771E-02  0.1155442E+00
         21   -1    0    0  504  503  0.00000000000E+00  0.00000000000E+00  0.70902959070E+03  0.70902959070E+03  0.00000000000E+00 0. -1.
         21   -1    0    0  502  504 -0.00000000000E+00 -0.00000000000E+00 -0.84273735398E+02  0.84273735398E+02  0.00000000000E+00 0. -1.
          6    2    1    2  502    0  0.79638733817E+02 -0.23864986115E+02  0.69736551557E+02  0.20602773572E+03  0.17513530706E+03 0.  0.
         24    2    3    3    0    0 -0.22047352022E+02 -0.19361624943E+02  0.61467473227E+02  0.10379854238E+03  0.78325786839E+02 0.  0.
         -6    2    1    2    0  503 -0.79638733817E+02  0.23864986115E+02  0.55501930374E+03  0.58727559037E+03  0.17301539247E+03 0.  0.
        -24    2    5    5    0    0 -0.93368830986E+02 -0.32401217132E+02  0.30637379937E+03  0.33193057271E+03  0.80903786638E+02 0.  0.
          4    1    4    4  501    0 -0.16525636871E+02  0.99866035057E+00  0.76257972867E+02  0.78034431005E+02  0.00000000000E+00 0. -1.
         -3    1    4    4    0  501 -0.55217151507E+01 -0.20360285293E+02 -0.14790499640E+02  0.25764111377E+02  0.00000000000E+00 0.  1.
          5    1    3    3  502    0  0.10168608584E+03 -0.45033611721E+01  0.82690783300E+01  0.10222919334E+03  0.47000000000E+01 0. -1.
         13    1    6    6    0    0 -0.78261344746E+02  0.13379683673E+02  0.19742624846E+03  0.21279327432E+03  0.00000000000E+00 0. -1.
        -14    1    6    6    0    0 -0.15107486240E+02 -0.45780900805E+02  0.10894755091E+03  0.11913729839E+03  0.00000000000E+00 0.  1.
         -5    1    5    5    0  503  0.13730097169E+02  0.56266203247E+02  0.24864550438E+03  0.25534501766E+03  0.47000000000E+01 0.  1.
<mgrwt>
<rscale>  2 0.19338654E+03</rscale>
<asrwt>0</asrwt>
<pdfrwt beam="1">  1       21 0.10908147E+00 0.19386656E+03</pdfrwt>
<pdfrwt beam="2">  1       21 0.12965191E-01 0.19386656E+03</pdfrwt>
<totfact> 0.34020391E+04</totfact>
</mgrwt>
</event>
<event>
12    1  0.1441827E-001  0.2251660E+03  0.7546771E-02  0.1130099E+00
         21   -1    0    0  504  503  0.00000000000E+00  0.00000000000E+00  0.12851505764E+04  0.12851505764E+04  0.00000000000E+00 0. -1.
         21   -1    0    0  502  504 -0.00000000000E+00 -0.00000000000E+00 -0.93322690063E+02  0.93322690063E+02  0.00000000000E+00 0. -1.
          6    2    1    2  502    0 -0.14310681409E+03 -0.13940732508E+02  0.72164747338E+02  0.23639389826E+03  0.17320629352E+03 0.  0.
         24    2    3    3    0    0 -0.33296846466E+01  0.56461383295E+01  0.41767585334E+02  0.91938476482E+02  0.81640594041E+02 0.  0.
         -6    2    1    2    0  503  0.14310681409E+03  0.13940732508E+02  0.11196631390E+04  0.11420793682E+04  0.17327964154E+03 0.  0.
        -24    2    5    5    0    0  0.11596489885E+03 -0.54564076629E+02  0.77957416168E+03  0.79406759407E+03  0.79889762626E+02 0.  0.
          4    1    4    4  501    0  0.81228085971E+01  0.40994034173E+02  0.34240486044E+02  0.54026861299E+02  0.00000000000E+00 0. -1.
         -3    1    4    4    0  501 -0.11452493244E+02 -0.35347895844E+02  0.75270992897E+01  0.37911615183E+02  0.00000000000E+00 0.  1.
          5    1    3    3  502    0 -0.13977712944E+03 -0.19586870837E+02  0.30397162004E+02  0.14445542178E+03  0.47000000000E+01 0. -1.
         13    1    6    6    0    0  0.71140724251E+02 -0.65062431553E+02  0.38805145726E+03  0.39984754111E+03  0.00000000000E+00 0. -1.
        -14    1    6    6    0    0  0.44824174600E+02  0.10498354923E+02  0.39152270442E+03  0.39422005296E+03  0.00000000000E+00 0.  1.
         -5    1    5    5    0  503  0.27141915236E+02  0.68504809137E+02  0.34008897730E+03  0.34801177411E+03  0.47000000000E+01 0.  1.
<mgrwt>
<rscale>  2 0.22515191E+03</rscale>
<asrwt>0</asrwt>
<pdfrwt beam="1">  1       21 0.19771546E+00 0.22516602E+03</pdfrwt>
<pdfrwt beam="2">  1       21 0.14357338E-01 0.22516602E+03</pdfrwt>
<totfact> 0.57375521E+03</totfact>
</mgrwt>
</event>
<event>
12    1  0.1441827E-001  0.2495736E+03  0.7546771E-02  0.1114263E+00
         21   -1    0    0  504  503  0.00000000000E+00  0.00000000000E+00  0.62572366071E+02  0.62572366071E+02  0.00000000000E+00 0. -1.
         21   -1    0    0  502  504 -0.00000000000E+00 -0.00000000000E+00 -0.11180376749E+04  0.11180376749E+04  0.00000000000E+00 0.  1.
          6    2    1    2  502    0 -0.18098897175E+03 -0.12346747289E+02 -0.74040972257E+03  0.78134086436E+03  0.17139877181E+03 0.  0.
         24    2    3    3    0    0 -0.16234592454E+03  0.37505334751E+02 -0.48269519789E+03  0.51814576652E+03  0.87849484640E+02 0.  0.
         -6    2    1    2    0  503  0.18098897175E+03  0.12346747289E+02 -0.31505558622E+03  0.39926917657E+03  0.16506484450E+03 0.  0.
        -24    2    5    5    0    0  0.41162261456E+02 -0.42920106559E+02 -0.99761995896E+02  0.13662996762E+03  0.71964052907E+02 0.  0.
          4    1    4    4  501    0 -0.27475488002E+02  0.19074647648E+02 -0.28346497661E+02  0.43843683166E+02  0.00000000000E+00 0. -1.
         -3    1    4    4    0  501 -0.13487043654E+03  0.18430687103E+02 -0.45434870022E+03  0.47430208335E+03  0.00000000000E+00 0.  1.
          5    1    3    3  502    0 -0.18643047211E+02 -0.49852082040E+02 -0.25771452469E+03  0.26319509784E+03  0.47000000000E+01 0. -1.
         11    1    6    6    0    0 -0.20548327174E+02 -0.15276745020E+02 -0.30702374511E+02  0.39978100113E+02  0.00000000000E+00 0. -1.
        -12    1    6    6    0    0  0.61710588630E+02 -0.27643361539E+02 -0.69059621385E+02  0.96651867505E+02  0.00000000000E+00 0.  1.
         -5    1    5    5    0  503  0.13982671029E+03  0.55266853848E+02 -0.21529359032E+03  0.26263920895E+03  0.47000000000E+01 0.  1.
<mgrwt>
<rscale>  2 0.24848990E+03</rscale>
<asrwt>0</asrwt>
<pdfrwt beam="1">  1       21 0.96265189E-02 0.24957361E+03</pdfrwt>
<pdfrwt beam="2">  1       21 0.17200578E+00 0.24957361E+03</pdfrwt>
<totfact> 0.17270333E+04</totfact>
</mgrwt>
</event>
<event>
12    1  0.1441827E-001  0.2278544E+03  0.7546771E-02  0.1129351E+00
         21   -1    0    0  504  503  0.00000000000E+00  0.00000000000E+00  0.21578472538E+04  0.21578472538E+04  0.00000000000E+00 0.  1.
         21   -1    0    0  502  504 -0.00000000000E+00 -0.00000000000E+00 -0.46049565030E+02  0.46049565030E+02  0.00000000000E+00 0. -1.
          6    2    1    2  502    0 -0.10486617582E+03 -0.10590750998E+03  0.29045791142E+03  0.36916582714E+03  0.17234933746E+03 0.  0.
         24    2    3    3    0    0 -0.10594852334E+03 -0.12242340991E+03  0.17198912229E+03  0.24945413003E+03  0.80215484245E+02 0.  0.
         -6    2    1    2    0  503  0.10486617582E+03  0.10590750998E+03  0.18213397774E+04  0.18347309917E+04  0.16354177386E+03 0.  0.
        -24    2    5    5    0    0  0.67576323733E+02  0.11234474820E+03  0.93689613760E+03  0.94946571337E+03  0.80764263336E+02 0.  0.
          4    1    4    4  501    0 -0.93702039369E+02 -0.55339602924E+02  0.80571917395E+02  0.13540449662E+03  0.00000000000E+00 0. -1.
         -3    1    4    4    0  501 -0.12246483968E+02 -0.67083806990E+02  0.91417204893E+02  0.11404963341E+03  0.00000000000E+00 0.  1.
          5    1    3    3  502    0  0.10823475141E+01  0.16515899937E+02  0.11846878913E+03  0.11971169711E+03  0.47000000000E+01 0. -1.
         13    1    6    6    0    0  0.81359199600E+02  0.10755559698E+03  0.75218583752E+03  0.76417999187E+03  0.00000000000E+00 0. -1.
        -14    1    6    6    0    0 -0.13782875867E+02  0.47891512145E+01  0.18471030008E+03  0.18528572150E+03  0.00000000000E+00 0.  1.
         -5    1    5    5    0  503  0.37289852090E+02 -0.64372382202E+01  0.88444363975E+03  0.88526527832E+03  0.47000000000E+01 0.  1.
<mgrwt>
<rscale>  2 0.22618944E+03</rscale>
<asrwt>0</asrwt>
<pdfrwt beam="1">  1       21 0.33197642E+00 0.22785436E+03</pdfrwt>
<pdfrwt beam="2">  1       21 0.70845502E-02 0.22785436E+03</pdfrwt>
<totfact> 0.31680497E+03</totfact>
</mgrwt>
</event>
<event>
12    1  0.1441827E-001  0.1847866E+03  0.7546771E-02  0.1163526E+00
         21   -1    0    0  504  503  0.00000000000E+00  0.00000000000E+00  0.62144126686E+03  0.62144126686E+03  0.00000000000E+00 0. -1.
         21   -1    0    0  502  504 -0.00000000000E+00 -0.00000000000E+00 -0.58829073696E+02  0.58829073696E+02  0.00000000000E+00 0. -1.
          6    2    1    2  502    0 -0.49469998612E+02  0.40716694766E+02  0.37336962676E+03  0.41659448832E+03  0.17332328036E+03 0.  0.
         24    2    3    3    0    0 -0.62281829497E+01  0.33129142250E+02  0.36027784964E+03  0.37054114747E+03  0.79776454560E+02 0.  0.
         -6    2    1    2    0  503  0.49469998612E+02 -0.40716694766E+02  0.18924256640E+03  0.26367585223E+03  0.17206706866E+03 0.  0.
        -24    2    5    5    0    0  0.95464109874E+02 -0.13631905062E+02  0.15800195456E+03  0.20165077721E+03  0.79994957293E+02 0.  0.
          2    1    4    4  501    0 -0.22069381264E+02 -0.20033644274E+02  0.15843029587E+03  0.16120968687E+03  0.00000000000E+00 0. -1.
         -1    1    4    4    0  501  0.15841198314E+02  0.53162786524E+02  0.20184755377E+03  0.20933146061E+03  0.00000000000E+00 0.  1.
          5    1    3    3  502    0 -0.43241815662E+02  0.75875525160E+01  0.13091777124E+02  0.46053340847E+02  0.47000000000E+01 0. -1.
         11    1    6    6    0    0  0.34566582084E+02 -0.42414493851E+02  0.93832469941E+02  0.10862030335E+03  0.00000000000E+00 0. -1.
        -12    1    6    6    0    0  0.60897527790E+02  0.28782588790E+02  0.64169484624E+02  0.93030473852E+02  0.00000000000E+00 0.  1.
         -5    1    5    5    0  503 -0.45994111262E+02 -0.27084789705E+02  0.31240611837E+02  0.62025075027E+02  0.47000000000E+01 0.  1.
<mgrwt>
<rscale>  2 0.18449146E+03</rscale>
<asrwt>0</asrwt>
<pdfrwt beam="1">  1       21 0.95606344E-01 0.18478661E+03</pdfrwt>
<pdfrwt beam="2">  1       21 0.90506272E-02 0.18478661E+03</pdfrwt>
<totfact> 0.88568219E+04</totfact>
</mgrwt>
</event>
<event>
12    1  0.1441827E-001  0.1746318E+03  0.7546771E-02  0.1173163E+00
         21   -1    0    0  504  503  0.00000000000E+00  0.00000000000E+00  0.31122556164E+03  0.31122556164E+03  0.00000000000E+00 0. -1.
         21   -1    0    0  502  504 -0.00000000000E+00 -0.00000000000E+00 -0.11580105411E+03  0.11580105411E+03  0.00000000000E+00 0. -1.
          6    2    1    2  502    0 -0.20008645018E+02 -0.20492313819E+01  0.13707691862E+02  0.17516892803E+03  0.17346961494E+03 0.  0.
         24    2    3    3    0    0 -0.12638962687E+02  0.34647830494E+02 -0.50706965325E+02  0.10052092318E+03  0.78568722332E+02 0.  0.
         -6    2    1    2    0  503  0.20008645018E+02  0.20492313819E+01  0.18171681567E+03  0.25185768772E+03  0.17322456103E+03 0.  0.
        -24    2    5    5    0    0  0.43928976893E+02  0.56576510951E+01  0.20051398474E+03  0.22086371194E+03  0.81321320377E+02 0.  0.
          4    1    4    4  501    0 -0.30677047684E+02  0.32340535063E+02 -0.64001295453E+02  0.77994597778E+02  0.00000000000E+00 0. -1.
         -3    1    4    4    0  501  0.18038084997E+02  0.23072954311E+01  0.13294330129E+02  0.22526325403E+02  0.00000000000E+00 0.  1.
          5    1    3    3  502    0 -0.73696823315E+01 -0.36697061876E+02  0.64414657187E+02  0.74648004853E+02  0.47000000000E+01 0. -1.
         13    1    6    6    0    0  0.19216003214E+02  0.38160750305E+02  0.14969811521E+03  0.15567602044E+03  0.00000000000E+00 0. -1.
        -14    1    6    6    0    0  0.24712973680E+02 -0.32503099210E+02  0.50815869528E+02  0.65187691494E+02  0.00000000000E+00 0.  1.
         -5    1    5    5    0  503 -0.23920331875E+02 -0.36084197132E+01 -0.18797169071E+02  0.30993975785E+02  0.47000000000E+01 0.  1.
<mgrwt>
<rscale>  2 0.17457088E+03</rscale>
<asrwt>0</asrwt>
<pdfrwt beam="1">  1       21 0.47880855E-01 0.17463176E+03</pdfrwt>
<pdfrwt beam="2">  1       21 0.17815547E-01 0.17463176E+03</pdfrwt>
<totfact> 0.12007803E+05</totfact>
</mgrwt>
</event>
<event>
12    1  0.1441827E-001  0.2044614E+03  0.7546771E-02  0.1146168E+00
         21   -1    0    0  504  503  0.00000000000E+00  0.00000000000E+00  0.10577983354E+04  0.10577983354E+04  0.00000000000E+00 0.  1.
         21   -1    0    0  502  504 -0.00000000000E+00 -0.00000000000E+00 -0.46019541661E+02  0.46019541661E+02  0.00000000000E+00 0.  1.
          6    2    1    2  502    0  0.88075467552E+02  0.63984315697E+02  0.29567729893E+03  0.35909925792E+03  0.17226703485E+03 0.  0.
         24    2    3    3    0    0  0.54742993571E+02  0.88478735092E+02  0.10614349058E+03  0.16504724192E+03  0.71755623932E+02 0.  0.
         -6    2    1    2    0  503 -0.88075467552E+02 -0.63984315697E+02  0.71610149479E+03  0.74471861913E+03  0.17306989973E+03 0.  0.
        -24    2    5    5    0    0 -0.12492540178E+03 -0.67829228090E+02  0.51987318482E+03  0.54496792291E+03  0.80713992068E+02 0.  0.
          4    1    4    4  501    0 -0.12926644509E+01  0.44772384430E+02  0.75219363901E+02  0.87545360212E+02  0.00000000000E+00 0. -1.
         -3    1    4    4    0  501  0.56035658021E+02  0.43706350662E+02  0.30924126677E+02  0.77501881712E+02  0.00000000000E+00 0.  1.
          5    1    3    3  502    0  0.33332473982E+02 -0.24494419395E+02  0.18953380835E+03  0.19405201600E+03  0.47000000000E+01 0. -1.
         13    1    6    6    0    0 -0.19131925675E+02 -0.27624655372E+02  0.25110164316E+03  0.25334006268E+03  0.00000000000E+00 0. -1.
        -14    1    6    6    0    0 -0.10579347610E+03 -0.40204572719E+02  0.26877154166E+03  0.29162786023E+03  0.00000000000E+00 0.  1.
         -5    1    5    5    0  503  0.36849934227E+02  0.38449123934E+01  0.19622830997E+03  0.19975069622E+03  0.47000000000E+01 0.  1.
<mgrwt>
<rscale>  2 0.20429142E+03</rscale>
<asrwt>0</asrwt>
<pdfrwt beam="1">  1       21 0.16273819E+00 0.20446142E+03</pdfrwt>
<pdfrwt beam="2">  1       21 0.70799303E-02 0.20446142E+03</pdfrwt>
<totfact> 0.35396192E+04</totfact>
</mgrwt>
</event>
<event>
12    1  0.1441827E-001  0.1985536E+03  0.7546771E-02  0.1153672E+00
         21   -1    0    0  504  503  0.00000000000E+00  0.00000000000E+00  0.44161319932E+03  0.44161319932E+03  0.00000000000E+00 0. -1.
         21   -1    0    0  502  504 -0.00000000000E+00 -0.00000000000E+00 -0.36270316458E+03  0.36270316458E+03  0.00000000000E+00 0. -1.
          6    2    1    2  502    0  0.68703974928E+02 -0.84533813638E+01 -0.31284505264E+03  0.37053414738E+03  0.18609629654E+03 0.  0.
         24    2    3    3    0    0  0.10246386633E+03 -0.52695589723E+01 -0.12845907971E+03  0.18299710036E+03  0.80371583439E+02 0.  0.
         -6    2    1    2    0  503 -0.68703974928E+02  0.84533813638E+01  0.39175508737E+03  0.43378221652E+03  0.17292561135E+03 0.  0.
        -24    2    5    5    0    0 -0.10127181220E+03  0.10190963677E+02  0.37659804654E+03  0.39751226885E+03  0.76354957570E+02 0.  0.
          4    1    4    4  501    0  0.10984028646E+03  0.19206121910E+01 -0.13233447044E+03  0.17199124788E+03  0.00000000000E+00 0. -1.
         -3    1    4    4    0  501 -0.73764201320E+01 -0.71901711633E+01  0.38753907341E+01  0.11005852473E+02  0.00000000000E+00 0.  1.
          5    1    3    3  502    0 -0.33759891400E+02 -0.31838223914E+01 -0.18438597293E+03  0.18753704702E+03  0.47000000000E+01 0. -1.
         13    1    6    6    0    0 -0.64646006661E+02 -0.13666263671E+02  0.31576326320E+03  0.32260240441E+03  0.00000000000E+00 0. -1.
        -14    1    6    6    0    0 -0.36625805538E+02  0.23857227348E+02  0.60834783336E+02  0.74909864448E+02  0.00000000000E+00 0.  1.
         -5    1    5    5    0  503  0.32567837272E+02 -0.17375823127E+01  0.15157040834E+02  0.36269947666E+02  0.47000000000E+01 0.  1.
<mgrwt>
<rscale>  2 0.19540767E+03</rscale>
<asrwt>0</asrwt>
<pdfrwt beam="1">  1       21 0.67940493E-01 0.19855359E+03</pdfrwt>
<pdfrwt beam="2">  1       21 0.55800486E-01 0.19855359E+03</pdfrwt>
<totfact> 0.59591247E+03</totfact>
</mgrwt>
</event>
<event>
12    1  0.1441827E-001  0.2419399E+03  0.7546771E-02  0.1118629E+00
         21   -1    0    0  504  503  0.00000000000E+00  0.00000000000E+00  0.48699469785E+03  0.48699469785E+03  0.00000000000E+00 0.  1.
         21   -1    0    0  502  504 -0.00000000000E+00 -0.00000000000E+00 -0.41542083548E+03  0.41542083548E+03  0.00000000000E+00 0. -1.
          6    2    1    2  502    0 -0.44721206372E+02  0.16436445413E+03 -0.34483587416E+03  0.42082237972E+03  0.17077480811E+03 0.  0.
         24    2    3    3    0    0 -0.15944105980E+02  0.24837649636E+02 -0.70570942359E+02  0.11172822983E+03  0.81435963071E+02 0.  0.
         -6    2    1    2    0  503  0.44721206372E+02 -0.16436445413E+03  0.41640973653E+03  0.48159315362E+03  0.17181163189E+03 0.  0.
        -24    2    5    5    0    0  0.32618982235E+02 -0.14488894021E+02  0.20112401075E+03  0.21895427402E+03  0.78842757203E+02 0.  0.
          4    1    4    4  501    0 -0.36361387661E+02 -0.13790011051E+02 -0.50254735634E+02  0.63544105714E+02  0.00000000000E+00 0. -1.
         -3    1    4    4    0  501  0.20417281681E+02  0.38627660688E+02 -0.20316206724E+02  0.48184124119E+02  0.00000000000E+00 0.  1.
          5    1    3    3  502    0 -0.28777100392E+02  0.13952680449E+03 -0.27426493180E+03  0.30909414989E+03  0.47000000000E+01 0. -1.
         11    1    6    6    0    0  0.44600862778E+02 -0.38518330357E+02  0.12403712664E+03  0.13732482484E+03  0.00000000000E+00 0. -1.
        -12    1    6    6    0    0 -0.11981880543E+02  0.24029436337E+02  0.77086884108E+02  0.81629449180E+02  0.00000000000E+00 0.  1.
         -5    1    5    5    0  503  0.12102224136E+02 -0.14987556011E+03  0.21528572578E+03  0.26263887959E+03  0.47000000000E+01 0.  1.
<mgrwt>
<rscale>  2 0.24175586E+03</rscale>
<asrwt>0</asrwt>
<pdfrwt beam="1">  1       21 0.74922261E-01 0.24193986E+03</pdfrwt>
<pdfrwt beam="2">  1       21 0.63910898E-01 0.24193986E+03</pdfrwt>
<totfact> 0.34708452E+03</totfact>
</mgrwt>
</event>
<event>
12    1  0.1441827E-001  0.1946606E+03  0.7546771E-02  0.1156648E+00
         21   -1    0    0  504  503  0.00000000000E+00  0.00000000000E+00  0.10133707220E+03  0.10133707220E+03  0.00000000000E+00 0. -1.
         21   -1    0    0  502  504 -0.00000000000E+00 -0.00000000000E+00 -0.42004430161E+03  0.42004430161E+03  0.00000000000E+00 0. -1.
          6    2    1    2  502    0  0.96314123789E+00 -0.89063031786E+02 -0.26608476203E+03  0.32968751196E+03  0.17308842736E+03 0.  0.
         24    2    3    3    0    0 -0.27529356879E+02 -0.11072863744E+03 -0.12726234432E+03  0.18624771770E+03  0.73985210872E+02 0.  0.
         -6    2    1    2    0  503 -0.96314123789E+00  0.89063031786E+02 -0.52622467376E+02  0.19169386185E+03  0.16138234515E+03 0.  0.
        -24    2    5    5    0    0  0.14487293740E+02  0.83563810025E+02  0.19571925742E+02  0.11751112950E+03  0.78949434790E+02 0.  0.
          4    1    4    4  501    0 -0.35712503619E+02 -0.91342734981E+02 -0.13222530573E+03  0.16462809488E+03  0.00000000000E+00 0. -1.
         -3    1    4    4    0  501  0.81831467399E+01 -0.19385902463E+02  0.49629614147E+01  0.21619622820E+02  0.00000000000E+00 0.  1.
          5    1    3    3  502    0  0.28492498117E+02  0.21665605659E+02 -0.13882241771E+03  0.14343979425E+03  0.47000000000E+01 0. -1.
         11    1    6    6    0    0 -0.16249484448E+02 -0.53077187869E+01  0.15988503537E+02  0.23406192960E+02  0.00000000000E+00 0. -1.
        -12    1    6    6    0    0  0.30736778188E+02  0.88871528812E+02  0.35834222052E+01  0.94104936542E+02  0.00000000000E+00 0.  1.
         -5    1    5    5    0  503 -0.15450434978E+02  0.54992217607E+01 -0.72194393118E+02  0.74182732348E+02  0.47000000000E+01 0.  1.
<mgrwt>
<rscale>  2 0.19202482E+03</rscale>
<asrwt>0</asrwt>
<pdfrwt beam="1">  1       21 0.15590319E-01 0.19466061E+03</pdfrwt>
<pdfrwt beam="2">  1       21 0.64622200E-01 0.19466061E+03</pdfrwt>
<totfact> 0.80636542E+04</totfact>
</mgrwt>
</event>
<event>
12    1  0.1441827E-001  0.2062392E+03  0.7546771E-02  0.1144869E+00
         21   -1    0    0  504  503  0.00000000000E+00  0.00000000000E+00  0.11480313424E+04  0.11480313424E+04  0.00000000000E+00 0.  1.
         21   -1    0    0  502  504 -0.00000000000E+00 -0.00000000000E+00 -0.40944764840E+02  0.40944764840E+02  0.00000000000E+00 0.  1.
          6    2    1    2  502    0  0.11113583881E+03 -0.71132776924E+01  0.36255920719E+03  0.41641179691E+03  0.17189482976E+03 0.  0.
         24    2    3    3    0    0  0.17313754768E+02 -0.33715896882E+02  0.26050252324E+03  0.27517462212E+03  0.80143497810E+02 0.  0.
         -6    2    1    2    0  503 -0.11113583881E+03  0.71132776924E+01  0.74452737034E+03  0.77256431030E+03  0.17358811879E+03 0.  0.
        -24    2    5    5    0    0 -0.12193855444E+03 -0.38290282403E+02  0.52493207162E+03  0.54801505701E+03  0.91824104193E+02 0.  0.
          4    1    4    4  501    0 -0.91237047492E+01 -0.18760887536E+02  0.10539549118E+02  0.23372954137E+02  0.00000000000E+00 0. -1.
         -3    1    4    4    0  501  0.26437459517E+02 -0.14955009347E+02  0.24996297412E+03  0.25180166799E+03  0.00000000000E+00 0.  1.
          5    1    3    3  502    0  0.93822084040E+02  0.26602619190E+02  0.10205668396E+03  0.14123717479E+03  0.47000000000E+01 0. -1.
         13    1    6    6    0    0 -0.36740917007E+02  0.18239729083E+02  0.27397180761E+03  0.27702551158E+03  0.00000000000E+00 0. -1.
        -14    1    6    6    0    0 -0.85197637432E+02 -0.56530011486E+02  0.25096026401E+03  0.27098954543E+03  0.00000000000E+00 0.  1.
         -5    1    5    5    0  503  0.10802715632E+02  0.45403560096E+02  0.21959529872E+03  0.22454925329E+03  0.47000000000E+01 0.  1.
<mgrwt>
<rscale>  2 0.20588248E+03</rscale>
<asrwt>0</asrwt>
<pdfrwt beam="1">  1       21 0.17662018E+00 0.20623920E+03</pdfrwt>
<pdfrwt beam="2">  1       21 0.62991955E-02 0.20623920E+03</pdfrwt>
<totfact> 0.34507460E+04</totfact>
</mgrwt>
</event>
<event>
12    1  0.1441827E-001  0.2375845E+03  0.7546771E-02  0.1121889E+00
         21   -1    0    0  504  503  0.00000000000E+00  0.00000000000E+00  0.55810257709E+03  0.55810257709E+03  0.00000000000E+00 0. -1.
         21   -1    0    0  502  504 -0.00000000000E+00 -0.00000000000E+00 -0.12853273086E+03  0.12853273086E+03  0.00000000000E+00 0.  1.
          6    2    1    2  502    0 -0.15421725809E+02  0.16244672974E+03  0.53878847968E+02  0.24361719664E+03  0.17268363736E+03 0.  0.
         24    2    3    3    0    0  0.40542879024E+02  0.35557728214E+02  0.60793026736E+01  0.96852956333E+02  0.80221319823E+02 0.  0.
         -6    2    1    2    0  503  0.15421725809E+02 -0.16244672974E+03  0.37569099826E+03  0.44301811131E+03  0.16880329127E+03 0.  0.
        -24    2    5    5    0    0  0.37975108388E+01 -0.20020063465E+02  0.20062468591E+03  0.21698541155E+03  0.80107304288E+02 0.  0.
          4    1    4    4  501    0  0.42528266012E+02 -0.13042648626E+02 -0.10055756371E+02  0.45605726936E+02  0.00000000000E+00 0. -1.
         -3    1    4    4    0  501 -0.19853869873E+01  0.48600376840E+02  0.16135059045E+02  0.51247229397E+02  0.00000000000E+00 0.  1.
          5    1    3    3  502    0 -0.55964604834E+02  0.12688900153E+03  0.47799545295E+02  0.14676424031E+03  0.47000000000E+01 0. -1.
         11    1    6    6    0    0 -0.30202723861E+02 -0.79070136318E+01  0.15835095182E+03  0.16139934738E+03  0.00000000000E+00 0. -1.
        -12    1    6    6    0    0  0.34000234700E+02 -0.12113049833E+02  0.42273734089E+02  0.55586064169E+02  0.00000000000E+00 0.  1.
         -5    1    5    5    0  503  0.11624214971E+02 -0.14242666628E+03  0.17506631235E+03  0.22603269976E+03  0.47000000000E+01 0.  1.
<mgrwt>
<rscale>  2 0.23688010E+03</rscale>
<asrwt>0</asrwt>
<pdfrwt beam="1">  1       21 0.85861934E-01 0.23758453E+03</pdfrwt>
<pdfrwt beam="2">  1       21 0.19774267E-01 0.23758453E+03</pdfrwt>
<totfact> 0.26946788E+04</totfact>
</mgrwt>
</event>
<event>
12    1  0.1441827E-001  0.2318207E+03  0.7546771E-02  0.1126233E+00
         21   -1    0    0  504  503  0.00000000000E+00  0.00000000000E+00  0.28954425112E+04  0.28954425112E+04  0.00000000000E+00 0. -1.
         21   -1    0    0  502  504 -0.00000000000E+00 -0.00000000000E+00 -0.22645450487E+02  0.22645450487E+02  0.00000000000E+00 0.  1.
          6    2    1    2  502    0  0.82248592525E+02 -0.12203241409E+03  0.20727562295E+04  0.20851376847E+04  0.17269636946E+03 0.  0.
         24    2    3    3    0    0  0.87062991040E+02 -0.15269033830E+03  0.18448588733E+04  0.18550890339E+04  0.83407179139E+02 0.  0.
         -6    2    1    2    0  503 -0.82248592525E+02  0.12203241409E+03  0.80004083120E+03  0.83295027701E+03  0.17912032637E+03 0.  0.
        -24    2    5    5    0    0 -0.32688631345E+02  0.14488261073E+03  0.49892408677E+03  0.52689194104E+03  0.81426995915E+02 0.  0.
          2    1    4    4  501    0  0.88290302476E+02 -0.11599949630E+03  0.16737454836E+04  0.16800818446E+04  0.00000000000E+00 0. -1.
         -1    1    4    4    0  501 -0.12273114363E+01 -0.36690842000E+02  0.17111338974E+03  0.17500718936E+03  0.00000000000E+00 0.  1.
          5    1    3    3  502    0 -0.48143985155E+01  0.30657924217E+02  0.22789735617E+03  0.23004865072E+03  0.47000000000E+01 0. -1.
         13    1    6    6    0    0 -0.36124065537E+02  0.47717058699E+02  0.29456368293E+03  0.30058215034E+03  0.00000000000E+00 0. -1.
        -14    1    6    6    0    0  0.34354341927E+01  0.97165552029E+02  0.20436040384E+03  0.22630979070E+03  0.00000000000E+00 0.  1.
         -5    1    5    5    0  503 -0.49559961180E+02 -0.22850196642E+02  0.30111674444E+03  0.30605833597E+03  0.47000000000E+01 0.  1.
<mgrwt>
<rscale>  2 0.23057902E+03</rscale>
<asrwt>0</asrwt>
<pdfrwt beam="1">  1       21 0.44545240E+00 0.23182069E+03</pdfrwt>
<pdfrwt beam="2">  1       21 0.34839178E-02 0.23182069E+03</pdfrwt>
<totfact> 0.20845139E+03</totfact>
</mgrwt>
</event>
<event>
12    1  0.1441827E-001  0.1913303E+03  0.7546771E-02  0.1157734E+00
         21   -1    0    0  504  503  0.00000000000E+00  0.00000000000E+00  0.21956933419E+02  0.21956933419E+02  0.00000000000E+00 0.  1.
         21   -1    0    0  502  504 -0.00000000000E+00 -0.00000000000E+00 -0.22281285282E+04  0.22281285282E+04  0.00000000000E+00 0.  1.
          6    2    1    2  502    0 -0.49645458667E+02  0.62455433993E+02 -0.16721099799E+04  0.16827856349E+04  0.17161105843E+03 0.  0.
         24    2    3    3    0    0 -0.60796932605E+02 -0.17579287403E+02 -0.10659596009E+04  0.10712545368E+04  0.85505049516E+02 0.  0.
         -6    2    1    2    0  503  0.49645458667E+02 -0.62455433993E+02 -0.53406161490E+03  0.56729982673E+03  0.17390207616E+03 0.  0.
        -24    2    5    5    0    0  0.10574285704E+02 -0.81396411315E+02 -0.49580704958E+03  0.50924107247E+03  0.82247481305E+02 0.  0.
          2    1    4    4  501    0 -0.51809880816E+02  0.27097367845E+02 -0.70704891367E+03  0.70946225934E+03  0.00000000000E+00 0. -1.
         -1    1    4    4    0  501 -0.89870517894E+01 -0.44676655248E+02 -0.35891068726E+03  0.36179227750E+03  0.00000000000E+00 0.  1.
          5    1    3    3  502    0  0.11151473939E+02  0.80034721395E+02 -0.60615037892E+03  0.61153109804E+03  0.47000000000E+01 0. -1.
         13    1    6    6    0    0  0.29493982648E+02 -0.88515815706E+02 -0.44251575623E+03  0.45224455680E+03  0.00000000000E+00 0. -1.
        -14    1    6    6    0    0 -0.18919696944E+02  0.71194043911E+01 -0.53291293344E+02  0.56996515662E+02  0.00000000000E+00 0.  1.
         -5    1    5    5    0  503  0.39071172963E+02  0.18940977322E+02 -0.38254565325E+02  0.58058754265E+02  0.47000000000E+01 0.  1.
<mgrwt>
<rscale>  2 0.19080819E+03</rscale>
<asrwt>0</asrwt>
<pdfrwt beam="1">  1       21 0.33779892E-02 0.19133030E+03</pdfrwt>
<pdfrwt beam="2">  1       21 0.34278906E+00 0.19133030E+03</pdfrwt>
<totfact> 0.10034924E+04</totfact>
</mgrwt>
</event>
<event>
12    1  0.1441827E-001  0.1845542E+03  0.7546771E-02  0.1163503E+00
         21   -1    0    0  504  503  0.00000000000E+00  0.00000000000E+00  0.10951056334E+03  0.10951056334E+03  0.00000000000E+00 0.  1.
         21   -1    0    0  502  504 -0.00000000000E+00 -0.00000000000E+00 -0.40097132952E+03  0.40097132952E+03  0.00000000000E+00 0.  1.
          6    2    1    2  502    0 -0.27305499954E+02 -0.55464564226E+02 -0.26684387733E+03  0.32444710715E+03  0.17389181192E+03 0.  0.
         24    2    3    3    0    0  0.22557169841E+02 -0.72103146241E+02 -0.98653185797E+02  0.14817082692E+03  0.80712163113E+02 0.  0.
         -6    2    1    2    0  503  0.27305499954E+02  0.55464564226E+02 -0.24616888840E+02  0.18603478571E+03  0.17372691808E+03 0.  0.
        -24    2    5    5    0    0 -0.25653639092E+02 -0.18099352627E+02  0.12260283567E+02  0.88063687342E+02  0.81358482723E+02 0.  0.
          4    1    4    4  501    0 -0.18676798887E+02 -0.40205041834E+02 -0.10186792220E+02  0.45486689716E+02  0.00000000000E+00 0. -1.
         -3    1    4    4    0  501  0.41233968727E+02 -0.31898104406E+02 -0.88466393577E+02  0.10268413721E+03  0.00000000000E+00 0.  1.
          5    1    3    3  502    0 -0.49862669794E+02  0.16638582015E+02 -0.16819069153E+03  0.17627628022E+03  0.47000000000E+01 0. -1.
         13    1    6    6    0    0 -0.38034291052E+02  0.21753435888E+02 -0.22708747035E+01  0.43874550034E+02  0.00000000000E+00 0. -1.
        -14    1    6    6    0    0  0.12380651961E+02 -0.39852788514E+02  0.14531158271E+02  0.44189137308E+02  0.00000000000E+00 0.  1.
         -5    1    5    5    0  503  0.52959139045E+02  0.73563916853E+02 -0.36877172407E+02  0.97971098370E+02  0.47000000000E+01 0.  1.
<mgrwt>
<rscale>  2 0.18451540E+03</rscale>
<asrwt>0</asrwt>
<pdfrwt beam="1">  1       21 0.16847779E-01 0.18455425E+03</pdfrwt>
<pdfrwt beam="2">  1       21 0.61687895E-01 0.18455425E+03</pdfrwt>
<totfact> 0.77682701E+04</totfact>
</mgrwt>
</event>
<event>
12    1  0.1441827E-001  0.1817956E+03  0.7546771E-02  0.1167566E+00
         21   -1    0    0  504  503  0.00000000000E+00  0.00000000000E+00  0.11345313573E+03  0.11345313573E+03  0.00000000000E+00 0. -1.
         21   -1    0    0  502  504 -0.00000000000E+00 -0.00000000000E+00 -0.30295892818E+03  0.30295892818E+03  0.00000000000E+00 0. -1.
          6    2    1    2  502    0  0.38768862824E+02  0.17174144268E+02 -0.14854657052E+03  0.23005943182E+03  0.17047956651E+03 0.  0.
         24    2    3    3    0    0  0.82866309811E+02  0.96222299696E+01 -0.14447982706E+03  0.18489036449E+03  0.79690738754E+02 0.  0.
         -6    2    1    2    0  503 -0.38768862824E+02 -0.17174144268E+02 -0.40959221929E+02  0.18635263209E+03  0.17678141778E+03 0.  0.
        -24    2    5    5    0    0  0.24915930150E+02 -0.28836186599E+02 -0.17181762397E+02  0.11722077497E+03  0.10951332290E+03 0.  0.
          4    1    4    4  501    0  0.94559209896E+02 -0.30456944462E+01 -0.13602018908E+03  0.16568709143E+03  0.00000000000E+00 0. -1.
         -3    1    4    4    0  501 -0.11692900085E+02  0.12667924416E+02 -0.84596379866E+01  0.19203273061E+02  0.00000000000E+00 0.  1.
          5    1    3    3  502    0 -0.44097446987E+02  0.75519142981E+01 -0.40667434598E+01  0.45169067322E+02  0.47000000000E+01 0. -1.
         13    1    6    6    0    0 -0.31629893817E+01  0.23765691575E+02  0.31959953773E+02  0.39953113058E+02  0.00000000000E+00 0. -1.
        -14    1    6    6    0    0  0.28078919532E+02 -0.52601878174E+02 -0.49141716169E+02  0.77267661913E+02  0.00000000000E+00 0.  1.
         -5    1    5    5    0  503 -0.63684792974E+02  0.11662042331E+02 -0.23777459532E+02  0.69131857123E+02  0.47000000000E+01 0.  1.
<mgrwt>
<rscale>  2 0.18024543E+03</rscale>
<asrwt>0</asrwt>
<pdfrwt beam="1">  1       21 0.17454329E-01 0.18179561E+03</pdfrwt>
<pdfrwt beam="2">  1       21 0.46609064E-01 0.18179561E+03</pdfrwt>
<totfact> 0.13148179E+05</totfact>
</mgrwt>
</event>
<event>
12    1  0.1441827E-001  0.2523281E+03  0.7546771E-02  0.1112156E+00
         21   -1    0    0  504  503  0.00000000000E+00  0.00000000000E+00  0.14555626273E+03  0.14555626273E+03  0.00000000000E+00 0. -1.
         21   -1    0    0  502  504 -0.00000000000E+00 -0.00000000000E+00 -0.59793522266E+03  0.59793522266E+03  0.00000000000E+00 0.  1.
          6    2    1    2  502    0  0.10530208992E+03  0.15151816840E+03 -0.42020800228E+03  0.48912082348E+03  0.16916893711E+03 0.  0.
         24    2    3    3    0    0  0.36815792703E+02  0.13537360869E+02 -0.21330283718E+03  0.23112680514E+03  0.79892659074E+02 0.  0.
         -6    2    1    2    0  503 -0.10530208992E+03 -0.15151816840E+03 -0.32170957657E+02  0.25437066191E+03  0.17211385077E+03 0.  0.
        -24    2    5    5    0    0 -0.42304598371E+02 -0.12745506500E+03  0.33825238711E+02  0.15989683050E+03  0.79927323190E+02 0.  0.
          2    1    4    4  501    0 -0.22217540197E+02  0.97022208420E+00 -0.25356772998E+02  0.33727234695E+02  0.00000000000E+00 0. -1.
         -1    1    4    4    0  501  0.59033332900E+02  0.12567138785E+02 -0.18794606418E+03  0.19739957044E+03  0.00000000000E+00 0.  1.
          5    1    3    3  502    0  0.68486297215E+02  0.13798080753E+03 -0.20690516510E+03  0.25799401834E+03  0.47000000000E+01 0. -1.
         11    1    6    6    0    0 -0.38688256713E+02 -0.12840921332E+03  0.85896575823E+01  0.13438560001E+03  0.00000000000E+00 0. -1.
        -12    1    6    6    0    0 -0.36163416579E+01  0.95414832305E+00  0.25235581128E+02  0.25511230486E+02  0.00000000000E+00 0.  1.
         -5    1    5    5    0  503 -0.62997491547E+02 -0.24063103403E+02 -0.65996196368E+02  0.94473831412E+02  0.47000000000E+01 0.  1.
<mgrwt>
<rscale>  2 0.25182673E+03</rscale>
<asrwt>0</asrwt>
<pdfrwt beam="1">  1       21 0.22393272E-01 0.25232809E+03</pdfrwt>
<pdfrwt beam="2">  1       21 0.91990033E-01 0.25232809E+03</pdfrwt>
<totfact> 0.18022414E+04</totfact>
</mgrwt>
</event>
<event>
12    1  0.1441827E-001  0.2453257E+03  0.7546771E-02  0.1116334E+00
         21   -1    0    0  504  503  0.00000000000E+00  0.00000000000E+00  0.78851006544E+02  0.78851006544E+02  0.00000000000E+00 0. -1.
         21   -1    0    0  502  504 -0.00000000000E+00 -0.00000000000E+00 -0.76750575575E+03  0.76750575575E+03  0.00000000000E+00 0.  1.
          6    2    1    2  502    0  0.16965266981E+03 -0.39292859033E+02 -0.31039064610E+03  0.39563499968E+03  0.17279682475E+03 0.  0.
         24    2    3    3    0    0  0.12567134410E+03  0.40188373183E+02 -0.20219364859E+03  0.25428329804E+03  0.79808095244E+02 0.  0.
         -6    2    1    2    0  503 -0.16965266981E+03  0.39292859033E+02 -0.37826410311E+03  0.45072176262E+03  0.17245410534E+03 0.  0.
        -24    2    5    5    0    0 -0.92293998902E+02  0.79932147753E+02 -0.16435549759E+03  0.21960513131E+03  0.79412553355E+02 0.  0.
          4    1    4    4  501    0  0.68873238971E+02  0.62272012679E+02 -0.13101587144E+03  0.16058170873E+03  0.00000000000E+00 0. -1.
         -3    1    4    4    0  501  0.56798105133E+02 -0.22083639496E+02 -0.71177777146E+02  0.93701589312E+02  0.00000000000E+00 0.  1.
          5    1    3    3  502    0  0.43981325706E+02 -0.79481232216E+02 -0.10819699751E+03  0.14135170164E+03  0.47000000000E+01 0. -1.
         11    1    6    6    0    0 -0.31404259759E+02  0.19413159202E+02 -0.32618375805E+01  0.37063969912E+02  0.00000000000E+00 0. -1.
        -12    1    6    6    0    0 -0.60889739143E+02  0.60518988551E+02 -0.16109366001E+03  0.18254116139E+03  0.00000000000E+00 0.  1.
         -5    1    5    5    0  503 -0.77358670907E+02 -0.40639288720E+02 -0.21390860552E+03  0.23111663131E+03  0.47000000000E+01 0.  1.
<mgrwt>
<rscale>  2 0.24526536E+03</rscale>
<asrwt>0</asrwt>
<pdfrwt beam="1">  1       21 0.12130925E-01 0.24532570E+03</pdfrwt>
<pdfrwt beam="2">  1       21 0.11807780E+00 0.24532570E+03</pdfrwt>
<totfact> 0.30748247E+04</totfact>
</mgrwt>
</event>
<event>
12    1  0.1441827E-001  0.1801808E+03  0.7546771E-02  0.1167974E+00
         21   -1    0    0  504  503  0.00000000000E+00  0.00000000000E+00  0.11221515492E+03  0.11221515492E+03  0.00000000000E+00 0.  1.
         21   -1    0    0  502  504 -0.00000000000E+00 -0.00000000000E+00 -0.31384388482E+03  0.31384388482E+03  0.00000000000E+00 0.  1.
          6    2    1    2  502    0  0.47183009351E+02  0.39244463012E+01 -0.38177035846E+02  0.18278640091E+03  0.17237095069E+03 0.  0.
         24    2    3    3    0    0  0.44078208493E+02 -0.47297887952E+02  0.22793517841E+02  0.10295617022E+03  0.76814385781E+02 0.  0.
         -6    2    1    2    0  503 -0.47183009351E+02 -0.39244463012E+01 -0.16345169405E+03  0.24327263883E+03  0.17384902319E+03 0.  0.
        -24    2    5    5    0    0 -0.91883511947E+02 -0.10854587625E+02 -0.15348397093E+03  0.19671506914E+03  0.81111572873E+02 0.  0.
          2    1    4    4  501    0  0.46991792447E+02 -0.33820250511E+02 -0.17406688032E+02  0.60456849821E+02  0.00000000000E+00 0. -1.
         -1    1    4    4    0  501 -0.29135839536E+01 -0.13477637441E+02  0.40200205874E+02  0.42499320403E+02  0.00000000000E+00 0.  1.
          5    1    3    3  502    0  0.31048008581E+01  0.51222334253E+02 -0.60970553687E+02  0.79830230687E+02  0.47000000000E+01 0. -1.
         11    1    6    6    0    0 -0.13483879892E+02 -0.34877053799E+02 -0.27579086827E+02  0.46463210488E+02  0.00000000000E+00 0. -1.
        -12    1    6    6    0    0 -0.78399632055E+02  0.24022466173E+02 -0.12590488410E+03  0.15025185865E+03  0.00000000000E+00 0.  1.
         -5    1    5    5    0  503  0.44700502596E+02  0.69301413243E+01 -0.99677231149E+01  0.46557569688E+02  0.47000000000E+01 0.  1.
<mgrwt>
<rscale>  2 0.17982331E+03</rscale>
<asrwt>0</asrwt>
<pdfrwt beam="1">  1       21 0.17263870E-01 0.18018080E+03</pdfrwt>
<pdfrwt beam="2">  1       21 0.48283674E-01 0.18018080E+03</pdfrwt>
<totfact> 0.12479901E+05</totfact>
</mgrwt>
</event>
<event>
12    1  0.1441827E-001  0.2318088E+03  0.7546771E-02  0.1125850E+00
         21   -1    0    0  504  503  0.00000000000E+00  0.00000000000E+00  0.13403471218E+03  0.13403471218E+03  0.00000000000E+00 0.  1.
         21   -1    0    0  502  504 -0.00000000000E+00 -0.00000000000E+00 -0.41319248925E+03  0.41319248925E+03  0.00000000000E+00 0.  1.
          6    2    1    2  502    0  0.42775764157E+02 -0.14632984623E+03 -0.83319822806E+02  0.24376746549E+03  0.17099179647E+03 0.  0.
         24    2    3    3    0    0  0.21104557137E+02 -0.14139128958E+03 -0.67097356787E+01  0.16385985631E+03  0.79800581799E+02 0.  0.
         -6    2    1    2    0  503 -0.42775764157E+02  0.14632984623E+03 -0.19583795426E+03  0.30345973594E+03  0.17462278520E+03 0.  0.
        -24    2    5    5    0    0 -0.67738212017E+02  0.66051013410E+02 -0.31425086753E+02  0.11873968883E+03  0.64500975860E+02 0.  0.
          2    1    4    4  501    0  0.43601753633E+02 -0.38410155227E+02 -0.63136783600E+01  0.58449255588E+02  0.00000000000E+00 0. -1.
         -1    1    4    4    0  501 -0.22497196496E+02 -0.10298113435E+03 -0.39605731869E+00  0.10541060072E+03  0.00000000000E+00 0.  1.
          5    1    3    3  502    0  0.21671207021E+02 -0.49385566547E+01 -0.76610087127E+02  0.79907609182E+02  0.47000000000E+01 0. -1.
         13    1    6    6    0    0 -0.13206337388E+02  0.46705227828E+01  0.18074642472E+02  0.22867309215E+02  0.00000000000E+00 0. -1.
        -14    1    6    6    0    0 -0.54531874630E+02  0.61380490627E+02 -0.49499729225E+02  0.95872379618E+02  0.00000000000E+00 0.  1.
         -5    1    5    5    0  503  0.24962447860E+02  0.80278832822E+02 -0.16441286751E+03  0.18472004711E+03  0.47000000000E+01 0.  1.
<mgrwt>
<rscale>  2 0.23112505E+03</rscale>
<asrwt>0</asrwt>
<pdfrwt beam="1">  1       21 0.20620725E-01 0.23180877E+03</pdfrwt>
<pdfrwt beam="2">  1       21 0.63568074E-01 0.23180877E+03</pdfrwt>
<totfact> 0.48962075E+04</totfact>
</mgrwt>
</event>
<event>
12    1  0.1441827E-001  0.3102694E+03  0.7546771E-02  0.1080291E+00
         21   -1    0    0  504  503  0.00000000000E+00  0.00000000000E+00  0.12683160628E+04  0.12683160628E+04  0.00000000000E+00 0. -1.
         21   -1    0    0  502  504 -0.00000000000E+00 -0.00000000000E+00 -0.76065545725E+02  0.76065545725E+02  0.00000000000E+00 0.  1.
          6    2    1    2  502    0  0.16624139671E+03  0.19482046590E+03  0.55338446426E+03  0.63443003084E+03  0.17514531918E+03 0.  0.
         24    2    3    3    0    0  0.23030659102E+02  0.70330872905E+02  0.12983376071E+03  0.17029183740E+03  0.81643502637E+02 0.  0.
         -6    2    1    2    0  503 -0.16624139671E+03 -0.19482046590E+03  0.63886605283E+03  0.70995157771E+03  0.17404078060E+03 0.  0.
        -24    2    5    5    0    0 -0.31862297632E+02 -0.26403737341E+02  0.14793580647E+03  0.17380184720E+03  0.81300159275E+02 0.  0.
          2    1    4    4  501    0 -0.15419273322E+02 -0.46179416581E+01  0.56034704472E+02  0.58300664492E+02  0.00000000000E+00 0. -1.
         -1    1    4    4    0  501  0.38449932424E+02  0.74948814563E+02  0.73799056239E+02  0.11199117291E+03  0.00000000000E+00 0.  1.
          5    1    3    3  502    0  0.14321073761E+03  0.12448959299E+03  0.42355070355E+03  0.46413819344E+03  0.47000000000E+01 0. -1.
         11    1    6    6    0    0 -0.28246851713E+02 -0.45940654853E+02  0.14370023664E+03  0.15348676298E+03  0.00000000000E+00 0. -1.
        -12    1    6    6    0    0 -0.36154459184E+01  0.19536917513E+02  0.42355698331E+01  0.20315084221E+02  0.00000000000E+00 0.  1.
         -5    1    5    5    0  503 -0.13437909908E+03 -0.16841672856E+03  0.49093024636E+03  0.53614973051E+03  0.47000000000E+01 0.  1.
<mgrwt>
<rscale>  2 0.31011374E+03</rscale>
<asrwt>0</asrwt>
<pdfrwt beam="1">  1       21 0.19512553E+00 0.31026940E+03</pdfrwt>
<pdfrwt beam="2">  1       21 0.11702393E-01 0.31026940E+03</pdfrwt>
<totfact> 0.81792725E+03</totfact>
</mgrwt>
</event>
<event>
12    1  0.1441827E-001  0.2301312E+03  0.7546771E-02  0.1126764E+00
         21   -1    0    0  504  503  0.00000000000E+00  0.00000000000E+00  0.53979747273E+02  0.53979747273E+02  0.00000000000E+00 0.  1.
         21   -1    0    0  502  504 -0.00000000000E+00 -0.00000000000E+00 -0.11103982128E+04  0.11103982128E+04  0.00000000000E+00 0. -1.
          6    2    1    2  502    0 -0.11130201014E+03  0.10068362957E+03 -0.73207863402E+03  0.76739786446E+03  0.17445637064E+03 0.  0.
         24    2    3    3    0    0 -0.10848533055E+03  0.10164295995E+03 -0.73930804519E+03  0.75827600146E+03  0.79408755544E+02 0.  0.
         -6    2    1    2    0  503  0.11130201014E+03 -0.10068362957E+03 -0.32433983147E+03  0.39698009558E+03  0.17283384878E+03 0.  0.
        -24    2    5    5    0    0 -0.53951971617E+01 -0.32602717626E+02 -0.17581863047E+03  0.19614711544E+03  0.80432920671E+02 0.  0.
          4    1    4    4  501    0 -0.10899369804E+03  0.11113791373E+03 -0.64624299806E+03  0.66472646602E+03  0.00000000000E+00 0. -1.
         -3    1    4    4    0  501  0.50836749230E+00 -0.94949537758E+01 -0.93065047128E+02  0.93549535443E+02  0.00000000000E+00 0.  1.
          5    1    3    3  502    0 -0.28166795903E+01 -0.95933038139E+00  0.72294111680E+01  0.91218629968E+01  0.47000000000E+01 0. -1.
         13    1    6    6    0    0  0.10051015544E+02  0.25191271219E+02 -0.56366638700E+02  0.62552546051E+02  0.00000000000E+00 0. -1.
        -14    1    6    6    0    0 -0.15446212706E+02 -0.57793988845E+02 -0.11945199177E+03  0.13359456939E+03  0.00000000000E+00 0.  1.
         -5    1    5    5    0  503  0.11669720730E+03 -0.68080911942E+02 -0.14852120099E+03  0.20083298013E+03  0.47000000000E+01 0.  1.
<mgrwt>
<rscale>  2 0.22982367E+03</rscale>
<asrwt>0</asrwt>
<pdfrwt beam="1">  1       21 0.83045765E-02 0.23013117E+03</pdfrwt>
<pdfrwt beam="2">  1       21 0.17083049E+00 0.23013117E+03</pdfrwt>
<totfact> 0.23098336E+04</totfact>
</mgrwt>
</event>
<event>
12    1  0.1441827E-001  0.1925624E+03  0.7546771E-02  0.1156284E+00
         21   -1    0    0  504  503  0.00000000000E+00  0.00000000000E+00  0.89452928836E+02  0.89452928836E+02  0.00000000000E+00 0.  1.
         21   -1    0    0  502  504 -0.00000000000E+00 -0.00000000000E+00 -0.60732043915E+03  0.60732043915E+03  0.00000000000E+00 0.  1.
          6    2    1    2  502    0 -0.74961123122E+01  0.84688422234E+02 -0.45602268366E+03  0.49501209987E+03  0.17277722780E+03 0.  0.
         24    2    3    3    0    0  0.14522376387E+01  0.10564159022E+03 -0.21500459201E+03  0.25287387754E+03  0.80968937104E+02 0.  0.
         -6    2    1    2    0  503  0.74961123122E+01 -0.84688422234E+02 -0.61844826659E+02  0.20176126812E+03  0.17220483782E+03 0.  0.
        -24    2    5    5    0    0 -0.42219557475E+02 -0.10265525667E+00 -0.12607431498E+02  0.91884924534E+02  0.80631200265E+02 0.  0.
          4    1    4    4  501    0  0.10674260943E+02  0.10450980615E+03 -0.12898130630E+03  0.16635028345E+03  0.00000000000E+00 0. -1.
         -3    1    4    4    0  501 -0.92220233039E+01  0.11317840658E+01 -0.86023285716E+02  0.86523594091E+02  0.00000000000E+00 0.  1.
          5    1    3    3  502    0 -0.89483499509E+01 -0.20953167981E+02 -0.24101809164E+03  0.24213822233E+03  0.47000000000E+01 0. -1.
         13    1    6    6    0    0 -0.54305149221E+02 -0.86492167435E+01 -0.34897026162E+02  0.65128032499E+02  0.00000000000E+00 0. -1.
        -14    1    6    6    0    0  0.12085591746E+02  0.85465614868E+01  0.22289594665E+02  0.26756892036E+02  0.00000000000E+00 0.  1.
         -5    1    5    5    0  503  0.49715669787E+02 -0.84585766977E+02 -0.49237395162E+02  0.10987634359E+03  0.47000000000E+01 0.  1.
<mgrwt>
<rscale>  2 0.19243395E+03</rscale>
<asrwt>0</asrwt>
<pdfrwt beam="1">  1       21 0.13761990E-01 0.19256243E+03</pdfrwt>
<pdfrwt beam="2">  1       21 0.93433908E-01 0.19256243E+03</pdfrwt>
<totfact> 0.44174921E+04</totfact>
</mgrwt>
</event>
<event>
12    1  0.1441827E-001  0.1973831E+03  0.7546771E-02  0.1153127E+00
         21   -1    0    0  504  503  0.00000000000E+00  0.00000000000E+00  0.13268834794E+03  0.13268834794E+03  0.00000000000E+00 0.  1.
         21   -1    0    0  502  504 -0.00000000000E+00 -0.00000000000E+00 -0.44413208512E+03  0.44413208512E+03  0.00000000000E+00 0. -1.
          6    2    1    2  502    0  0.82704693600E+02 -0.47717145675E+02 -0.32657314942E+03  0.37885835337E+03  0.16663324297E+03 0.  0.
         24    2    3    3    0    0  0.70067763350E+02  0.20970037330E+02 -0.26295054335E+03  0.28426687850E+03  0.79469717732E+02 0.  0.
         -6    2    1    2    0  503 -0.82704693600E+02  0.47717145675E+02  0.15129412239E+02  0.19796207968E+03  0.17275153702E+03 0.  0.
        -24    2    5    5    0    0 -0.54457272848E+02  0.11343203662E+02  0.74421996893E+02  0.12273787459E+03  0.80197814199E+02 0.  0.
          2    1    4    4  501    0  0.69775756725E+02 -0.24008104406E+01 -0.11539644285E+03  0.13487312237E+03  0.00000000000E+00 0. -1.
         -1    1    4    4    0  501  0.29200662596E+00  0.23370847771E+02 -0.14755410051E+03  0.14939375613E+03  0.00000000000E+00 0.  1.
          5    1    3    3  502    0  0.12636930250E+02 -0.68687183005E+02 -0.63622606064E+02  0.94591474868E+02  0.47000000000E+01 0. -1.
         13    1    6    6    0    0  0.32454626488E+01 -0.93681014196E+01 -0.12759418853E+02  0.16158499976E+02  0.00000000000E+00 0. -1.
        -14    1    6    6    0    0 -0.57702735496E+02  0.20711305082E+02  0.87181415746E+02  0.10657937462E+03  0.00000000000E+00 0.  1.
         -5    1    5    5    0  503 -0.28247420753E+02  0.36373942013E+02 -0.59292584654E+02  0.75224205092E+02  0.47000000000E+01 0.  1.
<mgrwt>
<rscale>  2 0.19603638E+03</rscale>
<asrwt>0</asrwt>
<pdfrwt beam="1">  1       21 0.20413592E-01 0.19738309E+03</pdfrwt>
<pdfrwt beam="2">  1       21 0.68328011E-01 0.19738309E+03</pdfrwt>
<totfact> 0.43309382E+04</totfact>
</mgrwt>
</event>
<event>
12    1  0.1441827E-001  0.2347693E+03  0.7546771E-02  0.1123333E+00
         21   -1    0    0  504  503  0.00000000000E+00  0.00000000000E+00  0.40653125023E+02  0.40653125023E+02  0.00000000000E+00 0. -1.
         21   -1    0    0  502  504 -0.00000000000E+00 -0.00000000000E+00 -0.13671647694E+04  0.13671647694E+04  0.00000000000E+00 0. -1.
          6    2    1    2  502    0  0.47175435111E+02  0.15152143422E+03 -0.72804048933E+03  0.76495724497E+03  0.17300972751E+03 0.  0.
         24    2    3    3    0    0  0.42238934049E+02  0.87963010616E+02 -0.22890327277E+03  0.26174348004E+03  0.81186958760E+02 0.  0.
         -6    2    1    2    0  503 -0.47175435111E+02 -0.15152143422E+03 -0.59847115505E+03  0.64286064946E+03  0.17296769783E+03 0.  0.
        -24    2    5    5    0    0 -0.45553805945E+02 -0.76150328842E+02 -0.16654437125E+03  0.20437887131E+03  0.78483588246E+02 0.  0.
          4    1    4    4  501    0 -0.79644606764E+00  0.61302492194E+02 -0.18445026282E+03  0.19437214135E+03  0.00000000000E+00 0. -1.
         -3    1    4    4    0  501  0.43035380117E+02  0.26660518422E+02 -0.44453009949E+02  0.67371338697E+02  0.00000000000E+00 0.  1.
          5    1    3    3  502    0  0.49365010616E+01  0.63558423607E+02 -0.49913721656E+03  0.50321376492E+03  0.47000000000E+01 0. -1.
         11    1    6    6    0    0 -0.90342384409E+01 -0.63903311759E+02 -0.14834776019E+03  0.16177857915E+03  0.00000000000E+00 0. -1.
        -12    1    6    6    0    0 -0.36519567504E+02 -0.12247017083E+02 -0.18196611059E+02  0.42600292160E+02  0.00000000000E+00 0.  1.
         -5    1    5    5    0  503 -0.16216291663E+01 -0.75371105381E+02 -0.43192678379E+03  0.43848177815E+03  0.47000000000E+01 0.  1.
<mgrwt>
<rscale>  2 0.23476157E+03</rscale>
<asrwt>0</asrwt>
<pdfrwt beam="1">  1       21 0.62543284E-02 0.23476932E+03</pdfrwt>
<pdfrwt beam="2">  1       21 0.21033299E+00 0.23476932E+03</pdfrwt>
<totfact> 0.20566599E+04</totfact>
</mgrwt>
</event>
<event>
12    1  0.1441827E-001  0.2135308E+03  0.7546771E-02  0.1139015E+00
         21   -1    0    0  504  503  0.00000000000E+00  0.00000000000E+00  0.14427708876E+03  0.14427708876E+03  0.00000000000E+00 0.  1.
         21   -1    0    0  502  504 -0.00000000000E+00 -0.00000000000E+00 -0.32719382316E+03  0.32719382316E+03  0.00000000000E+00 0.  1.
          6    2    1    2  502    0  0.81051405955E+02 -0.93089156200E+02 -0.44593129716E+02  0.21705232928E+03  0.17288217092E+03 0.  0.
         24    2    3    3    0    0  0.60037900877E+02 -0.48309610529E+01  0.21291164535E+02  0.10482975297E+03  0.83114834377E+02 0.  0.
         -6    2    1    2    0  503 -0.81051405955E+02  0.93089156200E+02 -0.13832360468E+03  0.25441858264E+03  0.17424257279E+03 0.  0.
        -24    2    5    5    0    0 -0.95343099901E+02  0.68057279939E+01 -0.68020233062E+02  0.14210769020E+03  0.80194880616E+02 0.  0.
          2    1    4    4  501    0  0.33849330218E+02  0.30434459221E+01  0.52997957528E+02  0.62958901050E+02  0.00000000000E+00 0. -1.
         -1    1    4    4    0  501  0.26188570659E+02 -0.78744069750E+01 -0.31706792993E+02  0.41870851917E+02  0.00000000000E+00 0.  1.
          5    1    3    3  502    0  0.21013505078E+02 -0.88258195147E+02 -0.65884294251E+02  0.11222257632E+03  0.47000000000E+01 0. -1.
         11    1    6    6    0    0 -0.33495286374E+02 -0.34527242154E+02 -0.13763057832E+02  0.50034852063E+02  0.00000000000E+00 0. -1.
        -12    1    6    6    0    0 -0.61847813528E+02  0.41332970148E+02 -0.54257175230E+02  0.92072838141E+02  0.00000000000E+00 0.  1.
         -5    1    5    5    0  503  0.14291693947E+02  0.86283428206E+02 -0.70303371616E+02  0.11231089243E+03  0.47000000000E+01 0.  1.
<mgrwt>
<rscale>  2 0.21325308E+03</rscale>
<asrwt>0</asrwt>
<pdfrwt beam="1">  1       21 0.22196475E-01 0.21353078E+03</pdfrwt>
<pdfrwt beam="2">  1       21 0.50337511E-01 0.21353078E+03</pdfrwt>
<totfact> 0.70669711E+04</totfact>
</mgrwt>
</event>
<event>
12    1  0.1441827E-001  0.1746311E+03  0.7546771E-02  0.1173549E+00
         21   -1    0    0  504  503  0.00000000000E+00  0.00000000000E+00  0.11182763968E+04  0.11182763968E+04  0.00000000000E+00 0.  1.
         21   -1    0    0  502  504 -0.00000000000E+00 -0.00000000000E+00 -0.33404819970E+02  0.33404819970E+02  0.00000000000E+00 0.  1.
          6    2    1    2  502    0 -0.64079559288E+01  0.17954223127E+02  0.28799123909E+03  0.33589062021E+03  0.17181425705E+03 0.  0.
         24    2    3    3    0    0  0.14523225092E+02  0.44505714842E+02  0.28754077675E+03  0.30175282638E+03  0.78634516699E+02 0.  0.
         -6    2    1    2    0  503  0.64079559288E+01 -0.17954223127E+02  0.79688033775E+03  0.81579059657E+03  0.17358746708E+03 0.  0.
        -24    2    5    5    0    0  0.50680581535E+01  0.22318936920E+02  0.19739739102E+03  0.21493652429E+03  0.81903353631E+02 0.  0.
          4    1    4    4  501    0  0.30343862590E+01 -0.93814148486E+01  0.18570918429E+03  0.18597074925E+03  0.00000000000E+00 0. -1.
         -3    1    4    4    0  501  0.11488838833E+02  0.53887129690E+02  0.10183159245E+03  0.11578207713E+03  0.00000000000E+00 0.  1.
          5    1    3    3  502    0 -0.20931181021E+02 -0.26551491715E+02  0.45046234158E+00  0.34137793829E+02  0.47000000000E+01 0. -1.
         13    1    6    6    0    0  0.14333726031E+02  0.51439820741E+02  0.14133107849E+03  0.15108270783E+03  0.00000000000E+00 0. -1.
        -14    1    6    6    0    0 -0.92656678778E+01 -0.29120883821E+02  0.56066312529E+02  0.63853816458E+02  0.00000000000E+00 0.  1.
         -5    1    5    5    0  503  0.13398977753E+01 -0.40273160047E+02  0.59948294673E+03  0.60085407228E+03  0.47000000000E+01 0.  1.
<mgrwt>
<rscale>  2 0.17418881E+03</rscale>
<asrwt>0</asrwt>
<pdfrwt beam="1">  1       21 0.17204249E+00 0.17463111E+03</pdfrwt>
<pdfrwt beam="2">  1       21 0.51392039E-02 0.17463111E+03</pdfrwt>
<totfact> 0.53585317E+04</totfact>
</mgrwt>
</event>
<event>
12    1  0.1441827E-001  0.2611192E+03  0.7546771E-02  0.1107019E+00
         21   -1    0    0  504  503  0.00000000000E+00  0.00000000000E+00  0.39050067682E+03  0.39050067682E+03  0.00000000000E+00 0.  1.
         21   -1    0    0  502  504 -0.00000000000E+00 -0.00000000000E+00 -0.23038124968E+03  0.23038124968E+03  0.00000000000E+00 0.  1.
          6    2    1    2  502    0 -0.14890811271E+03 -0.12649540792E+03 -0.76382905073E+02  0.26858005519E+03  0.16770862709E+03 0.  0.
         24    2    3    3    0    0 -0.99137545510E+02 -0.28917977198E+02  0.71965409646E+01  0.13071752168E+03  0.79817153150E+02 0.  0.
         -6    2    1    2    0  503  0.14890811271E+03  0.12649540792E+03  0.23650233221E+03  0.35230187131E+03  0.17322973512E+03 0.  0.
        -24    2    5    5    0    0  0.92130770462E+02  0.15504832975E+03  0.17285295613E+03  0.26223373592E+03  0.79751641909E+02 0.  0.
          2    1    4    4  501    0 -0.11292059158E+01 -0.12519548279E+02  0.26645134284E+02  0.29461455771E+02  0.00000000000E+00 0. -1.
         -1    1    4    4    0  501 -0.98008339594E+02 -0.16398428918E+02 -0.19448593320E+02  0.10125606591E+03  0.00000000000E+00 0.  1.
          5    1    3    3  502    0 -0.49770567200E+02 -0.97577430724E+02 -0.83579446038E+02  0.13786253351E+03  0.47000000000E+01 0. -1.
         13    1    6    6    0    0  0.33543826350E+02  0.71550459596E+02  0.25528374153E+02  0.83044292046E+02  0.00000000000E+00 0. -1.
        -14    1    6    6    0    0  0.58586944112E+02  0.83497870150E+02  0.14732458198E+03  0.17918944387E+03  0.00000000000E+00 0.  1.
         -5    1    5    5    0  503  0.56777342248E+02 -0.28552921824E+02  0.63649376079E+02  0.90068135390E+02  0.47000000000E+01 0.  1.
<mgrwt>
<rscale>  2 0.26020706E+03</rscale>
<asrwt>0</asrwt>
<pdfrwt beam="1">  1       21 0.60077027E-01 0.26111924E+03</pdfrwt>
<pdfrwt beam="2">  1       21 0.35443269E-01 0.26111924E+03</pdfrwt>
<totfact> 0.19115358E+04</totfact>
</mgrwt>
</event>
<event>
12    1  0.1441827E-001  0.2092418E+03  0.7546771E-02  0.1142521E+00
         21   -1    0    0  504  503  0.00000000000E+00  0.00000000000E+00  0.15502137206E+04  0.15502137206E+04  0.00000000000E+00 0. -1.
         21   -1    0    0  502  504 -0.00000000000E+00 -0.00000000000E+00 -0.30822767424E+02  0.30822767424E+02  0.00000000000E+00 0. -1.
          6    2    1    2  502    0 -0.53549066686E+02  0.10089346544E+03  0.52359114584E+03  0.56385265884E+03  0.17531440034E+03 0.  0.
         24    2    3    3    0    0  0.25724285454E+02  0.19446431344E+02  0.15199137138E+03  0.17523155017E+03  0.81023556132E+02 0.  0.
         -6    2    1    2    0  503  0.53549066686E+02 -0.10089346544E+03  0.99579980729E+03  0.10171838291E+04  0.17320130528E+03 0.  0.
        -24    2    5    5    0    0 -0.28591853247E+02 -0.42278470358E+02  0.31906878385E+03  0.33295446959E+03  0.80304588083E+02 0.  0.
          4    1    4    4  501    0  0.41515325240E+02  0.34128622846E+02  0.59148100134E+02  0.79917350285E+02  0.00000000000E+00 0. -1.
         -3    1    4    4    0  501 -0.15791039786E+02 -0.14682191501E+02  0.92843271245E+02  0.95314199888E+02  0.00000000000E+00 0.  1.
          5    1    3    3  502    0 -0.79273352140E+02  0.81447034093E+02  0.37159977446E+03  0.38862110866E+03  0.47000000000E+01 0. -1.
         11    1    6    6    0    0 -0.76931447522E+01 -0.49403068074E+02  0.29888972249E+03  0.30304275907E+03  0.00000000000E+00 0. -1.
        -12    1    6    6    0    0 -0.20898708495E+02  0.71245977159E+01  0.20179061356E+02  0.29911710526E+02  0.00000000000E+00 0.  1.
         -5    1    5    5    0  503  0.82140919933E+02 -0.58614995079E+02  0.67673102344E+03  0.68422935955E+03  0.47000000000E+01 0.  1.
<mgrwt>
<rscale>  2 0.20879858E+03</rscale>
<asrwt>0</asrwt>
<pdfrwt beam="1">  1       21 0.23849436E+00 0.20924180E+03</pdfrwt>
<pdfrwt beam="2">  1       21 0.47419654E-02 0.20924180E+03</pdfrwt>
<totfact> 0.22577580E+04</totfact>
</mgrwt>
</event>
<event>
12    1  0.1441827E-001  0.3385385E+03  0.7546771E-02  0.1067615E+00
         21   -1    0    0  504  503  0.00000000000E+00  0.00000000000E+00  0.95442054845E+03  0.95442054845E+03  0.00000000000E+00 0.  1.
         21   -1    0    0  502  504 -0.00000000000E+00 -0.00000000000E+00 -0.30112946036E+03  0.30112946036E+03  0.00000000000E+00 0. -1.
          6    2    1    2  502    0 -0.20726016912E+03  0.20348202971E+03 -0.16133842296E+03  0.37337682454E+03  0.17034803277E+03 0.  0.
         24    2    3    3    0    0 -0.26827772934E+02  0.39130628356E+02 -0.66708105198E+02  0.11156731410E+03  0.75804741281E+02 0.  0.
         -6    2    1    2    0  503  0.20726016912E+03 -0.20348202971E+03  0.81462951106E+03  0.88217318427E+03  0.17391541805E+03 0.  0.
        -24    2    5    5    0    0  0.22827366102E+03 -0.18392334473E+03  0.69521236739E+03  0.75926405848E+03  0.85000080433E+02 0.  0.
          2    1    4    4  501    0 -0.19815604041E+02  0.40487975877E+02 -0.60660323171E+00  0.45081063891E+02  0.00000000000E+00 0. -1.
         -1    1    4    4    0  501 -0.70121688935E+01 -0.13573475211E+01 -0.66101501966E+02  0.66486250210E+02  0.00000000000E+00 0.  1.
          5    1    3    3  502    0 -0.18043239618E+03  0.16435140135E+03 -0.94630317763E+02  0.26180951044E+03  0.47000000000E+01 0. -1.
         13    1    6    6    0    0  0.52837836507E+02 -0.69740161565E+02  0.13155507437E+03  0.15799450843E+03  0.00000000000E+00 0. -1.
        -14    1    6    6    0    0  0.17543582451E+03 -0.11418318317E+03  0.56365729302E+03  0.60126955005E+03  0.00000000000E+00 0.  1.
         -5    1    5    5    0  503 -0.21013491903E+02 -0.19558684972E+02  0.11941714367E+03  0.12290912578E+03  0.47000000000E+01 0.  1.
<mgrwt>
<rscale>  2 0.33808285E+03</rscale>
<asrwt>0</asrwt>
<pdfrwt beam="1">  1       21 0.14683393E+00 0.33853846E+03</pdfrwt>
<pdfrwt beam="2">  1       21 0.46327610E-01 0.33853846E+03</pdfrwt>
<totfact> 0.12632934E+03</totfact>
</mgrwt>
</event>
<event>
12    1  0.1441827E-001  0.1825724E+03  0.7546771E-02  0.1165663E+00
         21   -1    0    0  504  503  0.00000000000E+00  0.00000000000E+00  0.18910260884E+04  0.18910260884E+04  0.00000000000E+00 0. -1.
         21   -1    0    0  502  504 -0.00000000000E+00 -0.00000000000E+00 -0.38563059988E+02  0.38563059988E+02  0.00000000000E+00 0. -1.
          6    2    1    2  502    0  0.55442264654E+02 -0.33838980829E+01  0.21153296015E+03  0.27853367635E+03  0.17248049210E+03 0.  0.
         24    2    3    3    0    0  0.51163949330E+02 -0.56084272974E+01  0.34821278856E+02  0.10169374642E+03  0.80497779047E+02 0.  0.
         -6    2    1    2    0  503 -0.55442264654E+02  0.33838980829E+01  0.16409300683E+04  0.16510554721E+04  0.17391776031E+03 0.  0.
        -24    2    5    5    0    0 -0.11541890249E+02  0.33581360005E+01  0.15228088392E+04  0.15249525051E+04  0.79930529272E+02 0.  0.
          4    1    4    4  501    0  0.56792568046E+02 -0.72741382616E+01 -0.85813222323E+01  0.57896009914E+02  0.00000000000E+00 0. -1.
         -3    1    4    4    0  501 -0.56286187152E+01  0.16657109641E+01  0.43402601088E+02  0.43797736504E+02  0.00000000000E+00 0.  1.
          5    1    3    3  502    0  0.42783153238E+01  0.22245292146E+01  0.17671168129E+03  0.17683992993E+03  0.47000000000E+01 0. -1.
         11    1    6    6    0    0  0.14862715617E+01  0.33262312312E+02  0.32530325884E+03  0.32700275325E+03  0.00000000000E+00 0. -1.
        -12    1    6    6    0    0 -0.13028161811E+02 -0.29904176311E+02  0.11975055804E+04  0.11979497518E+04  0.00000000000E+00 0.  1.
         -5    1    5    5    0  503 -0.43900374405E+02  0.25762082352E-01  0.11812122907E+03  0.12610296703E+03  0.47000000000E+01 0.  1.
<mgrwt>
<rscale>  2 0.18222929E+03</rscale>
<asrwt>0</asrwt>
<pdfrwt beam="1">  1       21 0.29092702E+00 0.18257240E+03</pdfrwt>
<pdfrwt beam="2">  1       21 0.59327799E-02 0.18257240E+03</pdfrwt>
<totfact> 0.78257609E+03</totfact>
</mgrwt>
</event>
<event>
12    1  0.1441827E-001  0.1910610E+03  0.7546771E-02  0.1157863E+00
         21   -1    0    0  504  503  0.00000000000E+00  0.00000000000E+00  0.11600835505E+04  0.11600835505E+04  0.00000000000E+00 0. -1.
         21   -1    0    0  502  504 -0.00000000000E+00 -0.00000000000E+00 -0.37135060214E+02  0.37135060214E+02  0.00000000000E+00 0.  1.
          6    2    1    2  502    0 -0.74452318117E+02 -0.17085270075E+02  0.80258634183E+03  0.82501462722E+03  0.17512636841E+03 0.  0.
         24    2    3    3    0    0 -0.73444818550E+02  0.54338407957E+02  0.57060100302E+03  0.58223562429E+03  0.71175934141E+02 0.  0.
         -6    2    1    2    0  503  0.74452318117E+02  0.17085270075E+02  0.32036214845E+03  0.37220398349E+03  0.17340370537E+03 0.  0.
        -24    2    5    5    0    0  0.52639683996E+02 -0.19983562836E+02  0.31302254003E+03  0.32831948472E+03  0.81488001350E+02 0.  0.
          2    1    4    4  501    0 -0.78791950462E+02  0.21071702015E+02  0.42866515977E+03  0.43635536812E+03  0.00000000000E+00 0. -1.
         -1    1    4    4    0  501  0.53471319124E+01  0.33266705941E+02  0.14193584325E+03  0.14588025618E+03  0.00000000000E+00 0.  1.
          5    1    3    3  502    0 -0.10074995672E+01 -0.71423678032E+02  0.23198533882E+03  0.24277900293E+03  0.47000000000E+01 0. -1.
         11    1    6    6    0    0  0.58384223267E+02  0.16140151435E+02  0.16268454874E+03  0.17359574999E+03  0.00000000000E+00 0. -1.
        -12    1    6    6    0    0 -0.57445392708E+01 -0.36123714271E+02  0.15033799128E+03  0.15472373473E+03  0.00000000000E+00 0.  1.
         -5    1    5    5    0  503  0.21812634121E+02  0.37068832911E+02  0.73396084260E+01  0.43884498773E+02  0.47000000000E+01 0.  1.
<mgrwt>
<rscale>  2 0.19066532E+03</rscale>
<asrwt>0</asrwt>
<pdfrwt beam="1">  1       21 0.17847436E+00 0.19106098E+03</pdfrwt>
<pdfrwt beam="2">  1       21 0.57130871E-02 0.19106098E+03</pdfrwt>
<totfact> 0.40000628E+04</totfact>
</mgrwt>
</event>
<event>
12    1  0.1441827E-001  0.1750305E+03  0.7546771E-02  0.1173174E+00
         21   -1    0    0  504  503  0.00000000000E+00  0.00000000000E+00  0.21495774797E+03  0.21495774797E+03  0.00000000000E+00 0. -1.
         21   -1    0    0  502  504 -0.00000000000E+00 -0.00000000000E+00 -0.19263089333E+03  0.19263089333E+03  0.00000000000E+00 0. -1.
          6    2    1    2  502    0 -0.19851053423E+02  0.43622664949E+01 -0.94301125673E+02  0.19881744921E+03  0.17384643257E+03 0.  0.
         24    2    3    3    0    0  0.35154686234E+02  0.14677464245E+02 -0.10981724351E+03  0.14055189667E+03  0.79017268779E+02 0.  0.
         -6    2    1    2    0  503  0.19851053423E+02 -0.43622664949E+01  0.11662798032E+03  0.20877119208E+03  0.17195996965E+03 0.  0.
        -24    2    5    5    0    0 -0.30401411696E+02  0.42373522260E+02  0.35443662286E+02  0.10236382535E+03  0.80637077840E+02 0.  0.
          2    1    4    4  501    0  0.39610271409E+02  0.36810797084E+02 -0.10403035457E+03  0.11724471440E+03  0.00000000000E+00 0. -1.
         -1    1    4    4    0  501 -0.44555851755E+01 -0.22133332839E+02 -0.57868889405E+01  0.23307182272E+02  0.00000000000E+00 0.  1.
          5    1    3    3  502    0 -0.55005739656E+02 -0.10315197750E+02  0.15516117840E+02  0.58265552538E+02  0.47000000000E+01 0. -1.
         11    1    6    6    0    0 -0.20490037645E+02 -0.56211551092E+01  0.47378098217E+02  0.51924206476E+02  0.00000000000E+00 0. -1.
        -12    1    6    6    0    0 -0.99113740512E+01  0.47994677369E+02 -0.11934435931E+02  0.50439618876E+02  0.00000000000E+00 0.  1.
         -5    1    5    5    0  503  0.50252465119E+02 -0.46735788755E+02  0.81184318029E+02  0.10640736673E+03  0.47000000000E+01 0.  1.
<mgrwt>
<rscale>  2 0.17456022E+03</rscale>
<asrwt>0</asrwt>
<pdfrwt beam="1">  1       21 0.33070423E-01 0.17503050E+03</pdfrwt>
<pdfrwt beam="2">  1       21 0.29635522E-01 0.17503050E+03</pdfrwt>
<totfact> 0.96724080E+04</totfact>
</mgrwt>
</event>
<event>
12    1  0.1441827E-001  0.2432353E+03  0.7546771E-02  0.1117752E+00
         21   -1    0    0  504  503  0.00000000000E+00  0.00000000000E+00  0.80048982132E+03  0.80048982132E+03  0.00000000000E+00 0. -1.
         21   -1    0    0  502  504 -0.00000000000E+00 -0.00000000000E+00 -0.91189685738E+02  0.91189685738E+02  0.00000000000E+00 0.  1.
          6    2    1    2  502    0 -0.49312264646E+02 -0.16314454169E+03  0.15923071196E+03  0.29023144633E+03  0.17271951795E+03 0.  0.
         24    2    3    3    0    0 -0.14741341234E+02 -0.12638942874E+03  0.32122744032E+02  0.15339354009E+03  0.79411035876E+02 0.  0.
         -6    2    1    2    0  503  0.49312264646E+02  0.16314454169E+03  0.55006942362E+03  0.60144806073E+03  0.17353834741E+03 0.  0.
        -24    2    5    5    0    0  0.87774733617E+02  0.15864243840E+03  0.50311619180E+03  0.54040441707E+03  0.77712318232E+02 0.  0.
          2    1    4    4  501    0 -0.10695155118E+02 -0.90673592191E+02  0.58829162006E+02  0.10861379731E+03  0.00000000000E+00 0. -1.
         -1    1    4    4    0  501 -0.40461861165E+01 -0.35715836550E+02 -0.26706417974E+02  0.44779742781E+02  0.00000000000E+00 0.  1.
          5    1    3    3  502    0 -0.34570923412E+02 -0.36755112946E+02  0.12710796792E+03  0.13683790624E+03  0.47000000000E+01 0. -1.
         11    1    6    6    0    0  0.72153725376E+02  0.72916970819E+02  0.34426487382E+03  0.35922325657E+03  0.00000000000E+00 0. -1.
        -12    1    6    6    0    0  0.15621008241E+02  0.85725467586E+02  0.15885131798E+03  0.18118116049E+03  0.00000000000E+00 0.  1.
         -5    1    5    5    0  503 -0.38462468971E+02  0.45021032822E+01  0.46953231821E+02  0.61043643664E+02  0.47000000000E+01 0.  1.
<mgrwt>
<rscale>  2 0.24308926E+03</rscale>
<asrwt>0</asrwt>
<pdfrwt beam="1">  1       21 0.12315228E+00 0.24323527E+03</pdfrwt>
<pdfrwt beam="2">  1       21 0.14029183E-01 0.24323527E+03</pdfrwt>
<totfact> 0.21293128E+04</totfact>
</mgrwt>
</event>
<event>
12    1  0.1441827E-001  0.1927148E+03  0.7546771E-02  0.1157398E+00
         21   -1    0    0  504  503  0.00000000000E+00  0.00000000000E+00  0.76845006361E+03  0.76845006361E+03  0.00000000000E+00 0.  1.
         21   -1    0    0  502  504 -0.00000000000E+00 -0.00000000000E+00 -0.52416615842E+02  0.52416615842E+02  0.00000000000E+00 0.  1.
          6    2    1    2  502    0 -0.52777645439E+02  0.66995462337E+02  0.22906661476E+03  0.29935012516E+03  0.17281525281E+03 0.  0.
         24    2    3    3    0    0 -0.95943791685E+02  0.31769557647E+02  0.20634539407E+03  0.23899679541E+03  0.65776368128E+02 0.  0.
         -6    2    1    2    0  503  0.52777645439E+02 -0.66995462337E+02  0.48696683301E+03  0.52151655429E+03  0.16603899578E+03 0.  0.
        -24    2    5    5    0    0  0.50372749683E+02 -0.10304378263E+03  0.43711177567E+03  0.45976801858E+03  0.84643318895E+02 0.  0.
          4    1    4    4  501    0 -0.11513712797E+02  0.34215779785E+02  0.63778384130E+02  0.73286884577E+02  0.00000000000E+00 0. -1.
         -3    1    4    4    0  501 -0.84430078888E+02 -0.24462221382E+01  0.14256700994E+03  0.16570991083E+03  0.00000000000E+00 0.  1.
          5    1    3    3  502    0  0.43166146246E+02  0.35225904690E+02  0.22721220688E+02  0.60353329755E+02  0.47000000000E+01 0. -1.
         11    1    6    6    0    0  0.35864895689E+02  0.10387243329E+00  0.15346547053E+03  0.15760060970E+03  0.00000000000E+00 0. -1.
        -12    1    6    6    0    0  0.14507853994E+02 -0.10314765507E+03  0.28364630514E+03  0.30216740888E+03  0.00000000000E+00 0.  1.
         -5    1    5    5    0  503  0.24048957566E+01  0.36048320296E+02  0.49855057338E+02  0.61748535707E+02  0.47000000000E+01 0.  1.
<mgrwt>
<rscale>  2 0.19118350E+03</rscale>
<asrwt>0</asrwt>
<pdfrwt beam="1">  1       21 0.11822308E+00 0.19271477E+03</pdfrwt>
<pdfrwt beam="2">  1       21 0.80640953E-02 0.19271477E+03</pdfrwt>
<totfact> 0.64850361E+04</totfact>
</mgrwt>
</event>
<event>
12    1  0.1441827E-001  0.2283876E+03  0.7546771E-02  0.1128102E+00
         21   -1    0    0  504  503  0.00000000000E+00  0.00000000000E+00  0.15362884611E+04  0.15362884611E+04  0.00000000000E+00 0.  1.
         21   -1    0    0  502  504 -0.00000000000E+00 -0.00000000000E+00 -0.43656864193E+02  0.43656864193E+02  0.00000000000E+00 0. -1.
          6    2    1    2  502    0 -0.54386692144E+02  0.13647925356E+03  0.36647857083E+03  0.43086676757E+03  0.17249675238E+03 0.  0.
         24    2    3    3    0    0 -0.20078956056E+02  0.18229514626E+02  0.23865886138E+03  0.25332806858E+03  0.80508251355E+02 0.  0.
         -6    2    1    2    0  503  0.54386692144E+02 -0.13647925356E+03  0.11261530261E+04  0.11490785577E+04  0.17486107271E+03 0.  0.
        -24    2    5    5    0    0  0.19901701273E+02 -0.10168544951E+03  0.39816553531E+03  0.41942953243E+03  0.81543429006E+02 0.  0.
          2    1    4    4  501    0  0.29931721685E+02 -0.39594226831E+01  0.89012508276E+02  0.93993678620E+02  0.00000000000E+00 0. -1.
         -1    1    4    4    0  501 -0.50010677741E+02  0.22188937309E+02  0.14964635310E+03  0.15933438996E+03  0.00000000000E+00 0.  1.
          5    1    3    3  502    0 -0.34307736088E+02  0.11824973894E+03  0.12781970945E+03  0.17753869899E+03  0.47000000000E+01 0. -1.
         11    1    6    6    0    0  0.31674556350E+01 -0.10903805193E+03  0.29217067778E+03  0.31187022060E+03  0.00000000000E+00 0. -1.
        -12    1    6    6    0    0  0.16734245638E+02  0.73526024181E+01  0.10599485752E+03  0.10755931183E+03  0.00000000000E+00 0.  1.
         -5    1    5    5    0  503  0.34484990870E+02 -0.34793804055E+02  0.72798749078E+03  0.72964902530E+03  0.47000000000E+01 0.  1.
<mgrwt>
<rscale>  2 0.22793498E+03</rscale>
<asrwt>0</asrwt>
<pdfrwt beam="1">  1       21 0.23635203E+00 0.22838760E+03</pdfrwt>
<pdfrwt beam="2">  1       21 0.67164418E-02 0.22838760E+03</pdfrwt>
<totfact> 0.12626058E+04</totfact>
</mgrwt>
</event>
<event>
12    1  0.1441827E-001  0.2389049E+03  0.7546771E-02  0.1120586E+00
         21   -1    0    0  504  503  0.00000000000E+00  0.00000000000E+00  0.11545073626E+03  0.11545073626E+03  0.00000000000E+00 0.  1.
         21   -1    0    0  502  504 -0.00000000000E+00 -0.00000000000E+00 -0.89729366048E+03  0.89729366048E+03  0.00000000000E+00 0. -1.
          6    2    1    2  502    0  0.69651132935E+02  0.14928409508E+03 -0.73072890832E+03  0.76879144509E+03  0.17302753316E+03 0.  0.
         24    2    3    3    0    0  0.10117252951E+03  0.15570755355E+03 -0.57656301266E+03  0.61123487542E+03  0.81868445747E+02 0.  0.
         -6    2    1    2    0  503 -0.69651132935E+02 -0.14928409508E+03 -0.51114015905E+02  0.24395295165E+03  0.17252066147E+03 0.  0.
        -24    2    5    5    0    0 -0.11176996498E+03 -0.11647780085E+03 -0.18293353140E+02  0.18110762677E+03  0.80035757904E+02 0.  0.
          4    1    4    4  501    0  0.43931645715E+02  0.12761208626E+03 -0.32933332792E+03  0.35591470177E+03  0.00000000000E+00 0. -1.
         -3    1    4    4    0  501  0.57240883794E+02  0.28095467285E+02 -0.24722968474E+03  0.25532017366E+03  0.00000000000E+00 0.  1.
          5    1    3    3  502    0 -0.31521396574E+02 -0.64234584725E+01 -0.15416589567E+03  0.15755656967E+03  0.47000000000E+01 0. -1.
         13    1    6    6    0    0  0.38821278592E+01  0.83272709899E+01  0.29147312107E+01  0.96389842248E+01  0.00000000000E+00 0. -1.
        -14    1    6    6    0    0 -0.11565209284E+03 -0.12480507184E+03 -0.21208084350E+02  0.17146864255E+03  0.00000000000E+00 0.  1.
         -5    1    5    5    0  503  0.42118832048E+02 -0.32806294228E+02 -0.32820662766E+02  0.62845324873E+02  0.47000000000E+01 0.  1.
<mgrwt>
<rscale>  2 0.23881313E+03</rscale>
<asrwt>0</asrwt>
<pdfrwt beam="1">  1       21 0.17761651E-01 0.23890489E+03</pdfrwt>
<pdfrwt beam="2">  1       21 0.13804518E+00 0.23890489E+03</pdfrwt>
<totfact> 0.10344920E+04</totfact>
</mgrwt>
</event>
<event>
12    1  0.1441827E-001  0.2073742E+03  0.7546771E-02  0.1143698E+00
         21   -1    0    0  504  503  0.00000000000E+00  0.00000000000E+00  0.97944231092E+02  0.97944231092E+02  0.00000000000E+00 0. -1.
         21   -1    0    0  502  504 -0.00000000000E+00 -0.00000000000E+00 -0.61256624780E+03  0.61256624780E+03  0.00000000000E+00 0. -1.
          6    2    1    2  502    0 -0.70818285834E+02 -0.89584181319E+02 -0.44665825215E+03  0.49245064704E+03  0.17309965454E+03 0.  0.
         24    2    3    3    0    0 -0.18209201443E+02 -0.11952001315E+03 -0.33922622650E+03  0.36905048527E+03  0.80667337714E+02 0.  0.
         -6    2    1    2    0  503  0.70818285834E+02  0.89584181319E+02 -0.67963764556E+02  0.21805983186E+03  0.17288858211E+03 0.  0.
        -24    2    5    5    0    0  0.84596853995E+02  0.72502659131E+02  0.93004836715E+01  0.13760188386E+03  0.80215435917E+02 0.  0.
          2    1    4    4  501    0 -0.82999371347E+01 -0.31590059170E+02 -0.20942937049E+03  0.21196103892E+03  0.00000000000E+00 0. -1.
         -1    1    4    4    0  501 -0.99092643080E+01 -0.87929953980E+02 -0.12979685600E+03  0.15708944635E+03  0.00000000000E+00 0.  1.
          5    1    3    3  502    0 -0.52609084391E+02  0.29935831831E+02 -0.10743202566E+03  0.12340016177E+03  0.47000000000E+01 0. -1.
         11    1    6    6    0    0  0.80224877086E+02  0.17633529419E+02  0.29397084795E+01  0.82192543148E+02  0.00000000000E+00 0. -1.
        -12    1    6    6    0    0  0.43719769090E+01  0.54869129712E+02  0.63607751920E+01  0.55409340716E+02  0.00000000000E+00 0.  1.
         -5    1    5    5    0  503 -0.13778568161E+02  0.17081522187E+02 -0.77264248228E+02  0.80457947992E+02  0.47000000000E+01 0.  1.
<mgrwt>
<rscale>  2 0.20733012E+03</rscale>
<asrwt>0</asrwt>
<pdfrwt beam="1">  1       21 0.15068343E-01 0.20737417E+03</pdfrwt>
<pdfrwt beam="2">  1       21 0.94240962E-01 0.20737417E+03</pdfrwt>
<totfact> 0.36429712E+04</totfact>
</mgrwt>
</event>
<event>
12    1  0.1441827E-001  0.2166351E+03  0.7546771E-02  0.1137197E+00
         21   -1    0    0  504  503  0.00000000000E+00  0.00000000000E+00  0.44787197493E+03  0.44787197493E+03  0.00000000000E+00 0. -1.
         21   -1    0    0  502  504 -0.00000000000E+00 -0.00000000000E+00 -0.13959971151E+03  0.13959971151E+03  0.00000000000E+00 0.  1.
          6    2    1    2  502    0  0.44743838072E+01 -0.12684392005E+03  0.44681289380E+01  0.21668112975E+03  0.17556009697E+03 0.  0.
         24    2    3    3    0    0  0.12161561895E+02 -0.39125365488E+02  0.63955062150E+02  0.11031185437E+03  0.79998483910E+02 0.  0.
         -6    2    1    2    0  503 -0.44743838072E+01  0.12684392005E+03  0.30380413448E+03  0.37079055670E+03  0.17052649251E+03 0.  0.
        -24    2    5    5    0    0  0.21407292955E+02  0.59221578564E+02  0.27370090545E+03  0.29223524715E+03  0.80769960232E+02 0.  0.
          4    1    4    4  501    0  0.39167211409E+02 -0.26540409376E+02  0.65122716355E+02  0.80494918876E+02  0.00000000000E+00 0. -1.
         -3    1    4    4    0  501 -0.27005649514E+02 -0.12584956112E+02 -0.11676542053E+01  0.29816935495E+02  0.00000000000E+00 0.  1.
          5    1    3    3  502    0 -0.76871780876E+01 -0.87718554560E+02 -0.59486933212E+02  0.10636927538E+03  0.47000000000E+01 0. -1.
         13    1    6    6    0    0  0.22812174649E+02  0.32958728955E+02  0.38532032778E+02  0.55600275868E+02  0.00000000000E+00 0. -1.
        -14    1    6    6    0    0 -0.14048816935E+01  0.26262849609E+02  0.23516887267E+03  0.23663497129E+03  0.00000000000E+00 0.  1.
         -5    1    5    5    0  503 -0.25881676762E+02  0.67622341483E+02  0.30103229030E+02  0.78555309545E+02  0.47000000000E+01 0.  1.
<mgrwt>
<rscale>  2 0.21561316E+03</rscale>
<asrwt>0</asrwt>
<pdfrwt beam="1">  1       21 0.68903380E-01 0.21663506E+03</pdfrwt>
<pdfrwt beam="2">  1       21 0.21476879E-01 0.21663506E+03</pdfrwt>
<totfact> 0.38273649E+04</totfact>
</mgrwt>
</event>
<event>
12    1  0.1441827E-001  0.1792517E+03  0.7546771E-02  0.1171144E+00
         21   -1    0    0  504  503  0.00000000000E+00  0.00000000000E+00  0.53680989066E+03  0.53680989066E+03  0.00000000000E+00 0. -1.
         21   -1    0    0  502  504 -0.00000000000E+00 -0.00000000000E+00 -0.73833214259E+02  0.73833214259E+02  0.00000000000E+00 0. -1.
          6    2    1    2  502    0 -0.32740230872E+02 -0.15924767372E+02  0.37437953319E+03  0.41069153054E+03  0.16486957708E+03 0.  0.
         24    2    3    3    0    0  0.30361042570E+02 -0.46699229020E+02  0.21031302887E+03  0.23217333527E+03  0.81057242743E+02 0.  0.
         -6    2    1    2    0  503  0.32740230872E+02  0.15924767372E+02  0.88597143203E+02  0.19995157438E+03  0.17551540496E+03 0.  0.
        -24    2    5    5    0    0 -0.18637701800E+01 -0.52111172063E+02  0.71069892823E+02  0.12149381218E+03  0.83610817713E+02 0.  0.
          2    1    4    4  501    0  0.25816088434E+02 -0.65321521302E+02  0.19613115132E+03  0.20832858682E+03  0.00000000000E+00 0. -1.
         -1    1    4    4    0  501  0.45449541367E+01  0.18622292282E+02  0.14181877549E+02  0.23844748453E+02  0.00000000000E+00 0.  1.
          5    1    3    3  502    0 -0.63101273442E+02  0.30774461648E+02  0.16406650432E+03  0.17851819527E+03  0.47000000000E+01 0. -1.
         11    1    6    6    0    0 -0.21768736431E+02  0.97438342052E+01  0.46059137939E+02  0.51867758565E+02  0.00000000000E+00 0. -1.
        -12    1    6    6    0    0  0.19904966251E+02 -0.61855006268E+02  0.25010754883E+02  0.69626053613E+02  0.00000000000E+00 0.  1.
         -5    1    5    5    0  503  0.34604001052E+02  0.68035939435E+02  0.17527250380E+02  0.78457762201E+02  0.47000000000E+01 0.  1.
<mgrwt>
<rscale>  2 0.17659052E+03</rscale>
<asrwt>0</asrwt>
<pdfrwt beam="1">  1       21 0.82586135E-01 0.17925172E+03</pdfrwt>
<pdfrwt beam="2">  1       21 0.11358956E-01 0.17925172E+03</pdfrwt>
<totfact> 0.83293438E+04</totfact>
</mgrwt>
</event>
<event>
12    1  0.1441827E-001  0.2546736E+03  0.7546771E-02  0.1110414E+00
         21   -1    0    0  504  503  0.00000000000E+00  0.00000000000E+00  0.46703610384E+03  0.46703610384E+03  0.00000000000E+00 0.  1.
         21   -1    0    0  502  504 -0.00000000000E+00 -0.00000000000E+00 -0.19608807701E+03  0.19608807701E+03  0.00000000000E+00 0.  1.
          6    2    1    2  502    0  0.17897504096E+03 -0.53710358716E+02 -0.43745718952E+02  0.25840342743E+03  0.17303691936E+03 0.  0.
         24    2    3    3    0    0  0.99758248679E+02 -0.68019887436E+02 -0.85191188467E+02  0.16773987503E+03  0.79377035816E+02 0.  0.
         -6    2    1    2    0  503 -0.17897504096E+03  0.53710358716E+02  0.31469374579E+03  0.40472075342E+03  0.17277113964E+03 0.  0.
        -24    2    5    5    0    0 -0.14120192286E+03  0.23099614061E+02  0.11670414163E+03  0.20079478770E+03  0.78912070724E+02 0.  0.
          4    1    4    4  501    0  0.22344610516E+01  0.15116681413E+02 -0.15913096350E+02  0.22062037725E+02  0.00000000000E+00 0. -1.
         -3    1    4    4    0  501  0.97523787627E+02 -0.83136568849E+02 -0.69278092117E+02  0.14567783730E+03  0.00000000000E+00 0.  1.
          5    1    3    3  502    0  0.79216792278E+02  0.14309528720E+02  0.41445469515E+02  0.90663552403E+02  0.47000000000E+01 0. -1.
         13    1    6    6    0    0 -0.45657235773E+02  0.25132520468E+02  0.29156991744E+01  0.52198927816E+02  0.00000000000E+00 0. -1.
        -14    1    6    6    0    0 -0.95544687089E+02 -0.20329064072E+01  0.11378844246E+03  0.14859585989E+03  0.00000000000E+00 0.  1.
         -5    1    5    5    0  503 -0.37773118095E+02  0.30610744656E+02  0.19798960415E+03  0.20392596571E+03  0.47000000000E+01 0.  1.
<mgrwt>
<rscale>  2 0.25462846E+03</rscale>
<asrwt>0</asrwt>
<pdfrwt beam="1">  1       21 0.71851708E-01 0.25467360E+03</pdfrwt>
<pdfrwt beam="2">  1       21 0.30167397E-01 0.25467360E+03</pdfrwt>
<totfact> 0.17811471E+04</totfact>
</mgrwt>
</event>
<event>
12    1  0.1441827E-001  0.2214425E+03  0.7546771E-02  0.1132859E+00
         21   -1    0    0  504  503  0.00000000000E+00  0.00000000000E+00  0.12384311615E+03  0.12384311615E+03  0.00000000000E+00 0.  1.
         21   -1    0    0  502  504 -0.00000000000E+00 -0.00000000000E+00 -0.40379169558E+03  0.40379169558E+03  0.00000000000E+00 0.  1.
          6    2    1    2  502    0 -0.57108270633E+01  0.13859697026E+03 -0.17785194880E+03  0.28402126524E+03  0.17261236833E+03 0.  0.
         24    2    3    3    0    0 -0.27645774352E+02  0.15033505645E+03 -0.18913227864E+03  0.25630375415E+03  0.80967138579E+02 0.  0.
         -6    2    1    2    0  503  0.57108270633E+01 -0.13859697026E+03 -0.10209663062E+03  0.24361354649E+03  0.17228495099E+03 0.  0.
        -24    2    5    5    0    0  0.45506150163E+02 -0.20848389868E+02 -0.56303997770E+02  0.11107128474E+03  0.81616328433E+02 0.  0.
          2    1    4    4  501    0  0.49236572884E+01  0.34305379986E+02 -0.10162028359E+03  0.10736751620E+03  0.00000000000E+00 0. -1.
         -1    1    4    4    0  501 -0.32569431640E+02  0.11602967646E+03 -0.87511995046E+02  0.14893623795E+03  0.00000000000E+00 0.  1.
          5    1    3    3  502    0  0.21934947288E+02 -0.11738086187E+02  0.11280329834E+02  0.27717511091E+02  0.47000000000E+01 0. -1.
         11    1    6    6    0    0 -0.37209843288E+00  0.23847561546E+02  0.26775017496E+01  0.24000284676E+02  0.00000000000E+00 0. -1.
        -12    1    6    6    0    0  0.45878248596E+02 -0.44695951414E+02 -0.58981499520E+02  0.87071000067E+02  0.00000000000E+00 0.  1.
         -5    1    5    5    0  503 -0.39795323100E+02 -0.11774858039E+03 -0.45792632852E+02  0.13254226175E+03  0.47000000000E+01 0.  1.
<mgrwt>
<rscale>  2 0.22137865E+03</rscale>
<asrwt>0</asrwt>
<pdfrwt beam="1">  1       21 0.19052787E-01 0.22144246E+03</pdfrwt>
<pdfrwt beam="2">  1       21 0.62121800E-01 0.22144246E+03</pdfrwt>
<totfact> 0.59961117E+04</totfact>
</mgrwt>
</event>
<event>
12    1  0.1441827E-001  0.1773480E+03  0.7546771E-02  0.1170680E+00
         21   -1    0    0  504  503  0.00000000000E+00  0.00000000000E+00  0.45701819159E+03  0.45701819159E+03  0.00000000000E+00 0.  1.
         21   -1    0    0  502  504 -0.00000000000E+00 -0.00000000000E+00 -0.68429420308E+02  0.68429420308E+02  0.00000000000E+00 0.  1.
          6    2    1    2  502    0 -0.11671176241E+02 -0.31401042350E+02  0.20238407974E+03  0.26909411694E+03  0.17415535083E+03 0.  0.
         24    2    3    3    0    0 -0.22727181239E+02  0.20468916746E+02  0.33872525240E+02  0.92371277712E+02  0.80309424479E+02 0.  0.
         -6    2    1    2    0  503  0.11671176241E+02  0.31401042350E+02  0.18620469154E+03  0.25635349496E+03  0.17298174878E+03 0.  0.
        -24    2    5    5    0    0 -0.22793577872E+02 -0.10783191405E+02  0.22168025149E+02  0.83444713303E+02  0.76392240641E+02 0.  0.
          2    1    4    4  501    0 -0.34662057741E+01  0.47083903104E+02  0.36116097787E+02  0.59441408406E+02  0.00000000000E+00 0. -1.
         -1    1    4    4    0  501 -0.19260975464E+02 -0.26614986358E+02 -0.22435725467E+01  0.32929869305E+02  0.00000000000E+00 0.  1.
          5    1    3    3  502    0  0.11056004998E+02 -0.51869959096E+02  0.16851155450E+03  0.17672283923E+03  0.47000000000E+01 0. -1.
         13    1    6    6    0    0  0.16847063392E+02 -0.30125167655E+02  0.10245612783E+01  0.34531130839E+02  0.00000000000E+00 0. -1.
        -14    1    6    6    0    0 -0.39640641264E+02  0.19341976250E+02  0.21143463871E+02  0.48913582464E+02  0.00000000000E+00 0.  1.
         -5    1    5    5    0  503  0.34464754113E+02  0.42184233756E+02  0.16403666639E+03  0.17290878166E+03  0.47000000000E+01 0.  1.
<mgrwt>
<rscale>  2 0.17705925E+03</rscale>
<asrwt>0</asrwt>
<pdfrwt beam="1">  1       21 0.70310489E-01 0.17734804E+03</pdfrwt>
<pdfrwt beam="2">  1       21 0.10527603E-01 0.17734804E+03</pdfrwt>
<totfact> 0.13667350E+05</totfact>
</mgrwt>
</event>
<event>
12    1  0.1441827E-001  0.1759607E+03  0.7546771E-02  0.1171902E+00
         21   -1    0    0  504  503  0.00000000000E+00  0.00000000000E+00  0.22583993185E+03  0.22583993185E+03  0.00000000000E+00 0.  1.
         21   -1    0    0  502  504 -0.00000000000E+00 -0.00000000000E+00 -0.20852881778E+03  0.20852881778E+03  0.00000000000E+00 0. -1.
          6    2    1    2  502    0 -0.29637426255E+02  0.49748029430E+01 -0.11881240166E+03  0.21231713952E+03  0.17337547475E+03 0.  0.
         24    2    3    3    0    0  0.37043772793E+02 -0.37548744210E+02 -0.66067627539E+02  0.11713974953E+03  0.81084155146E+02 0.  0.
         -6    2    1    2    0  503  0.29637426255E+02 -0.49748029430E+01  0.13612351573E+03  0.22205161010E+03  0.17284148898E+03 0.  0.
        -24    2    5    5    0    0  0.33530087795E+02  0.58637756250E+02  0.10967555656E+03  0.15289024050E+03  0.82365312403E+02 0.  0.
          4    1    4    4  501    0  0.55031762882E+02 -0.26784072572E+02 -0.72812357426E+02  0.95118457007E+02  0.00000000000E+00 0. -1.
         -3    1    4    4    0  501 -0.17987990089E+02 -0.10764671638E+02  0.67447298878E+01  0.22021292518E+02  0.00000000000E+00 0.  1.
          5    1    3    3  502    0 -0.66681199049E+02  0.42523547153E+02 -0.52744774124E+02  0.95177389996E+02  0.47000000000E+01 0. -1.
         13    1    6    6    0    0 -0.15957172665E+01 -0.11619858825E+02 -0.59153209516E+01  0.13136150679E+02  0.00000000000E+00 0. -1.
        -14    1    6    6    0    0  0.35125805061E+02  0.70257615075E+02  0.11559087751E+03  0.13975408982E+03  0.00000000000E+00 0.  1.
         -5    1    5    5    0  503 -0.38926615394E+01 -0.63612559193E+02  0.26447959172E+02  0.69161369602E+02  0.47000000000E+01 0.  1.
<mgrwt>
<rscale>  2 0.17582906E+03</rscale>
<asrwt>0</asrwt>
<pdfrwt beam="1">  1       21 0.34744605E-01 0.17596074E+03</pdfrwt>
<pdfrwt beam="2">  1       21 0.32081357E-01 0.17596074E+03</pdfrwt>
<totfact> 0.75142101E+04</totfact>
</mgrwt>
</event>
<event>
12    1  0.1441827E-001  0.2009940E+03  0.7546771E-02  0.1151309E+00
         21   -1    0    0  504  503  0.00000000000E+00  0.00000000000E+00  0.30107106203E+03  0.30107106203E+03  0.00000000000E+00 0. -1.
         21   -1    0    0  502  504 -0.00000000000E+00 -0.00000000000E+00 -0.21179530014E+03  0.21179530014E+03  0.00000000000E+00 0. -1.
          6    2    1    2  502    0 -0.89839450492E+02  0.42921571468E+02 -0.11695938769E+03  0.23254692014E+03  0.17460006740E+03 0.  0.
         24    2    3    3    0    0 -0.24583237180E+02 -0.47393997394E+02 -0.54823466610E+02  0.10488236733E+03  0.71722883009E+02 0.  0.
         -6    2    1    2    0  503  0.89839450492E+02 -0.42921571468E+02  0.20623514958E+03  0.28031944202E+03  0.16165600666E+03 0.  0.
        -24    2    5    5    0    0  0.12445384380E+03 -0.24615334160E+02  0.15661397758E+03  0.21693470207E+03  0.80237479245E+02 0.  0.
          2    1    4    4  501    0 -0.37818191319E+02  0.17975351877E+01 -0.29485164466E+02  0.47987723962E+02  0.00000000000E+00 0. -1.
         -1    1    4    4    0  501  0.13234954140E+02 -0.49191532582E+02 -0.25338302143E+02  0.56894643371E+02  0.00000000000E+00 0.  1.
          5    1    3    3  502    0 -0.65256213313E+02  0.90315568862E+02 -0.62135921083E+02  0.12766455281E+03  0.47000000000E+01 0. -1.
         11    1    6    6    0    0  0.88688964125E+02 -0.44978222144E+02  0.71772011085E+02  0.12263765490E+03  0.00000000000E+00 0. -1.
        -12    1    6    6    0    0  0.35764879672E+02  0.20362887984E+02  0.84841966500E+02  0.94297047168E+02  0.00000000000E+00 0.  1.
         -5    1    5    5    0  503 -0.34614393305E+02 -0.18306237309E+02  0.49621171999E+02  0.63384739952E+02  0.47000000000E+01 0.  1.
<mgrwt>
<rscale>  2 0.19815018E+03</rscale>
<asrwt>0</asrwt>
<pdfrwt beam="1">  1       21 0.46318625E-01 0.20099396E+03</pdfrwt>
<pdfrwt beam="2">  1       21 0.32583892E-01 0.20099396E+03</pdfrwt>
<totfact> 0.40300612E+04</totfact>
</mgrwt>
</event>
<event>
12    1  0.1441827E-001  0.1892300E+03  0.7546771E-02  0.1159772E+00
         21   -1    0    0  504  503  0.00000000000E+00  0.00000000000E+00  0.94196217596E+02  0.94196217596E+02  0.00000000000E+00 0.  1.
         21   -1    0    0  502  504 -0.00000000000E+00 -0.00000000000E+00 -0.41175309959E+03  0.41175309959E+03  0.00000000000E+00 0. -1.
          6    2    1    2  502    0 -0.72750407945E+02 -0.22626399713E+01 -0.23564268253E+03  0.30221755879E+03  0.17467179972E+03 0.  0.
         24    2    3    3    0    0 -0.10299768222E+03  0.15272576960E+02 -0.23421517431E+03  0.26691162142E+03  0.74453284835E+02 0.  0.
         -6    2    1    2    0  503  0.72750407945E+02  0.22626399713E+01 -0.81914199460E+02  0.20373175839E+03  0.17175258923E+03 0.  0.
        -24    2    5    5    0    0  0.11077209782E+03 -0.28336421811E+02 -0.61975082699E+02  0.15080152261E+03  0.76333334053E+02 0.  0.
          2    1    4    4  501    0  0.11618281633E+02  0.21434011204E+01 -0.31870719821E+02  0.33990019393E+02  0.00000000000E+00 0. -1.
         -1    1    4    4    0  501 -0.11461596386E+03  0.13129175840E+02 -0.20234445449E+03  0.23292160203E+03  0.00000000000E+00 0.  1.
          5    1    3    3  502    0  0.30247274278E+02 -0.17535216932E+02 -0.14275082231E+01  0.35305937373E+02  0.47000000000E+01 0. -1.
         13    1    6    6    0    0  0.24473244932E+02 -0.19502727249E+02 -0.55620176799E+02  0.63819277298E+02  0.00000000000E+00 0. -1.
        -14    1    6    6    0    0  0.86298852890E+02 -0.88336945621E+01 -0.63549058998E+01  0.86982245307E+02  0.00000000000E+00 0.  1.
         -5    1    5    5    0  503 -0.38021689877E+02  0.30599061783E+02 -0.19939116761E+02  0.52930235785E+02  0.47000000000E+01 0.  1.
<mgrwt>
<rscale>  2 0.18855353E+03</rscale>
<asrwt>0</asrwt>
<pdfrwt beam="1">  1       21 0.14491726E-01 0.18922996E+03</pdfrwt>
<pdfrwt beam="2">  1       21 0.63346630E-01 0.18922996E+03</pdfrwt>
<totfact> 0.96396838E+04</totfact>
</mgrwt>
</event>
<event>
12    1  0.1441827E-001  0.2509889E+03  0.7546771E-02  0.1113076E+00
         21   -1    0    0  504  503  0.00000000000E+00  0.00000000000E+00  0.12290971699E+04  0.12290971699E+04  0.00000000000E+00 0. -1.
         21   -1    0    0  502  504 -0.00000000000E+00 -0.00000000000E+00 -0.11608182171E+03  0.11608182171E+03  0.00000000000E+00 0. -1.
          6    2    1    2  502    0 -0.98370751158E+02  0.15335076542E+03  0.50693520549E+02  0.25360989732E+03  0.16898190747E+03 0.  0.
         24    2    3    3    0    0 -0.22790606338E+02  0.39046730247E+02  0.82980190431E+02  0.11274723441E+03  0.61499333193E+02 0.  0.
         -6    2    1    2    0  503  0.98370751158E+02 -0.15335076542E+03  0.10623218276E+04  0.10915690943E+04  0.17263302172E+03 0.  0.
        -24    2    5    5    0    0  0.10207154689E+01 -0.11164084029E+03  0.72805367598E+03  0.74089255598E+03  0.79968151942E+02 0.  0.
          4    1    4    4  501    0  0.72205665912E+01  0.46385035465E+01  0.61840897078E+02  0.62433555469E+02  0.00000000000E+00 0. -1.
         -3    1    4    4    0  501 -0.30011172930E+02  0.34408226700E+02  0.21139293353E+02  0.50313678943E+02  0.00000000000E+00 0.  1.
          5    1    3    3  502    0 -0.75580144820E+02  0.11430403518E+03 -0.32286669882E+02  0.14086266290E+03  0.47000000000E+01 0. -1.
         11    1    6    6    0    0  0.18554051711E+02 -0.11654460193E+03  0.59413019770E+03  0.60573722760E+03  0.00000000000E+00 0. -1.
        -12    1    6    6    0    0 -0.17533336242E+02  0.49037616378E+01  0.13392347827E+03  0.13515532838E+03  0.00000000000E+00 0.  1.
         -5    1    5    5    0  503  0.97350035689E+02 -0.41709925129E+02  0.33426815165E+03  0.35067653829E+03  0.47000000000E+01 0.  1.
<mgrwt>
<rscale>  2 0.25036226E+03</rscale>
<asrwt>0</asrwt>
<pdfrwt beam="1">  1       21 0.18909186E+00 0.25098889E+03</pdfrwt>
<pdfrwt beam="2">  1       21 0.17858743E-01 0.25098889E+03</pdfrwt>
<totfact> 0.42932204E+03</totfact>
</mgrwt>
</event>
<event>
12    1  0.1441827E-001  0.1840420E+03  0.7546771E-02  0.1164920E+00
         21   -1    0    0  504  503  0.00000000000E+00  0.00000000000E+00  0.19351978840E+04  0.19351978840E+04  0.00000000000E+00 0. -1.
         21   -1    0    0  502  504 -0.00000000000E+00 -0.00000000000E+00 -0.20601005313E+02  0.20601005313E+02  0.00000000000E+00 0. -1.
          6    2    1    2  502    0  0.41529894108E+02  0.27591196404E+02  0.13684110685E+04  0.13807318008E+04  0.17715938330E+03 0.  0.
         24    2    3    3    0    0 -0.31941147060E+02 -0.56515951198E+01  0.97265384902E+03  0.97681479960E+03  0.84020624257E+02 0.  0.
         -6    2    1    2    0  503 -0.41529894108E+02 -0.27591196404E+02  0.54618581019E+03  0.57506708852E+03  0.17290809938E+03 0.  0.
        -24    2    5    5    0    0 -0.13409336380E+02  0.45727597812E+02  0.19149755993E+03  0.21175970321E+03  0.76811671910E+02 0.  0.
          4    1    4    4  501    0 -0.20614332378E+02 -0.42652338593E+02  0.38789839405E+03  0.39078042017E+03  0.00000000000E+00 0. -1.
         -3    1    4    4    0  501 -0.11326814682E+02  0.37000743474E+02  0.58475545498E+03  0.58603437943E+03  0.00000000000E+00 0.  1.
          5    1    3    3  502    0  0.73471041168E+02  0.33242791523E+02  0.39575721949E+03  0.40391700120E+03  0.47000000000E+01 0. -1.
         11    1    6    6    0    0 -0.16144156116E+02  0.55829752508E+02  0.75434988560E+02  0.95226217718E+02  0.00000000000E+00 0. -1.
        -12    1    6    6    0    0  0.27348197358E+01 -0.10102154695E+02  0.11606257137E+03  0.11653348550E+03  0.00000000000E+00 0.  1.
         -5    1    5    5    0  503 -0.28120557727E+02 -0.73318794216E+02  0.35468825025E+03  0.36330738531E+03  0.47000000000E+01 0.  1.
<mgrwt>
<rscale>  2 0.18301121E+03</rscale>
<asrwt>0</asrwt>
<pdfrwt beam="1">  1       21 0.29772261E+00 0.18404199E+03</pdfrwt>
<pdfrwt beam="2">  1       21 0.31693870E-02 0.18404199E+03</pdfrwt>
<totfact> 0.20502010E+04</totfact>
</mgrwt>
</event>
<event>
12    1  0.1441827E-001  0.1766333E+03  0.7546771E-02  0.1171431E+00
         21   -1    0    0  504  503  0.00000000000E+00  0.00000000000E+00  0.50340926842E+03  0.50340926842E+03  0.00000000000E+00 0. -1.
         21   -1    0    0  502  504 -0.00000000000E+00 -0.00000000000E+00 -0.62866484361E+02  0.62866484361E+02  0.00000000000E+00 0. -1.
          6    2    1    2  502    0 -0.26859787868E+02  0.10827593642E+02  0.17792249796E+03  0.24978130717E+03  0.17290344457E+03 0.  0.
         24    2    3    3    0    0 -0.71272016118E+01 -0.83488986714E+01  0.13782929846E+02  0.83285059049E+02  0.81399820601E+02 0.  0.
         -6    2    1    2    0  503  0.26859787868E+02 -0.10827593642E+02  0.26262028609E+03  0.31649444561E+03  0.17424303270E+03 0.  0.
        -24    2    5    5    0    0 -0.52142770835E+02 -0.16834843483E+02  0.15482973718E+03  0.18263487827E+03  0.79880978585E+02 0.  0.
          2    1    4    4  501    0 -0.40765097147E+02 -0.12720029084E+02 -0.73334222936E+01  0.43328643734E+02  0.00000000000E+00 0. -1.
         -1    1    4    4    0  501  0.33637895536E+02  0.43711304123E+01  0.21116352140E+02  0.39956415315E+02  0.00000000000E+00 0.  1.
          5    1    3    3  502    0 -0.19732586256E+02  0.19176492314E+02  0.16413956812E+03  0.16649624812E+03  0.47000000000E+01 0. -1.
         13    1    6    6    0    0  0.20710652705E+02  0.66711544366E+00  0.46612029553E+02  0.51010366373E+02  0.00000000000E+00 0. -1.
        -14    1    6    6    0    0 -0.72853423541E+02 -0.17501958927E+02  0.10821770763E+03  0.13162451190E+03  0.00000000000E+00 0.  1.
         -5    1    5    5    0  503  0.79002558703E+02  0.60072498405E+01  0.10779054891E+03  0.13385956733E+03  0.47000000000E+01 0.  1.
<mgrwt>
<rscale>  2 0.17630203E+03</rscale>
<asrwt>0</asrwt>
<pdfrwt beam="1">  1       21 0.77447577E-01 0.17663329E+03</pdfrwt>
<pdfrwt beam="2">  1       21 0.96717671E-02 0.17663329E+03</pdfrwt>
<totfact> 0.12808793E+05</totfact>
</mgrwt>
</event>
<event>
12    1  0.1441827E-001  0.1765352E+03  0.7546771E-02  0.1171600E+00
         21   -1    0    0  504  503  0.00000000000E+00  0.00000000000E+00  0.28933472588E+03  0.28933472588E+03  0.00000000000E+00 0.  1.
         21   -1    0    0  502  504 -0.00000000000E+00 -0.00000000000E+00 -0.11253782220E+03  0.11253782220E+03  0.00000000000E+00 0.  1.
          6    2    1    2  502    0  0.19278362597E+02  0.19147724525E+02  0.43145010231E+02  0.18173098726E+03  0.17443156023E+03 0.  0.
         24    2    3    3    0    0 -0.24217141360E+02 -0.33344297787E+02  0.23461481214E+02  0.11061978853E+03  0.99939903856E+02 0.  0.
         -6    2    1    2    0  503 -0.19278362597E+02 -0.19147724525E+02  0.13365189345E+03  0.22014156081E+03  0.17280389913E+03 0.  0.
        -24    2    5    5    0    0 -0.28052844763E+00 -0.13154103399E+02  0.16382035937E+03  0.18368518233E+03  0.82036741344E+02 0.  0.
          2    1    4    4  501    0  0.34364900712E+02 -0.31712779795E+02  0.22770439722E+02  0.52010957772E+02  0.00000000000E+00 0. -1.
         -1    1    4    4    0  501 -0.58582042072E+02 -0.16315179924E+01  0.69104149128E+00  0.58608830756E+02  0.00000000000E+00 0.  1.
          5    1    3    3  502    0  0.43495503957E+02  0.52492022312E+02  0.19683529018E+02  0.71111198735E+02  0.47000000000E+01 0. -1.
         11    1    6    6    0    0 -0.25058451990E+02 -0.79423611195E+01  0.10529816132E+02  0.28317558935E+02  0.00000000000E+00 0. -1.
        -12    1    6    6    0    0  0.24777923542E+02 -0.52117422796E+01  0.15329054323E+03  0.15536762339E+03  0.00000000000E+00 0.  1.
         -5    1    5    5    0  503 -0.18997834149E+02 -0.59936211256E+01 -0.30168465918E+02  0.36456378488E+02  0.47000000000E+01 0.  1.
<mgrwt>
<rscale>  2 0.17613175E+03</rscale>
<asrwt>0</asrwt>
<pdfrwt beam="1">  1       21 0.44513034E-01 0.17653515E+03</pdfrwt>
<pdfrwt beam="2">  1       21 0.17313511E-01 0.17653515E+03</pdfrwt>
<totfact> 0.14694344E+05</totfact>
</mgrwt>
</event>
<event>
12    1  0.1441827E-001  0.2281640E+03  0.7546771E-02  0.1128025E+00
         21   -1    0    0  504  503  0.00000000000E+00  0.00000000000E+00  0.53338586833E+02  0.53338586833E+02  0.00000000000E+00 0. -1.
         21   -1    0    0  502  504 -0.00000000000E+00 -0.00000000000E+00 -0.29007837265E+04  0.29007837265E+04  0.00000000000E+00 0. -1.
          6    2    1    2  502    0 -0.13749007110E+03  0.55611444972E+02 -0.26270419819E+04  0.26368899508E+04  0.17275093538E+03 0.  0.
         24    2    3    3    0    0 -0.10808017700E+03  0.76206957468E+02 -0.12849734598E+04  0.12943330154E+04  0.81561861214E+02 0.  0.
         -6    2    1    2    0  503  0.13749007110E+03 -0.55611444972E+02 -0.22040315774E+03  0.31723236247E+03  0.17338589157E+03 0.  0.
        -24    2    5    5    0    0  0.71680300326E+02  0.29320801840E+02 -0.68069662101E+02  0.13075985412E+03  0.80416948931E+02 0.  0.
          2    1    4    4  501    0 -0.43897738621E+02  0.45990870193E+02 -0.29262088102E+03  0.29944807831E+03  0.00000000000E+00 0. -1.
         -1    1    4    4    0  501 -0.64182438375E+02  0.30216087274E+02 -0.99235257881E+03  0.99488493707E+03  0.00000000000E+00 0.  1.
          5    1    3    3  502    0 -0.29409894104E+02 -0.20595512495E+02 -0.13420685221E+04  0.13425569355E+04  0.47000000000E+01 0. -1.
         13    1    6    6    0    0 -0.10712831527E+02 -0.14658005897E+02 -0.91354402847E+01  0.20324324476E+02  0.00000000000E+00 0. -1.
        -14    1    6    6    0    0  0.82393131853E+02  0.43978807737E+02 -0.58934221816E+02  0.11043552964E+03  0.00000000000E+00 0.  1.
         -5    1    5    5    0  503  0.65809770774E+02 -0.84932246812E+02 -0.15233349563E+03  0.18647250835E+03  0.47000000000E+01 0.  1.
<mgrwt>
<rscale>  2 0.22804339E+03</rscale>
<asrwt>0</asrwt>
<pdfrwt beam="1">  1       21 0.82059338E-02 0.22816402E+03</pdfrwt>
<pdfrwt beam="2">  1       21 0.44627456E+00 0.22816402E+03</pdfrwt>
<totfact> 0.47847452E+02</totfact>
</mgrwt>
</event>
<event>
12    1  0.1441827E-001  0.1774973E+03  0.7546771E-02  0.1170250E+00
         21   -1    0    0  504  503  0.00000000000E+00  0.00000000000E+00  0.50326296697E+03  0.50326296697E+03  0.00000000000E+00 0. -1.
         21   -1    0    0  502  504 -0.00000000000E+00 -0.00000000000E+00 -0.67620163800E+02  0.67620163800E+02  0.00000000000E+00 0. -1.
          6    2    1    2  502    0  0.86088773277E+01  0.38190877864E+02  0.14003876318E+03  0.22608878561E+03  0.17312604618E+03 0.  0.
         24    2    3    3    0    0  0.34380885180E+02 -0.38592928489E+02  0.63762408936E+02  0.11473295270E+03  0.80165742354E+02 0.  0.
         -6    2    1    2    0  503 -0.86088773277E+01 -0.38190877864E+02  0.29560403999E+03  0.34479434516E+03  0.17311480605E+03 0.  0.
        -24    2    5    5    0    0 -0.39431772205E+01 -0.94893191796E+01  0.30440410768E+03  0.31405220113E+03  0.76559313158E+02 0.  0.
          2    1    4    4  501    0  0.53085369566E+02 -0.27929680222E+02  0.15603939195E+02  0.61980693911E+02  0.00000000000E+00 0. -1.
         -1    1    4    4    0  501 -0.18704484386E+02 -0.10663248267E+02  0.48158469741E+02  0.52752258791E+02  0.00000000000E+00 0.  1.
          5    1    3    3  502    0 -0.25772007852E+02  0.76783806353E+02  0.76276354246E+02  0.11135583291E+03  0.47000000000E+01 0. -1.
         11    1    6    6    0    0  0.42671511424E+01 -0.28949934044E+02  0.28102698588E+03  0.28254641044E+03  0.00000000000E+00 0. -1.
        -12    1    6    6    0    0 -0.82103283630E+01  0.19460614865E+02  0.23377121801E+02  0.31505790681E+02  0.00000000000E+00 0.  1.
         -5    1    5    5    0  503 -0.46657001072E+01 -0.28701558684E+02 -0.88000676930E+01  0.30742144034E+02  0.47000000000E+01 0.  1.
<mgrwt>
<rscale>  2 0.17749454E+03</rscale>
<asrwt>0</asrwt>
<pdfrwt beam="1">  1       21 0.77425069E-01 0.17749728E+03</pdfrwt>
<pdfrwt beam="2">  1       21 0.10403102E-01 0.17749728E+03</pdfrwt>
<totfact> 0.11267375E+05</totfact>
</mgrwt>
</event>
<event>
12    1  0.1441827E-001  0.1851838E+03  0.7546771E-02  0.1163095E+00
         21   -1    0    0  504  503  0.00000000000E+00  0.00000000000E+00  0.92984693219E+02  0.92984693219E+02  0.00000000000E+00 0.  1.
         21   -1    0    0  502  504 -0.00000000000E+00 -0.00000000000E+00 -0.20464248200E+04  0.20464248200E+04  0.00000000000E+00 0. -1.
          6    2    1    2  502    0 -0.21673015186E+02  0.59095389678E+02 -0.19462189023E+04  0.19550092194E+04  0.17415811101E+03 0.  0.
         24    2    3    3    0    0  0.36269999690E+02  0.71664730335E+01 -0.59152735391E+03  0.59807691210E+03  0.80153048232E+02 0.  0.
         -6    2    1    2    0  503  0.21673015186E+02 -0.59095389678E+02 -0.72212244729E+01  0.18440029380E+03  0.17317429833E+03 0.  0.
        -24    2    5    5    0    0  0.62538380667E+02 -0.24686212246E+02 -0.49312901170E+02  0.11622574698E+03  0.80970389079E+02 0.  0.
          4    1    4    4  501    0 -0.72408922270E+01  0.19808261525E+02 -0.45248432143E+02  0.49922122915E+02  0.00000000000E+00 0. -1.
         -3    1    4    4    0  501  0.43510891917E+02 -0.12641788491E+02 -0.54627892177E+03  0.54815478918E+03  0.00000000000E+00 0.  1.
          5    1    3    3  502    0 -0.57943014876E+02  0.51928916645E+02 -0.13546915484E+04  0.13569323073E+04  0.47000000000E+01 0. -1.
         11    1    6    6    0    0  0.16689702247E+02 -0.15229935900E+02 -0.63426609792E+02  0.67330765169E+02  0.00000000000E+00 0. -1.
        -12    1    6    6    0    0  0.45848678420E+02 -0.94562763462E+01  0.14113708621E+02  0.48894981811E+02  0.00000000000E+00 0.  1.
         -5    1    5    5    0  503 -0.40865365481E+02 -0.34409177432E+02  0.42091676698E+02  0.68174546824E+02  0.47000000000E+01 0.  1.
<mgrwt>
<rscale>  2 0.18495211E+03</rscale>
<asrwt>0</asrwt>
<pdfrwt beam="1">  1       21 0.14305338E-01 0.18518378E+03</pdfrwt>
<pdfrwt beam="2">  1       21 0.31483457E+00 0.18518378E+03</pdfrwt>
<totfact> 0.12113531E+03</totfact>
</mgrwt>
</event>
<event>
12    1  0.1441827E-001  0.1927499E+03  0.7546771E-02  0.1158983E+00
         21   -1    0    0  504  503  0.00000000000E+00  0.00000000000E+00  0.43112556074E+03  0.43112556074E+03  0.00000000000E+00 0. -1.
         21   -1    0    0  502  504 -0.00000000000E+00 -0.00000000000E+00 -0.92937298914E+02  0.92937298914E+02  0.00000000000E+00 0. -1.
          6    2    1    2  502    0 -0.68258578027E+02  0.51350867862E+02  0.78290923480E+02  0.20804326284E+03  0.17279000379E+03 0.  0.
         24    2    3    3    0    0 -0.92493528532E+02  0.34398549974E+01  0.90676495109E+02  0.15274145126E+03  0.80875452052E+02 0.  0.
         -6    2    1    2    0  503  0.68258578027E+02 -0.51350867862E+02  0.25989733835E+03  0.31601959681E+03  0.15819486081E+03 0.  0.
        -24    2    5    5    0    0  0.63527674011E+02 -0.55883115748E+02  0.27530175411E+03  0.29863256864E+03  0.78940909805E+02 0.  0.
          4    1    4    4  501    0 -0.86711497857E+02 -0.15832648104E+02  0.37325513928E+02  0.95722257582E+02  0.00000000000E+00 0. -1.
         -3    1    4    4    0  501 -0.57820306746E+01  0.19272503101E+02  0.53350981181E+02  0.57019193677E+02  0.00000000000E+00 0.  1.
          5    1    3    3  502    0  0.24234950505E+02  0.47911012865E+02 -0.12385571629E+02  0.55301811582E+02  0.47000000000E+01 0. -1.
         11    1    6    6    0    0  0.64667574124E+02 -0.72914250746E+02  0.24764675162E+03  0.26613398260E+03  0.00000000000E+00 0. -1.
        -12    1    6    6    0    0 -0.11399001132E+01  0.17031134998E+02  0.27655002496E+02  0.32498586041E+02  0.00000000000E+00 0.  1.
         -5    1    5    5    0  503  0.47309040158E+01  0.45322478858E+01 -0.15404415768E+02  0.17387028178E+02  0.47000000000E+01 0.  1.
<mgrwt>
<rscale>  2 0.18942292E+03</rscale>
<asrwt>0</asrwt>
<pdfrwt beam="1">  1       21 0.66327008E-01 0.19274992E+03</pdfrwt>
<pdfrwt beam="2">  1       21 0.14298046E-01 0.19274992E+03</pdfrwt>
<totfact> 0.89260253E+04</totfact>
</mgrwt>
</event>
<event>
12    1  0.1441827E-001  0.2169467E+03  0.7546771E-02  0.1136258E+00
         21   -1    0    0  504  503  0.00000000000E+00  0.00000000000E+00  0.81393418234E+02  0.81393418234E+02  0.00000000000E+00 0. -1.
         21   -1    0    0  502  504 -0.00000000000E+00 -0.00000000000E+00 -0.67468516440E+03  0.67468516440E+03  0.00000000000E+00 0. -1.
          6    2    1    2  502    0 -0.33394136554E+02  0.12507561047E+03 -0.44061873405E+03  0.49113208306E+03  0.17408841870E+03 0.  0.
         24    2    3    3    0    0 -0.73718896205E+02  0.43099566078E+02 -0.31462273848E+03  0.33542967783E+03  0.78952852686E+02 0.  0.
         -6    2    1    2    0  503  0.33394136554E+02 -0.12507561047E+03 -0.15267301212E+03  0.26494649957E+03  0.17357569622E+03 0.  0.
        -24    2    5    5    0    0  0.83844579383E+02 -0.85719347259E+02 -0.66096870602E+02  0.15718898979E+03  0.77213096174E+02 0.  0.
          4    1    4    4  501    0 -0.79681706870E+02  0.56005143203E+02 -0.23233978049E+03  0.25192761673E+03  0.00000000000E+00 0. -1.
         -3    1    4    4    0  501  0.59628106648E+01 -0.12905577125E+02 -0.82282957989E+02  0.83502061097E+02  0.00000000000E+00 0.  1.
          5    1    3    3  502    0  0.40324759651E+02  0.81976044392E+02 -0.12599599558E+03  0.15570240523E+03  0.47000000000E+01 0. -1.
         11    1    6    6    0    0  0.22299058345E+02 -0.64340739511E+02 -0.56753075555E+01  0.68331456005E+02  0.00000000000E+00 0. -1.
        -12    1    6    6    0    0  0.61545521038E+02 -0.21378607748E+02 -0.60421563046E+02  0.88857533783E+02  0.00000000000E+00 0.  1.
         -5    1    5    5    0  503 -0.50450442829E+02 -0.39356263211E+02 -0.86576141516E+02  0.10775750979E+03  0.47000000000E+01 0.  1.
<mgrwt>
<rscale>  2 0.21684378E+03</rscale>
<asrwt>0</asrwt>
<pdfrwt beam="1">  1       21 0.12522065E-01 0.21694666E+03</pdfrwt>
<pdfrwt beam="2">  1       21 0.10379771E+00 0.21694666E+03</pdfrwt>
<totfact> 0.40315115E+04</totfact>
</mgrwt>
</event>
<event>
12    1  0.1441827E-001  0.2242624E+03  0.7546771E-02  0.1130952E+00
         21   -1    0    0  504  503  0.00000000000E+00  0.00000000000E+00  0.26912988928E+03  0.26912988928E+03  0.00000000000E+00 0.  1.
         21   -1    0    0  502  504 -0.00000000000E+00 -0.00000000000E+00 -0.22056505817E+03  0.22056505817E+03  0.00000000000E+00 0. -1.
          6    2    1    2  502    0 -0.79507967329E+02 -0.11781404091E+03 -0.72693206068E+02  0.23574975317E+03  0.17347039750E+03 0.  0.
         24    2    3    3    0    0 -0.93064976938E+02 -0.85796573233E+02  0.73840358978E+01  0.14832341031E+03  0.76962121520E+02 0.  0.
         -6    2    1    2    0  503  0.79507967329E+02  0.11781404091E+03  0.12125803718E+03  0.25394519428E+03  0.17199704943E+03 0.  0.
        -24    2    5    5    0    0  0.41483359217E+02  0.24644954936E+02 -0.37330201536E+01  0.93411073867E+02  0.79896497956E+02 0.  0.
          2    1    4    4  501    0 -0.34306800412E+02 -0.58732243355E+02  0.36713522770E+02  0.77293697791E+02  0.00000000000E+00 0. -1.
         -1    1    4    4    0  501 -0.58758176526E+02 -0.27064329878E+02 -0.29329486872E+02  0.71029712519E+02  0.00000000000E+00 0.  1.
          5    1    3    3  502    0  0.13557009609E+02 -0.32017467675E+02 -0.80077241966E+02  0.87426342865E+02  0.47000000000E+01 0. -1.
         13    1    6    6    0    0  0.23482008723E+02  0.40863791673E+02 -0.31401240397E+02  0.56632959503E+02  0.00000000000E+00 0. -1.
        -14    1    6    6    0    0  0.18001350494E+02 -0.16218836736E+02  0.27668220244E+02  0.36778114364E+02  0.00000000000E+00 0.  1.
         -5    1    5    5    0  503  0.38024608112E+02  0.93169085971E+02  0.12499105733E+03  0.16053412041E+03  0.47000000000E+01 0.  1.
<mgrwt>
<rscale>  2 0.22397748E+03</rscale>
<asrwt>0</asrwt>
<pdfrwt beam="1">  1       21 0.41404599E-01 0.22426244E+03</pdfrwt>
<pdfrwt beam="2">  1       21 0.33933086E-01 0.22426244E+03</pdfrwt>
<totfact> 0.46292288E+04</totfact>
</mgrwt>
</event>
<event>
12    1  0.1441827E-001  0.1826008E+03  0.7546771E-02  0.1166065E+00
         21   -1    0    0  504  503  0.00000000000E+00  0.00000000000E+00  0.34864680718E+03  0.34864680718E+03  0.00000000000E+00 0.  1.
         21   -1    0    0  502  504 -0.00000000000E+00 -0.00000000000E+00 -0.16464137875E+03  0.16464137875E+03  0.00000000000E+00 0.  1.
          6    2    1    2  502    0  0.10172064562E+02 -0.57048404744E+02  0.25966098848E+03  0.31563489615E+03  0.16983394051E+03 0.  0.
         24    2    3    3    0    0  0.50363972261E+02 -0.71056118009E+00  0.85544932318E+02  0.12821068994E+03  0.81135756424E+02 0.  0.
         -6    2    1    2    0  503 -0.10172064562E+02  0.57048404744E+02 -0.75655560041E+02  0.19765328977E+03  0.17316196988E+03 0.  0.
        -24    2    5    5    0    0  0.53635515676E+02  0.48291239352E+02 -0.52259973245E+02  0.12896894860E+03  0.93236648151E+02 0.  0.
          2    1    4    4  501    0 -0.44206044910E+01 -0.13062977231E+02 -0.10239539046E+02  0.17176474553E+02  0.00000000000E+00 0. -1.
         -1    1    4    4    0  501  0.54784576752E+02  0.12352416051E+02  0.95784471364E+02  0.11103421539E+03  0.00000000000E+00 0.  1.
          5    1    3    3  502    0 -0.40191907699E+02 -0.56337843564E+02  0.17411605616E+03  0.18742420621E+03  0.47000000000E+01 0. -1.
         11    1    6    6    0    0  0.21415970676E+02 -0.39094639699E+01 -0.63033252077E+02  0.66686719637E+02  0.00000000000E+00 0. -1.
        -12    1    6    6    0    0  0.32219545000E+02  0.52200703322E+02  0.10773278832E+02  0.62282228959E+02  0.00000000000E+00 0.  1.
         -5    1    5    5    0  503 -0.63807580238E+02  0.87571653917E+01 -0.23395586795E+02  0.68684341178E+02  0.47000000000E+01 0.  1.
<mgrwt>
<rscale>  2 0.18180744E+03</rscale>
<asrwt>0</asrwt>
<pdfrwt beam="1">  1       21 0.53637970E-01 0.18260082E+03</pdfrwt>
<pdfrwt beam="2">  1       21 0.25329443E-01 0.18260082E+03</pdfrwt>
<totfact> 0.48815735E+04</totfact>
</mgrwt>
</event>
<event>
12    1  0.1441827E-001  0.2205203E+03  0.7546771E-02  0.1134268E+00
         21   -1    0    0  504  503  0.00000000000E+00  0.00000000000E+00  0.47962247756E+03  0.47962247756E+03  0.00000000000E+00 0.  1.
         21   -1    0    0  502  504 -0.00000000000E+00 -0.00000000000E+00 -0.22052121564E+03  0.22052121564E+03  0.00000000000E+00 0. -1.
          6    2    1    2  502    0  0.81234844378E+02 -0.10061553224E+03 -0.13032241778E+03  0.25261715515E+03  0.17351918980E+03 0.  0.
         24    2    3    3    0    0  0.65362816890E+02 -0.24105544380E+02 -0.62492397032E+01  0.10591356618E+03  0.79531474284E+02 0.  0.
         -6    2    1    2    0  503 -0.81234844378E+02  0.10061553224E+03  0.38942367970E+03  0.44752653806E+03  0.17862422759E+03 0.  0.
        -24    2    5    5    0    0  0.18148746357E+02  0.51655984580E+02  0.13591223918E+03  0.17082403375E+03  0.87812277102E+02 0.  0.
          4    1    4    4  501    0  0.18327189953E+02 -0.18024098994E+02  0.34748394103E+02  0.43222736249E+02  0.00000000000E+00 0. -1.
         -3    1    4    4    0  501  0.47035626937E+02 -0.60814453855E+01 -0.40997633806E+02  0.62690829928E+02  0.00000000000E+00 0.  1.
          5    1    3    3  502    0  0.15872027488E+02 -0.76509987860E+02 -0.12407317808E+03  0.14670358897E+03  0.47000000000E+01 0. -1.
         13    1    6    6    0    0  0.76089564399E+01 -0.24522270423E+02  0.44393134430E+02  0.51283412029E+02  0.00000000000E+00 0. -1.
        -14    1    6    6    0    0  0.10539789917E+02  0.76178255003E+02  0.91519104748E+02  0.11954062172E+03  0.00000000000E+00 0.  1.
         -5    1    5    5    0  503 -0.99383590735E+02  0.48959547660E+02  0.25351144052E+03  0.27670250431E+03  0.47000000000E+01 0.  1.
<mgrwt>
<rscale>  2 0.21948441E+03</rscale>
<asrwt>0</asrwt>
<pdfrwt beam="1">  1       21 0.73788073E-01 0.22052029E+03</pdfrwt>
<pdfrwt beam="2">  1       21 0.33926341E-01 0.22052029E+03</pdfrwt>
<totfact> 0.13559340E+04</totfact>
</mgrwt>
</event>
<event>
12    1  0.1441827E-001  0.2781179E+03  0.7546771E-02  0.1096757E+00
         21   -1    0    0  504  503  0.00000000000E+00  0.00000000000E+00  0.16564509685E+04  0.16564509685E+04  0.00000000000E+00 0.  1.
         21   -1    0    0  502  504 -0.00000000000E+00 -0.00000000000E+00 -0.11058257215E+03  0.11058257215E+03  0.00000000000E+00 0.  1.
          6    2    1    2  502    0  0.13199351428E+03 -0.17406089850E+03  0.10131117948E+03  0.29599578104E+03  0.17213385230E+03 0.  0.
         24    2    3    3    0    0  0.14832783822E+03 -0.19064955163E+03  0.96500106096E+02  0.27176295252E+03  0.78704718765E+02 0.  0.
         -6    2    1    2    0  503 -0.13199351428E+03  0.17406089850E+03  0.14445572168E+04  0.14710377596E+04  0.17171794654E+03 0.  0.
        -24    2    5    5    0    0 -0.68958263274E+02  0.14094652376E+03  0.65005267035E+03  0.67333507745E+03  0.78679652086E+02 0.  0.
          2    1    4    4  501    0  0.13002128420E+03 -0.16117212746E+03  0.11005715191E+03  0.23450920174E+03  0.00000000000E+00 0. -1.
         -1    1    4    4    0  501  0.18306554014E+02 -0.29477424169E+02 -0.13557045810E+02  0.37253750773E+02  0.00000000000E+00 0.  1.
          5    1    3    3  502    0 -0.16334323940E+02  0.16588653129E+02  0.48110733885E+01  0.24232828526E+02  0.47000000000E+01 0. -1.
         11    1    6    6    0    0  0.64265575992E+01  0.16903937972E+02  0.20821002141E+02  0.27578214077E+02  0.00000000000E+00 0. -1.
        -12    1    6    6    0    0 -0.75384820873E+02  0.12404258579E+03  0.62923166821E+03  0.64575686337E+03  0.00000000000E+00 0.  1.
         -5    1    5    5    0  503 -0.63035251005E+02  0.33114374746E+02  0.79450454649E+03  0.79770268213E+03  0.47000000000E+01 0.  1.
<mgrwt>
<rscale>  2 0.27805354E+03</rscale>
<asrwt>0</asrwt>
<pdfrwt beam="1">  1       21 0.25483859E+00 0.27811787E+03</pdfrwt>
<pdfrwt beam="2">  1       21 0.17012705E-01 0.27811787E+03</pdfrwt>
<totfact> 0.17847194E+03</totfact>
</mgrwt>
</event>
<event>
12    1  0.1441827E-001  0.2424315E+03  0.7546771E-02  0.1118378E+00
         21   -1    0    0  504  503  0.00000000000E+00  0.00000000000E+00  0.75338766748E+03  0.75338766748E+03  0.00000000000E+00 0.  1.
         21   -1    0    0  502  504 -0.00000000000E+00 -0.00000000000E+00 -0.24037411039E+03  0.24037411039E+03  0.00000000000E+00 0.  1.
          6    2    1    2  502    0  0.13203242981E+03 -0.10369748139E+03 -0.15213444948E+03  0.28621305840E+03  0.17489223515E+03 0.  0.
         24    2    3    3    0    0  0.77524041080E+02 -0.75132346590E+02 -0.17484196263E+03  0.22044944748E+03  0.79833580317E+02 0.  0.
         -6    2    1    2    0  503 -0.13203242981E+03  0.10369748139E+03  0.66514800656E+03  0.70754871948E+03  0.17325585020E+03 0.  0.
        -24    2    5    5    0    0 -0.14947515990E+03  0.68076452474E+02  0.40220074301E+03  0.44158545144E+03  0.79088851538E+02 0.  0.
          2    1    4    4  501    0  0.22304636638E+02 -0.43707447773E+02 -0.13920935139E+03  0.14760447595E+03  0.00000000000E+00 0. -1.
         -1    1    4    4    0  501  0.55219404442E+02 -0.31424898817E+02 -0.35632611243E+02  0.72844971526E+02  0.00000000000E+00 0.  1.
          5    1    3    3  502    0  0.54508388729E+02 -0.28565134797E+02  0.22707513159E+02  0.65763610923E+02  0.47000000000E+01 0. -1.
         11    1    6    6    0    0 -0.56090700787E+02  0.68979016719E+02  0.19729272419E+03  0.21639937726E+03  0.00000000000E+00 0. -1.
        -12    1    6    6    0    0 -0.93384459111E+02 -0.90256424464E+00  0.20490801882E+03  0.22518607418E+03  0.00000000000E+00 0.  1.
         -5    1    5    5    0  503  0.17442730088E+02  0.35621028913E+02  0.26294726356E+03  0.26596326804E+03  0.47000000000E+01 0.  1.
<mgrwt>
<rscale>  2 0.24213648E+03</rscale>
<asrwt>0</asrwt>
<pdfrwt beam="1">  1       21 0.11590579E+00 0.24243148E+03</pdfrwt>
<pdfrwt beam="2">  1       21 0.36980633E-01 0.24243148E+03</pdfrwt>
<totfact> 0.39046539E+03</totfact>
</mgrwt>
</event>
<event>
12    1  0.1441827E-001  0.1742835E+03  0.7546771E-02  0.1173583E+00
         21   -1    0    0  504  503  0.00000000000E+00  0.00000000000E+00  0.44643216647E+03  0.44643216647E+03  0.00000000000E+00 0. -1.
         21   -1    0    0  502  504 -0.00000000000E+00 -0.00000000000E+00 -0.87731804078E+02  0.87731804078E+02  0.00000000000E+00 0. -1.
          6    2    1    2  502    0  0.18282591275E+02  0.16993982530E+00  0.30673880080E+03  0.35279373925E+03  0.17332180623E+03 0.  0.
         24    2    3    3    0    0  0.61010362599E+02 -0.30486201518E+02  0.26612536538E+03  0.28618290994E+03  0.80164050654E+02 0.  0.
         -6    2    1    2    0  503 -0.18282591275E+02 -0.16993982530E+00  0.51961561594E+02  0.18137023130E+03  0.17280299446E+03 0.  0.
        -24    2    5    5    0    0  0.53289181402E+01 -0.16094876107E+02 -0.36203080051E+02  0.88600618771E+02  0.79069363447E+02 0.  0.
          4    1    4    4  501    0 -0.12044074807E+02  0.80884772639E+01  0.95658488292E+02  0.96752413844E+02  0.00000000000E+00 0. -1.
         -3    1    4    4    0  501  0.73054437406E+02 -0.38574678782E+02  0.17046687708E+03  0.18943049609E+03  0.00000000000E+00 0.  1.
          5    1    3    3  502    0 -0.42727771324E+02  0.30656141343E+02  0.40613435424E+02  0.66610829309E+02  0.47000000000E+01 0. -1.
         11    1    6    6    0    0  0.10931521755E+02 -0.47505605123E+02 -0.25004173888E+02  0.54785850343E+02  0.00000000000E+00 0. -1.
        -12    1    6    6    0    0 -0.56026036144E+01  0.31410729016E+02 -0.11198906163E+02  0.33814768428E+02  0.00000000000E+00 0.  1.
         -5    1    5    5    0  503 -0.23611509415E+02  0.15924936282E+02  0.88164641646E+02  0.92769612530E+02  0.47000000000E+01 0.  1.
<mgrwt>
<rscale>  2 0.17415435E+03</rscale>
<asrwt>0</asrwt>
<pdfrwt beam="1">  1       21 0.68681871E-01 0.17428348E+03</pdfrwt>
<pdfrwt beam="2">  1       21 0.13497201E-01 0.17428348E+03</pdfrwt>
<totfact> 0.92463073E+04</totfact>
</mgrwt>
</event>
<event>
12    1  0.1441827E-001  0.1931269E+03  0.7546771E-02  0.1155727E+00
         21   -1    0    0  504  503  0.00000000000E+00  0.00000000000E+00  0.19306210752E+03  0.19306210752E+03  0.00000000000E+00 0.  1.
         21   -1    0    0  502  504 -0.00000000000E+00 -0.00000000000E+00 -0.20052911578E+03  0.20052911578E+03  0.00000000000E+00 0.  1.
          6    2    1    2  502    0  0.36363409318E+02  0.76724971488E+02  0.34553835912E+02  0.19594570776E+03  0.17318121730E+03 0.  0.
         24    2    3    3    0    0 -0.11459569955E+02  0.10527777744E+03  0.46542081282E+01  0.13255503166E+03  0.79589211563E+02 0.  0.
         -6    2    1    2    0  503 -0.36363409318E+02 -0.76724971488E+02 -0.42020844172E+02  0.19764551554E+03  0.17346175279E+03 0.  0.
        -24    2    5    5    0    0 -0.38627476317E+02  0.19156318843E+02 -0.45128480612E+02  0.10157213089E+03  0.80132836790E+02 0.  0.
          2    1    4    4  501    0  0.10430482757E+02  0.92537731953E+02  0.28887854731E+02  0.97501461304E+02  0.00000000000E+00 0. -1.
         -1    1    4    4    0  501 -0.21890052712E+02  0.12740045491E+02 -0.24233646602E+02  0.35053570353E+02  0.00000000000E+00 0.  1.
          5    1    3    3  502    0  0.47822979273E+02 -0.28552805956E+02  0.29899627784E+02  0.63390676098E+02  0.47000000000E+01 0. -1.
         13    1    6    6    0    0  0.45470026481E+01  0.96278238719E+01  0.20114742828E+02  0.22759022489E+02  0.00000000000E+00 0. -1.
        -14    1    6    6    0    0 -0.43174478965E+02  0.95284949712E+01 -0.65243223440E+02  0.78813108397E+02  0.00000000000E+00 0.  1.
         -5    1    5    5    0  503  0.22640669986E+01 -0.95881290331E+02  0.31076364397E+01  0.96073384656E+02  0.47000000000E+01 0.  1.
<mgrwt>
<rscale>  2 0.19306388E+03</rscale>
<asrwt>0</asrwt>
<pdfrwt beam="1">  1       21 0.29701863E-01 0.19312690E+03</pdfrwt>
<pdfrwt beam="2">  1       21 0.30850633E-01 0.19312690E+03</pdfrwt>
<totfact> 0.10962387E+05</totfact>
</mgrwt>
</event>
<event>
12    1  0.1441827E-001  0.2008616E+03  0.7546771E-02  0.1149358E+00
         21   -1    0    0  504  503  0.00000000000E+00  0.00000000000E+00  0.16062946122E+03  0.16062946122E+03  0.00000000000E+00 0. -1.
         21   -1    0    0  502  504 -0.00000000000E+00 -0.00000000000E+00 -0.28681000605E+03  0.28681000605E+03  0.00000000000E+00 0. -1.
          6    2    1    2  502    0 -0.98068406883E+02 -0.20297204357E+02 -0.14439696923E+03  0.24737801628E+03  0.17411493124E+03 0.  0.
         24    2    3    3    0    0 -0.51772746054E+02 -0.32409206685E+02 -0.41208074009E+01  0.99089512372E+02  0.77916471279E+02 0.  0.
         -6    2    1    2    0  503  0.98068406883E+02  0.20297204357E+02  0.18216424396E+02  0.20006145099E+03  0.17223053482E+03 0.  0.
        -24    2    5    5    0    0  0.79561949664E+02 -0.17838782250E+02  0.69506117074E+02  0.13335639115E+03  0.79400886421E+02 0.  0.
          2    1    4    4  501    0 -0.56407164135E+02 -0.62898495809E+01 -0.28098750266E+02  0.63331430901E+02  0.00000000000E+00 0. -1.
         -1    1    4    4    0  501  0.46344180808E+01 -0.26119357104E+02  0.23977942865E+02  0.35758081471E+02  0.00000000000E+00 0.  1.
          5    1    3    3  502    0 -0.46295660829E+02  0.12112002328E+02 -0.14027616183E+03  0.14828850390E+03  0.47000000000E+01 0. -1.
         11    1    6    6    0    0  0.40541501768E+02  0.26676668782E+02  0.53082968941E+02  0.71923984973E+02  0.00000000000E+00 0. -1.
        -12    1    6    6    0    0  0.39020447896E+02 -0.44515451032E+02  0.16423148133E+02  0.61432406181E+02  0.00000000000E+00 0.  1.
         -5    1    5    5    0  503  0.18506457219E+02  0.38135986607E+02 -0.51289692678E+02  0.66705059841E+02  0.47000000000E+01 0.  1.
<mgrwt>
<rscale>  2 0.20045258E+03</rscale>
<asrwt>0</asrwt>
<pdfrwt beam="1">  1       21 0.24712225E-01 0.20086164E+03</pdfrwt>
<pdfrwt beam="2">  1       21 0.44124616E-01 0.20086164E+03</pdfrwt>
<totfact> 0.76121370E+04</totfact>
</mgrwt>
</event>
<event>
12    1  0.1441827E-001  0.1781490E+03  0.7546771E-02  0.1170696E+00
         21   -1    0    0  504  503  0.00000000000E+00  0.00000000000E+00  0.11450594993E+04  0.11450594993E+04  0.00000000000E+00 0. -1.
         21   -1    0    0  502  504 -0.00000000000E+00 -0.00000000000E+00 -0.33797566352E+02  0.33797566352E+02  0.00000000000E+00 0. -1.
          6    2    1    2  502    0 -0.78426482615E+01  0.15062539803E+02  0.82474081292E+03  0.84376210344E+03  0.17733778917E+03 0.  0.
         24    2    3    3    0    0  0.24188631228E+02  0.16581037599E+02  0.20022710250E+03  0.21840798520E+03  0.82165289104E+02 0.  0.
         -6    2    1    2    0  503  0.78426482615E+01 -0.15062539803E+02  0.28652112008E+03  0.33509496226E+03  0.17293320747E+03 0.  0.
        -24    2    5    5    0    0  0.42409591485E+02 -0.57552212918E+01  0.28503671727E+03  0.29895920167E+03  0.79366101394E+02 0.  0.
          4    1    4    4  501    0 -0.11000806483E+02  0.42067430910E+02  0.10935581595E+03  0.11768339292E+03  0.00000000000E+00 0. -1.
         -3    1    4    4    0  501  0.35189437710E+02 -0.25486393312E+02  0.90871286555E+02  0.10072459228E+03  0.00000000000E+00 0.  1.
          5    1    3    3  502    0 -0.32031279489E+02 -0.15184977954E+01  0.62451371041E+03  0.62535411824E+03  0.47000000000E+01 0. -1.
         13    1    6    6    0    0  0.10502988011E+02 -0.41052015956E+02  0.12399723330E+03  0.13103776035E+03  0.00000000000E+00 0. -1.
        -14    1    6    6    0    0  0.31906603474E+02  0.35296794664E+02  0.16103948397E+03  0.16792144132E+03  0.00000000000E+00 0.  1.
         -5    1    5    5    0  503 -0.34566943224E+02 -0.93073185114E+01  0.14844028073E+01  0.36135760590E+02  0.47000000000E+01 0.  1.
<mgrwt>
<rscale>  2 0.17704277E+03</rscale>
<asrwt>0</asrwt>
<pdfrwt beam="1">  1       21 0.17616297E+00 0.17814904E+03</pdfrwt>
<pdfrwt beam="2">  1       21 0.51996265E-02 0.17814904E+03</pdfrwt>
<totfact> 0.49091950E+04</totfact>
</mgrwt>
</event>
<event>
12    1  0.1441827E-001  0.1834870E+03  0.7546771E-02  0.1164578E+00
         21   -1    0    0  504  503  0.00000000000E+00  0.00000000000E+00  0.93420761883E+03  0.93420761883E+03  0.00000000000E+00 0.  1.
         21   -1    0    0  502  504 -0.00000000000E+00 -0.00000000000E+00 -0.62583773801E+02  0.62583773801E+02  0.00000000000E+00 0.  1.
          6    2    1    2  502    0 -0.31416949178E+02  0.52145210233E+02  0.11098625631E+03  0.21444216604E+03  0.17309345984E+03 0.  0.
         24    2    3    3    0    0 -0.48529924803E+02 -0.29796654762E+02  0.71124096030E+02  0.12160680103E+03  0.80539324460E+02 0.  0.
         -6    2    1    2    0  503  0.31416949178E+02 -0.52145210233E+02  0.76063758872E+03  0.78234922659E+03  0.17261119123E+03 0.  0.
        -24    2    5    5    0    0  0.10964662033E+01  0.18894869466E+02  0.57868330141E+03  0.58462346378E+03  0.80944504070E+02 0.  0.
          2    1    4    4  501    0 -0.25435378171E+02  0.25000836836E+02  0.11689621429E+02  0.37531953778E+02  0.00000000000E+00 0. -1.
         -1    1    4    4    0  501 -0.23094546632E+02 -0.54797491598E+02  0.59434474601E+02  0.84074847253E+02  0.00000000000E+00 0.  1.
          5    1    3    3  502    0  0.17112975625E+02  0.81941864994E+02  0.39862160282E+02  0.92835365006E+02  0.47000000000E+01 0. -1.
         11    1    6    6    0    0 -0.75029383276E+01  0.38339411807E+02  0.13787980350E+03  0.14330751828E+03  0.00000000000E+00 0. -1.
        -12    1    6    6    0    0  0.85994045310E+01 -0.19444542340E+02  0.44080349790E+03  0.44131594550E+03  0.00000000000E+00 0.  1.
         -5    1    5    5    0  503  0.30320482975E+02 -0.71040079699E+02  0.18195428731E+03  0.19772576282E+03  0.47000000000E+01 0.  1.
<mgrwt>
<rscale>  2 0.18337321E+03</rscale>
<asrwt>0</asrwt>
<pdfrwt beam="1">  1       21 0.14372424E+00 0.18348704E+03</pdfrwt>
<pdfrwt beam="2">  1       21 0.96282736E-02 0.18348704E+03</pdfrwt>
<totfact> 0.29164039E+04</totfact>
</mgrwt>
</event>
<event>
12    1  0.1441827E-001  0.2288226E+03  0.7546771E-02  0.1127671E+00
         21   -1    0    0  504  503  0.00000000000E+00  0.00000000000E+00  0.13211091512E+03  0.13211091512E+03  0.00000000000E+00 0.  1.
         21   -1    0    0  502  504 -0.00000000000E+00 -0.00000000000E+00 -0.48189661900E+03  0.48189661900E+03  0.00000000000E+00 0. -1.
          6    2    1    2  502    0 -0.13868205054E+03  0.56944642397E+02 -0.43714207871E+02  0.23185630613E+03  0.17137972834E+03 0.  0.
         24    2    3    3    0    0  0.17630308987E+01  0.37046476134E+02 -0.87905684716E+01  0.85697117200E+02  0.76753971431E+02 0.  0.
         -6    2    1    2    0  503  0.13868205054E+03 -0.56944642397E+02 -0.30607149600E+03  0.38215122799E+03  0.17287104138E+03 0.  0.
        -24    2    5    5    0    0  0.14082316038E+03 -0.84267410126E+02 -0.30423519633E+03  0.35428404327E+03  0.77627119738E+02 0.  0.
          4    1    4    4  501    0  0.20597074203E+02  0.30571476053E+02 -0.36299875276E+02  0.51735244842E+02  0.00000000000E+00 0. -1.
         -3    1    4    4    0  501 -0.18834043304E+02  0.64750000817E+01  0.27509306805E+02  0.33961872359E+02  0.00000000000E+00 0.  1.
          5    1    3    3  502    0 -0.14044508144E+03  0.19898166263E+02 -0.34923639399E+02  0.14615918893E+03  0.47000000000E+01 0. -1.
         11    1    6    6    0    0  0.10499487011E+03 -0.33457667186E+02 -0.13670226564E+03  0.17558715122E+03  0.00000000000E+00 0. -1.
        -12    1    6    6    0    0  0.35828290272E+02 -0.50809742940E+02 -0.16753293069E+03  0.17869689205E+03  0.00000000000E+00 0.  1.
         -5    1    5    5    0  503 -0.21411098399E+01  0.27322767729E+02 -0.18362996728E+01  0.27867184720E+02  0.47000000000E+01 0.  1.
<mgrwt>
<rscale>  2 0.22854098E+03</rscale>
<asrwt>0</asrwt>
<pdfrwt beam="1">  1       21 0.20324756E-01 0.22882264E+03</pdfrwt>
<pdfrwt beam="2">  1       21 0.74137941E-01 0.22882264E+03</pdfrwt>
<totfact> 0.35872709E+04</totfact>
</mgrwt>
</event>
<event>
12    1  0.1441827E-001  0.2015306E+03  0.7546771E-02  0.1150199E+00
         21   -1    0    0  504  503  0.00000000000E+00  0.00000000000E+00  0.11189332025E+03  0.11189332025E+03  0.00000000000E+00 0.  1.
         21   -1    0    0  502  504 -0.00000000000E+00 -0.00000000000E+00 -0.80921772888E+03  0.80921772888E+03  0.00000000000E+00 0.  1.
          6    2    1    2  502    0  0.46489326964E+02 -0.90230513392E+02 -0.69928168696E+03  0.72774271917E+03  0.17410279870E+03 0.  0.
         24    2    3    3    0    0  0.88956847573E+02 -0.59469250631E+02 -0.35174881501E+03  0.37624459303E+03  0.79892755755E+02 0.  0.
         -6    2    1    2    0  503 -0.46489326964E+02  0.90230513392E+02  0.19572783281E+01  0.19336832997E+03  0.16457422954E+03 0.  0.
        -24    2    5    5    0    0  0.28129417244E+02  0.73211627872E+01 -0.90307218585E+01  0.81186586569E+02  0.75265160349E+02 0.  0.
          4    1    4    4  501    0  0.76291445882E+02 -0.77643322887E+02 -0.26014738801E+03  0.28200271948E+03  0.00000000000E+00 0. -1.
         -3    1    4    4    0  501  0.12665401691E+02  0.18174072255E+02 -0.91601427004E+02  0.94241873557E+02  0.00000000000E+00 0.  1.
          5    1    3    3  502    0 -0.42467520609E+02 -0.30761262760E+02 -0.34753287195E+03  0.35149812613E+03  0.47000000000E+01 0. -1.
         13    1    6    6    0    0  0.10101341400E+02  0.36394266285E+02 -0.23014873147E+02  0.44229674456E+02  0.00000000000E+00 0. -1.
        -14    1    6    6    0    0  0.18028075844E+02 -0.29073103498E+02  0.13984151288E+02  0.36956912113E+02  0.00000000000E+00 0.  1.
         -5    1    5    5    0  503 -0.74618744208E+02  0.82909350604E+02  0.10988000187E+02  0.11218174340E+03  0.47000000000E+01 0.  1.
<mgrwt>
<rscale>  2 0.19945574E+03</rscale>
<asrwt>0</asrwt>
<pdfrwt beam="1">  1       21 0.17214357E-01 0.20153061E+03</pdfrwt>
<pdfrwt beam="2">  1       21 0.12449504E+00 0.20153061E+03</pdfrwt>
<totfact> 0.14601829E+04</totfact>
</mgrwt>
</event>
<event>
12    1  0.1441827E-001  0.3463903E+03  0.7546771E-02  0.1064144E+00
         21   -1    0    0  504  503  0.00000000000E+00  0.00000000000E+00  0.62108702327E+03  0.62108702327E+03  0.00000000000E+00 0. -1.
         21   -1    0    0  502  504 -0.00000000000E+00 -0.00000000000E+00 -0.19347778567E+03  0.19347778567E+03  0.00000000000E+00 0.  1.
          6    2    1    2  502    0  0.33604801630E+02  0.29781201734E+03  0.23421788437E+03  0.41784518398E+03  0.17296040023E+03 0.  0.
         24    2    3    3    0    0  0.56420202351E+01  0.24201063706E+03  0.11407132457E+03  0.28237195040E+03  0.90114762605E+02 0.  0.
         -6    2    1    2    0  503 -0.33604801630E+02 -0.29781201734E+03  0.19339135323E+03  0.39671962497E+03  0.17368064073E+03 0.  0.
        -24    2    5    5    0    0 -0.97543412433E+00 -0.68452662083E+02  0.22798925827E+02  0.10897971506E+03  0.81670489511E+02 0.  0.
          2    1    4    4  501    0 -0.21648574714E+02  0.12204811978E+03  0.15885006393E+02  0.12496694666E+03  0.00000000000E+00 0. -1.
         -1    1    4    4    0  501  0.27290594949E+02  0.11996251728E+03  0.98186318175E+02  0.15740500374E+03  0.00000000000E+00 0.  1.
          5    1    3    3  502    0  0.27962781395E+02  0.55801380284E+02  0.12014655980E+03  0.13547323358E+03  0.47000000000E+01 0. -1.
         13    1    6    6    0    0  0.30971569319E+02 -0.66919246365E+02  0.95277134321E+01  0.74351872629E+02  0.00000000000E+00 0. -1.
        -14    1    6    6    0    0 -0.31947003443E+02 -0.15334157179E+01  0.13271212394E+02  0.34627842428E+02  0.00000000000E+00 0.  1.
         -5    1    5    5    0  503 -0.32629367506E+02 -0.22935935526E+03  0.17059242740E+03  0.28773990991E+03  0.47000000000E+01 0.  1.
<mgrwt>
<rscale>  2 0.34630013E+03</rscale>
<asrwt>0</asrwt>
<pdfrwt beam="1">  1       21 0.95551849E-01 0.34639031E+03</pdfrwt>
<pdfrwt beam="2">  1       21 0.29765813E-01 0.34639031E+03</pdfrwt>
<totfact> 0.91056555E+03</totfact>
</mgrwt>
</event>
<event>
12    1  0.1441827E-001  0.2478771E+03  0.7546771E-02  0.1114763E+00
         21   -1    0    0  504  503  0.00000000000E+00  0.00000000000E+00  0.12217782076E+03  0.12217782076E+03  0.00000000000E+00 0.  1.
         21   -1    0    0  502  504 -0.00000000000E+00 -0.00000000000E+00 -0.51352849911E+03  0.51352849911E+03  0.00000000000E+00 0. -1.
          6    2    1    2  502    0 -0.51866912576E+01  0.17587389154E+03 -0.24401653118E+03  0.34734815390E+03  0.17363221197E+03 0.  0.
         24    2    3    3    0    0 -0.49162967000E+01  0.14169068158E+03 -0.86147476449E+02  0.18575207288E+03  0.83558516399E+02 0.  0.
         -6    2    1    2    0  503  0.51866912576E+01 -0.17587389154E+03 -0.14733414716E+03  0.28835816597E+03  0.17459826308E+03 0.  0.
        -24    2    5    5    0    0 -0.17710435267E+02 -0.80989478674E+02 -0.15249450031E+03  0.19050087471E+03  0.78505130214E+02 0.  0.
          2    1    4    4  501    0 -0.67259961191E+01  0.98633462795E+02 -0.99867901189E+02  0.14052543078E+03  0.00000000000E+00 0. -1.
         -1    1    4    4    0  501  0.18096994191E+01  0.43057218784E+02  0.13720424740E+02  0.45226642109E+02  0.00000000000E+00 0.  1.
          5    1    3    3  502    0 -0.27039455763E+00  0.34183209959E+02 -0.15786905473E+03  0.16159608101E+03  0.47000000000E+01 0. -1.
         13    1    6    6    0    0  0.18344343384E+02 -0.19678690093E+02 -0.95911191765E+02  0.99612863043E+02  0.00000000000E+00 0. -1.
        -14    1    6    6    0    0 -0.36054778651E+02 -0.61310788581E+02 -0.56583308542E+02  0.90888011672E+02  0.00000000000E+00 0.  1.
         -5    1    5    5    0  503  0.22897126525E+02 -0.94884412865E+02  0.51603531424E+01  0.97857291258E+02  0.47000000000E+01 0.  1.
<mgrwt>
<rscale>  2 0.24770710E+03</rscale>
<asrwt>0</asrwt>
<pdfrwt beam="1">  1       21 0.18796588E-01 0.24787715E+03</pdfrwt>
<pdfrwt beam="2">  1       21 0.79004385E-01 0.24787715E+03</pdfrwt>
<totfact> 0.35675460E+04</totfact>
</mgrwt>
</event>
<event>
12    1  0.1441827E-001  0.2237426E+03  0.7546771E-02  0.1131653E+00
         21   -1    0    0  504  503  0.00000000000E+00  0.00000000000E+00  0.85116721887E+02  0.85116721887E+02  0.00000000000E+00 0.  1.
         21   -1    0    0  502  504 -0.00000000000E+00 -0.00000000000E+00 -0.58161801028E+03  0.58161801028E+03  0.00000000000E+00 0.  1.
          6    2    1    2  502    0  0.24950443649E+02 -0.13422995375E+03 -0.23257808647E+03  0.32073441061E+03  0.17360239260E+03 0.  0.
         24    2    3    3    0    0  0.14049579963E+02 -0.12984773424E+03 -0.94213478286E+02  0.18179238142E+03  0.84347291985E+02 0.  0.
         -6    2    1    2    0  503 -0.24950443649E+02  0.13422995375E+03 -0.26392320192E+03  0.34600032156E+03  0.17725845787E+03 0.  0.
        -24    2    5    5    0    0  0.39789618682E+02  0.79532956800E+02 -0.22136333957E+03  0.25104523202E+03  0.78187437877E+02 0.  0.
          2    1    4    4  501    0 -0.10921566605E+02 -0.62088568125E+02  0.56492397336E-01  0.63041844043E+02  0.00000000000E+00 0. -1.
         -1    1    4    4    0  501  0.24971146568E+02 -0.67759166118E+02 -0.94269970683E+02  0.11875053737E+03  0.00000000000E+00 0.  1.
          5    1    3    3  502    0  0.10900863687E+02 -0.43822195085E+01 -0.13836460819E+03  0.13894202919E+03  0.47000000000E+01 0. -1.
         13    1    6    6    0    0  0.13224898814E+02 -0.15125256474E+02 -0.38649637947E+02  0.43559910990E+02  0.00000000000E+00 0. -1.
        -14    1    6    6    0    0  0.26564719869E+02  0.94658213273E+02 -0.18271370162E+03  0.20748532103E+03  0.00000000000E+00 0.  1.
         -5    1    5    5    0  503 -0.64740062332E+02  0.54696996951E+02 -0.42559862348E+02  0.94955089538E+02  0.47000000000E+01 0.  1.
<mgrwt>
<rscale>  2 0.22301781E+03</rscale>
<asrwt>0</asrwt>
<pdfrwt beam="1">  1       21 0.13094880E-01 0.22374263E+03</pdfrwt>
<pdfrwt beam="2">  1       21 0.89479694E-01 0.22374263E+03</pdfrwt>
<totfact> 0.52625104E+04</totfact>
</mgrwt>
</event>
<event>
12    1  0.1441827E-001  0.2203861E+03  0.7546771E-02  0.1136348E+00
         21   -1    0    0  504  503  0.00000000000E+00  0.00000000000E+00  0.38249470244E+03  0.38249470244E+03  0.00000000000E+00 0. -1.
         21   -1    0    0  502  504 -0.00000000000E+00 -0.00000000000E+00 -0.16217935426E+03  0.16217935426E+03  0.00000000000E+00 0.  1.
          6    2    1    2  502    0 -0.57379527654E+02  0.95873528774E+02 -0.33194723307E+02  0.20876127090E+03  0.17319132444E+03 0.  0.
         24    2    3    3    0    0 -0.18129056083E+02  0.17482357061E+02 -0.75237312176E+02  0.11141937550E+03  0.78226137648E+02 0.  0.
         -6    2    1    2    0  503  0.57379527654E+02 -0.95873528774E+02  0.25351007149E+03  0.33591278581E+03  0.18996289008E+03 0.  0.
        -24    2    5    5    0    0  0.96712702247E+02 -0.11996335947E+03  0.19900152756E+03  0.26435378967E+03  0.80850255107E+02 0.  0.
          4    1    4    4  501    0 -0.46089423723E+02 -0.40197149206E+01 -0.49508891217E+02  0.67760780668E+02  0.00000000000E+00 0. -1.
         -3    1    4    4    0  501  0.27960367640E+02  0.21502071981E+02 -0.25728420959E+02  0.43658594836E+02  0.00000000000E+00 0.  1.
          5    1    3    3  502    0 -0.39250471571E+02  0.78391171714E+02  0.42042588869E+02  0.97341895400E+02  0.47000000000E+01 0. -1.
         11    1    6    6    0    0  0.39112268730E+02 -0.76144082980E+02  0.51099736341E+02  0.99693901479E+02  0.00000000000E+00 0. -1.
        -12    1    6    6    0    0  0.57600433518E+02 -0.43819276491E+02  0.14790179122E+03  0.16465988819E+03  0.00000000000E+00 0.  1.
         -5    1    5    5    0  503 -0.39333174593E+02  0.24089830697E+02  0.54508543926E+02  0.71558996133E+02  0.47000000000E+01 0.  1.
<mgrwt>
<rscale>  2 0.21672572E+03</rscale>
<asrwt>0</asrwt>
<pdfrwt beam="1">  1       21 0.58845339E-01 0.22038612E+03</pdfrwt>
<pdfrwt beam="2">  1       21 0.24950670E-01 0.22038612E+03</pdfrwt>
<totfact> 0.40506179E+04</totfact>
</mgrwt>
</event>
<event>
12    1  0.1441827E-001  0.3131101E+03  0.7546771E-02  0.1079145E+00
         21   -1    0    0  504  503  0.00000000000E+00  0.00000000000E+00  0.18823399812E+04  0.18823399812E+04  0.00000000000E+00 0.  1.
         21   -1    0    0  502  504 -0.00000000000E+00 -0.00000000000E+00 -0.84615212739E+02  0.84615212739E+02  0.00000000000E+00 0. -1.
          6    2    1    2  502    0  0.89749404675E+02 -0.24570713870E+03  0.15144041948E+04  0.15464339530E+04  0.17207833144E+03 0.  0.
         24    2    3    3    0    0 -0.17825070705E+02 -0.12749361836E+03  0.49428324118E+03  0.51385681102E+03  0.56218714457E+02 0.  0.
         -6    2    1    2    0  503 -0.89749404675E+02  0.24570713870E+03  0.28332057369E+03  0.42052124095E+03  0.16775164074E+03 0.  0.
        -24    2    5    5    0    0 -0.91867174203E+01  0.62969019716E+02  0.53177757839E+02  0.11577319355E+03  0.80784065235E+02 0.  0.
          4    1    4    4  501    0 -0.31373811165E+02 -0.75773665211E+02  0.22907953006E+03  0.24331747874E+03  0.00000000000E+00 0. -1.
         -3    1    4    4    0  501  0.13548740460E+02 -0.51719953145E+02  0.26520371112E+03  0.27053933228E+03  0.00000000000E+00 0.  1.
          5    1    3    3  502    0  0.10757447538E+03 -0.11821352034E+03  0.10201209536E+04  0.10325771419E+04  0.47000000000E+01 0. -1.
         11    1    6    6    0    0 -0.29266855912E+02  0.72479095107E+02  0.51256634816E+02  0.93471978128E+02  0.00000000000E+00 0. -1.
        -12    1    6    6    0    0  0.20080138492E+02 -0.95100753908E+01  0.19211230227E+01  0.22301215426E+02  0.00000000000E+00 0.  1.
         -5    1    5    5    0  503 -0.80562687254E+02  0.18273811898E+03  0.23014281585E+03  0.30474804740E+03  0.47000000000E+01 0.  1.
<mgrwt>
<rscale>  2 0.31251918E+03</rscale>
<asrwt>0</asrwt>
<pdfrwt beam="1">  1       21 0.28959073E+00 0.31311005E+03</pdfrwt>
<pdfrwt beam="2">  1       21 0.13017727E-01 0.31311005E+03</pdfrwt>
<totfact> 0.17676429E+03</totfact>
</mgrwt>
</event>
<event>
12    1  0.1441827E-001  0.1875057E+03  0.7546771E-02  0.1160761E+00
         21   -1    0    0  504  503  0.00000000000E+00  0.00000000000E+00  0.66024342670E+02  0.66024342670E+02  0.00000000000E+00 0. -1.
         21   -1    0    0  502  504 -0.00000000000E+00 -0.00000000000E+00 -0.83072877418E+03  0.83072877418E+03  0.00000000000E+00 0. -1.
          6    2    1    2  502    0  0.31018958300E+02  0.64185649566E+02 -0.65126090811E+03  0.67771613220E+03  0.17342552301E+03 0.  0.
         24    2    3    3    0    0  0.65410759777E+02  0.83893077656E+02 -0.59096862710E+03  0.60540826348E+03  0.77192171193E+02 0.  0.
         -6    2    1    2    0  503 -0.31018958300E+02 -0.64185649566E+02 -0.11344352341E+03  0.21903698465E+03  0.17327952637E+03 0.  0.
        -24    2    5    5    0    0 -0.17558023790E+02 -0.74410640351E+01 -0.13362028990E+03  0.15714727104E+03  0.80481235639E+02 0.  0.
          4    1    4    4  501    0  0.18611471917E+02  0.56565457720E+02 -0.45746231826E+03  0.46132180799E+03  0.00000000000E+00 0. -1.
         -3    1    4    4    0  501  0.46799287860E+02  0.27327619937E+02 -0.13350630884E+03  0.14408645549E+03  0.00000000000E+00 0.  1.
          5    1    3    3  502    0 -0.34391801476E+02 -0.19707428090E+02 -0.60292281004E+02  0.72307868724E+02  0.47000000000E+01 0. -1.
         11    1    6    6    0    0  0.14981221797E+02  0.23939801566E+02 -0.19278885132E+02  0.34193954400E+02  0.00000000000E+00 0. -1.
        -12    1    6    6    0    0 -0.32539245588E+02 -0.31380865601E+02 -0.11434140477E+03  0.12295331664E+03  0.00000000000E+00 0.  1.
         -5    1    5    5    0  503 -0.13460934510E+02 -0.56744585531E+02  0.20176766491E+02  0.61889713613E+02  0.47000000000E+01 0.  1.
<mgrwt>
<rscale>  2 0.18747193E+03</rscale>
<asrwt>0</asrwt>
<pdfrwt beam="1">  1       21 0.10157591E-01 0.18750569E+03</pdfrwt>
<pdfrwt beam="2">  1       21 0.12780444E+00 0.18750569E+03</pdfrwt>
<totfact> 0.35718910E+04</totfact>
</mgrwt>
</event>
<event>
12    1  0.1441827E-001  0.1971700E+03  0.7546771E-02  0.1152299E+00
         21   -1    0    0  504  503  0.00000000000E+00  0.00000000000E+00  0.18879286313E+03  0.18879286313E+03  0.00000000000E+00 0. -1.
         21   -1    0    0  502  504 -0.00000000000E+00 -0.00000000000E+00 -0.91874821811E+03  0.91874821811E+03  0.00000000000E+00 0. -1.
          6    2    1    2  502    0  0.92312567577E+02 -0.16035823972E+02 -0.85286236892E+03  0.87520053817E+03  0.17269338120E+03 0.  0.
         24    2    3    3    0    0  0.63227001125E+02  0.36739351337E+01 -0.23722951935E+03  0.25854801020E+03  0.80981956368E+02 0.  0.
         -6    2    1    2    0  503 -0.92312567577E+02  0.16035823972E+02  0.12290701394E+03  0.23234054307E+03  0.17348555011E+03 0.  0.
        -24    2    5    5    0    0 -0.74336568789E+02 -0.41820911022E+02  0.26657361773E+02  0.11851337646E+03  0.77845304324E+02 0.  0.
          2    1    4    4  501    0  0.78270613616E+02 -0.25341020444E+00 -0.14277266895E+03  0.16282010985E+03  0.00000000000E+00 0. -1.
         -1    1    4    4    0  501 -0.15043612491E+02  0.39273453382E+01 -0.94456850396E+02  0.95727900347E+02  0.00000000000E+00 0.  1.
          5    1    3    3  502    0  0.29085566453E+02 -0.19709759106E+02 -0.61563284957E+03  0.61665252797E+03  0.47000000000E+01 0. -1.
         13    1    6    6    0    0 -0.53545531251E+01  0.61257948703E+01 -0.20583648660E+02  0.22133305088E+02  0.00000000000E+00 0. -1.
        -14    1    6    6    0    0 -0.68982015664E+02 -0.47946705892E+02  0.47241010433E+02  0.96380071372E+02  0.00000000000E+00 0.  1.
         -5    1    5    5    0  503 -0.17975998789E+02  0.57856734994E+02  0.96249652168E+02  0.11382716661E+03  0.47000000000E+01 0.  1.
<mgrwt>
<rscale>  2 0.19699557E+03</rscale>
<asrwt>0</asrwt>
<pdfrwt beam="1">  1       21 0.29045056E-01 0.19716996E+03</pdfrwt>
<pdfrwt beam="2">  1       21 0.14134588E+00 0.19716996E+03</pdfrwt>
<totfact> 0.39461311E+03</totfact>
</mgrwt>
</event>
<event>
12    1  0.1441827E-001  0.2273503E+03  0.7546771E-02  0.1129235E+00
         21   -1    0    0  504  503  0.00000000000E+00  0.00000000000E+00  0.10320868279E+03  0.10320868279E+03  0.00000000000E+00 0.  1.
         21   -1    0    0  502  504 -0.00000000000E+00 -0.00000000000E+00 -0.11318916638E+04  0.11318916638E+04  0.00000000000E+00 0. -1.
          6    2    1    2  502    0 -0.81933946834E+02 -0.12168188148E+03 -0.97665250909E+03  0.10018722587E+04  0.16845844415E+03 0.  0.
         24    2    3    3    0    0 -0.17512807505E+02  0.17665654929E+02 -0.29041891528E+03  0.29866072985E+03  0.65086952701E+02 0.  0.
         -6    2    1    2    0  503  0.81933946834E+02  0.12168188148E+03 -0.52030471865E+02  0.23322808780E+03  0.17369087199E+03 0.  0.
        -24    2    5    5    0    0  0.80320719433E+02  0.14002787800E+03 -0.23611175356E+01  0.18004620319E+03  0.79698405383E+02 0.  0.
          2    1    4    4  501    0  0.24884005863E+02  0.48936924739E+01 -0.10099852343E+03  0.10413387397E+03  0.00000000000E+00 0. -1.
         -1    1    4    4    0  501 -0.42396813368E+02  0.12771962455E+02 -0.18942039185E+03  0.19452685588E+03  0.00000000000E+00 0.  1.
          5    1    3    3  502    0 -0.64421139328E+02 -0.13934753641E+03 -0.68623359382E+03  0.70321152890E+03  0.47000000000E+01 0. -1.
         13    1    6    6    0    0  0.48336016858E+02  0.14939076016E+02  0.42027141155E+01  0.50766222273E+02  0.00000000000E+00 0. -1.
        -14    1    6    6    0    0  0.31984702575E+02  0.12508880198E+03 -0.65638316511E+01  0.12927998092E+03  0.00000000000E+00 0.  1.
         -5    1    5    5    0  503  0.16132274007E+01 -0.18345996518E+02 -0.49669354329E+02  0.53181884607E+02  0.47000000000E+01 0.  1.
<mgrwt>
<rscale>  2 0.22635077E+03</rscale>
<asrwt>0</asrwt>
<pdfrwt beam="1">  1       21 0.15878259E-01 0.22735033E+03</pdfrwt>
<pdfrwt beam="2">  1       21 0.17413718E+00 0.22735033E+03</pdfrwt>
<totfact> 0.68672263E+03</totfact>
</mgrwt>
</event>
<event>
12    1  0.1441827E-001  0.1725099E+03  0.7546771E-02  0.1175587E+00
         21   -1    0    0  504  503  0.00000000000E+00  0.00000000000E+00  0.10439724273E+03  0.10439724273E+03  0.00000000000E+00 0. -1.
         21   -1    0    0  502  504 -0.00000000000E+00 -0.00000000000E+00 -0.34021918973E+03  0.34021918973E+03  0.00000000000E+00 0. -1.
          6    2    1    2  502    0  0.23246159879E+02  0.51459765412E+01 -0.26319264844E+02  0.17322918065E+03  0.16955465285E+03 0.  0.
         24    2    3    3    0    0 -0.43229656534E+02  0.33778308106E+02 -0.49184135565E+01  0.97605566517E+02  0.80578399839E+02 0.  0.
         -6    2    1    2    0  503 -0.23246159879E+02 -0.51459765412E+01 -0.20950268216E+03  0.27138725181E+03  0.17085901085E+03 0.  0.
        -24    2    5    5    0    0  0.21429142416E+01 -0.31676641178E+02 -0.36741677195E+02  0.94704100131E+02  0.81307527701E+02 0.  0.
          4    1    4    4  501    0 -0.21785907946E+02 -0.25315007631E+02  0.56088699895E+01  0.33866426132E+02  0.00000000000E+00 0. -1.
         -3    1    4    4    0  501 -0.21443748588E+02  0.59093315736E+02 -0.10527283546E+02  0.63739140386E+02  0.00000000000E+00 0.  1.
          5    1    3    3  502    0  0.66475816413E+02 -0.28632331565E+02 -0.21400851287E+02  0.75623614133E+02  0.47000000000E+01 0. -1.
         11    1    6    6    0    0 -0.92914791783E+01  0.21565365714E+02 -0.32483183799E+02  0.40081838948E+02  0.00000000000E+00 0. -1.
        -12    1    6    6    0    0  0.11434393420E+02 -0.53242006892E+02 -0.42584933953E+01  0.54622261183E+02  0.00000000000E+00 0.  1.
         -5    1    5    5    0  503 -0.25389074121E+02  0.26530664636E+02 -0.17276100496E+03  0.17668315168E+03  0.47000000000E+01 0.  1.
<mgrwt>
<rscale>  2 0.17218605E+03</rscale>
<asrwt>0</asrwt>
<pdfrwt beam="1">  1       21 0.16061114E-01 0.17250990E+03</pdfrwt>
<pdfrwt beam="2">  1       21 0.52341413E-01 0.17250990E+03</pdfrwt>
<totfact> 0.12076441E+05</totfact>
</mgrwt>
</event>
<event>
12    1  0.1441827E-001  0.2172676E+03  0.7546771E-02  0.1136217E+00
         21   -1    0    0  504  503  0.00000000000E+00  0.00000000000E+00  0.10395115088E+04  0.10395115088E+04  0.00000000000E+00 0.  1.
         21   -1    0    0  502  504 -0.00000000000E+00 -0.00000000000E+00 -0.12729475341E+03  0.12729475341E+03  0.00000000000E+00 0.  1.
          6    2    1    2  502    0  0.42080996686E+02 -0.12254289809E+03 -0.13229558118E+02  0.21619799688E+03  0.17256587291E+03 0.  0.
         24    2    3    3    0    0  0.52393809857E+02 -0.14077298488E+03 -0.46515123083E+02  0.17659106548E+03  0.80365435038E+02 0.  0.
         -6    2    1    2    0  503 -0.42080996686E+02  0.12254289809E+03  0.92544631351E+03  0.95060826533E+03  0.17440648718E+03 0.  0.
        -24    2    5    5    0    0 -0.78651671824E+01  0.65809972404E+02  0.23820127114E+03  0.26016117387E+03  0.80939344534E+02 0.  0.
          2    1    4    4  501    0  0.74122223495E+02 -0.11178873692E+03 -0.36788045120E+02  0.13908337780E+03  0.00000000000E+00 0. -1.
         -1    1    4    4    0  501 -0.21728413638E+02 -0.28984247959E+02 -0.97270779629E+01  0.37507687674E+02  0.00000000000E+00 0.  1.
          5    1    3    3  502    0 -0.10312813170E+02  0.18230086790E+02  0.33285564965E+02  0.39606931399E+02  0.47000000000E+01 0. -1.
         13    1    6    6    0    0  0.23284018429E+02 -0.56062571251E+01  0.33893624496E+02  0.41501245941E+02  0.00000000000E+00 0. -1.
        -14    1    6    6    0    0 -0.31149185611E+02  0.71416229529E+02  0.20430764664E+03  0.21865992793E+03  0.00000000000E+00 0.  1.
         -5    1    5    5    0  503 -0.34215829504E+02  0.56732925682E+02  0.68724504237E+03  0.69044709146E+03  0.47000000000E+01 0.  1.
<mgrwt>
<rscale>  2 0.21689794E+03</rscale>
<asrwt>0</asrwt>
<pdfrwt beam="1">  1       21 0.15992484E+00 0.21726757E+03</pdfrwt>
<pdfrwt beam="2">  1       21 0.19583809E-01 0.21726757E+03</pdfrwt>
<totfact> 0.59308710E+03</totfact>
</mgrwt>
</event>
<event>
12    1  0.1441827E-001  0.3565106E+03  0.7546771E-02  0.1060077E+00
         21   -1    0    0  504  503  0.00000000000E+00  0.00000000000E+00  0.35409828697E+03  0.35409828697E+03  0.00000000000E+00 0.  1.
         21   -1    0    0  502  504 -0.00000000000E+00 -0.00000000000E+00 -0.47347027826E+03  0.47347027826E+03  0.00000000000E+00 0. -1.
          6    2    1    2  502    0 -0.59579740805E+01  0.31081537030E+03 -0.26417699260E+03  0.44372208360E+03  0.17452252630E+03 0.  0.
         24    2    3    3    0    0 -0.17790121656E+02  0.28011161847E+03 -0.28069278802E+03  0.40660629732E+03  0.88097857756E+02 0.  0.
         -6    2    1    2    0  503  0.59579740805E+01 -0.31081537030E+03  0.14480500131E+03  0.38384648164E+03  0.17241792595E+03 0.  0.
        -24    2    5    5    0    0 -0.60969398698E+02 -0.20627007007E+03  0.10777015775E+03  0.25422139662E+03  0.82155354141E+02 0.  0.
          2    1    4    4  501    0 -0.28473416626E+02  0.26988202456E+03 -0.28246913259E+03  0.39170888872E+03  0.00000000000E+00 0. -1.
         -1    1    4    4    0  501  0.10683294970E+02  0.10229593908E+02  0.17763445680E+01  0.14897408599E+02  0.00000000000E+00 0.  1.
          5    1    3    3  502    0  0.11832147576E+02  0.30703751831E+02  0.16515795424E+02  0.37115786281E+02  0.47000000000E+01 0. -1.
         11    1    6    6    0    0 -0.75410870231E+01 -0.13841675194E+03  0.39520206364E+02  0.14414545404E+03  0.00000000000E+00 0. -1.
        -12    1    6    6    0    0 -0.53428311675E+02 -0.67853318133E+02  0.68249951387E+02  0.11007594258E+03  0.00000000000E+00 0.  1.
         -5    1    5    5    0  503  0.66927372779E+02 -0.10454530023E+03  0.37034843558E+02  0.12962508502E+03  0.47000000000E+01 0.  1.
<mgrwt>
<rscale>  2 0.35625394E+03</rscale>
<asrwt>0</asrwt>
<pdfrwt beam="1">  1       21 0.54476660E-01 0.35651059E+03</pdfrwt>
<pdfrwt beam="2">  1       21 0.72841581E-01 0.35651059E+03</pdfrwt>
<totfact> 0.49157840E+03</totfact>
</mgrwt>
</event>
<event>
12    1  0.1441827E-001  0.1763569E+03  0.7546771E-02  0.1171436E+00
         21   -1    0    0  504  503  0.00000000000E+00  0.00000000000E+00  0.20377058954E+02  0.20377058954E+02  0.00000000000E+00 0.  1.
         21   -1    0    0  502  504 -0.00000000000E+00 -0.00000000000E+00 -0.16130625690E+04  0.16130625690E+04  0.00000000000E+00 0.  1.
          6    2    1    2  502    0 -0.25451444509E+02  0.23206857579E+02 -0.98749786043E+03  0.10030795333E+04  0.17271418996E+03 0.  0.
         24    2    3    3    0    0 -0.43425654406E+02 -0.55464354121E+01 -0.28774697671E+03  0.30249177048E+03  0.82379598186E+02 0.  0.
         -6    2    1    2    0  503  0.25451444509E+02 -0.23206857579E+02 -0.60518764965E+03  0.63036009473E+03  0.17296075704E+03 0.  0.
        -24    2    5    5    0    0  0.11218462547E+02  0.11226821578E+02 -0.12975619679E+03  0.15344772081E+03  0.80359423783E+02 0.  0.
          2    1    4    4  501    0  0.18969578268E+02  0.42534747937E+01 -0.22074038167E+02  0.29414284089E+02  0.00000000000E+00 0. -1.
         -1    1    4    4    0  501 -0.62395232674E+02 -0.97999102058E+01 -0.26567293854E+03  0.27307748639E+03  0.00000000000E+00 0.  1.
          5    1    3    3  502    0  0.17974209897E+02  0.28753292991E+02 -0.69975088373E+03  0.70058776278E+03  0.47000000000E+01 0. -1.
         13    1    6    6    0    0 -0.33654327127E+02 -0.15723511691E+01 -0.40093430938E+02  0.52369544842E+02  0.00000000000E+00 0. -1.
        -14    1    6    6    0    0  0.44872789674E+02  0.12799172747E+02 -0.89662765853E+02  0.10107817597E+03  0.00000000000E+00 0.  1.
         -5    1    5    5    0  503  0.14232981962E+02 -0.34433679157E+02 -0.47543145285E+03  0.47691237392E+03  0.47000000000E+01 0.  1.
<mgrwt>
<rscale>  2 0.17629642E+03</rscale>
<asrwt>0</asrwt>
<pdfrwt beam="1">  1       21 0.31349340E-02 0.17635690E+03</pdfrwt>
<pdfrwt beam="2">  1       21 0.24816333E+00 0.17635690E+03</pdfrwt>
<totfact> 0.40635540E+04</totfact>
</mgrwt>
</event>
<event>
12    1  0.1441827E-001  0.1950885E+03  0.7546771E-02  0.1154022E+00
         21   -1    0    0  504  503  0.00000000000E+00  0.00000000000E+00  0.39422475713E+03  0.39422475713E+03  0.00000000000E+00 0. -1.
         21   -1    0    0  502  504 -0.00000000000E+00 -0.00000000000E+00 -0.10265527980E+03  0.10265527980E+03  0.00000000000E+00 0. -1.
          6    2    1    2  502    0  0.37836190210E+02  0.81301945972E+02  0.84474824708E+02  0.21259242000E+03  0.17325691134E+03 0.  0.
         24    2    3    3    0    0  0.19195580811E+02  0.66072306188E+02  0.12574653133E+03  0.16458348319E+03  0.80879619385E+02 0.  0.
         -6    2    1    2    0  503 -0.37836190210E+02 -0.81301945972E+02  0.20709465263E+03  0.28428761693E+03  0.17288629293E+03 0.  0.
        -24    2    5    5    0    0 -0.53531701208E+01 -0.11310179243E+03  0.11783867420E+03  0.18401251277E+03  0.84581202621E+02 0.  0.
          2    1    4    4  501    0  0.45826936357E+02  0.63985068789E+02  0.84807805283E+02  0.11570030666E+03  0.00000000000E+00 0. -1.
         -1    1    4    4    0  501 -0.26631355546E+02  0.20872373993E+01  0.40938726042E+02  0.48883176535E+02  0.00000000000E+00 0.  1.
          5    1    3    3  502    0  0.18640609399E+02  0.15229639784E+02 -0.41271706617E+02  0.48008936812E+02  0.47000000000E+01 0. -1.
         13    1    6    6    0    0  0.16504727603E+01 -0.40851696636E+02  0.10175733606E+03  0.10966376165E+03  0.00000000000E+00 0. -1.
        -14    1    6    6    0    0 -0.70036428812E+01 -0.72250095795E+02  0.16081338141E+02  0.74348751115E+02  0.00000000000E+00 0.  1.
         -5    1    5    5    0  503 -0.32483020089E+02  0.31799846459E+02  0.89255978428E+02  0.10027510416E+03  0.47000000000E+01 0.  1.
<mgrwt>
<rscale>  2 0.19500623E+03</rscale>
<asrwt>0</asrwt>
<pdfrwt beam="1">  1       21 0.60649962E-01 0.19508855E+03</pdfrwt>
<pdfrwt beam="2">  1       21 0.15793120E-01 0.19508855E+03</pdfrwt>
<totfact> 0.90320956E+04</totfact>
</mgrwt>
</event>
<event>
12    1  0.1441827E-001  0.1833922E+03  0.7546771E-02  0.1164789E+00
         21   -1    0    0  504  503  0.00000000000E+00  0.00000000000E+00  0.15739175630E+03  0.15739175630E+03  0.00000000000E+00 0. -1.
         21   -1    0    0  502  504 -0.00000000000E+00 -0.00000000000E+00 -0.29204168600E+03  0.29204168600E+03  0.00000000000E+00 0. -1.
          6    2    1    2  502    0 -0.47036603781E+02 -0.33765332696E+02 -0.18468657936E+03  0.26027260960E+03  0.17401195053E+03 0.  0.
         24    2    3    3    0    0  0.28428365601E+02 -0.46475213504E+02 -0.62635367407E+02  0.11613694083E+03  0.81218731422E+02 0.  0.
         -6    2    1    2    0  503  0.47036603781E+02  0.33765332696E+02  0.50036649651E+02  0.18916083270E+03  0.17299021513E+03 0.  0.
        -24    2    5    5    0    0  0.13180276567E+01  0.83108135581E+02  0.35057716576E+02  0.12008580946E+03  0.79264486030E+02 0.  0.
          4    1    4    4  501    0  0.37422920106E+02 -0.66213760860E+02 -0.47174645613E+02  0.89499632766E+02  0.00000000000E+00 0. -1.
         -3    1    4    4    0  501 -0.89945545047E+01  0.19738547356E+02 -0.15460721794E+02  0.26637308063E+02  0.00000000000E+00 0.  1.
          5    1    3    3  502    0 -0.75464969382E+02  0.12709880808E+02 -0.12205121195E+03  0.14413566877E+03  0.47000000000E+01 0. -1.
         11    1    6    6    0    0  0.29785332437E+02  0.53944273348E+02  0.47133071588E+02  0.77580133364E+02  0.00000000000E+00 0. -1.
        -12    1    6    6    0    0 -0.28467304780E+02  0.29163862233E+02 -0.12075355012E+02  0.42505676097E+02  0.00000000000E+00 0.  1.
         -5    1    5    5    0  503  0.45718576124E+02 -0.49342802885E+02  0.14978933075E+02  0.69075023239E+02  0.47000000000E+01 0.  1.
<mgrwt>
<rscale>  2 0.18314942E+03</rscale>
<asrwt>0</asrwt>
<pdfrwt beam="1">  1       21 0.24214117E-01 0.18339220E+03</pdfrwt>
<pdfrwt beam="2">  1       21 0.44929490E-01 0.18339220E+03</pdfrwt>
<totfact> 0.76818024E+04</totfact>
</mgrwt>
</event>
<event>
12    1  0.1441827E-001  0.1963075E+03  0.7546771E-02  0.1153001E+00
         21   -1    0    0  504  503  0.00000000000E+00  0.00000000000E+00  0.28508968516E+03  0.28508968516E+03  0.00000000000E+00 0. -1.
         21   -1    0    0  502  504 -0.00000000000E+00 -0.00000000000E+00 -0.13767430445E+03  0.13767430445E+03  0.00000000000E+00 0. -1.
          6    2    1    2  502    0 -0.22846167040E+02  0.88233715151E+02  0.43399318507E+02  0.20104757277E+03  0.17386629873E+03 0.  0.
         24    2    3    3    0    0  0.25196457764E+01  0.22528239612E+02  0.89284694090E+02  0.11685617376E+03  0.71900893957E+02 0.  0.
         -6    2    1    2    0  503  0.22846167040E+02 -0.88233715151E+02  0.10401606221E+03  0.22171641684E+03  0.17329654486E+03 0.  0.
        -24    2    5    5    0    0  0.54942432489E+01 -0.12562772119E+03  0.59018751825E+02  0.16050980863E+03  0.80421853736E+02 0.  0.
          2    1    4    4  501    0  0.15326394813E+02 -0.18351600814E+02  0.84271880462E+01  0.25351471925E+02  0.00000000000E+00 0. -1.
         -1    1    4    4    0  501 -0.12806749036E+02  0.40879840425E+02  0.80857506044E+02  0.91504701834E+02  0.00000000000E+00 0.  1.
          5    1    3    3  502    0 -0.25365812816E+02  0.65705475540E+02 -0.45885375583E+02  0.84191399015E+02  0.47000000000E+01 0. -1.
         13    1    6    6    0    0 -0.26144645277E+02 -0.11143849885E+03  0.48058650374E+02  0.12414393009E+03  0.00000000000E+00 0. -1.
        -14    1    6    6    0    0  0.31638888526E+02 -0.14189222337E+02  0.10960101451E+02  0.36365878534E+02  0.00000000000E+00 0.  1.
         -5    1    5    5    0  503  0.17351923791E+02  0.37394006040E+02  0.44997310382E+02  0.61206608210E+02  0.47000000000E+01 0.  1.
<mgrwt>
<rscale>  2 0.19618124E+03</rscale>
<asrwt>0</asrwt>
<pdfrwt beam="1">  1       21 0.43859951E-01 0.19630748E+03</pdfrwt>
<pdfrwt beam="2">  1       21 0.21180662E-01 0.19630748E+03</pdfrwt>
<totfact> 0.10339970E+05</totfact>
</mgrwt>
</event>
<event>
12    1  0.1441827E-001  0.1858995E+03  0.7546771E-02  0.1162488E+00
         21   -1    0    0  504  503  0.00000000000E+00  0.00000000000E+00  0.74548626520E+02  0.74548626520E+02  0.00000000000E+00 0. -1.
         21   -1    0    0  502  504 -0.00000000000E+00 -0.00000000000E+00 -0.99861017661E+03  0.99861017661E+03  0.00000000000E+00 0. -1.
          6    2    1    2  502    0  0.31873154934E+02  0.56597789683E+02 -0.85655183882E+03  0.87649282676E+03  0.17418213165E+03 0.  0.
         24    2    3    3    0    0  0.18708651736E+02  0.47966181698E+02 -0.85464443015E+03  0.85995387248E+03  0.80329275997E+02 0.  0.
         -6    2    1    2    0  503 -0.31873154934E+02 -0.56597789683E+02 -0.67509711277E+02  0.19666597637E+03  0.17291829672E+03 0.  0.
        -24    2    5    5    0    0 -0.29989221543E+02 -0.49981965288E+02  0.29208761222E+02  0.99589350655E+02  0.75281716033E+02 0.  0.
          4    1    4    4  501    0  0.43508006483E+02  0.54453461456E+02 -0.63998637555E+03  0.64377067888E+03  0.00000000000E+00 0. -1.
         -3    1    4    4    0  501 -0.24799354747E+02 -0.64872797576E+01 -0.21465805460E+03  0.21618319361E+03  0.00000000000E+00 0.  1.
          5    1    3    3  502    0  0.13164503198E+02  0.86316079841E+01 -0.19074086687E+01  0.16538954280E+02  0.47000000000E+01 0. -1.
         13    1    6    6    0    0 -0.68767780093E+01 -0.63219768975E+02  0.34626769011E+02  0.72408855793E+02  0.00000000000E+00 0. -1.
        -14    1    6    6    0    0 -0.23112443534E+02  0.13237803687E+02 -0.54180077891E+01  0.27180494862E+02  0.00000000000E+00 0.  1.
         -5    1    5    5    0  503 -0.18839333910E+01 -0.66158243943E+01 -0.96718472499E+02  0.97076625714E+02  0.47000000000E+01 0.  1.
<mgrwt>
<rscale>  2 0.18560288E+03</rscale>
<asrwt>0</asrwt>
<pdfrwt beam="1">  1       21 0.11469020E-01 0.18589950E+03</pdfrwt>
<pdfrwt beam="2">  1       21 0.15363233E+00 0.18589950E+03</pdfrwt>
<totfact> 0.17935916E+04</totfact>
</mgrwt>
</event>
<event>
12    1  0.1441827E-001  0.1918123E+03  0.7546771E-02  0.1159860E+00
         21   -1    0    0  504  503  0.00000000000E+00  0.00000000000E+00  0.33643722309E+03  0.33643722309E+03  0.00000000000E+00 0.  1.
         21   -1    0    0  502  504 -0.00000000000E+00 -0.00000000000E+00 -0.25034498513E+03  0.25034498513E+03  0.00000000000E+00 0.  1.
          6    2    1    2  502    0  0.72157490001E+02 -0.24643002448E+02 -0.18333794785E+03  0.25604881799E+03  0.16166079655E+03 0.  0.
         24    2    3    3    0    0 -0.19533331642E+01 -0.55093309422E+02 -0.10103440826E+03  0.14108970381E+03  0.81604317376E+02 0.  0.
         -6    2    1    2    0  503 -0.72157490001E+02  0.24643002448E+02  0.26943018580E+03  0.33073339023E+03  0.17600559496E+03 0.  0.
        -24    2    5    5    0    0 -0.11076522428E+03 -0.12698012679E+02  0.20143351014E+03  0.24395466900E+03  0.80673707514E+02 0.  0.
          2    1    4    4  501    0 -0.84356756483E+01 -0.51778486470E+02 -0.14745326203E+02  0.54494008199E+02  0.00000000000E+00 0. -1.
         -1    1    4    4    0  501  0.64823424841E+01 -0.33148229515E+01 -0.86289082062E+02  0.86595695611E+02  0.00000000000E+00 0.  1.
          5    1    3    3  502    0  0.74110823165E+02  0.30450306973E+02 -0.82303539581E+02  0.11495911418E+03  0.47000000000E+01 0. -1.
         11    1    6    6    0    0 -0.41175307098E+02  0.14792188527E+02  0.20813690641E+02  0.48450226771E+02  0.00000000000E+00 0. -1.
        -12    1    6    6    0    0 -0.69589917180E+02 -0.27490201206E+02  0.18061981950E+03  0.19550444223E+03  0.00000000000E+00 0.  1.
         -5    1    5    5    0  503  0.38607734278E+02  0.37341015127E+02  0.67996675664E+02  0.86778721229E+02  0.47000000000E+01 0.  1.
<mgrwt>
<rscale>  2 0.18845736E+03</rscale>
<asrwt>0</asrwt>
<pdfrwt beam="1">  1       21 0.51759573E-01 0.19181228E+03</pdfrwt>
<pdfrwt beam="2">  1       21 0.38514613E-01 0.19181228E+03</pdfrwt>
<totfact> 0.23054834E+04</totfact>
</mgrwt>
</event>
<event>
12    1  0.1441827E-001  0.2528483E+03  0.7546771E-02  0.1111536E+00
         21   -1    0    0  504  503  0.00000000000E+00  0.00000000000E+00  0.32289772209E+03  0.32289772209E+03  0.00000000000E+00 0. -1.
         21   -1    0    0  502  504 -0.00000000000E+00 -0.00000000000E+00 -0.85437790968E+03  0.85437790968E+03  0.00000000000E+00 0. -1.
          6    2    1    2  502    0  0.14496166938E+03 -0.11417858896E+03 -0.78173384098E+03  0.82160821714E+03  0.17286303411E+03 0.  0.
         24    2    3    3    0    0  0.52976173363E+02 -0.75842359007E+00 -0.17965940287E+03  0.20205903876E+03  0.75784589177E+02 0.  0.
         -6    2    1    2    0  503 -0.14496166938E+03  0.11417858896E+03  0.25025365339E+03  0.35566741464E+03  0.17268984636E+03 0.  0.
        -24    2    5    5    0    0 -0.14052847847E+03  0.12772896687E+03  0.26433703141E+03  0.33508350200E+03  0.79648885095E+02 0.  0.
          2    1    4    4  501    0  0.72586382272E+02  0.20250586563E+01 -0.14374118356E+03  0.16104164556E+03  0.00000000000E+00 0. -1.
         -1    1    4    4    0  501 -0.19610208909E+02 -0.27834822463E+01 -0.35918219309E+02  0.41017393203E+02  0.00000000000E+00 0.  1.
          5    1    3    3  502    0  0.91985496017E+02 -0.11342016537E+03 -0.60207443812E+03  0.61954917837E+03  0.47000000000E+01 0. -1.
         11    1    6    6    0    0  0.83044715524E+01  0.29703704294E+01  0.27069109938E+02  0.28469704268E+02  0.00000000000E+00 0. -1.
        -12    1    6    6    0    0 -0.14883295002E+03  0.12475859644E+03  0.23726792148E+03  0.30661379773E+03  0.00000000000E+00 0.  1.
         -5    1    5    5    0  503 -0.44331909084E+01 -0.13550377912E+02 -0.14083378020E+02  0.20583912642E+02  0.47000000000E+01 0. -1.
<mgrwt>
<rscale>  2 0.25281871E+03</rscale>
<asrwt>0</asrwt>
<pdfrwt beam="1">  1       21 0.49676573E-01 0.25284830E+03</pdfrwt>
<pdfrwt beam="2">  1       21 0.13144275E+00 0.25284830E+03</pdfrwt>
<totfact> 0.15416127E+03</totfact>
</mgrwt>
</event>
<event>
12    1  0.1441827E-001  0.2152316E+03  0.7546771E-02  0.1137581E+00
         21   -1    0    0  504  503  0.00000000000E+00  0.00000000000E+00  0.82100193290E+02  0.82100193290E+02  0.00000000000E+00 0. -1.
         21   -1    0    0  502  504 -0.00000000000E+00 -0.00000000000E+00 -0.64922195492E+03  0.64922195492E+03  0.00000000000E+00 0. -1.
          6    2    1    2  502    0 -0.12109397231E+03  0.41300029317E+02 -0.41710458139E+03  0.46936217730E+03  0.17307564563E+03 0.  0.
         24    2    3    3    0    0 -0.10224572404E+03  0.92131585910E+02 -0.32195682074E+03  0.35975246073E+03  0.82602792786E+02 0.  0.
         -6    2    1    2    0  503  0.12109397231E+03 -0.41300029317E+02 -0.15001718024E+03  0.26195997091E+03  0.17247733023E+03 0.  0.
        -24    2    5    5    0    0  0.27638267156E+02  0.27845788482E+02 -0.10468432283E+03  0.13709095592E+03  0.79346461807E+02 0.  0.
          2    1    4    4  501    0 -0.99219676042E+02  0.67226097475E+02 -0.30918285503E+03  0.33159905027E+03  0.00000000000E+00 0. -1.
         -1    1    4    4    0  501 -0.30260479994E+01  0.24905488435E+02 -0.12773965706E+02  0.28153410460E+02  0.00000000000E+00 0.  1.
          5    1    3    3  502    0 -0.18848248266E+02 -0.50831556593E+02 -0.95147760655E+02  0.10960971657E+03  0.47000000000E+01 0. -1.
         13    1    6    6    0    0  0.42608328944E+02  0.47495092512E+02 -0.76273064823E+02  0.99442616245E+02  0.00000000000E+00 0. -1.
        -14    1    6    6    0    0 -0.14970061788E+02 -0.19649304030E+02 -0.28411258004E+02  0.37648339673E+02  0.00000000000E+00 0.  1.
         -5    1    5    5    0  503  0.93455705152E+02 -0.69145817799E+02 -0.45332857411E+02  0.12486901499E+03  0.47000000000E+01 0.  1.
<mgrwt>
<rscale>  2 0.21511124E+03</rscale>
<asrwt>0</asrwt>
<pdfrwt beam="1">  1       21 0.12630799E-01 0.21523155E+03</pdfrwt>
<pdfrwt beam="2">  1       21 0.99880300E-01 0.21523155E+03</pdfrwt>
<totfact> 0.43561029E+04</totfact>
</mgrwt>
</event>
<event>
12    1  0.1441827E-001  0.1754542E+03  0.7546771E-02  0.1172375E+00
         21   -1    0    0  504  503  0.00000000000E+00  0.00000000000E+00  0.84290702282E+03  0.84290702282E+03  0.00000000000E+00 0. -1.
         21   -1    0    0  502  504 -0.00000000000E+00 -0.00000000000E+00 -0.71844379713E+02  0.71844379713E+02  0.00000000000E+00 0. -1.
          6    2    1    2  502    0  0.40749939936E+01 -0.30370297258E+02  0.64675146531E+02  0.18699481695E+03  0.17275771026E+03 0.  0.
         24    2    3    3    0    0 -0.63733510365E+02 -0.16740514039E+02  0.28916631777E+02  0.10899144759E+03  0.81858163313E+02 0.  0.
         -6    2    1    2    0  503 -0.40749939936E+01  0.30370297258E+02  0.70638749657E+03  0.72775658558E+03  0.17235832445E+03 0.  0.
        -24    2    5    5    0    0  0.64399445274E+02 -0.38029687862E+01  0.29901222654E+03  0.31322882827E+03  0.67396113507E+02 0.  0.
          4    1    4    4  501    0 -0.41590720943E+02  0.31308468225E+02  0.16968164013E+02  0.54753327215E+02  0.00000000000E+00 0. -1.
         -3    1    4    4    0  501 -0.22142789422E+02 -0.48048982264E+02  0.11948467764E+02  0.54238120376E+02  0.00000000000E+00 0.  1.
          5    1    3    3  502    0  0.67808504359E+02 -0.13629783219E+02  0.35758514754E+02  0.78003369359E+02  0.47000000000E+01 0. -1.
         11    1    6    6    0    0 -0.13550474480E+02 -0.48810731219E+01  0.64871773485E+02  0.66451389967E+02  0.00000000000E+00 0. -1.
        -12    1    6    6    0    0  0.77949919754E+02  0.10781043358E+01  0.23414045305E+03  0.24677743830E+03  0.00000000000E+00 0.  1.
         -5    1    5    5    0  503 -0.68474439268E+02  0.34173266044E+02  0.40737527003E+03  0.41452775731E+03  0.47000000000E+01 0.  1.
<mgrwt>
<rscale>  2 0.17535584E+03</rscale>
<asrwt>0</asrwt>
<pdfrwt beam="1">  1       21 0.12967800E+00 0.17545423E+03</pdfrwt>
<pdfrwt beam="2">  1       21 0.11052982E-01 0.17545423E+03</pdfrwt>
<totfact> 0.29864314E+04</totfact>
</mgrwt>
</event>
<event>
12    1  0.1441827E-001  0.2148358E+03  0.7546771E-02  0.1138884E+00
         21   -1    0    0  504  503  0.00000000000E+00  0.00000000000E+00  0.82802773394E+03  0.82802773394E+03  0.00000000000E+00 0. -1.
         21   -1    0    0  502  504 -0.00000000000E+00 -0.00000000000E+00 -0.62579354893E+02  0.62579354893E+02  0.00000000000E+00 0. -1.
          6    2    1    2  502    0 -0.20994705952E+02  0.11580620739E+03  0.22512476190E+03  0.31118416170E+03  0.17972915381E+03 0.  0.
         24    2    3    3    0    0 -0.67849423571E+02  0.10430641512E+03  0.99216427343E+02  0.17626711869E+03  0.75781430190E+02 0.  0.
         -6    2    1    2    0  503  0.20994705952E+02 -0.11580620739E+03  0.54032361715E+03  0.57942292713E+03  0.17300133492E+03 0.  0.
        -24    2    5    5    0    0  0.34460749168E+02 -0.17861098973E+02  0.38234888811E+03  0.39300221047E+03  0.82179700104E+02 0.  0.
          2    1    4    4  501    0  0.11225359113E+02  0.46050130028E+02  0.29639133412E+02  0.55902606310E+02  0.00000000000E+00 0. -1.
         -1    1    4    4    0  501 -0.79074782684E+02  0.58256285094E+02  0.69577293931E+02  0.12036451238E+03  0.00000000000E+00 0.  1.
          5    1    3    3  502    0  0.46854717620E+02  0.11499792270E+02  0.12590833455E+03  0.13491704301E+03  0.47000000000E+01 0. -1.
         13    1    6    6    0    0 -0.19089969542E+02 -0.29655239959E+02  0.17549731101E+03  0.17900605120E+03  0.00000000000E+00 0. -1.
        -14    1    6    6    0    0  0.53550718710E+02  0.11794140986E+02  0.20685157710E+03  0.21399615928E+03  0.00000000000E+00 0.  1.
         -5    1    5    5    0  503 -0.13466043216E+02 -0.97945108419E+02  0.15797472905E+03  0.18642071666E+03  0.47000000000E+01 0.  1.
<mgrwt>
<rscale>  2 0.21342294E+03</rscale>
<asrwt>0</asrwt>
<pdfrwt beam="1">  1       21 0.12738887E+00 0.21483581E+03</pdfrwt>
<pdfrwt beam="2">  1       21 0.96275937E-02 0.21483581E+03</pdfrwt>
<totfact> 0.38985346E+04</totfact>
</mgrwt>
</event>
<event>
12    1  0.1441827E-001  0.2240718E+03  0.7546771E-02  0.1131081E+00
         21   -1    0    0  504  503  0.00000000000E+00  0.00000000000E+00  0.13382294157E+04  0.13382294157E+04  0.00000000000E+00 0.  1.
         21   -1    0    0  502  504 -0.00000000000E+00 -0.00000000000E+00 -0.46717471418E+02  0.46717471418E+02  0.00000000000E+00 0. -1.
          6    2    1    2  502    0  0.99672405156E+02  0.99498307255E+02  0.33421957155E+03  0.40178014766E+03  0.17288743028E+03 0.  0.
         24    2    3    3    0    0  0.13474336719E+03  0.80579037429E+02  0.22776543406E+03  0.28801510673E+03  0.80167652306E+02 0.  0.
         -6    2    1    2    0  503 -0.99672405156E+02 -0.99498307255E+02  0.95729237275E+03  0.98316673948E+03  0.17428037523E+03 0.  0.
        -24    2    5    5    0    0 -0.60880567329E+02 -0.80382810576E+02  0.33082236148E+03  0.35518825743E+03  0.80916151944E+02 0.  0.
          2    1    4    4  501    0  0.97060412245E+02  0.94808125457E+02  0.16808609246E+03  0.21601444108E+03  0.00000000000E+00 0. -1.
         -1    1    4    4    0  501  0.37682954948E+02 -0.14229088028E+02  0.59679341603E+02  0.72000665649E+02  0.00000000000E+00 0.  1.
          5    1    3    3  502    0 -0.35070962038E+02  0.18919269826E+02  0.10645413749E+03  0.11376504093E+03  0.47000000000E+01 0. -1.
         13    1    6    6    0    0  0.45138752713E+01 -0.57686621174E+02  0.11860466042E+03  0.13196661246E+03  0.00000000000E+00 0. -1.
        -14    1    6    6    0    0 -0.65394442600E+02 -0.22696189402E+02  0.21221770106E+03  0.22322164496E+03  0.00000000000E+00 0.  1.
         -5    1    5    5    0  503 -0.38791837827E+02 -0.19115496679E+02  0.62647001127E+03  0.62797848205E+03  0.47000000000E+01 0.  1.
<mgrwt>
<rscale>  2 0.22380084E+03</rscale>
<asrwt>0</asrwt>
<pdfrwt beam="1">  1       21 0.20588142E+00 0.22407175E+03</pdfrwt>
<pdfrwt beam="2">  1       21 0.71873043E-02 0.22407175E+03</pdfrwt>
<totfact> 0.17383965E+04</totfact>
</mgrwt>
</event>
<event>
12    1  0.1441827E-001  0.1827483E+03  0.7546771E-02  0.1165404E+00
         21   -1    0    0  504  503  0.00000000000E+00  0.00000000000E+00  0.11708341128E+04  0.11708341128E+04  0.00000000000E+00 0. -1.
         21   -1    0    0  502  504 -0.00000000000E+00 -0.00000000000E+00 -0.51397137429E+02  0.51397137429E+02  0.00000000000E+00 0. -1.
          6    2    1    2  502    0 -0.53897425568E+02  0.22018378732E+02  0.15151035847E+03  0.23738644165E+03  0.17322584239E+03 0.  0.
         24    2    3    3    0    0 -0.86929546705E+02  0.35863458553E+02  0.56373794280E+02  0.13562268038E+03  0.79828397220E+02 0.  0.
         -6    2    1    2    0  503  0.53897425568E+02 -0.22018378732E+02  0.96792661695E+03  0.98484480862E+03  0.17218484193E+03 0.  0.
        -24    2    5    5    0    0  0.90434521961E+02 -0.54291417080E+02  0.70108753009E+03  0.71354848227E+03  0.80633435824E+02 0.  0.
          4    1    4    4  501    0 -0.10075362327E+03  0.40741398559E+02  0.50295768123E+02  0.11975315633E+03  0.00000000000E+00 0. -1.
         -3    1    4    4    0  501  0.13824076570E+02 -0.48779400064E+01  0.60780261563E+01  0.15869524053E+02  0.00000000000E+00 0.  1.
          5    1    3    3  502    0  0.33032121137E+02 -0.13845079821E+02  0.95136564186E+02  0.10176376127E+03  0.47000000000E+01 0. -1.
         11    1    6    6    0    0  0.27955448711E+02 -0.35019656513E+01  0.42569900593E+03  0.42663030193E+03  0.00000000000E+00 0. -1.
        -12    1    6    6    0    0  0.62479073250E+02 -0.50789451429E+02  0.27538852416E+03  0.28691818034E+03  0.00000000000E+00 0.  1.
         -5    1    5    5    0  503 -0.36537096393E+02  0.32273038348E+02  0.26683908685E+03  0.27129632635E+03  0.47000000000E+01 0.  1.
<mgrwt>
<rscale>  2 0.18250117E+03</rscale>
<asrwt>0</asrwt>
<pdfrwt beam="1">  1       21 0.18012831E+00 0.18274828E+03</pdfrwt>
<pdfrwt beam="2">  1       21 0.79072528E-02 0.18274828E+03</pdfrwt>
<totfact> 0.22396129E+04</totfact>
</mgrwt>
</event>
<event>
12    1  0.1441827E-001  0.2001802E+03  0.7546771E-02  0.1149946E+00
         21   -1    0    0  504  503  0.00000000000E+00  0.00000000000E+00  0.36621303098E+03  0.36621303098E+03  0.00000000000E+00 0.  1.
         21   -1    0    0  502  504 -0.00000000000E+00 -0.00000000000E+00 -0.12717065903E+03  0.12717065903E+03  0.00000000000E+00 0.  1.
          6    2    1    2  502    0 -0.95488388258E+02  0.15289342370E+02  0.25427478285E+02  0.20178866157E+03  0.17527210561E+03 0.  0.
         24    2    3    3    0    0 -0.24158395062E+02 -0.54294726065E+02  0.88655317676E+01  0.10066349862E+03  0.80765072715E+02 0.  0.
         -6    2    1    2    0  503  0.95488388258E+02 -0.15289342370E+02  0.21361489367E+03  0.29159502844E+03  0.17333361340E+03 0.  0.
        -24    2    5    5    0    0  0.43009473211E+02 -0.23495207217E+02  0.22043002538E+03  0.23783715681E+03  0.74667781002E+02 0.  0.
          4    1    4    4  501    0 -0.26440923953E+01 -0.55859525274E+02  0.35614932216E+02  0.66300084353E+02  0.00000000000E+00 0. -1.
         -3    1    4    4    0  501 -0.21514302666E+02  0.15647992094E+01 -0.26749400449E+02  0.34363414268E+02  0.00000000000E+00 0.  1.
          5    1    3    3  502    0 -0.71329993197E+02  0.69584068435E+02  0.16561946518E+02  0.10112516295E+03  0.47000000000E+01 0. -1.
         13    1    6    6    0    0 -0.32833452410E+01  0.75909654748E+01  0.13841197157E+03  0.13865885109E+03  0.00000000000E+00 0. -1.
        -14    1    6    6    0    0  0.46292818452E+02 -0.31086172692E+02  0.82018053814E+02  0.99178305714E+02  0.00000000000E+00 0.  1.
         -5    1    5    5    0  503  0.52478915047E+02  0.82058648474E+01 -0.68151317182E+01  0.53757871635E+02  0.47000000000E+01 0.  1.
<mgrwt>
<rscale>  2 0.19975506E+03</rscale>
<asrwt>0</asrwt>
<pdfrwt beam="1">  1       21 0.56340466E-01 0.20018019E+03</pdfrwt>
<pdfrwt beam="2">  1       21 0.19564717E-01 0.20018019E+03</pdfrwt>
<totfact> 0.71045240E+04</totfact>
</mgrwt>
</event>
<event>
12    1  0.1441827E-001  0.1976402E+03  0.7546771E-02  0.1151821E+00
         21   -1    0    0  504  503  0.00000000000E+00  0.00000000000E+00  0.43851451615E+03  0.43851451615E+03  0.00000000000E+00 0. -1.
         21   -1    0    0  502  504 -0.00000000000E+00 -0.00000000000E+00 -0.88936442534E+02  0.88936442534E+02  0.00000000000E+00 0.  1.
          6    2    1    2  502    0  0.21445221265E+02 -0.93225246988E+02  0.17840354139E+03  0.26598893799E+03  0.17254404471E+03 0.  0.
         24    2    3    3    0    0  0.70436350016E+02 -0.20797521205E+02  0.87312136839E+02  0.13963372385E+03  0.80500629218E+02 0.  0.
         -6    2    1    2    0  503 -0.21445221265E+02  0.93225246988E+02  0.17117453223E+03  0.26146202069E+03  0.17294745904E+03 0.  0.
        -24    2    5    5    0    0  0.96668830649E+01  0.51114524116E+02  0.10915418290E+02  0.92801564102E+02  0.76071287221E+02 0.  0.
          2    1    4    4  501    0  0.53613000013E+02 -0.51090239693E+02  0.63900345589E+02  0.97815236689E+02  0.00000000000E+00 0. -1.
         -1    1    4    4    0  501  0.16823350004E+02  0.30292718488E+02  0.23411791250E+02  0.41818487159E+02  0.00000000000E+00 0.  1.
          5    1    3    3  502    0 -0.48991128752E+02 -0.72427725784E+02  0.91091404546E+02  0.12635521414E+03  0.47000000000E+01 0. -1.
         13    1    6    6    0    0 -0.28996712745E+02  0.13571565562E+01  0.12871925666E+01  0.29056980033E+02  0.00000000000E+00 0. -1.
        -14    1    6    6    0    0  0.38663595810E+02  0.49757367560E+02  0.96282257235E+01  0.63744584068E+02  0.00000000000E+00 0.  1.
         -5    1    5    5    0  503 -0.31112104330E+02  0.42110722872E+02  0.16025911394E+03  0.16866045659E+03  0.47000000000E+01 0.  1.
<mgrwt>
<rscale>  2 0.19755196E+03</rscale>
<asrwt>0</asrwt>
<pdfrwt beam="1">  1       21 0.67463770E-01 0.19764025E+03</pdfrwt>
<pdfrwt beam="2">  1       21 0.13682530E-01 0.19764025E+03</pdfrwt>
<totfact> 0.92940953E+04</totfact>
</mgrwt>
</event>
<event>
12    1  0.1441827E-001  0.2389982E+03  0.7546771E-02  0.1120513E+00
         21   -1    0    0  504  503  0.00000000000E+00  0.00000000000E+00  0.48755112946E+03  0.48755112946E+03  0.00000000000E+00 0. -1.
         21   -1    0    0  502  504 -0.00000000000E+00 -0.00000000000E+00 -0.13018933050E+03  0.13018933050E+03  0.00000000000E+00 0. -1.
          6    2    1    2  502    0 -0.58090576000E+02  0.15328437032E+03  0.80501900275E+02  0.25219178174E+03  0.17392390757E+03 0.  0.
         24    2    3    3    0    0 -0.83078401140E+02  0.13974378385E+03  0.16375923870E+02  0.18189263710E+03  0.79915046687E+02 0.  0.
         -6    2    1    2    0  503  0.58090576000E+02 -0.15328437032E+03  0.27685989868E+03  0.36554867822E+03  0.17350452283E+03 0.  0.
        -24    2    5    5    0    0  0.36519879999E+02 -0.17350207660E+03  0.27438105404E+03  0.33551061496E+03  0.76457424206E+02 0.  0.
          4    1    4    4  501    0 -0.97310668728E+02  0.10354642688E+03  0.96751596574E+01  0.14242484854E+03  0.00000000000E+00 0. -1.
         -3    1    4    4    0  501  0.14232267588E+02  0.36197356976E+02  0.67007642124E+01  0.39467788559E+02  0.00000000000E+00 0.  1.
          5    1    3    3  502    0  0.24987825140E+02  0.13540586465E+02  0.64125976405E+02  0.70299144639E+02  0.47000000000E+01 0. -1.
         13    1    6    6    0    0  0.21228499002E+02 -0.11337501660E+03  0.23566995739E+03  0.26238306419E+03  0.00000000000E+00 0. -1.
        -14    1    6    6    0    0  0.15291380997E+02 -0.60127060009E+02  0.38711096646E+02  0.73127550770E+02  0.00000000000E+00 0.  1.
         -5    1    5    5    0  503  0.21570696001E+02  0.20217706285E+02  0.24788446461E+01  0.30038063256E+02  0.47000000000E+01 0.  1.
<mgrwt>
<rscale>  2 0.23892191E+03</rscale>
<asrwt>0</asrwt>
<pdfrwt beam="1">  1       21 0.75007865E-01 0.23899820E+03</pdfrwt>
<pdfrwt beam="2">  1       21 0.20029128E-01 0.23899820E+03</pdfrwt>
<totfact> 0.35753314E+04</totfact>
</mgrwt>
</event>
<event>
12    1  0.1441827E-001  0.1921502E+03  0.7546771E-02  0.1156994E+00
         21   -1    0    0  504  503  0.00000000000E+00  0.00000000000E+00  0.63158063392E+02  0.63158063392E+02  0.00000000000E+00 0. -1.
         21   -1    0    0  502  504 -0.00000000000E+00 -0.00000000000E+00 -0.18335864159E+04  0.18335864159E+04  0.00000000000E+00 0. -1.
          6    2    1    2  502    0  0.81204072155E+02 -0.88378742220E-03 -0.16683833020E+04  0.16791786573E+04  0.17188373741E+03 0.  0.
         24    2    3    3    0    0  0.75677173058E+02 -0.59262423507E+02 -0.11480711001E+04  0.11554522457E+04  0.88111133377E+02 0.  0.
         -6    2    1    2    0  503 -0.81204072155E+02  0.88378742221E-03 -0.10204505041E+03  0.21756582196E+03  0.17414819332E+03 0.  0.
        -24    2    5    5    0    0 -0.99676710854E+02  0.50937647570E+02 -0.71569375629E+02  0.15522282686E+03  0.80261197488E+02 0.  0.
          2    1    4    4  501    0  0.37229123156E+02  0.16997730264E+02 -0.24980105039E+03  0.25313137937E+03  0.00000000000E+00 0. -1.
         -1    1    4    4    0  501  0.38448049902E+02 -0.76260153771E+02 -0.89827004968E+03  0.90232086629E+03  0.00000000000E+00 0.  1.
          5    1    3    3  502    0  0.55268990970E+01  0.59261539720E+02 -0.52031220198E+03  0.52372641162E+03  0.47000000000E+01 0. -1.
         11    1    6    6    0    0 -0.52918523399E+02  0.68175593740E+02 -0.56526394999E+02  0.10316741265E+03  0.00000000000E+00 0. -1.
        -12    1    6    6    0    0 -0.46758187454E+02 -0.17237946170E+02 -0.15042980631E+02  0.52055414209E+02  0.00000000000E+00 0.  1.
         -5    1    5    5    0  503  0.18472638699E+02 -0.50936763783E+02 -0.30475674782E+02  0.62342995105E+02  0.47000000000E+01 0.  1.
<mgrwt>
<rscale>  2 0.19163565E+03</rscale>
<asrwt>0</asrwt>
<pdfrwt beam="1">  1       21 0.97166250E-02 0.19215019E+03</pdfrwt>
<pdfrwt beam="2">  1       21 0.28209022E+00 0.19215019E+03</pdfrwt>
<totfact> 0.36971746E+03</totfact>
</mgrwt>
</event>
<event>
12    1  0.1441827E-001  0.1911508E+03  0.7546771E-02  0.1158285E+00
         21   -1    0    0  504  503  0.00000000000E+00  0.00000000000E+00  0.17460896569E+03  0.17460896569E+03  0.00000000000E+00 0. -1.
         21   -1    0    0  502  504 -0.00000000000E+00 -0.00000000000E+00 -0.31263878370E+03  0.31263878370E+03  0.00000000000E+00 0. -1.
          6    2    1    2  502    0 -0.16218621708E+02  0.71235136992E+02 -0.21232906340E+03  0.28569607693E+03  0.17663841251E+03 0.  0.
         24    2    3    3    0    0  0.73227996674E+01  0.10735914305E+03 -0.12848251588E+03  0.19129546324E+03  0.92231168136E+02 0.  0.
         -6    2    1    2    0  503  0.16218621708E+02 -0.71235136992E+02  0.74299245381E+02  0.20155167246E+03  0.17252597015E+03 0.  0.
        -24    2    5    5    0    0  0.25996645044E+02 -0.52088587038E+02  0.11698271399E+03  0.15352908811E+03  0.80605080928E+02 0.  0.
          2    1    4    4  501    0  0.27811627416E+02 -0.98623768722E+00 -0.45330367635E+02  0.53191178914E+02  0.00000000000E+00 0. -1.
         -1    1    4    4    0  501 -0.20488827749E+02  0.10834538074E+03 -0.83152148246E+02  0.13810428432E+03  0.00000000000E+00 0.  1.
          5    1    3    3  502    0 -0.23541421376E+02 -0.36124006062E+02 -0.83846547520E+02  0.94400613691E+02  0.47000000000E+01 0. -1.
         11    1    6    6    0    0 -0.22424659868E+02  0.59758253297E+01  0.35117750430E+02  0.42093137848E+02  0.00000000000E+00 0. -1.
        -12    1    6    6    0    0  0.48421304912E+02 -0.58064412368E+02  0.81864963557E+02  0.11143595026E+03  0.00000000000E+00 0.  1.
         -5    1    5    5    0  503 -0.97780233357E+01 -0.19146549954E+02 -0.42683468606E+02  0.48022584350E+02  0.47000000000E+01 0.  1.
<mgrwt>
<rscale>  2 0.19019522E+03</rscale>
<asrwt>0</asrwt>
<pdfrwt beam="1">  1       21 0.26862918E-01 0.19115077E+03</pdfrwt>
<pdfrwt beam="2">  1       21 0.48098274E-01 0.19115077E+03</pdfrwt>
<totfact> 0.54551704E+04</totfact>
</mgrwt>
</event>
<event>
12    1  0.1441827E-001  0.1766287E+03  0.7546771E-02  0.1171425E+00
         21   -1    0    0  504  503  0.00000000000E+00  0.00000000000E+00  0.25837865782E+03  0.25837865782E+03  0.00000000000E+00 0.  1.
         21   -1    0    0  502  504 -0.00000000000E+00 -0.00000000000E+00 -0.18722961580E+03  0.18722961580E+03  0.00000000000E+00 0.  1.
          6    2    1    2  502    0  0.37042612541E+02 -0.92366242218E+00 -0.97981595389E+02  0.20198539723E+03  0.17269828998E+03 0.  0.
         24    2    3    3    0    0  0.45398391388E+02  0.20999566374E+01 -0.13468271390E+03  0.16393249441E+03  0.81663979473E+02 0.  0.
         -6    2    1    2    0  503 -0.37042612541E+02  0.92366242218E+00  0.16913063741E+03  0.24362287640E+03  0.17138822918E+03 0.  0.
        -24    2    5    5    0    0  0.11129323691E+02 -0.40712314632E+02  0.15345714909E+03  0.17788218686E+03  0.79445713450E+02 0.  0.
          4    1    4    4  501    0  0.33128604056E+02 -0.12991536864E+02 -0.13944016583E+03  0.14390915288E+03  0.00000000000E+00 0. -1.
         -3    1    4    4    0  501  0.12269787333E+02  0.15091493501E+02  0.47574519298E+01  0.20023341533E+02  0.00000000000E+00 0.  1.
          5    1    3    3  502    0 -0.83557788474E+01 -0.30236190596E+01  0.36701118511E+02  0.38052902810E+02  0.47000000000E+01 0. -1.
         11    1    6    6    0    0  0.33844519883E+02 -0.23052133097E+02  0.14046511839E+03  0.14631234347E+03  0.00000000000E+00 0. -1.
        -12    1    6    6    0    0 -0.22715196192E+02 -0.17660181535E+02  0.12992030698E+02  0.31569843388E+02  0.00000000000E+00 0.  1.
         -5    1    5    5    0  503 -0.48171936232E+02  0.41635977054E+02  0.15673488316E+02  0.65740689543E+02  0.47000000000E+01 0.  1.
<mgrwt>
<rscale>  2 0.17630768E+03</rscale>
<asrwt>0</asrwt>
<pdfrwt beam="1">  1       21 0.39750563E-01 0.17662873E+03</pdfrwt>
<pdfrwt beam="2">  1       21 0.28804556E-01 0.17662873E+03</pdfrwt>
<totfact> 0.70833601E+04</totfact>
</mgrwt>
</event>
<event>
12    1  0.1441827E-001  0.2636810E+03  0.7546771E-02  0.1105110E+00
         21   -1    0    0  504  503  0.00000000000E+00  0.00000000000E+00  0.11149545454E+04  0.11149545454E+04  0.00000000000E+00 0. -1.
         21   -1    0    0  502  504 -0.00000000000E+00 -0.00000000000E+00 -0.62174206127E+02  0.62174206127E+02  0.00000000000E+00 0.  1.
          6    2    1    2  502    0  0.18600029250E+03  0.68746526353E+02  0.50582475552E+03  0.56993183631E+03  0.17216684074E+03 0.  0.
         24    2    3    3    0    0  0.13898837571E+03  0.66083468320E+02  0.49120376336E+03  0.52040330302E+03  0.76509262722E+02 0.  0.
         -6    2    1    2    0  503 -0.18600029250E+03 -0.68746526353E+02  0.54695558378E+03  0.60719691524E+03  0.17379726567E+03 0.  0.
        -24    2    5    5    0    0 -0.46176773083E+02 -0.71948487166E+02  0.11758378007E+03  0.15559631188E+03  0.55456178708E+02 0.  0.
          2    1    4    4  501    0  0.10513753003E+03  0.66617182248E+02  0.45091943894E+03  0.46778209629E+03  0.00000000000E+00 0. -1.
         -1    1    4    4    0  501  0.33850845676E+02 -0.53371392842E+00  0.40284324419E+02  0.52621206728E+02  0.00000000000E+00 0.  1.
          5    1    3    3  502    0  0.47011916793E+02  0.26630580330E+01  0.14620992157E+02  0.49528533295E+02  0.47000000000E+01 0. -1.
         13    1    6    6    0    0 -0.19421717043E+02 -0.98621833087E+00  0.51341847029E+02  0.54901374990E+02  0.00000000000E+00 0. -1.
        -14    1    6    6    0    0 -0.26755056040E+02 -0.70962268835E+02  0.66241933040E+02  0.10069493689E+03  0.00000000000E+00 0.  1.
         -5    1    5    5    0  503 -0.13982351942E+03  0.32019608130E+01  0.42937180371E+03  0.45160060336E+03  0.47000000000E+01 0.  1.
<mgrwt>
<rscale>  2 0.26341267E+03</rscale>
<asrwt>0</asrwt>
<pdfrwt beam="1">  1       21 0.17153145E+00 0.26368103E+03</pdfrwt>
<pdfrwt beam="2">  1       21 0.95652633E-02 0.26368103E+03</pdfrwt>
<totfact> 0.17463190E+04</totfact>
</mgrwt>
</event>
<event>
12    1  0.1441827E-001  0.1947574E+03  0.7546771E-02  0.1155187E+00
         21   -1    0    0  504  503  0.00000000000E+00  0.00000000000E+00  0.23925687184E+03  0.23925687184E+03  0.00000000000E+00 0.  1.
         21   -1    0    0  502  504 -0.00000000000E+00 -0.00000000000E+00 -0.22714748439E+03  0.22714748439E+03  0.00000000000E+00 0.  1.
          6    2    1    2  502    0  0.59132260028E+02 -0.38072003602E+02 -0.12526532313E+03  0.23156392025E+03  0.18161593088E+03 0.  0.
         24    2    3    3    0    0  0.36428321050E+02 -0.76138763964E+02 -0.14324522542E+03  0.18350235582E+03  0.77651696909E+02 0.  0.
         -6    2    1    2    0  503 -0.59132260028E+02  0.38072003602E+02  0.13737471058E+03  0.23484043597E+03  0.17700880663E+03 0.  0.
        -24    2    5    5    0    0 -0.36288110199E+02 -0.38735025619E+02  0.55491025521E+02  0.12017482300E+03  0.92441900769E+02 0.  0.
          2    1    4    4  501    0 -0.79238870579E+01 -0.62806783021E+02 -0.10845335318E+03  0.12557710697E+03  0.00000000000E+00 0. -1.
         -1    1    4    4    0  501  0.44352208108E+02 -0.13331980944E+02 -0.34791872238E+02  0.57925248845E+02  0.00000000000E+00 0.  1.
          5    1    3    3  502    0  0.22703938978E+02  0.38066760362E+02  0.17979902290E+02  0.48061564435E+02  0.47000000000E+01 0. -1.
         13    1    6    6    0    0 -0.23753059850E+02  0.12496469366E+02 -0.16065799275E+02  0.31280657045E+02  0.00000000000E+00 0. -1.
        -14    1    6    6    0    0 -0.12535050349E+02 -0.51231494985E+02  0.71556824796E+02  0.88894165953E+02  0.00000000000E+00 0.  1.
         -5    1    5    5    0  503 -0.22844149829E+02  0.76807029222E+02  0.81883685062E+02  0.11466561297E+03  0.47000000000E+01 0.  1.
<mgrwt>
<rscale>  2 0.19367619E+03</rscale>
<asrwt>0</asrwt>
<pdfrwt beam="1">  1       21 0.36808749E-01 0.19475741E+03</pdfrwt>
<pdfrwt beam="2">  1       21 0.34945767E-01 0.19475741E+03</pdfrwt>
<totfact> 0.56135479E+04</totfact>
</mgrwt>
</event>
<event>
12    1  0.1441827E-001  0.1769201E+03  0.7546771E-02  0.1171847E+00
         21   -1    0    0  504  503  0.00000000000E+00  0.00000000000E+00  0.36181836739E+03  0.36181836739E+03  0.00000000000E+00 0.  1.
         21   -1    0    0  502  504 -0.00000000000E+00 -0.00000000000E+00 -0.13636974637E+03  0.13636974637E+03  0.00000000000E+00 0.  1.
          6    2    1    2  502    0 -0.69330827782E+01 -0.70889617957E+01 -0.41694249081E+02  0.17777272963E+03  0.17252945250E+03 0.  0.
         24    2    3    3    0    0 -0.27749809567E+01 -0.57459155929E+02  0.18496612174E+02  0.99035978073E+02  0.78464929564E+02 0.  0.
         -6    2    1    2    0  503  0.69330827782E+01  0.70889617957E+01  0.26714287009E+03  0.32041538412E+03  0.17664196649E+03 0.  0.
        -24    2    5    5    0    0 -0.30859724827E+02 -0.56619829493E+02  0.15336800667E+03  0.18457019304E+03  0.79914222635E+02 0.  0.
          4    1    4    4  501    0  0.31571239403E+02 -0.32633620866E+02  0.30848433885E+02  0.54893735903E+02  0.00000000000E+00 0. -1.
         -3    1    4    4    0  501 -0.34346220360E+02 -0.24825535064E+02 -0.12351821711E+02  0.44142242170E+02  0.00000000000E+00 0.  1.
          5    1    3    3  502    0 -0.41581018215E+01  0.50370194134E+02 -0.60190861254E+02  0.78736751561E+02  0.47000000000E+01 0. -1.
         11    1    6    6    0    0 -0.42870094361E+02 -0.29939319255E+00  0.47010615757E+02  0.63623365368E+02  0.00000000000E+00 0. -1.
        -12    1    6    6    0    0  0.12010369535E+02 -0.56320436300E+02  0.10635739091E+03  0.12094682767E+03  0.00000000000E+00 0.  1.
         -5    1    5    5    0  503  0.37792807605E+02  0.63708791288E+02  0.11377486343E+03  0.13584519109E+03  0.47000000000E+01 0.  1.
<mgrwt>
<rscale>  2 0.17588452E+03</rscale>
<asrwt>0</asrwt>
<pdfrwt beam="1">  1       21 0.55664364E-01 0.17692005E+03</pdfrwt>
<pdfrwt beam="2">  1       21 0.20979961E-01 0.17692005E+03</pdfrwt>
<totfact> 0.64627136E+04</totfact>
</mgrwt>
</event>
<event>
12    1  0.1441827E-001  0.2491713E+03  0.7546771E-02  0.1115913E+00
         21   -1    0    0  504  503  0.00000000000E+00  0.00000000000E+00  0.23509696534E+03  0.23509696534E+03  0.00000000000E+00 0. -1.
         21   -1    0    0  502  504 -0.00000000000E+00 -0.00000000000E+00 -0.34074610762E+03  0.34074610762E+03  0.00000000000E+00 0.  1.
          6    2    1    2  502    0  0.63764407331E+02 -0.14765836195E+03 -0.19974834254E+03  0.30949551985E+03  0.17326045412E+03 0.  0.
         24    2    3    3    0    0 -0.20161520757E+02 -0.11103158598E+03 -0.15331416186E+03  0.20671757835E+03  0.80575585430E+02 0.  0.
         -6    2    1    2    0  503 -0.63764407331E+02  0.14765836195E+03  0.94099200269E+02  0.26634755311E+03  0.19030887540E+03 0.  0.
        -24    2    5    5    0    0 -0.57747001368E+02 -0.10069593326E+01  0.22271261598E+02  0.10106316273E+03  0.79887568707E+02 0.  0.
          4    1    4    4  501    0 -0.14858989184E+02  0.81318518485E+01 -0.34102644381E+02  0.38077643412E+02  0.00000000000E+00 0. -1.
         -3    1    4    4    0  501 -0.53025315731E+01 -0.11916343783E+03 -0.11921151748E+03  0.16863993494E+03  0.00000000000E+00 0.  1.
          5    1    3    3  502    0  0.83925928088E+02 -0.36626775975E+02 -0.46434180678E+02  0.10277794150E+03  0.47000000000E+01 0. -1.
         11    1    6    6    0    0  0.32441064737E+01 -0.21986968105E+02  0.28638804402E+02  0.36250960136E+02  0.00000000000E+00 0. -1.
        -12    1    6    6    0    0 -0.60991107842E+02  0.20980008772E+02 -0.63675428039E+01  0.64812202595E+02  0.00000000000E+00 0.  1.
         -5    1    5    5    0  503 -0.60174059627E+01  0.14866532129E+03  0.71827938671E+02  0.16528439037E+03  0.47000000000E+01 0.  1.
<mgrwt>
<rscale>  2 0.24591695E+03</rscale>
<asrwt>0</asrwt>
<pdfrwt beam="1">  1       21 0.36168764E-01 0.24917135E+03</pdfrwt>
<pdfrwt beam="2">  1       21 0.52422478E-01 0.24917135E+03</pdfrwt>
<totfact> 0.24700837E+04</totfact>
</mgrwt>
</event>
<event>
12    1  0.1441827E-001  0.1942639E+03  0.7546771E-02  0.1156084E+00
         21   -1    0    0  504  503  0.00000000000E+00  0.00000000000E+00  0.11461945491E+03  0.11461945491E+03  0.00000000000E+00 0.  1.
         21   -1    0    0  502  504 -0.00000000000E+00 -0.00000000000E+00 -0.35970558269E+03  0.35970558269E+03  0.00000000000E+00 0. -1.
          6    2    1    2  502    0  0.19635678722E+01 -0.77091220159E+02 -0.20091015567E+03  0.27510157071E+03  0.17137406960E+03 0.  0.
         24    2    3    3    0    0 -0.63399663103E+02 -0.34270253116E+02 -0.13553299110E+03  0.17311014543E+03  0.80024766457E+02 0.  0.
         -6    2    1    2    0  503 -0.19635678722E+01  0.77091220159E+02 -0.44175972105E+02  0.19922346689E+03  0.17830188284E+03 0.  0.
        -24    2    5    5    0    0 -0.40669334375E+01  0.28853493161E+02 -0.95766160598E+02  0.12840722581E+03  0.80425083832E+02 0.  0.
          4    1    4    4  501    0 -0.16497695924E+02  0.82951796909E+01 -0.97495363654E+02  0.99228674842E+02  0.00000000000E+00 0. -1.
         -3    1    4    4    0  501 -0.46901967180E+02 -0.42565432807E+02 -0.38037627442E+02  0.73881470592E+02  0.00000000000E+00 0.  1.
          5    1    3    3  502    0  0.65363230975E+02 -0.42820967043E+02 -0.65377164578E+02  0.10199142528E+03  0.47000000000E+01 0. -1.
         13    1    6    6    0    0  0.91467928924E+01 -0.24864877133E+02 -0.14800899577E+02  0.30347859288E+02  0.00000000000E+00 0. -1.
        -14    1    6    6    0    0 -0.13213726330E+02  0.53718370294E+02 -0.80965261021E+02  0.98059366522E+02  0.00000000000E+00 0.  1.
         -5    1    5    5    0  503  0.21033655653E+01  0.48237726998E+02  0.51590188493E+02  0.70816241085E+02  0.47000000000E+01 0.  1.
<mgrwt>
<rscale>  2 0.19265955E+03</rscale>
<asrwt>0</asrwt>
<pdfrwt beam="1">  1       21 0.17633762E-01 0.19426393E+03</pdfrwt>
<pdfrwt beam="2">  1       21 0.55339320E-01 0.19426393E+03</pdfrwt>
<totfact> 0.89730587E+04</totfact>
</mgrwt>
</event>
<event>
12    1  0.1441827E-001  0.2532075E+03  0.7546771E-02  0.1111492E+00
         21   -1    0    0  504  503  0.00000000000E+00  0.00000000000E+00  0.13347839887E+04  0.13347839887E+04  0.00000000000E+00 0. -1.
         21   -1    0    0  502  504 -0.00000000000E+00 -0.00000000000E+00 -0.59477250086E+02  0.59477250086E+02  0.00000000000E+00 0.  1.
          6    2    1    2  502    0  0.10010337688E+03  0.15301822274E+03  0.94534825572E+03  0.97834462770E+03  0.17331942591E+03 0.  0.
         24    2    3    3    0    0  0.15497123217E+02  0.16254583515E+02  0.16217543742E+03  0.17881710191E+03  0.71904875485E+02 0.  0.
         -6    2    1    2    0  503 -0.10010337688E+03 -0.15301822274E+03  0.32995848292E+03  0.41591661111E+03  0.17515354520E+03 0.  0.
        -24    2    5    5    0    0 -0.12840214621E+03 -0.80432425984E+02  0.25798212571E+03  0.30974597378E+03  0.80195416206E+02 0.  0.
          4    1    4    4  501    0  0.36077451946E+02  0.30823147797E+01  0.38902933546E+02  0.53146226976E+02  0.00000000000E+00 0. -1.
         -3    1    4    4    0  501 -0.20580328729E+02  0.13172268735E+02  0.12327250388E+03  0.12567087493E+03  0.00000000000E+00 0.  1.
          5    1    3    3  502    0  0.84606253663E+02  0.13676363923E+03  0.78317281830E+03  0.79952752579E+03  0.47000000000E+01 0. -1.
         11    1    6    6    0    0 -0.11094800960E+03 -0.62563952604E+02  0.25440916888E+03  0.28451315296E+03  0.00000000000E+00 0. -1.
        -12    1    6    6    0    0 -0.17454136607E+02 -0.17868473380E+02  0.35729568397E+01  0.25232820814E+02  0.00000000000E+00 0.  1.
         -5    1    5    5    0  503  0.28298769331E+02 -0.72585796758E+02  0.71976357204E+02  0.10617063734E+03  0.47000000000E+01 0.  1.
<mgrwt>
<rscale>  2 0.25289057E+03</rscale>
<asrwt>0</asrwt>
<pdfrwt beam="1">  1       21 0.20535136E+00 0.25320748E+03</pdfrwt>
<pdfrwt beam="2">  1       21 0.91503472E-02 0.25320748E+03</pdfrwt>
<totfact> 0.11255826E+04</totfact>
</mgrwt>
</event>
<event>
12    1  0.1441827E-001  0.2230497E+03  0.7546771E-02  0.1131779E+00
         21   -1    0    0  504  503  0.00000000000E+00  0.00000000000E+00  0.16492443114E+04  0.16492443114E+04  0.00000000000E+00 0. -1.
         21   -1    0    0  502  504 -0.00000000000E+00 -0.00000000000E+00 -0.82277275339E+02  0.82277275339E+02  0.00000000000E+00 0.  1.
          6    2    1    2  502    0  0.57961271130E+02  0.13164864128E+03  0.93226290394E+02  0.24099719593E+03  0.16940375888E+03 0.  0.
         24    2    3    3    0    0 -0.21987822412E+01  0.77258393298E+02  0.11166620345E+03  0.15769262528E+03  0.80149417328E+02 0.  0.
         -6    2    1    2    0  503 -0.57961271130E+02 -0.13164864128E+03  0.14737407457E+04  0.14905243908E+04  0.17047081999E+03 0.  0.
        -24    2    5    5    0    0  0.33877836069E+02 -0.75951858024E+02  0.80154070029E+03  0.80978101458E+03  0.79758415508E+02 0.  0.
          4    1    4    4  501    0  0.30073254285E+01 -0.15430606060E+02  0.54838908978E+01  0.16649945014E+02  0.00000000000E+00 0. -1.
         -3    1    4    4    0  501 -0.52061076697E+01  0.92688999358E+02  0.10618231255E+03  0.14104268027E+03  0.00000000000E+00 0.  1.
          5    1    3    3  502    0  0.60160053372E+02  0.54390247979E+02 -0.18439913051E+02  0.83304570644E+02  0.47000000000E+01 0. -1.
         13    1    6    6    0    0 -0.43056294849E+01 -0.73409212294E+02  0.42649097123E+03  0.43278401015E+03  0.00000000000E+00 0. -1.
        -14    1    6    6    0    0  0.38183465554E+02 -0.25426457300E+01  0.37504972906E+03  0.37699700444E+03  0.00000000000E+00 0.  1.
         -5    1    5    5    0  503 -0.91839107199E+02 -0.55696783254E+02  0.67220004541E+03  0.68074337626E+03  0.47000000000E+01 0.  1.
<mgrwt>
<rscale>  2 0.22284582E+03</rscale>
<asrwt>0</asrwt>
<pdfrwt beam="1">  1       21 0.25372987E+00 0.22304971E+03</pdfrwt>
<pdfrwt beam="2">  1       21 0.12658044E-01 0.22304971E+03</pdfrwt>
<totfact> 0.32669147E+03</totfact>
</mgrwt>
</event>
<event>
12    1  0.1441827E-001  0.2201628E+03  0.7546771E-02  0.1133859E+00
         21   -1    0    0  504  503  0.00000000000E+00  0.00000000000E+00  0.13953783597E+03  0.13953783597E+03  0.00000000000E+00 0. -1.
         21   -1    0    0  502  504 -0.00000000000E+00 -0.00000000000E+00 -0.50142723887E+03  0.50142723887E+03  0.00000000000E+00 0. -1.
          6    2    1    2  502    0  0.12523192601E+03 -0.54047362633E+02 -0.35920632685E+03  0.42130850984E+03  0.17282222806E+03 0.  0.
         24    2    3    3    0    0  0.11174414218E+03 -0.76385623710E+02 -0.36160920901E+03  0.39468554864E+03  0.81816535266E+02 0.  0.
         -6    2    1    2    0  503 -0.12523192601E+03  0.54047362633E+02 -0.26830760427E+01  0.21965656501E+03  0.17215590304E+03 0.  0.
        -24    2    5    5    0    0 -0.13155589202E+03  0.85300524145E+02  0.23598849543E+02  0.17806831831E+03  0.81044976045E+02 0.  0.
          2    1    4    4  501    0  0.37851860342E+02 -0.66275804545E+02 -0.24180002686E+03  0.25355965489E+03  0.00000000000E+00 0. -1.
         -1    1    4    4    0  501  0.73892281836E+02 -0.10109819165E+02 -0.11980918215E+03  0.14112589375E+03  0.00000000000E+00 0.  1.
          5    1    3    3  502    0  0.13487783833E+02  0.22338261076E+02  0.24028821539E+01  0.26622961204E+02  0.47000000000E+01 0. -1.
         11    1    6    6    0    0 -0.82069541578E+02  0.15162865743E+02 -0.13523162719E+02  0.84547016992E+02  0.00000000000E+00 0. -1.
        -12    1    6    6    0    0 -0.49486350442E+02  0.70137658402E+02  0.37122012262E+02  0.93521301320E+02  0.00000000000E+00 0.  1.
         -5    1    5    5    0  503  0.63239660095E+01 -0.31253161511E+02 -0.26281925586E+02  0.41588246693E+02  0.47000000000E+01 0.  1.
<mgrwt>
<rscale>  2 0.22003206E+03</rscale>
<asrwt>0</asrwt>
<pdfrwt beam="1">  1       21 0.21467359E-01 0.22016284E+03</pdfrwt>
<pdfrwt beam="2">  1       21 0.77142652E-01 0.22016284E+03</pdfrwt>
<totfact> 0.29728146E+04</totfact>
</mgrwt>
</event>
<event>
12    1  0.1441827E-001  0.1815959E+03  0.7546771E-02  0.1166855E+00
         21   -1    0    0  504  503  0.00000000000E+00  0.00000000000E+00  0.18689452151E+03  0.18689452151E+03  0.00000000000E+00 0. -1.
         21   -1    0    0  502  504 -0.00000000000E+00 -0.00000000000E+00 -0.48658172415E+03  0.48658172415E+03  0.00000000000E+00 0. -1.
          6    2    1    2  502    0 -0.50977222182E+02 -0.15293097074E+02 -0.42006253115E+03  0.45763477492E+03  0.17362171853E+03 0.  0.
         24    2    3    3    0    0 -0.25307052198E+02  0.61682182180E+02 -0.22610661705E+03  0.24733703871E+03  0.74875028916E+02 0.  0.
         -6    2    1    2    0  503  0.50977222182E+02  0.15293097074E+02  0.12037532851E+03  0.21584147074E+03  0.17106947354E+03 0.  0.
        -24    2    5    5    0    0 -0.24015231819E+02  0.47847083440E+02  0.56739559351E+02  0.11213403947E+03  0.80551787432E+02 0.  0.
          4    1    4    4  501    0  0.22414206965E+02  0.18216051012E+02 -0.11748505256E+03  0.12098329952E+03  0.00000000000E+00 0. -1.
         -3    1    4    4    0  501 -0.47721259162E+02  0.43466131168E+02 -0.10862156449E+03  0.12635373919E+03  0.00000000000E+00 0.  1.
          5    1    3    3  502    0 -0.25670169984E+02 -0.76975279254E+02 -0.19395591410E+03  0.21029773621E+03  0.47000000000E+01 0. -1.
         13    1    6    6    0    0 -0.97808897693E+01 -0.21269368708E+02  0.26503332995E+02  0.35362105561E+02  0.00000000000E+00 0. -1.
        -14    1    6    6    0    0 -0.14234342050E+02  0.69116452148E+02  0.30236226356E+02  0.76771933904E+02  0.00000000000E+00 0.  1.
         -5    1    5    5    0  503  0.74992454001E+02 -0.32553986367E+02  0.63635769158E+02  0.10370743128E+03  0.47000000000E+01 0.  1.
<mgrwt>
<rscale>  2 0.18098312E+03</rscale>
<asrwt>0</asrwt>
<pdfrwt beam="1">  1       21 0.28753003E-01 0.18159586E+03</pdfrwt>
<pdfrwt beam="2">  1       21 0.74858726E-01 0.18159586E+03</pdfrwt>
<totfact> 0.18603253E+04</totfact>
</mgrwt>
</event>
<event>
12    1  0.1441827E-001  0.2814330E+03  0.7546771E-02  0.1094923E+00
         21   -1    0    0  504  503  0.00000000000E+00  0.00000000000E+00  0.32430516081E+03  0.32430516081E+03  0.00000000000E+00 0. -1.
         21   -1    0    0  502  504 -0.00000000000E+00 -0.00000000000E+00 -0.24439989405E+03  0.24439989405E+03  0.00000000000E+00 0.  1.
          6    2    1    2  502    0  0.16895449964E+03  0.14401532728E+03  0.30596256793E+02  0.28298506141E+03  0.17279576560E+03 0.  0.
         24    2    3    3    0    0  0.12377553058E+02  0.24823431798E+02  0.74588896509E+01  0.84792034514E+02  0.79778740879E+02 0.  0.
         -6    2    1    2    0  503 -0.16895449964E+03 -0.14401532728E+03  0.49309009967E+02  0.28571999346E+03  0.17296964692E+03 0.  0.
        -24    2    5    5    0    0 -0.10025877074E+02 -0.44448098622E+02  0.27008929483E+02  0.96798518541E+02  0.81020486531E+02 0.  0.
          2    1    4    4  501    0 -0.17494974404E+02 -0.21805664266E+02  0.90712723043E+01  0.29391310020E+02  0.00000000000E+00 0. -1.
         -1    1    4    4    0  501  0.29872527462E+02  0.46629096064E+02 -0.16123826534E+01  0.55400724495E+02  0.00000000000E+00 0.  1.
          5    1    3    3  502    0  0.15657694659E+03  0.11919189548E+03  0.23137367142E+02  0.19819302689E+03  0.47000000000E+01 0. -1.
         11    1    6    6    0    0 -0.22304424193E+02  0.14525545760E+02 -0.71343234964E+01  0.27556802971E+02  0.00000000000E+00 0. -1.
        -12    1    6    6    0    0  0.12278547119E+02 -0.58973644383E+02  0.34143252980E+02  0.69241715571E+02  0.00000000000E+00 0.  1.
         -5    1    5    5    0  503 -0.15892862257E+03 -0.99567228657E+02  0.22300080484E+02  0.18892147491E+03  0.47000000000E+01 0.  1.
<mgrwt>
<rscale>  2 0.28140629E+03</rscale>
<asrwt>0</asrwt>
<pdfrwt beam="1">  1       21 0.49893102E-01 0.28143300E+03</pdfrwt>
<pdfrwt beam="2">  1       21 0.37599983E-01 0.28143300E+03</pdfrwt>
<totfact> 0.25002775E+04</totfact>
</mgrwt>
</event>
<event>
12    1  0.1441827E-001  0.2189974E+03  0.7546771E-02  0.1134779E+00
         21   -1    0    0  504  503  0.00000000000E+00  0.00000000000E+00  0.65319707891E+02  0.65319707891E+02  0.00000000000E+00 0.  1.
         21   -1    0    0  502  504 -0.00000000000E+00 -0.00000000000E+00 -0.76222559501E+03  0.76222559501E+03  0.00000000000E+00 0.  1.
          6    2    1    2  502    0  0.13352493808E+03  0.27073776140E+01 -0.26493896718E+03  0.34323621573E+03  0.17257521397E+03 0.  0.
         24    2    3    3    0    0  0.12477085401E+03  0.36960669204E+02 -0.26662298864E+03  0.30753120347E+03  0.80955333083E+02 0.  0.
         -6    2    1    2    0  503 -0.13352493808E+03 -0.27073776140E+01 -0.43196691994E+03  0.48430908717E+03  0.17356161157E+03 0.  0.
        -24    2    5    5    0    0 -0.16912951118E+02 -0.39638767724E+02 -0.12784879552E+03  0.15647954811E+03  0.79266983286E+02 0.  0.
          4    1    4    4  501    0  0.52566169619E+02 -0.23255500240E+02 -0.79342726888E+02  0.97975960266E+02  0.00000000000E+00 0. -1.
         -3    1    4    4    0  501  0.72204684392E+02  0.60216169444E+02 -0.18728026175E+03  0.20955524320E+03  0.00000000000E+00 0.  1.
          5    1    3    3  502    0  0.87540840698E+01 -0.34253291590E+02  0.16840214602E+01  0.35705012266E+02  0.47000000000E+01 0. -1.
         11    1    6    6    0    0 -0.32669051202E+02 -0.51706783114E+02 -0.12083050468E+03  0.13542846520E+03  0.00000000000E+00 0. -1.
        -12    1    6    6    0    0  0.15756100084E+02  0.12068015390E+02 -0.70182908403E+01  0.21051082908E+02  0.00000000000E+00 0.  1.
         -5    1    5    5    0  503 -0.11661198696E+03  0.36931390110E+02 -0.30411812442E+03  0.32782953906E+03  0.47000000000E+01 0.  1.
<mgrwt>
<rscale>  2 0.21880193E+03</rscale>
<asrwt>0</asrwt>
<pdfrwt beam="1">  1       21 0.10049185E-01 0.21899742E+03</pdfrwt>
<pdfrwt beam="2">  1       21 0.11726549E+00 0.21899742E+03</pdfrwt>
<totfact> 0.44346134E+04</totfact>
</mgrwt>
</event>
<event>
12    1  0.1441827E-001  0.1981346E+03  0.7546771E-02  0.1152314E+00
         21   -1    0    0  504  503  0.00000000000E+00  0.00000000000E+00  0.13956169700E+02  0.13956169700E+02  0.00000000000E+00 0. -1.
         21   -1    0    0  502  504 -0.00000000000E+00 -0.00000000000E+00 -0.28100687319E+04  0.28100687319E+04  0.00000000000E+00 0. -1.
          6    2    1    2  502    0 -0.57033524834E+01  0.83401166086E+02 -0.12045453949E+04  0.12207321234E+04  0.17963581466E+03 0.  0.
         24    2    3    3    0    0 -0.25925331153E+02  0.11015702111E+03 -0.11221084286E+04  0.11316100295E+04  0.92775219114E+02 0.  0.
         -6    2    1    2    0  503  0.57033524834E+01 -0.83401166086E+02 -0.15915671673E+04  0.16032927783E+04  0.17456632544E+03 0.  0.
        -24    2    5    5    0    0 -0.29029819463E+02 -0.10539496385E+03 -0.14300061702E+04  0.14365169822E+04  0.81930241016E+02 0.  0.
          2    1    4    4  501    0 -0.31495205937E+02  0.23345765404E+01 -0.13650338371E+03  0.14010914320E+03  0.00000000000E+00 0. -1.
         -1    1    4    4    0  501  0.55698747836E+01  0.10782244456E+03 -0.98560504484E+03  0.99150088627E+03  0.00000000000E+00 0.  1.
          5    1    3    3  502    0  0.20221978670E+02 -0.26755855020E+02 -0.82436966349E+02  0.89122093894E+02  0.47000000000E+01 0. -1.
         11    1    6    6    0    0 -0.11053505874E+02  0.71751006033E+01 -0.40084907399E+03  0.40106563326E+03  0.00000000000E+00 0. -1.
        -12    1    6    6    0    0 -0.17976313589E+02 -0.11257006445E+03 -0.10291570962E+04  0.10354513489E+04  0.00000000000E+00 0.  1.
         -5    1    5    5    0  503  0.34733171947E+02  0.21993797760E+02 -0.16156099712E+03  0.16677579609E+03  0.47000000000E+01 0.  1.
<mgrwt>
<rscale>  2 0.19697840E+03</rscale>
<asrwt>0</asrwt>
<pdfrwt beam="1">  1       21 0.21471029E-02 0.19813457E+03</pdfrwt>
<pdfrwt beam="2">  1       21 0.43231829E+00 0.19813457E+03</pdfrwt>
<totfact> 0.59121107E+03</totfact>
</mgrwt>
</event>
<event>
12    1  0.1441827E-001  0.2341131E+03  0.7546771E-02  0.1123797E+00
         21   -1    0    0  504  503  0.00000000000E+00  0.00000000000E+00  0.26114191163E+03  0.26114191163E+03  0.00000000000E+00 0.  1.
         21   -1    0    0  502  504 -0.00000000000E+00 -0.00000000000E+00 -0.21367606424E+03  0.21367606424E+03  0.00000000000E+00 0. -1.
          6    2    1    2  502    0 -0.15219467108E+03 -0.39860331991E+02 -0.83210636391E+01  0.23414985415E+03  0.17321908129E+03 0.  0.
         24    2    3    3    0    0 -0.15834205298E+03  0.47264493321E+01 -0.34365187838E+02  0.18193723327E+03  0.82617465773E+02 0.  0.
         -6    2    1    2    0  503  0.15219467108E+03  0.39860331991E+02  0.55786911031E+02  0.24066812172E+03  0.17336926313E+03 0.  0.
        -24    2    5    5    0    0  0.18118318453E+03  0.33570768197E+02  0.53271773969E+02  0.21052996586E+03  0.86779270502E+02 0.  0.
          2    1    4    4  501    0 -0.71351386696E+02  0.21551717824E+02 -0.52921411152E+02  0.91412103591E+02  0.00000000000E+00 0. -1.
         -1    1    4    4    0  501 -0.86990666284E+02 -0.16825268491E+02  0.18556223314E+02  0.90525129683E+02  0.00000000000E+00 0.  1.
          5    1    3    3  502    0  0.61473818958E+01 -0.44586781324E+02  0.26044124199E+02  0.52212620871E+02  0.47000000000E+01 0. -1.
         13    1    6    6    0    0  0.67303503940E+02  0.44902301286E+02 -0.69587909124E+01  0.81205930045E+02  0.00000000000E+00 0. -1.
        -14    1    6    6    0    0  0.11387968059E+03 -0.11331533089E+02  0.60230564881E+02  0.12932403581E+03  0.00000000000E+00 0.  1.
         -5    1    5    5    0  503 -0.28988513446E+02  0.62895637941E+01  0.25151370622E+01  0.30138155866E+02  0.47000000000E+01 0.  1.
<mgrwt>
<rscale>  2 0.23408534E+03</rscale>
<asrwt>0</asrwt>
<pdfrwt beam="1">  1       21 0.40175679E-01 0.23411315E+03</pdfrwt>
<pdfrwt beam="2">  1       21 0.32873241E-01 0.23411315E+03</pdfrwt>
<totfact> 0.52191394E+04</totfact>
</mgrwt>
</event>
<event>
12    1  0.1441827E-001  0.1830106E+03  0.7546771E-02  0.1166072E+00
         21   -1    0    0  504  503  0.00000000000E+00  0.00000000000E+00  0.15055999695E+03  0.15055999695E+03  0.00000000000E+00 0. -1.
         21   -1    0    0  502  504 -0.00000000000E+00 -0.00000000000E+00 -0.21885567568E+03  0.21885567568E+03  0.00000000000E+00 0.  1.
          6    2    1    2  502    0 -0.48775988584E+02 -0.37328652308E+02 -0.15237169403E+02  0.17886885591E+03  0.16730024189E+03 0.  0.
         24    2    3    3    0    0 -0.34402434715E+02 -0.57325934805E+02 -0.65621682146E+02  0.12259115622E+03  0.79073358971E+02 0.  0.
         -6    2    1    2    0  503  0.48775988584E+02  0.37328652308E+02 -0.53058509330E+02  0.19054681672E+03  0.17239593558E+03 0.  0.
        -24    2    5    5    0    0  0.50848972757E+01  0.68881375087E+02  0.10796347296E+02  0.10685680245E+03  0.80816552145E+02 0.  0.
          4    1    4    4  501    0 -0.22185696009E+02  0.12308615581E+02  0.10791773782E+01  0.25394325128E+02  0.00000000000E+00 0. -1.
         -3    1    4    4    0  501 -0.12216738706E+02 -0.69634550386E+02 -0.66700859524E+02  0.97196831087E+02  0.00000000000E+00 0.  1.
          5    1    3    3  502    0 -0.14373553869E+02  0.19997282497E+02  0.50384512743E+02  0.56277699690E+02  0.47000000000E+01 0. -1.
         13    1    6    6    0    0  0.15825023552E+02  0.28228310202E+02  0.43054448872E+02  0.53860509048E+02  0.00000000000E+00 0. -1.
        -14    1    6    6    0    0 -0.10740126277E+02  0.40653064886E+02 -0.32258101575E+02  0.52996293401E+02  0.00000000000E+00 0.  1.
         -5    1    5    5    0  503  0.43691091309E+02 -0.31552722780E+02 -0.63854856626E+02  0.83690014274E+02  0.47000000000E+01 0.  1.
<mgrwt>
<rscale>  2 0.18180068E+03</rscale>
<asrwt>0</asrwt>
<pdfrwt beam="1">  1       21 0.23163077E-01 0.18301061E+03</pdfrwt>
<pdfrwt beam="2">  1       21 0.33670104E-01 0.18301061E+03</pdfrwt>
<totfact> 0.14926124E+05</totfact>
</mgrwt>
</event>
<event>
12    1  0.1441827E-001  0.1748745E+03  0.7546771E-02  0.1173043E+00
         21   -1    0    0  504  503  0.00000000000E+00  0.00000000000E+00  0.13990953219E+03  0.13990953219E+03  0.00000000000E+00 0.  1.
         21   -1    0    0  502  504 -0.00000000000E+00 -0.00000000000E+00 -0.21880021657E+03  0.21880021657E+03  0.00000000000E+00 0.  1.
          6    2    1    2  502    0  0.82397923535E+01 -0.16763645573E+02 -0.52304863824E+02  0.18182591227E+03  0.17313563932E+03 0.  0.
         24    2    3    3    0    0  0.90949922543E+00 -0.77439892143E+02 -0.37011678563E+02  0.11864908416E+03  0.81914447670E+02 0.  0.
         -6    2    1    2    0  503 -0.82397923535E+01  0.16763645573E+02 -0.26585820557E+02  0.17688383649E+03  0.17387401119E+03 0.  0.
        -24    2    5    5    0    0 -0.26177913950E+02  0.14658873200E+02 -0.84651535800E+02  0.11589266041E+03  0.73246573170E+02 0.  0.
          4    1    4    4  501    0  0.50940343955E+01 -0.80938415298E+02  0.14047897693E+00  0.81098680579E+02  0.00000000000E+00 0. -1.
         -3    1    4    4    0  501 -0.41845351701E+01  0.34985231554E+01 -0.37152157540E+02  0.37550403576E+02  0.00000000000E+00 0.  1.
          5    1    3    3  502    0  0.73302931280E+01  0.60676246570E+02 -0.15293185261E+02  0.63176828114E+02  0.47000000000E+01 0. -1.
         13    1    6    6    0    0 -0.10340914338E+02 -0.29591913655E+02 -0.25950250354E+02  0.40694365169E+02  0.00000000000E+00 0. -1.
        -14    1    6    6    0    0 -0.15836999613E+02  0.44250786855E+02 -0.58701285446E+02  0.75198295240E+02  0.00000000000E+00 0.  1.
         -5    1    5    5    0  503  0.17938121597E+02  0.21047723731E+01  0.58065715243E+02  0.60991176082E+02  0.47000000000E+01 0.  1.
<mgrwt>
<rscale>  2 0.17469066E+03</rscale>
<asrwt>0</asrwt>
<pdfrwt beam="1">  1       21 0.21524544E-01 0.17487449E+03</pdfrwt>
<pdfrwt beam="2">  1       21 0.33661572E-01 0.17487449E+03</pdfrwt>
<totfact> 0.17191993E+05</totfact>
</mgrwt>
</event>
<event>
12    1  0.1441827E-001  0.1750348E+03  0.7546771E-02  0.1172764E+00
         21   -1    0    0  504  503  0.00000000000E+00  0.00000000000E+00  0.66805935996E+03  0.66805935996E+03  0.00000000000E+00 0.  1.
         21   -1    0    0  502  504 -0.00000000000E+00 -0.00000000000E+00 -0.54317592236E+02  0.54317592236E+02  0.00000000000E+00 0.  1.
          6    2    1    2  502    0 -0.24453590419E+02  0.82040180085E+01  0.16355636165E+03  0.23936132878E+03  0.17285218623E+03 0.  0.
         24    2    3    3    0    0 -0.74613863346E+02  0.37993896434E+02  0.11852322191E+03  0.16551308228E+03  0.79599381308E+02 0.  0.
         -6    2    1    2    0  503  0.24453590419E+02 -0.82040180085E+01  0.45018540607E+03  0.48301562341E+03  0.17312396894E+03 0.  0.
        -24    2    5    5    0    0 -0.24113340533E+02 -0.56178229641E+02  0.32749480915E+03  0.34253308237E+03  0.79615424507E+02 0.  0.
          4    1    4    4  501    0 -0.11504000087E+02  0.17441133559E+02  0.91492260135E+02  0.93847582934E+02  0.00000000000E+00 0. -1.
         -3    1    4    4    0  501 -0.63109863260E+02  0.20552762876E+02  0.27030961778E+02  0.71665499350E+02  0.00000000000E+00 0.  1.
          5    1    3    3  502    0  0.50160272927E+02 -0.29789878426E+02  0.45033139733E+02  0.73848246499E+02  0.47000000000E+01 0. -1.
         13    1    6    6    0    0 -0.43649765902E+02 -0.10569844739E+02  0.98960945643E+02  0.10867516940E+03  0.00000000000E+00 0. -1.
        -14    1    6    6    0    0  0.19536425369E+02 -0.45608384901E+02  0.22853386350E+03  0.23385791297E+03  0.00000000000E+00 0.  1.
         -5    1    5    5    0  503  0.48566930953E+02  0.47974211632E+02  0.12269059693E+03  0.14048254104E+03  0.47000000000E+01 0.  1.
<mgrwt>
<rscale>  2 0.17496759E+03</rscale>
<asrwt>0</asrwt>
<pdfrwt beam="1">  1       21 0.10277836E+00 0.17503483E+03</pdfrwt>
<pdfrwt beam="2">  1       21 0.83565531E-02 0.17503483E+03</pdfrwt>
<totfact> 0.86191912E+04</totfact>
</mgrwt>
</event>
<event>
12    1  0.1441827E-001  0.2279134E+03  0.7546771E-02  0.1131864E+00
         21   -1    0    0  504  503  0.00000000000E+00  0.00000000000E+00  0.20862867373E+03  0.20862867373E+03  0.00000000000E+00 0.  1.
         21   -1    0    0  502  504 -0.00000000000E+00 -0.00000000000E+00 -0.23053178695E+03  0.23053178695E+03  0.00000000000E+00 0.  1.
          6    2    1    2  502    0  0.99547565093E+02 -0.62234236651E+02 -0.36306347266E+02  0.23078701545E+03  0.19535014133E+03 0.  0.
         24    2    3    3    0    0  0.98202009872E+02 -0.70939601878E+02  0.41767660736E+02  0.15207720267E+03  0.81895520205E+02 0.  0.
         -6    2    1    2    0  503 -0.99547565093E+02  0.62234236651E+02  0.14403234047E+02  0.20837344524E+03  0.17154947275E+03 0.  0.
        -24    2    5    5    0    0  0.65383383702E+00 -0.16568961166E+02 -0.15190528199E+01  0.79820446232E+02  0.78064320547E+02 0.  0.
          2    1    4    4  501    0  0.42284317959E+02 -0.24411913198E+02 -0.23644352673E+02  0.54249059573E+02  0.00000000000E+00 0. -1.
         -1    1    4    4    0  501  0.55917691913E+02 -0.46527688680E+02  0.65412013408E+02  0.97828143092E+02  0.00000000000E+00 0.  1.
          5    1    3    3  502    0  0.13455552210E+01  0.87053652264E+01 -0.78074008002E+02  0.78709812781E+02  0.47000000000E+01 0. -1.
         13    1    6    6    0    0  0.13668859473E+02  0.15155195906E+02 -0.29287338954E+02  0.35696861280E+02  0.00000000000E+00 0. -1.
        -14    1    6    6    0    0 -0.13015025636E+02 -0.31724157072E+02  0.27768286134E+02  0.44123584953E+02  0.00000000000E+00 0.  1.
         -5    1    5    5    0  503 -0.10020139893E+03  0.78803197818E+02  0.15922286867E+02  0.12855299900E+03  0.47000000000E+01 0.  1.
<mgrwt>
<rscale>  2 0.22272959E+03</rscale>
<asrwt>0</asrwt>
<pdfrwt beam="1">  1       21 0.32096719E-01 0.22791335E+03</pdfrwt>
<pdfrwt beam="2">  1       21 0.35466428E-01 0.22791335E+03</pdfrwt>
<totfact> 0.70502098E+04</totfact>
</mgrwt>
</event>
<event>
12    1  0.1441827E-001  0.1813179E+03  0.7546771E-02  0.1166596E+00
         21   -1    0    0  504  503  0.00000000000E+00  0.00000000000E+00  0.13539240055E+03  0.13539240055E+03  0.00000000000E+00 0. -1.
         21   -1    0    0  502  504 -0.00000000000E+00 -0.00000000000E+00 -0.71430338075E+03  0.71430338075E+03  0.00000000000E+00 0. -1.
          6    2    1    2  502    0  0.46104344951E+02  0.27107692277E+02 -0.63481518577E+03  0.66020186402E+03  0.17325052256E+03 0.  0.
         24    2    3    3    0    0  0.22964716128E+02 -0.43707801412E+02 -0.23558208359E+03  0.25404987714E+03  0.81269132367E+02 0.  0.
         -6    2    1    2    0  503 -0.46104344951E+02 -0.27107692277E+02  0.55904205571E+02  0.18949391728E+03  0.17298042341E+03 0.  0.
        -24    2    5    5    0    0 -0.25048588147E+02 -0.16825983006E+02  0.10374856288E+03  0.13601279008E+03  0.82614582818E+02 0.  0.
          2    1    4    4  501    0  0.32278023123E+02  0.38527585630E+01 -0.16662112143E+03  0.16976251833E+03  0.00000000000E+00 0. -1.
         -1    1    4    4    0  501 -0.93133069955E+01 -0.47560559975E+02 -0.68960962163E+02  0.84287358808E+02  0.00000000000E+00 0.  1.
          5    1    3    3  502    0  0.23139628823E+02  0.70815493689E+02 -0.39923310218E+03  0.40615198688E+03  0.47000000000E+01 0. -1.
         13    1    6    6    0    0 -0.42133388125E+02  0.20368203590E+02  0.50485006901E+02  0.68839102509E+02  0.00000000000E+00 0. -1.
        -14    1    6    6    0    0  0.17084799978E+02 -0.37194186596E+02  0.53263555979E+02  0.67173687574E+02  0.00000000000E+00 0.  1.
         -5    1    5    5    0  503 -0.21055756803E+02 -0.10281709271E+02 -0.47844357309E+02  0.53481127198E+02  0.47000000000E+01 0.  1.
<mgrwt>
<rscale>  2 0.18125335E+03</rscale>
<asrwt>0</asrwt>
<pdfrwt beam="1">  1       21 0.20829600E-01 0.18131790E+03</pdfrwt>
<pdfrwt beam="2">  1       21 0.10989283E+00 0.18131790E+03</pdfrwt>
<totfact> 0.14111672E+04</totfact>
</mgrwt>
</event>
<event>
12    1  0.1441827E-001  0.1831852E+03  0.7546771E-02  0.1165011E+00
         21   -1    0    0  504  503  0.00000000000E+00  0.00000000000E+00  0.79268967541E+02  0.79268967541E+02  0.00000000000E+00 0. -1.
         21   -1    0    0  502  504 -0.00000000000E+00 -0.00000000000E+00 -0.67550438379E+03  0.67550438379E+03  0.00000000000E+00 0. -1.
          6    2    1    2  502    0 -0.55890434792E+02  0.97023480512E+01 -0.52928428064E+03  0.55973678545E+03  0.17304780553E+03 0.  0.
         24    2    3    3    0    0 -0.98965391723E+02 -0.14420469929E+02 -0.30837098011E+03  0.33332534888E+03  0.77530820436E+02 0.  0.
         -6    2    1    2    0  503  0.55890434792E+02 -0.97023480512E+01 -0.66951135608E+02  0.19503656588E+03  0.17418074294E+03 0.  0.
        -24    2    5    5    0    0 -0.26952411617E+02 -0.41088347233E+02 -0.24735813229E+02  0.96790743628E+02  0.79636064855E+02 0.  0.
          4    1    4    4  501    0 -0.51597909680E+02  0.18460557948E+02 -0.22747232186E+03  0.23398032758E+03  0.00000000000E+00 0. -1.
         -3    1    4    4    0  501 -0.47367482044E+02 -0.32881027877E+02 -0.80898658257E+02  0.99345021300E+02  0.00000000000E+00 0.  1.
          5    1    3    3  502    0  0.43074956932E+02  0.24122817980E+02 -0.22091330052E+03  0.22641143657E+03  0.47000000000E+01 0. -1.
         11    1    6    6    0    0  0.62725989335E+01  0.17503658225E+02  0.98845199897E+01  0.21057713173E+02  0.00000000000E+00 0. -1.
        -12    1    6    6    0    0 -0.33225010551E+02 -0.58592005458E+02 -0.34620333218E+02  0.75733030455E+02  0.00000000000E+00 0.  1.
         -5    1    5    5    0  503  0.82842846409E+02  0.31385999182E+02 -0.42215322379E+02  0.98245822249E+02  0.47000000000E+01 0.  1.
<mgrwt>
<rscale>  2 0.18291535E+03</rscale>
<asrwt>0</asrwt>
<pdfrwt beam="1">  1       21 0.12195225E-01 0.18318517E+03</pdfrwt>
<pdfrwt beam="2">  1       21 0.10392376E+00 0.18318517E+03</pdfrwt>
<totfact> 0.42906031E+04</totfact>
</mgrwt>
</event>
<event>
12    1  0.1441827E-001  0.1821579E+03  0.7546771E-02  0.1166002E+00
         21   -1    0    0  504  503  0.00000000000E+00  0.00000000000E+00  0.84579125993E+03  0.84579125993E+03  0.00000000000E+00 0.  1.
         21   -1    0    0  502  504 -0.00000000000E+00 -0.00000000000E+00 -0.39657511763E+02  0.39657511763E+02  0.00000000000E+00 0.  1.
          6    2    1    2  502    0 -0.70787670504E+01  0.54014733711E+02  0.34674690042E+03  0.39168214990E+03  0.17382115293E+03 0.  0.
         24    2    3    3    0    0 -0.31057581454E+02 -0.22086565280E+02  0.13189924773E+03  0.16244865516E+03  0.86831816055E+02 0.  0.
         -6    2    1    2    0  503  0.70787670504E+01 -0.54014733711E+02  0.45938684775E+03  0.49376662179E+03  0.17263111106E+03 0.  0.
        -24    2    5    5    0    0  0.14103995875E+02 -0.10038228918E+03  0.28518322460E+03  0.31329973740E+03  0.80942740167E+02 0.  0.
          2    1    4    4  501    0  0.25630590354E+02 -0.25823672852E+02  0.66638841765E+02  0.75924465578E+02  0.00000000000E+00 0. -1.
         -1    1    4    4    0  501 -0.56688171808E+02  0.37371075725E+01  0.65260405963E+02  0.86524189580E+02  0.00000000000E+00 0.  1.
          5    1    3    3  502    0  0.23978814404E+02  0.76101298991E+02  0.21484765269E+03  0.22923349475E+03  0.47000000000E+01 0. -1.
         11    1    6    6    0    0 -0.10674503917E+02 -0.16260568967E+02  0.55346212226E+01  0.20223332294E+02  0.00000000000E+00 0. -1.
        -12    1    6    6    0    0  0.24778499792E+02 -0.84121720211E+02  0.27964860337E+03  0.29307640511E+03  0.00000000000E+00 0.  1.
         -5    1    5    5    0  503 -0.70252288246E+01  0.46367555466E+02  0.17420362316E+03  0.18046688439E+03  0.47000000000E+01 0.  1.
<mgrwt>
<rscale>  2 0.18187341E+03</rscale>
<asrwt>0</asrwt>
<pdfrwt beam="1">  1       21 0.13012172E+00 0.18215788E+03</pdfrwt>
<pdfrwt beam="2">  1       21 0.61011563E-02 0.18215788E+03</pdfrwt>
<totfact> 0.83036843E+04</totfact>
</mgrwt>
</event>
<event>
12    1  0.1441827E-001  0.2114800E+03  0.7546771E-02  0.1140433E+00
         21   -1    0    0  504  503  0.00000000000E+00  0.00000000000E+00  0.11419092574E+04  0.11419092574E+04  0.00000000000E+00 0.  1.
         21   -1    0    0  502  504 -0.00000000000E+00 -0.00000000000E+00 -0.49024122242E+02  0.49024122242E+02  0.00000000000E+00 0. -1.
          6    2    1    2  502    0 -0.19326218435E+02 -0.12027018545E+03  0.27916042577E+03  0.35022042491E+03  0.17287389185E+03 0.  0.
         24    2    3    3    0    0  0.37214021140E+02 -0.27579293884E+02  0.18373649826E+03  0.20559602859E+03  0.79781735747E+02 0.  0.
         -6    2    1    2    0  503  0.19326218435E+02  0.12027018545E+03  0.81372470941E+03  0.84071295475E+03  0.17266137192E+03 0.  0.
        -24    2    5    5    0    0  0.36939027919E+02  0.53819439668E+02  0.70189647965E+03  0.70936016397E+03  0.79196907897E+02 0.  0.
          2    1    4    4  501    0  0.46702127334E+02  0.39121087900E+01  0.52832202388E+02  0.70623189548E+02  0.00000000000E+00 0. -1.
         -1    1    4    4    0  501 -0.94881061943E+01 -0.31491402674E+02  0.13090429587E+03  0.13497283904E+03  0.00000000000E+00 0.  1.
          5    1    3    3  502    0 -0.56540239575E+02 -0.92690891565E+02  0.95423927507E+02  0.14462439632E+03  0.47000000000E+01 0. -1.
         13    1    6    6    0    0 -0.27876096513E+01 -0.17496066038E+02  0.69768983646E+02  0.71983290932E+02  0.00000000000E+00 0. -1.
        -14    1    6    6    0    0  0.39726637570E+02  0.71315505706E+02  0.63212749600E+03  0.63737687304E+03  0.00000000000E+00 0.  1.
         -5    1    5    5    0  503 -0.17612809484E+02  0.66450745781E+02  0.11182822976E+03  0.13135279077E+03  0.47000000000E+01 0.  1.
<mgrwt>
<rscale>  2 0.21143659E+03</rscale>
<asrwt>0</asrwt>
<pdfrwt beam="1">  1       21 0.17567833E+00 0.21148003E+03</pdfrwt>
<pdfrwt beam="2">  1       21 0.75421735E-02 0.21148003E+03</pdfrwt>
<totfact> 0.25571267E+04</totfact>
</mgrwt>
</event>
<event>
12    1  0.1441827E-001  0.1835448E+03  0.7546771E-02  0.1165219E+00
         21   -1    0    0  504  503  0.00000000000E+00  0.00000000000E+00  0.34291828543E+03  0.34291828543E+03  0.00000000000E+00 0.  1.
         21   -1    0    0  502  504 -0.00000000000E+00 -0.00000000000E+00 -0.28083280390E+03  0.28083280390E+03  0.00000000000E+00 0. -1.
          6    2    1    2  502    0 -0.45277814084E+02 -0.35545431922E+02 -0.22156558150E+03  0.28771516049E+03  0.17428467658E+03 0.  0.
         24    2    3    3    0    0 -0.38757625604E+02  0.46844823092E+02 -0.13052229905E+03  0.16466380430E+03  0.79884334541E+02 0.  0.
         -6    2    1    2    0  503  0.45277814084E+02  0.35545431922E+02  0.28365106303E+03  0.33603592884E+03  0.17072979159E+03 0.  0.
        -24    2    5    5    0    0  0.39561784620E+02  0.28978223936E+02  0.66750618727E+02  0.11890994248E+03  0.85317390116E+02 0.  0.
          4    1    4    4  501    0 -0.23585870737E+02  0.60653994611E+02 -0.12851179767E+03  0.14405027769E+03  0.00000000000E+00 0. -1.
         -3    1    4    4    0  501 -0.15171754867E+02 -0.13809171518E+02 -0.20105013783E+01  0.20613526616E+02  0.00000000000E+00 0.  1.
          5    1    3    3  502    0 -0.65201884791E+01 -0.82390255015E+02 -0.91043282451E+02  0.12305135618E+03  0.47000000000E+01 0. -1.
         13    1    6    6    0    0 -0.17315851103E+02 -0.15552418986E+02  0.48385484863E+01  0.23772420726E+02  0.00000000000E+00 0. -1.
        -14    1    6    6    0    0  0.56877635723E+02  0.44530642923E+02  0.61912070241E+02  0.95137521757E+02  0.00000000000E+00 0.  1.
         -5    1    5    5    0  503  0.57160294634E+01  0.65672079859E+01  0.21690044430E+03  0.21712598636E+03  0.47000000000E+01 0.  1.
<mgrwt>
<rscale>  2 0.18269594E+03</rscale>
<asrwt>0</asrwt>
<pdfrwt beam="1">  1       21 0.52756660E-01 0.18354484E+03</pdfrwt>
<pdfrwt beam="2">  1       21 0.43205047E-01 0.18354484E+03</pdfrwt>
<totfact> 0.17637914E+04</totfact>
</mgrwt>
</event>
<event>
12    1  0.1441827E-001  0.1846125E+03  0.7546771E-02  0.1163753E+00
         21   -1    0    0  504  503  0.00000000000E+00  0.00000000000E+00  0.24959768033E+03  0.24959768033E+03  0.00000000000E+00 0. -1.
         21   -1    0    0  502  504 -0.00000000000E+00 -0.00000000000E+00 -0.13547585495E+03  0.13547585495E+03  0.00000000000E+00 0.  1.
          6    2    1    2  502    0  0.21354782226E+02  0.57564866420E+02  0.56903030403E+02  0.19318313960E+03  0.17410350366E+03 0.  0.
         24    2    3    3    0    0  0.68930696459E+02  0.77916768723E+02  0.51866999534E+02  0.14098046582E+03  0.79767426558E+02 0.  0.
         -6    2    1    2    0  503 -0.21354782226E+02 -0.57564866420E+02  0.57218794980E+02  0.19189039569E+03  0.17256359085E+03 0.  0.
        -24    2    5    5    0    0  0.13138955944E+02 -0.29949643490E+02 -0.32575502031E+02  0.91702949934E+02  0.79237960508E+02 0.  0.
          4    1    4    4  501    0  0.67504365985E+02  0.30525096461E+02  0.56740914889E+02  0.93317481553E+02  0.00000000000E+00 0. -1.
         -3    1    4    4    0  501  0.14263304744E+01  0.47391672262E+02 -0.48739153544E+01  0.47662984267E+02  0.00000000000E+00 0.  1.
          5    1    3    3  502    0 -0.47575914233E+02 -0.20351902303E+02  0.50360308682E+01  0.52202673776E+02  0.47000000000E+01 0. -1.
         11    1    6    6    0    0  0.23305991465E+02 -0.50045538616E+02 -0.40444466896E+01  0.55354157229E+02  0.00000000000E+00 0. -1.
        -12    1    6    6    0    0 -0.10167035521E+02  0.20095895126E+02 -0.28531055342E+02  0.36348792705E+02  0.00000000000E+00 0.  1.
         -5    1    5    5    0  503 -0.34493738171E+02 -0.27615222930E+02  0.89794297012E+02  0.10018744575E+03  0.47000000000E+01 0.  1.
<mgrwt>
<rscale>  2 0.18424853E+03</rscale>
<asrwt>0</asrwt>
<pdfrwt beam="1">  1       21 0.38399643E-01 0.18461249E+03</pdfrwt>
<pdfrwt beam="2">  1       21 0.20842439E-01 0.18461249E+03</pdfrwt>
<totfact> 0.14011254E+05</totfact>
</mgrwt>
</event>
<event>
12    1  0.1441827E-001  0.2054419E+03  0.7546771E-02  0.1145825E+00
         21   -1    0    0  504  503  0.00000000000E+00  0.00000000000E+00  0.24431408004E+03  0.24431408004E+03  0.00000000000E+00 0.  1.
         21   -1    0    0  502  504 -0.00000000000E+00 -0.00000000000E+00 -0.19174787469E+03  0.19174787469E+03  0.00000000000E+00 0.  1.
          6    2    1    2  502    0  0.64965094991E+02  0.87581131749E+02 -0.46779164658E+02  0.20786052605E+03  0.17066572544E+03 0.  0.
         24    2    3    3    0    0  0.19661337091E+02 -0.14390789803E+02  0.89036694224E+01  0.83067211823E+02  0.78912757799E+02 0.  0.
         -6    2    1    2    0  503 -0.64965094991E+02 -0.87581131749E+02  0.99345370009E+02  0.22820142869E+03  0.17411338635E+03 0.  0.
        -24    2    5    5    0    0 -0.12459018393E+01  0.40586015303E+01  0.10414251735E+02  0.85412038015E+02  0.84668383006E+02 0.  0.
          4    1    4    4  501    0 -0.17356498465E+02 -0.32180697807E+02 -0.99253224028E+01  0.37886110583E+02  0.00000000000E+00 0. -1.
         -3    1    4    4    0  501  0.37017835556E+02  0.17789908005E+02  0.18828991825E+02  0.45181101239E+02  0.00000000000E+00 0.  1.
          5    1    3    3  502    0  0.45303757900E+02  0.10197192155E+03 -0.55682834081E+02  0.12479331423E+03  0.47000000000E+01 0. -1.
         11    1    6    6    0    0 -0.27824401330E+02 -0.19253577576E+02  0.29803667531E+02  0.45090532899E+02  0.00000000000E+00 0. -1.
        -12    1    6    6    0    0  0.26578499491E+02  0.23312179106E+02 -0.19389415796E+02  0.40321505115E+02  0.00000000000E+00 0.  1.
         -5    1    5    5    0  503 -0.63719193152E+02 -0.91639733279E+02  0.88931118274E+02  0.14278939067E+03  0.47000000000E+01 0.  1.
<mgrwt>
<rscale>  2 0.20470962E+03</rscale>
<asrwt>0</asrwt>
<pdfrwt beam="1">  1       21 0.37586781E-01 0.20544194E+03</pdfrwt>
<pdfrwt beam="2">  1       21 0.29499673E-01 0.20544194E+03</pdfrwt>
<totfact> 0.74747694E+04</totfact>
</mgrwt>
</event>
<event>
12    1  0.1441827E-001  0.3885344E+03  0.7546771E-02  0.1047868E+00
         21   -1    0    0  504  503  0.00000000000E+00  0.00000000000E+00  0.29159967318E+03  0.29159967318E+03  0.00000000000E+00 0.  1.
         21   -1    0    0  502  504 -0.00000000000E+00 -0.00000000000E+00 -0.74014419542E+03  0.74014419542E+03  0.00000000000E+00 0.  1.
          6    2    1    2  502    0  0.27989865912E+02 -0.34643522438E+03 -0.50740546506E+03  0.63877623016E+03  0.17255135165E+03 0.  0.
         24    2    3    3    0    0  0.80978756960E+02 -0.22869094570E+03 -0.37181099233E+03  0.45148103862E+03  0.82064648268E+02 0.  0.
         -6    2    1    2    0  503 -0.27989865912E+02  0.34643522438E+03  0.58860942824E+02  0.39296763844E+03  0.17366104051E+03 0.  0.
        -24    2    5    5    0    0 -0.29883145808E+02  0.12758108236E+03 -0.28688471581E+02  0.15719717814E+03  0.81963342020E+02 0.  0.
          4    1    4    4  501    0  0.62658402078E+01 -0.15446014307E+02 -0.83652509389E+02  0.85297024793E+02  0.00000000000E+00 0. -1.
         -3    1    4    4    0  501  0.74712916752E+02 -0.21324493139E+03 -0.28815848294E+03  0.36618401383E+03  0.00000000000E+00 0.  1.
          5    1    3    3  502    0 -0.52988891048E+02 -0.11774427868E+03 -0.13559447273E+03  0.18729519154E+03  0.47000000000E+01 0. -1.
         11    1    6    6    0    0 -0.42270390845E+02  0.73428037169E+02  0.15602069742E+02  0.86150375303E+02  0.00000000000E+00 0. -1.
        -12    1    6    6    0    0  0.12387245036E+02  0.54153045189E+02 -0.44290541323E+02  0.71046802838E+02  0.00000000000E+00 0.  1.
         -5    1    5    5    0  503  0.18932798964E+01  0.21885414202E+03  0.87549414405E+02  0.23577046030E+03  0.47000000000E+01 0.  1.
<mgrwt>
<rscale>  2 0.38841063E+03</rscale>
<asrwt>0</asrwt>
<pdfrwt beam="1">  1       21 0.44861489E-01 0.38853437E+03</pdfrwt>
<pdfrwt beam="2">  1       21 0.11386834E+00 0.38853437E+03</pdfrwt>
<totfact> 0.25386337E+03</totfact>
</mgrwt>
</event>
<event>
12    1  0.1441827E-001  0.2521291E+03  0.7546771E-02  0.1112196E+00
         21   -1    0    0  504  503  0.00000000000E+00  0.00000000000E+00  0.23005085781E+03  0.23005085781E+03  0.00000000000E+00 0.  1.
         21   -1    0    0  502  504 -0.00000000000E+00 -0.00000000000E+00 -0.38460694869E+03  0.38460694869E+03  0.00000000000E+00 0. -1.
          6    2    1    2  502    0  0.84163013617E+02 -0.16305319902E+03 -0.24171050455E+03  0.34927505714E+03  0.17291425320E+03 0.  0.
         24    2    3    3    0    0  0.11981032922E+03 -0.15187317175E+03 -0.17606355204E+03  0.27359588898E+03  0.80226933302E+02 0.  0.
         -6    2    1    2    0  503 -0.84163013617E+02  0.16305319902E+03  0.87154413666E+02  0.26538274936E+03  0.17076988396E+03 0.  0.
        -24    2    5    5    0    0 -0.12081576199E+03  0.87768762710E+02  0.36152216231E+02  0.16722733965E+03  0.66016636796E+02 0.  0.
          2    1    4    4  501    0  0.86839181385E+02 -0.49755340101E+02 -0.10400079236E+03  0.14433572705E+03  0.00000000000E+00 0. -1.
         -1    1    4    4    0  501  0.32971147833E+02 -0.10211783164E+03 -0.72062759678E+02  0.12926016193E+03  0.00000000000E+00 0.  1.
          5    1    3    3  502    0 -0.35647315602E+02 -0.11180027270E+02 -0.65646952513E+02  0.75679168162E+02  0.47000000000E+01 0. -1.
         11    1    6    6    0    0 -0.17481051334E+02  0.38996342992E+02 -0.10169967149E+02  0.43928693974E+02  0.00000000000E+00 0. -1.
        -12    1    6    6    0    0 -0.10333471066E+03  0.48772419719E+02  0.46322183380E+02  0.12329864567E+03  0.00000000000E+00 0.  1.
         -5    1    5    5    0  503  0.36652748372E+02  0.75284436306E+02  0.51002197435E+02  0.98155409715E+02  0.47000000000E+01 0.  1.
<mgrwt>
<rscale>  2 0.25176188E+03</rscale>
<asrwt>0</asrwt>
<pdfrwt beam="1">  1       21 0.35392440E-01 0.25212913E+03</pdfrwt>
<pdfrwt beam="2">  1       21 0.59170299E-01 0.25212913E+03</pdfrwt>
<totfact> 0.19894823E+04</totfact>
</mgrwt>
</event>
<event>
12    1  0.1441827E-001  0.2462321E+03  0.7546771E-02  0.1115782E+00
         21   -1    0    0  504  503  0.00000000000E+00  0.00000000000E+00  0.14036602198E+03  0.14036602198E+03  0.00000000000E+00 0.  1.
         21   -1    0    0  502  504 -0.00000000000E+00 -0.00000000000E+00 -0.77340712658E+03  0.77340712658E+03  0.00000000000E+00 0.  1.
          6    2    1    2  502    0 -0.16944650254E+03 -0.40365287255E+02 -0.62029178642E+03  0.66721117987E+03  0.17339949424E+03 0.  0.
         24    2    3    3    0    0 -0.39038853542E+02 -0.65642887441E+02 -0.32363532808E+03  0.34213848606E+03  0.80535068768E+02 0.  0.
         -6    2    1    2    0  503  0.16944650254E+03  0.40365287255E+02 -0.12749318178E+02  0.24656196869E+03  0.17403673650E+03 0.  0.
        -24    2    5    5    0    0  0.39499240770E+02  0.50274553331E+02 -0.22339085485E+02  0.11580059048E+03  0.93930938887E+02 0.  0.
          2    1    4    4  501    0  0.18957366624E+02 -0.26957554949E+02 -0.17356100622E+03  0.17666214761E+03  0.00000000000E+00 0. -1.
         -1    1    4    4    0  501 -0.57996220166E+02 -0.38685332491E+02 -0.15007432186E+03  0.16547633845E+03  0.00000000000E+00 0.  1.
          5    1    3    3  502    0 -0.13040764899E+03  0.25277600186E+02 -0.29665645834E+03  0.32507269381E+03  0.47000000000E+01 0. -1.
         13    1    6    6    0    0  0.43709422855E+02  0.73410446053E+02 -0.30783885896E+02  0.90814397905E+02  0.00000000000E+00 0. -1.
        -14    1    6    6    0    0 -0.42101820853E+01 -0.23135892721E+02  0.84448004115E+01  0.24986192571E+02  0.00000000000E+00 0.  1.
         -5    1    5    5    0  503  0.12994726177E+03 -0.99092660768E+01  0.95897673069E+01  0.13076137821E+03  0.47000000000E+01 0.  1.
<mgrwt>
<rscale>  2 0.24611955E+03</rscale>
<asrwt>0</asrwt>
<pdfrwt beam="1">  1       21 0.21594773E-01 0.24623212E+03</pdfrwt>
<pdfrwt beam="2">  1       21 0.11898571E+00 0.24623212E+03</pdfrwt>
<totfact> 0.10411046E+04</totfact>
</mgrwt>
</event>
<event>
12    1  0.1441827E-001  0.2433185E+03  0.7546771E-02  0.1117817E+00
         21   -1    0    0  504  503  0.00000000000E+00  0.00000000000E+00  0.86971515472E+03  0.86971515472E+03  0.00000000000E+00 0.  1.
         21   -1    0    0  502  504 -0.00000000000E+00 -0.00000000000E+00 -0.95004351707E+02  0.95004351707E+02  0.00000000000E+00 0. -1.
          6    2    1    2  502    0 -0.10194283787E+03  0.13674371051E+03  0.12953885182E+03  0.27565233738E+03  0.17353014844E+03 0.  0.
         24    2    3    3    0    0 -0.87894790312E+02  0.74272434477E+02  0.15681981709E+03  0.20589311552E+03  0.67510231058E+02 0.  0.
         -6    2    1    2    0  503  0.10194283787E+03 -0.13674371051E+03  0.64517195118E+03  0.68906716904E+03  0.17168439736E+03 0.  0.
        -24    2    5    5    0    0  0.70521360480E+02 -0.16007499020E+03  0.45053179178E+03  0.49047578074E+03  0.83608201258E+02 0.  0.
          2    1    4    4  501    0 -0.90754603274E+02  0.44671189054E+02  0.10275668494E+03  0.14419032369E+03  0.00000000000E+00 0. -1.
         -1    1    4    4    0  501  0.28598129620E+01  0.29601245423E+02  0.54063132153E+02  0.61702791825E+02  0.00000000000E+00 0.  1.
          5    1    3    3  502    0 -0.14048047561E+02  0.62471276031E+02 -0.27280965269E+02  0.69759221865E+02  0.47000000000E+01 0. -1.
         11    1    6    6    0    0  0.75114033579E+01 -0.10544147677E+03  0.19685007254E+03  0.22343741241E+03  0.00000000000E+00 0. -1.
        -12    1    6    6    0    0  0.63009957122E+02 -0.54633513429E+02  0.25368171924E+03  0.26703836834E+03  0.00000000000E+00 0.  1.
         -5    1    5    5    0  503  0.31421477393E+02  0.23331279690E+02  0.19464015940E+03  0.19859138829E+03  0.47000000000E+01 0.  1.
<mgrwt>
<rscale>  2 0.24298962E+03</rscale>
<asrwt>0</asrwt>
<pdfrwt beam="1">  1       21 0.13380233E+00 0.24331851E+03</pdfrwt>
<pdfrwt beam="2">  1       21 0.14616055E-01 0.24331851E+03</pdfrwt>
<totfact> 0.16009469E+04</totfact>
</mgrwt>
</event>
<event>
12    1  0.1441827E-001  0.2050853E+03  0.7546771E-02  0.1146650E+00
         21   -1    0    0  504  503  0.00000000000E+00  0.00000000000E+00  0.12084610953E+04  0.12084610953E+04  0.00000000000E+00 0. -1.
         21   -1    0    0  502  504 -0.00000000000E+00 -0.00000000000E+00 -0.34058815791E+02  0.34058815791E+02  0.00000000000E+00 0. -1.
          6    2    1    2  502    0 -0.68661364693E+02  0.73342202066E+02  0.62390215331E+03  0.65505897709E+03  0.17249610127E+03 0.  0.
         24    2    3    3    0    0  0.62077560268E+01 -0.80659606087E+01  0.16966547226E+03  0.18752745237E+03  0.79224850660E+02 0.  0.
         -6    2    1    2    0  503  0.68661364693E+02 -0.73342202066E+02  0.55050012618E+03  0.58746093399E+03  0.17879177394E+03 0.  0.
        -24    2    5    5    0    0  0.29645153899E+02 -0.52280714306E+01  0.10867905016E+03  0.13869623761E+03  0.80742445487E+02 0.  0.
          2    1    4    4  501    0 -0.15345289559E+02 -0.82263702326E+00 -0.95653907298E+00  0.15397064990E+02  0.00000000000E+00 0. -1.
         -1    1    4    4    0  501  0.21553045585E+02 -0.72433235855E+01  0.17062201133E+03  0.17213038738E+03  0.00000000000E+00 0.  1.
          5    1    3    3  502    0 -0.74869120720E+02  0.81408162675E+02  0.45423668106E+03  0.46753152472E+03  0.47000000000E+01 0. -1.
         11    1    6    6    0    0  0.48776908234E+02 -0.25449963968E+02  0.88900182526E+02  0.10454726154E+03  0.00000000000E+00 0. -1.
        -12    1    6    6    0    0 -0.19131754334E+02  0.20221892537E+02  0.19778867636E+02  0.34148976070E+02  0.00000000000E+00 0.  1.
         -5    1    5    5    0  503  0.39016210794E+02 -0.68114130635E+02  0.44182107602E+03  0.44876469638E+03  0.47000000000E+01 0.  1.
<mgrwt>
<rscale>  2 0.20370521E+03</rscale>
<asrwt>0</asrwt>
<pdfrwt beam="1">  1       21 0.18591706E+00 0.20508525E+03</pdfrwt>
<pdfrwt beam="2">  1       21 0.52398187E-02 0.20508525E+03</pdfrwt>
<totfact> 0.40908231E+04</totfact>
</mgrwt>
</event>
<event>
12    1  0.1441827E-001  0.1981207E+03  0.7546771E-02  0.1151569E+00
         21   -1    0    0  504  503  0.00000000000E+00  0.00000000000E+00  0.15638384968E+03  0.15638384968E+03  0.00000000000E+00 0. -1.
         21   -1    0    0  502  504 -0.00000000000E+00 -0.00000000000E+00 -0.30849266721E+03  0.30849266721E+03  0.00000000000E+00 0.  1.
          6    2    1    2  502    0  0.66408962504E+02 -0.68110036540E+02  0.25665747287E+02  0.19868935974E+03  0.17253870207E+03 0.  0.
         24    2    3    3    0    0 -0.26550181432E+02 -0.60117906302E+02  0.13922866948E+02  0.10453384039E+03  0.80089966722E+02 0.  0.
         -6    2    1    2    0  503 -0.66408962504E+02  0.68110036540E+02 -0.17777456482E+03  0.26618715714E+03  0.17378918077E+03 0.  0.
        -24    2    5    5    0    0 -0.65903853372E+02  0.56087027023E+02 -0.38147360754E+02  0.12596357136E+03  0.83201728881E+02 0.  0.
          4    1    4    4  501    0 -0.42473427510E+02 -0.38801785803E+02  0.37757238446E+02  0.68812641869E+02  0.00000000000E+00 0. -1.
         -3    1    4    4    0  501  0.15923246078E+02 -0.21316120499E+02 -0.23834371498E+02  0.35721198517E+02  0.00000000000E+00 0.  1.
          5    1    3    3  502    0  0.92959143936E+02 -0.79921302378E+01  0.11742880339E+02  0.94155519359E+02  0.47000000000E+01 0. -1.
         13    1    6    6    0    0  0.13145570422E+02 -0.88458244514E+01  0.21974320293E+01  0.15996353943E+02  0.00000000000E+00 0. -1.
        -14    1    6    6    0    0 -0.79049423794E+02  0.64932851475E+02 -0.40344792784E+02  0.10996721742E+03  0.00000000000E+00 0.  1.
         -5    1    5    5    0  503 -0.50510913228E+00  0.12023009516E+02 -0.13962720406E+03  0.14022358577E+03  0.47000000000E+01 0.  1.
<mgrwt>
<rscale>  2 0.19784612E+03</rscale>
<asrwt>0</asrwt>
<pdfrwt beam="1">  1       21 0.24059054E-01 0.19812069E+03</pdfrwt>
<pdfrwt beam="2">  1       21 0.47460410E-01 0.19812069E+03</pdfrwt>
<totfact> 0.69024127E+04</totfact>
</mgrwt>
</event>
<event>
12    1  0.1441827E-001  0.1992129E+03  0.7546771E-02  0.1150777E+00
         21   -1    0    0  504  503  0.00000000000E+00  0.00000000000E+00  0.51538340070E+02  0.51538340070E+02  0.00000000000E+00 0.  1.
         21   -1    0    0  502  504 -0.00000000000E+00 -0.00000000000E+00 -0.88583160372E+03  0.88583160372E+03  0.00000000000E+00 0. -1.
          6    2    1    2  502    0  0.50564978846E+02  0.83554245004E+02 -0.58988226920E+03  0.62205661182E+03  0.17162519584E+03 0.  0.
         24    2    3    3    0    0  0.14135546359E+02 -0.24382307650E+02 -0.26327155860E+03  0.27611723963E+03  0.78323086364E+02 0.  0.
         -6    2    1    2    0  503 -0.50564978846E+02 -0.83554245004E+02 -0.24441099445E+03  0.31531333197E+03  0.17363074084E+03 0.  0.
        -24    2    5    5    0    0  0.27492134559E+01 -0.10316530483E+03 -0.21458788969E+03  0.25098212379E+03  0.79331114724E+02 0.  0.
          2    1    4    4  501    0 -0.20963046328E+02  0.16463180133E+02 -0.12317903466E+03  0.12602999719E+03  0.00000000000E+00 0. -1.
         -1    1    4    4    0  501  0.35098592687E+02 -0.40845487783E+02 -0.14009252394E+03  0.15008724245E+03  0.00000000000E+00 0.  1.
          5    1    3    3  502    0  0.36429432488E+02  0.10793655265E+03 -0.32661071060E+03  0.34593937219E+03  0.47000000000E+01 0. -1.
         13    1    6    6    0    0  0.16535828199E+02 -0.36274583757E+01 -0.86702619728E+02  0.88339890968E+02  0.00000000000E+00 0. -1.
        -14    1    6    6    0    0 -0.13786614743E+02 -0.99537846457E+02 -0.12788526996E+03  0.16264223282E+03  0.00000000000E+00 0.  1.
         -5    1    5    5    0  503 -0.53314192302E+02  0.19611059829E+02 -0.29823104755E+02  0.64331208178E+02  0.47000000000E+01 0.  1.
<mgrwt>
<rscale>  2 0.19877503E+03</rscale>
<asrwt>0</asrwt>
<pdfrwt beam="1">  1       21 0.79289766E-02 0.19921286E+03</pdfrwt>
<pdfrwt beam="2">  1       21 0.13628176E+00 0.19921286E+03</pdfrwt>
<totfact> 0.46568734E+04</totfact>
</mgrwt>
</event>
<event>
12    1  0.1441827E-001  0.2452129E+03  0.7546771E-02  0.1116418E+00
         21   -1    0    0  504  503  0.00000000000E+00  0.00000000000E+00  0.95931084996E+02  0.95931084996E+02  0.00000000000E+00 0. -1.
         21   -1    0    0  502  504 -0.00000000000E+00 -0.00000000000E+00 -0.63031846822E+03  0.63031846822E+03  0.00000000000E+00 0.  1.
          6    2    1    2  502    0  0.14066485249E+02  0.17318691182E+03 -0.29739520607E+03  0.38545202825E+03  0.17302538846E+03 0.  0.
         24    2    3    3    0    0  0.72154728031E+02  0.14336716005E+03 -0.22423103745E+03  0.28727592569E+03  0.80544720259E+02 0.  0.
         -6    2    1    2    0  503 -0.14066485249E+02 -0.17318691182E+03 -0.23699217715E+03  0.34079752497E+03  0.17258646691E+03 0.  0.
        -24    2    5    5    0    0  0.53488393760E+02 -0.82651074617E+02 -0.14203144993E+03  0.19314919544E+03  0.86263958462E+02 0.  0.
          2    1    4    4  501    0  0.63922020543E+02  0.11872151967E+03 -0.12214443296E+03  0.18193429156E+03  0.00000000000E+00 0. -1.
         -1    1    4    4    0  501  0.82327074883E+01  0.24645640383E+02 -0.10208660450E+03  0.10534163412E+03  0.00000000000E+00 0.  1.
          5    1    3    3  502    0 -0.58088242782E+02  0.29819751768E+02 -0.73164168618E+02  0.98176102564E+02  0.47000000000E+01 0. -1.
         13    1    6    6    0    0  0.19908007678E+02  0.11161336102E+02 -0.44138024363E+01  0.23246200663E+02  0.00000000000E+00 0. -1.
        -14    1    6    6    0    0  0.33580386082E+02 -0.93812410719E+02 -0.13761764749E+03  0.16990299478E+03  0.00000000000E+00 0.  1.
         -5    1    5    5    0  503 -0.67554879009E+02 -0.90535837206E+02 -0.94960727227E+02  0.14764832953E+03  0.47000000000E+01 0.  1.
<mgrwt>
<rscale>  2 0.24513547E+03</rscale>
<asrwt>0</asrwt>
<pdfrwt beam="1">  1       21 0.14758629E-01 0.24521288E+03</pdfrwt>
<pdfrwt beam="2">  1       21 0.96972070E-01 0.24521288E+03</pdfrwt>
<totfact> 0.34724906E+04</totfact>
</mgrwt>
</event>
<event>
12    1  0.1441827E-001  0.2229811E+03  0.7546771E-02  0.1132075E+00
         21   -1    0    0  504  503  0.00000000000E+00  0.00000000000E+00  0.97322140323E+03  0.97322140323E+03  0.00000000000E+00 0. -1.
         21   -1    0    0  502  504 -0.00000000000E+00 -0.00000000000E+00 -0.50661581382E+02  0.50661581382E+02  0.00000000000E+00 0. -1.
          6    2    1    2  502    0 -0.72072516442E+02 -0.11713504203E+03  0.48156519626E+03  0.53068410006E+03  0.17551498542E+03 0.  0.
         24    2    3    3    0    0 -0.36804967819E+02  0.13252143947E+02  0.22103781282E+03  0.23718584491E+03  0.76610608628E+02 0.  0.
         -6    2    1    2    0  503  0.72072516442E+02  0.11713504203E+03  0.44099462559E+03  0.49319888456E+03  0.17278256345E+03 0.  0.
        -24    2    5    5    0    0  0.11372828891E+02  0.10937501966E+03  0.18594641502E+03  0.23087017905E+03  0.81441599656E+02 0.  0.
          2    1    4    4  501    0 -0.22166896338E+02  0.35420017236E+02  0.55187122389E+02  0.69221148443E+02  0.00000000000E+00 0. -1.
         -1    1    4    4    0  501 -0.14638071481E+02 -0.22167873289E+02  0.16585069043E+03  0.16796469647E+03  0.00000000000E+00 0.  1.
          5    1    3    3  502    0 -0.35267548623E+02 -0.13038718597E+03  0.26052738344E+03  0.29349825514E+03  0.47000000000E+01 0. -1.
         11    1    6    6    0    0  0.15520926064E+02  0.10123929843E+03  0.19355507388E+03  0.21898370103E+03  0.00000000000E+00 0. -1.
        -12    1    6    6    0    0 -0.41480971737E+01  0.81357212240E+01 -0.76086588618E+01  0.11886478018E+02  0.00000000000E+00 0.  1.
         -5    1    5    5    0  503  0.60699687552E+02  0.77600223704E+01  0.25504821058E+03  0.26232870551E+03  0.47000000000E+01 0.  1.
<mgrwt>
<rscale>  2 0.22244308E+03</rscale>
<asrwt>0</asrwt>
<pdfrwt beam="1">  1       21 0.14972636E+00 0.22298111E+03</pdfrwt>
<pdfrwt beam="2">  1       21 0.77940902E-02 0.22298111E+03</pdfrwt>
<totfact> 0.37055076E+04</totfact>
</mgrwt>
</event>
<event>
12    1  0.1441827E-001  0.1933346E+03  0.7546771E-02  0.1155527E+00
         21   -1    0    0  504  503  0.00000000000E+00  0.00000000000E+00  0.12647809119E+03  0.12647809119E+03  0.00000000000E+00 0. -1.
         21   -1    0    0  502  504 -0.00000000000E+00 -0.00000000000E+00 -0.30999491327E+03  0.30999491327E+03  0.00000000000E+00 0. -1.
          6    2    1    2  502    0  0.34228495759E+02  0.80410380008E+02 -0.13929575545E+03  0.23814554829E+03  0.17225729462E+03 0.  0.
         24    2    3    3    0    0  0.47522705880E+02  0.64258481633E+02 -0.17131738016E+02  0.11411427401E+03  0.79630465591E+02 0.  0.
         -6    2    1    2    0  503 -0.34228495759E+02 -0.80410380008E+02 -0.44221066630E+02  0.19832745616E+03  0.17245537973E+03 0.  0.
        -24    2    5    5    0    0  0.30716916404E+02 -0.90547552615E+02 -0.82481955601E+01  0.12324878887E+03  0.77329444520E+02 0.  0.
          2    1    4    4  501    0  0.20138807052E+02  0.76541812614E+02  0.80366577345E+00  0.79150909700E+02  0.00000000000E+00 0. -1.
         -1    1    4    4    0  501  0.27383898829E+02 -0.12283330980E+02 -0.17935403790E+02  0.34963364314E+02  0.00000000000E+00 0.  1.
          5    1    3    3  502    0 -0.13294210122E+02  0.16151898375E+02 -0.12216401743E+03  0.12403127428E+03  0.47000000000E+01 0. -1.
         13    1    6    6    0    0  0.29219172737E+01 -0.11856275705E+02 -0.33824974559E+02  0.35961615343E+02  0.00000000000E+00 0. -1.
        -14    1    6    6    0    0  0.27794999131E+02 -0.78691276909E+02  0.25576778998E+02  0.87287173527E+02  0.00000000000E+00 0.  1.
         -5    1    5    5    0  503 -0.64945412163E+02  0.10137172607E+02 -0.35972871070E+02  0.75078667293E+02  0.47000000000E+01 0.  1.
<mgrwt>
<rscale>  2 0.19329044E+03</rscale>
<asrwt>0</asrwt>
<pdfrwt beam="1">  1       21 0.19458168E-01 0.19333462E+03</pdfrwt>
<pdfrwt beam="2">  1       21 0.47691525E-01 0.19333462E+03</pdfrwt>
<totfact> 0.10211511E+05</totfact>
</mgrwt>
</event>
<event>
12    1  0.1441827E-001  0.1940502E+03  0.7546771E-02  0.1157418E+00
         21   -1    0    0  504  503  0.00000000000E+00  0.00000000000E+00  0.14209710338E+04  0.14209710338E+04  0.00000000000E+00 0. -1.
         21   -1    0    0  502  504 -0.00000000000E+00 -0.00000000000E+00 -0.35293951773E+02  0.35293951773E+02  0.00000000000E+00 0. -1.
          6    2    1    2  502    0 -0.99919508947E+01  0.71880489576E+02  0.31403962513E+03  0.36915626804E+03  0.17996894237E+03 0.  0.
         24    2    3    3    0    0  0.23679284947E+02 -0.24095389806E+02  0.10464249703E+03  0.13631647591E+03  0.80565706557E+02 0.  0.
         -6    2    1    2    0  503  0.99919508947E+01 -0.71880489576E+02  0.10716374569E+04  0.10871087175E+04  0.16772561176E+03 0.  0.
        -24    2    5    5    0    0  0.75523295468E+02 -0.40681185581E+02  0.54436965886E+03  0.55484827889E+03  0.64494651592E+02 0.  0.
          4    1    4    4  501    0  0.23799903068E+02 -0.27023963008E+02  0.46822527043E+01  0.36313268279E+02  0.00000000000E+00 0. -1.
         -3    1    4    4    0  501 -0.12061812121E+00  0.29285732023E+01  0.99960244329E+02  0.10000320763E+03  0.00000000000E+00 0.  1.
          5    1    3    3  502    0 -0.33671235842E+02  0.95975879382E+02  0.20939712809E+03  0.23283979213E+03  0.47000000000E+01 0. -1.
         13    1    6    6    0    0  0.31248371765E+02 -0.25465659264E+02  0.42048243975E+03  0.42241027767E+03  0.00000000000E+00 0. -1.
        -14    1    6    6    0    0  0.44274923704E+02 -0.15215526317E+02  0.12388721911E+03  0.13243800123E+03  0.00000000000E+00 0.  1.
         -5    1    5    5    0  503 -0.65531344574E+02 -0.31199303995E+02  0.52726779804E+03  0.53226043864E+03  0.47000000000E+01 0.  1.
<mgrwt>
<rscale>  2 0.19116193E+03</rscale>
<asrwt>0</asrwt>
<pdfrwt beam="1">  1       21 0.21861088E+00 0.19405016E+03</pdfrwt>
<pdfrwt beam="2">  1       21 0.54298398E-02 0.19405016E+03</pdfrwt>
<totfact> 0.23962951E+04</totfact>
</mgrwt>
</event>
<event>
12    1  0.1441827E-001  0.2183132E+03  0.7546771E-02  0.1135944E+00
         21   -1    0    0  504  503  0.00000000000E+00  0.00000000000E+00  0.38855627347E+02  0.38855627347E+02  0.00000000000E+00 0.  1.
         21   -1    0    0  502  504 -0.00000000000E+00 -0.00000000000E+00 -0.12830533830E+04  0.12830533830E+04  0.00000000000E+00 0. -1.
          6    2    1    2  502    0 -0.10459689719E+03 -0.68364002470E+02 -0.78135634461E+03  0.81016411815E+03  0.17387930682E+03 0.  0.
         24    2    3    3    0    0 -0.12624916584E+03 -0.88831444975E+02 -0.55433486680E+03  0.58114757218E+03  0.81335592518E+02 0.  0.
         -6    2    1    2    0  503  0.10459689719E+03  0.68364002470E+02 -0.46284141109E+03  0.51174489224E+03  0.17901540488E+03 0.  0.
        -24    2    5    5    0    0  0.67165986800E+02  0.10505384905E+02 -0.11177952912E+03  0.15395273519E+03  0.81148928807E+02 0.  0.
          4    1    4    4  501    0 -0.45868399169E+02 -0.79528764194E+02 -0.33538592256E+03  0.34772467762E+03  0.00000000000E+00 0. -1.
         -3    1    4    4    0  501 -0.80380766669E+02 -0.93026807811E+01 -0.21894894424E+03  0.23342289456E+03  0.00000000000E+00 0.  1.
          5    1    3    3  502    0  0.21652268652E+02  0.20467442505E+02 -0.22702147781E+03  0.22901654597E+03  0.47000000000E+01 0. -1.
         13    1    6    6    0    0  0.37937125955E+01  0.27397404757E+02 -0.72280935859E+02  0.77392142569E+02  0.00000000000E+00 0. -1.
        -14    1    6    6    0    0  0.63372274204E+02 -0.16892019852E+02 -0.39498593259E+02  0.76560592617E+02  0.00000000000E+00 0.  1.
         -5    1    5    5    0  503  0.37430910386E+02  0.57858617564E+02 -0.35106188197E+03  0.35779215705E+03  0.47000000000E+01 0.  1.
<mgrwt>
<rscale>  2 0.21725775E+03</rscale>
<asrwt>0</asrwt>
<pdfrwt beam="1">  1       21 0.59777884E-02 0.21831322E+03</pdfrwt>
<pdfrwt beam="2">  1       21 0.19739284E+00 0.21831322E+03</pdfrwt>
<totfact> 0.27203042E+04</totfact>
</mgrwt>
</event>
<event>
12    1  0.1441827E-001  0.1765156E+03  0.7546771E-02  0.1171303E+00
         21   -1    0    0  504  503  0.00000000000E+00  0.00000000000E+00  0.36107143357E+02  0.36107143357E+02  0.00000000000E+00 0.  1.
         21   -1    0    0  502  504 -0.00000000000E+00 -0.00000000000E+00 -0.10522182332E+04  0.10522182332E+04  0.00000000000E+00 0. -1.
          6    2    1    2  502    0  0.52907634058E+01 -0.35470309722E+02 -0.73947218005E+03  0.76016864790E+03  0.17248516787E+03 0.  0.
         24    2    3    3    0    0 -0.53906432884E+02 -0.41248943426E+02 -0.33048287903E+03  0.34685032143E+03  0.80491200130E+02 0.  0.
         -6    2    1    2    0  503 -0.52907634058E+01  0.35470309722E+02 -0.27663890983E+03  0.32815672870E+03  0.17283407391E+03 0.  0.
        -24    2    5    5    0    0  0.26812244261E+02 -0.10283890510E+02 -0.56914098730E+02  0.10138562702E+03  0.78836386814E+02 0.  0.
          2    1    4    4  501    0 -0.74872745030E+02 -0.27290421693E+02 -0.26355693983E+03  0.27534152537E+03  0.00000000000E+00 0. -1.
         -1    1    4    4    0  501  0.20966312146E+02 -0.13958521733E+02 -0.66925939208E+02  0.71508796052E+02  0.00000000000E+00 0.  1.
          5    1    3    3  502    0  0.59197196290E+02  0.57786337041E+01 -0.40898930101E+03  0.41331832647E+03  0.47000000000E+01 0. -1.
         11    1    6    6    0    0  0.20945901171E+02  0.15156376624E+02 -0.68204991329E+02  0.72940848435E+02  0.00000000000E+00 0. -1.
        -12    1    6    6    0    0  0.58663430899E+01 -0.25440267135E+02  0.11290892599E+02  0.28444778586E+02  0.00000000000E+00 0.  1.
         -5    1    5    5    0  503 -0.32103007667E+02  0.45754200232E+02 -0.21972481110E+03  0.22677110167E+03  0.47000000000E+01 0.  1.
<mgrwt>
<rscale>  2 0.17643012E+03</rscale>
<asrwt>0</asrwt>
<pdfrwt beam="1">  1       21 0.55549456E-02 0.17651559E+03</pdfrwt>
<pdfrwt beam="2">  1       21 0.16187971E+00 0.17651559E+03</pdfrwt>
<totfact> 0.55363041E+04</totfact>
</mgrwt>
</event>
<event>
12    1  0.1441827E-001  0.2119075E+03  0.7546771E-02  0.1140560E+00
         21   -1    0    0  504  503  0.00000000000E+00  0.00000000000E+00  0.89351211639E+03  0.89351211639E+03  0.00000000000E+00 0.  1.
         21   -1    0    0  502  504 -0.00000000000E+00 -0.00000000000E+00 -0.50137044881E+02  0.50137044881E+02  0.00000000000E+00 0.  1.
          6    2    1    2  502    0  0.52431874101E+00 -0.11559101823E+03  0.46514339081E+03  0.51010103035E+03  0.17459418302E+03 0.  0.
         24    2    3    3    0    0 -0.11489321605E+02  0.75526001540E+01  0.23449544086E+03  0.24832011981E+03  0.80533991842E+02 0.  0.
         -6    2    1    2    0  503 -0.52431874101E+00  0.11559101823E+03  0.37823168070E+03  0.43354813092E+03  0.17760410788E+03 0.  0.
        -24    2    5    5    0    0  0.24111173859E+02  0.26103194623E+02  0.77281269978E+02  0.11857477049E+03  0.82612686874E+02 0.  0.
          2    1    4    4  501    0 -0.75703505690E+01  0.37433057281E+02  0.59178045039E+02  0.70431420544E+02  0.00000000000E+00 0. -1.
         -1    1    4    4    0  501 -0.39189710358E+01 -0.29880457127E+02  0.17531739582E+03  0.17788869927E+03  0.00000000000E+00 0.  1.
          5    1    3    3  502    0  0.12013640346E+02 -0.12314361838E+03  0.23064794995E+03  0.26178091053E+03  0.47000000000E+01 0. -1.
         13    1    6    6    0    0 -0.30234907261E+02  0.16826946141E+02  0.33656812780E+02  0.48270868855E+02  0.00000000000E+00 0. -1.
        -14    1    6    6    0    0  0.54346081120E+02  0.92762484821E+01  0.43624457197E+02  0.70303901633E+02  0.00000000000E+00 0.  1.
         -5    1    5    5    0  503 -0.24635492600E+02  0.89487823606E+02  0.30095041072E+03  0.31497336044E+03  0.47000000000E+01 0.  1.
<mgrwt>
<rscale>  2 0.21127559E+03</rscale>
<asrwt>0</asrwt>
<pdfrwt beam="1">  1       21 0.13746339E+00 0.21190747E+03</pdfrwt>
<pdfrwt beam="2">  1       21 0.77133922E-02 0.21190747E+03</pdfrwt>
<totfact> 0.47456388E+04</totfact>
</mgrwt>
</event>
<event>
12    1  0.1441827E-001  0.2089957E+03  0.7546771E-02  0.1142388E+00
         21   -1    0    0  504  503  0.00000000000E+00  0.00000000000E+00  0.95885892268E+02  0.95885892268E+02  0.00000000000E+00 0.  1.
         21   -1    0    0  502  504 -0.00000000000E+00 -0.00000000000E+00 -0.95423828202E+03  0.95423828202E+03  0.00000000000E+00 0. -1.
          6    2    1    2  502    0  0.98450431833E+02 -0.63800648094E+02 -0.80891921978E+03  0.83548159773E+03  0.17296296075E+03 0.  0.
         24    2    3    3    0    0 -0.19493356196E+01 -0.70493801145E+02 -0.39669349193E+03  0.41112673173E+03  0.81769719879E+02 0.  0.
         -6    2    1    2    0  503 -0.98450431833E+02  0.63800648094E+02 -0.49433169978E+02  0.21464257656E+03  0.17281431409E+03 0.  0.
        -24    2    5    5    0    0 -0.33328400323E+02  0.80014582113E+02 -0.44304075525E+01  0.13370365348E+03  0.10170507767E+03 0.  0.
          4    1    4    4  501    0 -0.16863144065E+02 -0.78410301829E+02 -0.37580190304E+03  0.38426502754E+03  0.00000000000E+00 0. -1.
         -3    1    4    4    0  501  0.14913808446E+02  0.79165006838E+01 -0.20891588893E+02  0.26861704189E+02  0.00000000000E+00 0.  1.
          5    1    3    3  502    0  0.10039976745E+03  0.66931530512E+01 -0.41222572784E+03  0.42435486600E+03  0.47000000000E+01 0. -1.
         11    1    6    6    0    0 -0.11960549483E+02  0.34858155044E+02 -0.52653411898E+02  0.64269180028E+02  0.00000000000E+00 0. -1.
        -12    1    6    6    0    0 -0.21367850840E+02  0.45156427069E+02  0.48223004345E+02  0.69434473450E+02  0.00000000000E+00 0.  1.
         -5    1    5    5    0  503 -0.65122031509E+02 -0.16213934019E+02 -0.45002762425E+02  0.80938923085E+02  0.47000000000E+01 0.  1.
<mgrwt>
<rscale>  2 0.20896493E+03</rscale>
<asrwt>0</asrwt>
<pdfrwt beam="1">  1       21 0.14751676E-01 0.20899568E+03</pdfrwt>
<pdfrwt beam="2">  1       21 0.14680589E+00 0.20899568E+03</pdfrwt>
<totfact> 0.12640742E+04</totfact>
</mgrwt>
</event>
<event>
12    1  0.1441827E-001  0.1830304E+03  0.7546771E-02  0.1166467E+00
         21   -1    0    0  504  503  0.00000000000E+00  0.00000000000E+00  0.32892300415E+03  0.32892300415E+03  0.00000000000E+00 0.  1.
         21   -1    0    0  502  504 -0.00000000000E+00 -0.00000000000E+00 -0.29217896402E+03  0.29217896402E+03  0.00000000000E+00 0.  1.
          6    2    1    2  502    0  0.10299891106E+02  0.59574158012E+02 -0.23449436887E+03  0.29746886856E+03  0.17275691208E+03 0.  0.
         24    2    3    3    0    0  0.32475849278E+02  0.84463770702E+02 -0.23427522235E+03  0.26380280306E+03  0.80735554440E+02 0.  0.
         -6    2    1    2    0  503 -0.10299891106E+02 -0.59574158012E+02  0.27123840900E+03  0.32363309961E+03  0.16587025226E+03 0.  0.
        -24    2    5    5    0    0 -0.54418040446E+02  0.52971025017E+01  0.13679149356E+03  0.16790014030E+03  0.80555334916E+02 0.  0.
          4    1    4    4  501    0  0.19383008419E+02  0.70572656464E+02 -0.80294951369E+02  0.10864382206E+03  0.00000000000E+00 0. -1.
         -3    1    4    4    0  501  0.13092840859E+02  0.13891114238E+02 -0.15398027098E+03  0.15515898100E+03  0.00000000000E+00 0.  1.
          5    1    3    3  502    0 -0.22175958172E+02 -0.24889612690E+02 -0.21914652281E+00  0.33666065495E+02  0.47000000000E+01 0. -1.
         13    1    6    6    0    0 -0.52166572157E+02 -0.14900365815E+02  0.36070780937E+02  0.65149623095E+02  0.00000000000E+00 0. -1.
        -14    1    6    6    0    0 -0.22514682894E+01  0.20197468317E+02  0.10072071262E+03  0.10275051721E+03  0.00000000000E+00 0.  1.
         -5    1    5    5    0  503  0.44118149341E+02 -0.64871260514E+02  0.13444691544E+03  0.15573295930E+03  0.47000000000E+01 0.  1.
<mgrwt>
<rscale>  2 0.18138701E+03</rscale>
<asrwt>0</asrwt>
<pdfrwt beam="1">  1       21 0.50603539E-01 0.18303038E+03</pdfrwt>
<pdfrwt beam="2">  1       21 0.44950610E-01 0.18303038E+03</pdfrwt>
<totfact> 0.17753300E+04</totfact>
</mgrwt>
</event>
<event>
12    1  0.1441827E-001  0.2338463E+03  0.7546771E-02  0.1124020E+00
         21   -1    0    0  504  503  0.00000000000E+00  0.00000000000E+00  0.20642695286E+03  0.20642695286E+03  0.00000000000E+00 0.  1.
         21   -1    0    0  502  504 -0.00000000000E+00 -0.00000000000E+00 -0.37548691751E+03  0.37548691751E+03  0.00000000000E+00 0. -1.
          6    2    1    2  502    0 -0.15705831580E+03  0.71929953945E+01 -0.24265419732E+03  0.33676039900E+03  0.17264835103E+03 0.  0.
         24    2    3    3    0    0 -0.30889435897E+02 -0.12189103563E+02 -0.36871175343E+02  0.94555951991E+02  0.80489831595E+02 0.  0.
         -6    2    1    2    0  503  0.15705831580E+03 -0.71929953945E+01  0.73594232674E+02  0.24515347138E+03  0.17310418741E+03 0.  0.
        -24    2    5    5    0    0  0.11683674345E+03  0.21582026887E+02  0.11366014582E+03  0.18133228222E+03  0.76460181293E+02 0.  0.
          2    1    4    4  501    0 -0.56867812882E+02 -0.99700366696E+01 -0.12944915299E+02  0.59168577854E+02  0.00000000000E+00 0. -1.
         -1    1    4    4    0  501  0.25978376985E+02 -0.22190668932E+01 -0.23926260043E+02  0.35387374137E+02  0.00000000000E+00 0.  1.
          5    1    3    3  502    0 -0.12616887990E+03  0.19382098957E+02 -0.20578302198E+03  0.24220444701E+03  0.47000000000E+01 0. -1.
         13    1    6    6    0    0  0.97672768256E+01  0.86477063063E+00  0.58133498898E+02  0.58954653921E+02  0.00000000000E+00 0. -1.
        -14    1    6    6    0    0  0.10706946662E+03  0.20717256256E+02  0.55526646917E+02  0.12237762830E+03  0.00000000000E+00 0.  1.
         -5    1    5    5    0  503  0.40221572352E+02 -0.28775022281E+02 -0.40065913142E+02  0.63821189159E+02  0.47000000000E+01 0.  1.
<mgrwt>
<rscale>  2 0.23376199E+03</rscale>
<asrwt>0</asrwt>
<pdfrwt beam="1">  1       21 0.31757993E-01 0.23384635E+03</pdfrwt>
<pdfrwt beam="2">  1       21 0.57767217E-01 0.23384635E+03</pdfrwt>
<totfact> 0.26207003E+04</totfact>
</mgrwt>
</event>
<event>
12    1  0.1441827E-001  0.2853066E+03  0.7546771E-02  0.1092915E+00
         21   -1    0    0  504  503  0.00000000000E+00  0.00000000000E+00  0.58638152788E+03  0.58638152788E+03  0.00000000000E+00 0. -1.
         21   -1    0    0  502  504 -0.00000000000E+00 -0.00000000000E+00 -0.43361274461E+03  0.43361274461E+03  0.00000000000E+00 0. -1.
          6    2    1    2  502    0  0.19261243443E+03 -0.11918849859E+03 -0.34438759694E+03  0.44678894988E+03  0.17237198357E+03 0.  0.
         24    2    3    3    0    0  0.21554289312E+03 -0.98613669266E+02 -0.32068684836E+03  0.40763610809E+03  0.84520691949E+02 0.  0.
         -6    2    1    2    0  503 -0.19261243443E+03  0.11918849859E+03  0.49715638020E+03  0.57320532261E+03  0.17347745503E+03 0.  0.
        -24    2    5    5    0    0 -0.18047032609E+03  0.15171009527E+03  0.44975907138E+03  0.51426738975E+03  0.81254133848E+02 0.  0.
          4    1    4    4  501    0  0.20887961049E+03 -0.10047495849E+03 -0.26729246070E+03  0.35379537661E+03  0.00000000000E+00 0. -1.
         -3    1    4    4    0  501  0.66632826277E+01  0.18612892235E+01 -0.53394387659E+02  0.53840731481E+02  0.00000000000E+00 0.  1.
          5    1    3    3  502    0 -0.22930458688E+02 -0.20574829319E+02 -0.23700748576E+02  0.39152841789E+02  0.47000000000E+01 0. -1.
         13    1    6    6    0    0 -0.90759393843E+02  0.10683075302E+03  0.32670281755E+03  0.35550641114E+03  0.00000000000E+00 0. -1.
        -14    1    6    6    0    0 -0.89710932243E+02  0.44879342252E+02  0.12305625383E+03  0.15876097861E+03  0.00000000000E+00 0.  1.
         -5    1    5    5    0  503 -0.12142108342E+02 -0.32521596689E+02  0.47397308824E+02  0.58937932861E+02  0.47000000000E+01 0.  1.
<mgrwt>
<rscale>  2 0.28513878E+03</rscale>
<asrwt>0</asrwt>
<pdfrwt beam="1">  1       21 0.90212543E-01 0.28530663E+03</pdfrwt>
<pdfrwt beam="2">  1       21 0.66709653E-01 0.28530663E+03</pdfrwt>
<totfact> 0.20067544E+03</totfact>
</mgrwt>
</event>
<event>
12    1  0.1441827E-001  0.2279529E+03  0.7546771E-02  0.1128394E+00
         21   -1    0    0  504  503  0.00000000000E+00  0.00000000000E+00  0.23591269131E+02  0.23591269131E+02  0.00000000000E+00 0. -1.
         21   -1    0    0  502  504 -0.00000000000E+00 -0.00000000000E+00 -0.22529444773E+04  0.22529444773E+04  0.00000000000E+00 0. -1.
          6    2    1    2  502    0 -0.78574104101E+01 -0.14812554863E+03 -0.91464635214E+03  0.94221321122E+03  0.17083579502E+03 0.  0.
         24    2    3    3    0    0  0.12380818344E+02 -0.34324129383E+02 -0.21456801327E+03  0.23264142522E+03  0.82165503049E+02 0.  0.
         -6    2    1    2    0  503  0.78574104101E+01  0.14812554863E+03 -0.13147068561E+04  0.13343225353E+04  0.17308839830E+03 0.  0.
        -24    2    5    5    0    0  0.37054562439E+01  0.16922771817E+02 -0.32131706371E+03  0.33228622008E+03  0.82881638550E+02 0.  0.
          2    1    4    4  501    0  0.38775933869E+02 -0.18583366866E+02 -0.18522466804E+03  0.19015018333E+03  0.00000000000E+00 0. -1.
         -1    1    4    4    0  501 -0.26395115525E+02 -0.15740762517E+02 -0.29343345231E+02  0.42491241892E+02  0.00000000000E+00 0.  1.
          5    1    3    3  502    0 -0.20238228754E+02 -0.11380141925E+03 -0.70007833887E+03  0.70957178599E+03  0.47000000000E+01 0. -1.
         11    1    6    6    0    0 -0.24561625689E+01  0.48473480386E+02 -0.23973898776E+03  0.24460272543E+03  0.00000000000E+00 0. -1.
        -12    1    6    6    0    0  0.61616188128E+01 -0.31550708569E+02 -0.81578075950E+02  0.87683494646E+02  0.00000000000E+00 0.  1.
         -5    1    5    5    0  503  0.41519541662E+01  0.13120277681E+03 -0.99338979236E+03  0.10020363152E+04  0.47000000000E+01 0.  1.
<mgrwt>
<rscale>  2 0.22752524E+03</rscale>
<asrwt>0</asrwt>
<pdfrwt beam="1">  1       21 0.36294267E-02 0.22795287E+03</pdfrwt>
<pdfrwt beam="2">  1       21 0.34660678E+00 0.22795287E+03</pdfrwt>
<totfact> 0.81133927E+03</totfact>
</mgrwt>
</event>
<event>
12    1  0.1441827E-001  0.2055712E+03  0.7546771E-02  0.1145165E+00
         21   -1    0    0  504  503  0.00000000000E+00  0.00000000000E+00  0.59585501501E+02  0.59585501501E+02  0.00000000000E+00 0.  1.
         21   -1    0    0  502  504 -0.00000000000E+00 -0.00000000000E+00 -0.77513398569E+03  0.77513398569E+03  0.00000000000E+00 0.  1.
          6    2    1    2  502    0  0.20112209573E+02  0.11065012083E+03 -0.23556946244E+03  0.31265391567E+03  0.17208006607E+03 0.  0.
         24    2    3    3    0    0 -0.40645283856E+02  0.11362588462E+03 -0.17238297423E+03  0.22481912490E+03  0.79150921411E+02 0.  0.
         -6    2    1    2    0  503 -0.20112209573E+02 -0.11065012083E+03 -0.47997902175E+03  0.52206557151E+03  0.17182738265E+03 0.  0.
        -24    2    5    5    0    0  0.43801453152E+02 -0.51996626195E+02 -0.16588401456E+03  0.19617762719E+03  0.79661400250E+02 0.  0.
          2    1    4    4  501    0 -0.64314993127E+02  0.81989203637E+02 -0.13383715598E+03  0.16962025874E+03  0.00000000000E+00 0. -1.
         -1    1    4    4    0  501  0.23669709272E+02  0.31636680987E+02 -0.38545818249E+02  0.55198866160E+02  0.00000000000E+00 0.  1.
          5    1    3    3  502    0  0.60757493429E+02 -0.29757637928E+01 -0.63186488211E+02  0.87834790774E+02  0.47000000000E+01 0. -1.
         13    1    6    6    0    0  0.61662954785E+02 -0.22759622273E+02 -0.13455918452E+03  0.14975478135E+03  0.00000000000E+00 0. -1.
        -14    1    6    6    0    0 -0.17861501633E+02 -0.29237003921E+02 -0.31324830044E+02  0.46422845843E+02  0.00000000000E+00 0.  1.
         -5    1    5    5    0  503 -0.63913662725E+02 -0.58653494636E+02 -0.31409500718E+03  0.32588794432E+03  0.47000000000E+01 0.  1.
<mgrwt>
<rscale>  2 0.20551827E+03</rscale>
<asrwt>0</asrwt>
<pdfrwt beam="1">  1       21 0.91670005E-02 0.20557115E+03</pdfrwt>
<pdfrwt beam="2">  1       21 0.11925138E+00 0.20557115E+03</pdfrwt>
<totfact> 0.50383690E+04</totfact>
</mgrwt>
</event>
<event>
12    1  0.1441827E-001  0.1849938E+03  0.7546771E-02  0.1163105E+00
         21   -1    0    0  504  503  0.00000000000E+00  0.00000000000E+00  0.28645076232E+03  0.28645076232E+03  0.00000000000E+00 0.  1.
         21   -1    0    0  502  504 -0.00000000000E+00 -0.00000000000E+00 -0.15785609667E+03  0.15785609667E+03  0.00000000000E+00 0.  1.
          6    2    1    2  502    0  0.64437214930E+02 -0.24762978681E+01 -0.45471752800E+02  0.19029537456E+03  0.17316570838E+03 0.  0.
         24    2    3    3    0    0  0.59398893511E+02 -0.46032898601E+02  0.17925739786E+02  0.11306912115E+03  0.82559298124E+02 0.  0.
         -6    2    1    2    0  503 -0.64437214930E+02  0.24762978681E+01  0.17406641845E+03  0.25401148442E+03  0.17339097285E+03 0.  0.
        -24    2    5    5    0    0 -0.27373227363E+02 -0.65771206175E+02  0.11966475907E+03  0.15907418129E+03  0.76875193993E+02 0.  0.
          2    1    4    4  501    0  0.69042509248E+02 -0.41147506636E+02  0.39035816465E+02  0.89352002511E+02  0.00000000000E+00 0. -1.
         -1    1    4    4    0  501 -0.96436157370E+01 -0.48853919646E+01 -0.21110076679E+02  0.23717118639E+02  0.00000000000E+00 0.  1.
          5    1    3    3  502    0  0.50383214184E+01  0.43556600733E+02 -0.63397492586E+02  0.77226253414E+02  0.47000000000E+01 0. -1.
         13    1    6    6    0    0  0.37278314852E+01 -0.70363886530E+02  0.64223480044E+02  0.95339543968E+02  0.00000000000E+00 0. -1.
        -14    1    6    6    0    0 -0.31101058848E+02  0.45926803544E+01  0.55441279027E+02  0.63734637321E+02  0.00000000000E+00 0.  1.
         -5    1    5    5    0  503 -0.37063987567E+02  0.68247504043E+02  0.54401659381E+02  0.94937303132E+02  0.47000000000E+01 0.  1.
<mgrwt>
<rscale>  2 0.18494103E+03</rscale>
<asrwt>0</asrwt>
<pdfrwt beam="1">  1       21 0.44069348E-01 0.18499383E+03</pdfrwt>
<pdfrwt beam="2">  1       21 0.24285553E-01 0.18499383E+03</pdfrwt>
<totfact> 0.79421680E+04</totfact>
</mgrwt>
</event>
<event>
12    1  0.1441827E-001  0.3530405E+03  0.7546771E-02  0.1061502E+00
         21   -1    0    0  504  503  0.00000000000E+00  0.00000000000E+00  0.24283746817E+03  0.24283746817E+03  0.00000000000E+00 0.  1.
         21   -1    0    0  502  504 -0.00000000000E+00 -0.00000000000E+00 -0.60902679187E+03  0.60902679187E+03  0.00000000000E+00 0.  1.
          6    2    1    2  502    0 -0.30653291707E+03  0.17692921542E+02 -0.35332720567E+03  0.49858957809E+03  0.17168571401E+03 0.  0.
         24    2    3    3    0    0 -0.23194502664E+03  0.15676278358E+02 -0.16878733291E+03  0.29948037468E+03  0.84587764955E+02 0.  0.
         -6    2    1    2    0  503  0.30653291707E+03 -0.17692921542E+02 -0.12862118041E+02  0.35327468195E+03  0.17424723270E+03 0.  0.
        -24    2    5    5    0    0  0.13044195630E+03  0.15143817619E+01  0.57152933915E+02  0.16274608970E+03  0.78755536570E+02 0.  0.
          4    1    4    4  501    0 -0.75413717164E+02  0.42790654024E+02 -0.77275977854E+02  0.11614579442E+03  0.00000000000E+00 0. -1.
         -3    1    4    4    0  501 -0.15653130947E+03 -0.27114375666E+02 -0.91511355060E+02  0.18333458026E+03  0.00000000000E+00 0.  1.
          5    1    3    3  502    0 -0.74587890438E+02  0.20166431840E+01 -0.18453987275E+03  0.19910920342E+03  0.47000000000E+01 0. -1.
         11    1    6    6    0    0  0.31036785536E+02 -0.33404908922E+02  0.27677987875E+02  0.53340800606E+02  0.00000000000E+00 0. -1.
        -12    1    6    6    0    0  0.99405170765E+02  0.34919290684E+02  0.29474946040E+02  0.10940528909E+03  0.00000000000E+00 0.  1.
         -5    1    5    5    0  503  0.17609096077E+03 -0.19207303304E+02 -0.70015051955E+02  0.19052859225E+03  0.47000000000E+01 0.  1.
<mgrwt>
<rscale>  2 0.35272574E+03</rscale>
<asrwt>0</asrwt>
<pdfrwt beam="1">  1       21 0.37359611E-01 0.35304046E+03</pdfrwt>
<pdfrwt beam="2">  1       21 0.93696428E-01 0.35304046E+03</pdfrwt>
<totfact> 0.60381329E+03</totfact>
</mgrwt>
</event>
<event>
12    1  0.1441827E-001  0.2151036E+03  0.7546771E-02  0.1141017E+00
         21   -1    0    0  504  503  0.00000000000E+00  0.00000000000E+00  0.16446870270E+03  0.16446870270E+03  0.00000000000E+00 0. -1.
         21   -1    0    0  502  504 -0.00000000000E+00 -0.00000000000E+00 -0.42342740933E+03  0.42342740933E+03  0.00000000000E+00 0. -1.
          6    2    1    2  502    0  0.95623291689E+01  0.99003250316E+02 -0.31561670903E+03  0.38194694670E+03  0.19072619474E+03 0.  0.
         24    2    3    3    0    0 -0.14144397483E+02  0.42233635838E+02 -0.41463981356E+02  0.10093697160E+03  0.80531152412E+02 0.  0.
         -6    2    1    2    0  503 -0.95623291689E+01 -0.99003250316E+02  0.56658002399E+02  0.20594916533E+03  0.17120703184E+03 0.  0.
        -24    2    5    5    0    0 -0.43306957212E+02 -0.60412414480E+02 -0.22229737136E+02  0.11175087457E+03  0.80429748154E+02 0.  0.
          2    1    4    4  501    0  0.32907192060E+02  0.26989393872E+02 -0.19852090197E+02  0.46961858524E+02  0.00000000000E+00 0. -1.
         -1    1    4    4    0  501 -0.47051589543E+02  0.15244241966E+02 -0.21611891159E+02  0.53975113072E+02  0.00000000000E+00 0.  1.
          5    1    3    3  502    0  0.23706726652E+02  0.56769614478E+02 -0.27415272767E+03  0.28100997510E+03  0.47000000000E+01 0. -1.
         13    1    6    6    0    0 -0.18518296373E+02  0.18486563339E+02 -0.20617272786E+00  0.26167209095E+02  0.00000000000E+00 0. -1.
        -14    1    6    6    0    0 -0.24788660840E+02 -0.78898977819E+02 -0.22023564408E+02  0.85583665477E+02  0.00000000000E+00 0.  1.
         -5    1    5    5    0  503  0.33744628043E+02 -0.38590835836E+02  0.78887739535E+02  0.94198290756E+02  0.47000000000E+01 0.  1.
<mgrwt>
<rscale>  2 0.21069458E+03</rscale>
<asrwt>0</asrwt>
<pdfrwt beam="1">  1       21 0.25302877E-01 0.21510361E+03</pdfrwt>
<pdfrwt beam="2">  1       21 0.65142678E-01 0.21510361E+03</pdfrwt>
<totfact> 0.31723385E+04</totfact>
</mgrwt>
</event>
<event>
12    1  0.1441827E-001  0.2120408E+03  0.7546771E-02  0.1140192E+00
         21   -1    0    0  504  503  0.00000000000E+00  0.00000000000E+00  0.14064504221E+03  0.14064504221E+03  0.00000000000E+00 0. -1.
         21   -1    0    0  502  504 -0.00000000000E+00 -0.00000000000E+00 -0.50776124272E+03  0.50776124272E+03  0.00000000000E+00 0.  1.
          6    2    1    2  502    0  0.98784607952E+02 -0.69801350595E+02 -0.38148310128E+03  0.43587936313E+03  0.17271605403E+03 0.  0.
         24    2    3    3    0    0  0.65814640655E+02 -0.80575190406E+02 -0.14354055168E+03  0.19537605488E+03  0.82121766961E+02 0.  0.
         -6    2    1    2    0  503 -0.98784607952E+02  0.69801350595E+02  0.14366900769E+02  0.21252692180E+03  0.17415699050E+03 0.  0.
        -24    2    5    5    0    0 -0.10522650413E+03  0.32522697194E+02 -0.44104529799E+02  0.14272581709E+03  0.79341706006E+02 0.  0.
          2    1    4    4  501    0  0.12302804849E+02  0.97284963935E+01  0.21275371925E+01  0.15828109923E+02  0.00000000000E+00 0. -1.
         -1    1    4    4    0  501  0.53511835805E+02 -0.90303686799E+02 -0.14566808888E+03  0.17954794495E+03  0.00000000000E+00 0.  1.
          5    1    3    3  502    0  0.32969967298E+02  0.10773839811E+02 -0.23794254960E+03  0.24050330825E+03  0.47000000000E+01 0. -1.
         11    1    6    6    0    0 -0.29561946933E+02 -0.17911048451E+02  0.11154299620E+02  0.36319867333E+02  0.00000000000E+00 0. -1.
        -12    1    6    6    0    0 -0.75664557196E+02  0.50433745645E+02 -0.55258829419E+02  0.10640594976E+03  0.00000000000E+00 0.  1.
         -5    1    5    5    0  503  0.64418961768E+01  0.37278653401E+02  0.58471430568E+02  0.69801104707E+02  0.47000000000E+01 0.  1.
<mgrwt>
<rscale>  2 0.21174467E+03</rscale>
<asrwt>0</asrwt>
<pdfrwt beam="1">  1       21 0.21637699E-01 0.21204076E+03</pdfrwt>
<pdfrwt beam="2">  1       21 0.78117115E-01 0.21204076E+03</pdfrwt>
<totfact> 0.28592906E+04</totfact>
</mgrwt>
</event>
<event>
12    1  0.1441827E-001  0.1972615E+03  0.7546771E-02  0.1152192E+00
         21   -1    0    0  504  503  0.00000000000E+00  0.00000000000E+00  0.51516858320E+03  0.51516858320E+03  0.00000000000E+00 0. -1.
         21   -1    0    0  502  504 -0.00000000000E+00 -0.00000000000E+00 -0.75321062678E+02  0.75321062678E+02  0.00000000000E+00 0. -1.
          6    2    1    2  502    0  0.87411619029E+02 -0.35248597778E+02  0.22193683214E+03  0.29655567691E+03  0.17264430850E+03 0.  0.
         24    2    3    3    0    0 -0.67057185786E+01 -0.34516687568E+02  0.35323998858E+02  0.87498152582E+02  0.71915043124E+02 0.  0.
         -6    2    1    2    0  503 -0.87411619029E+02  0.35248597778E+02  0.21791068838E+03  0.29393396898E+03  0.17328835858E+03 0.  0.
        -24    2    5    5    0    0 -0.40246906782E+02 -0.12747285104E+02  0.32483725323E+02  0.96618578078E+02  0.80608004788E+02 0.  0.
          2    1    4    4  501    0  0.14168544335E+02 -0.17623344810E+02 -0.17264693238E+02  0.28449948391E+02  0.00000000000E+00 0. -1.
         -1    1    4    4    0  501 -0.20874262914E+02 -0.16893342757E+02  0.52588692096E+02  0.59048204190E+02  0.00000000000E+00 0.  1.
          5    1    3    3  502    0  0.94117337607E+02 -0.73191021048E+00  0.18661283328E+03  0.20905752432E+03  0.47000000000E+01 0. -1.
         13    1    6    6    0    0 -0.60168087326E+01 -0.67039004202E+01 -0.26591516837E+02  0.28075844348E+02  0.00000000000E+00 0. -1.
        -14    1    6    6    0    0 -0.34230098049E+02 -0.60433846839E+01  0.59075242160E+02  0.68542733730E+02  0.00000000000E+00 0.  1.
         -5    1    5    5    0  503 -0.47164712247E+02  0.47995882882E+02  0.18542696306E+03  0.19731539090E+03  0.47000000000E+01 0.  1.
<mgrwt>
<rscale>  2 0.19711999E+03</rscale>
<asrwt>0</asrwt>
<pdfrwt beam="1">  1       21 0.79256703E-01 0.19726153E+03</pdfrwt>
<pdfrwt beam="2">  1       21 0.11587856E-01 0.19726153E+03</pdfrwt>
<totfact> 0.87565738E+04</totfact>
</mgrwt>
</event>
<event>
12    1  0.1441827E-001  0.1750545E+03  0.7546771E-02  0.1172792E+00
         21   -1    0    0  504  503  0.00000000000E+00  0.00000000000E+00  0.20286363508E+03  0.20286363508E+03  0.00000000000E+00 0. -1.
         21   -1    0    0  502  504 -0.00000000000E+00 -0.00000000000E+00 -0.30086546766E+03  0.30086546766E+03  0.00000000000E+00 0. -1.
          6    2    1    2  502    0  0.12186634874E+02  0.12593886021E+02 -0.22692725940E+03  0.28632200684E+03  0.17371583263E+03 0.  0.
         24    2    3    3    0    0  0.59339087698E+02  0.18259598014E+02 -0.21445245227E+03  0.23699488537E+03  0.79512144708E+02 0.  0.
         -6    2    1    2    0  503 -0.12186634874E+02 -0.12593886021E+02  0.12892542681E+03  0.21740709590E+03  0.17417508328E+03 0.  0.
        -24    2    5    5    0    0  0.89156578248E+01  0.58586613557E+02  0.84968368050E+02  0.13099943830E+03  0.80183221584E+02 0.  0.
          4    1    4    4  501    0 -0.14261686521E+02  0.67606155544E+01 -0.94385543570E+02  0.95696042029E+02  0.00000000000E+00 0. -1.
         -3    1    4    4    0  501  0.73600774219E+02  0.11498982459E+02 -0.12006690870E+03  0.14129884334E+03  0.00000000000E+00 0.  1.
          5    1    3    3  502    0 -0.47152452824E+02 -0.56657119926E+01 -0.12474807125E+02  0.49327121470E+02  0.47000000000E+01 0. -1.
         13    1    6    6    0    0 -0.77235266302E+00  0.61875576112E+02  0.19709468645E+02  0.64943410768E+02  0.00000000000E+00 0. -1.
        -14    1    6    6    0    0  0.96880104878E+01 -0.32889625554E+01  0.65258899405E+02  0.66056027534E+02  0.00000000000E+00 0.  1.
         -5    1    5    5    0  503 -0.21102292699E+02 -0.71180499578E+02  0.43957058763E+02  0.86407657603E+02  0.47000000000E+01 0.  1.
<mgrwt>
<rscale>  2 0.17494016E+03</rscale>
<asrwt>0</asrwt>
<pdfrwt beam="1">  1       21 0.31209790E-01 0.17505450E+03</pdfrwt>
<pdfrwt beam="2">  1       21 0.46286995E-01 0.17505450E+03</pdfrwt>
<totfact> 0.44491292E+04</totfact>
</mgrwt>
</event>
<event>
12    1  0.1441827E-001  0.1735643E+03  0.7546771E-02  0.1174565E+00
         21   -1    0    0  504  503  0.00000000000E+00  0.00000000000E+00  0.12876959879E+02  0.12876959879E+02  0.00000000000E+00 0.  1.
         21   -1    0    0  502  504 -0.00000000000E+00 -0.00000000000E+00 -0.25100228992E+04  0.25100228992E+04  0.00000000000E+00 0.  1.
          6    2    1    2  502    0  0.69788927619E+01  0.65410556500E+00 -0.16014628394E+04  0.16108407050E+04  0.17342265711E+03 0.  0.
         24    2    3    3    0    0  0.32686742355E+02 -0.42932811474E+02 -0.80736181101E+03  0.81511509513E+03  0.98325352762E+02 0.  0.
         -6    2    1    2    0  503 -0.69788927619E+01 -0.65410556500E+00 -0.89568309996E+03  0.91205915415E+03  0.17191437496E+03 0.  0.
        -24    2    5    5    0    0 -0.48466577890E+02  0.14556968698E+02 -0.81256860118E+03  0.81781099924E+03  0.77370435803E+02 0.  0.
          4    1    4    4  501    0  0.62683041708E+02 -0.29124861090E+02 -0.36258978023E+03  0.36911891035E+03  0.00000000000E+00 0. -1.
         -3    1    4    4    0  501 -0.29996299353E+02 -0.13807950384E+02 -0.44477203078E+03  0.44599618478E+03  0.00000000000E+00 0.  1.
          5    1    3    3  502    0 -0.25707849593E+02  0.43586917039E+02 -0.79410102839E+03  0.79572560985E+03  0.47000000000E+01 0. -1.
         11    1    6    6    0    0 -0.50456323573E+02  0.14600271208E+02 -0.26070459907E+03  0.26594340842E+03  0.00000000000E+00 0. -1.
        -12    1    6    6    0    0  0.19897456828E+01 -0.43302510225E-01 -0.55186400212E+03  0.55186759082E+03  0.00000000000E+00 0.  1.
         -5    1    5    5    0  503  0.41487685128E+02 -0.15211074263E+02 -0.83114498771E+02  0.94248154907E+02  0.47000000000E+01 0.  1.
<mgrwt>
<rscale>  2 0.17318626E+03</rscale>
<asrwt>0</asrwt>
<pdfrwt beam="1">  1       21 0.19810712E-02 0.17356426E+03</pdfrwt>
<pdfrwt beam="2">  1       21 0.38615728E+00 0.17356426E+03</pdfrwt>
<totfact> 0.13590904E+04</totfact>
</mgrwt>
</event>
<event>
12    1  0.1441827E-001  0.2054817E+03  0.7546771E-02  0.1145235E+00
         21   -1    0    0  504  503  0.00000000000E+00  0.00000000000E+00  0.31607652898E+02  0.31607652898E+02  0.00000000000E+00 0.  1.
         21   -1    0    0  502  504 -0.00000000000E+00 -0.00000000000E+00 -0.14855559869E+04  0.14855559869E+04  0.00000000000E+00 0.  1.
          6    2    1    2  502    0  0.77777383914E+02  0.78180422906E+02 -0.96913346505E+03  0.99067774793E+03  0.17338173832E+03 0.  0.
         24    2    3    3    0    0  0.56721698008E+01  0.38536757128E+02 -0.77233982061E+03  0.77732215126E+03  0.78763399958E+02 0.  0.
         -6    2    1    2    0  503 -0.77777383914E+02 -0.78180422906E+02 -0.48481486899E+03  0.52648589191E+03  0.17314859864E+03 0.  0.
        -24    2    5    5    0    0  0.68104542922E+01 -0.41373014056E+02 -0.12524938704E+03  0.15524565496E+03  0.81582448179E+02 0.  0.
          2    1    4    4  501    0 -0.12516729069E+02 -0.21476536182E+02 -0.19133953849E+03  0.19294747757E+03  0.00000000000E+00 0. -1.
         -1    1    4    4    0  501  0.18188898869E+02  0.60013293311E+02 -0.58100028212E+03  0.58437467368E+03  0.00000000000E+00 0.  1.
          5    1    3    3  502    0  0.72105214114E+02  0.39643665778E+02 -0.19679364444E+03  0.21335559667E+03  0.47000000000E+01 0. -1.
         11    1    6    6    0    0 -0.21109276662E+02  0.13952979812E+02 -0.60701062467E+02  0.65764018973E+02  0.00000000000E+00 0. -1.
        -12    1    6    6    0    0  0.27919730955E+02 -0.55325993868E+02 -0.64548324569E+02  0.89481635986E+02  0.00000000000E+00 0.  1.
         -5    1    5    5    0  503 -0.84587838207E+02 -0.36807408850E+02 -0.35956548195E+03  0.37124023695E+03  0.47000000000E+01 0.  1.
<mgrwt>
<rscale>  2 0.20543251E+03</rscale>
<asrwt>0</asrwt>
<pdfrwt beam="1">  1       21 0.48627167E-02 0.20548170E+03</pdfrwt>
<pdfrwt beam="2">  1       21 0.22854703E+00 0.20548170E+03</pdfrwt>
<totfact> 0.24911360E+04</totfact>
</mgrwt>
</event>
<event>
12    1  0.1441827E-001  0.2362736E+03  0.7546771E-02  0.1122937E+00
         21   -1    0    0  504  503  0.00000000000E+00  0.00000000000E+00  0.23222351154E+03  0.23222351154E+03  0.00000000000E+00 0. -1.
         21   -1    0    0  502  504 -0.00000000000E+00 -0.00000000000E+00 -0.23669016606E+03  0.23669016606E+03  0.00000000000E+00 0.  1.
          6    2    1    2  502    0 -0.11752737836E+03 -0.10947650046E+03 -0.60070394658E+01  0.23634994474E+03  0.17328422618E+03 0.  0.
         24    2    3    3    0    0 -0.13428262371E+03 -0.12518372268E+03 -0.32109025148E+02  0.20126634838E+03  0.75989249509E+02 0.  0.
         -6    2    1    2    0  503  0.11752737836E+03  0.10947650046E+03  0.15403849498E+01  0.23256373286E+03  0.16818361466E+03 0.  0.
        -24    2    5    5    0    0  0.32104049499E+02 -0.72013711655E+01  0.40509433918E+01  0.87859677137E+02  0.81365735930E+02 0.  0.
          4    1    4    4  501    0 -0.11818453215E+03 -0.62055896171E+02 -0.19361923520E+02  0.13488291949E+03  0.00000000000E+00 0. -1.
         -3    1    4    4    0  501 -0.16098091567E+02 -0.63127826505E+02 -0.12747101628E+02  0.66383428890E+02  0.00000000000E+00 0.  1.
          5    1    3    3  502    0  0.16755245359E+02  0.15707222221E+02  0.26101985682E+02  0.35083596359E+02  0.47000000000E+01 0. -1.
         11    1    6    6    0    0 -0.44274875745E+01  0.33913895690E+00  0.37497155477E+02  0.37759162203E+02  0.00000000000E+00 0. -1.
        -12    1    6    6    0    0  0.36531537073E+02 -0.75405101224E+01 -0.33446212085E+02  0.50100514934E+02  0.00000000000E+00 0.  1.
         -5    1    5    5    0  503  0.85423328857E+02  0.11667787162E+03 -0.25105584420E+01  0.14470405572E+03  0.47000000000E+01 0.  1.
<mgrwt>
<rscale>  2 0.23533933E+03</rscale>
<asrwt>0</asrwt>
<pdfrwt beam="1">  1       21 0.35726694E-01 0.23627360E+03</pdfrwt>
<pdfrwt beam="2">  1       21 0.36413872E-01 0.23627360E+03</pdfrwt>
<totfact> 0.53880250E+04</totfact>
</mgrwt>
</event>
<event>
12    1  0.1441827E-001  0.1760700E+03  0.7546771E-02  0.1172046E+00
         21   -1    0    0  504  503  0.00000000000E+00  0.00000000000E+00  0.88388006909E+03  0.88388006909E+03  0.00000000000E+00 0. -1.
         21   -1    0    0  502  504 -0.00000000000E+00 -0.00000000000E+00 -0.47977227780E+02  0.47977227780E+02  0.00000000000E+00 0. -1.
          6    2    1    2  502    0 -0.21899510786E+02  0.64418424983E+01  0.17480003587E+03  0.24810419310E+03  0.17458394024E+03 0.  0.
         24    2    3    3    0    0  0.39486637242E+02  0.40615554902E+02  0.13789384677E+03  0.16860413913E+03  0.78764363338E+02 0.  0.
         -6    2    1    2    0  503  0.21899510786E+02 -0.64418424983E+01  0.66110280544E+03  0.68375310376E+03  0.17303266060E+03 0.  0.
        -24    2    5    5    0    0 -0.23332470653E+02  0.48889707482E+02  0.28391925158E+03  0.29982988764E+03  0.79707041248E+02 0.  0.
          4    1    4    4  501    0  0.30979754651E+02  0.32333624616E+02  0.18222501040E+02  0.48345299908E+02  0.00000000000E+00 0. -1.
         -3    1    4    4    0  501  0.85068825912E+01  0.82819302863E+01  0.11967134573E+03  0.12025883922E+03  0.00000000000E+00 0.  1.
          5    1    3    3  502    0 -0.61386148028E+02 -0.34173712404E+02  0.36906189094E+02  0.79500053979E+02  0.47000000000E+01 0. -1.
         13    1    6    6    0    0  0.27392317294E+02  0.37183969990E+01  0.10071767740E+03  0.10444240549E+03  0.00000000000E+00 0. -1.
        -14    1    6    6    0    0 -0.50724787948E+02  0.45171310484E+02  0.18320157417E+03  0.19538748216E+03  0.00000000000E+00 0.  1.
         -5    1    5    5    0  503  0.45231981440E+02 -0.55331549981E+02  0.37718355387E+03  0.38392321612E+03  0.47000000000E+01 0.  1.
<mgrwt>
<rscale>  2 0.17568420E+03</rscale>
<asrwt>0</asrwt>
<pdfrwt beam="1">  1       21 0.13598154E+00 0.17606998E+03</pdfrwt>
<pdfrwt beam="2">  1       21 0.73811126E-02 0.17606998E+03</pdfrwt>
<totfact> 0.53699932E+04</totfact>
</mgrwt>
</event>
<event>
12    1  0.1441827E-001  0.1891778E+03  0.7546771E-02  0.1160404E+00
         21   -1    0    0  504  503  0.00000000000E+00  0.00000000000E+00  0.33670023163E+03  0.33670023163E+03  0.00000000000E+00 0.  1.
         21   -1    0    0  502  504 -0.00000000000E+00 -0.00000000000E+00 -0.10455387318E+03  0.10455387318E+03  0.00000000000E+00 0.  1.
          6    2    1    2  502    0 -0.28470898743E+02  0.55261327027E+02  0.13780224800E+03  0.22985625175E+03  0.17314742440E+03 0.  0.
         24    2    3    3    0    0  0.52413444849E+01 -0.31714553773E+02  0.81879061418E+02  0.12099481697E+03  0.83079964026E+02 0.  0.
         -6    2    1    2    0  503  0.28470898743E+02 -0.55261327027E+02  0.94344110447E+02  0.21139785306E+03  0.17867242306E+03 0.  0.
        -24    2    5    5    0    0  0.83818448039E+02 -0.27579360255E+02  0.88734731188E+02  0.14908254489E+03  0.81028385931E+02 0.  0.
          4    1    4    4  501    0  0.22546513742E+02 -0.30285566508E+02  0.47517840330E+00  0.37759589711E+02  0.00000000000E+00 0. -1.
         -3    1    4    4    0  501 -0.17305169257E+02 -0.14289872653E+01  0.81403883014E+02  0.83235227262E+02  0.00000000000E+00 0.  1.
          5    1    3    3  502    0 -0.33712243228E+02  0.86975880800E+02  0.55923186587E+02  0.10886143478E+03  0.47000000000E+01 0. -1.
         13    1    6    6    0    0 -0.97169677344E+01 -0.23963483309E+02  0.23941295122E+02  0.35239943337E+02  0.00000000000E+00 0. -1.
        -14    1    6    6    0    0  0.93535415774E+02 -0.36158769455E+01  0.64793436066E+02  0.11384260155E+03  0.00000000000E+00 0.  1.
         -5    1    5    5    0  503 -0.55347549296E+02 -0.27681966772E+02  0.56093792591E+01  0.62315308177E+02  0.47000000000E+01 0.  1.
<mgrwt>
<rscale>  2 0.18786183E+03</rscale>
<asrwt>0</asrwt>
<pdfrwt beam="1">  1       21 0.51800035E-01 0.18917780E+03</pdfrwt>
<pdfrwt beam="2">  1       21 0.16085211E-01 0.18917780E+03</pdfrwt>
<totfact> 0.12235060E+05</totfact>
</mgrwt>
</event>
<event>
12    1  0.1441827E-001  0.1803160E+03  0.7546771E-02  0.1167814E+00
         21   -1    0    0  504  503  0.00000000000E+00  0.00000000000E+00  0.90079776733E+02  0.90079776733E+02  0.00000000000E+00 0. -1.
         21   -1    0    0  502  504 -0.00000000000E+00 -0.00000000000E+00 -0.59628928439E+03  0.59628928439E+03  0.00000000000E+00 0. -1.
          6    2    1    2  502    0  0.46335020618E+02 -0.11894478970E+02 -0.46934349630E+03  0.50232294901E+03  0.17250105744E+03 0.  0.
         24    2    3    3    0    0  0.29264231176E+02 -0.40936236441E+02 -0.12638230162E+03  0.15767921037E+03  0.79737547863E+02 0.  0.
         -6    2    1    2    0  503 -0.46335020618E+02  0.11894478970E+02 -0.36866011361E+02  0.18404611212E+03  0.17385469745E+03 0.  0.
        -24    2    5    5    0    0 -0.16344952875E+02 -0.36651475962E+02  0.30818545716E+02  0.95392837106E+02  0.80867313771E+02 0.  0.
          4    1    4    4  501    0  0.43974862119E+02 -0.14565553139E+02 -0.26578747819E+02  0.53407618111E+02  0.00000000000E+00 0. -1.
         -3    1    4    4    0  501 -0.14710630943E+02 -0.26370683301E+02 -0.99803553804E+02  0.10427159226E+03  0.00000000000E+00 0.  1.
          5    1    3    3  502    0  0.17070789443E+02  0.29041757471E+02 -0.34296119467E+03  0.34464373864E+03  0.47000000000E+01 0. -1.
         13    1    6    6    0    0  0.26352503683E+02 -0.35650627382E+02  0.30244394210E+01  0.44436121758E+02  0.00000000000E+00 0. -1.
        -14    1    6    6    0    0 -0.42697456558E+02 -0.10008485805E+01  0.27794106295E+02  0.50956715349E+02  0.00000000000E+00 0.  1.
         -5    1    5    5    0  503 -0.29990067743E+02  0.48545954932E+02 -0.67684557077E+02  0.88653275012E+02  0.47000000000E+01 0.  1.
<mgrwt>
<rscale>  2 0.17998894E+03</rscale>
<asrwt>0</asrwt>
<pdfrwt beam="1">  1       21 0.13858427E-01 0.18031602E+03</pdfrwt>
<pdfrwt beam="2">  1       21 0.91736812E-01 0.18031602E+03</pdfrwt>
<totfact> 0.45801314E+04</totfact>
</mgrwt>
</event>
<event>
12    1  0.1441827E-001  0.1927326E+03  0.7546771E-02  0.1156083E+00
         21   -1    0    0  504  503  0.00000000000E+00  0.00000000000E+00  0.15384364318E+03  0.15384364318E+03  0.00000000000E+00 0. -1.
         21   -1    0    0  502  504 -0.00000000000E+00 -0.00000000000E+00 -0.31176911425E+03  0.31176911425E+03  0.00000000000E+00 0. -1.
          6    2    1    2  502    0 -0.25961721820E+01 -0.88955162787E+02 -0.18985439001E+03  0.27053752249E+03  0.17095642887E+03 0.  0.
         24    2    3    3    0    0  0.29203658890E+02  0.11666399559E+01 -0.12596990874E+03  0.15548759623E+03  0.86335160462E+02 0.  0.
         -6    2    1    2    0  503  0.25961721820E+01  0.88955162787E+02  0.31928918943E+02  0.19507523494E+03  0.17063156310E+03 0.  0.
        -24    2    5    5    0    0 -0.41816820507E+02  0.27141288735E+02 -0.28515566125E+02  0.97765961386E+02  0.79118579757E+02 0.  0.
          2    1    4    4  501    0  0.14714119689E+02  0.51646607272E+00  0.10604852101E+02  0.18144832419E+02  0.00000000000E+00 0. -1.
         -1    1    4    4    0  501  0.14489539202E+02  0.65017388318E+00 -0.13657476084E+03  0.13734276381E+03  0.00000000000E+00 0.  1.
          5    1    3    3  502    0 -0.31799831073E+02 -0.90121802743E+02 -0.63884481275E+02  0.11504992626E+03  0.47000000000E+01 0. -1.
         13    1    6    6    0    0 -0.17170899824E+02  0.26113487787E+02  0.24224622134E+02  0.39542209886E+02  0.00000000000E+00 0. -1.
        -14    1    6    6    0    0 -0.24645920683E+02  0.10278009482E+01 -0.52740188259E+02  0.58223751499E+02  0.00000000000E+00 0.  1.
         -5    1    5    5    0  503  0.44412992689E+02  0.61813874052E+02  0.60444485068E+02  0.97309273556E+02  0.47000000000E+01 0.  1.
<mgrwt>
<rscale>  2 0.19266055E+03</rscale>
<asrwt>0</asrwt>
<pdfrwt beam="1">  1       21 0.23668253E-01 0.19273262E+03</pdfrwt>
<pdfrwt beam="2">  1       21 0.47964479E-01 0.19273262E+03</pdfrwt>
<totfact> 0.69837594E+04</totfact>
</mgrwt>
</event>
<event>
12    1  0.1441827E-001  0.1924907E+03  0.7546771E-02  0.1159671E+00
         21   -1    0    0  504  503  0.00000000000E+00  0.00000000000E+00  0.14446257201E+04  0.14446257201E+04  0.00000000000E+00 0. -1.
         21   -1    0    0  502  504 -0.00000000000E+00 -0.00000000000E+00 -0.88296970025E+02  0.88296970025E+02  0.00000000000E+00 0. -1.
          6    2    1    2  502    0  0.17504219483E+02 -0.34944714841E+02  0.30075484284E+02  0.19482612684E+03  0.18848117717E+03 0.  0.
         24    2    3    3    0    0 -0.14079132004E+02 -0.87463605778E+02 -0.25360893127E+02  0.11205521445E+03  0.63758073153E+02 0.  0.
         -6    2    1    2    0  503 -0.17504219483E+02  0.34944714841E+02  0.13262532658E+04  0.13380965633E+04  0.17328345816E+03 0.  0.
        -24    2    5    5    0    0 -0.74630413854E+02  0.40650337570E+02  0.76164555414E+03  0.77055809388E+03  0.80210206792E+02 0.  0.
          2    1    4    4  501    0 -0.19578389122E+02 -0.72171599207E+02 -0.44443918840E+02  0.86990315407E+02  0.00000000000E+00 0. -1.
         -1    1    4    4    0  501  0.54992571179E+01 -0.15292006571E+02  0.19083025713E+02  0.25064899045E+02  0.00000000000E+00 0.  1.
          5    1    3    3  502    0  0.31583351487E+02  0.52518890936E+02  0.55436377411E+02  0.82770912384E+02  0.47000000000E+01 0. -1.
         13    1    6    6    0    0 -0.36549853204E+02  0.51647116505E+02  0.62742857149E+03  0.63061075850E+03  0.00000000000E+00 0. -1.
        -14    1    6    6    0    0 -0.38080560650E+02 -0.10996778935E+02  0.13421698265E+03  0.13994733538E+03  0.00000000000E+00 0.  1.
         -5    1    5    5    0  503  0.57126194371E+02 -0.57056227291E+01  0.56460771164E+03  0.56753846940E+03  0.47000000000E+01 0.  1.
<mgrwt>
<rscale>  2 0.18866458E+03</rscale>
<asrwt>0</asrwt>
<pdfrwt beam="1">  1       21 0.22225009E+00 0.19249074E+03</pdfrwt>
<pdfrwt beam="2">  1       21 0.13584150E-01 0.19249074E+03</pdfrwt>
<totfact> 0.45770450E+03</totfact>
</mgrwt>
</event>
<event>
12    1  0.1441827E-001  0.2092147E+03  0.7546771E-02  0.1142237E+00
         21   -1    0    0  504  503  0.00000000000E+00  0.00000000000E+00  0.21772935511E+03  0.21772935511E+03  0.00000000000E+00 0. -1.
         21   -1    0    0  502  504 -0.00000000000E+00 -0.00000000000E+00 -0.30049800321E+03  0.30049800321E+03  0.00000000000E+00 0. -1.
          6    2    1    2  502    0  0.16872751300E+02 -0.11663284601E+03 -0.19061470093E+03  0.28285196653E+03  0.17257856256E+03 0.  0.
         24    2    3    3    0    0 -0.22214879708E+02  0.20786809426E+01 -0.71200114137E+02  0.10992943165E+03  0.80729188621E+02 0.  0.
         -6    2    1    2    0  503 -0.16872751300E+02  0.11663284601E+03  0.10784605284E+03  0.23537539178E+03  0.17286669269E+03 0.  0.
        -24    2    5    5    0    0 -0.73334633144E+02  0.50023341195E+02  0.19624266587E+02  0.11115806690E+03  0.63958587496E+02 0.  0.
          2    1    4    4  501    0 -0.49225173341E+02 -0.14768209816E+02 -0.37861373406E+02  0.63833387094E+02  0.00000000000E+00 0. -1.
         -1    1    4    4    0  501  0.27010293634E+02  0.16846890759E+02 -0.33338740731E+02  0.46096044558E+02  0.00000000000E+00 0.  1.
          5    1    3    3  502    0  0.39087631007E+02 -0.11871152695E+03 -0.11941458680E+03  0.17292253488E+03  0.47000000000E+01 0. -1.
         11    1    6    6    0    0 -0.28460809683E+02  0.10883740551E+02  0.38124861539E+02  0.48805517758E+02  0.00000000000E+00 0. -1.
        -12    1    6    6    0    0 -0.44873823461E+02  0.39139600644E+02 -0.18500594952E+02  0.62352549139E+02  0.00000000000E+00 0.  1.
         -5    1    5    5    0  503  0.56461881844E+02  0.66609504813E+02  0.88221786249E+02  0.12421732489E+03  0.47000000000E+01 0.  1.
<mgrwt>
<rscale>  2 0.20915520E+03</rscale>
<asrwt>0</asrwt>
<pdfrwt beam="1">  1       21 0.33496824E-01 0.20921473E+03</pdfrwt>
<pdfrwt beam="2">  1       21 0.46230461E-01 0.20921473E+03</pdfrwt>
<totfact> 0.38151742E+04</totfact>
</mgrwt>
</event>
<event>
12    1  0.1441827E-001  0.3167551E+03  0.7546771E-02  0.1077229E+00
         21   -1    0    0  504  503  0.00000000000E+00  0.00000000000E+00  0.10265918686E+04  0.10265918686E+04  0.00000000000E+00 0.  1.
         21   -1    0    0  502  504 -0.00000000000E+00 -0.00000000000E+00 -0.34558387054E+03  0.34558387054E+03  0.00000000000E+00 0. -1.
          6    2    1    2  502    0 -0.26465325841E+03  0.13959349684E+02 -0.24066124401E+03  0.39780855584E+03  0.17348660496E+03 0.  0.
         24    2    3    3    0    0 -0.11238509006E+03 -0.38013736318E+02 -0.59904782742E+02  0.15577181265E+03  0.81245442982E+02 0.  0.
         -6    2    1    2    0  503  0.26465325841E+03 -0.13959349684E+02  0.92166924202E+03  0.97436718326E+03  0.17228176192E+03 0.  0.
        -24    2    5    5    0    0  0.85864528444E+02 -0.35933334376E+02  0.51897793837E+03  0.53319755374E+03  0.79357476282E+02 0.  0.
          4    1    4    4  501    0 -0.40671096827E+02 -0.35289754304E+02 -0.64303291835E+02  0.83871438623E+02  0.00000000000E+00 0. -1.
         -3    1    4    4    0  501 -0.71713993234E+02 -0.27239820142E+01  0.43985090929E+01  0.71900374031E+02  0.00000000000E+00 0.  1.
          5    1    3    3  502    0 -0.15226816835E+03  0.51973086002E+02 -0.18075646127E+03  0.24203674318E+03  0.47000000000E+01 0. -1.
         11    1    6    6    0    0  0.26141779023E+02 -0.71903368392E+01  0.32948203232E+02  0.42669399464E+02  0.00000000000E+00 0. -1.
        -12    1    6    6    0    0  0.59722749421E+02 -0.28742997537E+02  0.48602973513E+03  0.49052815428E+03  0.00000000000E+00 0.  1.
         -5    1    5    5    0  503  0.17878872997E+03  0.21973984692E+02  0.40269130365E+03  0.44116962951E+03  0.47000000000E+01 0.  1.
<mgrwt>
<rscale>  2 0.31659043E+03</rscale>
<asrwt>0</asrwt>
<pdfrwt beam="1">  1       21 0.15793721E+00 0.31675513E+03</pdfrwt>
<pdfrwt beam="2">  1       21 0.53166750E-01 0.31675513E+03</pdfrwt>
<totfact> 0.78642503E+02</totfact>
</mgrwt>
</event>
<event>
12    1  0.1441827E-001  0.1778485E+03  0.7546771E-02  0.1170277E+00
         21   -1    0    0  504  503  0.00000000000E+00  0.00000000000E+00  0.67205976987E+03  0.67205976987E+03  0.00000000000E+00 0. -1.
         21   -1    0    0  502  504 -0.00000000000E+00 -0.00000000000E+00 -0.19716070817E+03  0.19716070817E+03  0.00000000000E+00 0. -1.
          6    2    1    2  502    0  0.32072018258E+02  0.15001248626E+02 -0.14202107016E+03  0.22759626916E+03  0.17428834026E+03 0.  0.
         24    2    3    3    0    0  0.82104369647E+02  0.26231179211E+01 -0.58633270508E+02  0.12945316224E+03  0.81069430373E+02 0.  0.
         -6    2    1    2    0  503 -0.32072018258E+02 -0.15001248626E+02  0.61692013185E+03  0.64162420888E+03  0.17273541770E+03 0.  0.
        -24    2    5    5    0    0  0.44399819100E+01 -0.43332819658E+02  0.56475815627E+03  0.57177604663E+03  0.77965541932E+02 0.  0.
          4    1    4    4  501    0  0.65720521691E+02  0.36395782400E+02 -0.51918994748E+02  0.91320435629E+02  0.00000000000E+00 0. -1.
         -3    1    4    4    0  501  0.16383847956E+02 -0.33772664479E+02 -0.67142757597E+01  0.38132726612E+02  0.00000000000E+00 0.  1.
          5    1    3    3  502    0 -0.50032351389E+02  0.12378130705E+02 -0.83387799649E+02  0.98143106918E+02  0.47000000000E+01 0. -1.
         13    1    6    6    0    0  0.36156837421E+02 -0.43026772410E+02  0.31028748261E+03  0.31533623627E+03  0.00000000000E+00 0. -1.
        -14    1    6    6    0    0 -0.31716855512E+02 -0.30604724829E+00  0.25447067366E+03  0.25643981037E+03  0.00000000000E+00 0.  1.
         -5    1    5    5    0  503 -0.36512000168E+02  0.28331571032E+02  0.52161975580E+02  0.69848162251E+02  0.47000000000E+01 0.  1.
<mgrwt>
<rscale>  2 0.17746685E+03</rscale>
<asrwt>0</asrwt>
<pdfrwt beam="1">  1       21 0.10339381E+00 0.17784847E+03</pdfrwt>
<pdfrwt beam="2">  1       21 0.30332417E-01 0.17784847E+03</pdfrwt>
<totfact> 0.79950232E+03</totfact>
</mgrwt>
</event>
<event>
12    1  0.1441827E-001  0.2027710E+03  0.7546771E-02  0.1148017E+00
         21   -1    0    0  504  503  0.00000000000E+00  0.00000000000E+00  0.30805536929E+03  0.30805536929E+03  0.00000000000E+00 0. -1.
         21   -1    0    0  502  504 -0.00000000000E+00 -0.00000000000E+00 -0.13959946518E+03  0.13959946518E+03  0.00000000000E+00 0. -1.
          6    2    1    2  502    0 -0.10376239138E+03  0.44994405822E+01  0.31209833358E+02  0.20515881292E+03  0.17415282367E+03 0.  0.
         24    2    3    3    0    0 -0.51535828803E+01  0.49956375954E+02  0.19390105732E+02  0.95834405548E+02  0.79284665424E+02 0.  0.
         -6    2    1    2    0  503  0.10376239138E+03 -0.44994405822E+01  0.13724607075E+03  0.24249602154E+03  0.17082434749E+03 0.  0.
        -24    2    5    5    0    0  0.35531874151E+01 -0.48106139069E+02  0.72868594628E+02  0.11557093283E+03  0.75630567072E+02 0.  0.
          2    1    4    4  501    0 -0.13005008413E+02  0.55522775214E+02  0.42289193865E+02  0.70994962701E+02  0.00000000000E+00 0. -1.
         -1    1    4    4    0  501  0.78514255326E+01 -0.55663992600E+01 -0.22899088132E+02  0.24839442846E+02  0.00000000000E+00 0.  1.
          5    1    3    3  502    0 -0.98608808498E+02 -0.45456935372E+02  0.11819727626E+02  0.10932440737E+03  0.47000000000E+01 0. -1.
         11    1    6    6    0    0  0.30147495677E+02  0.19619343912E+01  0.12327866281E+02  0.32629694593E+02  0.00000000000E+00 0. -1.
        -12    1    6    6    0    0 -0.26594308262E+02 -0.50068073460E+02  0.60540728347E+02  0.82941238240E+02  0.00000000000E+00 0.  1.
         -5    1    5    5    0  503  0.10020920396E+03  0.43606698487E+02  0.64377476123E+02  0.12692508871E+03  0.47000000000E+01 0.  1.
<mgrwt>
<rscale>  2 0.20205437E+03</rscale>
<asrwt>0</asrwt>
<pdfrwt beam="1">  1       21 0.47393134E-01 0.20277102E+03</pdfrwt>
<pdfrwt beam="2">  1       21 0.21476841E-01 0.20277102E+03</pdfrwt>
<totfact> 0.85647936E+04</totfact>
</mgrwt>
</event>
<event>
12    1  0.1441827E-001  0.1936300E+03  0.7546771E-02  0.1156214E+00
         21   -1    0    0  504  503  0.00000000000E+00  0.00000000000E+00  0.35167390330E+02  0.35167390330E+02  0.00000000000E+00 0. -1.
         21   -1    0    0  502  504 -0.00000000000E+00 -0.00000000000E+00 -0.11335890460E+04  0.11335890460E+04  0.00000000000E+00 0. -1.
          6    2    1    2  502    0 -0.65955256580E+02 -0.52745748180E+02 -0.72125928444E+03  0.74679817569E+03  0.17424221646E+03 0.  0.
         24    2    3    3    0    0 -0.43543108637E+02  0.38064926566E+02 -0.41124518767E+03  0.42294680049E+03  0.80102750990E+02 0.  0.
         -6    2    1    2    0  503  0.65955256580E+02  0.52745748180E+02 -0.37716237124E+03  0.42195826066E+03  0.16930773648E+03 0.  0.
        -24    2    5    5    0    0 -0.17170972721E+02  0.52427534457E+02 -0.17727426688E+03  0.20542323919E+03  0.87915031854E+02 0.  0.
          4    1    4    4  501    0 -0.25835617625E+02 -0.19807207093E+01 -0.32679222543E+03  0.32781787779E+03  0.00000000000E+00 0. -1.
         -3    1    4    4    0  501 -0.17707491012E+02  0.40045647275E+02 -0.84452962235E+02  0.95128922699E+02  0.00000000000E+00 0.  1.
          5    1    3    3  502    0 -0.22412147943E+02 -0.90810674746E+02 -0.31001409677E+03  0.32385137520E+03  0.47000000000E+01 0. -1.
         13    1    6    6    0    0  0.30095064810E+02  0.21258152090E+02 -0.11727790265E+03  0.12292977022E+03  0.00000000000E+00 0. -1.
        -14    1    6    6    0    0 -0.47266037532E+02  0.31169382367E+02 -0.59996364231E+02  0.82493468966E+02  0.00000000000E+00 0.  1.
         -5    1    5    5    0  503  0.83126229301E+02  0.31821372347E+00 -0.19988810436E+03  0.21653502147E+03  0.47000000000E+01 0.  1.
<mgrwt>
<rscale>  2 0.19251329E+03</rscale>
<asrwt>0</asrwt>
<pdfrwt beam="1">  1       21 0.54103687E-02 0.19362996E+03</pdfrwt>
<pdfrwt beam="2">  1       21 0.17439829E+00 0.19362996E+03</pdfrwt>
<totfact> 0.46748069E+04</totfact>
</mgrwt>
</event>
<event>
12    1  0.1441827E-001  0.2010808E+03  0.7546771E-02  0.1149024E+00
         21   -1    0    0  504  503  0.00000000000E+00  0.00000000000E+00  0.45891692691E+02  0.45891692691E+02  0.00000000000E+00 0. -1.
         21   -1    0    0  502  504 -0.00000000000E+00 -0.00000000000E+00 -0.16534982999E+04  0.16534982999E+04  0.00000000000E+00 0. -1.
          6    2    1    2  502    0 -0.99968182613E+02  0.15026025099E+02 -0.13870534011E+04  0.14015529396E+04  0.17382199534E+03 0.  0.
         24    2    3    3    0    0 -0.38813904050E+02 -0.33675318780E+02 -0.10938691005E+04  0.10980882945E+04  0.81288051783E+02 0.  0.
         -6    2    1    2    0  503  0.99968182613E+02 -0.15026025099E+02 -0.22055320608E+03  0.29783705295E+03  0.17275350773E+03 0.  0.
        -24    2    5    5    0    0  0.12177782404E+03  0.20035515387E+01 -0.10641800891E+03  0.18030152567E+03  0.79686855201E+02 0.  0.
          4    1    4    4  501    0 -0.37788398536E+02 -0.17892051997E+02 -0.10587117064E+04  0.10595369583E+04  0.00000000000E+00 0. -1.
         -3    1    4    4    0  501 -0.10255055141E+01 -0.15783266783E+02 -0.35157394038E+02  0.38551336261E+02  0.00000000000E+00 0.  1.
          5    1    3    3  502    0 -0.61154278562E+02  0.48701343880E+02 -0.29318430063E+03  0.30346464508E+03  0.47000000000E+01 0. -1.
         11    1    6    6    0    0  0.47818253600E+02 -0.10474190992E+02  0.13866266754E+01  0.48971591641E+02  0.00000000000E+00 0. -1.
        -12    1    6    6    0    0  0.73959570443E+02  0.12477742531E+02 -0.10780463559E+03  0.13132993403E+03  0.00000000000E+00 0.  1.
         -5    1    5    5    0  503 -0.21809641431E+02 -0.17029576638E+02 -0.11413519717E+03  0.11753552728E+03  0.47000000000E+01 0.  1.
<mgrwt>
<rscale>  2 0.20084971E+03</rscale>
<asrwt>0</asrwt>
<pdfrwt beam="1">  1       21 0.70602615E-02 0.20108084E+03</pdfrwt>
<pdfrwt beam="2">  1       21 0.25438431E+00 0.20108084E+03</pdfrwt>
<totfact> 0.92646403E+03</totfact>
</mgrwt>
</event>
<event>
12    1  0.1441827E-001  0.2622111E+03  0.7546771E-02  0.1105860E+00
         21   -1    0    0  504  503  0.00000000000E+00  0.00000000000E+00  0.12604324831E+03  0.12604324831E+03  0.00000000000E+00 0.  1.
         21   -1    0    0  502  504 -0.00000000000E+00 -0.00000000000E+00 -0.56977111395E+03  0.56977111395E+03  0.00000000000E+00 0. -1.
          6    2    1    2  502    0  0.46112753041E+02  0.19162296903E+03 -0.29437714076E+03  0.39405240559E+03  0.17255042480E+03 0.  0.
         24    2    3    3    0    0  0.32397080896E+02  0.20210386517E+03 -0.19398691542E+03  0.29208056541E+03  0.76056493279E+02 0.  0.
         -6    2    1    2    0  503 -0.46112753041E+02 -0.19162296903E+03 -0.14935072488E+03  0.30176195667E+03  0.17294187238E+03 0.  0.
        -24    2    5    5    0    0 -0.10995474072E+02 -0.13257934883E+03 -0.17017057817E+03  0.22982497968E+03  0.78506760375E+02 0.  0.
          2    1    4    4  501    0  0.40830873335E+01  0.12244657599E+03 -0.15866002750E+03  0.20045657859E+03  0.00000000000E+00 0. -1.
         -1    1    4    4    0  501  0.28313993562E+02  0.79657289180E+02 -0.35326887921E+02  0.91623986822E+02  0.00000000000E+00 0.  1.
          5    1    3    3  502    0  0.13715672145E+02 -0.10480896142E+02 -0.10039022534E+03  0.10197184018E+03  0.47000000000E+01 0. -1.
         13    1    6    6    0    0 -0.40833668952E+02 -0.50286093977E+02 -0.91660279917E+02  0.11223941679E+03  0.00000000000E+00 0. -1.
        -14    1    6    6    0    0  0.29838194880E+02 -0.82293254852E+02 -0.78510298251E+02  0.11758556289E+03  0.00000000000E+00 0.  1.
         -5    1    5    5    0  503 -0.35117278969E+02 -0.59043620196E+02  0.20819853288E+02  0.71936976994E+02  0.47000000000E+01 0.  1.
<mgrwt>
<rscale>  2 0.26214653E+03</rscale>
<asrwt>0</asrwt>
<pdfrwt beam="1">  1       21 0.19391269E-01 0.26221106E+03</pdfrwt>
<pdfrwt beam="2">  1       21 0.87657094E-01 0.26221106E+03</pdfrwt>
<totfact> 0.26344384E+04</totfact>
</mgrwt>
</event>
<event>
12    1  0.1441827E-001  0.4905955E+03  0.7546771E-02  0.1016347E+00
         21   -1    0    0  504  503  0.00000000000E+00  0.00000000000E+00  0.20848780771E+03  0.20848780771E+03  0.00000000000E+00 0.  1.
         21   -1    0    0  502  504 -0.00000000000E+00 -0.00000000000E+00 -0.11515646769E+04  0.11515646769E+04  0.00000000000E+00 0. -1.
          6    2    1    2  502    0 -0.11656844897E+03 -0.44433601079E+03 -0.46688977166E+03  0.67725176668E+03  0.17222428054E+03 0.  0.
         24    2    3    3    0    0 -0.36172016449E+02 -0.34047715595E+03 -0.27638432040E+03  0.44581135307E+03  0.71598613559E+02 0.  0.
         -6    2    1    2    0  503  0.11656844897E+03  0.44433601079E+03 -0.47618709752E+03  0.68280071792E+03  0.16864155707E+03 0.  0.
        -24    2    5    5    0    0  0.55414160674E+02  0.35322568755E+03 -0.42592399863E+03  0.56201409992E+03  0.81298710666E+02 0.  0.
          4    1    4    4  501    0 -0.12026363342E+02 -0.10424621437E+03 -0.44737618054E+02  0.11407611974E+03  0.00000000000E+00 0. -1.
         -3    1    4    4    0  501 -0.24145653107E+02 -0.23623094159E+03 -0.23164670235E+03  0.33173523333E+03  0.00000000000E+00 0.  1.
          5    1    3    3  502    0 -0.80396432526E+02 -0.10385885483E+03 -0.19050545126E+03  0.23144041360E+03  0.47000000000E+01 0. -1.
         13    1    6    6    0    0  0.18336215125E+02  0.90039415818E+01 -0.25461396886E+02  0.32643077069E+02  0.00000000000E+00 0. -1.
        -14    1    6    6    0    0  0.37077945549E+02  0.34422174597E+03 -0.40046260174E+03  0.52937102285E+03  0.00000000000E+00 0.  1.
         -5    1    5    5    0  503  0.61154288301E+02  0.91110323235E+02 -0.50263098895E+02  0.12078661800E+03  0.47000000000E+01 0.  1.
<mgrwt>
<rscale>  2 0.49028360E+03</rscale>
<asrwt>0</asrwt>
<pdfrwt beam="1">  1       21 0.32075047E-01 0.49059545E+03</pdfrwt>
<pdfrwt beam="2">  1       21 0.17716380E+00 0.49059545E+03</pdfrwt>
<totfact> 0.14804951E+03</totfact>
</mgrwt>
</event>
<event>
12    1  0.1441827E-001  0.2359819E+03  0.7546771E-02  0.1122591E+00
         21   -1    0    0  504  503  0.00000000000E+00  0.00000000000E+00  0.18833436627E+03  0.18833436627E+03  0.00000000000E+00 0.  1.
         21   -1    0    0  502  504 -0.00000000000E+00 -0.00000000000E+00 -0.34110838599E+03  0.34110838599E+03  0.00000000000E+00 0. -1.
          6    2    1    2  502    0 -0.22005455031E+02 -0.15869478571E+03 -0.17378374818E+03  0.29306693175E+03  0.17326038293E+03 0.  0.
         24    2    3    3    0    0 -0.73376521798E+02 -0.81262217448E+02 -0.13057397129E+03  0.19048055865E+03  0.85121203634E+02 0.  0.
         -6    2    1    2    0  503  0.22005455031E+02  0.15869478571E+03  0.21009728456E+02  0.23637582051E+03  0.17252201242E+03 0.  0.
        -24    2    5    5    0    0 -0.43713828940E+02  0.72304947547E+02  0.44978782030E+02  0.12511561220E+03  0.80572459955E+02 0.  0.
          4    1    4    4  501    0 -0.70280736416E+02 -0.68600429262E+02 -0.14233135447E+03  0.17292661817E+03  0.00000000000E+00 0. -1.
         -3    1    4    4    0  501 -0.30957853824E+01 -0.12661788186E+02  0.11757383177E+02  0.17553940480E+02  0.00000000000E+00 0.  1.
          5    1    3    3  502    0  0.51371066767E+02 -0.77432568258E+02 -0.43209776887E+02  0.10258637310E+03  0.47000000000E+01 0. -1.
         13    1    6    6    0    0  0.27219803885E+01  0.70211398111E+02  0.26562760109E+02  0.75117440229E+02  0.00000000000E+00 0. -1.
        -14    1    6    6    0    0 -0.46435809328E+02  0.20935494362E+01  0.18416021921E+02  0.49998171973E+02  0.00000000000E+00 0.  1.
         -5    1    5    5    0  503  0.65719283971E+02  0.86389838159E+02 -0.23969053575E+02  0.11126020830E+03  0.47000000000E+01 0.  1.
<mgrwt>
<rscale>  2 0.23584634E+03</rscale>
<asrwt>0</asrwt>
<pdfrwt beam="1">  1       21 0.28974518E-01 0.23598185E+03</pdfrwt>
<pdfrwt beam="2">  1       21 0.52478212E-01 0.23598185E+03</pdfrwt>
<totfact> 0.38441198E+04</totfact>
</mgrwt>
</event>
<event>
12    1  0.1441827E-001  0.1980911E+03  0.7546771E-02  0.1151619E+00
         21   -1    0    0  504  503  0.00000000000E+00  0.00000000000E+00  0.94701953600E+03  0.94701953600E+03  0.00000000000E+00 0.  1.
         21   -1    0    0  502  504 -0.00000000000E+00 -0.00000000000E+00 -0.41190240842E+02  0.41190240842E+02  0.00000000000E+00 0.  1.
          6    2    1    2  502    0  0.41557805913E+02  0.85420277267E+02  0.46095902919E+03  0.50172033567E+03  0.17382863294E+03 0.  0.
         24    2    3    3    0    0 -0.26527558390E+02  0.90871209448E+02  0.25050297306E+03  0.28040795225E+03  0.83160039145E+02 0.  0.
         -6    2    1    2    0  503 -0.41557805913E+02 -0.85420277267E+02  0.44487026597E+03  0.48648944118E+03  0.17244926162E+03 0.  0.
        -24    2    5    5    0    0 -0.57120484055E+02  0.75363384714E+01  0.19361955575E+03  0.21810140354E+03  0.82220093416E+02 0.  0.
          4    1    4    4  501    0  0.11382065506E+02  0.77826744556E+02  0.11673088033E+03  0.14075742256E+03  0.00000000000E+00 0. -1.
         -3    1    4    4    0  501 -0.37909623896E+02  0.13044464892E+02  0.13377209273E+03  0.13965052968E+03  0.00000000000E+00 0.  1.
          5    1    3    3  502    0  0.68085364302E+02 -0.54509321808E+01  0.21045605613E+03  0.22131238342E+03  0.47000000000E+01 0. -1.
         11    1    6    6    0    0 -0.24714172839E+02  0.44247664245E+02  0.11173104615E+03  0.12268851945E+03  0.00000000000E+00 0. -1.
        -12    1    6    6    0    0 -0.32406311216E+02 -0.36711325773E+02  0.81888509603E+02  0.95412884097E+02  0.00000000000E+00 0.  1.
         -5    1    5    5    0  503  0.15562678142E+02 -0.92956615738E+02  0.25125071021E+03  0.26838803763E+03  0.47000000000E+01 0.  1.
<mgrwt>
<rscale>  2 0.19778804E+03</rscale>
<asrwt>0</asrwt>
<pdfrwt beam="1">  1       21 0.14569530E+00 0.19809106E+03</pdfrwt>
<pdfrwt beam="2">  1       21 0.63369608E-02 0.19809106E+03</pdfrwt>
<totfact> 0.57751836E+04</totfact>
</mgrwt>
</event>
<event>
12    1  0.1441827E-001  0.2481873E+03  0.7546771E-02  0.1115626E+00
         21   -1    0    0  504  503  0.00000000000E+00  0.00000000000E+00  0.46268521070E+02  0.46268521070E+02  0.00000000000E+00 0. -1.
         21   -1    0    0  502  504 -0.00000000000E+00 -0.00000000000E+00 -0.14981177013E+04  0.14981177013E+04  0.00000000000E+00 0.  1.
          6    2    1    2  502    0  0.12879288748E+03  0.12269075239E+03 -0.10024924312E+04  0.10310457446E+04  0.16255345033E+03 0.  0.
         24    2    3    3    0    0  0.77332200117E+02  0.78540508210E+01 -0.55269223979E+03  0.56395049459E+03  0.80805279118E+02 0.  0.
         -6    2    1    2    0  503 -0.12879288748E+03 -0.12269075239E+03 -0.44935674906E+03  0.51334047782E+03  0.17307896942E+03 0.  0.
        -24    2    5    5    0    0 -0.11889996266E+03 -0.14499698713E+03 -0.30547959061E+03  0.36733306434E+03  0.80339731609E+02 0.  0.
          2    1    4    4  501    0  0.74039385865E+02  0.45917054198E+01 -0.23952958047E+03  0.25075353305E+03  0.00000000000E+00 0. -1.
         -1    1    4    4    0  501  0.32928142522E+01  0.32623454013E+01 -0.31316265933E+03  0.31319696154E+03  0.00000000000E+00 0.  1.
          5    1    3    3  502    0  0.51460687359E+02  0.11483670157E+03 -0.44980019139E+03  0.46709524998E+03  0.47000000000E+01 0. -1.
         13    1    6    6    0    0 -0.74727673302E+02 -0.34104386724E+02 -0.97075897641E+02  0.12716549946E+03  0.00000000000E+00 0. -1.
        -14    1    6    6    0    0 -0.44172289360E+02 -0.11089260041E+03 -0.20840369297E+03  0.24016756487E+03  0.00000000000E+00 0.  1.
         -5    1    5    5    0  503 -0.98929248138E+01  0.22306234737E+02 -0.14387715845E+03  0.14600741348E+03  0.47000000000E+01 0.  1.
<mgrwt>
<rscale>  2 0.24636178E+03</rscale>
<asrwt>0</asrwt>
<pdfrwt beam="1">  1       21 0.71182326E-02 0.24818735E+03</pdfrwt>
<pdfrwt beam="2">  1       21 0.23047969E+00 0.24818735E+03</pdfrwt>
<totfact> 0.12214530E+04</totfact>
</mgrwt>
</event>
<event>
12    1  0.1441827E-001  0.3426129E+03  0.7546771E-02  0.1065799E+00
         21   -1    0    0  504  503  0.00000000000E+00  0.00000000000E+00  0.27672966178E+03  0.27672966178E+03  0.00000000000E+00 0. -1.
         21   -1    0    0  502  504 -0.00000000000E+00 -0.00000000000E+00 -0.50635802444E+03  0.50635802444E+03  0.00000000000E+00 0.  1.
          6    2    1    2  502    0 -0.27977622227E+03  0.93254454798E+02 -0.27393834002E+03  0.43866370001E+03  0.17439179935E+03 0.  0.
         24    2    3    3    0    0 -0.87327807811E+02  0.72676400763E+02 -0.17483259879E+03  0.22116913345E+03  0.73765457674E+02 0.  0.
         -6    2    1    2    0  503  0.27977622227E+03 -0.93254454798E+02  0.44309977365E+02  0.34442398621E+03  0.17231767261E+03 0.  0.
        -24    2    5    5    0    0  0.26455382913E+03 -0.12641300721E+03  0.43778467143E+02  0.30763290911E+03  0.82173448777E+02 0.  0.
          2    1    4    4  501    0 -0.92534523446E+02  0.57242772238E+02 -0.11157127783E+03  0.15584454767E+03  0.00000000000E+00 0. -1.
         -1    1    4    4    0  501  0.52067156354E+01  0.15433628525E+02 -0.63261320958E+02  0.65324585773E+02  0.00000000000E+00 0.  1.
          5    1    3    3  502    0 -0.19244841446E+03  0.20578054035E+02 -0.99105741231E+02  0.21749456656E+03  0.47000000000E+01 0. -1.
         13    1    6    6    0    0  0.53219819187E+02 -0.10248244813E+02  0.38389796522E+02  0.66416505125E+02  0.00000000000E+00 0. -1.
        -14    1    6    6    0    0  0.21133400994E+03 -0.11616476240E+03  0.53886706212E+01  0.24121640398E+03  0.00000000000E+00 0.  1.
         -5    1    5    5    0  503  0.15222393149E+02  0.33158552411E+02  0.53151022250E+00  0.36791077102E+02  0.47000000000E+01 0.  1.
<mgrwt>
<rscale>  2 0.34234987E+03</rscale>
<asrwt>0</asrwt>
<pdfrwt beam="1">  1       21 0.42573794E-01 0.34261294E+03</pdfrwt>
<pdfrwt beam="2">  1       21 0.77901235E-01 0.34261294E+03</pdfrwt>
<totfact> 0.71318592E+03</totfact>
</mgrwt>
</event>
<event>
12    1  0.1441827E-001  0.1878890E+03  0.7546771E-02  0.1161078E+00
         21   -1    0    0  504  503  0.00000000000E+00  0.00000000000E+00  0.24572643092E+03  0.24572643092E+03  0.00000000000E+00 0.  1.
         21   -1    0    0  502  504 -0.00000000000E+00 -0.00000000000E+00 -0.26630486305E+03  0.26630486305E+03  0.00000000000E+00 0.  1.
          6    2    1    2  502    0  0.58949545855E+02  0.27317832071E+02 -0.18560370342E+03  0.26196010662E+03  0.17306949422E+03 0.  0.
         24    2    3    3    0    0 -0.26577214214E+02  0.43572637407E+02 -0.12058626403E+03  0.15320164575E+03  0.79528448641E+02 0.  0.
         -6    2    1    2    0  503 -0.58949545855E+02 -0.27317832071E+02  0.16502527129E+03  0.25007118735E+03  0.17629788901E+03 0.  0.
        -24    2    5    5    0    0 -0.49221931960E+02  0.32488497985E+02  0.16105280442E+03  0.18916721309E+03  0.79799295794E+02 0.  0.
          4    1    4    4  501    0 -0.33856659808E+02  0.15835233951E+02 -0.96271473728E+01  0.38596761705E+02  0.00000000000E+00 0. -1.
         -3    1    4    4    0  501  0.72794455932E+01  0.27737403456E+02 -0.11095911666E+03  0.11460488405E+03  0.00000000000E+00 0.  1.
          5    1    3    3  502    0  0.85526760069E+02 -0.16254805336E+02 -0.65017439394E+02  0.10875846087E+03  0.47000000000E+01 0. -1.
         11    1    6    6    0    0 -0.46190879641E+02  0.12077538321E+02  0.29752725218E+02  0.56255568185E+02  0.00000000000E+00 0. -1.
        -12    1    6    6    0    0 -0.30310523187E+01  0.20410959664E+02  0.13130007921E+03  0.13291164491E+03  0.00000000000E+00 0.  1.
         -5    1    5    5    0  503 -0.97276138948E+01 -0.59806330057E+02  0.39724668700E+01  0.60903974254E+02  0.47000000000E+01 0.  1.
<mgrwt>
<rscale>  2 0.18712788E+03</rscale>
<asrwt>0</asrwt>
<pdfrwt beam="1">  1       21 0.37804066E-01 0.18788895E+03</pdfrwt>
<pdfrwt beam="2">  1       21 0.40969979E-01 0.18788895E+03</pdfrwt>
<totfact> 0.38816447E+04</totfact>
</mgrwt>
</event>
<event>
12    1  0.1441827E-001  0.3303439E+03  0.7546771E-02  0.1071277E+00
         21   -1    0    0  504  503  0.00000000000E+00  0.00000000000E+00  0.12235795134E+04  0.12235795134E+04  0.00000000000E+00 0.  1.
         21   -1    0    0  502  504 -0.00000000000E+00 -0.00000000000E+00 -0.19263993251E+03  0.19263993251E+03  0.00000000000E+00 0. -1.
          6    2    1    2  502    0  0.91023611682E+01  0.28104232262E+03 -0.61697864102E+01  0.32776966803E+03  0.16830700797E+03 0.  0.
         24    2    3    3    0    0 -0.30248560607E+02  0.26604969574E+03 -0.26830936229E+02  0.28062895296E+03  0.79594560610E+02 0.  0.
         -6    2    1    2    0  503 -0.91023611682E+01 -0.28104232262E+03  0.10371093673E+04  0.10884497779E+04  0.17337658191E+03 0.  0.
        -24    2    5    5    0    0  0.41104557470E+02 -0.92145023496E+02  0.52063259320E+03  0.53620592552E+03  0.79235140284E+02 0.  0.
          2    1    4    4  501    0  0.18900323864E+02  0.10655186902E+03 -0.34421503983E+02  0.11355775170E+03  0.00000000000E+00 0. -1.
         -1    1    4    4    0  501 -0.49148884471E+02  0.15949782672E+03  0.75905677543E+01  0.16707120126E+03  0.00000000000E+00 0.  1.
          5    1    3    3  502    0  0.39350921775E+02  0.14992626884E+02  0.20661149819E+02  0.47140715070E+02  0.47000000000E+01 0. -1.
         13    1    6    6    0    0  0.19344507248E+02  0.54457628077E+01  0.34754769446E+02  0.40146734518E+02  0.00000000000E+00 0. -1.
        -14    1    6    6    0    0  0.21760050222E+02 -0.97590786304E+02  0.48587782376E+03  0.49605919100E+03  0.00000000000E+00 0.  1.
         -5    1    5    5    0  503 -0.50206918638E+02 -0.18889729913E+03  0.51647677408E+03  0.55224385235E+03  0.47000000000E+01 0.  1.
<mgrwt>
<rscale>  2 0.32968383E+03</rscale>
<asrwt>0</asrwt>
<pdfrwt beam="1">  1       21 0.18824300E+00 0.33034388E+03</pdfrwt>
<pdfrwt beam="2">  1       21 0.29636913E-01 0.33034388E+03</pdfrwt>
<totfact> 0.15669336E+03</totfact>
</mgrwt>
</event>
<event>
12    1  0.1441827E-001  0.2180100E+03  0.7546771E-02  0.1135514E+00
         21   -1    0    0  504  503  0.00000000000E+00  0.00000000000E+00  0.20082190305E+04  0.20082190305E+04  0.00000000000E+00 0.  1.
         21   -1    0    0  502  504 -0.00000000000E+00 -0.00000000000E+00 -0.35363632347E+02  0.35363632347E+02  0.00000000000E+00 0.  1.
          6    2    1    2  502    0  0.12624878848E+03  0.41408980543E+02  0.39789439739E+03  0.45370508539E+03  0.17284354998E+03 0.  0.
         24    2    3    3    0    0  0.12305844762E+03  0.58128381471E+02  0.19979307022E+03  0.25481832748E+03  0.80578029585E+02 0.  0.
         -6    2    1    2    0  503 -0.12624878848E+03 -0.41408980543E+02  0.15749610008E+04  0.15898775775E+04  0.17191595947E+03 0.  0.
        -24    2    5    5    0    0 -0.44525465905E+01  0.14499808949E+02  0.48917050969E+03  0.49583772545E+03  0.79606487158E+02 0.  0.
          4    1    4    4  501    0  0.86191079715E+00 -0.14910453105E+02  0.11969605165E+02  0.19139904645E+02  0.00000000000E+00 0. -1.
         -3    1    4    4    0  501  0.12219653682E+03  0.73038834576E+02  0.18782346505E+03  0.23567842284E+03  0.00000000000E+00 0.  1.
          5    1    3    3  502    0  0.31903408601E+01 -0.16719400928E+02  0.19810132717E+03  0.19888675790E+03  0.47000000000E+01 0. -1.
         13    1    6    6    0    0 -0.89317988641E+00 -0.39132506663E+01 -0.18778072903E+01  0.44314175279E+01  0.00000000000E+00 0. -1.
        -14    1    6    6    0    0 -0.35593667041E+01  0.18413059615E+02  0.49104831698E+03  0.49140630792E+03  0.00000000000E+00 0.  1.
         -5    1    5    5    0  503 -0.12179624189E+03 -0.55908789492E+02  0.10857904911E+04  0.10940398520E+04  0.47000000000E+01 0.  1.
<mgrwt>
<rscale>  2 0.21782608E+03</rscale>
<asrwt>0</asrwt>
<pdfrwt beam="1">  1       21 0.30895669E+00 0.21800998E+03</pdfrwt>
<pdfrwt beam="2">  1       21 0.54405604E-02 0.21800998E+03</pdfrwt>
<totfact> 0.68722179E+03</totfact>
</mgrwt>
</event>
<event>
12    1  0.1441827E-001  0.1813561E+03  0.7546771E-02  0.1166533E+00
         21   -1    0    0  504  503  0.00000000000E+00  0.00000000000E+00  0.14475027931E+03  0.14475027931E+03  0.00000000000E+00 0. -1.
         21   -1    0    0  502  504 -0.00000000000E+00 -0.00000000000E+00 -0.23444510559E+03  0.23444510559E+03  0.00000000000E+00 0.  1.
          6    2    1    2  502    0  0.24060048664E+02  0.47930698157E+02 -0.78544208703E+02  0.19749678293E+03  0.17308826875E+03 0.  0.
         24    2    3    3    0    0 -0.26554366783E+02  0.53877049571E+02 -0.99393884418E+02  0.14223398239E+03  0.82118759247E+02 0.  0.
         -6    2    1    2    0  503 -0.24060048664E+02 -0.47930698157E+02 -0.11150617579E+02  0.18169860197E+03  0.17324493620E+03 0.  0.
        -24    2    5    5    0    0 -0.58425884244E+02 -0.17353037713E+02 -0.58110867157E+02  0.11579443660E+03  0.79478090047E+02 0.  0.
          4    1    4    4  501    0 -0.19976738787E+02  0.63665600898E+02 -0.32338728652E+02  0.74149660829E+02  0.00000000000E+00 0. -1.
         -3    1    4    4    0  501 -0.65776279960E+01 -0.97885513272E+01 -0.67055155766E+02  0.68084321557E+02  0.00000000000E+00 0.  1.
          5    1    3    3  502    0  0.50614415446E+02 -0.59463514138E+01  0.20849675715E+02  0.55262800540E+02  0.47000000000E+01 0. -1.
         11    1    6    6    0    0 -0.38997596398E+02 -0.86656992844E+01  0.12648904139E+02  0.41903480104E+02  0.00000000000E+00 0. -1.
        -12    1    6    6    0    0 -0.19428287847E+02 -0.86873384283E+01 -0.70759771296E+02  0.73890956493E+02  0.00000000000E+00 0.  1.
         -5    1    5    5    0  503  0.34365835580E+02 -0.30577660445E+02  0.46960249578E+02  0.65904165376E+02  0.47000000000E+01 0.  1.
<mgrwt>
<rscale>  2 0.18131870E+03</rscale>
<asrwt>0</asrwt>
<pdfrwt beam="1">  1       21 0.22269274E-01 0.18135613E+03</pdfrwt>
<pdfrwt beam="2">  1       21 0.36068478E-01 0.18135613E+03</pdfrwt>
<totfact> 0.14036247E+05</totfact>
</mgrwt>
</event>
<event>
12    1  0.1441827E-001  0.1811550E+03  0.7546771E-02  0.1166849E+00
         21   -1    0    0  504  503  0.00000000000E+00  0.00000000000E+00  0.38642322316E+03  0.38642322316E+03  0.00000000000E+00 0.  1.
         21   -1    0    0  502  504 -0.00000000000E+00 -0.00000000000E+00 -0.13199766214E+03  0.13199766214E+03  0.00000000000E+00 0.  1.
          6    2    1    2  502    0  0.18009680960E+02  0.47863033740E+02  0.28236498849E+03  0.33512401453E+03  0.17309794853E+03 0.  0.
         24    2    3    3    0    0  0.61949252361E+02  0.61677330066E+02  0.25380836143E+03  0.28072648089E+03  0.82139331789E+02 0.  0.
         -6    2    1    2    0  503 -0.18009680960E+02 -0.47863033740E+02 -0.27939427472E+02  0.18329687077E+03  0.17378697483E+03 0.  0.
        -24    2    5    5    0    0 -0.48476180276E+02 -0.39053241011E+02  0.40727144360E+02  0.10751423347E+03  0.77624187107E+02 0.  0.
          4    1    4    4  501    0  0.15723726683E+02  0.70118176694E+02  0.13439137283E+03  0.15239696642E+03  0.00000000000E+00 0. -1.
         -3    1    4    4    0  501  0.46225525678E+02 -0.84408466286E+01  0.11941698861E+03  0.12832951447E+03  0.00000000000E+00 0.  1.
          5    1    3    3  502    0 -0.43939571400E+02 -0.13814296326E+02  0.28556627058E+02  0.54397533646E+02  0.47000000000E+01 0. -1.
         13    1    6    6    0    0 -0.24256810430E+02 -0.49022724195E+02 -0.48890711505E+01  0.54913781116E+02  0.00000000000E+00 0. -1.
        -14    1    6    6    0    0 -0.24219369846E+02  0.99694831844E+01  0.45616215511E+02  0.52600452357E+02  0.00000000000E+00 0.  1.
         -5    1    5    5    0  503  0.30466499316E+02 -0.88097927293E+01 -0.68666571832E+02  0.75782637297E+02  0.47000000000E+01 0.  1.
<mgrwt>
<rscale>  2 0.18098954E+03</rscale>
<asrwt>0</asrwt>
<pdfrwt beam="1">  1       21 0.59449726E-01 0.18115499E+03</pdfrwt>
<pdfrwt beam="2">  1       21 0.20307333E-01 0.18115499E+03</pdfrwt>
<totfact> 0.59600056E+04</totfact>
</mgrwt>
</event>
<event>
12    1  0.1441827E-001  0.2494577E+03  0.7546771E-02  0.1113674E+00
         21   -1    0    0  504  503  0.00000000000E+00  0.00000000000E+00  0.57508998834E+03  0.57508998834E+03  0.00000000000E+00 0. -1.
         21   -1    0    0  502  504 -0.00000000000E+00 -0.00000000000E+00 -0.18454125948E+03  0.18454125948E+03  0.00000000000E+00 0.  1.
          6    2    1    2  502    0 -0.38890423234E+02 -0.17523777533E+03 -0.49155429249E+02  0.25409300564E+03  0.17299207025E+03 0.  0.
         24    2    3    3    0    0 -0.39042126772E+02 -0.38769867939E+02 -0.66257788275E+02  0.11647726001E+03  0.78418539063E+02 0.  0.
         -6    2    1    2    0  503  0.38890423234E+02  0.17523777533E+03  0.43970415811E+03  0.50553824218E+03  0.17322939914E+03 0.  0.
        -24    2    5    5    0    0  0.69213482101E+02  0.12150244692E+03  0.20904162748E+03  0.26671976204E+03  0.88812604585E+02 0.  0.
          2    1    4    4  501    0 -0.43907361176E+02  0.92261573644E+00 -0.62413252440E+01  0.44358333220E+02  0.00000000000E+00 0. -1.
         -1    1    4    4    0  501  0.48652344044E+01 -0.39692483675E+02 -0.60016463031E+02  0.72118926787E+02  0.00000000000E+00 0.  1.
          5    1    3    3  502    0  0.15170353751E+00 -0.13646790739E+03  0.17102359027E+02  0.13761574563E+03  0.47000000000E+01 0. -1.
         13    1    6    6    0    0 -0.18521753703E+02  0.10999090538E+02  0.47988517491E+02  0.52601646018E+02  0.00000000000E+00 0. -1.
        -14    1    6    6    0    0  0.87735235804E+02  0.11050335638E+03  0.16105310999E+03  0.21411811602E+03  0.00000000000E+00 0.  1.
         -5    1    5    5    0  503 -0.30323058867E+02  0.53735328412E+02  0.23066253063E+03  0.23881848014E+03  0.47000000000E+01 0.  1.
<mgrwt>
<rscale>  2 0.24941655E+03</rscale>
<asrwt>0</asrwt>
<pdfrwt beam="1">  1       21 0.88475382E-01 0.24945775E+03</pdfrwt>
<pdfrwt beam="2">  1       21 0.28390963E-01 0.24945775E+03</pdfrwt>
<totfact> 0.12522721E+04</totfact>
</mgrwt>
</event>
<event>
12    1  0.1441827E-001  0.1796360E+03  0.7546771E-02  0.1168570E+00
         21   -1    0    0  504  503  0.00000000000E+00  0.00000000000E+00  0.41348835662E+02  0.41348835662E+02  0.00000000000E+00 0. -1.
         21   -1    0    0  502  504 -0.00000000000E+00 -0.00000000000E+00 -0.77328340331E+03  0.77328340331E+03  0.00000000000E+00 0. -1.
          6    2    1    2  502    0 -0.32775546689E+02 -0.32244944200E+02 -0.36049606654E+03  0.40277350797E+03  0.17365227278E+03 0.  0.
         24    2    3    3    0    0  0.25354188381E+02 -0.16339546508E+02 -0.86524278108E+02  0.12221214457E+03  0.80867434298E+02 0.  0.
         -6    2    1    2    0  503  0.32775546689E+02  0.32244944200E+02 -0.37143850111E+03  0.41185873100E+03  0.17189264473E+03 0.  0.
        -24    2    5    5    0    0 -0.13541011711E+02  0.56037954332E+02 -0.12529873284E+03  0.16022763906E+03  0.81544543298E+02 0.  0.
          4    1    4    4  501    0  0.40688255715E+02 -0.94687419128E+01 -0.94715299493E+02  0.10351897983E+03  0.00000000000E+00 0. -1.
         -3    1    4    4    0  501 -0.15334067334E+02 -0.68708045955E+01  0.81910213849E+01  0.18693164743E+02  0.00000000000E+00 0.  1.
          5    1    3    3  502    0 -0.58129735069E+02 -0.15905397691E+02 -0.27397178843E+03  0.28056136340E+03  0.47000000000E+01 0. -1.
         11    1    6    6    0    0  0.10842081980E+02  0.51129946967E+02 -0.26995466554E+02  0.58826672802E+02  0.00000000000E+00 0. -1.
        -12    1    6    6    0    0 -0.24383093691E+02  0.49080073648E+01 -0.98303266289E+02  0.10140096625E+03  0.00000000000E+00 0.  1.
         -5    1    5    5    0  503  0.46316558399E+02 -0.23793010132E+02 -0.24613976826E+03  0.25163109195E+03  0.47000000000E+01 0.  1.
<mgrwt>
<rscale>  2 0.17920935E+03</rscale>
<asrwt>0</asrwt>
<pdfrwt beam="1">  1       21 0.63613592E-02 0.17963598E+03</pdfrwt>
<pdfrwt beam="2">  1       21 0.11896668E+00 0.17963598E+03</pdfrwt>
<totfact> 0.96782108E+04</totfact>
</mgrwt>
</event>
<event>
12    1  0.1441827E-001  0.2528729E+03  0.7546771E-02  0.1111549E+00
         21   -1    0    0  504  503  0.00000000000E+00  0.00000000000E+00  0.10277264904E+03  0.10277264904E+03  0.00000000000E+00 0. -1.
         21   -1    0    0  502  504 -0.00000000000E+00 -0.00000000000E+00 -0.10594247792E+04  0.10594247792E+04  0.00000000000E+00 0. -1.
          6    2    1    2  502    0  0.89470146748E+02  0.16077546812E+03 -0.85211780530E+03  0.88884726758E+03  0.17346772803E+03 0.  0.
         24    2    3    3    0    0 -0.12840027624E+02  0.42979555759E+02 -0.39945893935E+03  0.41003061408E+03  0.80904584117E+02 0.  0.
         -6    2    1    2    0  503 -0.89470146748E+02 -0.16077546812E+03 -0.10453432489E+03  0.27335016068E+03  0.17302955515E+03 0.  0.
        -24    2    5    5    0    0 -0.10897971652E+03 -0.86114823029E+02 -0.26249968332E+02  0.16332577375E+03  0.81816295291E+02 0.  0.
          4    1    4    4  501    0 -0.27701873358E+02  0.44234346848E+02 -0.38726319754E+03  0.39076445002E+03  0.00000000000E+00 0. -1.
         -3    1    4    4    0  501  0.14861845733E+02 -0.12547910887E+01 -0.12195741811E+02  0.19266164060E+02  0.00000000000E+00 0.  1.
          5    1    3    3  502    0  0.10231017437E+03  0.11779591236E+03 -0.45265886594E+03  0.47881665350E+03  0.47000000000E+01 0. -1.
         13    1    6    6    0    0 -0.75856816365E+02 -0.10610095401E+02 -0.25959411128E+02  0.80874728683E+02  0.00000000000E+00 0. -1.
        -14    1    6    6    0    0 -0.33122900154E+02 -0.75504727629E+02 -0.29055720380E+00  0.82451045065E+02  0.00000000000E+00 0.  1.
         -5    1    5    5    0  503  0.19509569771E+02 -0.74660645090E+02 -0.78284356555E+02  0.11002438693E+03  0.47000000000E+01 0.  1.
<mgrwt>
<rscale>  2 0.25279779E+03</rscale>
<asrwt>0</asrwt>
<pdfrwt beam="1">  1       21 0.15811176E-01 0.25287291E+03</pdfrwt>
<pdfrwt beam="2">  1       21 0.16298843E+00 0.25287291E+03</pdfrwt>
<totfact> 0.81705333E+03</totfact>
</mgrwt>
</event>
<event>
12    1  0.1441827E-001  0.1990843E+03  0.7546771E-02  0.1150592E+00
         21   -1    0    0  504  503  0.00000000000E+00  0.00000000000E+00  0.70111888503E+03  0.70111888503E+03  0.00000000000E+00 0. -1.
         21   -1    0    0  502  504 -0.00000000000E+00 -0.00000000000E+00 -0.56454952920E+02  0.56454952920E+02  0.00000000000E+00 0. -1.
          6    2    1    2  502    0  0.55850855065E+02 -0.81036648942E+02  0.33110243574E+03  0.38634620570E+03  0.17305580380E+03 0.  0.
         24    2    3    3    0    0  0.87260657200E+02 -0.43198034871E+02  0.13674826804E+03  0.18581199694E+03  0.79658752708E+02 0.  0.
         -6    2    1    2    0  503 -0.55850855065E+02  0.81036648942E+02  0.31356149637E+03  0.37122763224E+03  0.17263512519E+03 0.  0.
        -24    2    5    5    0    0 -0.15840830418E+02 -0.21965908159E+02  0.10082768997E+03  0.13146088887E+03  0.79889356035E+02 0.  0.
          2    1    4    4  501    0  0.51855915982E+02 -0.21641809109E+02  0.13276970265E+03  0.14417072472E+03  0.00000000000E+00 0. -1.
         -1    1    4    4    0  501  0.35404741218E+02 -0.21556225762E+02  0.39785653919E+01  0.41641272223E+02  0.00000000000E+00 0.  1.
          5    1    3    3  502    0 -0.31409802134E+02 -0.37838614070E+02  0.19435416769E+03  0.20053420877E+03  0.47000000000E+01 0. -1.
         13    1    6    6    0    0 -0.14757543469E+02  0.10623292843E+02 -0.64837337299E+01  0.19304876149E+02  0.00000000000E+00 0. -1.
        -14    1    6    6    0    0 -0.10832869496E+01 -0.32589201002E+02  0.10731142370E+03  0.11215601272E+03  0.00000000000E+00 0.  1.
         -5    1    5    5    0  503 -0.40010024647E+02  0.10300255710E+03  0.21273380641E+03  0.23976674338E+03  0.47000000000E+01 0.  1.
<mgrwt>
<rscale>  2 0.19899287E+03</rscale>
<asrwt>0</asrwt>
<pdfrwt beam="1">  1       21 0.10786444E+00 0.19908432E+03</pdfrwt>
<pdfrwt beam="2">  1       21 0.86853779E-02 0.19908432E+03</pdfrwt>
<totfact> 0.70974920E+04</totfact>
</mgrwt>
</event>
<event>
12    1  0.1441827E-001  0.2159964E+03  0.7546771E-02  0.1137316E+00
         21   -1    0    0  504  503  0.00000000000E+00  0.00000000000E+00  0.16962954532E+04  0.16962954532E+04  0.00000000000E+00 0.  1.
         21   -1    0    0  502  504 -0.00000000000E+00 -0.00000000000E+00 -0.48107507803E+02  0.48107507803E+02  0.00000000000E+00 0.  1.
          6    2    1    2  502    0  0.10780086485E+03  0.65313271373E+02  0.24720216102E+03  0.32686438331E+03  0.17275580102E+03 0.  0.
         24    2    3    3    0    0  0.14090429874E+03  0.52697908710E+02  0.16485823885E+03  0.23710026895E+03  0.80045035043E+02 0.  0.
         -6    2    1    2    0  503 -0.10780086485E+03 -0.65313271373E+02  0.14009857844E+04  0.14175385777E+04  0.17540695915E+03 0.  0.
        -24    2    5    5    0    0 -0.13305368889E+03 -0.73608876184E+02  0.13374495445E+04  0.13485062233E+04  0.81093768452E+02 0.  0.
          2    1    4    4  501    0  0.14868083591E+03  0.38612388148E+02  0.15503309891E+03  0.21824795358E+03  0.00000000000E+00 0. -1.
         -1    1    4    4    0  501 -0.77765371735E+01  0.14085520562E+02  0.98251399401E+01  0.18852315368E+02  0.00000000000E+00 0.  1.
          5    1    3    3  502    0 -0.33103433882E+02  0.12615362663E+02  0.82343922165E+02  0.89764114363E+02  0.47000000000E+01 0. -1.
         11    1    6    6    0    0 -0.72627092477E+02  0.13649263105E+01  0.44679408957E+03  0.45266048652E+03  0.00000000000E+00 0. -1.
        -12    1    6    6    0    0 -0.60426596418E+02 -0.74973802495E+02  0.89065545494E+03  0.89584573674E+03  0.00000000000E+00 0.  1.
         -5    1    5    5    0  503  0.25252824042E+02  0.82956048114E+01  0.63536239910E+02  0.69032354466E+02  0.47000000000E+01 0.  1.
<mgrwt>
<rscale>  2 0.21545756E+03</rscale>
<asrwt>0</asrwt>
<pdfrwt beam="1">  1       21 0.26096849E+00 0.21599641E+03</pdfrwt>
<pdfrwt beam="2">  1       21 0.74011563E-02 0.21599641E+03</pdfrwt>
<totfact> 0.77025180E+03</totfact>
</mgrwt>
</event>
<event>
12    1  0.1441827E-001  0.1965669E+03  0.7546771E-02  0.1152734E+00
         21   -1    0    0  504  503  0.00000000000E+00  0.00000000000E+00  0.43549786987E+03  0.43549786987E+03  0.00000000000E+00 0.  1.
         21   -1    0    0  502  504 -0.00000000000E+00 -0.00000000000E+00 -0.10557464935E+03  0.10557464935E+03  0.00000000000E+00 0.  1.
          6    2    1    2  502    0 -0.65438541211E+02 -0.65278543639E+02  0.27337771328E+03  0.33653419343E+03  0.17313693509E+03 0.  0.
         24    2    3    3    0    0 -0.90178859192E+02 -0.78776522900E+02  0.27155813680E+03  0.30790414564E+03  0.81994963465E+02 0.  0.
         -6    2    1    2    0  503  0.65438541211E+02  0.65278543639E+02  0.56545507232E+02  0.20453832579E+03  0.17347922467E+03 0.  0.
        -24    2    5    5    0    0 -0.93001767819E+01 -0.12067022570E+02 -0.42335825759E+01  0.80908231003E+02  0.79348045349E+02 0.  0.
          4    1    4    4  501    0 -0.20298657475E+02 -0.20617615546E+02  0.16638657600E+03  0.16888343388E+03  0.00000000000E+00 0. -1.
         -3    1    4    4    0  501 -0.69880201717E+02 -0.58158907354E+02  0.10517156080E+03  0.13902071176E+03  0.00000000000E+00 0.  1.
          5    1    3    3  502    0  0.24740317981E+02  0.13497979262E+02  0.18195764817E+01  0.28630047791E+02  0.47000000000E+01 0. -1.
         11    1    6    6    0    0 -0.19900880897E+02  0.30576347162E+02 -0.57928351773E+01  0.36939342247E+02  0.00000000000E+00 0. -1.
        -12    1    6    6    0    0  0.10600704115E+02 -0.42643369731E+02  0.15592526014E+01  0.43968888756E+02  0.00000000000E+00 0.  1.
         -5    1    5    5    0  503  0.74738717993E+02  0.77345566208E+02  0.60779089808E+02  0.12363009479E+03  0.47000000000E+01 0.  1.
<mgrwt>
<rscale>  2 0.19649132E+03</rscale>
<asrwt>0</asrwt>
<pdfrwt beam="1">  1       21 0.66999671E-01 0.19656686E+03</pdfrwt>
<pdfrwt beam="2">  1       21 0.16242254E-01 0.19656686E+03</pdfrwt>
<totfact> 0.69079981E+04</totfact>
</mgrwt>
</event>
<event>
12    1  0.1441827E-001  0.2698508E+03  0.7546771E-02  0.1101531E+00
         21   -1    0    0  504  503  0.00000000000E+00  0.00000000000E+00  0.67802925207E+03  0.67802925207E+03  0.00000000000E+00 0.  1.
         21   -1    0    0  502  504 -0.00000000000E+00 -0.00000000000E+00 -0.11755827684E+03  0.11755827684E+03  0.00000000000E+00 0.  1.
          6    2    1    2  502    0 -0.96371687122E+02  0.18208491118E+03  0.39925152850E+03  0.48124508301E+03  0.17248950680E+03 0.  0.
         24    2    3    3    0    0 -0.10667288016E+03  0.10350453161E+03  0.35139984701E+03  0.38854738049E+03  0.73450139427E+02 0.  0.
         -6    2    1    2    0  503  0.96371687122E+02 -0.18208491118E+03  0.16121944673E+03  0.31434244590E+03  0.17429012117E+03 0.  0.
        -24    2    5    5    0    0  0.11229378708E+03 -0.10371541475E+03  0.56651159542E+02  0.18261580501E+03  0.82294571424E+02 0.  0.
          4    1    4    4  501    0 -0.23393428239E+02  0.61180476169E+02  0.20191570101E+03  0.21227400563E+03  0.00000000000E+00 0. -1.
         -3    1    4    4    0  501 -0.83279451924E+02  0.42324055438E+02  0.14948414599E+03  0.17627337486E+03  0.00000000000E+00 0.  1.
          5    1    3    3  502    0  0.10301193040E+02  0.78580379571E+02  0.47851681490E+02  0.92697702523E+02  0.47000000000E+01 0. -1.
         11    1    6    6    0    0  0.32001059464E+02 -0.47057307265E+02  0.62053880871E+02  0.84197043327E+02  0.00000000000E+00 0. -1.
        -12    1    6    6    0    0  0.80292727619E+02 -0.56658107489E+02 -0.54027213299E+01  0.98418761679E+02  0.00000000000E+00 0.  1.
         -5    1    5    5    0  503 -0.15922099961E+02 -0.78369496425E+02  0.10456828719E+03  0.13172664090E+03  0.47000000000E+01 0.  1.
<mgrwt>
<rscale>  2 0.26956048E+03</rscale>
<asrwt>0</asrwt>
<pdfrwt beam="1">  1       21 0.10431219E+00 0.26985082E+03</pdfrwt>
<pdfrwt beam="2">  1       21 0.18085889E-01 0.26985082E+03</pdfrwt>
<totfact> 0.19804840E+04</totfact>
</mgrwt>
</event>
<event>
12    1  0.1441827E-001  0.4077474E+03  0.7546771E-02  0.1041679E+00
         21   -1    0    0  504  503  0.00000000000E+00  0.00000000000E+00  0.11114074070E+04  0.11114074070E+04  0.00000000000E+00 0. -1.
         21   -1    0    0  502  504 -0.00000000000E+00 -0.00000000000E+00 -0.47417730257E+03  0.47417730257E+03  0.00000000000E+00 0.  1.
          6    2    1    2  502    0 -0.14427333658E+03  0.33238039483E+03 -0.34046651200E+03  0.52626954434E+03  0.17248381082E+03 0.  0.
         24    2    3    3    0    0 -0.12213212708E+03  0.13455350413E+03 -0.13458498898E+03  0.23985201107E+03  0.79968531433E+02 0.  0.
         -6    2    1    2    0  503  0.14427333658E+03 -0.33238039483E+03  0.97769661638E+03  0.10593151652E+04  0.18699310940E+03 0.  0.
        -24    2    5    5    0    0  0.39362661046E+02 -0.65509678917E+02  0.38804486504E+03  0.40361896515E+03  0.80551316778E+02 0.  0.
          4    1    4    4  501    0 -0.95212385899E+02  0.45982174104E+02 -0.66015043633E+02  0.12465049037E+03  0.00000000000E+00 0. -1.
         -3    1    4    4    0  501 -0.26919741181E+02  0.88571330025E+02 -0.68569945345E+02  0.11520152070E+03  0.00000000000E+00 0.  1.
          5    1    3    3  502    0 -0.22141209501E+02  0.19782689070E+03 -0.20588152302E+03  0.28641753327E+03  0.47000000000E+01 0. -1.
         11    1    6    6    0    0  0.59422631270E+02 -0.59221270829E+02  0.35229270459E+03  0.36214411183E+03  0.00000000000E+00 0. -1.
        -12    1    6    6    0    0 -0.20059970224E+02 -0.62884080879E+01  0.35752160443E+02  0.41474853321E+02  0.00000000000E+00 0.  1.
         -5    1    5    5    0  503  0.10491067553E+03 -0.26687071591E+03  0.58965175135E+03  0.65569620002E+03  0.47000000000E+01 0.  1.
<mgrwt>
<rscale>  2 0.40612606E+03</rscale>
<asrwt>0</asrwt>
<pdfrwt beam="1">  1       21 0.17098575E+00 0.40774740E+03</pdfrwt>
<pdfrwt beam="2">  1       21 0.72950354E-01 0.40774740E+03</pdfrwt>
<totfact> 0.29783639E+02</totfact>
</mgrwt>
</event>
<event>
12    1  0.1441827E-001  0.1900795E+03  0.7546771E-02  0.1158576E+00
         21   -1    0    0  504  503  0.00000000000E+00  0.00000000000E+00  0.16358352217E+04  0.16358352217E+04  0.00000000000E+00 0. -1.
         21   -1    0    0  502  504 -0.00000000000E+00 -0.00000000000E+00 -0.27455043363E+02  0.27455043363E+02  0.00000000000E+00 0. -1.
          6    2    1    2  502    0 -0.26188111767E+02 -0.74017759429E+02  0.43178907754E+03  0.47144428406E+03  0.17220179898E+03 0.  0.
         24    2    3    3    0    0 -0.18246493323E+02  0.13072490725E+02  0.11389859675E+03  0.14171071167E+03  0.81272448771E+02 0.  0.
         -6    2    1    2    0  503  0.26188111767E+02  0.74017759429E+02  0.11765911008E+04  0.11918459810E+04  0.17310626236E+03 0.  0.
        -24    2    5    5    0    0  0.48967811730E+02  0.10822946967E+03  0.76848027576E+03  0.78164372436E+03  0.79331663991E+02 0.  0.
          2    1    4    4  501    0 -0.36165729573E+02 -0.22054450345E+01  0.13626275437E+02  0.38710455508E+02  0.00000000000E+00 0. -1.
         -1    1    4    4    0  501  0.17919236250E+02  0.15277935759E+02  0.10027232131E+03  0.10300025616E+03  0.00000000000E+00 0.  1.
          5    1    3    3  502    0 -0.79416184440E+01 -0.87090250154E+02  0.31789048080E+03  0.32973357238E+03  0.47000000000E+01 0. -1.
         13    1    6    6    0    0  0.52641974047E+02  0.11787961569E+03  0.74330681362E+03  0.75443475557E+03  0.00000000000E+00 0. -1.
        -14    1    6    6    0    0 -0.36741623175E+01 -0.96501460220E+01  0.25173462135E+02  0.27208968795E+02  0.00000000000E+00 0.  1.
         -5    1    5    5    0  503 -0.22779699963E+02 -0.34211710239E+02  0.40811082505E+03  0.41020225666E+03  0.47000000000E+01 0.  1.
<mgrwt>
<rscale>  2 0.18987335E+03</rscale>
<asrwt>0</asrwt>
<pdfrwt beam="1">  1       21 0.25166688E+00 0.19007952E+03</pdfrwt>
<pdfrwt beam="2">  1       21 0.42238541E-02 0.19007952E+03</pdfrwt>
<totfact> 0.23300893E+04</totfact>
</mgrwt>
</event>
<event>
12    1  0.1441827E-001  0.1796749E+03  0.7546771E-02  0.1168373E+00
         21   -1    0    0  504  503  0.00000000000E+00  0.00000000000E+00  0.27276033878E+02  0.27276033878E+02  0.00000000000E+00 0. -1.
         21   -1    0    0  502  504 -0.00000000000E+00 -0.00000000000E+00 -0.13155659804E+04  0.13155659804E+04  0.00000000000E+00 0. -1.
          6    2    1    2  502    0 -0.41649539322E+02 -0.15707436892E+02 -0.86398742479E+03  0.88247229320E+03  0.17407374980E+03 0.  0.
         24    2    3    3    0    0 -0.17200742787E+02 -0.71087783226E+02 -0.63106802556E+03  0.64176861032E+03  0.90943706963E+02 0.  0.
         -6    2    1    2    0  503  0.41649539322E+02  0.15707436892E+02 -0.42430252169E+03  0.46036972104E+03  0.17299202998E+03 0.  0.
        -24    2    5    5    0    0  0.69826280233E+02  0.61121348422E+02 -0.26368532486E+03  0.29102886357E+03  0.80971107454E+02 0.  0.
          2    1    4    4  501    0 -0.41291995303E+02 -0.30023607008E+01 -0.16374632921E+03  0.16889909229E+03  0.00000000000E+00 0. -1.
         -1    1    4    4    0  501  0.24091252516E+02 -0.68085422526E+02 -0.46732169634E+03  0.47286951803E+03  0.00000000000E+00 0.  1.
          5    1    3    3  502    0 -0.24448796535E+02  0.55380346334E+02 -0.23291939923E+03  0.24070368288E+03  0.47000000000E+01 0. -1.
         11    1    6    6    0    0  0.60015826444E+02  0.85121344420E+01 -0.84299519891E+02  0.10383046234E+03  0.00000000000E+00 0. -1.
        -12    1    6    6    0    0  0.98104537898E+01  0.52609213980E+02 -0.17938580496E+03  0.18719840123E+03  0.00000000000E+00 0.  1.
         -5    1    5    5    0  503 -0.28176740911E+02 -0.45413911530E+02 -0.16061719683E+03  0.16934085747E+03  0.47000000000E+01 0.  1.
<mgrwt>
<rscale>  2 0.17941240E+03</rscale>
<asrwt>0</asrwt>
<pdfrwt beam="1">  1       21 0.41963128E-02 0.17967492E+03</pdfrwt>
<pdfrwt beam="2">  1       21 0.20239477E+00 0.17967492E+03</pdfrwt>
<totfact> 0.47276217E+04</totfact>
</mgrwt>
</event>
<event>
12    1  0.1441827E-001  0.2307453E+03  0.7546771E-02  0.1126362E+00
         21   -1    0    0  504  503  0.00000000000E+00  0.00000000000E+00  0.40902598272E+02  0.40902598272E+02  0.00000000000E+00 0. -1.
         21   -1    0    0  502  504 -0.00000000000E+00 -0.00000000000E+00 -0.17948859236E+04  0.17948859236E+04  0.00000000000E+00 0. -1.
          6    2    1    2  502    0  0.80655473402E+02  0.13041432158E+03 -0.13600364918E+04  0.13792389465E+04  0.17055090714E+03 0.  0.
         24    2    3    3    0    0  0.37304081824E+02  0.88159877440E+00 -0.65960413982E+03  0.66559643159E+03  0.80923523999E+02 0.  0.
         -6    2    1    2    0  503 -0.80655473402E+02 -0.13041432158E+03 -0.39394683357E+03  0.45654957539E+03  0.17242449490E+03 0.  0.
        -24    2    5    5    0    0  0.23425629718E+02 -0.42279922288E+02 -0.15618071129E+03  0.18240478286E+03  0.80887194749E+02 0.  0.
          4    1    4    4  501    0 -0.23986329876E+02  0.70903737998E+00 -0.28530322157E+03  0.28631062675E+03  0.00000000000E+00 0. -1.
         -3    1    4    4    0  501  0.61290411701E+02  0.17256139442E+00 -0.37430091825E+03  0.37928580484E+03  0.00000000000E+00 0.  1.
          5    1    3    3  502    0  0.43351391577E+02  0.12953272281E+03 -0.70043235194E+03  0.71364251490E+03  0.47000000000E+01 0. -1.
         11    1    6    6    0    0 -0.21355167610E+02 -0.36536134784E+02 -0.10982502616E+03  0.11769651099E+03  0.00000000000E+00 0. -1.
        -12    1    6    6    0    0  0.44780797328E+02 -0.57437875038E+01 -0.46355685134E+02  0.64708271871E+02  0.00000000000E+00 0.  1.
         -5    1    5    5    0  503 -0.10408110312E+03 -0.88134399296E+02 -0.23776612228E+03  0.27414479253E+03  0.47000000000E+01 0.  1.
<mgrwt>
<rscale>  2 0.23039537E+03</rscale>
<asrwt>0</asrwt>
<pdfrwt beam="1">  1       21 0.62927071E-02 0.23074533E+03</pdfrwt>
<pdfrwt beam="2">  1       21 0.27613631E+00 0.23074533E+03</pdfrwt>
<totfact> 0.82035509E+03</totfact>
</mgrwt>
</event>
<event>
12    1  0.1441827E-001  0.2001004E+03  0.7546771E-02  0.1149728E+00
         21   -1    0    0  504  503  0.00000000000E+00  0.00000000000E+00  0.56785114466E+02  0.56785114466E+02  0.00000000000E+00 0.  1.
         21   -1    0    0  502  504 -0.00000000000E+00 -0.00000000000E+00 -0.11111186607E+04  0.11111186607E+04  0.00000000000E+00 0.  1.
          6    2    1    2  502    0 -0.99289352021E+02  0.17566870367E+02 -0.88039868247E+03  0.90277452257E+03  0.17243267716E+03 0.  0.
         24    2    3    3    0    0 -0.59627162324E+02  0.58989559170E+02 -0.76504099421E+03  0.77386209229E+03  0.80868093170E+02 0.  0.
         -6    2    1    2    0  503  0.99289352021E+02 -0.17566870367E+02 -0.17393486371E+03  0.26512925254E+03  0.17283869179E+03 0.  0.
        -24    2    5    5    0    0  0.50769464107E+02  0.57220847269E+02 -0.85344251312E+02  0.13936054086E+03  0.79284016480E+02 0.  0.
          2    1    4    4  501    0 -0.27377796151E+02 -0.14197278531E+02 -0.33741652645E+03  0.33882299031E+03  0.00000000000E+00 0. -1.
         -1    1    4    4    0  501 -0.32249366173E+02  0.73186837701E+02 -0.42762446776E+03  0.43503910198E+03  0.00000000000E+00 0.  1.
          5    1    3    3  502    0 -0.39662189697E+02 -0.41422688803E+02 -0.11535768827E+03  0.12891243028E+03  0.47000000000E+01 0. -1.
         11    1    6    6    0    0  0.54717859645E+02  0.73420392084E+02 -0.80695960197E+02  0.12205095710E+03  0.00000000000E+00 0. -1.
        -12    1    6    6    0    0 -0.39483955376E+01 -0.16199544816E+02 -0.46482911154E+01  0.17309583757E+02  0.00000000000E+00 0.  1.
         -5    1    5    5    0  503  0.48519887914E+02 -0.74787717636E+02 -0.88590612401E+02  0.12576871168E+03  0.47000000000E+01 0.  1.
<mgrwt>
<rscale>  2 0.20001273E+03</rscale>
<asrwt>0</asrwt>
<pdfrwt beam="1">  1       21 0.87361719E-02 0.20010043E+03</pdfrwt>
<pdfrwt beam="2">  1       21 0.17094132E+00 0.20010043E+03</pdfrwt>
<totfact> 0.21515218E+04</totfact>
</mgrwt>
</event>
<event>
12    1  0.1441827E-001  0.1849413E+03  0.7546771E-02  0.1164628E+00
         21   -1    0    0  504  503  0.00000000000E+00  0.00000000000E+00  0.31652762080E+02  0.31652762080E+02  0.00000000000E+00 0. -1.
         21   -1    0    0  502  504 -0.00000000000E+00 -0.00000000000E+00 -0.11276954616E+04  0.11276954616E+04  0.00000000000E+00 0. -1.
          6    2    1    2  502    0 -0.39744427057E+02 -0.20443061004E+02 -0.71532111866E+03  0.73884204693E+03  0.17945954777E+03 0.  0.
         24    2    3    3    0    0 -0.26575522956E+02  0.58565453387E+02 -0.36343862913E+03  0.37792773325E+03  0.81274618821E+02 0.  0.
         -6    2    1    2    0  503  0.39744427057E+02  0.20443061004E+02 -0.38072158085E+03  0.42050617674E+03  0.17285538559E+03 0.  0.
        -24    2    5    5    0    0 -0.44120084093E+02  0.20739360395E+02 -0.17890761588E+03  0.20190994969E+03  0.79893615975E+02 0.  0.
          2    1    4    4  501    0 -0.50772643758E+02  0.50531569195E+02 -0.31656776061E+03  0.32457117540E+03  0.00000000000E+00 0. -1.
         -1    1    4    4    0  501  0.24197120802E+02  0.80338841914E+01 -0.46870868521E+02  0.53356557856E+02  0.00000000000E+00 0.  1.
          5    1    3    3  502    0 -0.13168904102E+02 -0.79008514391E+02 -0.35188248952E+03  0.36091431367E+03  0.47000000000E+01 0. -1.
         11    1    6    6    0    0 -0.16729026346E+02  0.32711666539E+02 -0.23410774774E+02  0.43565787331E+02  0.00000000000E+00 0. -1.
        -12    1    6    6    0    0 -0.27391057747E+02 -0.11972306144E+02 -0.15549684111E+03  0.15834416236E+03  0.00000000000E+00 0.  1.
         -5    1    5    5    0  503  0.83864511150E+02 -0.29629939103E+00 -0.20181396497E+03  0.21859622705E+03  0.47000000000E+01 0.  1.
<mgrwt>
<rscale>  2 0.18331973E+03</rscale>
<asrwt>0</asrwt>
<pdfrwt beam="1">  1       21 0.48696569E-02 0.18494125E+03</pdfrwt>
<pdfrwt beam="2">  1       21 0.17349157E+00 0.18494125E+03</pdfrwt>
<totfact> 0.57003092E+04</totfact>
</mgrwt>
</event>
<event>
12    1  0.1441827E-001  0.1835889E+03  0.7546771E-02  0.1164458E+00
         21   -1    0    0  504  503  0.00000000000E+00  0.00000000000E+00  0.80459806901E+02  0.80459806901E+02  0.00000000000E+00 0.  1.
         21   -1    0    0  502  504 -0.00000000000E+00 -0.00000000000E+00 -0.54785442126E+03  0.54785442126E+03  0.00000000000E+00 0. -1.
          6    2    1    2  502    0 -0.49610608353E+02 -0.30087580356E+02 -0.38641744306E+03  0.42765983246E+03  0.17380453688E+03 0.  0.
         24    2    3    3    0    0  0.60922834801E+01 -0.15526330259E+02 -0.75498964288E+02  0.11142063089E+03  0.80226432867E+02 0.  0.
         -6    2    1    2    0  503  0.49610608353E+02  0.30087580356E+02 -0.80977171298E+02  0.20065439571E+03  0.17417924472E+03 0.  0.
        -24    2    5    5    0    0  0.61018810268E+02 -0.16850776599E+02  0.56047410288E+01  0.10139778904E+03  0.79011737240E+02 0.  0.
          4    1    4    4  501    0  0.13870968968E+02  0.24356893684E+02 -0.28428420268E+01  0.28173459156E+02  0.00000000000E+00 0. -1.
         -3    1    4    4    0  501 -0.77786854883E+01 -0.39883223943E+02 -0.72656122261E+02  0.83247171735E+02  0.00000000000E+00 0.  1.
          5    1    3    3  502    0 -0.55702891833E+02 -0.14561250097E+02 -0.31091847878E+03  0.31623920157E+03  0.47000000000E+01 0. -1.
         13    1    6    6    0    0  0.85606027780E+01 -0.37721361695E+02 -0.14729408999E+02  0.41390101927E+02  0.00000000000E+00 0. -1.
        -14    1    6    6    0    0  0.52458207490E+02  0.20870585096E+02  0.20334150028E+02  0.60007687113E+02  0.00000000000E+00 0.  1.
         -5    1    5    5    0  503 -0.11408201915E+02  0.46938356955E+02 -0.86581912327E+02  0.99256606666E+02  0.47000000000E+01 0.  1.
<mgrwt>
<rscale>  2 0.18349997E+03</rscale>
<asrwt>0</asrwt>
<pdfrwt beam="1">  1       21 0.12378432E-01 0.18358890E+03</pdfrwt>
<pdfrwt beam="2">  1       21 0.84285298E-01 0.18358890E+03</pdfrwt>
<totfact> 0.68082285E+04</totfact>
</mgrwt>
</event>
<event>
12    1  0.1441827E-001  0.1795949E+03  0.7546771E-02  0.1168245E+00
         21   -1    0    0  504  503  0.00000000000E+00  0.00000000000E+00  0.38937869018E+03  0.38937869018E+03  0.00000000000E+00 0.  1.
         21   -1    0    0  502  504 -0.00000000000E+00 -0.00000000000E+00 -0.14718350381E+03  0.14718350381E+03  0.00000000000E+00 0.  1.
          6    2    1    2  502    0 -0.39756408345E+02 -0.18244572411E+02 -0.56458813323E+02  0.18806751478E+03  0.17397803335E+03 0.  0.
         24    2    3    3    0    0  0.34066107650E+02 -0.19744858486E+02 -0.71106938484E+02  0.11264422729E+03  0.77988243430E+02 0.  0.
         -6    2    1    2    0  503  0.39756408345E+02  0.18244572411E+02  0.29865399969E+03  0.34849467920E+03  0.17418637569E+03 0.  0.
        -24    2    5    5    0    0  0.47944292471E+02 -0.55073061657E+01  0.30759516522E+03  0.32141650305E+03  0.79779678895E+02 0.  0.
          4    1    4    4  501    0  0.17060851888E+02  0.11565794508E+02 -0.74076047084E+02  0.76890188069E+02  0.00000000000E+00 0. -1.
         -3    1    4    4    0  501  0.17005255763E+02 -0.31310652994E+02  0.29691085998E+01  0.35754039217E+02  0.00000000000E+00 0.  1.
          5    1    3    3  502    0 -0.73822515995E+02  0.15002860748E+01  0.14648125160E+02  0.75423287497E+02  0.47000000000E+01 0. -1.
         11    1    6    6    0    0  0.22005738412E+02  0.14490244042E+02  0.23094451240E+02  0.35036743192E+02  0.00000000000E+00 0. -1.
        -12    1    6    6    0    0  0.25938554059E+02 -0.19997550208E+02  0.28450071399E+03  0.28637975986E+03  0.00000000000E+00 0.  1.
         -5    1    5    5    0  503 -0.81878841260E+01  0.23751878577E+02 -0.89411655358E+01  0.27078176148E+02  0.47000000000E+01 0.  1.
<mgrwt>
<rscale>  2 0.17954437E+03</rscale>
<asrwt>0</asrwt>
<pdfrwt beam="1">  1       21 0.59904414E-01 0.17959491E+03</pdfrwt>
<pdfrwt beam="2">  1       21 0.22643616E-01 0.17959491E+03</pdfrwt>
<totfact> 0.47830265E+04</totfact>
</mgrwt>
</event>
<event>
12    1  0.1441827E-001  0.1957103E+03  0.7546771E-02  0.1153827E+00
         21   -1    0    0  504  503  0.00000000000E+00  0.00000000000E+00  0.43914644223E+03  0.43914644223E+03  0.00000000000E+00 0.  1.
         21   -1    0    0  502  504 -0.00000000000E+00 -0.00000000000E+00 -0.14595354118E+03  0.14595354118E+03  0.00000000000E+00 0.  1.
          6    2    1    2  502    0  0.69901583666E+02 -0.52482385134E+02 -0.40750740373E+02  0.19803296429E+03  0.17296184538E+03 0.  0.
         24    2    3    3    0    0  0.47503724363E+02 -0.30852850993E+02 -0.94994267218E+02  0.13531174736E+03  0.77954191210E+02 0.  0.
         -6    2    1    2    0  503 -0.69901583666E+02  0.52482385134E+02  0.33394364142E+03  0.38706701912E+03  0.17510536684E+03 0.  0.
        -24    2    5    5    0    0 -0.92025287554E+02  0.89255615623E+02  0.22112592634E+03  0.26627109373E+03  0.74621723299E+02 0.  0.
          2    1    4    4  501    0 -0.22538470676E+01 -0.44660238204E+02 -0.43351182703E+02  0.62281150799E+02  0.00000000000E+00 0. -1.
         -1    1    4    4    0  501  0.49757571431E+02  0.13807387211E+02 -0.51643084515E+02  0.73030596564E+02  0.00000000000E+00 0.  1.
          5    1    3    3  502    0  0.22397859302E+02 -0.21629534140E+02  0.54243526845E+02  0.62721216929E+02  0.47000000000E+01 0. -1.
         13    1    6    6    0    0 -0.50370011809E+02  0.21967575983E+02  0.38097965099E+02  0.66866788684E+02  0.00000000000E+00 0. -1.
        -14    1    6    6    0    0 -0.41655275745E+02  0.67288039640E+02  0.18302796124E+03  0.19940430505E+03  0.00000000000E+00 0.  1.
         -5    1    5    5    0  503  0.22123703888E+02 -0.36773230489E+02  0.11281771509E+03  0.12079592539E+03  0.47000000000E+01 0.  1.
<mgrwt>
<rscale>  2 0.19522966E+03</rscale>
<asrwt>0</asrwt>
<pdfrwt beam="1">  1       21 0.67560991E-01 0.19571030E+03</pdfrwt>
<pdfrwt beam="2">  1       21 0.22454391E-01 0.19571030E+03</pdfrwt>
<totfact> 0.37144383E+04</totfact>
</mgrwt>
</event>
<event>
12    1  0.1441827E-001  0.1868058E+03  0.7546771E-02  0.1161685E+00
         21   -1    0    0  504  503  0.00000000000E+00  0.00000000000E+00  0.47725890620E+03  0.47725890620E+03  0.00000000000E+00 0.  1.
         21   -1    0    0  502  504 -0.00000000000E+00 -0.00000000000E+00 -0.17143448093E+03  0.17143448093E+03  0.00000000000E+00 0.  1.
          6    2    1    2  502    0 -0.82214189647E+01  0.65683148250E+02 -0.93133031136E+02  0.20873469958E+03  0.17468413100E+03 0.  0.
         24    2    3    3    0    0 -0.58381476533E+02  0.81099368360E+02 -0.43359980644E+02  0.13625616639E+03  0.81854447691E+02 0.  0.
         -6    2    1    2    0  503  0.82214189647E+01 -0.65683148250E+02  0.39895745641E+03  0.43995868755E+03  0.17324758883E+03 0.  0.
        -24    2    5    5    0    0  0.34655255871E+02 -0.10093897926E+03  0.23771965891E+03  0.27274194588E+03  0.80547306076E+02 0.  0.
          4    1    4    4  501    0 -0.76994990643E+02  0.47900380575E+02 -0.25391112619E+02  0.94166786307E+02  0.00000000000E+00 0. -1.
         -3    1    4    4    0  501  0.18613514111E+02  0.33198987785E+02 -0.17968868025E+02  0.42089380081E+02  0.00000000000E+00 0.  1.
          5    1    3    3  502    0  0.50160057568E+02 -0.15416220110E+02 -0.49773050492E+02  0.72478533187E+02  0.47000000000E+01 0. -1.
         11    1    6    6    0    0  0.19690244250E+02 -0.12721124036E+02  0.57843343410E+01  0.24145211516E+02  0.00000000000E+00 0. -1.
        -12    1    6    6    0    0  0.14965011621E+02 -0.88217855223E+02  0.23193532457E+03  0.24859673436E+03  0.00000000000E+00 0.  1.
         -5    1    5    5    0  503 -0.26433836907E+02  0.35255831010E+02  0.16123779750E+03  0.16721674167E+03  0.47000000000E+01 0.  1.
<mgrwt>
<rscale>  2 0.18646925E+03</rscale>
<asrwt>0</asrwt>
<pdfrwt beam="1">  1       21 0.73424446E-01 0.18680582E+03</pdfrwt>
<pdfrwt beam="2">  1       21 0.26374536E-01 0.18680582E+03</pdfrwt>
<totfact> 0.22867214E+04</totfact>
</mgrwt>
</event>
<event>
12    1  0.1441827E-001  0.1804208E+03  0.7546771E-02  0.1167594E+00
         21   -1    0    0  504  503  0.00000000000E+00  0.00000000000E+00  0.83656604816E+02  0.83656604816E+02  0.00000000000E+00 0.  1.
         21   -1    0    0  502  504 -0.00000000000E+00 -0.00000000000E+00 -0.70732181285E+03  0.70732181285E+03  0.00000000000E+00 0.  1.
          6    2    1    2  502    0 -0.49999143105E+02 -0.48287826751E+01 -0.57821747190E+03  0.60571206517E+03  0.17328713058E+03 0.  0.
         24    2    3    3    0    0 -0.29619290677E+02  0.34510949910E+02 -0.15557120071E+03  0.18072393181E+03  0.79940183848E+02 0.  0.
         -6    2    1    2    0  503  0.49999143105E+02  0.48287826751E+01 -0.45447736130E+02  0.18526635250E+03  0.17243808510E+03 0.  0.
        -24    2    5    5    0    0  0.15727646153E+01  0.22547193699E+02 -0.84853684364E+02  0.12019735082E+03  0.82075610640E+02 0.  0.
          4    1    4    4  501    0 -0.14738146140E+02  0.36470116986E+02 -0.19639031365E+02  0.43965599479E+02  0.00000000000E+00 0. -1.
         -3    1    4    4    0  501 -0.14881144536E+02 -0.19591670755E+01 -0.13593216934E+03  0.13675833233E+03  0.00000000000E+00 0.  1.
          5    1    3    3  502    0 -0.20379852428E+02 -0.39339732585E+02 -0.42264627119E+03  0.42498813336E+03  0.47000000000E+01 0. -1.
         13    1    6    6    0    0 -0.14809597489E+02 -0.26452222099E+02 -0.16501968190E+02  0.34516071415E+02  0.00000000000E+00 0. -1.
        -14    1    6    6    0    0  0.16382362104E+02  0.48999415798E+02 -0.68351716174E+02  0.85681279406E+02  0.00000000000E+00 0.  1.
         -5    1    5    5    0  503  0.48426378490E+02 -0.17718411024E+02  0.39405948234E+02  0.65069001675E+02  0.47000000000E+01 0.  1.
<mgrwt>
<rscale>  2 0.18021661E+03</rscale>
<asrwt>0</asrwt>
<pdfrwt beam="1">  1       21 0.12870247E-01 0.18042079E+03</pdfrwt>
<pdfrwt beam="2">  1       21 0.10881874E+00 0.18042079E+03</pdfrwt>
<totfact> 0.34932598E+04</totfact>
</mgrwt>
</event>
<event>
12    1  0.1441827E-001  0.2080229E+03  0.7546771E-02  0.1143192E+00
         21   -1    0    0  504  503  0.00000000000E+00  0.00000000000E+00  0.11887383752E+04  0.11887383752E+04  0.00000000000E+00 0.  1.
         21   -1    0    0  502  504 -0.00000000000E+00 -0.00000000000E+00 -0.53597011327E+02  0.53597011327E+02  0.00000000000E+00 0.  1.
          6    2    1    2  502    0 -0.48800225720E+02  0.10548380123E+03  0.21506119748E+03  0.29903212652E+03  0.17222252952E+03 0.  0.
         24    2    3    3    0    0 -0.69880516804E+02  0.42580964588E+02  0.57388413079E+02  0.12790660980E+03  0.79813818982E+02 0.  0.
         -6    2    1    2    0  503  0.48800225720E+02 -0.10548380123E+03  0.92008016636E+03  0.94330325998E+03  0.17252603691E+03 0.  0.
        -24    2    5    5    0    0 -0.98516429393E+01  0.90085076849E+01  0.38935305407E+03  0.39718798990E+03  0.77358196248E+02 0.  0.
          4    1    4    4  501    0 -0.21373095166E+02 -0.12763188774E+02 -0.11208631381E+02  0.27300945077E+02  0.00000000000E+00 0. -1.
         -3    1    4    4    0  501 -0.48507421637E+02  0.55344153362E+02  0.68597044461E+02  0.10060566472E+03  0.00000000000E+00 0.  1.
          5    1    3    3  502    0  0.21080291084E+02  0.62902836642E+02  0.15767278440E+03  0.17112551672E+03  0.47000000000E+01 0. -1.
         13    1    6    6    0    0 -0.27308030168E+02  0.54506507243E+00  0.36514746192E+03  0.36616757715E+03  0.00000000000E+00 0. -1.
        -14    1    6    6    0    0  0.17456387228E+02  0.84634426125E+01  0.24205592150E+02  0.31020412751E+02  0.00000000000E+00 0.  1.
         -5    1    5    5    0  503  0.58651868659E+02 -0.11449230891E+03  0.53072711228E+03  0.54611527008E+03  0.47000000000E+01 0.  1.
<mgrwt>
<rscale>  2 0.20795996E+03</rscale>
<asrwt>0</asrwt>
<pdfrwt beam="1">  1       21 0.18288281E+00 0.20802290E+03</pdfrwt>
<pdfrwt beam="2">  1       21 0.82456950E-02 0.20802290E+03</pdfrwt>
<totfact> 0.19585626E+04</totfact>
</mgrwt>
</event>
<event>
12    1  0.1441827E-001  0.2148631E+03  0.7546771E-02  0.1138079E+00
         21   -1    0    0  504  503  0.00000000000E+00  0.00000000000E+00  0.43594720350E+03  0.43594720350E+03  0.00000000000E+00 0.  1.
         21   -1    0    0  502  504 -0.00000000000E+00 -0.00000000000E+00 -0.19624836569E+03  0.19624836569E+03  0.00000000000E+00 0. -1.
          6    2    1    2  502    0  0.11753126212E+03 -0.44468232818E+02 -0.95792424317E+02  0.23379808895E+03  0.17232044723E+03 0.  0.
         24    2    3    3    0    0  0.14662006514E+03 -0.60720980376E+02 -0.85533090663E+02  0.19861777924E+03  0.83358452921E+02 0.  0.
         -6    2    1    2    0  503 -0.11753126212E+03  0.44468232818E+02  0.33549126213E+03  0.39839748025E+03  0.17428466369E+03 0.  0.
        -24    2    5    5    0    0 -0.99651799117E+02  0.84878372723E+02  0.31157878715E+03  0.34793411667E+03  0.82716320726E+02 0.  0.
          4    1    4    4  501    0  0.15534955613E+03 -0.50187930463E+02 -0.86769553111E+02  0.18488176844E+03  0.00000000000E+00 0. -1.
         -3    1    4    4    0  501 -0.87294909901E+01 -0.10533049913E+02  0.12364624483E+01  0.13736010804E+02  0.00000000000E+00 0.  1.
          5    1    3    3  502    0 -0.29088803015E+02  0.16252747558E+02 -0.10259333654E+02  0.35180309706E+02  0.47000000000E+01 0. -1.
         11    1    6    6    0    0 -0.77936289234E+02  0.74876523372E+02  0.15160934656E+03  0.18618795046E+03  0.00000000000E+00 0. -1.
        -12    1    6    6    0    0 -0.21715509884E+02  0.10001849351E+02  0.15996944059E+03  0.16174616621E+03  0.00000000000E+00 0.  1.
         -5    1    5    5    0  503 -0.17879463005E+02 -0.40410139905E+02  0.23912474976E+02  0.50463363582E+02  0.47000000000E+01 0.  1.
<mgrwt>
<rscale>  2 0.21446448E+03</rscale>
<asrwt>0</asrwt>
<pdfrwt beam="1">  1       21 0.67068800E-01 0.21486313E+03</pdfrwt>
<pdfrwt beam="2">  1       21 0.30192056E-01 0.21486313E+03</pdfrwt>
<totfact> 0.21145283E+04</totfact>
</mgrwt>
</event>
<event>
12    1  0.1441827E-001  0.1904242E+03  0.7546771E-02  0.1158630E+00
         21   -1    0    0  504  503  0.00000000000E+00  0.00000000000E+00  0.35782439687E+03  0.35782439687E+03  0.00000000000E+00 0.  1.
         21   -1    0    0  502  504 -0.00000000000E+00 -0.00000000000E+00 -0.18399375398E+03  0.18399375398E+03  0.00000000000E+00 0.  1.
          6    2    1    2  502    0  0.46039722871E+02 -0.64577060873E+02  0.26959691329E+03  0.32866904664E+03  0.17044352053E+03 0.  0.
         24    2    3    3    0    0 -0.31895427338E+02 -0.47353020410E+02  0.71585267170E+02  0.11512453792E+03  0.69782389808E+02 0.  0.
         -6    2    1    2    0  503 -0.46039722871E+02  0.64577060873E+02 -0.95766270391E+02  0.21314910421E+03  0.17312281539E+03 0.  0.
        -24    2    5    5    0    0 -0.95227228395E+01 -0.12013607951E+02  0.62784911165E+01  0.80352849770E+02  0.78626662076E+02 0.  0.
          4    1    4    4  501    0 -0.52930553639E+02 -0.42023377638E+02  0.60729594129E+02  0.90860835236E+02  0.00000000000E+00 0. -1.
         -3    1    4    4    0  501  0.21035126300E+02 -0.53296427720E+01  0.10855673040E+02  0.24263702679E+02  0.00000000000E+00 0.  1.
          5    1    3    3  502    0  0.77935150210E+02 -0.17224040463E+02  0.19801164612E+03  0.21354450873E+03  0.47000000000E+01 0. -1.
         11    1    6    6    0    0 -0.43023396461E+01  0.22651985349E+02  0.30138726633E+02  0.37946876153E+02  0.00000000000E+00 0. -1.
        -12    1    6    6    0    0 -0.52203831934E+01 -0.34665593300E+02 -0.23860235517E+02  0.42405973617E+02  0.00000000000E+00 0.  1.
         -5    1    5    5    0  503 -0.36517000032E+02  0.76590668824E+02 -0.10204476151E+03  0.13279625444E+03  0.47000000000E+01 0.  1.
<mgrwt>
<rscale>  2 0.18981309E+03</rscale>
<asrwt>0</asrwt>
<pdfrwt beam="1">  1       21 0.55049907E-01 0.19042416E+03</pdfrwt>
<pdfrwt beam="2">  1       21 0.28306731E-01 0.19042416E+03</pdfrwt>
<totfact> 0.37181705E+04</totfact>
</mgrwt>
</event>
<event>
12    1  0.1441827E-001  0.1889528E+03  0.7546771E-02  0.1159745E+00
         21   -1    0    0  504  503  0.00000000000E+00  0.00000000000E+00  0.76970467335E+02  0.76970467335E+02  0.00000000000E+00 0.  1.
         21   -1    0    0  502  504 -0.00000000000E+00 -0.00000000000E+00 -0.46321046492E+03  0.46321046492E+03  0.00000000000E+00 0. -1.
          6    2    1    2  502    0  0.71428454973E+02  0.65878248510E+01 -0.21395455272E+03  0.28447518939E+03  0.17321708673E+03 0.  0.
         24    2    3    3    0    0  0.67842538150E+02  0.53913527722E+02 -0.79714135642E+02  0.14201410513E+03  0.79400152275E+02 0.  0.
         -6    2    1    2    0  503 -0.71428454973E+02 -0.65878248510E+01 -0.17228544486E+03  0.25570574286E+03  0.17480769091E+03 0.  0.
        -24    2    5    5    0    0  0.24434869405E+02  0.18095053382E+02 -0.12701169379E+03  0.14675243187E+03  0.66931398472E+02 0.  0.
          2    1    4    4  501    0  0.38113195392E+02  0.73239244550E+00 -0.70838806982E+02  0.80444320099E+02  0.00000000000E+00 0. -1.
         -1    1    4    4    0  501  0.29729342759E+02  0.53181135277E+02 -0.88753286597E+01  0.61569785033E+02  0.00000000000E+00 0.  1.
          5    1    3    3  502    0  0.35859168225E+01 -0.47325702871E+02 -0.13424041708E+03  0.14246108426E+03  0.47000000000E+01 0. -1.
         13    1    6    6    0    0  0.30220682751E+02 -0.60575203477E+01 -0.11519793093E+03  0.11924993295E+03  0.00000000000E+00 0. -1.
        -14    1    6    6    0    0 -0.57858133453E+01  0.24152573730E+02 -0.11813762856E+02  0.27502498916E+02  0.00000000000E+00 0.  1.
         -5    1    5    5    0  503 -0.95863324378E+02 -0.24682878233E+02 -0.45273751076E+02  0.10895331099E+03  0.47000000000E+01 0.  1.
<mgrwt>
<rscale>  2 0.18858406E+03</rscale>
<asrwt>0</asrwt>
<pdfrwt beam="1">  1       21 0.11841610E-01 0.18895278E+03</pdfrwt>
<pdfrwt beam="2">  1       21 0.71263148E-01 0.18895278E+03</pdfrwt>
<totfact> 0.10718652E+05</totfact>
</mgrwt>
</event>
<event>
12    1  0.1441827E-001  0.1980449E+03  0.7546771E-02  0.1151865E+00
         21   -1    0    0  504  503  0.00000000000E+00  0.00000000000E+00  0.34259185741E+02  0.34259185741E+02  0.00000000000E+00 0. -1.
         21   -1    0    0  502  504 -0.00000000000E+00 -0.00000000000E+00 -0.11351442761E+04  0.11351442761E+04  0.00000000000E+00 0. -1.
          6    2    1    2  502    0  0.91453130119E+02 -0.61630015369E+01 -0.57634233060E+03  0.60871915205E+03  0.17310940597E+03 0.  0.
         24    2    3    3    0    0  0.42280216168E+02 -0.25646659962E+02 -0.13878430495E+03  0.16795084078E+03  0.80628988407E+02 0.  0.
         -6    2    1    2    0  503 -0.91453130119E+02  0.61630015369E+01 -0.52454275977E+03  0.56068430980E+03  0.17555663141E+03 0.  0.
        -24    2    5    5    0    0  0.19181758427E+02  0.18901157515E+02 -0.17120757873E+03  0.19018440515E+03  0.78312702277E+02 0.  0.
          4    1    4    4  501    0 -0.13811735705E+02  0.15498594137E+02 -0.56546764485E+02  0.60237090211E+02  0.00000000000E+00 0. -1.
         -3    1    4    4    0  501  0.56091951873E+02 -0.41145254098E+02 -0.82237540470E+02  0.10771375057E+03  0.00000000000E+00 0.  1.
          5    1    3    3  502    0  0.49172913951E+02  0.19483658425E+02 -0.43755802565E+03  0.44076831127E+03  0.47000000000E+01 0. -1.
         11    1    6    6    0    0 -0.20468137755E+02  0.15284657560E+02 -0.16441424408E+02  0.30379036464E+02  0.00000000000E+00 0. -1.
        -12    1    6    6    0    0  0.39649896182E+02  0.36164999547E+01 -0.15476615432E+03  0.15980536869E+03  0.00000000000E+00 0.  1.
         -5    1    5    5    0  503 -0.11063488855E+03 -0.12738155978E+02 -0.35333518104E+03  0.37049990464E+03  0.47000000000E+01 0.  1.
<mgrwt>
<rscale>  2 0.19750116E+03</rscale>
<asrwt>0</asrwt>
<pdfrwt beam="1">  1       21 0.52706430E-02 0.19804492E+03</pdfrwt>
<pdfrwt beam="2">  1       21 0.17463761E+00 0.19804492E+03</pdfrwt>
<totfact> 0.48556249E+04</totfact>
</mgrwt>
</event>
<event>
12    1  0.1441827E-001  0.2373895E+03  0.7546771E-02  0.1121687E+00
         21   -1    0    0  504  503  0.00000000000E+00  0.00000000000E+00  0.97092562260E+02  0.97092562260E+02  0.00000000000E+00 0. -1.
         21   -1    0    0  502  504 -0.00000000000E+00 -0.00000000000E+00 -0.62220278883E+03  0.62220278883E+03  0.00000000000E+00 0. -1.
          6    2    1    2  502    0  0.13149951029E+03 -0.93975049207E+02 -0.35846871618E+03  0.42994606402E+03  0.17386881952E+03 0.  0.
         24    2    3    3    0    0  0.16306670542E+03 -0.92961332706E+02 -0.32995322133E+03  0.38713556442E+03  0.75975372194E+02 0.  0.
         -6    2    1    2    0  503 -0.13149951029E+03  0.93975049207E+02 -0.16664151039E+03  0.28934928707E+03  0.17271417389E+03 0.  0.
        -24    2    5    5    0    0 -0.11735395163E+03  0.45743432017E+01 -0.77149750570E+02  0.16197798677E+03  0.80572387370E+02 0.  0.
          4    1    4    4  501    0  0.83380578752E+02 -0.45985783364E+02 -0.23960357144E+03  0.25783111650E+03  0.00000000000E+00 0. -1.
         -3    1    4    4    0  501  0.79686126665E+02 -0.46975549342E+02 -0.90349649882E+02  0.12930444792E+03  0.00000000000E+00 0.  1.
          5    1    3    3  502    0 -0.31567195124E+02 -0.10137165008E+01 -0.28515494855E+02  0.42810499599E+02  0.47000000000E+01 0. -1.
         13    1    6    6    0    0 -0.25551451061E+02 -0.10866503236E+02  0.14515141501E+02  0.31331244416E+02  0.00000000000E+00 0. -1.
        -14    1    6    6    0    0 -0.91802500574E+02  0.15440846438E+02 -0.91664892071E+02  0.13064674236E+03  0.00000000000E+00 0.  1.
         -5    1    5    5    0  503 -0.14145558659E+02  0.89400706005E+02 -0.89491759817E+02  0.12737130030E+03  0.47000000000E+01 0.  1.
<mgrwt>
<rscale>  2 0.23717817E+03</rscale>
<asrwt>0</asrwt>
<pdfrwt beam="1">  1       21 0.14937317E-01 0.23738955E+03</pdfrwt>
<pdfrwt beam="2">  1       21 0.95723508E-01 0.23738955E+03</pdfrwt>
<totfact> 0.35151444E+04</totfact>
</mgrwt>
</event>
<event>
12    1  0.1441827E-001  0.2769846E+03  0.7546771E-02  0.1097423E+00
         21   -1    0    0  504  503  0.00000000000E+00  0.00000000000E+00  0.63240134199E+02  0.63240134199E+02  0.00000000000E+00 0.  1.
         21   -1    0    0  502  504 -0.00000000000E+00 -0.00000000000E+00 -0.15739970185E+04  0.15739970185E+04  0.00000000000E+00 0.  1.
          6    2    1    2  502    0  0.21434298633E+03  0.25844927735E+02 -0.11492108663E+04  0.11821193144E+04  0.17352112881E+03 0.  0.
         24    2    3    3    0    0  0.10037208700E+03  0.24270839256E+02 -0.87676347372E+03  0.88675256715E+03  0.83380435438E+02 0.  0.
         -6    2    1    2    0  503 -0.21434298633E+03 -0.25844927735E+02 -0.36154601797E+03  0.45511783828E+03  0.17264370112E+03 0.  0.
        -24    2    5    5    0    0 -0.19141439019E+03 -0.44195345792E+02 -0.36767389855E+03  0.42475175055E+03  0.81469359599E+02 0.  0.
          4    1    4    4  501    0  0.57225586926E+01  0.34226976755E+02 -0.32431430097E+03  0.32616560124E+03  0.00000000000E+00 0. -1.
         -3    1    4    4    0  501  0.94649528309E+02 -0.99561374991E+01 -0.55244917275E+03  0.56058696591E+03  0.00000000000E+00 0.  1.
          5    1    3    3  502    0  0.11397089932E+03  0.15740884793E+01 -0.27244739258E+03  0.29536674724E+03  0.47000000000E+01 0. -1.
         11    1    6    6    0    0 -0.14530127233E+03  0.47199888957E+00 -0.28667708801E+03  0.32139762804E+03  0.00000000000E+00 0. -1.
        -12    1    6    6    0    0 -0.46113117858E+02 -0.44667344682E+02 -0.80996810545E+02  0.10335412250E+03  0.00000000000E+00 0.  1.
         -5    1    5    5    0  503 -0.22928596138E+02  0.18350418057E+02  0.61278805880E+01  0.30366087734E+02  0.47000000000E+01 0.  1.
<mgrwt>
<rscale>  2 0.27684727E+03</rscale>
<asrwt>0</asrwt>
<pdfrwt beam="1">  1       21 0.97292515E-02 0.27698458E+03</pdfrwt>
<pdfrwt beam="2">  1       21 0.24215339E+00 0.27698458E+03</pdfrwt>
<totfact> 0.58694732E+03</totfact>
</mgrwt>
</event>
<event>
12    1  0.1441827E-001  0.1830622E+03  0.7546771E-02  0.1165027E+00
         21   -1    0    0  504  503  0.00000000000E+00  0.00000000000E+00  0.15295243522E+03  0.15295243522E+03  0.00000000000E+00 0.  1.
         21   -1    0    0  502  504 -0.00000000000E+00 -0.00000000000E+00 -0.31794816287E+03  0.31794816287E+03  0.00000000000E+00 0. -1.
          6    2    1    2  502    0 -0.26151319993E+02  0.55147946685E+02 -0.21439796402E+03  0.28191886583E+03  0.17258786856E+03 0.  0.
         24    2    3    3    0    0 -0.57909074863E+02  0.93656981026E+02 -0.15283140060E+03  0.20252092850E+03  0.74378749825E+02 0.  0.
         -6    2    1    2    0  503  0.26151319993E+02 -0.55147946685E+02  0.49402236362E+02  0.18898173227E+03  0.17189626701E+03 0.  0.
        -24    2    5    5    0    0  0.30775983634E+02  0.27790983934E+02 -0.73721107276E+01  0.88256014532E+02  0.77558211222E+02 0.  0.
          4    1    4    4  501    0 -0.55951700108E+02  0.64078949942E+02 -0.15038384384E+03  0.17277732796E+03  0.00000000000E+00 0. -1.
         -3    1    4    4    0  501 -0.19573747552E+01  0.29578031084E+02 -0.24475567580E+01  0.29743600535E+02  0.00000000000E+00 0.  1.
          5    1    3    3  502    0  0.31757754870E+02 -0.38509034341E+02 -0.61566563420E+02  0.79397937326E+02  0.47000000000E+01 0. -1.
         11    1    6    6    0    0  0.54369966690E+02  0.24006824299E+02 -0.18005067319E+02  0.62101556663E+02  0.00000000000E+00 0. -1.
        -12    1    6    6    0    0 -0.23593983056E+02  0.37841596351E+01  0.10632956591E+02  0.26154457870E+02  0.00000000000E+00 0.  1.
         -5    1    5    5    0  503 -0.46246636406E+01 -0.82938930619E+02  0.56774347090E+02  0.10072571774E+03  0.47000000000E+01 0.  1.
<mgrwt>
<rscale>  2 0.18289899E+03</rscale>
<asrwt>0</asrwt>
<pdfrwt beam="1">  1       21 0.23531144E-01 0.18306218E+03</pdfrwt>
<pdfrwt beam="2">  1       21 0.48915101E-01 0.18306218E+03</pdfrwt>
<totfact> 0.68070178E+04</totfact>
</mgrwt>
</event>
<event>
12    1  0.1441827E-001  0.2337799E+03  0.7546771E-02  0.1124123E+00
         21   -1    0    0  504  503  0.00000000000E+00  0.00000000000E+00  0.23761437044E+03  0.23761437044E+03  0.00000000000E+00 0. -1.
         21   -1    0    0  502  504 -0.00000000000E+00 -0.00000000000E+00 -0.50291035534E+03  0.50291035534E+03  0.00000000000E+00 0.  1.
          6    2    1    2  502    0  0.60307580110E+02  0.14551651232E+03 -0.40564326075E+03  0.46785205279E+03  0.17183430604E+03 0.  0.
         24    2    3    3    0    0  0.10035568088E+03  0.10780256645E+03 -0.35750789925E+03  0.39460387797E+03  0.78788745769E+02 0.  0.
         -6    2    1    2    0  503 -0.60307580110E+02 -0.14551651232E+03  0.14034727585E+03  0.27267267299E+03  0.17274538831E+03 0.  0.
        -24    2    5    5    0    0 -0.29003797347E+02 -0.15183309178E+03  0.16045644145E+03  0.23464249376E+03  0.73595667362E+02 0.  0.
          2    1    4    4  501    0  0.51699294847E+02  0.20456073166E+02 -0.65298767917E+02  0.85762445793E+02  0.00000000000E+00 0. -1.
         -1    1    4    4    0  501  0.48656386038E+02  0.87346493287E+02 -0.29220913134E+03  0.30884143217E+03  0.00000000000E+00 0.  1.
          5    1    3    3  502    0 -0.40048100774E+02  0.37713945870E+02 -0.48135361497E+02  0.73248174824E+02  0.47000000000E+01 0. -1.
         13    1    6    6    0    0 -0.31665476270E+02 -0.98709756834E+02  0.56971048670E+02  0.11828786442E+03  0.00000000000E+00 0. -1.
        -14    1    6    6    0    0  0.26616789224E+01 -0.53123334945E+02  0.10348539278E+03  0.11635462934E+03  0.00000000000E+00 0.  1.
         -5    1    5    5    0  503 -0.31303782763E+02  0.63165794569E+01 -0.20109165603E+02  0.38030179234E+02  0.47000000000E+01 0.  1.
<mgrwt>
<rscale>  2 0.23361159E+03</rscale>
<asrwt>0</asrwt>
<pdfrwt beam="1">  1       21 0.36556058E-01 0.23377987E+03</pdfrwt>
<pdfrwt beam="2">  1       21 0.77370823E-01 0.23377987E+03</pdfrwt>
<totfact> 0.10420955E+04</totfact>
</mgrwt>
</event>
<event>
12    1  0.1441827E-001  0.2168643E+03  0.7546771E-02  0.1136501E+00
         21   -1    0    0  504  503  0.00000000000E+00  0.00000000000E+00  0.28714546007E+03  0.28714546007E+03  0.00000000000E+00 0. -1.
         21   -1    0    0  502  504 -0.00000000000E+00 -0.00000000000E+00 -0.16615470622E+03  0.16615470622E+03  0.00000000000E+00 0. -1.
          6    2    1    2  502    0 -0.89659383900E+02 -0.96079645264E+02  0.28301804874E+02  0.21870326795E+03  0.17251093849E+03 0.  0.
         24    2    3    3    0    0 -0.74908604497E+02 -0.59672156991E+01  0.34472923354E+02  0.12706262108E+03  0.96486374900E+02 0.  0.
         -6    2    1    2    0  503  0.89659383900E+02  0.96079645264E+02  0.92688948975E+02  0.23459689833E+03  0.17080503531E+03 0.  0.
        -24    2    5    5    0    0 -0.17068612370E+02  0.48594627715E+02  0.64350275675E+02  0.11430200033E+03  0.79190996519E+02 0.  0.
          4    1    4    4  501    0 -0.75693083959E+02 -0.30419748333E+02  0.52201445530E+02  0.96849341574E+02  0.00000000000E+00 0. -1.
         -3    1    4    4    0  501  0.78447946209E+00  0.24452532634E+02 -0.17728522176E+02  0.30213279510E+02  0.00000000000E+00 0.  1.
          5    1    3    3  502    0 -0.14750779403E+02 -0.90112429565E+02 -0.61711184796E+01  0.91640646868E+02  0.47000000000E+01 0. -1.
         11    1    6    6    0    0  0.98627729132E+01  0.62014404624E+02  0.33351799869E+02  0.71101358812E+02  0.00000000000E+00 0. -1.
        -12    1    6    6    0    0 -0.26931385284E+02 -0.13419776909E+02  0.30998475805E+02  0.43200641521E+02  0.00000000000E+00 0.  1.
         -5    1    5    5    0  503  0.10672799627E+03  0.47485017549E+02  0.28338673301E+02  0.12029489800E+03  0.47000000000E+01 0.  1.
<mgrwt>
<rscale>  2 0.21652488E+03</rscale>
<asrwt>0</asrwt>
<pdfrwt beam="1">  1       21 0.44176225E-01 0.21686431E+03</pdfrwt>
<pdfrwt beam="2">  1       21 0.25562263E-01 0.21686431E+03</pdfrwt>
<totfact> 0.70694508E+04</totfact>
</mgrwt>
</event>
<event>
12    1  0.1441827E-001  0.2103141E+03  0.7546771E-02  0.1141383E+00
         21   -1    0    0  504  503  0.00000000000E+00  0.00000000000E+00  0.97497245374E+02  0.97497245374E+02  0.00000000000E+00 0. -1.
         21   -1    0    0  502  504 -0.00000000000E+00 -0.00000000000E+00 -0.46474298603E+03  0.46474298603E+03  0.00000000000E+00 0. -1.
          6    2    1    2  502    0 -0.24831720428E+02 -0.11715430443E+03 -0.13871102239E+03  0.25165988244E+03  0.17248247247E+03 0.  0.
         24    2    3    3    0    0  0.26964359337E+02 -0.71815046297E+02 -0.14441491578E+03  0.18242761679E+03  0.80868349298E+02 0.  0.
         -6    2    1    2    0  503  0.24831720428E+02  0.11715430443E+03 -0.22853471826E+03  0.31058034896E+03  0.17288808613E+03 0.  0.
        -24    2    5    5    0    0  0.65477358761E+02  0.10240467782E+03 -0.10460299835E+03  0.17923812193E+03  0.80065688912E+02 0.  0.
          4    1    4    4  501    0 -0.22947414651E+02 -0.23781272931E+02 -0.16446814184E+02  0.36913825028E+02  0.00000000000E+00 0. -1.
         -3    1    4    4    0  501  0.49911773988E+02 -0.48033773366E+02 -0.12796810160E+03  0.14551379176E+03  0.00000000000E+00 0.  1.
          5    1    3    3  502    0 -0.51796079766E+02 -0.45339258135E+02  0.57038933867E+01  0.69232265651E+02  0.47000000000E+01 0. -1.
         11    1    6    6    0    0  0.75561809767E+01  0.85709711834E+01  0.13481409561E+02  0.17672176486E+02  0.00000000000E+00 0. -1.
        -12    1    6    6    0    0  0.57921177785E+02  0.93833706635E+02 -0.11808440791E+03  0.16156594545E+03  0.00000000000E+00 0.  1.
         -5    1    5    5    0  503 -0.40645638333E+02  0.14749626614E+02 -0.12393171991E+03  0.13134222703E+03  0.47000000000E+01 0.  1.
<mgrwt>
<rscale>  2 0.21023076E+03</rscale>
<asrwt>0</asrwt>
<pdfrwt beam="1">  1       21 0.14999576E-01 0.21031414E+03</pdfrwt>
<pdfrwt beam="2">  1       21 0.71498923E-01 0.21031414E+03</pdfrwt>
<totfact> 0.68813357E+04</totfact>
</mgrwt>
</event>
<event>
12    1  0.1441827E-001  0.2739810E+03  0.7546771E-02  0.1099144E+00
         21   -1    0    0  504  503  0.00000000000E+00  0.00000000000E+00  0.19458204314E+04  0.19458204314E+04  0.00000000000E+00 0. -1.
         21   -1    0    0  502  504 -0.00000000000E+00 -0.00000000000E+00 -0.40944371163E+02  0.40944371163E+02  0.00000000000E+00 0. -1.
          6    2    1    2  502    0  0.46719354103E+01 -0.21190761280E+03  0.11958950696E+04  0.12266860838E+04  0.17224130515E+03 0.  0.
         24    2    3    3    0    0  0.51618063088E+02 -0.58364601291E+02  0.54596675693E+03  0.55720247908E+03  0.79523907770E+02 0.  0.
         -6    2    1    2    0  503 -0.46719354103E+01  0.21190761280E+03  0.70898099060E+03  0.76007871879E+03  0.17360573256E+03 0.  0.
        -24    2    5    5    0    0 -0.13109478622E+02  0.20806408835E+03  0.71420351209E+03  0.74844559598E+03  0.81373399601E+02 0.  0.
          4    1    4    4  501    0  0.68754549305E+02 -0.63342419818E+02  0.45706401826E+03  0.46652649119E+03  0.00000000000E+00 0. -1.
         -3    1    4    4    0  501 -0.17136486217E+02  0.49778185272E+01  0.88902738669E+02  0.90675987891E+02  0.00000000000E+00 0.  1.
          5    1    3    3  502    0 -0.46946127677E+02 -0.15354301151E+03  0.64992831269E+03  0.66948360467E+03  0.47000000000E+01 0. -1.
         11    1    6    6    0    0 -0.19185855104E+02  0.56283385953E+02  0.32978842515E+03  0.33510643374E+03  0.00000000000E+00 0. -1.
        -12    1    6    6    0    0  0.60763764823E+01  0.15178070239E+03  0.38441508694E+03  0.41333916224E+03  0.00000000000E+00 0.  1.
         -5    1    5    5    0  503  0.84375432115E+01  0.38435244552E+01 -0.52225214893E+01  0.11633122813E+02  0.47000000000E+01 0.  1.
<mgrwt>
<rscale>  2 0.27376516E+03</rscale>
<asrwt>0</asrwt>
<pdfrwt beam="1">  1       21 0.29935692E+00 0.27398105E+03</pdfrwt>
<pdfrwt beam="2">  1       21 0.62991355E-02 0.27398105E+03</pdfrwt>
<totfact> 0.57777112E+03</totfact>
</mgrwt>
</event>
<event>
12    1  0.1441827E-001  0.1953011E+03  0.7546771E-02  0.1154340E+00
         21   -1    0    0  504  503  0.00000000000E+00  0.00000000000E+00  0.20405348667E+03  0.20405348667E+03  0.00000000000E+00 0. -1.
         21   -1    0    0  502  504 -0.00000000000E+00 -0.00000000000E+00 -0.41554811013E+03  0.41554811013E+03  0.00000000000E+00 0. -1.
          6    2    1    2  502    0  0.80534930410E+02 -0.38427833165E+02 -0.33710709674E+03  0.38959430267E+03  0.17372378255E+03 0.  0.
         24    2    3    3    0    0  0.71556757388E+02  0.10834839737E+02 -0.99920407063E+02  0.14713392593E+03  0.80165710440E+02 0.  0.
         -6    2    1    2    0  503 -0.80534930410E+02  0.38427833165E+02  0.12561247328E+03  0.23000729413E+03  0.17076969442E+03 0.  0.
        -24    2    5    5    0    0 -0.11670682719E+02  0.63886369745E+01  0.13090158142E+03  0.15372584574E+03  0.79494604302E+02 0.  0.
          4    1    4    4  501    0  0.38245051727E+02  0.30541363315E+02 -0.96595258963E+02  0.10828713178E+03  0.00000000000E+00 0. -1.
         -3    1    4    4    0  501  0.33311705661E+02 -0.19706523578E+02 -0.33251481007E+01  0.38846794147E+02  0.00000000000E+00 0.  1.
          5    1    3    3  502    0  0.89781730221E+01 -0.49262672902E+02 -0.23718668967E+03  0.24246037674E+03  0.47000000000E+01 0. -1.
         11    1    6    6    0    0 -0.30622664931E+02  0.22756469418E+02  0.26724052104E+02  0.46580891669E+02  0.00000000000E+00 0. -1.
        -12    1    6    6    0    0  0.18951982212E+02 -0.16367832443E+02  0.10417752932E+03  0.10714495408E+03  0.00000000000E+00 0.  1.
         -5    1    5    5    0  503 -0.68864247691E+02  0.32039196191E+02 -0.52891081488E+01  0.76281448384E+02  0.47000000000E+01 0.  1.
<mgrwt>
<rscale>  2 0.19464204E+03</rscale>
<asrwt>0</asrwt>
<pdfrwt beam="1">  1       21 0.31392845E-01 0.19530112E+03</pdfrwt>
<pdfrwt beam="2">  1       21 0.63930478E-01 0.19530112E+03</pdfrwt>
<totfact> 0.22000771E+04</totfact>
</mgrwt>
</event>
<event>
12    1  0.1441827E-001  0.2037939E+03  0.7546771E-02  0.1146630E+00
         21   -1    0    0  504  503  0.00000000000E+00  0.00000000000E+00  0.85476048006E+02  0.85476048006E+02  0.00000000000E+00 0.  1.
         21   -1    0    0  502  504 -0.00000000000E+00 -0.00000000000E+00 -0.61521121036E+03  0.61521121036E+03  0.00000000000E+00 0.  1.
          6    2    1    2  502    0  0.94974063021E+02 -0.52027367930E+02 -0.42574144620E+03  0.47189334750E+03  0.17233871516E+03 0.  0.
         24    2    3    3    0    0  0.50583154849E+02  0.34649889840E+02 -0.15094173666E+03  0.18031064894E+03  0.77260933413E+02 0.  0.
         -6    2    1    2    0  503 -0.94974063021E+02  0.52027367930E+02 -0.10399371616E+03  0.22879391087E+03  0.17264136523E+03 0.  0.
        -24    2    5    5    0    0 -0.60762281689E+02 -0.35414278421E+02 -0.75906070634E+02  0.13067412016E+03  0.79798296520E+02 0.  0.
          2    1    4    4  501    0  0.48692311626E+02  0.51135057101E+02 -0.76764617952E+02  0.10430024854E+03  0.00000000000E+00 0. -1.
         -1    1    4    4    0  501  0.18908432227E+01 -0.16485167261E+02 -0.74177118713E+02  0.76010400395E+02  0.00000000000E+00 0.  1.
          5    1    3    3  502    0  0.44390908172E+02 -0.86677257770E+02 -0.27479970953E+03  0.29158269856E+03  0.47000000000E+01 0. -1.
         13    1    6    6    0    0 -0.49765439353E+02 -0.13253035692E+02 -0.88892422672E+02  0.10273317243E+03  0.00000000000E+00 0. -1.
        -14    1    6    6    0    0 -0.10996842336E+02 -0.22161242729E+02  0.12986352038E+02  0.27940947727E+02  0.00000000000E+00 0.  1.
         -5    1    5    5    0  503 -0.34211781332E+02  0.87441646351E+02 -0.28087645528E+02  0.98119790714E+02  0.47000000000E+01 0.  1.
<mgrwt>
<rscale>  2 0.20372981E+03</rscale>
<asrwt>0</asrwt>
<pdfrwt beam="1">  1       21 0.13150161E-01 0.20379392E+03</pdfrwt>
<pdfrwt beam="2">  1       21 0.94647880E-01 0.20379392E+03</pdfrwt>
<totfact> 0.46257793E+04</totfact>
</mgrwt>
</event>
<event>
12    1  0.1441827E-001  0.2164491E+03  0.7546771E-02  0.1136592E+00
         21   -1    0    0  504  503  0.00000000000E+00  0.00000000000E+00  0.12893623109E+03  0.12893623109E+03  0.00000000000E+00 0. -1.
         21   -1    0    0  502  504 -0.00000000000E+00 -0.00000000000E+00 -0.52665325983E+03  0.52665325983E+03  0.00000000000E+00 0. -1.
          6    2    1    2  502    0  0.11845051396E+03  0.53288664483E+02 -0.38149290626E+03  0.43853323434E+03  0.17292875434E+03 0.  0.
         24    2    3    3    0    0  0.11872945454E+03  0.70736941585E+02 -0.38743741898E+03  0.41950831875E+03  0.82335154075E+02 0.  0.
         -6    2    1    2    0  503 -0.11845051396E+03 -0.53288664483E+02 -0.16224122480E+02  0.21705625658E+03  0.17314730824E+03 0.  0.
        -24    2    5    5    0    0 -0.11763024750E+03 -0.73750898196E+02 -0.56625208198E+02  0.17151821125E+03  0.83282726143E+02 0.  0.
          2    1    4    4  501    0  0.10374889916E+03  0.56349736308E+02 -0.37921623190E+03  0.39717008623E+03  0.00000000000E+00 0. -1.
         -1    1    4    4    0  501  0.14980555381E+02  0.14387205277E+02 -0.82211870771E+01  0.22338232521E+02  0.00000000000E+00 0.  1.
          5    1    3    3  502    0 -0.27894058176E+00 -0.17448277102E+02  0.59445127219E+01  0.19024915589E+02  0.47000000000E+01 0. -1.
         13    1    6    6    0    0 -0.16982839341E+02  0.66815289360E+01  0.15430930162E+02  0.23899231508E+02  0.00000000000E+00 0. -1.
        -14    1    6    6    0    0 -0.10064740816E+03 -0.80432427132E+02 -0.72056138360E+02  0.14761897974E+03  0.00000000000E+00 0.  1.
         -5    1    5    5    0  503 -0.82026645401E+00  0.20462233713E+02  0.40401085718E+02  0.45538045333E+02  0.47000000000E+01 0.  1.
<mgrwt>
<rscale>  2 0.21640535E+03</rscale>
<asrwt>0</asrwt>
<pdfrwt beam="1">  1       21 0.19836343E-01 0.21644906E+03</pdfrwt>
<pdfrwt beam="2">  1       21 0.81023578E-01 0.21644906E+03</pdfrwt>
<totfact> 0.30920660E+04</totfact>
</mgrwt>
</event>
<event>
12    1  0.1441827E-001  0.2762007E+03  0.7546771E-02  0.1097798E+00
         21   -1    0    0  504  503  0.00000000000E+00  0.00000000000E+00  0.12563997111E+04  0.12563997111E+04  0.00000000000E+00 0. -1.
         21   -1    0    0  502  504 -0.00000000000E+00 -0.00000000000E+00 -0.10637686899E+03  0.10637686899E+03  0.00000000000E+00 0. -1.
          6    2    1    2  502    0  0.17455135860E+03 -0.12594552848E+03  0.12841550331E+03  0.30449100553E+03  0.17289817242E+03 0.  0.
         24    2    3    3    0    0  0.19336607921E+03 -0.10359881796E+03  0.13807805996E+03  0.27336506484E+03  0.86831747436E+02 0.  0.
         -6    2    1    2    0  503 -0.17455135860E+03  0.12594552848E+03  0.10216073388E+04  0.10582855745E+04  0.17307902723E+03 0.  0.
        -24    2    5    5    0    0 -0.53505843442E+02  0.11630310934E+02  0.24867913211E+03  0.26761491719E+03  0.82330393792E+02 0.  0.
          2    1    4    4  501    0  0.13792007668E+03 -0.72392340851E+02  0.47827460303E+02  0.16294190537E+03  0.00000000000E+00 0. -1.
         -1    1    4    4    0  501  0.55446002524E+02 -0.31206477113E+02  0.90250599658E+02  0.11042315947E+03  0.00000000000E+00 0.  1.
          5    1    3    3  502    0 -0.18814720608E+02 -0.22346710519E+02 -0.96625566526E+01  0.31125940687E+02  0.47000000000E+01 0. -1.
         13    1    6    6    0    0 -0.56899193223E+02 -0.48716323422E+01  0.24332613986E+03  0.24993771491E+03  0.00000000000E+00 0. -1.
        -14    1    6    6    0    0  0.33933497811E+01  0.16501943276E+02  0.53529922430E+01  0.17677202284E+02  0.00000000000E+00 0.  1.
         -5    1    5    5    0  503 -0.12104551516E+03  0.11431521755E+03  0.77292820665E+03  0.79067065732E+03  0.47000000000E+01 0.  1.
<mgrwt>
<rscale>  2 0.27617233E+03</rscale>
<asrwt>0</asrwt>
<pdfrwt beam="1">  1       21 0.19329225E+00 0.27620066E+03</pdfrwt>
<pdfrwt beam="2">  1       21 0.16365673E-01 0.27620066E+03</pdfrwt>
<totfact> 0.46508941E+03</totfact>
</mgrwt>
</event>
<event>
12    1  0.1441827E-001  0.2215812E+03  0.7546771E-02  0.1132749E+00
         21   -1    0    0  504  503  0.00000000000E+00  0.00000000000E+00  0.10496439994E+03  0.10496439994E+03  0.00000000000E+00 0. -1.
         21   -1    0    0  502  504 -0.00000000000E+00 -0.00000000000E+00 -0.57144337789E+03  0.57144337789E+03  0.00000000000E+00 0. -1.
          6    2    1    2  502    0  0.46720104621E+02  0.13013985632E+03 -0.37770053601E+03  0.43789944873E+03  0.17314468491E+03 0.  0.
         24    2    3    3    0    0 -0.17233947067E+01  0.89911973254E+01 -0.84871663246E+02  0.11728346514E+03  0.80426365423E+02 0.  0.
         -6    2    1    2    0  503 -0.46720104621E+02 -0.13013985632E+03 -0.88778441927E+02  0.23850832910E+03  0.17287411871E+03 0.  0.
        -24    2    5    5    0    0 -0.92377799965E+02 -0.78096015472E+02 -0.83071167538E+02  0.16888182915E+03  0.83591912186E+02 0.  0.
          4    1    4    4  501    0 -0.33680556343E+02  0.18248728956E+02 -0.72101775610E+02  0.81645955381E+02  0.00000000000E+00 0. -1.
         -3    1    4    4    0  501  0.31957161636E+02 -0.92575316302E+01 -0.12769887636E+02  0.35637509761E+02  0.00000000000E+00 0.  1.
          5    1    3    3  502    0  0.48443499328E+02  0.12114865900E+03 -0.29282887277E+03  0.32061598359E+03  0.47000000000E+01 0. -1.
         11    1    6    6    0    0  0.34353409456E+01 -0.38641594025E+02 -0.49387889189E+01  0.39107109228E+02  0.00000000000E+00 0. -1.
        -12    1    6    6    0    0 -0.95813140910E+02 -0.39454421447E+02 -0.78132378619E+02  0.12977471992E+03  0.00000000000E+00 0.  1.
         -5    1    5    5    0  503  0.45657695343E+02 -0.52043840849E+02 -0.57072743889E+01  0.69626499951E+02  0.47000000000E+01 0.  1.
<mgrwt>
<rscale>  2 0.22152835E+03</rscale>
<asrwt>0</asrwt>
<pdfrwt beam="1">  1       21 0.16148369E-01 0.22158121E+03</pdfrwt>
<pdfrwt beam="2">  1       21 0.87914367E-01 0.22158121E+03</pdfrwt>
<totfact> 0.37452769E+04</totfact>
</mgrwt>
</event>
<event>
12    1  0.1441827E-001  0.2418162E+03  0.7546771E-02  0.1118721E+00
         21   -1    0    0  504  503  0.00000000000E+00  0.00000000000E+00  0.58035491979E+03  0.58035491979E+03  0.00000000000E+00 0.  1.
         21   -1    0    0  502  504 -0.00000000000E+00 -0.00000000000E+00 -0.21154502562E+03  0.21154502562E+03  0.00000000000E+00 0. -1.
          6    2    1    2  502    0 -0.14843342460E+03  0.75899165414E+02 -0.10271052221E+03  0.26198810460E+03  0.17405502213E+03 0.  0.
         24    2    3    3    0    0 -0.80602050889E+02  0.22018173637E+02  0.13325363360E+02  0.11710652097E+03  0.80962221850E+02 0.  0.
         -6    2    1    2    0  503  0.14843342460E+03 -0.75899165414E+02  0.47152041638E+03  0.52991184082E+03  0.17516247067E+03 0.  0.
        -24    2    5    5    0    0  0.17636645125E+03 -0.94683573233E+02  0.41005885494E+03  0.45967850480E+03  0.55551409438E+02 0.  0.
          4    1    4    4  501    0 -0.87468588680E+02 -0.49568822560E+00 -0.44925972641E+01  0.87585290676E+02  0.00000000000E+00 0. -1.
         -3    1    4    4    0  501  0.68665377912E+01  0.22513861863E+02  0.17817960625E+02  0.29521230293E+02  0.00000000000E+00 0.  1.
          5    1    3    3  502    0 -0.67831373708E+02  0.53880991776E+02 -0.11603588557E+03  0.14488158363E+03  0.47000000000E+01 0. -1.
         13    1    6    6    0    0  0.34191189379E+02 -0.45655678728E+02  0.10182347648E+03  0.11671117681E+03  0.00000000000E+00 0. -1.
        -14    1    6    6    0    0  0.14217526187E+03 -0.49027894505E+02  0.30823537847E+03  0.34296732799E+03  0.00000000000E+00 0.  1.
         -5    1    5    5    0  503 -0.27933026649E+02  0.18784407819E+02  0.61461561436E+02  0.70233336024E+02  0.47000000000E+01 0.  1.
<mgrwt>
<rscale>  2 0.24161567E+03</rscale>
<asrwt>0</asrwt>
<pdfrwt beam="1">  1       21 0.89285372E-01 0.24181616E+03</pdfrwt>
<pdfrwt beam="2">  1       21 0.32545389E-01 0.24181616E+03</pdfrwt>
<totfact> 0.94165901E+03</totfact>
</mgrwt>
</event>
<event>
12    1  0.1441827E-001  0.2743712E+03  0.7546771E-02  0.1098832E+00
         21   -1    0    0  504  503  0.00000000000E+00  0.00000000000E+00  0.44711311967E+03  0.44711311967E+03  0.00000000000E+00 0. -1.
         21   -1    0    0  502  504 -0.00000000000E+00 -0.00000000000E+00 -0.56343193965E+03  0.56343193965E+03  0.00000000000E+00 0. -1.
          6    2    1    2  502    0  0.23804452795E+02  0.21116502273E+03 -0.48131456553E+03  0.55392547583E+03  0.17324088141E+03 0.  0.
         24    2    3    3    0    0 -0.37435313588E+01  0.23525852252E+02 -0.14781109279E+03  0.17024070150E+03  0.81032694290E+02 0.  0.
         -6    2    1    2    0  503 -0.23804452795E+02 -0.21116502273E+03  0.36499574555E+03  0.45661958349E+03  0.17355757246E+03 0.  0.
        -24    2    5    5    0    0 -0.24676081543E+02 -0.38588483524E+02  0.72719436566E+02  0.11716273437E+03  0.79630457801E+02 0.  0.
          2    1    4    4  501    0 -0.18292237721E+02 -0.10474450945E+02 -0.12505285697E+03  0.12681694335E+03  0.00000000000E+00 0. -1.
         -1    1    4    4    0  501  0.14548706362E+02  0.34000303197E+02 -0.22758235816E+02  0.43423758149E+02  0.00000000000E+00 0.  1.
          5    1    3    3  502    0  0.27547984154E+02  0.18763917048E+03 -0.33350347274E+03  0.38368477434E+03  0.47000000000E+01 0. -1.
         13    1    6    6    0    0  0.10253122062E+02  0.17189947046E+02  0.37528420042E+02  0.42532377106E+02  0.00000000000E+00 0. -1.
        -14    1    6    6    0    0 -0.34929203605E+02 -0.55778430570E+02  0.35191016525E+02  0.74630357264E+02  0.00000000000E+00 0.  1.
         -5    1    5    5    0  503  0.87162874783E+00 -0.17257653920E+03  0.29227630898E+03  0.33945684912E+03  0.47000000000E+01 0.  1.
<mgrwt>
<rscale>  2 0.27432112E+03</rscale>
<asrwt>0</asrwt>
<pdfrwt beam="1">  1       21 0.68786634E-01 0.27437119E+03</pdfrwt>
<pdfrwt beam="2">  1       21 0.86681837E-01 0.27437119E+03</pdfrwt>
<totfact> 0.20721543E+03</totfact>
</mgrwt>
</event>
<event>
12    1  0.1441827E-001  0.2563200E+03  0.7546771E-02  0.1109491E+00
         21   -1    0    0  504  503  0.00000000000E+00  0.00000000000E+00  0.35512920876E+03  0.35512920876E+03  0.00000000000E+00 0.  1.
         21   -1    0    0  502  504 -0.00000000000E+00 -0.00000000000E+00 -0.23559366151E+03  0.23559366151E+03  0.00000000000E+00 0. -1.
          6    2    1    2  502    0 -0.11217547576E+03 -0.15375619980E+03 -0.77907001898E+02  0.26717459968E+03  0.17055339173E+03 0.  0.
         24    2    3    3    0    0 -0.14561446651E+03 -0.13343109962E+03 -0.50171178425E+02  0.21898080648E+03  0.80174904173E+02 0.  0.
         -6    2    1    2    0  503  0.11217547576E+03  0.15375619980E+03  0.19744254915E+03  0.32354827060E+03  0.17168464361E+03 0.  0.
        -24    2    5    5    0    0  0.26699342874E+02  0.87986638635E+02  0.17624461194E+03  0.21353351244E+03  0.77973676396E+02 0.  0.
          4    1    4    4  501    0 -0.55878152883E+02 -0.10725006143E+02 -0.33560357734E+02  0.66058242011E+02  0.00000000000E+00 0. -1.
         -3    1    4    4    0  501 -0.89736313626E+02 -0.12270609348E+03 -0.16610820691E+02  0.15292256447E+03  0.00000000000E+00 0.  1.
          5    1    3    3  502    0  0.33438990745E+02 -0.20325100178E+02 -0.27735823473E+02  0.48193793200E+02  0.47000000000E+01 0. -1.
         11    1    6    6    0    0  0.12881224525E+02  0.81942724111E+00 -0.34285142973E+01  0.13354853670E+02  0.00000000000E+00 0. -1.
        -12    1    6    6    0    0  0.13818118349E+02  0.87167211394E+02  0.17967312624E+03  0.20017865877E+03  0.00000000000E+00 0.  1.
         -5    1    5    5    0  503  0.85476132890E+02  0.65769561161E+02  0.21197937214E+02  0.11001475815E+03  0.47000000000E+01 0.  1.
<mgrwt>
<rscale>  2 0.25613067E+03</rscale>
<asrwt>0</asrwt>
<pdfrwt beam="1">  1       21 0.54635263E-01 0.25631996E+03</pdfrwt>
<pdfrwt beam="2">  1       21 0.36245179E-01 0.25631996E+03</pdfrwt>
<totfact> 0.22457587E+04</totfact>
</mgrwt>
</event>
<event>
12    1  0.1441827E-001  0.1856023E+03  0.7546771E-02  0.1162605E+00
         21   -1    0    0  504  503  0.00000000000E+00  0.00000000000E+00  0.60639113347E+03  0.60639113347E+03  0.00000000000E+00 0.  1.
         21   -1    0    0  502  504 -0.00000000000E+00 -0.00000000000E+00 -0.57310428770E+02  0.57310428770E+02  0.00000000000E+00 0.  1.
          6    2    1    2  502    0  0.59833071279E+02  0.33357652831E+02  0.30964478256E+03  0.36075310882E+03  0.17195983465E+03 0.  0.
         24    2    3    3    0    0  0.64106912185E+02  0.97860896468E+01  0.31830307792E+03  0.33485059184E+03  0.81256419452E+02 0.  0.
         -6    2    1    2    0  503 -0.59833071279E+02 -0.33357652831E+02  0.23943592214E+03  0.30294845342E+03  0.17249775419E+03 0.  0.
        -24    2    5    5    0    0 -0.93803983699E+02  0.15199725684E+02  0.17967160425E+03  0.21865310603E+03  0.80604443951E+02 0.  0.
          2    1    4    4  501    0 -0.78572953511E+01 -0.43444230072E+01  0.16144718476E+03  0.16169664365E+03  0.00000000000E+00 0. -1.
         -1    1    4    4    0  501  0.71964207536E+02  0.14130512654E+02  0.15685589316E+03  0.17315394819E+03  0.00000000000E+00 0.  1.
          5    1    3    3  502    0 -0.42738409067E+01  0.23571563184E+02 -0.86582953623E+01  0.25902516975E+02  0.47000000000E+01 0. -1.
         11    1    6    6    0    0 -0.21616341702E+02  0.21505999161E+02  0.12282501014E+03  0.12655337746E+03  0.00000000000E+00 0. -1.
        -12    1    6    6    0    0 -0.72187641997E+02 -0.63062734768E+01  0.56846594105E+02  0.92099728575E+02  0.00000000000E+00 0.  1.
         -5    1    5    5    0  503  0.33970912420E+02 -0.48557378515E+02  0.59764317888E+02  0.84295347390E+02  0.47000000000E+01 0.  1.
<mgrwt>
<rscale>  2 0.18547719E+03</rscale>
<asrwt>0</asrwt>
<pdfrwt beam="1">  1       21 0.93290939E-01 0.18560228E+03</pdfrwt>
<pdfrwt beam="2">  1       21 0.88169895E-02 0.18560228E+03</pdfrwt>
<totfact> 0.98150574E+04</totfact>
</mgrwt>
</event>
<event>
12    1  0.1441827E-001  0.2164028E+03  0.7546771E-02  0.1137589E+00
         21   -1    0    0  504  503  0.00000000000E+00  0.00000000000E+00  0.10239191578E+04  0.10239191578E+04  0.00000000000E+00 0.  1.
         21   -1    0    0  502  504 -0.00000000000E+00 -0.00000000000E+00 -0.70198812852E+02  0.70198812852E+02  0.00000000000E+00 0.  1.
          6    2    1    2  502    0 -0.42550556236E+02 -0.11302092600E+03  0.15051669047E+03  0.26360095629E+03  0.17957146349E+03 0.  0.
         24    2    3    3    0    0 -0.21713353317E+02  0.14799084798E+02  0.69604451149E+02  0.11082325943E+03  0.82137278920E+02 0.  0.
         -6    2    1    2    0  503  0.42550556236E+02  0.11302092600E+03  0.80320365445E+03  0.83051701432E+03  0.17331509171E+03 0.  0.
        -24    2    5    5    0    0 -0.41738330615E+02  0.73352568214E+02  0.39420499423E+03  0.41101708689E+03  0.80092326323E+02 0.  0.
          4    1    4    4  501    0 -0.42085353013E+02  0.46550082902E+01  0.76160953602E+02  0.87139754957E+02  0.00000000000E+00 0. -1.
         -3    1    4    4    0  501  0.20371999696E+02  0.10144076508E+02 -0.65565024538E+01  0.23683504475E+02  0.00000000000E+00 0.  1.
          5    1    3    3  502    0 -0.20837202919E+02 -0.12782001080E+03  0.80912239317E+02  0.15277769686E+03  0.47000000000E+01 0. -1.
         13    1    6    6    0    0  0.14938882056E+02  0.39330162843E+00  0.13529007296E+03  0.13611292637E+03  0.00000000000E+00 0. -1.
        -14    1    6    6    0    0 -0.56677212671E+02  0.72959266585E+02  0.25891492127E+03  0.27490416052E+03  0.00000000000E+00 0.  1.
         -5    1    5    5    0  503  0.84288886851E+02  0.39668357788E+02  0.40899866022E+03  0.41949992743E+03  0.47000000000E+01 0.  1.
<mgrwt>
<rscale>  2 0.21510046E+03</rscale>
<asrwt>0</asrwt>
<pdfrwt beam="1">  1       21 0.15752601E+00 0.21640284E+03</pdfrwt>
<pdfrwt beam="2">  1       21 0.10799818E-01 0.21640284E+03</pdfrwt>
<totfact> 0.18287899E+04</totfact>
</mgrwt>
</event>
<event>
12    1  0.1441827E-001  0.2275294E+03  0.7546771E-02  0.1128862E+00
         21   -1    0    0  504  503  0.00000000000E+00  0.00000000000E+00  0.65785399455E+02  0.65785399455E+02  0.00000000000E+00 0.  1.
         21   -1    0    0  502  504 -0.00000000000E+00 -0.00000000000E+00 -0.10272053633E+04  0.10272053633E+04  0.00000000000E+00 0.  1.
          6    2    1    2  502    0 -0.11784397407E+03  0.81522227886E+02 -0.75204575301E+03  0.78571142209E+03  0.17673864410E+03 0.  0.
         24    2    3    3    0    0 -0.12438520446E+03  0.11706416660E+03 -0.67162656608E+03  0.69742012733E+03  0.78338314716E+02 0.  0.
         -6    2    1    2    0  503  0.11784397407E+03 -0.81522227886E+02 -0.20937421080E+03  0.30727934063E+03  0.17334923469E+03 0.  0.
        -24    2    5    5    0    0  0.14101157827E+03 -0.93575555644E+02 -0.20916081811E+03  0.28074340027E+03  0.80174554196E+02 0.  0.
          4    1    4    4  501    0 -0.38428877630E+02  0.82901663626E+02 -0.26189438066E+03  0.27737723607E+03  0.00000000000E+00 0. -1.
         -3    1    4    4    0  501 -0.85956326834E+02  0.34162502979E+02 -0.40973218542E+03  0.42004289127E+03  0.00000000000E+00 0.  1.
          5    1    3    3  502    0  0.65412303994E+01 -0.35541938719E+02 -0.80419186926E+02  0.88291294751E+02  0.47000000000E+01 0. -1.
         11    1    6    6    0    0  0.17808602048E+02  0.13793029163E+02 -0.37399996879E+02  0.43659520462E+02  0.00000000000E+00 0. -1.
        -12    1    6    6    0    0  0.12320297622E+03 -0.10736858481E+03 -0.17176082123E+03  0.23708387981E+03  0.00000000000E+00 0.  1.
         -5    1    5    5    0  503 -0.23167604205E+02  0.12053327759E+02 -0.21339269020E+00  0.26535940365E+02  0.47000000000E+01 0.  1.
<mgrwt>
<rscale>  2 0.22687087E+03</rscale>
<asrwt>0</asrwt>
<pdfrwt beam="1">  1       21 0.10120832E-01 0.22752939E+03</pdfrwt>
<pdfrwt beam="2">  1       21 0.15803158E+00 0.22752939E+03</pdfrwt>
<totfact> 0.20206697E+04</totfact>
</mgrwt>
</event>
<event>
12    1  0.1441827E-001  0.1829091E+03  0.7546771E-02  0.1165585E+00
         21   -1    0    0  504  503  0.00000000000E+00  0.00000000000E+00  0.18037635637E+03  0.18037635637E+03  0.00000000000E+00 0.  1.
         21   -1    0    0  502  504 -0.00000000000E+00 -0.00000000000E+00 -0.37829226928E+03  0.37829226928E+03  0.00000000000E+00 0.  1.
          6    2    1    2  502    0  0.43317333794E+01 -0.64180470950E+02 -0.29930835608E+03  0.34953670998E+03  0.16867875633E+03 0.  0.
         24    2    3    3    0    0  0.30263459927E+02  0.19464424865E+02 -0.12592255364E+03  0.15523372615E+03  0.83344342198E+02 0.  0.
         -6    2    1    2    0  503 -0.43317333794E+01  0.64180470950E+02  0.10139244316E+03  0.20913191568E+03  0.17122451302E+03 0.  0.
        -24    2    5    5    0    0  0.51437719132E+02  0.22162738639E+02  0.99985783750E+02  0.13913341317E+03  0.78891848603E+02 0.  0.
          2    1    4    4  501    0 -0.27724178487E+02  0.54113314505E+01 -0.60013362291E+02  0.66328849186E+02  0.00000000000E+00 0. -1.
         -1    1    4    4    0  501  0.57987638414E+02  0.14053093415E+02 -0.65909191353E+02  0.88904876965E+02  0.00000000000E+00 0.  1.
          5    1    3    3  502    0 -0.25931726547E+02 -0.83644895815E+02 -0.17338580243E+03  0.19430298383E+03  0.47000000000E+01 0. -1.
         13    1    6    6    0    0  0.47564969093E+02 -0.17974209781E+02  0.78264441461E+02  0.93331780756E+02  0.00000000000E+00 0. -1.
        -14    1    6    6    0    0  0.38727500391E+01  0.40136948420E+02  0.21721342289E+02  0.45801632418E+02  0.00000000000E+00 0.  1.
         -5    1    5    5    0  503 -0.55769452511E+02  0.42017732311E+02  0.14066594148E+01  0.69998502503E+02  0.47000000000E+01 0.  1.
<mgrwt>
<rscale>  2 0.18231092E+03</rscale>
<asrwt>0</asrwt>
<pdfrwt beam="1">  1       21 0.27750209E-01 0.18290908E+03</pdfrwt>
<pdfrwt beam="2">  1       21 0.58198811E-01 0.18290908E+03</pdfrwt>
<totfact> 0.34462984E+04</totfact>
</mgrwt>
</event>
<event>
12    1  0.1441827E-001  0.2008676E+03  0.7546771E-02  0.1149363E+00
         21   -1    0    0  504  503  0.00000000000E+00  0.00000000000E+00  0.55332733651E+03  0.55332733651E+03  0.00000000000E+00 0.  1.
         21   -1    0    0  502  504 -0.00000000000E+00 -0.00000000000E+00 -0.72493383757E+02  0.72493383757E+02  0.00000000000E+00 0. -1.
          6    2    1    2  502    0 -0.83639787272E+02 -0.57886722500E+02  0.25719495332E+03  0.32633882097E+03  0.17320882023E+03 0.  0.
         24    2    3    3    0    0 -0.83379823990E+02 -0.47499761353E+02  0.27702077121E+03  0.30346723166E+03  0.78380039775E+02 0.  0.
         -6    2    1    2    0  503  0.83639787272E+02  0.57886722500E+02  0.22363899944E+03  0.29948189929E+03  0.17125571313E+03 0.  0.
        -24    2    5    5    0    0  0.12361095497E+03  0.38455203048E+02  0.16314185764E+03  0.22426705793E+03  0.83198417834E+02 0.  0.
          4    1    4    4  501    0 -0.48770848765E+02  0.14428564885E+02  0.88995532049E+02  0.10250357993E+03  0.00000000000E+00 0. -1.
         -3    1    4    4    0  501 -0.34608975225E+02 -0.61928326237E+02  0.18802523916E+03  0.20096365173E+03  0.00000000000E+00 0.  1.
          5    1    3    3  502    0 -0.25996328224E+00 -0.10386961147E+02 -0.19825817889E+02  0.22871589314E+02  0.47000000000E+01 0. -1.
         13    1    6    6    0    0  0.45178549203E+02  0.53054200276E+02  0.49745222914E+02  0.85617969363E+02  0.00000000000E+00 0. -1.
        -14    1    6    6    0    0  0.78432405766E+02 -0.14598997228E+02  0.11339663473E+03  0.13864908857E+03  0.00000000000E+00 0.  1.
         -5    1    5    5    0  503 -0.39971167697E+02  0.19431519452E+02  0.60497141795E+02  0.75214841359E+02  0.47000000000E+01 0.  1.
<mgrwt>
<rscale>  2 0.20044582E+03</rscale>
<asrwt>0</asrwt>
<pdfrwt beam="1">  1       21 0.85127280E-01 0.20086757E+03</pdfrwt>
<pdfrwt beam="2">  1       21 0.11152829E-01 0.20086757E+03</pdfrwt>
<totfact> 0.79561509E+04</totfact>
</mgrwt>
</event>
<event>
12    1  0.1441827E-001  0.2260551E+03  0.7546771E-02  0.1130370E+00
         21   -1    0    0  504  503  0.00000000000E+00  0.00000000000E+00  0.19301717091E+03  0.19301717091E+03  0.00000000000E+00 0.  1.
         21   -1    0    0  502  504 -0.00000000000E+00 -0.00000000000E+00 -0.58701647434E+03  0.58701647434E+03  0.00000000000E+00 0.  1.
          6    2    1    2  502    0  0.11784942440E+03 -0.83408818842E+02  0.95589782110E+02  0.24077640155E+03  0.16730317154E+03 0.  0.
         24    2    3    3    0    0  0.77901117115E+02 -0.60675912437E+02  0.12989775226E+03  0.18322834247E+03  0.83360956352E+02 0.  0.
         -6    2    1    2    0  503 -0.11784942440E+03  0.83408818842E+02 -0.48958908554E+03  0.53925724369E+03  0.17394074939E+03 0.  0.
        -24    2    5    5    0    0  0.78343417095E+01  0.32702416758E+02 -0.23301213323E+03  0.24904805925E+03  0.81237039653E+02 0.  0.
          4    1    4    4  501    0  0.36764492527E+02  0.15315003564E+02  0.23807913711E+02  0.46400366380E+02  0.00000000000E+00 0. -1.
         -3    1    4    4    0  501  0.41136624589E+02 -0.75990916001E+02  0.10608983855E+03  0.13682797609E+03  0.00000000000E+00 0.  1.
          5    1    3    3  502    0  0.39948307286E+02 -0.22732906406E+02 -0.34307970148E+02  0.57548059085E+02  0.47000000000E+01 0. -1.
         13    1    6    6    0    0 -0.43956523719E+01  0.52063416029E+02 -0.88814764273E+02  0.10304359952E+03  0.00000000000E+00 0. -1.
        -14    1    6    6    0    0  0.12229994081E+02 -0.19360999270E+02 -0.14419736895E+03  0.14600445973E+03  0.00000000000E+00 0.  1.
         -5    1    5    5    0  503 -0.12568376611E+03  0.50706402084E+02 -0.25657695232E+03  0.29020918445E+03  0.47000000000E+01 0.  1.
<mgrwt>
<rscale>  2 0.22477762E+03</rscale>
<asrwt>0</asrwt>
<pdfrwt beam="1">  1       21 0.29694949E-01 0.22605509E+03</pdfrwt>
<pdfrwt beam="2">  1       21 0.90310228E-01 0.22605509E+03</pdfrwt>
<totfact> 0.11084121E+04</totfact>
</mgrwt>
</event>
<event>
12    1  0.1441827E-001  0.1990267E+03  0.7546771E-02  0.1151108E+00
         21   -1    0    0  504  503  0.00000000000E+00  0.00000000000E+00  0.10107563496E+03  0.10107563496E+03  0.00000000000E+00 0. -1.
         21   -1    0    0  502  504 -0.00000000000E+00 -0.00000000000E+00 -0.51099928402E+03  0.51099928402E+03  0.00000000000E+00 0. -1.
          6    2    1    2  502    0 -0.93453521223E+02 -0.61344998473E+00 -0.55145203407E+02  0.20652509977E+03  0.17572047811E+03 0.  0.
         24    2    3    3    0    0  0.67878221772E+01 -0.14923712251E+02 -0.65144628877E+02  0.10466642787E+03  0.80264853661E+02 0.  0.
         -6    2    1    2    0  503  0.93453521223E+02  0.61344998473E+00 -0.35477844565E+03  0.40554981921E+03  0.17282642567E+03 0.  0.
        -24    2    5    5    0    0  0.88691390580E+02  0.63679998593E+01 -0.36901362475E+03  0.38880099667E+03  0.84192906917E+02 0.  0.
          4    1    4    4  501    0 -0.24022992423E+02  0.21311780997E+02 -0.14649696274E+02  0.35297447147E+02  0.00000000000E+00 0. -1.
         -3    1    4    4    0  501  0.30810814600E+02 -0.36235493248E+02 -0.50494932604E+02  0.69368980718E+02  0.00000000000E+00 0.  1.
          5    1    3    3  502    0 -0.10024134340E+03  0.14310262266E+02  0.99994254706E+01  0.10185867191E+03  0.47000000000E+01 0. -1.
         11    1    6    6    0    0  0.28640095186E+02 -0.15313439023E+02 -0.31298418323E+02  0.45103741048E+02  0.00000000000E+00 0. -1.
        -12    1    6    6    0    0  0.60051295395E+02  0.21681438882E+02 -0.33771520642E+03  0.34369725562E+03  0.00000000000E+00 0.  1.
         -5    1    5    5    0  503  0.47621306428E+01 -0.57545498746E+01  0.14235179096E+02  0.16748822538E+02  0.47000000000E+01 0.  1.
<mgrwt>
<rscale>  2 0.19838599E+03</rscale>
<asrwt>0</asrwt>
<pdfrwt beam="1">  1       21 0.15550098E-01 0.19902669E+03</pdfrwt>
<pdfrwt beam="2">  1       21 0.78615275E-01 0.19902669E+03</pdfrwt>
<totfact> 0.52388413E+04</totfact>
</mgrwt>
</event>
<event>
12    1  0.1441827E-001  0.2028883E+03  0.7546771E-02  0.1147414E+00
         21   -1    0    0  504  503  0.00000000000E+00  0.00000000000E+00  0.22313802494E+03  0.22313802494E+03  0.00000000000E+00 0. -1.
         21   -1    0    0  502  504 -0.00000000000E+00 -0.00000000000E+00 -0.18424258322E+03  0.18424258322E+03  0.00000000000E+00 0.  1.
          6    2    1    2  502    0 -0.92973344889E+02 -0.51188745690E+02  0.25407917987E+02  0.20404449855E+03  0.17240726361E+03 0.  0.
         24    2    3    3    0    0 -0.93922675950E+02  0.15390367595E+02  0.46481803501E+02  0.13404536851E+03  0.82153942635E+02 0.  0.
         -6    2    1    2    0  503  0.92973344889E+02  0.51188745690E+02  0.13487523733E+02  0.20333610960E+03  0.17291422622E+03 0.  0.
        -24    2    5    5    0    0  0.11908333099E+03 -0.19054794269E+01  0.17755816657E+02  0.14382950124E+03  0.78658666582E+02 0.  0.
          2    1    4    4  501    0 -0.81452949867E+02  0.37507283128E+02  0.57331460719E+02  0.10643437282E+03  0.00000000000E+00 0. -1.
         -1    1    4    4    0  501 -0.12469726083E+02 -0.22116915533E+02 -0.10849657218E+02  0.27610995691E+02  0.00000000000E+00 0.  1.
          5    1    3    3  502    0  0.94933106116E+00 -0.66579113285E+02 -0.21073885514E+02  0.69999130038E+02  0.47000000000E+01 0. -1.
         13    1    6    6    0    0  0.13679858103E+02 -0.27709024802E+02  0.17087178162E+02  0.35311474492E+02  0.00000000000E+00 0. -1.
        -14    1    6    6    0    0  0.10540347289E+03  0.25803545375E+02  0.66863849466E+00  0.10851802674E+03  0.00000000000E+00 0.  1.
         -5    1    5    5    0  503 -0.26109986103E+02  0.53094225117E+02 -0.42682929245E+01  0.59506608369E+02  0.47000000000E+01 0.  1.
<mgrwt>
<rscale>  2 0.20278024E+03</rscale>
<asrwt>0</asrwt>
<pdfrwt beam="1">  1       21 0.34328927E-01 0.20288829E+03</pdfrwt>
<pdfrwt beam="2">  1       21 0.28345013E-01 0.20288829E+03</pdfrwt>
<totfact> 0.96890905E+04</totfact>
</mgrwt>
</event>
<event>
12    1  0.1441827E-001  0.1965470E+03  0.7546771E-02  0.1153203E+00
         21   -1    0    0  504  503  0.00000000000E+00  0.00000000000E+00  0.19178988089E+03  0.19178988089E+03  0.00000000000E+00 0.  1.
         21   -1    0    0  502  504 -0.00000000000E+00 -0.00000000000E+00 -0.30491536274E+03  0.30491536274E+03  0.00000000000E+00 0.  1.
          6    2    1    2  502    0 -0.80374130052E+02  0.37665383268E+02 -0.20316784971E+03  0.28267987092E+03  0.17536263110E+03 0.  0.
         24    2    3    3    0    0 -0.16674715933E+02 -0.40505660725E+02 -0.12334212022E+03  0.15398424330E+03  0.81111736902E+02 0.  0.
         -6    2    1    2    0  503  0.80374130052E+02 -0.37665383268E+02  0.90042367863E+02  0.21402537271E+03  0.17268627703E+03 0.  0.
        -24    2    5    5    0    0  0.87236754621E+02 -0.71765308233E+02  0.10694964060E+03  0.17506582484E+03  0.80307574870E+02 0.  0.
          4    1    4    4  501    0  0.17539554584E+02 -0.40908993287E+02 -0.27748779261E+02  0.52451658289E+02  0.00000000000E+00 0. -1.
         -3    1    4    4    0  501 -0.34214270517E+02  0.40333256286E+00 -0.95593340955E+02  0.10153258501E+03  0.00000000000E+00 0.  1.
          5    1    3    3  502    0 -0.63699414119E+02  0.78171043993E+02 -0.79825729498E+02  0.12869562762E+03  0.47000000000E+01 0. -1.
         11    1    6    6    0    0  0.24670228579E+02 -0.62305520039E+01 -0.98138020424E+01  0.27271792515E+02  0.00000000000E+00 0. -1.
        -12    1    6    6    0    0  0.62566526041E+02 -0.65534756229E+02  0.11676344264E+03  0.14779403233E+03  0.00000000000E+00 0.  1.
         -5    1    5    5    0  503 -0.68626245687E+01  0.34099924965E+02 -0.16907272733E+02  0.38959547865E+02  0.47000000000E+01 0.  1.
<mgrwt>
<rscale>  2 0.19594827E+03</rscale>
<asrwt>0</asrwt>
<pdfrwt beam="1">  1       21 0.29506136E-01 0.19654703E+03</pdfrwt>
<pdfrwt beam="2">  1       21 0.46910055E-01 0.19654703E+03</pdfrwt>
<totfact> 0.47784256E+04</totfact>
</mgrwt>
</event>
<event>
12    1  0.1441827E-001  0.2023308E+03  0.7546771E-02  0.1149728E+00
         21   -1    0    0  504  503  0.00000000000E+00  0.00000000000E+00  0.28280770197E+03  0.28280770197E+03  0.00000000000E+00 0. -1.
         21   -1    0    0  502  504 -0.00000000000E+00 -0.00000000000E+00 -0.32188916586E+03  0.32188916586E+03  0.00000000000E+00 0. -1.
          6    2    1    2  502    0 -0.24709780263E+02 -0.82300333062E+02 -0.24765351760E+03  0.31411113249E+03  0.17305958718E+03 0.  0.
         24    2    3    3    0    0  0.44939878379E+02 -0.19506947556E+02 -0.82836357490E+02  0.12442489030E+03  0.78864298205E+02 0.  0.
         -6    2    1    2    0  503  0.24709780263E+02  0.82300333062E+02  0.20857205371E+03  0.29058573533E+03  0.18317709989E+03 0.  0.
        -24    2    5    5    0    0  0.77847440410E+02  0.14999524488E+02  0.90128461543E+02  0.14428472957E+03  0.80060813722E+02 0.  0.
          2    1    4    4  501    0  0.65441321250E+02 -0.24400643692E+02 -0.73439981644E+02  0.10134786058E+03  0.00000000000E+00 0. -1.
         -1    1    4    4    0  501 -0.20501442871E+02  0.48936961360E+01 -0.93963758466E+01  0.23077029720E+02  0.00000000000E+00 0.  1.
          5    1    3    3  502    0 -0.69649658642E+02 -0.62793385506E+02 -0.16481716011E+03  0.18968624220E+03  0.47000000000E+01 0. -1.
         11    1    6    6    0    0  0.31449159568E+02  0.45839437210E+02  0.56226472720E+02  0.79067818205E+02  0.00000000000E+00 0. -1.
        -12    1    6    6    0    0  0.46398280842E+02 -0.30839912722E+02  0.33901988823E+02  0.65216911365E+02  0.00000000000E+00 0.  1.
         -5    1    5    5    0  503 -0.53137660147E+02  0.67300808574E+02  0.11844359217E+03  0.14630100576E+03  0.47000000000E+01 0.  1.
<mgrwt>
<rscale>  2 0.20001334E+03</rscale>
<asrwt>0</asrwt>
<pdfrwt beam="1">  1       21 0.43508878E-01 0.20233084E+03</pdfrwt>
<pdfrwt beam="2">  1       21 0.49521410E-01 0.20233084E+03</pdfrwt>
<totfact> 0.19623485E+04</totfact>
</mgrwt>
</event>
<event>
12    1  0.1441827E-001  0.2071803E+03  0.7546771E-02  0.1143971E+00
         21   -1    0    0  504  503  0.00000000000E+00  0.00000000000E+00  0.30588876578E+03  0.30588876578E+03  0.00000000000E+00 0.  1.
         21   -1    0    0  502  504 -0.00000000000E+00 -0.00000000000E+00 -0.18914246167E+03  0.18914246167E+03  0.00000000000E+00 0. -1.
          6    2    1    2  502    0 -0.60146474100E+02 -0.97261788422E+02 -0.67952433656E+02  0.21803950962E+03  0.17276064564E+03 0.  0.
         24    2    3    3    0    0 -0.38475025734E+02  0.77090542865E+01 -0.65591869121E+02  0.11072598876E+03  0.80113632857E+02 0.  0.
         -6    2    1    2    0  503  0.60146474100E+02  0.97261788422E+02  0.18469873777E+03  0.27699171783E+03  0.17185265252E+03 0.  0.
        -24    2    5    5    0    0 -0.61388619787E+01  0.52036461251E+02  0.23043850717E+02  0.96455105187E+02  0.77634330904E+02 0.  0.
          2    1    4    4  501    0  0.18900767188E+02 -0.18209886621E+02 -0.19720410062E+02  0.32828852311E+02  0.00000000000E+00 0. -1.
         -1    1    4    4    0  501 -0.57375792923E+02  0.25918940907E+02 -0.45871459059E+02  0.77897136452E+02  0.00000000000E+00 0.  1.
          5    1    3    3  502    0 -0.21671448366E+02 -0.10497084271E+03 -0.23605645346E+01  0.10731352085E+03  0.47000000000E+01 0. -1.
         13    1    6    6    0    0  0.13319172516E+02  0.65601881070E+02  0.27413435740E+02  0.72336046447E+02  0.00000000000E+00 0. -1.
        -14    1    6    6    0    0 -0.19458034495E+02 -0.13565419819E+02 -0.43695850236E+01  0.24119058741E+02  0.00000000000E+00 0.  1.
         -5    1    5    5    0  503  0.66285336079E+02  0.45225327170E+02  0.16165488705E+03  0.18053661264E+03  0.47000000000E+01 0.  1.
<mgrwt>
<rscale>  2 0.20699095E+03</rscale>
<asrwt>0</asrwt>
<pdfrwt beam="1">  1       21 0.47059810E-01 0.20718034E+03</pdfrwt>
<pdfrwt beam="2">  1       21 0.29098840E-01 0.20718034E+03</pdfrwt>
<totfact> 0.48517178E+04</totfact>
</mgrwt>
</event>
<event>
12    1  0.1441827E-001  0.1921614E+03  0.7546771E-02  0.1156627E+00
         21   -1    0    0  504  503  0.00000000000E+00  0.00000000000E+00  0.40595071976E+03  0.40595071976E+03  0.00000000000E+00 0.  1.
         21   -1    0    0  502  504 -0.00000000000E+00 -0.00000000000E+00 -0.14844298876E+03  0.14844298876E+03  0.00000000000E+00 0.  1.
          6    2    1    2  502    0  0.82338557458E+02  0.59638725105E+01 -0.44151314545E+02  0.19672881964E+03  0.17302509668E+03 0.  0.
         24    2    3    3    0    0  0.28031300994E+02 -0.55440017206E+02  0.46564921631E+01  0.10120914746E+03  0.79763771649E+02 0.  0.
         -6    2    1    2    0  503 -0.82338557458E+02 -0.59638725105E+01  0.30165904555E+03  0.35766488889E+03  0.17352460102E+03 0.  0.
        -24    2    5    5    0    0 -0.58813118307E+02 -0.35177486967E+02  0.30161452255E+03  0.31986312254E+03  0.81514774543E+02 0.  0.
          4    1    4    4  501    0 -0.26848427940E+02 -0.79403516565E+01 -0.33068182789E+01  0.28192593255E+02  0.00000000000E+00 0. -1.
         -3    1    4    4    0  501  0.54879728934E+02 -0.47499665549E+02  0.79633104420E+01  0.73016554208E+02  0.00000000000E+00 0.  1.
          5    1    3    3  502    0  0.54307256464E+02  0.61403889716E+02 -0.48807806708E+02  0.95519672176E+02  0.47000000000E+01 0. -1.
         11    1    6    6    0    0 -0.18784259867E+01 -0.37785713383E+02  0.55047122016E+02  0.66794268184E+02  0.00000000000E+00 0. -1.
        -12    1    6    6    0    0 -0.56934692320E+02  0.26082264162E+01  0.24656740054E+03  0.25306885435E+03  0.00000000000E+00 0.  1.
         -5    1    5    5    0  503 -0.23525439151E+02  0.29213614457E+02  0.44522994858E-01  0.37801766350E+02  0.47000000000E+01 0.  1.
<mgrwt>
<rscale>  2 0.19204854E+03</rscale>
<asrwt>0</asrwt>
<pdfrwt beam="1">  1       21 0.62453956E-01 0.19216137E+03</pdfrwt>
<pdfrwt beam="2">  1       21 0.22837383E-01 0.19216137E+03</pdfrwt>
<totfact> 0.42767777E+04</totfact>
</mgrwt>
</event>
<event>
12    1  0.1441827E-001  0.4419625E+03  0.7546771E-02  0.1030195E+00
         21   -1    0    0  504  503  0.00000000000E+00  0.00000000000E+00  0.13918346513E+04  0.13918346513E+04  0.00000000000E+00 0.  1.
         21   -1    0    0  502  504 -0.00000000000E+00 -0.00000000000E+00 -0.72392948513E+03  0.72392948513E+03  0.00000000000E+00 0.  1.
          6    2    1    2  502    0 -0.99427498575E+02  0.39591735589E+03 -0.61598935121E+03  0.75813831457E+03  0.16939434185E+03 0.  0.
         24    2    3    3    0    0 -0.12916401130E+02  0.16100081823E+03 -0.17734868925E+03  0.25306636923E+03  0.80634563112E+02 0.  0.
         -6    2    1    2    0  503  0.99427498575E+02 -0.39591735589E+03  0.12838945173E+04  0.13576258218E+04  0.16770915378E+03 0.  0.
        -24    2    5    5    0    0  0.97743815003E+02 -0.38207061683E+03  0.12808656823E+04  0.13425981535E+04  0.80131742223E+02 0.  0.
          2    1    4    4  501    0  0.13526160651E+02  0.54053896089E+02 -0.16509650322E+02  0.58114965870E+02  0.00000000000E+00 0. -1.
         -1    1    4    4    0  501 -0.26442561782E+02  0.10694692214E+03 -0.16083903893E+03  0.19495140336E+03  0.00000000000E+00 0.  1.
          5    1    3    3  502    0 -0.86511097444E+02  0.23491653766E+03 -0.43864066196E+03  0.50507194534E+03  0.47000000000E+01 0. -1.
         11    1    6    6    0    0  0.40043858162E+02 -0.52111556857E+02  0.16736905736E+03  0.17980969467E+03  0.00000000000E+00 0. -1.
        -12    1    6    6    0    0  0.57699956841E+02 -0.32995905998E+03  0.11134966249E+04  0.11627884589E+04  0.00000000000E+00 0.  1.
         -5    1    5    5    0  503  0.16836835715E+01 -0.13846739058E+02  0.30288350308E+01  0.15027668300E+02  0.47000000000E+01 0.  1.
<mgrwt>
<rscale>  2 0.44180159E+03</rscale>
<asrwt>0</asrwt>
<pdfrwt beam="1">  1       21 0.21412841E+00 0.44196247E+03</pdfrwt>
<pdfrwt beam="2">  1       21 0.11137377E+00 0.44196247E+03</pdfrwt>
<totfact> 0.54466178E+01</totfact>
</mgrwt>
</event>
<event>
12    1  0.1441827E-001  0.2114800E+03  0.7546771E-02  0.1140672E+00
         21   -1    0    0  504  503  0.00000000000E+00  0.00000000000E+00  0.39284429527E+03  0.39284429527E+03  0.00000000000E+00 0. -1.
         21   -1    0    0  502  504 -0.00000000000E+00 -0.00000000000E+00 -0.11537675011E+03  0.11537675011E+03  0.00000000000E+00 0. -1.
          6    2    1    2  502    0 -0.61733290187E+01  0.12241499040E+03  0.10261241306E+03  0.23381603662E+03  0.17063731070E+03 0.  0.
         24    2    3    3    0    0 -0.95547465903E+01  0.14797370013E+03  0.11550877889E+03  0.20460836846E+03  0.80838093317E+02 0.  0.
         -6    2    1    2    0  503  0.61733290187E+01 -0.12241499040E+03  0.17485513210E+03  0.27440500875E+03  0.17233760977E+03 0.  0.
        -24    2    5    5    0    0  0.19025380402E+02 -0.99102758198E+02  0.40703310786E+02  0.13755678422E+03  0.84153357595E+02 0.  0.
          2    1    4    4  501    0  0.33840789427E+02  0.48475784876E+02  0.29251854676E+02  0.65960380156E+02  0.00000000000E+00 0. -1.
         -1    1    4    4    0  501 -0.43395536017E+02  0.99497915254E+02  0.86256924215E+02  0.13864798831E+03  0.00000000000E+00 0.  1.
          5    1    3    3  502    0  0.33814175716E+01 -0.25558709731E+02 -0.12896365829E+02  0.29207668163E+02  0.47000000000E+01 0. -1.
         11    1    6    6    0    0 -0.14234225729E+02 -0.34161000815E+02  0.51896102418E+02  0.63740039261E+02  0.00000000000E+00 0. -1.
        -12    1    6    6    0    0  0.33259606132E+02 -0.64941757383E+02 -0.11192791632E+02  0.73816744961E+02  0.00000000000E+00 0.  1.
         -5    1    5    5    0  503 -0.12852051384E+02 -0.23312232201E+02  0.13415182132E+03  0.13684822453E+03  0.47000000000E+01 0.  1.
<mgrwt>
<rscale>  2 0.21113333E+03</rscale>
<asrwt>0</asrwt>
<pdfrwt beam="1">  1       21 0.60437584E-01 0.21148000E+03</pdfrwt>
<pdfrwt beam="2">  1       21 0.17750269E-01 0.21148000E+03</pdfrwt>
<totfact> 0.72887927E+04</totfact>
</mgrwt>
</event>
<event>
12    1  0.1441827E-001  0.1922336E+03  0.7546771E-02  0.1157557E+00
         21   -1    0    0  504  503  0.00000000000E+00  0.00000000000E+00  0.86950202069E+02  0.86950202069E+02  0.00000000000E+00 0. -1.
         21   -1    0    0  502  504 -0.00000000000E+00 -0.00000000000E+00 -0.11138067533E+04  0.11138067533E+04  0.00000000000E+00 0. -1.
          6    2    1    2  502    0  0.82120958560E+02  0.19493554755E+02 -0.98675222830E+03  0.10043845845E+04  0.16728593220E+03 0.  0.
         24    2    3    3    0    0  0.39055121037E+02 -0.17461150644E+02 -0.26795482176E+03  0.28333526706E+03  0.81540743130E+02 0.  0.
         -6    2    1    2    0  503 -0.82120958560E+02 -0.19493554755E+02 -0.40104322882E+02  0.19637237077E+03  0.17271334858E+03 0.  0.
        -24    2    5    5    0    0  0.19930073206E+02  0.14999568353E+02 -0.59953752554E+01  0.83280819653E+02  0.79231026301E+02 0.  0.
          4    1    4    4  501    0  0.46448053877E+02 -0.21428947879E+02 -0.26991464618E+03  0.27471901598E+03  0.00000000000E+00 0. -1.
         -3    1    4    4    0  501 -0.73929328400E+01  0.39677972351E+01  0.19598244190E+01  0.86162510774E+01  0.00000000000E+00 0.  1.
          5    1    3    3  502    0  0.43065837523E+02  0.36954705399E+02 -0.71879740654E+03  0.72104931749E+03  0.47000000000E+01 0. -1.
         13    1    6    6    0    0 -0.24542110053E+02  0.25008520619E+02 -0.12567791443E+02  0.37224866033E+02  0.00000000000E+00 0. -1.
        -14    1    6    6    0    0  0.44472183259E+02 -0.10008952266E+02  0.65724161880E+01  0.46055953620E+02  0.00000000000E+00 0.  1.
         -5    1    5    5    0  503 -0.10205103177E+03 -0.34493123108E+02 -0.34108947627E+02  0.11309155112E+03  0.47000000000E+01 0.  1.
<mgrwt>
<rscale>  2 0.19100660E+03</rscale>
<asrwt>0</asrwt>
<pdfrwt beam="1">  1       21 0.13376955E-01 0.19223359E+03</pdfrwt>
<pdfrwt beam="2">  1       21 0.17135488E+00 0.19223359E+03</pdfrwt>
<totfact> 0.10082430E+04</totfact>
</mgrwt>
</event>
<event>
12    1  0.1441827E-001  0.2882662E+03  0.7546771E-02  0.1091807E+00
         21   -1    0    0  504  503  0.00000000000E+00  0.00000000000E+00  0.64962243039E+02  0.64962243039E+02  0.00000000000E+00 0.  1.
         21   -1    0    0  502  504 -0.00000000000E+00 -0.00000000000E+00 -0.12611427828E+04  0.12611427828E+04  0.00000000000E+00 0. -1.
          6    2    1    2  502    0 -0.20529056458E+03  0.99870173540E+02 -0.60407898395E+03  0.66755991252E+03  0.16913471106E+03 0.  0.
         24    2    3    3    0    0 -0.19290398625E+03  0.35527426630E+02 -0.37132863919E+03  0.42571651404E+03  0.69824394644E+02 0.  0.
         -6    2    1    2    0  503  0.20529056458E+03 -0.99870173540E+02 -0.59210155579E+03  0.65854511330E+03  0.17600893845E+03 0.  0.
        -24    2    5    5    0    0  0.16464920717E+03 -0.13893416902E+03 -0.50310107742E+03  0.55308947891E+03  0.79907526792E+02 0.  0.
          2    1    4    4  501    0 -0.93189337096E+02  0.52585744825E+02 -0.19504240950E+03  0.22246585044E+03  0.00000000000E+00 0. -1.
         -1    1    4    4    0  501 -0.99714649156E+02 -0.17058318195E+02 -0.17628622969E+03  0.20325066360E+03  0.00000000000E+00 0.  1.
          5    1    3    3  502    0 -0.12386578323E+02  0.64342746910E+02 -0.23275034476E+03  0.24184339848E+03  0.47000000000E+01 0. -1.
         11    1    6    6    0    0  0.12010520801E+03 -0.11692284232E+03 -0.29652212232E+03  0.34061940795E+03  0.00000000000E+00 0. -1.
        -12    1    6    6    0    0  0.44543999158E+02 -0.22011326701E+02 -0.20657895509E+03  0.21247007096E+03  0.00000000000E+00 0.  1.
         -5    1    5    5    0  503  0.40641357409E+02  0.39063995476E+02 -0.89000478369E+02  0.10545563439E+03  0.47000000000E+01 0.  1.
<mgrwt>
<rscale>  2 0.28722431E+03</rscale>
<asrwt>0</asrwt>
<pdfrwt beam="1">  1       21 0.99941922E-02 0.28826622E+03</pdfrwt>
<pdfrwt beam="2">  1       21 0.19402195E+00 0.28826622E+03</pdfrwt>
<totfact> 0.11172522E+04</totfact>
</mgrwt>
</event>
<event>
12    1  0.1441827E-001  0.2133299E+03  0.7546771E-02  0.1142188E+00
         21   -1    0    0  504  503  0.00000000000E+00  0.00000000000E+00  0.27872653042E+03  0.27872653042E+03  0.00000000000E+00 0. -1.
         21   -1    0    0  502  504 -0.00000000000E+00 -0.00000000000E+00 -0.30830702419E+03  0.30830702419E+03  0.00000000000E+00 0. -1.
          6    2    1    2  502    0 -0.10598100082E+03 -0.70290034625E+02 -0.22390736118E+03  0.29846363593E+03  0.15090849572E+03 0.  0.
         24    2    3    3    0    0 -0.92014951432E+02 -0.15535015826E+02 -0.20388249052E+03  0.23832838783E+03  0.80772906974E+02 0.  0.
         -6    2    1    2    0  503  0.10598100082E+03  0.70290034625E+02  0.19432686741E+03  0.28856991868E+03  0.17128048652E+03 0.  0.
        -24    2    5    5    0    0  0.13076095068E+03  0.73824188072E+02  0.20006446646E+03  0.26246347889E+03  0.79453445772E+02 0.  0.
          2    1    4    4  501    0 -0.88808270671E+02 -0.16369440254E+02 -0.10136017587E+03  0.13575254239E+03  0.00000000000E+00 0. -1.
         -1    1    4    4    0  501 -0.32066807606E+01  0.83442442810E+00 -0.10252231465E+03  0.10257584544E+03  0.00000000000E+00 0.  1.
          5    1    3    3  502    0 -0.13966049392E+02 -0.54755018799E+02 -0.20024870660E+02  0.60135248102E+02  0.47000000000E+01 0. -1.
         13    1    6    6    0    0  0.71212812067E+02 -0.15426537020E+01  0.62997557475E+02  0.95091201647E+02  0.00000000000E+00 0. -1.
        -14    1    6    6    0    0  0.59548138611E+02  0.75366841775E+02  0.13706690899E+03  0.16737227725E+03  0.00000000000E+00 0.  1.
         -5    1    5    5    0  503 -0.24779949854E+02 -0.35341534474E+01 -0.57375990465E+01  0.26106439784E+02  0.47000000000E+01 0.  1.
<mgrwt>
<rscale>  2 0.20921691E+03</rscale>
<asrwt>0</asrwt>
<pdfrwt beam="1">  1       21 0.42881005E-01 0.21332995E+03</pdfrwt>
<pdfrwt beam="2">  1       21 0.47431850E-01 0.21332995E+03</pdfrwt>
<totfact> 0.21971907E+04</totfact>
</mgrwt>
</event>
<event>
12    1  0.1441827E-001  0.1782009E+03  0.7546771E-02  0.1169846E+00
         21   -1    0    0  504  503  0.00000000000E+00  0.00000000000E+00  0.61787805385E+02  0.61787805385E+02  0.00000000000E+00 0. -1.
         21   -1    0    0  502  504 -0.00000000000E+00 -0.00000000000E+00 -0.20353651829E+04  0.20353651829E+04  0.00000000000E+00 0. -1.
          6    2    1    2  502    0 -0.13187000081E+02  0.40804248032E+02 -0.18951935731E+04  0.19035530542E+04  0.17296435115E+03 0.  0.
         24    2    3    3    0    0  0.50429897945E+02 -0.98366349730E+01 -0.91895537769E+03  0.92392316846E+03  0.80716175751E+02 0.  0.
         -6    2    1    2    0  503  0.13187000081E+02 -0.40804248032E+02 -0.78383804342E+02  0.19359993407E+03  0.17174990557E+03 0.  0.
        -24    2    5    5    0    0  0.50253719896E+02 -0.48408620907E+02 -0.26368919735E+01  0.10879749933E+03  0.83433277055E+02 0.  0.
          4    1    4    4  501    0  0.63629448366E+02 -0.11733477363E+02 -0.43514327748E+03  0.43992732710E+03  0.00000000000E+00 0. -1.
         -3    1    4    4    0  501 -0.13199550421E+02  0.18968423901E+01 -0.48381210021E+03  0.48399584136E+03  0.00000000000E+00 0.  1.
          5    1    3    3  502    0 -0.63616898026E+02  0.50640883005E+02 -0.97623819544E+03  0.97962988571E+03  0.47000000000E+01 0. -1.
         13    1    6    6    0    0  0.70956823250E+02 -0.28016787622E+02  0.10316061679E+02  0.76982025714E+02  0.00000000000E+00 0. -1.
        -14    1    6    6    0    0 -0.20703103354E+02 -0.20391833285E+02 -0.12952953653E+02  0.31815473618E+02  0.00000000000E+00 0.  1.
         -5    1    5    5    0  503 -0.37066719816E+02  0.76043728752E+01 -0.75746912369E+02  0.84802434742E+02  0.47000000000E+01 0.  1.
<mgrwt>
<rscale>  2 0.17790551E+03</rscale>
<asrwt>0</asrwt>
<pdfrwt beam="1">  1       21 0.95058167E-02 0.17820087E+03</pdfrwt>
<pdfrwt beam="2">  1       21 0.31313309E+00 0.17820087E+03</pdfrwt>
<totfact> 0.25935352E+03</totfact>
</mgrwt>
</event>
<event>
12    1  0.1441827E-001  0.1896895E+03  0.7546771E-02  0.1158865E+00
         21   -1    0    0  504  503  0.00000000000E+00  0.00000000000E+00  0.77840425221E+02  0.77840425221E+02  0.00000000000E+00 0. -1.
         21   -1    0    0  502  504 -0.00000000000E+00 -0.00000000000E+00 -0.66765801558E+03  0.66765801558E+03  0.00000000000E+00 0. -1.
          6    2    1    2  502    0 -0.57361376898E+02  0.52690406182E+02 -0.50203076010E+03  0.53648016604E+03  0.17236437570E+03 0.  0.
         24    2    3    3    0    0  0.30621769926E+01 -0.17944404442E+02 -0.35110176981E+03  0.35916143481E+03  0.73437762176E+02 0.  0.
         -6    2    1    2    0  503  0.57361376898E+02 -0.52690406182E+02 -0.87786830263E+02  0.20901827476E+03  0.17296099315E+03 0.  0.
        -24    2    5    5    0    0 -0.55032028107E+01 -0.12970658177E+02  0.57110060014E+01  0.89462642730E+02  0.88161361378E+02 0.  0.
          2    1    4    4  501    0  0.66162004791E+01  0.70903953255E+01 -0.31464272360E+03  0.31479213988E+03  0.00000000000E+00 0. -1.
         -1    1    4    4    0  501 -0.35540234865E+01 -0.25034799768E+02 -0.36459046211E+02  0.44369294934E+02  0.00000000000E+00 0.  1.
          5    1    3    3  502    0 -0.60423553891E+02  0.70634810624E+02 -0.15092899029E+03  0.17731873123E+03  0.47000000000E+01 0. -1.
         11    1    6    6    0    0  0.21499341849E+02 -0.34683990220E+02 -0.20830145875E+02  0.45815890853E+02  0.00000000000E+00 0. -1.
        -12    1    6    6    0    0 -0.27002544660E+02  0.21713332042E+02  0.26541151876E+02  0.43646751877E+02  0.00000000000E+00 0.  1.
         -5    1    5    5    0  503  0.62864579709E+02 -0.39719748004E+02 -0.93497836264E+02  0.11955563203E+03  0.47000000000E+01 0.  1.
<mgrwt>
<rscale>  2 0.18955341E+03</rscale>
<asrwt>0</asrwt>
<pdfrwt beam="1">  1       21 0.11975450E-01 0.18968951E+03</pdfrwt>
<pdfrwt beam="2">  1       21 0.10271661E+00 0.18968951E+03</pdfrwt>
<totfact> 0.45428463E+04</totfact>
</mgrwt>
</event>
<event>
12    1  0.1441827E-001  0.2716352E+03  0.7546771E-02  0.1102169E+00
         21   -1    0    0  504  503  0.00000000000E+00  0.00000000000E+00  0.23044424689E+03  0.23044424689E+03  0.00000000000E+00 0. -1.
         21   -1    0    0  502  504 -0.00000000000E+00 -0.00000000000E+00 -0.30675349449E+03  0.30675349449E+03  0.00000000000E+00 0. -1.
          6    2    1    2  502    0 -0.19044905080E+03  0.31155337215E+02 -0.22649685834E+02  0.27257784192E+03  0.19116530975E+03 0.  0.
         24    2    3    3    0    0 -0.16907405329E+03  0.88072894808E+02  0.85438036610E+00  0.20722472410E+03  0.81231065589E+02 0.  0.
         -6    2    1    2    0  503  0.19044905080E+03 -0.31155337215E+02 -0.53659561769E+02  0.26461989946E+03  0.17292439572E+03 0.  0.
        -24    2    5    5    0    0  0.18302491657E+03  0.25037266813E+02 -0.39499111301E+02  0.20600816963E+03  0.82183948223E+02 0.  0.
          2    1    4    4  501    0 -0.99279296440E+02  0.65066034584E+01 -0.58487159979E+01  0.99664046020E+02  0.00000000000E+00 0. -1.
         -1    1    4    4    0  501 -0.69794756852E+02  0.81566291350E+02  0.67030963640E+01  0.10756067808E+03  0.00000000000E+00 0.  1.
          5    1    3    3  502    0 -0.21374997506E+02 -0.56917557592E+02 -0.23504066200E+02  0.65353117819E+02  0.47000000000E+01 0. -1.
         13    1    6    6    0    0  0.52746342565E+02  0.42351078907E+02  0.34825398049E+01  0.67734176174E+02  0.00000000000E+00 0. -1.
        -14    1    6    6    0    0  0.13027857401E+03 -0.17313812094E+02 -0.42981651106E+02  0.13827399346E+03  0.00000000000E+00 0.  1.
         -5    1    5    5    0  503  0.74241342260E+01 -0.56192604028E+02 -0.14160450468E+02  0.58611729832E+02  0.47000000000E+01 0.  1.
<mgrwt>
<rscale>  2 0.26845141E+03</rscale>
<asrwt>0</asrwt>
<pdfrwt beam="1">  1       21 0.35452961E-01 0.27163518E+03</pdfrwt>
<pdfrwt beam="2">  1       21 0.47192845E-01 0.27163518E+03</pdfrwt>
<totfact> 0.31748242E+04</totfact>
</mgrwt>
</event>
<event>
12    1  0.1441827E-001  0.1850198E+03  0.7546771E-02  0.1163449E+00
         21   -1    0    0  504  503  0.00000000000E+00  0.00000000000E+00  0.33807186682E+03  0.33807186682E+03  0.00000000000E+00 0. -1.
         21   -1    0    0  502  504 -0.00000000000E+00 -0.00000000000E+00 -0.43743302382E+03  0.43743302382E+03  0.00000000000E+00 0. -1.
          6    2    1    2  502    0  0.46307344716E+02 -0.41388145929E+02 -0.39014948153E+03  0.43179734053E+03  0.17428418330E+03 0.  0.
         24    2    3    3    0    0 -0.37859391268E+02  0.47797243191E+01 -0.15206835534E+03  0.17504799907E+03  0.77851384132E+02 0.  0.
         -6    2    1    2    0  503 -0.46307344716E+02  0.41388145929E+02  0.29078832454E+03  0.34370755012E+03  0.17239397183E+03 0.  0.
        -24    2    5    5    0    0 -0.90245114997E+02  0.59509348394E+02  0.23321172579E+03  0.26890072985E+03  0.78957901050E+02 0.  0.
          2    1    4    4  501    0 -0.22086156777E+02  0.15788968891E+02 -0.15338351238E+03  0.15576774933E+03  0.00000000000E+00 0. -1.
         -1    1    4    4    0  501 -0.15773234491E+02 -0.11009244572E+02  0.13151570363E+01  0.19280249749E+02  0.00000000000E+00 0.  1.
          5    1    3    3  502    0  0.84166735984E+02 -0.46167870248E+02 -0.23808112619E+03  0.25674934145E+03  0.47000000000E+01 0. -1.
         11    1    6    6    0    0 -0.12616401248E+02  0.52017804632E+02  0.71011407626E+02  0.88924943589E+02  0.00000000000E+00 0. -1.
        -12    1    6    6    0    0 -0.77628713749E+02  0.74915437621E+01  0.16220031817E+03  0.17997578626E+03  0.00000000000E+00 0.  1.
         -5    1    5    5    0  503  0.43937770281E+02 -0.18121202466E+02  0.57576598744E+02  0.74806820270E+02  0.47000000000E+01 0.  1.
<mgrwt>
<rscale>  2 0.18457332E+03</rscale>
<asrwt>0</asrwt>
<pdfrwt beam="1">  1       21 0.52011057E-01 0.18501980E+03</pdfrwt>
<pdfrwt beam="2">  1       21 0.67297388E-01 0.18501980E+03</pdfrwt>
<totfact> 0.71289180E+03</totfact>
</mgrwt>
</event>
<event>
12    1  0.1441827E-001  0.1978289E+03  0.7546771E-02  0.1151620E+00
         21   -1    0    0  504  503  0.00000000000E+00  0.00000000000E+00  0.86483905867E+02  0.86483905867E+02  0.00000000000E+00 0.  1.
         21   -1    0    0  502  504 -0.00000000000E+00 -0.00000000000E+00 -0.56636169781E+03  0.56636169781E+03  0.00000000000E+00 0.  1.
          6    2    1    2  502    0 -0.36787955080E+02  0.88432703978E+02 -0.38644828674E+03  0.43406413980E+03  0.17290373730E+03 0.  0.
         24    2    3    3    0    0 -0.28021959085E+02  0.11265027117E+03 -0.38153178647E+03  0.40742591123E+03  0.83390978341E+02 0.  0.
         -6    2    1    2    0  503  0.36787955080E+02 -0.88432703978E+02 -0.93429505206E+02  0.21878146387E+03  0.17309696623E+03 0.  0.
        -24    2    5    5    0    0 -0.29029156051E+02  0.18357191004E+02 -0.41613658939E+02  0.82976656474E+02  0.63037691478E+02 0.  0.
          4    1    4    4  501    0  0.18394317175E+02  0.70481625905E+02 -0.13914815279E+03  0.15706119483E+03  0.00000000000E+00 0. -1.
         -3    1    4    4    0  501 -0.46416276260E+02  0.42168645267E+02 -0.24238363368E+03  0.25036471641E+03  0.00000000000E+00 0.  1.
          5    1    3    3  502    0 -0.87659959959E+01 -0.24217567194E+02 -0.49165002632E+01  0.26638228571E+02  0.47000000000E+01 0. -1.
         11    1    6    6    0    0  0.89101957098E+01  0.16460947790E+02 -0.40904091045E+02  0.44983319731E+02  0.00000000000E+00 0. -1.
        -12    1    6    6    0    0 -0.37939351760E+02  0.18962432136E+01 -0.70956789327E+00  0.37993336744E+02  0.00000000000E+00 0.  1.
         -5    1    5    5    0  503  0.65817111131E+02 -0.10678989498E+03 -0.51815846268E+02  0.13580480740E+03  0.47000000000E+01 0.  1.
<mgrwt>
<rscale>  2 0.19778658E+03</rscale>
<asrwt>0</asrwt>
<pdfrwt beam="1">  1       21 0.13305216E-01 0.19782886E+03</pdfrwt>
<pdfrwt beam="2">  1       21 0.87132570E-01 0.19782886E+03</pdfrwt>
<totfact> 0.55046412E+04</totfact>
</mgrwt>
</event>
<event>
12    1  0.1441827E-001  0.2054897E+03  0.7546771E-02  0.1145292E+00
         21   -1    0    0  504  503  0.00000000000E+00  0.00000000000E+00  0.26522855865E+03  0.26522855865E+03  0.00000000000E+00 0. -1.
         21   -1    0    0  502  504 -0.00000000000E+00 -0.00000000000E+00 -0.20030310273E+03  0.20030310273E+03  0.00000000000E+00 0.  1.
          6    2    1    2  502    0  0.83468130674E+02 -0.73345902206E+02 -0.73504672182E+02  0.21776377871E+03  0.17225439407E+03 0.  0.
         24    2    3    3    0    0  0.13940498577E+02 -0.92730279382E+02 -0.34659415145E+02  0.13566085733E+03  0.91702513269E+02 0.  0.
         -6    2    1    2    0  503 -0.83468130674E+02  0.73345902206E+02  0.13843012811E+03  0.24776788267E+03  0.17285679942E+03 0.  0.
        -24    2    5    5    0    0 -0.49364700992E+02  0.78917184470E+02  0.15800017532E+03  0.20777838592E+03  0.97688313244E+02 0.  0.
          4    1    4    4  501    0  0.12382279624E+02  0.22566680522E+01  0.21783794819E+02  0.25158440256E+02  0.00000000000E+00 0. -1.
         -3    1    4    4    0  501  0.15582189527E+01 -0.94986947434E+02 -0.56443209965E+02  0.11050241708E+03  0.00000000000E+00 0.  1.
          5    1    3    3  502    0  0.69527632097E+02  0.19384377176E+02 -0.38845257036E+02  0.82102921372E+02  0.47000000000E+01 0. -1.
         13    1    6    6    0    0 -0.59181241594E+02  0.18765787412E+02  0.36944278757E+02  0.72245787882E+02  0.00000000000E+00 0. -1.
        -14    1    6    6    0    0  0.98165406019E+01  0.60151397058E+02  0.12105589657E+03  0.13553259804E+03  0.00000000000E+00 0.  1.
         -5    1    5    5    0  503 -0.34103429682E+02 -0.55712822642E+01 -0.19570047218E+02  0.39989496749E+02  0.47000000000E+01 0.  1.
<mgrwt>
<rscale>  2 0.20536298E+03</rscale>
<asrwt>0</asrwt>
<pdfrwt beam="1">  1       21 0.40804394E-01 0.20548972E+03</pdfrwt>
<pdfrwt beam="2">  1       21 0.30815862E-01 0.20548972E+03</pdfrwt>
<totfact> 0.58157054E+04</totfact>
</mgrwt>
</event>
<event>
12    1  0.1441827E-001  0.1831119E+03  0.7546771E-02  0.1165036E+00
         21   -1    0    0  504  503  0.00000000000E+00  0.00000000000E+00  0.21267675209E+04  0.21267675209E+04  0.00000000000E+00 0. -1.
         21   -1    0    0  502  504 -0.00000000000E+00 -0.00000000000E+00 -0.38219075258E+02  0.38219075258E+02  0.00000000000E+00 0. -1.
          6    2    1    2  502    0 -0.62832687065E+01  0.57738869419E+02  0.21419810815E+03  0.28179920797E+03  0.17365686733E+03 0.  0.
         24    2    3    3    0    0 -0.64475507429E+02  0.28851641288E+02  0.87407011519E+02  0.13925489633E+03  0.82234008938E+02 0.  0.
         -6    2    1    2    0  503  0.62832687065E+01 -0.57738869419E+02  0.18743503375E+04  0.18831873882E+04  0.17272027924E+03 0.  0.
        -24    2    5    5    0    0  0.51517475912E+01 -0.10369132939E+03  0.15151809008E+04  0.15210580147E+04  0.84058845548E+02 0.  0.
          4    1    4    4  501    0 -0.11216724845E+02  0.49605393973E+02  0.47055759100E+02  0.69287477165E+02  0.00000000000E+00 0. -1.
         -3    1    4    4    0  501 -0.53258782584E+02 -0.20753752685E+02  0.40351252419E+02  0.69967419165E+02  0.00000000000E+00 0.  1.
          5    1    3    3  502    0  0.58192238723E+02  0.28887228131E+02  0.12679109663E+03  0.14254431164E+03  0.47000000000E+01 0. -1.
         11    1    6    6    0    0 -0.26479687707E+02 -0.64668771049E+02  0.52858396037E+03  0.53318310830E+03  0.00000000000E+00 0. -1.
        -12    1    6    6    0    0  0.31631435299E+02 -0.39022558342E+02  0.98659694047E+03  0.98787490640E+03  0.00000000000E+00 0.  1.
         -5    1    5    5    0  503  0.11315211153E+01  0.45952459972E+02  0.35916943669E+03  0.36212937353E+03  0.47000000000E+01 0.  1.
<mgrwt>
<rscale>  2 0.18288949E+03</rscale>
<asrwt>0</asrwt>
<pdfrwt beam="1">  1       21 0.32719491E+00 0.18311189E+03</pdfrwt>
<pdfrwt beam="2">  1       21 0.58798594E-02 0.18311189E+03</pdfrwt>
<totfact> 0.49119423E+03</totfact>
</mgrwt>
</event>
<event>
12    1  0.1441827E-001  0.1985369E+03  0.7546771E-02  0.1151134E+00
         21   -1    0    0  504  503  0.00000000000E+00  0.00000000000E+00  0.41251863883E+03  0.41251863883E+03  0.00000000000E+00 0.  1.
         21   -1    0    0  502  504 -0.00000000000E+00 -0.00000000000E+00 -0.32001346293E+03  0.32001346293E+03  0.00000000000E+00 0. -1.
          6    2    1    2  502    0 -0.75727436365E+02 -0.60209466801E+02 -0.26075995147E+03  0.32729989048E+03  0.17253881160E+03 0.  0.
         24    2    3    3    0    0 -0.44805667780E+02 -0.14942201328E+02 -0.44898792401E+02  0.10453676272E+03  0.81738705365E+02 0.  0.
         -6    2    1    2    0  503  0.75727436365E+02  0.60209466801E+02  0.35326512737E+03  0.40523221127E+03  0.17336975031E+03 0.  0.
        -24    2    5    5    0    0  0.19769414417E+02 -0.31967811508E+02  0.18536251309E+03  0.20562928359E+03  0.80693062221E+02 0.  0.
          2    1    4    4  501    0 -0.15253391593E+02 -0.41016836688E+02 -0.48060833995E+02  0.64999158542E+02  0.00000000000E+00 0. -1.
         -1    1    4    4    0  501 -0.29552276187E+02  0.26074635359E+02  0.31620415932E+01  0.39537604176E+02  0.00000000000E+00 0.  1.
          5    1    3    3  502    0 -0.30921768585E+02 -0.45267265473E+02 -0.21586115907E+03  0.22276312777E+03  0.47000000000E+01 0. -1.
         11    1    6    6    0    0  0.10749295857E+02  0.15440876761E+02  0.57895602380E+01  0.19684690608E+02  0.00000000000E+00 0. -1.
        -12    1    6    6    0    0  0.90201185602E+01 -0.47408688269E+02  0.17957295285E+03  0.18594459298E+03  0.00000000000E+00 0.  1.
         -5    1    5    5    0  503  0.55958021948E+02  0.92177278309E+02  0.16790261428E+03  0.19960292768E+03  0.47000000000E+01 0.  1.
<mgrwt>
<rscale>  2 0.19835534E+03</rscale>
<asrwt>0</asrwt>
<pdfrwt beam="1">  1       21 0.63464406E-01 0.19853689E+03</pdfrwt>
<pdfrwt beam="2">  1       21 0.49232840E-01 0.19853689E+03</pdfrwt>
<totfact> 0.89963714E+03</totfact>
</mgrwt>
</event>
<event>
12    1  0.1441827E-001  0.2575038E+03  0.7546771E-02  0.1108660E+00
         21   -1    0    0  504  503  0.00000000000E+00  0.00000000000E+00  0.73750713481E+03  0.73750713481E+03  0.00000000000E+00 0. -1.
         21   -1    0    0  502  504 -0.00000000000E+00 -0.00000000000E+00 -0.91711148406E+02  0.91711148406E+02  0.00000000000E+00 0.  1.
          6    2    1    2  502    0  0.18140079183E+03  0.59717880545E+02  0.26450611152E+03  0.36914995847E+03  0.17273024135E+03 0.  0.
         24    2    3    3    0    0  0.12782975918E+03  0.10075883641E+03  0.14601206328E+03  0.23270529912E+03  0.79620620244E+02 0.  0.
         -6    2    1    2    0  503 -0.18140079183E+03 -0.59717880545E+02  0.38128987489E+03  0.46006832475E+03  0.17265115757E+03 0.  0.
        -24    2    5    5    0    0 -0.13771860652E+03 -0.95602832554E+02  0.35339220135E+03  0.39685255707E+03  0.67078967646E+02 0.  0.
          2    1    4    4  501    0  0.80912886039E+02  0.73830720699E+02  0.45597511908E+02  0.11864654878E+03  0.00000000000E+00 0. -1.
         -1    1    4    4    0  501  0.46916873144E+02  0.26928115713E+02  0.10041455137E+03  0.11405875034E+03  0.00000000000E+00 0.  1.
          5    1    3    3  502    0  0.53571032647E+02 -0.41040955867E+02  0.11849404824E+03  0.13644465935E+03  0.47000000000E+01 0. -1.
         11    1    6    6    0    0 -0.80796696518E+02 -0.32766656995E+02  0.11844080365E+03  0.14707135665E+03  0.00000000000E+00 0. -1.
        -12    1    6    6    0    0 -0.56921909998E+02 -0.62836175559E+02  0.23495139771E+03  0.24978120042E+03  0.00000000000E+00 0.  1.
         -5    1    5    5    0  503 -0.43682185314E+02  0.35884952009E+02  0.27897673534E+02  0.63215767678E+02  0.47000000000E+01 0.  1.
<mgrwt>
<rscale>  2 0.25749054E+03</rscale>
<asrwt>0</asrwt>
<pdfrwt beam="1">  1       21 0.11346263E+00 0.25750380E+03</pdfrwt>
<pdfrwt beam="2">  1       21 0.14109408E-01 0.25750380E+03</pdfrwt>
<totfact> 0.25646535E+04</totfact>
</mgrwt>
</event>
<event>
12    1  0.1441827E-001  0.2133152E+03  0.7546771E-02  0.1139014E+00
         21   -1    0    0  504  503  0.00000000000E+00  0.00000000000E+00  0.89270721614E+02  0.89270721614E+02  0.00000000000E+00 0.  1.
         21   -1    0    0  502  504 -0.00000000000E+00 -0.00000000000E+00 -0.67230260670E+03  0.67230260670E+03  0.00000000000E+00 0.  1.
          6    2    1    2  502    0  0.11269042905E+03  0.53974602942E+02 -0.47922879614E+03  0.52456040344E+03  0.17289010166E+03 0.  0.
         24    2    3    3    0    0  0.22686906296E+02 -0.67991243389E+01 -0.98604167526E+02  0.12871791211E+03  0.79275439050E+02 0.  0.
         -6    2    1    2    0  503 -0.11269042905E+03 -0.53974602942E+02 -0.10380308895E+03  0.23701292487E+03  0.17259100417E+03 0.  0.
        -24    2    5    5    0    0 -0.17579281019E+02  0.19298944879E+02 -0.76816113588E+02  0.11386451795E+03  0.79893258451E+02 0.  0.
          2    1    4    4  501    0 -0.27085597810E+02  0.42790646007E+01 -0.16305438295E+02  0.31903092649E+02  0.00000000000E+00 0. -1.
         -1    1    4    4    0  501  0.49772504105E+02 -0.11078188940E+02 -0.82298729231E+02  0.96814819466E+02  0.00000000000E+00 0.  1.
          5    1    3    3  502    0  0.90003522750E+02  0.60773727281E+02 -0.38062462861E+03  0.39584249133E+03  0.47000000000E+01 0. -1.
         13    1    6    6    0    0  0.38366475155E+01 -0.29421545625E+02 -0.18747729832E+02  0.35097358661E+02  0.00000000000E+00 0. -1.
        -14    1    6    6    0    0 -0.21415928535E+02  0.48720490504E+02 -0.58068383755E+02  0.78767159286E+02  0.00000000000E+00 0.  1.
         -5    1    5    5    0  503 -0.95111148027E+02 -0.73273547821E+02 -0.26986975362E+02  0.12314840693E+03  0.47000000000E+01 0.  1.
<mgrwt>
<rscale>  2 0.21325460E+03</rscale>
<asrwt>0</asrwt>
<pdfrwt beam="1">  1       21 0.13733958E-01 0.21331521E+03</pdfrwt>
<pdfrwt beam="2">  1       21 0.10343117E+00 0.21331521E+03</pdfrwt>
<totfact> 0.34475685E+04</totfact>
</mgrwt>
</event>
<event>
12    1  0.1441827E-001  0.1910305E+03  0.7546771E-02  0.1157875E+00
         21   -1    0    0  504  503  0.00000000000E+00  0.00000000000E+00  0.61933306005E+03  0.61933306005E+03  0.00000000000E+00 0.  1.
         21   -1    0    0  502  504 -0.00000000000E+00 -0.00000000000E+00 -0.15452353157E+03  0.15452353157E+03  0.00000000000E+00 0.  1.
          6    2    1    2  502    0 -0.20383532274E+02 -0.76691695097E+02 -0.73026046388E+02  0.20310291287E+03  0.17210719125E+03 0.  0.
         24    2    3    3    0    0 -0.29621299357E+02 -0.50453380632E+02 -0.11493168524E+03  0.15258600428E+03  0.81548951174E+02 0.  0.
         -6    2    1    2    0  503  0.20383532274E+02  0.76691695097E+02  0.53783557487E+03  0.57075367874E+03  0.17376867302E+03 0.  0.
        -24    2    5    5    0    0 -0.51689303827E+02  0.46362604110E+02  0.21581534661E+03  0.23934235596E+03  0.76728249902E+02 0.  0.
          4    1    4    4  501    0 -0.47502812799E+01  0.21700573311E+02 -0.39269179669E+02  0.45117053606E+02  0.00000000000E+00 0. -1.
         -3    1    4    4    0  501 -0.24871018077E+02 -0.72153953943E+02 -0.75662505567E+02  0.10746895067E+03  0.00000000000E+00 0.  1.
          5    1    3    3  502    0  0.92377670823E+01 -0.26238314464E+02  0.41905638849E+02  0.50516908594E+02  0.47000000000E+01 0. -1.
         11    1    6    6    0    0 -0.55238850296E+02 -0.67113229139E+00  0.99117173219E+02  0.11347244171E+03  0.00000000000E+00 0. -1.
        -12    1    6    6    0    0  0.35495464690E+01  0.47033736402E+02  0.11669817339E+03  0.12586991425E+03  0.00000000000E+00 0.  1.
         -5    1    5    5    0  503  0.72072836102E+02  0.30329090986E+02  0.32202022825E+03  0.33141132278E+03  0.47000000000E+01 0.  1.
<mgrwt>
<rscale>  2 0.19065186E+03</rscale>
<asrwt>0</asrwt>
<pdfrwt beam="1">  1       21 0.95282008E-01 0.19103051E+03</pdfrwt>
<pdfrwt beam="2">  1       21 0.23772851E-01 0.19103051E+03</pdfrwt>
<totfact> 0.15352226E+04</totfact>
</mgrwt>
</event>
<event>
12    1  0.1441827E-001  0.2017027E+03  0.7546771E-02  0.1148366E+00
         21   -1    0    0  504  503  0.00000000000E+00  0.00000000000E+00  0.85401022441E+02  0.85401022441E+02  0.00000000000E+00 0. -1.
         21   -1    0    0  502  504 -0.00000000000E+00 -0.00000000000E+00 -0.48979137321E+03  0.48979137321E+03  0.00000000000E+00 0.  1.
          6    2    1    2  502    0 -0.74854828276E+02 -0.71200511400E+02 -0.15364867495E+03  0.25355844805E+03  0.17323744724E+03 0.  0.
         24    2    3    3    0    0  0.18022369974E+02 -0.48473456633E+02 -0.11609737892E+03  0.15072419886E+03  0.81022841923E+02 0.  0.
         -6    2    1    2    0  503  0.74854828276E+02  0.71200511400E+02 -0.25074167583E+03  0.32163394760E+03  0.17292845375E+03 0.  0.
        -24    2    5    5    0    0  0.98917474286E+02  0.88836580931E+02 -0.24682443690E+03  0.29117944642E+03  0.78654704485E+02 0.  0.
          2    1    4    4  501    0  0.16657837006E+02 -0.71293842361E+02 -0.86468560191E+02  0.11330095937E+03  0.00000000000E+00 0. -1.
         -1    1    4    4    0  501  0.13645329681E+01  0.22820385728E+02 -0.29628818726E+02  0.37423239492E+02  0.00000000000E+00 0.  1.
          5    1    3    3  502    0 -0.92877198250E+02 -0.22727054767E+02 -0.37551296031E+02  0.10283424919E+03  0.47000000000E+01 0. -1.
         13    1    6    6    0    0  0.78655493869E+02  0.47773584803E+02 -0.93614799692E+02  0.13127350396E+03  0.00000000000E+00 0. -1.
        -14    1    6    6    0    0  0.20261980416E+02  0.41062996128E+02 -0.15320963721E+03  0.15990594246E+03  0.00000000000E+00 0.  1.
         -5    1    5    5    0  503 -0.24062646010E+02 -0.17636069531E+02 -0.39172389278E+01  0.30454501183E+02  0.47000000000E+01 0.  1.
<mgrwt>
<rscale>  2 0.20163632E+03</rscale>
<asrwt>0</asrwt>
<pdfrwt beam="1">  1       21 0.13138619E-01 0.20170268E+03</pdfrwt>
<pdfrwt beam="2">  1       21 0.75352520E-01 0.20170268E+03</pdfrwt>
<totfact> 0.78146332E+04</totfact>
</mgrwt>
</event>
<event>
12    1  0.1441827E-001  0.1836976E+03  0.7546771E-02  0.1164418E+00
         21   -1    0    0  504  503  0.00000000000E+00  0.00000000000E+00  0.12722963947E+03  0.12722963947E+03  0.00000000000E+00 0.  1.
         21   -1    0    0  502  504 -0.00000000000E+00 -0.00000000000E+00 -0.49023066722E+03  0.49023066722E+03  0.00000000000E+00 0. -1.
          6    2    1    2  502    0  0.10681620680E+02 -0.56766124199E+02 -0.39090800947E+03  0.43165504907E+03  0.17372541449E+03 0.  0.
         24    2    3    3    0    0  0.40547242528E+02 -0.59766783579E+02 -0.13082051031E+03  0.16979906471E+03  0.80632308426E+02 0.  0.
         -6    2    1    2    0  503 -0.10681620680E+02  0.56766124199E+02  0.27906981718E+02  0.18580525763E+03  0.17437977020E+03 0.  0.
        -24    2    5    5    0    0  0.24984990833E+02  0.87314035356E+02  0.53374077655E+02  0.13217741944E+03  0.79837882657E+02 0.  0.
          4    1    4    4  501    0  0.59719045577E+02 -0.19820928605E+02 -0.65111370475E+02  0.90546806572E+02  0.00000000000E+00 0. -1.
         -3    1    4    4    0  501 -0.19171803049E+02 -0.39945854974E+02 -0.65709139836E+02  0.79252258136E+02  0.00000000000E+00 0.  1.
          5    1    3    3  502    0 -0.29865621848E+02  0.30006593797E+01 -0.26008749916E+03  0.26185598436E+03  0.47000000000E+01 0. -1.
         13    1    6    6    0    0  0.10788669925E+01  0.95607535501E+02  0.42657634307E+02  0.10469784412E+03  0.00000000000E+00 0. -1.
        -14    1    6    6    0    0  0.23906123841E+02 -0.82935001451E+01  0.10716443348E+02  0.27479575320E+02  0.00000000000E+00 0.  1.
         -5    1    5    5    0  503 -0.35666611514E+02 -0.30547911157E+02 -0.25467095937E+02  0.53627838185E+02  0.47000000000E+01 0.  1.
<mgrwt>
<rscale>  2 0.18354210E+03</rscale>
<asrwt>0</asrwt>
<pdfrwt beam="1">  1       21 0.19573791E-01 0.18369756E+03</pdfrwt>
<pdfrwt beam="2">  1       21 0.75420103E-01 0.18369756E+03</pdfrwt>
<totfact> 0.37906185E+04</totfact>
</mgrwt>
</event>
<event>
12    1  0.1441827E-001  0.1823609E+03  0.7546771E-02  0.1165688E+00
         21   -1    0    0  504  503  0.00000000000E+00  0.00000000000E+00  0.18033968158E+03  0.18033968158E+03  0.00000000000E+00 0.  1.
         21   -1    0    0  502  504 -0.00000000000E+00 -0.00000000000E+00 -0.19396501259E+03  0.19396501259E+03  0.00000000000E+00 0.  1.
          6    2    1    2  502    0 -0.55758632445E+02 -0.11156338625E+02  0.36087687635E+02  0.18589730923E+03  0.17326857591E+03 0.  0.
         24    2    3    3    0    0 -0.40025465785E+02  0.24625243952E+02  0.83152883813E+02  0.12453708697E+03  0.79916477605E+02 0.  0.
         -6    2    1    2    0  503  0.55758632445E+02  0.11156338625E+02 -0.49713018635E+02  0.18840738494E+03  0.17260495212E+03 0.  0.
        -24    2    5    5    0    0 -0.10160773991E+02  0.32350703137E+02 -0.74603412616E+02  0.11467685568E+03  0.80220338656E+02 0.  0.
          4    1    4    4  501    0  0.21999621221E+01  0.40188057330E+02  0.64055092715E+02  0.75650344930E+02  0.00000000000E+00 0. -1.
         -3    1    4    4    0  501 -0.42225427907E+02 -0.15562813378E+02  0.19097791098E+02  0.48886742037E+02  0.00000000000E+00 0.  1.
          5    1    3    3  502    0 -0.15733166660E+02 -0.35781582576E+02 -0.47065196179E+02  0.61360222263E+02  0.47000000000E+01 0. -1.
         13    1    6    6    0    0 -0.23044654595E+02  0.24258365491E+02  0.48241173279E+01  0.33805273401E+02  0.00000000000E+00 0. -1.
        -14    1    6    6    0    0  0.12883880605E+02  0.80923376460E+01 -0.79427529944E+02  0.80871582283E+02  0.00000000000E+00 0.  1.
         -5    1    5    5    0  503  0.65919406435E+02 -0.21194364512E+02  0.24890393981E+02  0.73730529256E+02  0.47000000000E+01 0.  1.
<mgrwt>
<rscale>  2 0.18220306E+03</rscale>
<asrwt>0</asrwt>
<pdfrwt beam="1">  1       21 0.27744566E-01 0.18236087E+03</pdfrwt>
<pdfrwt beam="2">  1       21 0.29840771E-01 0.18236087E+03</pdfrwt>
<totfact> 0.13398838E+05</totfact>
</mgrwt>
</event>
<event>
12    1  0.1441827E-001  0.1756907E+03  0.7546771E-02  0.1173561E+00
         21   -1    0    0  504  503  0.00000000000E+00  0.00000000000E+00  0.55814181338E+02  0.55814181338E+02  0.00000000000E+00 0. -1.
         21   -1    0    0  502  504 -0.00000000000E+00 -0.00000000000E+00 -0.80424421381E+03  0.80424421381E+03  0.00000000000E+00 0.  1.
          6    2    1    2  502    0 -0.23678137475E+02  0.20445080640E+02 -0.62759789204E+03  0.65172564908E+03  0.17288305891E+03 0.  0.
         24    2    3    3    0    0 -0.10472455658E+02  0.17935423143E+02 -0.63085898964E+03  0.63711698143E+03  0.86623504183E+02 0.  0.
         -6    2    1    2    0  503  0.23678137475E+02 -0.20445080640E+02 -0.12083214043E+03  0.20833274607E+03  0.16680369123E+03 0.  0.
        -24    2    5    5    0    0 -0.46094651999E+02 -0.31149533128E+02 -0.72958312813E+02  0.12291131536E+03  0.81787931122E+02 0.  0.
          2    1    4    4  501    0 -0.35219802869E+02  0.40592593356E+02 -0.32370444109E+03  0.32813527444E+03  0.00000000000E+00 0. -1.
         -1    1    4    4    0  501  0.24747347211E+02 -0.22657170212E+02 -0.30715454855E+03  0.30898170698E+03  0.00000000000E+00 0.  1.
          5    1    3    3  502    0 -0.13205681817E+02  0.25096574968E+01  0.32610976033E+01  0.14608667653E+02  0.47000000000E+01 0. -1.
         11    1    6    6    0    0 -0.46672866921E+02  0.10383743132E+02 -0.64880838111E+02  0.80595916658E+02  0.00000000000E+00 0. -1.
        -12    1    6    6    0    0  0.57821492214E+00 -0.41533276261E+02 -0.80774747019E+01  0.42315398698E+02  0.00000000000E+00 0.  1.
         -5    1    5    5    0  503  0.69772789474E+02  0.10704452488E+02 -0.47873827620E+02  0.85421430712E+02  0.47000000000E+01 0.  1.
<mgrwt>
<rscale>  2 0.17417651E+03</rscale>
<asrwt>0</asrwt>
<pdfrwt beam="1">  1       21 0.85867983E-02 0.17569066E+03</pdfrwt>
<pdfrwt beam="2">  1       21 0.12372986E+00 0.17569066E+03</pdfrwt>
<totfact> 0.52365260E+04</totfact>
</mgrwt>
</event>
<event>
12    1  0.1441827E-001  0.1816116E+03  0.7546771E-02  0.1166362E+00
         21   -1    0    0  504  503  0.00000000000E+00  0.00000000000E+00  0.55980124365E+02  0.55980124365E+02  0.00000000000E+00 0. -1.
         21   -1    0    0  502  504 -0.00000000000E+00 -0.00000000000E+00 -0.80395695288E+03  0.80395695288E+03  0.00000000000E+00 0. -1.
          6    2    1    2  502    0 -0.55050308230E+02  0.76681451779E+01 -0.59733056823E+03  0.62432889620E+03  0.17289715441E+03 0.  0.
         24    2    3    3    0    0  0.42009190952E+01 -0.46102034303E+02 -0.41304597334E+03  0.42336909412E+03  0.80569029228E+02 0.  0.
         -6    2    1    2    0  503  0.55050308230E+02 -0.76681451779E+01 -0.15064626029E+03  0.23560818105E+03  0.17241688534E+03 0.  0.
        -24    2    5    5    0    0  0.68631458004E+02 -0.58482141409E+02 -0.74997807740E+02  0.14335153784E+03  0.82429086764E+02 0.  0.
          2    1    4    4  501    0 -0.14116351912E+02  0.19574400973E+02 -0.13049337973E+03  0.13270625726E+03  0.00000000000E+00 0. -1.
         -1    1    4    4    0  501  0.18317271008E+02 -0.65676435276E+02 -0.28255259362E+03  0.29066283685E+03  0.00000000000E+00 0.  1.
          5    1    3    3  502    0 -0.59251227325E+02  0.53770179481E+02 -0.18428459488E+03  0.20095980208E+03  0.47000000000E+01 0. -1.
         11    1    6    6    0    0  0.80627297397E+02 -0.21914733166E+02 -0.54397836848E+02  0.99700257116E+02  0.00000000000E+00 0. -1.
        -12    1    6    6    0    0 -0.11995839393E+02 -0.36567408243E+02 -0.20599970893E+02  0.43651280728E+02  0.00000000000E+00 0.  1.
         -5    1    5    5    0  503 -0.13581149774E+02  0.50813996231E+02 -0.75648452552E+02  0.92256643206E+02  0.47000000000E+01 0.  1.
<mgrwt>
<rscale>  2 0.18149717E+03</rscale>
<asrwt>0</asrwt>
<pdfrwt beam="1">  1       21 0.86123262E-02 0.18161157E+03</pdfrwt>
<pdfrwt beam="2">  1       21 0.12368569E+00 0.18161157E+03</pdfrwt>
<totfact> 0.51976463E+04</totfact>
</mgrwt>
</event>
<event>
12    1  0.1441827E-001  0.3679580E+03  0.7546771E-02  0.1055608E+00
         21   -1    0    0  504  503  0.00000000000E+00  0.00000000000E+00  0.97915516791E+03  0.97915516791E+03  0.00000000000E+00 0. -1.
         21   -1    0    0  502  504 -0.00000000000E+00 -0.00000000000E+00 -0.15926024049E+03  0.15926024049E+03  0.00000000000E+00 0.  1.
          6    2    1    2  502    0  0.23410704546E+03  0.22544734572E+03  0.20148270558E+03  0.41950971167E+03  0.17251232742E+03 0.  0.
         24    2    3    3    0    0  0.60669771980E+02  0.35276890635E+02  0.85546128857E+02  0.13718247310E+03  0.81090138225E+02 0.  0.
         -6    2    1    2    0  503 -0.23410704546E+03 -0.22544734572E+03  0.61841222184E+03  0.71890569673E+03  0.16958511212E+03 0.  0.
        -24    2    5    5    0    0 -0.33720227308E+02 -0.57950032991E+02  0.18958341977E+03  0.21678374129E+03  0.80981833651E+02 0.  0.
          2    1    4    4  501    0 -0.28149152944E+01 -0.19934741458E+02  0.30828034157E+02  0.36819632740E+02  0.00000000000E+00 0. -1.
         -1    1    4    4    0  501  0.63484687275E+02  0.55211632094E+02  0.54718094701E+02  0.10036284036E+03  0.00000000000E+00 0.  1.
          5    1    3    3  502    0  0.17343727348E+03  0.19017045508E+03  0.11593657672E+03  0.28232723857E+03  0.47000000000E+01 0. -1.
         11    1    6    6    0    0 -0.50255986286E+02 -0.68913588763E+02  0.15438801945E+03  0.17638142596E+03  0.00000000000E+00 0. -1.
        -12    1    6    6    0    0  0.16535758978E+02  0.10963555772E+02  0.35195400315E+02  0.40402315324E+02  0.00000000000E+00 0.  1.
         -5    1    5    5    0  503 -0.20038681815E+03 -0.16749731273E+03  0.42882880207E+03  0.50212195545E+03  0.47000000000E+01 0.  1.
<mgrwt>
<rscale>  2 0.36761675E+03</rscale>
<asrwt>0</asrwt>
<pdfrwt beam="1">  1       21 0.15063925E+00 0.36795804E+03</pdfrwt>
<pdfrwt beam="2">  1       21 0.24501576E-01 0.36795804E+03</pdfrwt>
<totfact> 0.41722862E+03</totfact>
</mgrwt>
</event>
<event>
12    1  0.1441827E-001  0.2652237E+03  0.7546771E-02  0.1104496E+00
         21   -1    0    0  504  503  0.00000000000E+00  0.00000000000E+00  0.86193680508E+03  0.86193680508E+03  0.00000000000E+00 0. -1.
         21   -1    0    0  502  504 -0.00000000000E+00 -0.00000000000E+00 -0.81780880228E+02  0.81780880228E+02  0.00000000000E+00 0. -1.
          6    2    1    2  502    0 -0.31673411829E+01 -0.20027528294E+03  0.33735324793E+03  0.42912798447E+03  0.17384876231E+03 0.  0.
         24    2    3    3    0    0  0.58441076417E+02 -0.71666914412E+02  0.14964238104E+03  0.19334594715E+03  0.80239061811E+02 0.  0.
         -6    2    1    2    0  503  0.31673411829E+01  0.20027528294E+03  0.44280267692E+03  0.51458970084E+03  0.16913937600E+03 0.  0.
        -24    2    5    5    0    0 -0.44381036623E+01  0.18064923921E+03  0.45034592317E+03  0.49174205439E+03  0.79655214208E+02 0.  0.
          4    1    4    4  501    0  0.49246005815E+02 -0.58678475945E+02  0.47859322943E+02  0.90326338465E+02  0.00000000000E+00 0. -1.
         -3    1    4    4    0  501  0.91950706025E+01 -0.12988438467E+02  0.10178305810E+03  0.10301960868E+03  0.00000000000E+00 0.  1.
          5    1    3    3  502    0 -0.61608417600E+02 -0.12860836853E+03  0.18771086689E+03  0.23578203732E+03  0.47000000000E+01 0. -1.
         13    1    6    6    0    0 -0.96578785038E+01  0.18721529821E+03  0.41439105136E+03  0.45482170787E+03  0.00000000000E+00 0. -1.
        -14    1    6    6    0    0  0.52197748416E+01 -0.65660590084E+01  0.35954871813E+02  0.36920346523E+02  0.00000000000E+00 0.  1.
         -5    1    5    5    0  503  0.76054448452E+01  0.19626043734E+02 -0.75432462551E+01  0.22847646444E+02  0.47000000000E+01 0.  1.
<mgrwt>
<rscale>  2 0.26445467E+03</rscale>
<asrwt>0</asrwt>
<pdfrwt beam="1">  1       21 0.13260566E+00 0.26522370E+03</pdfrwt>
<pdfrwt beam="2">  1       21 0.12581674E-01 0.26522370E+03</pdfrwt>
<totfact> 0.21269265E+04</totfact>
</mgrwt>
</event>
<event>
12    1  0.1441827E-001  0.1797648E+03  0.7546771E-02  0.1168699E+00
         21   -1    0    0  504  503  0.00000000000E+00  0.00000000000E+00  0.50768119666E+02  0.50768119666E+02  0.00000000000E+00 0.  1.
         21   -1    0    0  502  504 -0.00000000000E+00 -0.00000000000E+00 -0.66120118535E+03  0.66120118535E+03  0.00000000000E+00 0.  1.
          6    2    1    2  502    0 -0.31821315621E+01 -0.49361744447E+02 -0.38410194204E+03  0.42293441060E+03  0.16997795744E+03 0.  0.
         24    2    3    3    0    0  0.16799857704E+02 -0.87948542955E+02 -0.22793208645E+03  0.26076371439E+03  0.89596301728E+02 0.  0.
         -6    2    1    2    0  503  0.31821315621E+01  0.49361744447E+02 -0.22633112364E+03  0.28903489441E+03  0.17282559094E+03 0.  0.
        -24    2    5    5    0    0  0.29134132432E+02 -0.11779355435E+02 -0.19916045994E+03  0.21711775174E+03  0.80546126108E+02 0.  0.
          4    1    4    4  501    0 -0.29599306399E+02 -0.18942635941E+02 -0.30488948415E+02  0.46524384694E+02  0.00000000000E+00 0. -1.
         -3    1    4    4    0  501  0.46399164103E+02 -0.69005907015E+02 -0.19744313804E+03  0.21423932970E+03  0.00000000000E+00 0.  1.
          5    1    3    3  502    0 -0.19981989266E+02  0.38586798509E+02 -0.15616985559E+03  0.16217069621E+03  0.47000000000E+01 0. -1.
         13    1    6    6    0    0 -0.18282141952E+02 -0.28056960035E+02 -0.53963642284E+02  0.63509876471E+02  0.00000000000E+00 0. -1.
        -14    1    6    6    0    0  0.47416274384E+02  0.16277604600E+02 -0.14519681766E+03  0.15360787527E+03  0.00000000000E+00 0.  1.
         -5    1    5    5    0  503 -0.25952000870E+02  0.61141099881E+02 -0.27170663703E+02  0.71917142671E+02  0.47000000000E+01 0.  1.
<mgrwt>
<rscale>  2 0.17907689E+03</rscale>
<asrwt>0</asrwt>
<pdfrwt beam="1">  1       21 0.78104798E-02 0.17976483E+03</pdfrwt>
<pdfrwt beam="2">  1       21 0.10172326E+00 0.17976483E+03</pdfrwt>
<totfact> 0.99144746E+04</totfact>
</mgrwt>
</event>
<event>
12    1  0.1441827E-001  0.1806958E+03  0.7546771E-02  0.1167520E+00
         21   -1    0    0  504  503  0.00000000000E+00  0.00000000000E+00  0.66076803911E+03  0.66076803911E+03  0.00000000000E+00 0. -1.
         21   -1    0    0  502  504 -0.00000000000E+00 -0.00000000000E+00 -0.87694398349E+02  0.87694398349E+02  0.00000000000E+00 0. -1.
          6    2    1    2  502    0  0.48263035305E+02  0.71491965800E+01  0.37158867647E+02  0.18290464944E+03  0.17231627246E+03 0.  0.
         24    2    3    3    0    0  0.47386249688E+02 -0.60762958317E+02  0.24887649359E+02  0.11372732415E+03  0.79855590949E+02 0.  0.
         -6    2    1    2    0  503 -0.48263035305E+02 -0.71491965800E+01  0.53591477311E+03  0.56555778802E+03  0.17398429801E+03 0.  0.
        -24    2    5    5    0    0 -0.83842625338E+02  0.49495230668E+02  0.33563615926E+03  0.35435146346E+03  0.58600039004E+02 0.  0.
          4    1    4    4  501    0  0.44744384156E+02 -0.36867332944E+02  0.51725013058E+02  0.77696442182E+02  0.00000000000E+00 0. -1.
         -3    1    4    4    0  501  0.26418655322E+01 -0.23895625373E+02 -0.26837363698E+02  0.36030881973E+02  0.00000000000E+00 0.  1.
          5    1    3    3  502    0  0.87678561663E+00  0.67912154897E+02  0.12271218288E+02  0.69177325288E+02  0.47000000000E+01 0. -1.
         11    1    6    6    0    0 -0.85735198165E+02  0.53453770759E+02  0.33501699067E+03  0.34992029642E+03  0.00000000000E+00 0. -1.
        -12    1    6    6    0    0  0.18925728269E+01 -0.39585400905E+01  0.61916859027E+00  0.44311670355E+01  0.00000000000E+00 0.  1.
         -5    1    5    5    0  503  0.35579590033E+02 -0.56644427248E+02  0.20027861386E+03  0.21120632456E+03  0.47000000000E+01 0.  1.
<mgrwt>
<rscale>  2 0.18029307E+03</rscale>
<asrwt>0</asrwt>
<pdfrwt beam="1">  1       21 0.10165662E+00 0.18069579E+03</pdfrwt>
<pdfrwt beam="2">  1       21 0.13491446E-01 0.18069579E+03</pdfrwt>
<totfact> 0.37773295E+04</totfact>
</mgrwt>
</event>
<event>
12    1  0.1441827E-001  0.1790697E+03  0.7546771E-02  0.1169172E+00
         21   -1    0    0  504  503  0.00000000000E+00  0.00000000000E+00  0.25506990289E+03  0.25506990289E+03  0.00000000000E+00 0. -1.
         21   -1    0    0  502  504 -0.00000000000E+00 -0.00000000000E+00 -0.12917201178E+03  0.12917201178E+03  0.00000000000E+00 0. -1.
          6    2    1    2  502    0  0.77625308862E+01 -0.39622549271E+02  0.25640051354E+02  0.17901620368E+03  0.17250850892E+03 0.  0.
         24    2    3    3    0    0  0.12056694637E+01 -0.18619614946E+02  0.81828185626E+02  0.11849090223E+03  0.83642681984E+02 0.  0.
         -6    2    1    2    0  503 -0.77625308862E+01  0.39622549271E+02  0.10025783976E+03  0.20522571100E+03  0.17445846132E+03 0.  0.
        -24    2    5    5    0    0 -0.38927432335E+02 -0.13603187119E+02  0.11558772862E+01  0.88403114465E+02  0.78188125101E+02 0.  0.
          4    1    4    4  501    0 -0.14186322082E+02 -0.30493959850E+02 -0.76472744204E+00  0.33641018558E+02  0.00000000000E+00 0. -1.
         -3    1    4    4    0  501  0.15391991545E+02  0.11874344904E+02  0.82592913068E+02  0.84849883675E+02  0.00000000000E+00 0.  1.
          5    1    3    3  502    0  0.65568614225E+01 -0.21002934325E+02 -0.56188134272E+02  0.60525301444E+02  0.47000000000E+01 0. -1.
         11    1    6    6    0    0 -0.23924228672E+01  0.16336217817E+02  0.29146003512E+02  0.33497540514E+02  0.00000000000E+00 0. -1.
        -12    1    6    6    0    0 -0.36535009468E+02 -0.29939404936E+02 -0.27990126226E+02  0.54905573951E+02  0.00000000000E+00 0.  1.
         -5    1    5    5    0  503  0.31164901449E+02  0.53225736390E+02  0.99101962469E+02  0.11682259654E+03  0.47000000000E+01 0.  1.
<mgrwt>
<rscale>  2 0.17859300E+03</rscale>
<asrwt>0</asrwt>
<pdfrwt beam="1">  1       21 0.39241523E-01 0.17906970E+03</pdfrwt>
<pdfrwt beam="2">  1       21 0.19872617E-01 0.17906970E+03</pdfrwt>
<totfact> 0.14689919E+05</totfact>
</mgrwt>
</event>
<event>
12    1  0.1441827E-001  0.2265997E+03  0.7546771E-02  0.1129400E+00
         21   -1    0    0  504  503  0.00000000000E+00  0.00000000000E+00  0.11916002075E+03  0.11916002075E+03  0.00000000000E+00 0.  1.
         21   -1    0    0  502  504 -0.00000000000E+00 -0.00000000000E+00 -0.44333902576E+03  0.44333902576E+03  0.00000000000E+00 0.  1.
          6    2    1    2  502    0  0.89492690895E+02  0.11514735036E+03 -0.21493276904E+03  0.31093956997E+03  0.17093702626E+03 0.  0.
         24    2    3    3    0    0  0.95594683087E+02  0.73966748183E+02 -0.22372191721E+03  0.26813284818E+03  0.85054716279E+02 0.  0.
         -6    2    1    2    0  503 -0.89492690895E+02 -0.11514735036E+03 -0.10924623597E+03  0.25155947655E+03  0.17343464518E+03 0.  0.
        -24    2    5    5    0    0  0.19568402467E+02 -0.39764710907E+02 -0.63688068976E+02  0.11129365392E+03  0.79786920388E+02 0.  0.
          2    1    4    4  501    0  0.61287978436E+02  0.83115021652E+02 -0.11902558944E+03  0.15757986567E+03  0.00000000000E+00 0. -1.
         -1    1    4    4    0  501  0.34306704651E+02 -0.91482734696E+01 -0.10469632778E+03  0.11055298251E+03  0.00000000000E+00 0.  1.
          5    1    3    3  502    0 -0.61019921918E+01  0.41180602179E+02  0.87891481727E+01  0.42806721787E+02  0.47000000000E+01 0. -1.
         13    1    6    6    0    0  0.18867296574E+02  0.63390099194E+01 -0.62040629335E+02  0.65155181030E+02  0.00000000000E+00 0. -1.
        -14    1    6    6    0    0  0.70110589307E+00 -0.46103720827E+02 -0.16474396407E+01  0.46138472893E+02  0.00000000000E+00 0.  1.
         -5    1    5    5    0  503 -0.10906109336E+03 -0.75382639454E+02 -0.45558166993E+02  0.14026582262E+03  0.47000000000E+01 0.  1.
<mgrwt>
<rscale>  2 0.22612173E+03</rscale>
<asrwt>0</asrwt>
<pdfrwt beam="1">  1       21 0.18332311E-01 0.22659971E+03</pdfrwt>
<pdfrwt beam="2">  1       21 0.68206003E-01 0.22659971E+03</pdfrwt>
<totfact> 0.52406667E+04</totfact>
</mgrwt>
</event>
<event>
12    1  0.1441827E-001  0.3103110E+03  0.7546771E-02  0.1080661E+00
         21   -1    0    0  504  503  0.00000000000E+00  0.00000000000E+00  0.21037469734E+03  0.21037469734E+03  0.00000000000E+00 0. -1.
         21   -1    0    0  502  504 -0.00000000000E+00 -0.00000000000E+00 -0.51031288185E+03  0.51031288185E+03  0.00000000000E+00 0.  1.
          6    2    1    2  502    0  0.14417589383E+03  0.21000539806E+03 -0.29051999188E+02  0.31166794359E+03  0.17721154824E+03 0.  0.
         24    2    3    3    0    0  0.15203940963E+03  0.20906946072E+03 -0.61928508103E+02  0.27752609686E+03  0.79746929963E+02 0.  0.
         -6    2    1    2    0  503 -0.14417589383E+03 -0.21000539806E+03 -0.27088618532E+03  0.40901963560E+03  0.17037834761E+03 0.  0.
        -24    2    5    5    0    0 -0.16380376896E+03 -0.21772045546E+03 -0.24313100844E+03  0.37384556225E+03  0.80087113162E+02 0.  0.
          4    1    4    4  501    0  0.95108250463E+02  0.82427676322E+02 -0.90949381535E+00  0.12585995514E+03  0.00000000000E+00 0. -1.
         -3    1    4    4    0  501  0.56931159166E+02  0.12664178439E+03 -0.61019014288E+02  0.15166614172E+03  0.00000000000E+00 0.  1.
          5    1    3    3  502    0 -0.78635157988E+01  0.93593734035E+00  0.32876508915E+02  0.34141846726E+02  0.47000000000E+01 0. -1.
         11    1    6    6    0    0 -0.37594692773E+02 -0.10846015216E+03 -0.76278358103E+02  0.13782363167E+03  0.00000000000E+00 0. -1.
        -12    1    6    6    0    0 -0.12620907619E+03 -0.10926030330E+03 -0.16685265034E+03  0.23602193058E+03  0.00000000000E+00 0.  1.
         -5    1    5    5    0  503  0.19627875133E+02  0.77150573997E+01 -0.27755176876E+02  0.35174073355E+02  0.47000000000E+01 0.  1.
<mgrwt>
<rscale>  2 0.30934370E+03</rscale>
<asrwt>0</asrwt>
<pdfrwt beam="1">  1       21 0.32365338E-01 0.31031095E+03</pdfrwt>
<pdfrwt beam="2">  1       21 0.78509674E-01 0.31031095E+03</pdfrwt>
<totfact> 0.12376240E+04</totfact>
</mgrwt>
</event>
<event>
12    1  0.1441827E-001  0.2044097E+03  0.7546771E-02  0.1146313E+00
         21   -1    0    0  504  503  0.00000000000E+00  0.00000000000E+00  0.16099687370E+03  0.16099687370E+03  0.00000000000E+00 0.  1.
         21   -1    0    0  502  504 -0.00000000000E+00 -0.00000000000E+00 -0.35320369024E+03  0.35320369024E+03  0.00000000000E+00 0.  1.
          6    2    1    2  502    0 -0.10292882613E+03 -0.35737719251E+02 -0.22935411084E+03  0.30644288441E+03  0.17155875209E+03 0.  0.
         24    2    3    3    0    0 -0.18831533565E+02  0.61034293481E+01 -0.32468571009E+02  0.88247920839E+02  0.79634219547E+02 0.  0.
         -6    2    1    2    0  503  0.10292882613E+03  0.35737719251E+02  0.37147294301E+02  0.20775767953E+03  0.17295029374E+03 0.  0.
        -24    2    5    5    0    0  0.10226081914E+03 -0.27347732987E+02 -0.33518208177E+01  0.13264117773E+03  0.79857834273E+02 0.  0.
          2    1    4    4  501    0  0.12444989987E+02  0.35497596272E+02 -0.67667328735E+01  0.38219704219E+02  0.00000000000E+00 0. -1.
         -1    1    4    4    0  501 -0.31276523552E+02 -0.29394166923E+02 -0.25701838136E+02  0.50028216620E+02  0.00000000000E+00 0.  1.
          5    1    3    3  502    0 -0.84097292565E+02 -0.41841148599E+02 -0.19688553983E+03  0.21819496357E+03  0.47000000000E+01 0. -1.
         13    1    6    6    0    0  0.78097352962E+02 -0.19079412527E+02  0.34086255433E+02  0.87321780396E+02  0.00000000000E+00 0. -1.
        -14    1    6    6    0    0  0.24163466182E+02 -0.82683204598E+01 -0.37438076251E+02  0.45319397332E+02  0.00000000000E+00 0.  1.
         -5    1    5    5    0  503  0.66800698695E+00  0.63085452238E+02  0.40499115119E+02  0.75116501801E+02  0.47000000000E+01 0.  1.
<mgrwt>
<rscale>  2 0.20411507E+03</rscale>
<asrwt>0</asrwt>
<pdfrwt beam="1">  1       21 0.24768750E-01 0.20440972E+03</pdfrwt>
<pdfrwt beam="2">  1       21 0.54339028E-01 0.20440972E+03</pdfrwt>
<totfact> 0.49051288E+04</totfact>
</mgrwt>
</event>
<event>
12    1  0.1441827E-001  0.3095950E+03  0.7546771E-02  0.1080697E+00
         21   -1    0    0  504  503  0.00000000000E+00  0.00000000000E+00  0.96102690563E+03  0.96102690563E+03  0.00000000000E+00 0. -1.
         21   -1    0    0  502  504 -0.00000000000E+00 -0.00000000000E+00 -0.11471360052E+03  0.11471360052E+03  0.00000000000E+00 0.  1.
          6    2    1    2  502    0 -0.23917806295E+03 -0.90578832212E+02  0.22532575163E+03  0.38185679153E+03  0.17214018776E+03 0.  0.
         24    2    3    3    0    0 -0.83543250063E+02 -0.98482047431E+02  0.11075009893E+03  0.18837726809E+03  0.80884005988E+02 0.  0.
         -6    2    1    2    0  503  0.23917806295E+03  0.90578832212E+02  0.62098755348E+03  0.69388371462E+03  0.17446603451E+03 0.  0.
        -24    2    5    5    0    0  0.81754656136E+02 -0.19417308163E+02  0.26930273722E+03  0.29315240826E+03  0.79708936375E+02 0.  0.
          4    1    4    4  501    0 -0.68839081692E+02 -0.10411396708E+03  0.11733792424E+03  0.17130886076E+03  0.00000000000E+00 0. -1.
         -3    1    4    4    0  501 -0.14704168372E+02  0.56319196522E+01 -0.65878253152E+01  0.17068407332E+02  0.00000000000E+00 0.  1.
          5    1    3    3  502    0 -0.15563481289E+03  0.79032152187E+01  0.11457565271E+03  0.19347952343E+03  0.47000000000E+01 0. -1.
         13    1    6    6    0    0  0.93069170396E+02 -0.20625243909E+02  0.18530222922E+03  0.20838470990E+03  0.00000000000E+00 0. -1.
        -14    1    6    6    0    0 -0.11314514260E+02  0.12079357467E+01  0.84000507994E+02  0.84767698358E+02  0.00000000000E+00 0.  1.
         -5    1    5    5    0  503  0.15742340682E+03  0.10999614038E+03  0.35168481626E+03  0.40073130636E+03  0.47000000000E+01 0.  1.
<mgrwt>
<rscale>  2 0.30926832E+03</rscale>
<asrwt>0</asrwt>
<pdfrwt beam="1">  1       21 0.14785029E+00 0.30959501E+03</pdfrwt>
<pdfrwt beam="2">  1       21 0.17648247E-01 0.30959501E+03</pdfrwt>
<totfact> 0.84078418E+03</totfact>
</mgrwt>
</event>
<event>
12    1  0.1441827E-001  0.1842486E+03  0.7546771E-02  0.1164066E+00
         21   -1    0    0  504  503  0.00000000000E+00  0.00000000000E+00  0.19643927953E+03  0.19643927953E+03  0.00000000000E+00 0.  1.
         21   -1    0    0  502  504 -0.00000000000E+00 -0.00000000000E+00 -0.19781273547E+03  0.19781273547E+03  0.00000000000E+00 0.  1.
          6    2    1    2  502    0 -0.29306300609E+02  0.47973802227E+02  0.71110688435E+02  0.19625832033E+03  0.17406967953E+03 0.  0.
         24    2    3    3    0    0 -0.47229076414E+02 -0.42216529830E+02  0.37341621802E+02  0.98187112776E+02  0.65065285265E+02 0.  0.
         -6    2    1    2    0  503  0.29306300609E+02 -0.47973802227E+02 -0.72484144378E+02  0.19799369467E+03  0.17546283649E+03 0.  0.
        -24    2    5    5    0    0  0.36569375882E+02 -0.96598752604E+02 -0.30457509105E+02  0.13314412926E+03  0.78301092197E+02 0.  0.
          4    1    4    4  501    0 -0.61041882869E+02 -0.30283978348E+02  0.15794500437E+02  0.69947816641E+02  0.00000000000E+00 0. -1.
         -3    1    4    4    0  501  0.13812806455E+02 -0.11932551482E+02  0.21547121366E+02  0.28239296134E+02  0.00000000000E+00 0.  1.
          5    1    3    3  502    0  0.17922775806E+02  0.90190332056E+02  0.33769066633E+02  0.98071207550E+02  0.47000000000E+01 0. -1.
         11    1    6    6    0    0  0.40283281026E+02 -0.12561175628E+02 -0.24547753421E+02  0.48817190224E+02  0.00000000000E+00 0. -1.
        -12    1    6    6    0    0 -0.37139051437E+01 -0.84037576976E+02 -0.59097556839E+01  0.84326939039E+02  0.00000000000E+00 0.  1.
         -5    1    5    5    0  503 -0.72630752732E+01  0.48624950378E+02 -0.42026635273E+02  0.64849565411E+02  0.47000000000E+01 0.  1.
<mgrwt>
<rscale>  2 0.18391616E+03</rscale>
<asrwt>0</asrwt>
<pdfrwt beam="1">  1       21 0.30221428E-01 0.18424861E+03</pdfrwt>
<pdfrwt beam="2">  1       21 0.30432729E-01 0.18424861E+03</pdfrwt>
<totfact> 0.10918578E+05</totfact>
</mgrwt>
</event>
<event>
12    1  0.1441827E-001  0.2380779E+03  0.7546771E-02  0.1121102E+00
         21   -1    0    0  504  503  0.00000000000E+00  0.00000000000E+00  0.45151340568E+02  0.45151340568E+02  0.00000000000E+00 0. -1.
         21   -1    0    0  502  504 -0.00000000000E+00 -0.00000000000E+00 -0.13077261215E+04  0.13077261215E+04  0.00000000000E+00 0. -1.
          6    2    1    2  502    0 -0.15742711190E+03 -0.42950529710E+02 -0.76736064075E+03  0.80340668371E+03  0.17318170483E+03 0.  0.
         24    2    3    3    0    0 -0.94992012912E+02 -0.13374674766E+01 -0.23902719668E+03  0.26975126431E+03  0.81280209798E+02 0.  0.
         -6    2    1    2    0  503  0.15742711190E+03  0.42950529710E+02 -0.49521414014E+03  0.54947077832E+03  0.17335814971E+03 0.  0.
        -24    2    5    5    0    0  0.11122722214E+02 -0.70993692972E+01 -0.21235109648E+03  0.22706798940E+03  0.79326966686E+02 0.  0.
          4    1    4    4  501    0 -0.58503109009E+02  0.35209796513E+02 -0.17256257748E+03  0.18558067432E+03  0.00000000000E+00 0. -1.
         -3    1    4    4    0  501 -0.36488903904E+02 -0.36547263989E+02 -0.66464619205E+02  0.84170589990E+02  0.00000000000E+00 0.  1.
          5    1    3    3  502    0 -0.62435098983E+02 -0.41613062233E+02 -0.52833344407E+03  0.53365541940E+03  0.47000000000E+01 0. -1.
         13    1    6    6    0    0  0.33367894105E+02 -0.14020170774E+02 -0.43369436105E+02  0.56487959191E+02  0.00000000000E+00 0. -1.
        -14    1    6    6    0    0 -0.22245171892E+02  0.69208014770E+01 -0.16898166037E+03  0.17058003021E+03  0.00000000000E+00 0.  1.
         -5    1    5    5    0  503  0.14630438968E+03  0.50049899007E+02 -0.28286304367E+03  0.32240278892E+03  0.47000000000E+01 0.  1.
<mgrwt>
<rscale>  2 0.23804579E+03</rscale>
<asrwt>0</asrwt>
<pdfrwt beam="1">  1       21 0.69463609E-02 0.23807791E+03</pdfrwt>
<pdfrwt beam="2">  1       21 0.20118861E+00 0.23807791E+03</pdfrwt>
<totfact> 0.19581935E+04</totfact>
</mgrwt>
</event>
<event>
12    1  0.1441827E-001  0.1882303E+03  0.7546771E-02  0.1160235E+00
         21   -1    0    0  504  503  0.00000000000E+00  0.00000000000E+00  0.13445773562E+02  0.13445773562E+02  0.00000000000E+00 0.  1.
         21   -1    0    0  502  504 -0.00000000000E+00 -0.00000000000E+00 -0.29225159209E+04  0.29225159209E+04  0.00000000000E+00 0.  1.
          6    2    1    2  502    0  0.25256444774E+02 -0.65641049578E+02 -0.98343604466E+03  0.10011497316E+04  0.17380361262E+03 0.  0.
         24    2    3    3    0    0  0.32307027504E+02 -0.62341833828E+02 -0.98595346071E+03  0.99171453553E+03  0.80394309684E+02 0.  0.
         -6    2    1    2    0  503 -0.25256444774E+02  0.65641049578E+02 -0.19256341027E+04  0.19348119629E+04  0.17459667476E+03 0.  0.
        -24    2    5    5    0    0  0.30628283833E+02  0.81654883145E+02 -0.15741212753E+04  0.15784934206E+04  0.78600749170E+02 0.  0.
          2    1    4    4  501    0  0.19627170852E+01 -0.46251958223E+02 -0.85749514688E+03  0.85874386334E+03  0.00000000000E+00 0. -1.
         -1    1    4    4    0  501  0.30344310419E+02 -0.16089875605E+02 -0.12845831382E+03  0.13297067219E+03  0.00000000000E+00 0.  1.
          5    1    3    3  502    0 -0.70505827303E+01 -0.32992157497E+01  0.25174160464E+01  0.94351960738E+01  0.47000000000E+01 0. -1.
         13    1    6    6    0    0  0.52276026440E+02  0.36848667235E+02 -0.68451012653E+03  0.68749161489E+03  0.00000000000E+00 0. -1.
        -14    1    6    6    0    0 -0.21647742607E+02  0.44806215910E+02 -0.88961114877E+03  0.89100180570E+03  0.00000000000E+00 0.  1.
         -5    1    5    5    0  503 -0.55884728607E+02 -0.16013833567E+02 -0.35151282743E+03  0.35631854232E+03  0.47000000000E+01 0.  1.
<mgrwt>
<rscale>  2 0.18804615E+03</rscale>
<asrwt>0</asrwt>
<pdfrwt beam="1">  1       21 0.20685810E-02 0.18823027E+03</pdfrwt>
<pdfrwt beam="2">  1       21 0.44961773E+00 0.18823027E+03</pdfrwt>
<totfact> 0.49073700E+03</totfact>
</mgrwt>
</event>
<event>
12    1  0.1441827E-001  0.2467284E+03  0.7546771E-02  0.1115459E+00
         21   -1    0    0  504  503  0.00000000000E+00  0.00000000000E+00  0.42700280904E+02  0.42700280904E+02  0.00000000000E+00 0.  1.
         21   -1    0    0  502  504 -0.00000000000E+00 -0.00000000000E+00 -0.14253411774E+04  0.14253411774E+04  0.00000000000E+00 0. -1.
          6    2    1    2  502    0  0.35388583187E+02 -0.17256318412E+03 -0.66310974825E+03  0.70752345495E+03  0.17275559830E+03 0.  0.
         24    2    3    3    0    0  0.52439405230E+02 -0.12926097713E+03 -0.29138210260E+03  0.33286448441E+03  0.80230566733E+02 0.  0.
         -6    2    1    2    0  503 -0.35388583187E+02  0.17256318412E+03 -0.71953114828E+03  0.76051800339E+03  0.17213993087E+03 0.  0.
        -24    2    5    5    0    0 -0.22431121845E+02  0.18407598690E+03 -0.47605274761E+03  0.51637816227E+03  0.75053739243E+02 0.  0.
          2    1    4    4  501    0  0.67226453075E+02 -0.12842043419E+03 -0.27438523048E+03  0.31031992946E+03  0.00000000000E+00 0. -1.
         -1    1    4    4    0  501 -0.14787047845E+02 -0.84054294024E+00 -0.16996872116E+02  0.22544554956E+02  0.00000000000E+00 0.  1.
          5    1    3    3  502    0 -0.17050822043E+02 -0.43302206989E+02 -0.37172764565E+03  0.37465897053E+03  0.47000000000E+01 0. -1.
         11    1    6    6    0    0 -0.49978617913E+02  0.11418309111E+03 -0.28356625433E+03  0.30975064348E+03  0.00000000000E+00 0. -1.
        -12    1    6    6    0    0  0.27547496068E+02  0.69892895795E+02 -0.19248649329E+03  0.20662751879E+03  0.00000000000E+00 0.  1.
         -5    1    5    5    0  503 -0.12957461342E+02 -0.11512802778E+02 -0.24347840067E+03  0.24413984112E+03  0.47000000000E+01 0.  1.
<mgrwt>
<rscale>  2 0.24662065E+03</rscale>
<asrwt>0</asrwt>
<pdfrwt beam="1">  1       21 0.65692748E-02 0.24672840E+03</pdfrwt>
<pdfrwt beam="2">  1       21 0.21928323E+00 0.24672840E+03</pdfrwt>
<totfact> 0.16472480E+04</totfact>
</mgrwt>
</event>
<event>
12    1  0.1441827E-001  0.2089428E+03  0.7546771E-02  0.1142675E+00
         21   -1    0    0  504  503  0.00000000000E+00  0.00000000000E+00  0.14615140282E+03  0.14615140282E+03  0.00000000000E+00 0.  1.
         21   -1    0    0  502  504 -0.00000000000E+00 -0.00000000000E+00 -0.45868208885E+03  0.45868208885E+03  0.00000000000E+00 0. -1.
          6    2    1    2  502    0  0.85629772860E+02 -0.77427132811E+02 -0.33625528097E+03  0.39588473693E+03  0.17415421920E+03 0.  0.
         24    2    3    3    0    0  0.36045099620E+02  0.14937994303E+02 -0.80672285367E+02  0.11959736088E+03  0.79203019025E+02 0.  0.
         -6    2    1    2    0  503 -0.85629772860E+02  0.77427132811E+02  0.23724594930E+02  0.20894875474E+03  0.17253784166E+03 0.  0.
        -24    2    5    5    0    0 -0.12688178295E+03  0.65629318175E+02  0.16111171811E+02  0.16511987181E+03  0.81233047215E+02 0.  0.
          4    1    4    4  501    0  0.56928618529E+02  0.21278264354E+02 -0.75940443832E+02  0.97265529099E+02  0.00000000000E+00 0. -1.
         -3    1    4    4    0  501 -0.20883518909E+02 -0.63402700510E+01 -0.47318415345E+01  0.22331831780E+02  0.00000000000E+00 0.  1.
          5    1    3    3  502    0  0.49584673240E+02 -0.92365127114E+02 -0.25558299560E+03  0.27628737605E+03  0.47000000000E+01 0. -1.
         13    1    6    6    0    0 -0.16016344925E+01 -0.16606315943E+01 -0.18595565792E+02  0.18738142850E+02  0.00000000000E+00 0. -1.
        -14    1    6    6    0    0 -0.12528014846E+03  0.67289949769E+02  0.34706737603E+02  0.14638172896E+03  0.00000000000E+00 0.  1.
         -5    1    5    5    0  503  0.41252010094E+02  0.11797814636E+02  0.76134231187E+01  0.43828882926E+02  0.47000000000E+01 0.  1.
<mgrwt>
<rscale>  2 0.20860569E+03</rscale>
<asrwt>0</asrwt>
<pdfrwt beam="1">  1       21 0.22484831E-01 0.20894284E+03</pdfrwt>
<pdfrwt beam="2">  1       21 0.70566475E-01 0.20894284E+03</pdfrwt>
<totfact> 0.33425964E+04</totfact>
</mgrwt>
</event>
<event>
12    1  0.1441827E-001  0.1819133E+03  0.7546771E-02  0.1166056E+00
         21   -1    0    0  504  503  0.00000000000E+00  0.00000000000E+00  0.65790324401E+02  0.65790324401E+02  0.00000000000E+00 0. -1.
         21   -1    0    0  502  504 -0.00000000000E+00 -0.00000000000E+00 -0.57150207230E+03  0.57150207230E+03  0.00000000000E+00 0. -1.
          6    2    1    2  502    0  0.81783134315E+01  0.54245609401E+02 -0.36426387963E+03  0.40716167946E+03  0.17344448180E+03 0.  0.
         24    2    3    3    0    0  0.57075071448E+02  0.68258216998E+02 -0.31484486591E+03  0.33608724641E+03  0.76880424300E+02 0.  0.
         -6    2    1    2    0  503 -0.81783134315E+01 -0.54245609401E+02 -0.14144786827E+03  0.23013071724E+03  0.17304096807E+03 0.  0.
        -24    2    5    5    0    0  0.31329705185E+02 -0.87971315268E+02 -0.68745436737E+02  0.14065423809E+03  0.79606387200E+02 0.  0.
          2    1    4    4  501    0  0.45021208495E+02  0.33088179339E+02 -0.27866262464E+03  0.28420871767E+03  0.00000000000E+00 0. -1.
         -1    1    4    4    0  501  0.12053862953E+02  0.35170037659E+02 -0.36182241263E+02  0.51878528737E+02  0.00000000000E+00 0.  1.
          5    1    3    3  502    0 -0.48896758016E+02 -0.14012607597E+02 -0.49419013724E+02  0.71074433052E+02  0.47000000000E+01 0. -1.
         13    1    6    6    0    0 -0.14559765636E+02 -0.64122232336E+02 -0.58332648448E+02  0.87899632139E+02  0.00000000000E+00 0. -1.
        -14    1    6    6    0    0  0.45889470821E+02 -0.23849082932E+02 -0.10412788289E+02  0.52754605950E+02  0.00000000000E+00 0.  1.
         -5    1    5    5    0  503 -0.39508018616E+02  0.33725705868E+02 -0.72702431533E+02  0.89476479156E+02  0.47000000000E+01 0.  1.
<mgrwt>
<rscale>  2 0.18181708E+03</rscale>
<asrwt>0</asrwt>
<pdfrwt beam="1">  1       21 0.10121588E-01 0.18191333E+03</pdfrwt>
<pdfrwt beam="2">  1       21 0.87923400E-01 0.18191333E+03</pdfrwt>
<totfact> 0.88462436E+04</totfact>
</mgrwt>
</event>
<event>
12    1  0.1441827E-001  0.1796696E+03  0.7546771E-02  0.1168652E+00
         21   -1    0    0  504  503  0.00000000000E+00  0.00000000000E+00  0.58936266391E+03  0.58936266391E+03  0.00000000000E+00 0.  1.
         21   -1    0    0  502  504 -0.00000000000E+00 -0.00000000000E+00 -0.55928705832E+02  0.55928705832E+02  0.00000000000E+00 0.  1.
          6    2    1    2  502    0  0.52360048518E+01  0.44134348388E+02  0.21016778634E+03  0.27649896686E+03  0.17408596671E+03 0.  0.
         24    2    3    3    0    0  0.30939914838E+02 -0.13277893820E+01  0.20804256305E+03  0.22401941339E+03  0.77097004988E+02 0.  0.
         -6    2    1    2    0  503 -0.52360048518E+01 -0.44134348388E+02  0.32326617173E+03  0.36879240288E+03  0.17184749686E+03 0.  0.
        -24    2    5    5    0    0 -0.23210073996E+02 -0.86503046439E+02  0.28495555196E+03  0.30872604521E+03  0.78042423200E+02 0.  0.
          4    1    4    4  501    0  0.42747884764E+01 -0.34379564500E+02  0.13644785869E+03  0.14077729367E+03  0.00000000000E+00 0. -1.
         -3    1    4    4    0  501  0.26665126362E+02  0.33051775118E+02  0.71594704358E+02  0.83242119714E+02  0.00000000000E+00 0.  1.
          5    1    3    3  502    0 -0.25703909986E+02  0.45462137770E+02  0.21252232921E+01  0.52479553478E+02  0.47000000000E+01 0. -1.
         13    1    6    6    0    0  0.64698016075E+01  0.13010437190E+02  0.44273597508E+02  0.46597008971E+02  0.00000000000E+00 0. -1.
        -14    1    6    6    0    0 -0.29679875603E+02 -0.99513483629E+02  0.24068195445E+03  0.26212903624E+03  0.00000000000E+00 0.  1.
         -5    1    5    5    0  503  0.17974069144E+02  0.42368698052E+02  0.38310619771E+02  0.60066357668E+02  0.47000000000E+01 0.  1.
<mgrwt>
<rscale>  2 0.17912516E+03</rscale>
<asrwt>0</asrwt>
<pdfrwt beam="1">  1       21 0.90671175E-01 0.17966964E+03</pdfrwt>
<pdfrwt beam="2">  1       21 0.86044167E-02 0.17966964E+03</pdfrwt>
<totfact> 0.10968965E+05</totfact>
</mgrwt>
</event>
<event>
12    1  0.1441827E-001  0.2510408E+03  0.7546771E-02  0.1112881E+00
         21   -1    0    0  504  503  0.00000000000E+00  0.00000000000E+00  0.48677421906E+03  0.48677421906E+03  0.00000000000E+00 0. -1.
         21   -1    0    0  502  504 -0.00000000000E+00 -0.00000000000E+00 -0.23056755760E+03  0.23056755760E+03  0.00000000000E+00 0.  1.
          6    2    1    2  502    0  0.67907257596E+02  0.16505869664E+03 -0.11050224340E+03  0.27293555618E+03  0.17443423706E+03 0.  0.
         24    2    3    3    0    0  0.91502914533E+02  0.69419859647E+02 -0.26665668196E+02  0.14349752656E+03  0.81783751371E+02 0.  0.
         -6    2    1    2    0  503 -0.67907257596E+02 -0.16505869664E+03  0.36670890486E+03  0.44440622049E+03  0.17653809484E+03 0.  0.
        -24    2    5    5    0    0 -0.26715667518E+02 -0.12692007558E+03  0.12772994691E+03  0.19887753814E+03  0.80093091862E+02 0.  0.
          2    1    4    4  501    0  0.58584348504E+02  0.41017147099E+02  0.25193617053E+02  0.75823812789E+02  0.00000000000E+00 0. -1.
         -1    1    4    4    0  501  0.32918566030E+02  0.28402712548E+02 -0.51859285249E+02  0.67673713775E+02  0.00000000000E+00 0.  1.
          5    1    3    3  502    0 -0.23595656937E+02  0.95638836995E+02 -0.83836575201E+02  0.12943802961E+03  0.47000000000E+01 0. -1.
         13    1    6    6    0    0 -0.49868033722E+02 -0.78500907782E+02  0.10589513082E+03  0.14093612752E+03  0.00000000000E+00 0. -1.
        -14    1    6    6    0    0  0.23152366204E+02 -0.48419167800E+02  0.21834816096E+02  0.57941410625E+02  0.00000000000E+00 0.  1.
         -5    1    5    5    0  503 -0.41191590078E+02 -0.38138621061E+02  0.23897895795E+03  0.24552868234E+03  0.47000000000E+01 0.  1.
<mgrwt>
<rscale>  2 0.25067120E+03</rscale>
<asrwt>0</asrwt>
<pdfrwt beam="1">  1       21 0.74888341E-01 0.25104077E+03</pdfrwt>
<pdfrwt beam="2">  1       21 0.35471932E-01 0.25104077E+03</pdfrwt>
<totfact> 0.11798561E+04</totfact>
</mgrwt>
</event>
<event>
12    1  0.1441827E-001  0.1912693E+03  0.7546771E-02  0.1158010E+00
         21   -1    0    0  504  503  0.00000000000E+00  0.00000000000E+00  0.97601021313E+02  0.97601021313E+02  0.00000000000E+00 0. -1.
         21   -1    0    0  502  504 -0.00000000000E+00 -0.00000000000E+00 -0.38544617065E+03  0.38544617065E+03  0.00000000000E+00 0. -1.
          6    2    1    2  502    0  0.30284772696E+02  0.69069749520E+02 -0.19512085379E+03  0.27323270538E+03  0.17577305240E+03 0.  0.
         24    2    3    3    0    0  0.64936412501E+02 -0.59809859679E+01 -0.63718794724E+02  0.11792030998E+03  0.74783720439E+02 0.  0.
         -6    2    1    2    0  503 -0.30284772696E+02 -0.69069749520E+02 -0.92724295544E+02  0.20981448658E+03  0.17244281962E+03 0.  0.
        -24    2    5    5    0    0 -0.43978325224E+02 -0.29947190784E+02 -0.12658505085E+03  0.15608620043E+03  0.74217245567E+02 0.  0.
          2    1    4    4  501    0  0.76537062590E+02  0.68840507494E+01 -0.35135499990E+02  0.84497428743E+02  0.00000000000E+00 0. -1.
         -1    1    4    4    0  501 -0.11600650089E+02 -0.12865036717E+02 -0.28583294734E+02  0.33422881235E+02  0.00000000000E+00 0.  1.
          5    1    3    3  502    0 -0.34651639805E+02  0.75050735488E+02 -0.13140205907E+03  0.15531239540E+03  0.47000000000E+01 0. -1.
         11    1    6    6    0    0 -0.98256536056E+01 -0.16550766185E+02 -0.11644431344E+03  0.11802435962E+03  0.00000000000E+00 0. -1.
        -12    1    6    6    0    0 -0.34152671618E+02 -0.13396424599E+02 -0.10140737410E+02  0.38061840811E+02  0.00000000000E+00 0.  1.
         -5    1    5    5    0  503  0.13693552527E+02 -0.39122558736E+02  0.33860755308E+02  0.53728286152E+02  0.47000000000E+01 0.  1.
<mgrwt>
<rscale>  2 0.19050077E+03</rscale>
<asrwt>0</asrwt>
<pdfrwt beam="1">  1       21 0.15015541E-01 0.19126935E+03</pdfrwt>
<pdfrwt beam="2">  1       21 0.59299412E-01 0.19126935E+03</pdfrwt>
<totfact> 0.10410411E+05</totfact>
</mgrwt>
</event>
<event>
12    1  0.1441827E-001  0.2852864E+03  0.7546771E-02  0.1092885E+00
         21   -1    0    0  504  503  0.00000000000E+00  0.00000000000E+00  0.26575118644E+03  0.26575118644E+03  0.00000000000E+00 0. -1.
         21   -1    0    0  502  504 -0.00000000000E+00 -0.00000000000E+00 -0.40553040890E+03  0.40553040890E+03  0.00000000000E+00 0. -1.
          6    2    1    2  502    0 -0.12924526238E+03  0.18549554031E+03 -0.23624845820E+03  0.37012609156E+03  0.17339854765E+03 0.  0.
         24    2    3    3    0    0 -0.34119337164E+02  0.17424684042E+02 -0.47832429826E+02  0.10027531034E+03  0.79369060336E+02 0.  0.
         -6    2    1    2    0  503  0.12924526238E+03 -0.18549554031E+03  0.96469235730E+02  0.30115550379E+03  0.17399824912E+03 0.  0.
        -24    2    5    5    0    0  0.71130013383E+02 -0.14978552951E+03  0.13110016713E+03  0.22451361937E+03  0.75656644158E+02 0.  0.
          2    1    4    4  501    0 -0.36773176244E+02 -0.10972136490E+01  0.11113048244E+02  0.38431370131E+02  0.00000000000E+00 0. -1.
         -1    1    4    4    0  501  0.26538390803E+01  0.18521897691E+02 -0.58945478070E+02  0.61843940211E+02  0.00000000000E+00 0.  1.
          5    1    3    3  502    0 -0.95125925214E+02  0.16807085627E+03 -0.18841602837E+03  0.26985078121E+03  0.47000000000E+01 0. -1.
         13    1    6    6    0    0  0.36687407831E+01 -0.87911184165E+02  0.83658990964E+02  0.12141113099E+03  0.00000000000E+00 0. -1.
        -14    1    6    6    0    0  0.67461272599E+02 -0.61874345344E+02  0.47441176170E+02  0.10310248837E+03  0.00000000000E+00 0.  1.
         -5    1    5    5    0  503  0.58115248995E+02 -0.35710010802E+02 -0.34630931403E+02  0.76641884418E+02  0.47000000000E+01 0.  1.
<mgrwt>
<rscale>  2 0.28519500E+03</rscale>
<asrwt>0</asrwt>
<pdfrwt beam="1">  1       21 0.40884798E-01 0.28528639E+03</pdfrwt>
<pdfrwt beam="2">  1       21 0.62389294E-01 0.28528639E+03</pdfrwt>
<totfact> 0.13043171E+04</totfact>
</mgrwt>
</event>
<event>
12    1  0.1441827E-001  0.1999001E+03  0.7546771E-02  0.1150576E+00
         21   -1    0    0  504  503  0.00000000000E+00  0.00000000000E+00  0.27984422208E+03  0.27984422208E+03  0.00000000000E+00 0.  1.
         21   -1    0    0  502  504 -0.00000000000E+00 -0.00000000000E+00 -0.14696492903E+03  0.14696492903E+03  0.00000000000E+00 0. -1.
          6    2    1    2  502    0 -0.54189366303E+02 -0.79312163647E+02  0.11251427302E+03  0.22938942722E+03  0.17530870190E+03 0.  0.
         24    2    3    3    0    0 -0.26984145471E+02 -0.26559006501E+02 -0.14340969232E+02  0.89256054615E+02  0.79545301268E+02 0.  0.
         -6    2    1    2    0  503  0.54189366303E+02  0.79312163647E+02  0.20365020029E+02  0.19741972390E+03  0.17126852198E+03 0.  0.
        -24    2    5    5    0    0 -0.25073444542E+01  0.28893424462E+02 -0.47625923066E+02  0.95432349115E+02  0.77446678150E+02 0.  0.
          2    1    4    4  501    0 -0.11637216126E+02 -0.11189736892E+02 -0.47190383142E+02  0.49875517762E+02  0.00000000000E+00 0. -1.
         -1    1    4    4    0  501 -0.15346929345E+02 -0.15369269610E+02  0.32849413910E+02  0.39380536854E+02  0.00000000000E+00 0.  1.
          5    1    3    3  502    0 -0.27205220832E+02 -0.52753157146E+02  0.12685524225E+03  0.14013337260E+03  0.47000000000E+01 0. -1.
         11    1    6    6    0    0  0.20045275487E+02  0.45377341451E+02 -0.13658361142E+02  0.51453542304E+02  0.00000000000E+00 0. -1.
        -12    1    6    6    0    0 -0.22552619941E+02 -0.16483916990E+02 -0.33967561924E+02  0.43978806812E+02  0.00000000000E+00 0.  1.
         -5    1    5    5    0  503  0.56696710758E+02  0.50418739185E+02  0.67990943095E+02  0.10198737478E+03  0.47000000000E+01 0.  1.
<mgrwt>
<rscale>  2 0.19901079E+03</rscale>
<asrwt>0</asrwt>
<pdfrwt beam="1">  1       21 0.43052957E-01 0.19990009E+03</pdfrwt>
<pdfrwt beam="2">  1       21 0.22609989E-01 0.19990009E+03</pdfrwt>
<totfact> 0.94820486E+04</totfact>
</mgrwt>
</event>
<event>
12    1  0.1441827E-001  0.1846440E+03  0.7546771E-02  0.1164089E+00
         21   -1    0    0  504  503  0.00000000000E+00  0.00000000000E+00  0.13554929043E+03  0.13554929043E+03  0.00000000000E+00 0. -1.
         21   -1    0    0  502  504 -0.00000000000E+00 -0.00000000000E+00 -0.27372331111E+03  0.27372331111E+03  0.00000000000E+00 0. -1.
          6    2    1    2  502    0  0.26574882717E+02 -0.47190239142E+02 -0.13196219160E+03  0.22452410632E+03  0.17338947848E+03 0.  0.
         24    2    3    3    0    0 -0.35996284728E+02  0.19248006743E+02 -0.75139301966E+02  0.11691312966E+03  0.79727955637E+02 0.  0.
         -6    2    1    2    0  503 -0.26574882717E+02  0.47190239142E+02 -0.62118290774E+01  0.18474849522E+03  0.17652273679E+03 0.  0.
        -24    2    5    5    0    0 -0.60846471308E+02  0.85591499516E+02 -0.73157522181E+01  0.13305219719E+03  0.81370566469E+02 0.  0.
          4    1    4    4  501    0 -0.17401086346E+02  0.24620463669E+02 -0.88433578649E+02  0.93431594603E+02  0.00000000000E+00 0. -1.
         -3    1    4    4    0  501 -0.18595198381E+02 -0.53724569259E+01  0.13294276684E+02  0.23481535061E+02  0.00000000000E+00 0.  1.
          5    1    3    3  502    0  0.62571167444E+02 -0.66438245885E+02 -0.56822889631E+02  0.10761097666E+03  0.47000000000E+01 0. -1.
         13    1    6    6    0    0 -0.59102403176E+02  0.29566522371E+02  0.22186338633E+02  0.69710163737E+02  0.00000000000E+00 0. -1.
        -14    1    6    6    0    0 -0.17440681315E+01  0.56024977145E+02 -0.29502090851E+02  0.63342033456E+02  0.00000000000E+00 0.  1.
         -5    1    5    5    0  503  0.34271588591E+02 -0.38401260374E+02  0.11039231407E+01  0.51696298022E+02  0.47000000000E+01 0.  1.
<mgrwt>
<rscale>  2 0.18389116E+03</rscale>
<asrwt>0</asrwt>
<pdfrwt beam="1">  1       21 0.20853737E-01 0.18464404E+03</pdfrwt>
<pdfrwt beam="2">  1       21 0.42111278E-01 0.18464404E+03</pdfrwt>
<totfact> 0.11617371E+05</totfact>
</mgrwt>
</event>
<event>
12    1  0.1441827E-001  0.1796856E+03  0.7546771E-02  0.1168118E+00
         21   -1    0    0  504  503  0.00000000000E+00  0.00000000000E+00  0.23879727763E+03  0.23879727763E+03  0.00000000000E+00 0.  1.
         21   -1    0    0  502  504 -0.00000000000E+00 -0.00000000000E+00 -0.13749707359E+03  0.13749707359E+03  0.00000000000E+00 0.  1.
          6    2    1    2  502    0 -0.16616448827E+02 -0.48014400758E+02  0.26188065116E+02  0.18154127068E+03  0.17230765843E+03 0.  0.
         24    2    3    3    0    0  0.43530625414E+02 -0.46580981286E+02 -0.22494867311E+02  0.10400519430E+03  0.79033905504E+02 0.  0.
         -6    2    1    2    0  503  0.16616448827E+02  0.48014400758E+02  0.75112138924E+02  0.19475308054E+03  0.17235266146E+03 0.  0.
        -24    2    5    5    0    0  0.55971007706E+01  0.33745105308E+02 -0.27930223329E+02  0.90039866268E+02  0.78466683841E+02 0.  0.
          4    1    4    4  501    0 -0.13227951519E+02 -0.13639065636E+02 -0.32475317992E+02  0.37625112511E+02  0.00000000000E+00 0. -1.
         -3    1    4    4    0  501  0.56758576934E+02 -0.32941915650E+02  0.99804506810E+01  0.66380081787E+02  0.00000000000E+00 0.  1.
          5    1    3    3  502    0 -0.60147074242E+02 -0.14334194720E+01  0.48682932427E+02  0.77536076383E+02  0.47000000000E+01 0. -1.
         13    1    6    6    0    0 -0.59476106170E+01 -0.16183411028E+02  0.15257019103E+02  0.23022890706E+02  0.00000000000E+00 0. -1.
        -14    1    6    6    0    0  0.11544711388E+02  0.49928516336E+02 -0.43187242432E+02  0.67016975562E+02  0.00000000000E+00 0.  1.
         -5    1    5    5    0  503  0.11019348057E+02  0.14269295450E+02  0.10304236225E+03  0.10471321427E+03  0.47000000000E+01 0.  1.
<mgrwt>
<rscale>  2 0.17967485E+03</rscale>
<asrwt>0</asrwt>
<pdfrwt beam="1">  1       21 0.36738043E-01 0.17968564E+03</pdfrwt>
<pdfrwt beam="2">  1       21 0.21153396E-01 0.17968564E+03</pdfrwt>
<totfact> 0.14912266E+05</totfact>
</mgrwt>
</event>
<event>
12    1  0.1441827E-001  0.2222885E+03  0.7546771E-02  0.1132278E+00
         21   -1    0    0  504  503  0.00000000000E+00  0.00000000000E+00  0.40331855668E+03  0.40331855668E+03  0.00000000000E+00 0.  1.
         21   -1    0    0  502  504 -0.00000000000E+00 -0.00000000000E+00 -0.46505366739E+03  0.46505366739E+03  0.00000000000E+00 0.  1.
          6    2    1    2  502    0  0.13876599027E+03  0.53594196947E+01 -0.40363663989E+03  0.46056243612E+03  0.17294651507E+03 0.  0.
         24    2    3    3    0    0  0.87230113181E+02  0.10517880041E+02 -0.38839061045E+03  0.40636753088E+03  0.81040640565E+02 0.  0.
         -6    2    1    2    0  503 -0.13876599027E+03 -0.53594196947E+01  0.34190152918E+03  0.40780978795E+03  0.17357259016E+03 0.  0.
        -24    2    5    5    0    0 -0.71669330413E+02  0.20867647034E+02  0.81271098928E+02  0.13736546472E+03  0.81806648638E+02 0.  0.
          2    1    4    4  501    0 -0.14403599580E+02  0.96495172450E+01 -0.71735692374E+02  0.73800992028E+02  0.00000000000E+00 0. -1.
         -1    1    4    4    0  501  0.10163371276E+03  0.86836279603E+00 -0.31665491807E+03  0.33256653885E+03  0.00000000000E+00 0.  1.
          5    1    3    3  502    0  0.51535877090E+02 -0.51584603464E+01 -0.15246029437E+02  0.54194905242E+02  0.47000000000E+01 0. -1.
         13    1    6    6    0    0  0.96035143257E+01  0.27102520701E+02  0.26970496385E+02  0.39423112396E+02  0.00000000000E+00 0. -1.
        -14    1    6    6    0    0 -0.81272844739E+02 -0.62348736674E+01  0.54300602543E+02  0.97942352321E+02  0.00000000000E+00 0.  1.
         -5    1    5    5    0  503 -0.67096659858E+02 -0.26227066728E+02  0.26063043025E+03  0.27044432323E+03  0.47000000000E+01 0.  1.
<mgrwt>
<rscale>  2 0.22216625E+03</rscale>
<asrwt>0</asrwt>
<pdfrwt beam="1">  1       21 0.62049009E-01 0.22228848E+03</pdfrwt>
<pdfrwt beam="2">  1       21 0.71546718E-01 0.22228848E+03</pdfrwt>
<totfact> 0.41596357E+03</totfact>
</mgrwt>
</event>
<event>
12    1  0.1441827E-001  0.2433806E+03  0.7546771E-02  0.1117790E+00
         21   -1    0    0  504  503  0.00000000000E+00  0.00000000000E+00  0.22035372473E+04  0.22035372473E+04  0.00000000000E+00 0. -1.
         21   -1    0    0  502  504 -0.00000000000E+00 -0.00000000000E+00 -0.29350509582E+02  0.29350509582E+02  0.00000000000E+00 0. -1.
          6    2    1    2  502    0  0.15076387211E+03 -0.82499937073E+02  0.75617217306E+03  0.79437424996E+03  0.17233139280E+03 0.  0.
         24    2    3    3    0    0  0.96366246824E+02 -0.11116486817E+02  0.60891325662E+03  0.62185765053E+03  0.80756136832E+02 0.  0.
         -6    2    1    2    0  503 -0.15076387211E+03  0.82499937073E+02  0.14180145647E+04  0.14385135069E+04  0.17035204505E+03 0.  0.
        -24    2    5    5    0    0 -0.14319840343E+03  0.10567721480E+03  0.13672389177E+04  0.13819920168E+04  0.94266749255E+02 0.  0.
          4    1    4    4  501    0  0.25394799549E+01 -0.42542069389E+01  0.27230024332E+03  0.27234531343E+03  0.00000000000E+00 0. -1.
         -3    1    4    4    0  501  0.93826766869E+02 -0.68622798783E+01  0.33661301330E+03  0.34951233711E+03  0.00000000000E+00 0.  1.
          5    1    3    3  502    0  0.54397625286E+02 -0.71383450255E+02  0.14725891644E+03  0.17251659943E+03  0.47000000000E+01 0. -1.
         11    1    6    6    0    0 -0.12697072488E+03  0.75216487665E+02  0.78633005749E+03  0.80005877553E+03  0.00000000000E+00 0. -1.
        -12    1    6    6    0    0 -0.16227678547E+02  0.30460727138E+02  0.58090886017E+03  0.58193324125E+03  0.00000000000E+00 0.  1.
         -5    1    5    5    0  503 -0.75654686803E+01 -0.23177277730E+02  0.50775647033E+02  0.56521490169E+02  0.47000000000E+01 0.  1.
<mgrwt>
<rscale>  2 0.24303043E+03</rscale>
<asrwt>0</asrwt>
<pdfrwt beam="1">  1       21 0.33900560E+00 0.24338055E+03</pdfrwt>
<pdfrwt beam="2">  1       21 0.45154648E-02 0.24338055E+03</pdfrwt>
<totfact> 0.61345653E+03</totfact>
</mgrwt>
</event>
<event>
12    1  0.1441827E-001  0.2293158E+03  0.7546771E-02  0.1127983E+00
         21   -1    0    0  504  503  0.00000000000E+00  0.00000000000E+00  0.26951667764E+03  0.26951667764E+03  0.00000000000E+00 0.  1.
         21   -1    0    0  502  504 -0.00000000000E+00 -0.00000000000E+00 -0.19921519960E+03  0.19921519960E+03  0.00000000000E+00 0.  1.
          6    2    1    2  502    0  0.14191403878E+03 -0.49919587532E+02 -0.12695178568E+02  0.22485862154E+03  0.16663934860E+03 0.  0.
         24    2    3    3    0    0  0.49163956232E+02  0.22688164429E+02  0.26899202471E+02  0.10050320965E+03  0.80283750901E+02 0.  0.
         -6    2    1    2    0  503 -0.14191403878E+03  0.49919587532E+02  0.82996656607E+02  0.24387325570E+03  0.17307270211E+03 0.  0.
        -24    2    5    5    0    0 -0.62334376231E+02  0.55322571549E+02  0.10956793091E+03  0.15966970740E+03  0.80889570366E+02 0.  0.
          2    1    4    4  501    0 -0.17417706804E+02  0.18261268101E+02  0.22197310768E+02  0.33609091453E+02  0.00000000000E+00 0. -1.
         -1    1    4    4    0  501  0.66581663036E+02  0.44268963279E+01  0.47018917030E+01  0.66894118197E+02  0.00000000000E+00 0.  1.
          5    1    3    3  502    0  0.92750082543E+02 -0.72607751961E+02 -0.39594381039E+02  0.12435541189E+03  0.47000000000E+01 0. -1.
         11    1    6    6    0    0  0.16501777955E+02  0.12090595018E+02  0.37265377306E+01  0.20793706910E+02  0.00000000000E+00 0. -1.
        -12    1    6    6    0    0 -0.78836154186E+02  0.43231976531E+02  0.10584139318E+03  0.13887600049E+03  0.00000000000E+00 0.  1.
         -5    1    5    5    0  503 -0.79579662544E+02 -0.54029840173E+01 -0.26571274307E+02  0.84203548294E+02  0.47000000000E+01 0.  1.
<mgrwt>
<rscale>  2 0.22810221E+03</rscale>
<asrwt>0</asrwt>
<pdfrwt beam="1">  1       21 0.41464105E-01 0.22931576E+03</pdfrwt>
<pdfrwt beam="2">  1       21 0.30648492E-01 0.22931576E+03</pdfrwt>
<totfact> 0.56303353E+04</totfact>
</mgrwt>
</event>
<event>
12    1  0.1441827E-001  0.3112743E+03  0.7546771E-02  0.1079771E+00
         21   -1    0    0  504  503  0.00000000000E+00  0.00000000000E+00  0.30136940247E+03  0.30136940247E+03  0.00000000000E+00 0.  1.
         21   -1    0    0  502  504 -0.00000000000E+00 -0.00000000000E+00 -0.34024465635E+03  0.34024465635E+03  0.00000000000E+00 0. -1.
          6    2    1    2  502    0  0.12747430383E+03 -0.22497095382E+03 -0.95319068945E+02  0.32526364514E+03  0.17276887955E+03 0.  0.
         24    2    3    3    0    0  0.82490374050E+02 -0.22769156451E+03 -0.46862921177E+02  0.25892328097E+03  0.78721164171E+02 0.  0.
         -6    2    1    2    0  503 -0.12747430383E+03  0.22497095382E+03  0.56443815070E+02  0.31635041368E+03  0.17329181105E+03 0.  0.
        -24    2    5    5    0    0 -0.40365013682E+01  0.83568535150E+02  0.53631207124E+02  0.12856986132E+03  0.81571499009E+02 0.  0.
          4    1    4    4  501    0 -0.14957794918E+02 -0.20000123111E+02 -0.11793121040E+01  0.25002626468E+02  0.00000000000E+00 0. -1.
         -3    1    4    4    0  501  0.97448168968E+02 -0.20769144140E+03 -0.45683609073E+02  0.23392065450E+03  0.00000000000E+00 0.  1.
          5    1    3    3  502    0  0.44983929783E+02  0.27206106842E+01 -0.48456147768E+02  0.66340364167E+02  0.47000000000E+01 0. -1.
         13    1    6    6    0    0 -0.17862379536E+01  0.68474247445E+02 -0.43289728325E+01  0.68634198581E+02  0.00000000000E+00 0. -1.
        -14    1    6    6    0    0 -0.22502634146E+01  0.15094287706E+02  0.57960179956E+02  0.59935662734E+02  0.00000000000E+00 0.  1.
         -5    1    5    5    0  503 -0.12343780246E+03  0.14140241867E+03  0.28126079461E+01  0.18778055237E+03  0.47000000000E+01 0.  1.
<mgrwt>
<rscale>  2 0.31120155E+03</rscale>
<asrwt>0</asrwt>
<pdfrwt beam="1">  1       21 0.46364523E-01 0.31127428E+03</pdfrwt>
<pdfrwt beam="2">  1       21 0.52345332E-01 0.31127428E+03</pdfrwt>
<totfact> 0.14515126E+04</totfact>
</mgrwt>
</event>
<event>
12    1  0.1441827E-001  0.2147484E+03  0.7546771E-02  0.1138094E+00
         21   -1    0    0  504  503  0.00000000000E+00  0.00000000000E+00  0.30312178073E+03  0.30312178073E+03  0.00000000000E+00 0.  1.
         21   -1    0    0  502  504 -0.00000000000E+00 -0.00000000000E+00 -0.16629715314E+03  0.16629715314E+03  0.00000000000E+00 0.  1.
          6    2    1    2  502    0 -0.12265124224E+03  0.24407272800E+02 -0.22886006006E+01  0.21354910268E+03  0.17308650835E+03 0.  0.
         24    2    3    3    0    0 -0.14193553851E+03 -0.20677909091E+02  0.27064724801E+01  0.16403548370E+03  0.79542704903E+02 0.  0.
         -6    2    1    2    0  503  0.12265124224E+03 -0.24407272800E+02  0.13911322818E+03  0.25586983119E+03  0.17457903102E+03 0.  0.
        -24    2    5    5    0    0  0.21634628770E+02 -0.57510920159E+02  0.99504222495E+02  0.14233053845E+03  0.81125389253E+02 0.  0.
          4    1    4    4  501    0 -0.12362288119E+03  0.12413689677E+02 -0.86533873820E+01  0.12454556419E+03  0.00000000000E+00 0. -1.
         -3    1    4    4    0  501 -0.18312657318E+02 -0.33091598768E+02  0.11359859862E+02  0.39489919513E+02  0.00000000000E+00 0.  1.
          5    1    3    3  502    0  0.19284296272E+02  0.45085181891E+02 -0.49950730807E+01  0.49513618974E+02  0.47000000000E+01 0. -1.
         11    1    6    6    0    0 -0.25397829722E+02 -0.41383081977E+02  0.30718755636E+02  0.57456515526E+02  0.00000000000E+00 0. -1.
        -12    1    6    6    0    0  0.47032458493E+02 -0.16127838182E+02  0.68785466858E+02  0.84874022923E+02  0.00000000000E+00 0.  1.
         -5    1    5    5    0  503  0.10101661347E+03  0.33103647359E+02  0.39609005690E+02  0.11353929275E+03  0.47000000000E+01 0.  1.
<mgrwt>
<rscale>  2 0.21444488E+03</rscale>
<asrwt>0</asrwt>
<pdfrwt beam="1">  1       21 0.46634120E-01 0.21474841E+03</pdfrwt>
<pdfrwt beam="2">  1       21 0.25584177E-01 0.21474841E+03</pdfrwt>
<totfact> 0.63179276E+04</totfact>
</mgrwt>
</event>
<event>
12    1  0.1441827E-001  0.1809109E+03  0.7546771E-02  0.1167777E+00
         21   -1    0    0  504  503  0.00000000000E+00  0.00000000000E+00  0.13206299626E+03  0.13206299626E+03  0.00000000000E+00 0.  1.
         21   -1    0    0  502  504 -0.00000000000E+00 -0.00000000000E+00 -0.53441104968E+03  0.53441104968E+03  0.00000000000E+00 0.  1.
          6    2    1    2  502    0  0.34919542264E+02  0.67061131629E+01 -0.44633070704E+03  0.48029336740E+03  0.17379951764E+03 0.  0.
         24    2    3    3    0    0  0.49871592712E+02  0.15906714319E+01 -0.45294756937E+03  0.46252810850E+03  0.79253041319E+02 0.  0.
         -6    2    1    2    0  503 -0.34919542264E+02 -0.67061131629E+01  0.43982653620E+02  0.18618067853E+03  0.17738214356E+03 0.  0.
        -24    2    5    5    0    0 -0.42381326825E+02  0.38444011388E+02  0.81132759457E+02  0.12705004062E+03  0.79278428909E+02 0.  0.
          2    1    4    4  501    0  0.15145277374E+02 -0.14953364769E+02 -0.37502508784E+03  0.37562853866E+03  0.00000000000E+00 0. -1.
         -1    1    4    4    0  501  0.34726315339E+02  0.16544036201E+02 -0.77922481528E+02  0.86899569840E+02  0.00000000000E+00 0.  1.
          5    1    3    3  502    0 -0.14952050448E+02  0.51154417310E+01  0.66168623279E+01  0.17765258900E+02  0.47000000000E+01 0. -1.
         11    1    6    6    0    0  0.21075582382E+02 -0.20866105346E+01  0.98233390926E+01  0.23345922710E+02  0.00000000000E+00 0. -1.
        -12    1    6    6    0    0 -0.63456909207E+02  0.40530621923E+02  0.71309420365E+02  0.10370411791E+03  0.00000000000E+00 0.  1.
         -5    1    5    5    0  503  0.74617845615E+01 -0.45150124551E+02 -0.37150105837E+02  0.59130637909E+02  0.47000000000E+01 0.  1.
<mgrwt>
<rscale>  2 0.18002665E+03</rscale>
<asrwt>0</asrwt>
<pdfrwt beam="1">  1       21 0.20317384E-01 0.18091095E+03</pdfrwt>
<pdfrwt beam="2">  1       21 0.82217084E-01 0.18091095E+03</pdfrwt>
<totfact> 0.29164539E+04</totfact>
</mgrwt>
</event>
<event>
12    1  0.1441827E-001  0.2429155E+03  0.7546771E-02  0.1117906E+00
         21   -1    0    0  504  503  0.00000000000E+00  0.00000000000E+00  0.78037244174E+03  0.78037244174E+03  0.00000000000E+00 0. -1.
         21   -1    0    0  502  504 -0.00000000000E+00 -0.00000000000E+00 -0.79839395306E+02  0.79839395306E+02  0.00000000000E+00 0. -1.
          6    2    1    2  502    0  0.11544484060E+03  0.12356074557E+03  0.25061371224E+03  0.34902033542E+03  0.17439378632E+03 0.  0.
         24    2    3    3    0    0  0.14078980585E+03  0.82826922987E+02  0.14556668984E+03  0.23344101858E+03  0.81381689348E+02 0.  0.
         -6    2    1    2    0  503 -0.11544484060E+03 -0.12356074557E+03  0.44991933419E+03  0.51119150162E+03  0.17405336821E+03 0.  0.
        -24    2    5    5    0    0 -0.11076955846E+03 -0.10515237334E+03  0.21692482717E+03  0.27737692395E+03  0.80960858410E+02 0.  0.
          2    1    4    4  501    0  0.90690341137E+02  0.26110827604E+02  0.37586955942E+02  0.10158391876E+03  0.00000000000E+00 0. -1.
         -1    1    4    4    0  501  0.50099464715E+02  0.56716095384E+02  0.10797973389E+03  0.13185709982E+03  0.00000000000E+00 0.  1.
          5    1    3    3  502    0 -0.25344965252E+02  0.40733822581E+02  0.10504702241E+03  0.11557931685E+03  0.47000000000E+01 0. -1.
         13    1    6    6    0    0 -0.39277637488E+02 -0.54312786740E+02  0.15819076651E+03  0.17180491908E+03  0.00000000000E+00 0. -1.
        -14    1    6    6    0    0 -0.71491920976E+02 -0.50839586604E+02  0.58734060659E+02  0.10557200487E+03  0.00000000000E+00 0.  1.
         -5    1    5    5    0  503 -0.46752821359E+01 -0.18408372224E+02  0.23299450702E+03  0.23381457767E+03  0.47000000000E+01 0.  1.
<mgrwt>
<rscale>  2 0.24285445E+03</rscale>
<asrwt>0</asrwt>
<pdfrwt beam="1">  1       21 0.12005729E+00 0.24291554E+03</pdfrwt>
<pdfrwt beam="2">  1       21 0.12282984E-01 0.24291554E+03</pdfrwt>
<totfact> 0.28879484E+04</totfact>
</mgrwt>
</event>
<event>
12    1  0.1441827E-001  0.1945786E+03  0.7546771E-02  0.1156609E+00
         21   -1    0    0  504  503  0.00000000000E+00  0.00000000000E+00  0.12781290938E+04  0.12781290938E+04  0.00000000000E+00 0.  1.
         21   -1    0    0  502  504 -0.00000000000E+00 -0.00000000000E+00 -0.51343041163E+02  0.51343041163E+02  0.00000000000E+00 0.  1.
          6    2    1    2  502    0 -0.63950513418E+00 -0.88852792636E+02  0.17535314476E+03  0.26193428045E+03  0.17310578896E+03 0.  0.
         24    2    3    3    0    0  0.88324818446E+01 -0.12449635932E+03  0.11118450921E+03  0.18777306301E+03  0.85553327723E+02 0.  0.
         -6    2    1    2    0  503  0.63950513418E+00  0.88852792636E+02  0.10514329079E+04  0.10675378545E+04  0.16195889393E+03 0.  0.
        -24    2    5    5    0    0  0.35782748209E+02  0.54205527355E+01  0.61476475160E+03  0.62155898181E+03  0.84202616350E+02 0.  0.
          4    1    4    4  501    0  0.57212475557E+01 -0.64820860982E+02  0.11023530159E+03  0.12800897784E+03  0.00000000000E+00 0. -1.
         -3    1    4    4    0  501  0.31112342889E+01 -0.59675498341E+02  0.94920762144E+00  0.59764085170E+02  0.00000000000E+00 0.  1.
          5    1    3    3  502    0 -0.94719869788E+01  0.35643566688E+02  0.64168635555E+02  0.74161217442E+02  0.47000000000E+01 0. -1.
         11    1    6    6    0    0  0.12293741923E+02 -0.37039684607E+02  0.36837143670E+03  0.37043297600E+03  0.00000000000E+00 0. -1.
        -12    1    6    6    0    0  0.23489006286E+02  0.42460237342E+02  0.24639331490E+03  0.25112600582E+03  0.00000000000E+00 0.  1.
         -5    1    5    5    0  503 -0.35143243075E+02  0.83432239900E+02  0.43666815628E+03  0.44597887270E+03  0.47000000000E+01 0.  1.
<mgrwt>
<rscale>  2 0.19206883E+03</rscale>
<asrwt>0</asrwt>
<pdfrwt beam="1">  1       21 0.19663522E+00 0.19457863E+03</pdfrwt>
<pdfrwt beam="2">  1       21 0.78989303E-02 0.19457863E+03</pdfrwt>
<totfact> 0.17291528E+04</totfact>
</mgrwt>
</event>
<event>
12    1  0.1441827E-001  0.2178161E+03  0.7546771E-02  0.1136998E+00
         21   -1    0    0  504  503  0.00000000000E+00  0.00000000000E+00  0.17555269818E+04  0.17555269818E+04  0.00000000000E+00 0.  1.
         21   -1    0    0  502  504 -0.00000000000E+00 -0.00000000000E+00 -0.37506957452E+02  0.37506957452E+02  0.00000000000E+00 0.  1.
          6    2    1    2  502    0  0.77671603617E+02 -0.89484328551E+02  0.35357278370E+03  0.41131033991E+03  0.17355736596E+03 0.  0.
         24    2    3    3    0    0  0.11833368104E+03 -0.93293376035E+02  0.24984638491E+03  0.29973449490E+03  0.68636996609E+02 0.  0.
         -6    2    1    2    0  503 -0.77671603617E+02  0.89484328551E+02  0.13644472406E+04  0.13817235993E+04  0.18276626985E+03 0.  0.
        -24    2    5    5    0    0 -0.94468163133E+02  0.64162002477E+02  0.57631235007E+03  0.59298914443E+03  0.80369174226E+02 0.  0.
          2    1    4    4  501    0  0.10285250888E+03 -0.78587109912E+02  0.24608765008E+03  0.27805341924E+03  0.00000000000E+00 0. -1.
         -1    1    4    4    0  501  0.15481172153E+02 -0.14706266123E+02  0.37587348288E+01  0.21681075666E+02  0.00000000000E+00 0.  1.
          5    1    3    3  502    0 -0.40662077420E+02  0.38090474838E+01  0.10372639879E+03  0.11157584500E+03  0.47000000000E+01 0. -1.
         11    1    6    6    0    0 -0.96062899576E+02  0.46015653865E+02  0.55418382785E+03  0.56432724206E+03  0.00000000000E+00 0. -1.
        -12    1    6    6    0    0  0.15947364430E+01  0.18146348613E+02  0.22128522218E+02  0.28661902377E+02  0.00000000000E+00 0.  1.
         -5    1    5    5    0  503  0.16796559517E+02  0.25322326074E+02  0.78813489055E+03  0.78873445488E+03  0.47000000000E+01 0.  1.
<mgrwt>
<rscale>  2 0.21587338E+03</rscale>
<asrwt>0</asrwt>
<pdfrwt beam="1">  1       21 0.27008101E+00 0.21781605E+03</pdfrwt>
<pdfrwt beam="2">  1       21 0.57703025E-02 0.21781605E+03</pdfrwt>
<totfact> 0.10449696E+04</totfact>
</mgrwt>
</event>
<event>
12    1  0.1441827E-001  0.2224470E+03  0.7546771E-02  0.1132450E+00
         21   -1    0    0  504  503  0.00000000000E+00  0.00000000000E+00  0.59488040207E+03  0.59488040207E+03  0.00000000000E+00 0.  1.
         21   -1    0    0  502  504 -0.00000000000E+00 -0.00000000000E+00 -0.10460746999E+03  0.10460746999E+03  0.00000000000E+00 0. -1.
          6    2    1    2  502    0 -0.46945143172E+02  0.12885527045E+03  0.83157893112E+02  0.23556405524E+03  0.17253307435E+03 0.  0.
         24    2    3    3    0    0 -0.13544317028E+02  0.79205281687E+02  0.11991354376E+03  0.16518078716E+03  0.80302610792E+02 0.  0.
         -6    2    1    2    0  503  0.46945143172E+02 -0.12885527045E+03  0.40711503897E+03  0.46392381681E+03  0.17514315761E+03 0.  0.
        -24    2    5    5    0    0 -0.40131417693E+02 -0.47972921115E+02  0.22167476705E+03  0.24361842347E+03  0.79361842585E+02 0.  0.
          4    1    4    4  501    0  0.33888155325E+02  0.32794185058E+02  0.52937357136E+02  0.70895905563E+02  0.00000000000E+00 0. -1.
         -3    1    4    4    0  501 -0.47432472353E+02  0.46411096629E+02  0.66976186622E+02  0.94284881600E+02  0.00000000000E+00 0.  1.
          5    1    3    3  502    0 -0.33400826144E+02  0.49649988765E+02 -0.36755650646E+02  0.70383268082E+02  0.47000000000E+01 0. -1.
         13    1    6    6    0    0 -0.49451161589E+02 -0.42056804483E+02  0.87300049455E+02  0.10879104201E+03  0.00000000000E+00 0. -1.
        -14    1    6    6    0    0  0.93197438960E+01 -0.59161166314E+01  0.13437471760E+03  0.13482738146E+03  0.00000000000E+00 0.  1.
         -5    1    5    5    0  503  0.87076560865E+02 -0.80882349337E+02  0.18544027192E+03  0.22030539334E+03  0.47000000000E+01 0.  1.
<mgrwt>
<rscale>  2 0.22193289E+03</rscale>
<asrwt>0</asrwt>
<pdfrwt beam="1">  1       21 0.91520060E-01 0.22244697E+03</pdfrwt>
<pdfrwt beam="2">  1       21 0.16093457E-01 0.22244697E+03</pdfrwt>
<totfact> 0.34314401E+04</totfact>
</mgrwt>
</event>
<event>
12    1  0.1441827E-001  0.2769450E+03  0.7546771E-02  0.1097501E+00
         21   -1    0    0  504  503  0.00000000000E+00  0.00000000000E+00  0.18150322328E+03  0.18150322328E+03  0.00000000000E+00 0. -1.
         21   -1    0    0  502  504 -0.00000000000E+00 -0.00000000000E+00 -0.10929052100E+04  0.10929052100E+04  0.00000000000E+00 0.  1.
          6    2    1    2  502    0  0.94046735976E+02 -0.19353300484E+03 -0.95557816432E+03  0.99490107889E+03  0.17435227599E+03 0.  0.
         24    2    3    3    0    0  0.12242900412E+03 -0.10956057740E+03 -0.55792030308E+03  0.58745686636E+03  0.82692950615E+02 0.  0.
         -6    2    1    2    0  503 -0.94046735976E+02  0.19353300484E+03  0.44176177606E+02  0.27950735438E+03  0.17283811493E+03 0.  0.
        -24    2    5    5    0    0  0.10976765706E+02  0.10492260382E+03  0.49697436094E+02  0.14190534360E+03  0.80858204349E+02 0.  0.
          4    1    4    4  501    0  0.53220859740E+02 -0.23777060301E+02 -0.31973853105E+03  0.32500851796E+03  0.00000000000E+00 0. -1.
         -3    1    4    4    0  501  0.69208144376E+02 -0.85783517094E+02 -0.23818177203E+03  0.26244834840E+03  0.00000000000E+00 0.  1.
          5    1    3    3  502    0 -0.28382268139E+02 -0.83972427447E+02 -0.39765786124E+03  0.40744421253E+03  0.47000000000E+01 0. -1.
         13    1    6    6    0    0 -0.33493983025E+02  0.50189199555E+02  0.10576655519E+02  0.61259026215E+02  0.00000000000E+00 0. -1.
        -14    1    6    6    0    0  0.44470748732E+02  0.54733404269E+02  0.39120780575E+02  0.80646317389E+02  0.00000000000E+00 0.  1.
         -5    1    5    5    0  503 -0.10502350168E+03  0.88610401018E+02 -0.55212584882E+01  0.13760201078E+03  0.47000000000E+01 0.  1.
<mgrwt>
<rscale>  2 0.27670700E+03</rscale>
<asrwt>0</asrwt>
<pdfrwt beam="1">  1       21 0.27923573E-01 0.27694499E+03</pdfrwt>
<pdfrwt beam="2">  1       21 0.16813926E+00 0.27694499E+03</pdfrwt>
<totfact> 0.25166432E+03</totfact>
</mgrwt>
</event>
<event>
12    1  0.1441827E-001  0.3045471E+03  0.7546771E-02  0.1083147E+00
         21   -1    0    0  504  503  0.00000000000E+00  0.00000000000E+00  0.75359984185E+03  0.75359984185E+03  0.00000000000E+00 0.  1.
         21   -1    0    0  502  504 -0.00000000000E+00 -0.00000000000E+00 -0.13746178766E+03  0.13746178766E+03  0.00000000000E+00 0. -1.
          6    2    1    2  502    0 -0.23789495263E+03  0.71623591326E+02  0.45419984570E+03  0.54613711026E+03  0.17390887283E+03 0.  0.
         24    2    3    3    0    0 -0.30562407595E+02  0.36107889239E+02  0.14936734541E+03  0.17574125100E+03  0.79602405770E+02 0.  0.
         -6    2    1    2    0  503  0.23789495263E+03 -0.71623591326E+02  0.16193820849E+03  0.34492451925E+03  0.17613913050E+03 0.  0.
        -24    2    5    5    0    0  0.21033845895E+03 -0.40473989814E+02  0.18747075410E+03  0.29589739509E+03  0.80805777098E+02 0.  0.
          4    1    4    4  501    0  0.24784130087E+02  0.24566502021E+02  0.43942888920E+02  0.56113666895E+02  0.00000000000E+00 0. -1.
         -3    1    4    4    0  501 -0.55346537682E+02  0.11541387217E+02  0.10542445649E+03  0.11962758411E+03  0.00000000000E+00 0.  1.
          5    1    3    3  502    0 -0.20733254504E+03  0.35515702087E+02  0.30483250029E+03  0.37039585926E+03  0.47000000000E+01 0. -1.
         11    1    6    6    0    0  0.84369424666E+02 -0.51977965895E+02  0.57668957869E+02  0.11465433903E+03  0.00000000000E+00 0. -1.
        -12    1    6    6    0    0  0.12596903429E+03  0.11503976082E+02  0.12980179623E+03  0.18124305606E+03  0.00000000000E+00 0.  1.
         -5    1    5    5    0  503  0.27556493680E+02 -0.31149601512E+02 -0.25532545613E+02  0.49027124163E+02  0.47000000000E+01 0.  1.
<mgrwt>
<rscale>  2 0.30422549E+03</rscale>
<asrwt>0</asrwt>
<pdfrwt beam="1">  1       21 0.11593843E+00 0.30454711E+03</pdfrwt>
<pdfrwt beam="2">  1       21 0.21147968E-01 0.30454711E+03</pdfrwt>
<totfact> 0.11211411E+04</totfact>
</mgrwt>
</event>
<event>
12    1  0.1441827E-001  0.2021994E+03  0.7546771E-02  0.1150218E+00
         21   -1    0    0  504  503  0.00000000000E+00  0.00000000000E+00  0.41859854725E+02  0.41859854725E+02  0.00000000000E+00 0. -1.
         21   -1    0    0  502  504 -0.00000000000E+00 -0.00000000000E+00 -0.10126948156E+04  0.10126948156E+04  0.00000000000E+00 0. -1.
          6    2    1    2  502    0 -0.65535376020E+02 -0.50207410527E+02 -0.65269470908E+03  0.68329713996E+03  0.18457770351E+03 0.  0.
         24    2    3    3    0    0 -0.90101224172E+02  0.51964431220E+01 -0.55706644535E+03  0.56998375717E+03  0.80082615390E+02 0.  0.
         -6    2    1    2    0  503  0.65535376020E+02  0.50207410527E+02 -0.31814025184E+03  0.37125753041E+03  0.17263622002E+03 0.  0.
        -24    2    5    5    0    0 -0.21537081306E+02  0.38225984262E+02 -0.10103747190E+03  0.13699085660E+03  0.81442325116E+02 0.  0.
          2    1    4    4  501    0 -0.26262959810E+02  0.83038777069E+01 -0.39213830914E+03  0.39310450384E+03  0.00000000000E+00 0. -1.
         -1    1    4    4    0  501 -0.63838264362E+02 -0.31074345848E+01 -0.16492813621E+03  0.17687925333E+03  0.00000000000E+00 0.  1.
          5    1    3    3  502    0  0.24565848152E+02 -0.55403853649E+02 -0.95628263730E+02  0.11331338279E+03  0.47000000000E+01 0. -1.
         11    1    6    6    0    0  0.31046018645E+02  0.19645879030E+02 -0.40085992076E+02  0.54375569857E+02  0.00000000000E+00 0. -1.
        -12    1    6    6    0    0 -0.52583099952E+02  0.18580105232E+02 -0.60951479829E+02  0.82615286747E+02  0.00000000000E+00 0.  1.
         -5    1    5    5    0  503  0.87072457326E+02  0.11981426265E+02 -0.21710277993E+03  0.23426667380E+03  0.47000000000E+01 0.  1.
<mgrwt>
<rscale>  2 0.19943350E+03</rscale>
<asrwt>0</asrwt>
<pdfrwt beam="1">  1       21 0.64399783E-02 0.20219940E+03</pdfrwt>
<pdfrwt beam="2">  1       21 0.15579919E+00 0.20219940E+03</pdfrwt>
<totfact> 0.46948704E+04</totfact>
</mgrwt>
</event>
<event>
12    1  0.1441827E-001  0.1809488E+03  0.7546771E-02  0.1167293E+00
         21   -1    0    0  504  503  0.00000000000E+00  0.00000000000E+00  0.19615280997E+03  0.19615280997E+03  0.00000000000E+00 0.  1.
         21   -1    0    0  502  504 -0.00000000000E+00 -0.00000000000E+00 -0.23912134258E+03  0.23912134258E+03  0.00000000000E+00 0. -1.
          6    2    1    2  502    0  0.48136463984E+02 -0.82413858204E+01 -0.14241077506E+03  0.23026784966E+03  0.17423379159E+03 0.  0.
         24    2    3    3    0    0  0.62396043886E+02  0.96861740673E+01 -0.18047542633E+02  0.10372522206E+03  0.80287730289E+02 0.  0.
         -6    2    1    2    0  503 -0.48136463984E+02  0.82413858204E+01  0.99442242445E+02  0.20500630289E+03  0.17249285503E+03 0.  0.
        -24    2    5    5    0    0  0.26121435330E+02 -0.19320103732E+02  0.15012710731E+02  0.89142990569E+02  0.81642485828E+02 0.  0.
          4    1    4    4  501    0  0.94608096973E+01  0.29687460093E+02 -0.32805694747E+02  0.45244511432E+02  0.00000000000E+00 0. -1.
         -3    1    4    4    0  501  0.52935234189E+02 -0.20001286026E+02  0.14758152115E+02  0.58480710624E+02  0.00000000000E+00 0.  1.
          5    1    3    3  502    0 -0.14259579902E+02 -0.17927559888E+02 -0.12436323242E+03  0.12654262760E+03  0.47000000000E+01 0. -1.
         11    1    6    6    0    0  0.60526109048E+01 -0.12104245648E+02 -0.33510435648E+02  0.36139952390E+02  0.00000000000E+00 0. -1.
        -12    1    6    6    0    0  0.20068824425E+02 -0.72158580841E+01  0.48523146378E+02  0.53003038179E+02  0.00000000000E+00 0.  1.
         -5    1    5    5    0  503 -0.74257899314E+02  0.27561489552E+02  0.84429531715E+02  0.11586331232E+03  0.47000000000E+01 0.  1.
<mgrwt>
<rscale>  2 0.18052837E+03</rscale>
<asrwt>0</asrwt>
<pdfrwt beam="1">  1       21 0.30177355E-01 0.18094876E+03</pdfrwt>
<pdfrwt beam="2">  1       21 0.36787899E-01 0.18094876E+03</pdfrwt>
<totfact> 0.75434877E+04</totfact>
</mgrwt>
</event>
<event>
12    1  0.1441827E-001  0.2834786E+03  0.7546771E-02  0.1093981E+00
         21   -1    0    0  504  503  0.00000000000E+00  0.00000000000E+00  0.28714975289E+03  0.28714975289E+03  0.00000000000E+00 0.  1.
         21   -1    0    0  502  504 -0.00000000000E+00 -0.00000000000E+00 -0.45597703995E+03  0.45597703995E+03  0.00000000000E+00 0.  1.
          6    2    1    2  502    0  0.17057254918E+03  0.14384139722E+03 -0.31630213838E+03  0.42474365710E+03  0.17485648233E+03 0.  0.
         24    2    3    3    0    0  0.10395563937E+03  0.11640967641E+03 -0.30559386603E+03  0.35175688381E+03  0.77377688199E+02 0.  0.
         -6    2    1    2    0  503 -0.17057254918E+03 -0.14384139722E+03  0.14747485132E+03  0.31838313574E+03  0.17272419421E+03 0.  0.
        -24    2    5    5    0    0 -0.42184449104E+02 -0.71683993841E+02  0.12457717720E+03  0.16926375879E+03  0.78820201986E+02 0.  0.
          2    1    4    4  501    0  0.41513346731E+02  0.92140254433E+02 -0.22703574147E+03  0.24851239878E+03  0.00000000000E+00 0. -1.
         -1    1    4    4    0  501  0.62442292643E+02  0.24269421974E+02 -0.78558124562E+02  0.10324448503E+03  0.00000000000E+00 0.  1.
          5    1    3    3  502    0  0.66616909804E+02  0.27431720812E+02 -0.10708272350E+02  0.72986773290E+02  0.47000000000E+01 0. -1.
         11    1    6    6    0    0 -0.24723791611E+02 -0.81602918046E+02  0.67478056118E+02  0.10873633322E+03  0.00000000000E+00 0. -1.
        -12    1    6    6    0    0 -0.17460657493E+02  0.99189242049E+01  0.57099121080E+02  0.60527425565E+02  0.00000000000E+00 0.  1.
         -5    1    5    5    0  503 -0.12838810007E+03 -0.72157403377E+02  0.22897674121E+02  0.14911937695E+03  0.47000000000E+01 0.  1.
<mgrwt>
<rscale>  2 0.28315049E+03</rscale>
<asrwt>0</asrwt>
<pdfrwt beam="1">  1       21 0.44176885E-01 0.28347863E+03</pdfrwt>
<pdfrwt beam="2">  1       21 0.70150314E-01 0.28347863E+03</pdfrwt>
<totfact> 0.85959456E+03</totfact>
</mgrwt>
</event>
<event>
12    1  0.1441827E-001  0.1828519E+03  0.7546771E-02  0.1165277E+00
         21   -1    0    0  504  503  0.00000000000E+00  0.00000000000E+00  0.17006188535E+02  0.17006188535E+02  0.00000000000E+00 0.  1.
         21   -1    0    0  502  504 -0.00000000000E+00 -0.00000000000E+00 -0.23834545378E+04  0.23834545378E+04  0.00000000000E+00 0.  1.
          6    2    1    2  502    0  0.21496487776E+02 -0.49681616854E+02 -0.16887670891E+04  0.16985442661E+04  0.17374688627E+03 0.  0.
         24    2    3    3    0    0  0.58092003277E+02 -0.23484241161E+02 -0.15316810730E+04  0.15350705963E+04  0.80427829910E+02 0.  0.
         -6    2    1    2    0  503 -0.21496487776E+02  0.49681616854E+02 -0.67768126015E+03  0.70191646026E+03  0.17465527416E+03 0.  0.
        -24    2    5    5    0    0  0.19422505219E+02  0.81120858197E+02 -0.57940906367E+03  0.59082053556E+03  0.79976339233E+02 0.  0.
          4    1    4    4  501    0  0.11252692978E+02 -0.28664323684E+01 -0.11401470938E+04  0.11402062248E+04  0.00000000000E+00 0. -1.
         -3    1    4    4    0  501  0.46839310299E+02 -0.20617808793E+02 -0.39153397923E+03  0.39486437155E+03  0.00000000000E+00 0.  1.
          5    1    3    3  502    0 -0.36595515501E+02 -0.26197375693E+02 -0.15708601608E+03  0.16347366974E+03  0.47000000000E+01 0. -1.
         11    1    6    6    0    0  0.72793338132E+01  0.57794168384E+01 -0.35857768787E+01  0.99623368534E+01  0.00000000000E+00 0. -1.
        -12    1    6    6    0    0  0.12143171406E+02  0.75341441359E+02 -0.57582328679E+03  0.58085819871E+03  0.00000000000E+00 0.  1.
         -5    1    5    5    0  503 -0.40918992995E+02 -0.31439241343E+02 -0.98272196478E+02  0.11109592470E+03  0.47000000000E+01 0.  1.
<mgrwt>
<rscale>  2 0.18263467E+03</rscale>
<asrwt>0</asrwt>
<pdfrwt beam="1">  1       21 0.26163363E-02 0.18285193E+03</pdfrwt>
<pdfrwt beam="2">  1       21 0.36668537E+00 0.18285193E+03</pdfrwt>
<totfact> 0.11171580E+04</totfact>
</mgrwt>
</event>
<event>
12    1  0.1441827E-001  0.1885003E+03  0.7546771E-02  0.1159929E+00
         21   -1    0    0  504  503  0.00000000000E+00  0.00000000000E+00  0.64296191789E+03  0.64296191789E+03  0.00000000000E+00 0.  1.
         21   -1    0    0  502  504 -0.00000000000E+00 -0.00000000000E+00 -0.12003233756E+03  0.12003233756E+03  0.00000000000E+00 0.  1.
          6    2    1    2  502    0 -0.72168759938E+02  0.94788580301E+01 -0.18920789043E+02  0.18944746134E+03  0.17387974491E+03 0.  0.
         24    2    3    3    0    0 -0.97098337521E+02  0.18075111434E+00 -0.60760790816E+02  0.13964169481E+03  0.79873709126E+02 0.  0.
         -6    2    1    2    0  503  0.72168759938E+02 -0.94788580301E+01  0.54185036937E+03  0.57354679412E+03  0.17336644310E+03 0.  0.
        -24    2    5    5    0    0  0.22679430711E+02 -0.48265831333E+02  0.16009105892E+03  0.18661542537E+03  0.79700833043E+02 0.  0.
          2    1    4    4  501    0 -0.72587552013E+02  0.35468325282E+02 -0.27620626467E+02  0.85380640734E+02  0.00000000000E+00 0. -1.
         -1    1    4    4    0  501 -0.24510785508E+02 -0.35287574168E+02 -0.33140164348E+02  0.54261054080E+02  0.00000000000E+00 0.  1.
          5    1    3    3  502    0  0.24929577583E+02  0.92981069157E+01  0.41840001773E+02  0.49805766524E+02  0.47000000000E+01 0. -1.
         11    1    6    6    0    0  0.26752013778E+02  0.15495523216E+02  0.66004230933E+02  0.72885800963E+02  0.00000000000E+00 0. -1.
        -12    1    6    6    0    0 -0.40725830665E+01 -0.63761354550E+02  0.94086827983E+02  0.11372962440E+03  0.00000000000E+00 0.  1.
         -5    1    5    5    0  503  0.49489329227E+02  0.38786973303E+02  0.38175931045E+03  0.38693136875E+03  0.47000000000E+01 0.  1.
<mgrwt>
<rscale>  2 0.18838179E+03</rscale>
<asrwt>0</asrwt>
<pdfrwt beam="1">  1       21 0.98917216E-01 0.18850025E+03</pdfrwt>
<pdfrwt beam="2">  1       21 0.18466514E-01 0.18850025E+03</pdfrwt>
<totfact> 0.22612644E+04</totfact>
</mgrwt>
</event>
<event>
12    1  0.1441827E-001  0.1776075E+03  0.7546771E-02  0.1170182E+00
         21   -1    0    0  504  503  0.00000000000E+00  0.00000000000E+00  0.81701843749E+02  0.81701843749E+02  0.00000000000E+00 0.  1.
         21   -1    0    0  502  504 -0.00000000000E+00 -0.00000000000E+00 -0.41726555794E+03  0.41726555794E+03  0.00000000000E+00 0.  1.
          6    2    1    2  502    0 -0.41009074931E+02 -0.12634995136E+02 -0.99100278543E+02  0.20323206756E+03  0.17216567820E+03 0.  0.
         24    2    3    3    0    0 -0.62010032716E+02 -0.13902310763E+02 -0.13019021848E+03  0.16539926853E+03  0.79805429889E+02 0.  0.
         -6    2    1    2    0  503  0.41009074931E+02  0.12634995136E+02 -0.23646343565E+03  0.29573533413E+03  0.17234571107E+03 0.  0.
        -24    2    5    5    0    0 -0.33517353702E+02  0.22813584063E+02 -0.79252188607E+02  0.12139297429E+03  0.82531643577E+02 0.  0.
          2    1    4    4  501    0 -0.44606661545E+01 -0.33394426946E+02 -0.79235267378E+02  0.86100597501E+02  0.00000000000E+00 0. -1.
         -1    1    4    4    0  501 -0.57549366561E+02  0.19492116183E+02 -0.50954951106E+02  0.79298671030E+02  0.00000000000E+00 0.  1.
          5    1    3    3  502    0  0.21000957785E+02  0.12673156260E+01  0.31089939941E+02  0.37832799029E+02  0.47000000000E+01 0. -1.
         13    1    6    6    0    0 -0.30169582221E+02  0.19087056550E+02 -0.96784570788E+02  0.10315896743E+03  0.00000000000E+00 0. -1.
        -14    1    6    6    0    0 -0.33477714811E+01  0.37265275134E+01  0.17532382181E+02  0.18234006859E+02  0.00000000000E+00 0.  1.
         -5    1    5    5    0  503  0.74526428632E+02 -0.10178588927E+02 -0.15721124704E+03  0.17434235984E+03  0.47000000000E+01 0.  1.
<mgrwt>
<rscale>  2 0.17756383E+03</rscale>
<asrwt>0</asrwt>
<pdfrwt beam="1">  1       21 0.12569514E-01 0.17760752E+03</pdfrwt>
<pdfrwt beam="2">  1       21 0.64194701E-01 0.17760752E+03</pdfrwt>
<totfact> 0.12159126E+05</totfact>
</mgrwt>
</event>
<event>
12    1  0.1441827E-001  0.2839630E+03  0.7546771E-02  0.1093587E+00
         21   -1    0    0  504  503  0.00000000000E+00  0.00000000000E+00  0.62675047065E+03  0.62675047065E+03  0.00000000000E+00 0.  1.
         21   -1    0    0  502  504 -0.00000000000E+00 -0.00000000000E+00 -0.14667402520E+03  0.14667402520E+03  0.00000000000E+00 0. -1.
          6    2    1    2  502    0 -0.15588472184E+03 -0.16222014257E+03  0.37624463112E+03  0.47137562909E+03  0.17326147898E+03 0.  0.
         24    2    3    3    0    0 -0.15840014066E+03 -0.73908281171E+02  0.29090569778E+03  0.34845233700E+03  0.78992832412E+02 0.  0.
         -6    2    1    2    0  503  0.15588472184E+03  0.16222014257E+03  0.10383181432E+03  0.30204886675E+03  0.17273404726E+03 0.  0.
        -24    2    5    5    0    0  0.29192100008E+02  0.48461471732E+02 -0.58622598861E+01  0.99448433551E+02  0.81577765963E+02 0.  0.
          4    1    4    4  501    0 -0.42003604589E+02  0.15108095267E+02  0.56366720024E+02  0.71901074174E+02  0.00000000000E+00 0. -1.
         -3    1    4    4    0  501 -0.11639653607E+03 -0.89016376438E+02  0.23453897776E+03  0.27655126282E+03  0.00000000000E+00 0.  1.
          5    1    3    3  502    0  0.25154188211E+01 -0.88311861397E+02  0.85338933342E+02  0.12292329209E+03  0.47000000000E+01 0. -1.
         13    1    6    6    0    0  0.36336155535E+02  0.68752321156E+02 -0.46005114595E+01  0.77899695565E+02  0.00000000000E+00 0. -1.
        -14    1    6    6    0    0 -0.71440555275E+01 -0.20290849424E+02 -0.12617484266E+01  0.21548737986E+02  0.00000000000E+00 0.  1.
         -5    1    5    5    0  503  0.12669262183E+03  0.11375867084E+03  0.10969407421E+03  0.20260043320E+03  0.47000000000E+01 0.  1.
<mgrwt>
<rscale>  2 0.28388255E+03</rscale>
<asrwt>0</asrwt>
<pdfrwt beam="1">  1       21 0.96423148E-01 0.28396296E+03</pdfrwt>
<pdfrwt beam="2">  1       21 0.22565235E-01 0.28396296E+03</pdfrwt>
<totfact> 0.15657593E+04</totfact>
</mgrwt>
</event>
<event>
12    1  0.1441827E-001  0.2161134E+03  0.7546771E-02  0.1137042E+00
         21   -1    0    0  504  503  0.00000000000E+00  0.00000000000E+00  0.51892353211E+03  0.51892353211E+03  0.00000000000E+00 0.  1.
         21   -1    0    0  502  504 -0.00000000000E+00 -0.00000000000E+00 -0.89543412260E+02  0.89543412260E+02  0.00000000000E+00 0.  1.
          6    2    1    2  502    0 -0.13417824067E+02  0.12652617684E+03  0.20924285683E+03  0.30081153367E+03  0.17468856353E+03 0.  0.
         24    2    3    3    0    0  0.42485494435E+02  0.80849480305E+02  0.68549753100E+02  0.14260855942E+03  0.85419417390E+02 0.  0.
         -6    2    1    2    0  503  0.13417824067E+02 -0.12652617684E+03  0.22013726303E+03  0.30765541070E+03  0.17321237176E+03 0.  0.
        -24    2    5    5    0    0  0.84847763900E+01 -0.12567259625E+03  0.24201680610E+03  0.28472359951E+03  0.81423588724E+02 0.  0.
          4    1    4    4  501    0 -0.16151420354E+02  0.60957010979E+02  0.37019081117E+02  0.73123443119E+02  0.00000000000E+00 0. -1.
         -3    1    4    4    0  501  0.58636914788E+02  0.19892469326E+02  0.31530671983E+02  0.69485116302E+02  0.00000000000E+00 0.  1.
          5    1    3    3  502    0 -0.55903318502E+02  0.45676696539E+02  0.14069310373E+03  0.15820297425E+03  0.47000000000E+01 0. -1.
         13    1    6    6    0    0  0.12106847257E+02  0.71110363059E+01  0.44763102739E+02  0.46913515693E+02  0.00000000000E+00 0. -1.
        -14    1    6    6    0    0 -0.36220708674E+01 -0.13278363256E+03  0.19725370336E+03  0.23781008381E+03  0.00000000000E+00 0.  1.
         -5    1    5    5    0  503  0.49330476769E+01 -0.85358058981E+00 -0.21879543077E+02  0.22931811191E+02  0.47000000000E+01 0.  1.
<mgrwt>
<rscale>  2 0.21581492E+03</rscale>
<asrwt>0</asrwt>
<pdfrwt beam="1">  1       21 0.79834388E-01 0.21611341E+03</pdfrwt>
<pdfrwt beam="2">  1       21 0.13775910E-01 0.21611341E+03</pdfrwt>
<totfact> 0.62577740E+04</totfact>
</mgrwt>
</event>
<event>
12    1  0.1441827E-001  0.2069576E+03  0.7546771E-02  0.1144030E+00
         21   -1    0    0  504  503  0.00000000000E+00  0.00000000000E+00  0.76459741899E+02  0.76459741899E+02  0.00000000000E+00 0. -1.
         21   -1    0    0  502  504 -0.00000000000E+00 -0.00000000000E+00 -0.55975929869E+03  0.55975929869E+03  0.00000000000E+00 0. -1.
          6    2    1    2  502    0  0.91101711760E+02 -0.67329944464E+02 -0.24107188801E+03  0.31761948728E+03  0.17301341047E+03 0.  0.
         24    2    3    3    0    0  0.11435743482E+03 -0.86682920959E+02 -0.15065427963E+03  0.22215849912E+03  0.77885397081E+02 0.  0.
         -6    2    1    2    0  503 -0.91101711760E+02  0.67329944464E+02 -0.24222766878E+03  0.31859955331E+03  0.17320100617E+03 0.  0.
        -24    2    5    5    0    0 -0.11015703031E+03  0.65457773889E+02 -0.25026711812E+03  0.29730793681E+03  0.96638953779E+02 0.  0.
          4    1    4    4  501    0  0.11339755893E+03 -0.80227359919E+02 -0.10018075560E+03  0.17126476416E+03  0.00000000000E+00 0. -1.
         -3    1    4    4    0  501  0.95987588178E+00 -0.64555610405E+01 -0.50473524030E+02  0.50893734959E+02  0.00000000000E+00 0.  1.
          5    1    3    3  502    0 -0.23255723055E+02  0.19352976496E+02 -0.90417608386E+02  0.95460988159E+02  0.47000000000E+01 0. -1.
         11    1    6    6    0    0 -0.53063934503E+02  0.84202059795E+02 -0.17074061206E+03  0.19763128453E+03  0.00000000000E+00 0. -1.
        -12    1    6    6    0    0 -0.57093095807E+02 -0.18744285906E+02 -0.79526506058E+02  0.99676652276E+02  0.00000000000E+00 0.  1.
         -5    1    5    5    0  503  0.19055318551E+02  0.18721705749E+01  0.80394493372E+01  0.21291616504E+02  0.47000000000E+01 0.  1.
<mgrwt>
<rscale>  2 0.20691831E+03</rscale>
<asrwt>0</asrwt>
<pdfrwt beam="1">  1       21 0.11763037E-01 0.20695756E+03</pdfrwt>
<pdfrwt beam="2">  1       21 0.86116818E-01 0.20695756E+03</pdfrwt>
<totfact> 0.70256504E+04</totfact>
</mgrwt>
</event>
<event>
12    1  0.1441827E-001  0.2101173E+03  0.7546771E-02  0.1141996E+00
         21   -1    0    0  504  503  0.00000000000E+00  0.00000000000E+00  0.72251365764E+02  0.72251365764E+02  0.00000000000E+00 0.  1.
         21   -1    0    0  502  504 -0.00000000000E+00 -0.00000000000E+00 -0.70835752374E+03  0.70835752374E+03  0.00000000000E+00 0.  1.
          6    2    1    2  502    0  0.59452138817E+02  0.98253856748E+02 -0.16954701298E+03  0.26999159674E+03  0.17595708433E+03 0.  0.
         24    2    3    3    0    0 -0.24532502355E+02  0.23974489728E+02 -0.11816377097E+03  0.14656886028E+03  0.79643795763E+02 0.  0.
         -6    2    1    2    0  503 -0.59452138817E+02 -0.98253856748E+02 -0.46655914500E+03  0.51061729276E+03  0.17281263469E+03 0.  0.
        -24    2    5    5    0    0 -0.93941401045E+02 -0.46474330392E+02 -0.23207529037E+03  0.26797476426E+03  0.83466661974E+02 0.  0.
          4    1    4    4  501    0 -0.36778943018E+02 -0.19444881810E+02 -0.56490789721E+02  0.70156991109E+02  0.00000000000E+00 0. -1.
         -3    1    4    4    0  501  0.12246440662E+02  0.43419371538E+02 -0.61672981247E+02  0.76411869167E+02  0.00000000000E+00 0.  1.
          5    1    3    3  502    0  0.83984641172E+02  0.74279367020E+02 -0.51383242011E+02  0.12342273647E+03  0.47000000000E+01 0. -1.
         11    1    6    6    0    0  0.13631424626E+02  0.15293079150E+01 -0.43681386854E+02  0.45784474197E+02  0.00000000000E+00 0. -1.
        -12    1    6    6    0    0 -0.10757282567E+03 -0.48003638307E+02 -0.18839390352E+03  0.22219029006E+03  0.00000000000E+00 0.  1.
         -5    1    5    5    0  503  0.34489262228E+02 -0.51779526356E+02 -0.23448385463E+03  0.24264252851E+03  0.47000000000E+01 0.  1.
<mgrwt>
<rscale>  2 0.20945765E+03</rscale>
<asrwt>0</asrwt>
<pdfrwt beam="1">  1       21 0.11115595E-01 0.21011728E+03</pdfrwt>
<pdfrwt beam="2">  1       21 0.10897808E+00 0.21011728E+03</pdfrwt>
<totfact> 0.44524508E+04</totfact>
</mgrwt>
</event>
<event>
12    1  0.1441827E-001  0.1852377E+03  0.7546771E-02  0.1163326E+00
         21   -1    0    0  504  503  0.00000000000E+00  0.00000000000E+00  0.11620701289E+04  0.11620701289E+04  0.00000000000E+00 0. -1.
         21   -1    0    0  502  504 -0.00000000000E+00 -0.00000000000E+00 -0.48555493550E+02  0.48555493550E+02  0.00000000000E+00 0. -1.
          6    2    1    2  502    0  0.18710629782E+02 -0.36539707094E+02  0.17641764853E+03  0.25580497853E+03  0.18063156554E+03 0.  0.
         24    2    3    3    0    0  0.57900418589E+02 -0.78575080781E+02  0.10910628230E+03  0.16717246638E+03  0.80721440061E+02 0.  0.
         -6    2    1    2    0  503 -0.18710629782E+02  0.36539707094E+02  0.93709698677E+03  0.95482064387E+03  0.17845576894E+03 0.  0.
        -24    2    5    5    0    0  0.66182637543E+01  0.76824887607E+02  0.39158879822E+03  0.40722067821E+03  0.80876628835E+02 0.  0.
          4    1    4    4  501    0  0.77402010694E+02 -0.62604477687E+02  0.97774670531E+02  0.13953593832E+03  0.00000000000E+00 0. -1.
         -3    1    4    4    0  501 -0.19501592105E+02 -0.15970603094E+02  0.11331611770E+02  0.27636528058E+02  0.00000000000E+00 0.  1.
          5    1    3    3  502    0 -0.39189788807E+02  0.42035373687E+02  0.67311366226E+02  0.88632512155E+02  0.47000000000E+01 0. -1.
         11    1    6    6    0    0 -0.94332202440E+01  0.29794103409E+02  0.31082919504E+03  0.31239632317E+03  0.00000000000E+00 0. -1.
        -12    1    6    6    0    0  0.16051483998E+02  0.47030784198E+02  0.80759603182E+02  0.94824355031E+02  0.00000000000E+00 0.  1.
         -5    1    5    5    0  503 -0.25328893536E+02 -0.40285180513E+02  0.54550818855E+03  0.54759996566E+03  0.47000000000E+01 0.  1.
<mgrwt>
<rscale>  2 0.18470513E+03</rscale>
<asrwt>0</asrwt>
<pdfrwt beam="1">  1       21 0.17878000E+00 0.18523769E+03</pdfrwt>
<pdfrwt beam="2">  1       21 0.74700768E-02 0.18523769E+03</pdfrwt>
<totfact> 0.25201436E+04</totfact>
</mgrwt>
</event>
<event>
12    1  0.1441827E-001  0.2150986E+03  0.7546771E-02  0.1137917E+00
         21   -1    0    0  504  503  0.00000000000E+00  0.00000000000E+00  0.20510572502E+03  0.20510572502E+03  0.00000000000E+00 0. -1.
         21   -1    0    0  502  504 -0.00000000000E+00 -0.00000000000E+00 -0.31683483490E+03  0.31683483490E+03  0.00000000000E+00 0. -1.
          6    2    1    2  502    0 -0.10588397458E+03 -0.54783426040E+02 -0.19711947349E+03  0.29051259963E+03  0.17699955896E+03 0.  0.
         24    2    3    3    0    0 -0.89858103587E+02 -0.96255916799E+02 -0.10070436347E+03  0.18423579374E+03  0.80385188765E+02 0.  0.
         -6    2    1    2    0  503  0.10588397458E+03  0.54783426040E+02  0.85390363603E+02  0.23142796029E+03  0.17903839467E+03 0.  0.
        -24    2    5    5    0    0  0.36650786898E+02 -0.39917857835E+02  0.48300641424E+02  0.10830483112E+03  0.80375798151E+02 0.  0.
          4    1    4    4  501    0 -0.60886138471E+00 -0.48166099621E+02 -0.54756105278E+02  0.72928560455E+02  0.00000000000E+00 0. -1.
         -3    1    4    4    0  501 -0.89249242202E+02 -0.48089817178E+02 -0.45948258193E+02  0.11130723328E+03  0.00000000000E+00 0.  1.
          5    1    3    3  502    0 -0.16025870992E+02  0.41472490759E+02 -0.96415110016E+02  0.10627680589E+03  0.47000000000E+01 0. -1.
         11    1    6    6    0    0 -0.17177342580E+02  0.17868741663E+01  0.34851355430E+02  0.38895642336E+02  0.00000000000E+00 0. -1.
        -12    1    6    6    0    0  0.53828129478E+02 -0.41704732001E+02  0.13449285994E+02  0.69409188788E+02  0.00000000000E+00 0.  1.
         -5    1    5    5    0  503  0.69233187681E+02  0.94701283875E+02  0.37089722179E+02  0.12312312916E+03  0.47000000000E+01 0.  1.
<mgrwt>
<rscale>  2 0.21467378E+03</rscale>
<asrwt>0</asrwt>
<pdfrwt beam="1">  1       21 0.31554727E-01 0.21509855E+03</pdfrwt>
<pdfrwt beam="2">  1       21 0.48743821E-01 0.21509855E+03</pdfrwt>
<totfact> 0.38344850E+04</totfact>
</mgrwt>
</event>
<event>
12    1  0.1441827E-001  0.2000385E+03  0.7546771E-02  0.1150134E+00
         21   -1    0    0  504  503  0.00000000000E+00  0.00000000000E+00  0.68196563597E+02  0.68196563597E+02  0.00000000000E+00 0. -1.
         21   -1    0    0  502  504 -0.00000000000E+00 -0.00000000000E+00 -0.64722010207E+03  0.64722010207E+03  0.00000000000E+00 0. -1.
          6    2    1    2  502    0  0.43518806872E+02  0.87072261004E+02 -0.17365947081E+03  0.26338191765E+03  0.17244407080E+03 0.  0.
         24    2    3    3    0    0  0.28901914998E+02  0.75118859449E+02 -0.19888652775E+03  0.23152235489E+03  0.86997621570E+02 0.  0.
         -6    2    1    2    0  503 -0.43518806872E+02 -0.87072261004E+02 -0.40536406766E+03  0.45203474802E+03  0.17475674773E+03 0.  0.
        -24    2    5    5    0    0 -0.11213619220E+02 -0.19502729914E+02 -0.34684214898E+03  0.35687082814E+03  0.80939544945E+02 0.  0.
          4    1    4    4  501    0  0.45630869295E+02  0.17642684646E+02 -0.45269694418E+02  0.66654225574E+02  0.00000000000E+00 0. -1.
         -3    1    4    4    0  501 -0.16728954297E+02  0.57476174803E+02 -0.15361683333E+03  0.16486812932E+03  0.00000000000E+00 0.  1.
          5    1    3    3  502    0  0.14616891874E+02  0.11953401555E+02  0.25227056942E+02  0.31859562752E+02  0.47000000000E+01 0. -1.
         11    1    6    6    0    0  0.11108742288E+02 -0.45618600309E+02 -0.24295661236E+03  0.24745176568E+03  0.00000000000E+00 0. -1.
        -12    1    6    6    0    0 -0.22322361508E+02  0.26115870395E+02 -0.10388553662E+03  0.10941906246E+03  0.00000000000E+00 0.  1.
         -5    1    5    5    0  503 -0.32305187653E+02 -0.67569531090E+02 -0.58521918677E+02  0.95163919878E+02  0.47000000000E+01 0.  1.
<mgrwt>
<rscale>  2 0.19953224E+03</rscale>
<asrwt>0</asrwt>
<pdfrwt beam="1">  1       21 0.10491779E-01 0.20003846E+03</pdfrwt>
<pdfrwt beam="2">  1       21 0.99572324E-01 0.20003846E+03</pdfrwt>
<totfact> 0.61593467E+04</totfact>
</mgrwt>
</event>
<event>
12    1  0.1441827E-001  0.2035591E+03  0.7546771E-02  0.1147959E+00
         21   -1    0    0  504  503  0.00000000000E+00  0.00000000000E+00  0.48009611699E+02  0.48009611699E+02  0.00000000000E+00 0. -1.
         21   -1    0    0  502  504 -0.00000000000E+00 -0.00000000000E+00 -0.15211376488E+04  0.15211376488E+04  0.00000000000E+00 0.  1.
          6    2    1    2  502    0  0.91772479650E+02 -0.56202426595E+02 -0.12561156224E+04  0.12716061463E+04  0.16605671795E+03 0.  0.
         24    2    3    3    0    0  0.11501931754E+02  0.20008281154E+02 -0.66582148717E+03  0.67100587243E+03  0.79987513429E+02 0.  0.
         -6    2    1    2    0  503 -0.91772479650E+02  0.56202426595E+02 -0.21701241468E+03  0.29754111422E+03  0.17278722682E+03 0.  0.
        -24    2    5    5    0    0 -0.11147468643E+02  0.76442395011E+02 -0.16652242745E+03  0.20016874888E+03  0.79812927355E+02 0.  0.
          4    1    4    4  501    0 -0.12707717175E+02  0.23411305714E+02 -0.73467697833E+02  0.78147795464E+02  0.00000000000E+00 0. -1.
         -3    1    4    4    0  501  0.24209648928E+02 -0.34030245601E+01 -0.59235378934E+03  0.59285807696E+03  0.00000000000E+00 0.  1.
          5    1    3    3  502    0  0.80270547896E+02 -0.76210707749E+02 -0.59029413523E+03  0.60060027383E+03  0.47000000000E+01 0. -1.
         11    1    6    6    0    0 -0.21694204309E+02 -0.83553152810E+01 -0.20569555987E+02  0.31041205317E+02  0.00000000000E+00 0. -1.
        -12    1    6    6    0    0  0.10546735666E+02  0.84797710292E+02 -0.14595287147E+03  0.16912754357E+03  0.00000000000E+00 0.  1.
         -5    1    5    5    0  503 -0.80625011007E+02 -0.20239968416E+02 -0.50489987222E+02  0.97372365335E+02  0.47000000000E+01 0.  1.
<mgrwt>
<rscale>  2 0.20212377E+03</rscale>
<asrwt>0</asrwt>
<pdfrwt beam="1">  1       21 0.73860944E-02 0.20355915E+03</pdfrwt>
<pdfrwt beam="2">  1       21 0.23402117E+00 0.20355915E+03</pdfrwt>
<totfact> 0.11292059E+04</totfact>
</mgrwt>
</event>
<event>
12    1  0.1441827E-001  0.1783295E+03  0.7546771E-02  0.1169466E+00
         21   -1    0    0  504  503  0.00000000000E+00  0.00000000000E+00  0.57893175496E+03  0.57893175496E+03  0.00000000000E+00 0. -1.
         21   -1    0    0  502  504 -0.00000000000E+00 -0.00000000000E+00 -0.54892198152E+02  0.54892198152E+02  0.00000000000E+00 0.  1.
          6    2    1    2  502    0  0.32505651839E+02  0.26644998081E+02  0.26577678107E+03  0.32006049764E+03  0.17330565908E+03 0.  0.
         24    2    3    3    0    0 -0.47338197453E+02 -0.72130434667E+00  0.12903425277E+03  0.15929805232E+03  0.80527050538E+02 0.  0.
         -6    2    1    2    0  503 -0.32505651839E+02 -0.26644998081E+02  0.25826277573E+03  0.31376345547E+03  0.17315100731E+03 0.  0.
        -24    2    5    5    0    0  0.16263079003E+02 -0.43799851263E+02  0.67234735621E+02  0.11580770232E+03  0.81902378066E+02 0.  0.
          4    1    4    4  501    0 -0.27993927026E+02  0.29971826058E+02  0.22549167678E+02  0.46802086177E+02  0.00000000000E+00 0. -1.
         -3    1    4    4    0  501 -0.19344270427E+02 -0.30693130404E+02  0.10648508509E+03  0.11249596615E+03  0.00000000000E+00 0.  1.
          5    1    3    3  502    0  0.79843849291E+02  0.27366302428E+02  0.13674252830E+03  0.16076244532E+03  0.47000000000E+01 0. -1.
         11    1    6    6    0    0  0.73118598039E+01 -0.66591897961E+02  0.60849845636E+02  0.90502198215E+02  0.00000000000E+00 0. -1.
        -12    1    6    6    0    0  0.89512191995E+01  0.22792046697E+02  0.63848899850E+01  0.25305504104E+02  0.00000000000E+00 0.  1.
         -5    1    5    5    0  503 -0.48768730842E+02  0.17154853182E+02  0.19102804011E+03  0.19795575315E+03  0.47000000000E+01 0.  1.
<mgrwt>
<rscale>  2 0.17829196E+03</rscale>
<asrwt>0</asrwt>
<pdfrwt beam="1">  1       21 0.89066420E-01 0.17832954E+03</pdfrwt>
<pdfrwt beam="2">  1       21 0.84449540E-02 0.17832954E+03</pdfrwt>
<totfact> 0.11816063E+05</totfact>
</mgrwt>
</event>
<event>
12    1  0.1441827E-001  0.1855105E+03  0.7546771E-02  0.1165222E+00
         21   -1    0    0  504  503  0.00000000000E+00  0.00000000000E+00  0.18820891862E+03  0.18820891862E+03  0.00000000000E+00 0. -1.
         21   -1    0    0  502  504 -0.00000000000E+00 -0.00000000000E+00 -0.18314756069E+04  0.18314756069E+04  0.00000000000E+00 0. -1.
          6    2    1    2  502    0  0.10135006245E+02 -0.32067347804E+02 -0.17851634955E+04  0.17947765468E+04  0.18243660344E+03 0.  0.
         24    2    3    3    0    0  0.20248311802E+02  0.39463822636E+02 -0.13824611858E+04  0.13856185975E+04  0.82295686304E+02 0.  0.
         -6    2    1    2    0  503 -0.10135006245E+02  0.32067347804E+02  0.14189680721E+03  0.22490797869E+03  0.17122459471E+03 0.  0.
        -24    2    5    5    0    0 -0.29228328277E+02 -0.33398085604E+02  0.13063025210E+03  0.15563097542E+03  0.72020902864E+02 0.  0.
          2    1    4    4  501    0  0.42737280272E+02  0.16730903041E+02 -0.11560213706E+04  0.11569320669E+04  0.00000000000E+00 0. -1.
         -1    1    4    4    0  501 -0.22488968471E+02  0.22732919595E+02 -0.22643981527E+03  0.22868653060E+03  0.00000000000E+00 0.  1.
          5    1    3    3  502    0 -0.10113305557E+02 -0.71531170441E+02 -0.40270230966E+03  0.40915794933E+03  0.47000000000E+01 0. -1.
         13    1    6    6    0    0  0.38975049256E+01  0.18138891887E+02  0.11943643315E+02  0.22064916931E+02  0.00000000000E+00 0. -1.
        -14    1    6    6    0    0 -0.33125833203E+02 -0.51536977491E+02  0.11868660879E+03  0.13356605849E+03  0.00000000000E+00 0.  1.
         -5    1    5    5    0  503  0.19093322032E+02  0.65465433408E+02  0.11266555108E+02  0.69277003266E+02  0.47000000000E+01 0.  1.
<mgrwt>
<rscale>  2 0.18269338E+03</rscale>
<asrwt>0</asrwt>
<pdfrwt beam="1">  1       21 0.28955219E-01 0.18551050E+03</pdfrwt>
<pdfrwt beam="2">  1       21 0.28176547E+00 0.18551050E+03</pdfrwt>
<totfact> 0.50140467E+02</totfact>
</mgrwt>
</event>
<event>
12    1  0.1441827E-001  0.1765637E+03  0.7546771E-02  0.1171268E+00
         21   -1    0    0  504  503  0.00000000000E+00  0.00000000000E+00  0.35281980987E+03  0.35281980987E+03  0.00000000000E+00 0. -1.
         21   -1    0    0  502  504 -0.00000000000E+00 -0.00000000000E+00 -0.17121011627E+03  0.17121011627E+03  0.00000000000E+00 0. -1.
          6    2    1    2  502    0  0.47227718452E+00  0.12309795947E+02 -0.91729781096E+02  0.19862367866E+03  0.17574202361E+03 0.  0.
         24    2    3    3    0    0 -0.12180292358E+01 -0.23604660195E+02  0.13923067739E+02  0.86921754943E+02  0.82479549520E+02 0.  0.
         -6    2    1    2    0  503 -0.47227718452E+00 -0.12309795947E+02  0.27333947470E+03  0.32540624748E+03  0.17613348163E+03 0.  0.
        -24    2    5    5    0    0 -0.35293439325E+02  0.44435149235E+02  0.21346495392E+03  0.23574270765E+03  0.82384636393E+02 0.  0.
          4    1    4    4  501    0 -0.95235713788E+01 -0.13701255516E+01 -0.32980126608E+02  0.34354976451E+02  0.00000000000E+00 0. -1.
         -3    1    4    4    0  501  0.83055421430E+01 -0.22234534643E+02  0.46903194347E+02  0.52566778492E+02  0.00000000000E+00 0.  1.
          5    1    3    3  502    0  0.16903064204E+01  0.35914456142E+02 -0.10565284884E+03  0.11170192372E+03  0.47000000000E+01 0. -1.
         11    1    6    6    0    0 -0.58534712753E+02  0.19467977937E+02  0.16754215566E+03  0.17853763940E+03  0.00000000000E+00 0. -1.
        -12    1    6    6    0    0  0.23241273428E+02  0.24967171299E+02  0.45922798261E+02  0.57205068248E+02  0.00000000000E+00 0.  1.
         -5    1    5    5    0  503  0.34821162140E+02 -0.56744945182E+02  0.59874520779E+02  0.89663539832E+02  0.47000000000E+01 0.  1.
<mgrwt>
<rscale>  2 0.17646604E+03</rscale>
<asrwt>0</asrwt>
<pdfrwt beam="1">  1       21 0.54279971E-01 0.17656375E+03</pdfrwt>
<pdfrwt beam="2">  1       21 0.26340018E-01 0.17656375E+03</pdfrwt>
<totfact> 0.44308243E+04</totfact>
</mgrwt>
</event>
<event>
12    1  0.1441827E-001  0.2026990E+03  0.7546771E-02  0.1147493E+00
         21   -1    0    0  504  503  0.00000000000E+00  0.00000000000E+00  0.97368780494E+03  0.97368780494E+03  0.00000000000E+00 0. -1.
         21   -1    0    0  502  504 -0.00000000000E+00 -0.00000000000E+00 -0.19525550304E+03  0.19525550304E+03  0.00000000000E+00 0. -1.
          6    2    1    2  502    0 -0.68983998744E+02  0.79561058439E+02 -0.12826812122E+03  0.23987410080E+03  0.17319965130E+03 0.  0.
         24    2    3    3    0    0 -0.65753427600E+02  0.11189587103E+03 -0.13805943748E+03  0.20561134304E+03  0.79821155820E+02 0.  0.
         -6    2    1    2    0  503  0.68983998744E+02 -0.79561058439E+02  0.90670042312E+03  0.92906920719E+03  0.17313341778E+03 0.  0.
        -24    2    5    5    0    0  0.73530028050E+02  0.79483360713E+00  0.34422154081E+03  0.36084185936E+03  0.79442315711E+02 0.  0.
          2    1    4    4  501    0 -0.65660005510E+02  0.59296456657E+02 -0.12182973587E+03  0.15056490507E+03  0.00000000000E+00 0. -1.
         -1    1    4    4    0  501 -0.93422089542E-01  0.52599414368E+02 -0.16229701616E+02  0.55046437978E+02  0.00000000000E+00 0.  1.
          5    1    3    3  502    0 -0.32305711445E+01 -0.32334812586E+02  0.97913162619E+01  0.34262757755E+02  0.47000000000E+01 0. -1.
         11    1    6    6    0    0  0.71534313259E+02 -0.29133619071E+02  0.22431904722E+03  0.23724451665E+03  0.00000000000E+00 0. -1.
        -12    1    6    6    0    0  0.19957147910E+01  0.29928452678E+02  0.11990249359E+03  0.12359734272E+03  0.00000000000E+00 0.  1.
         -5    1    5    5    0  503 -0.45460293061E+01 -0.80355892047E+02  0.56247888231E+03  0.56822734782E+03  0.47000000000E+01 0.  1.
<mgrwt>
<rscale>  2 0.20268482E+03</rscale>
<asrwt>0</asrwt>
<pdfrwt beam="1">  1       21 0.14979812E+00 0.20269897E+03</pdfrwt>
<pdfrwt beam="2">  1       21 0.30039309E-01 0.20269897E+03</pdfrwt>
<totfact> 0.31598172E+03</totfact>
</mgrwt>
</event>
<event>
12    1  0.1441827E-001  0.2180152E+03  0.7546771E-02  0.1135599E+00
         21   -1    0    0  504  503  0.00000000000E+00  0.00000000000E+00  0.14280414292E+03  0.14280414292E+03  0.00000000000E+00 0.  1.
         21   -1    0    0  502  504 -0.00000000000E+00 -0.00000000000E+00 -0.33149981367E+03  0.33149981367E+03  0.00000000000E+00 0.  1.
          6    2    1    2  502    0  0.81226490872E+02 -0.10415182086E+03 -0.10322506721E+03  0.24013336417E+03  0.17193973793E+03 0.  0.
         24    2    3    3    0    0  0.12019540062E+03 -0.57012805974E+02 -0.68331439785E+02  0.16956199684E+03  0.79904259806E+02 0.  0.
         -6    2    1    2    0  503 -0.81226490872E+02  0.10415182086E+03 -0.85470603534E+02  0.23417059241E+03  0.17345113916E+03 0.  0.
        -24    2    5    5    0    0  0.14742908954E+00  0.22434518009E+02 -0.83486497792E+02  0.11873463999E+03  0.81391584867E+02 0.  0.
          4    1    4    4  501    0  0.43079336331E+02 -0.60552324669E+02 -0.51881103426E+02  0.90631463269E+02  0.00000000000E+00 0. -1.
         -3    1    4    4    0  501  0.77116064289E+02  0.35395186950E+01 -0.16450336358E+02  0.78930533574E+02  0.00000000000E+00 0.  1.
          5    1    3    3  502    0 -0.38968909749E+02 -0.47139014890E+02 -0.34893627429E+02  0.70571367331E+02  0.47000000000E+01 0. -1.
         11    1    6    6    0    0 -0.12959363562E+02  0.47531701109E+02 -0.73949673984E+02  0.88858100343E+02  0.00000000000E+00 0. -1.
        -12    1    6    6    0    0  0.13106792651E+02 -0.25097183100E+02 -0.95368238078E+01  0.29876539650E+02  0.00000000000E+00 0.  1.
         -5    1    5    5    0  503 -0.81373919961E+02  0.81717302855E+02 -0.19841057418E+01  0.11543595242E+03  0.47000000000E+01 0.  1.
<mgrwt>
<rscale>  2 0.21771448E+03</rscale>
<asrwt>0</asrwt>
<pdfrwt beam="1">  1       21 0.21969868E-01 0.21801523E+03</pdfrwt>
<pdfrwt beam="2">  1       21 0.50999971E-01 0.21801523E+03</pdfrwt>
<totfact> 0.69975274E+04</totfact>
</mgrwt>
</event>
<event>
12    1  0.1441827E-001  0.1874342E+03  0.7546771E-02  0.1162628E+00
         21   -1    0    0  504  503  0.00000000000E+00  0.00000000000E+00  0.66884988767E+03  0.66884988767E+03  0.00000000000E+00 0.  1.
         21   -1    0    0  502  504 -0.00000000000E+00 -0.00000000000E+00 -0.50443169955E+02  0.50443169955E+02  0.00000000000E+00 0. -1.
          6    2    1    2  502    0 -0.25772540300E+02  0.62551465986E+02  0.30133349984E+03  0.35487106632E+03  0.17479898700E+03 0.  0.
         24    2    3    3    0    0 -0.38251640702E+02  0.10128323839E+03  0.16756740358E+03  0.21497347289E+03  0.80082937679E+02 0.  0.
         -6    2    1    2    0  503  0.25772540300E+02 -0.62551465986E+02  0.31707321788E+03  0.36442199130E+03  0.16640628750E+03 0.  0.
        -24    2    5    5    0    0  0.79166247712E+02 -0.54183416996E+02  0.23387241042E+03  0.26509738913E+03  0.79857272144E+02 0.  0.
          2    1    4    4  501    0 -0.39287498054E+02  0.65474823654E+02  0.48085469353E+02  0.90236757471E+02  0.00000000000E+00 0. -1.
         -1    1    4    4    0  501  0.10358573519E+01  0.35808414739E+02  0.11948193423E+03  0.12473671542E+03  0.00000000000E+00 0.  1.
          5    1    3    3  502    0  0.12479100402E+02 -0.38731772407E+02  0.13376609626E+03  0.13989759344E+03  0.47000000000E+01 0. -1.
         11    1    6    6    0    0  0.28626688197E+02 -0.65109580379E+02  0.11155515039E+03  0.13230002386E+03  0.00000000000E+00 0. -1.
        -12    1    6    6    0    0  0.50539559515E+02  0.10926163382E+02  0.12231726004E+03  0.13279736528E+03  0.00000000000E+00 0.  1.
         -5    1    5    5    0  503 -0.53393707412E+02 -0.83680489894E+01  0.83200807452E+02  0.99324602168E+02  0.47000000000E+01 0.  1.
<mgrwt>
<rscale>  2 0.18545269E+03</rscale>
<asrwt>0</asrwt>
<pdfrwt beam="1">  1       21 0.10289998E+00 0.18743424E+03</pdfrwt>
<pdfrwt beam="2">  1       21 0.77604882E-02 0.18743424E+03</pdfrwt>
<totfact> 0.97231387E+04</totfact>
</mgrwt>
</event>
<event>
12    1  0.1441827E-001  0.2377475E+03  0.7546771E-02  0.1121456E+00
         21   -1    0    0  504  503  0.00000000000E+00  0.00000000000E+00  0.11180154233E+03  0.11180154233E+03  0.00000000000E+00 0.  1.
         21   -1    0    0  502  504 -0.00000000000E+00 -0.00000000000E+00 -0.61092313356E+03  0.61092313356E+03  0.00000000000E+00 0. -1.
          6    2    1    2  502    0  0.83292755509E+02  0.14000909453E+03 -0.40059608587E+03  0.46537057632E+03  0.17190788120E+03 0.  0.
         24    2    3    3    0    0  0.11079620622E+03  0.92665547489E+02 -0.36210647085E+03  0.39827816459E+03  0.81496608247E+02 0.  0.
         -6    2    1    2    0  503 -0.83292755509E+02 -0.14000909453E+03 -0.98525505358E+02  0.25735409957E+03  0.17315781152E+03 0.  0.
        -24    2    5    5    0    0 -0.80565442417E+02 -0.42488716610E+02 -0.10301102656E+03  0.15957950038E+03  0.80983108104E+02 0.  0.
          2    1    4    4  501    0 -0.10259901161E+02 -0.26944776749E+01 -0.37114545707E+02  0.38600716118E+02  0.00000000000E+00 0. -1.
         -1    1    4    4    0  501  0.12105610738E+03  0.95360025163E+02 -0.32499192514E+03  0.35967744848E+03  0.00000000000E+00 0.  1.
          5    1    3    3  502    0 -0.27503450707E+02  0.47343547038E+02 -0.38489615019E+02  0.67092411726E+02  0.47000000000E+01 0. -1.
         11    1    6    6    0    0 -0.16502184562E+02 -0.17502263862E+02 -0.85222449083E+02  0.88552341377E+02  0.00000000000E+00 0. -1.
        -12    1    6    6    0    0 -0.64063257855E+02 -0.24986452748E+02 -0.17788577480E+02  0.71027159008E+02  0.00000000000E+00 0.  1.
         -5    1    5    5    0  503 -0.27273130919E+01 -0.97520377917E+02  0.44855212059E+01  0.97774599187E+02  0.47000000000E+01 0.  1.
<mgrwt>
<rscale>  2 0.23751994E+03</rscale>
<asrwt>0</asrwt>
<pdfrwt beam="1">  1       21 0.17200238E-01 0.23774747E+03</pdfrwt>
<pdfrwt beam="2">  1       21 0.93988173E-01 0.23774747E+03</pdfrwt>
<totfact> 0.28305421E+04</totfact>
</mgrwt>
</event>
<event>
12    1  0.1441827E-001  0.2252262E+03  0.7546771E-02  0.1130953E+00
         21   -1    0    0  504  503  0.00000000000E+00  0.00000000000E+00  0.68099037512E+02  0.68099037512E+02  0.00000000000E+00 0.  1.
         21   -1    0    0  502  504 -0.00000000000E+00 -0.00000000000E+00 -0.72893178636E+03  0.72893178636E+03  0.00000000000E+00 0. -1.
          6    2    1    2  502    0 -0.13578898140E+03 -0.45528719705E+02 -0.33531101762E+03  0.40118836509E+03  0.16735326098E+03 0.  0.
         24    2    3    3    0    0 -0.93228320716E+02 -0.28453565267E+01 -0.31355451802E+03  0.33693329054E+03  0.80672118287E+02 0.  0.
         -6    2    1    2    0  503  0.13578898140E+03  0.45528719705E+02 -0.32552173124E+03  0.39584245879E+03  0.17382561056E+03 0.  0.
        -24    2    5    5    0    0  0.37289541555E+02 -0.17765690939E+02 -0.22098240636E+03  0.23881098897E+03  0.80568820568E+02 0.  0.
          4    1    4    4  501    0 -0.98834678760E+02 -0.75112949801E+01 -0.31433988689E+03  0.32959714466E+03  0.00000000000E+00 0. -1.
         -3    1    4    4    0  501  0.56063580435E+01  0.46659384534E+01  0.78536887090E+00  0.73361458837E+01  0.00000000000E+00 0.  1.
          5    1    3    3  502    0 -0.42560660684E+02 -0.42683363178E+02 -0.21756499599E+02  0.64255074546E+02  0.47000000000E+01 0. -1.
         11    1    6    6    0    0  0.51507026196E+02 -0.22259206997E+02 -0.83985290840E+02  0.10100482722E+03  0.00000000000E+00 0. -1.
        -12    1    6    6    0    0 -0.14217484641E+02  0.44935160577E+01 -0.13699711552E+03  0.13780616175E+03  0.00000000000E+00 0.  1.
         -5    1    5    5    0  503  0.98499439845E+02  0.63294410644E+02 -0.10453932488E+03  0.15703146982E+03  0.47000000000E+01 0.  1.
<mgrwt>
<rscale>  2 0.22397667E+03</rscale>
<asrwt>0</asrwt>
<pdfrwt beam="1">  1       21 0.10476775E-01 0.22522623E+03</pdfrwt>
<pdfrwt beam="2">  1       21 0.11214335E+00 0.22522623E+03</pdfrwt>
<totfact> 0.45801353E+04</totfact>
</mgrwt>
</event>
<event>
12    1  0.1441827E-001  0.1976001E+03  0.7546771E-02  0.1151934E+00
         21   -1    0    0  504  503  0.00000000000E+00  0.00000000000E+00  0.12973269156E+03  0.12973269156E+03  0.00000000000E+00 0. -1.
         21   -1    0    0  502  504 -0.00000000000E+00 -0.00000000000E+00 -0.10476984783E+04  0.10476984783E+04  0.00000000000E+00 0. -1.
          6    2    1    2  502    0  0.65041513757E+02 -0.72288861140E+02 -0.95659806020E+03  0.97679356163E+03  0.17201667164E+03 0.  0.
         24    2    3    3    0    0  0.17037291783E+02 -0.98676099196E+02 -0.81273181084E+03  0.82277966823E+03  0.80038392210E+02 0.  0.
         -6    2    1    2    0  503 -0.65041513757E+02  0.72288861140E+02  0.38632273462E+02  0.20063760822E+03  0.17119263805E+03 0.  0.
        -24    2    5    5    0    0 -0.86838499256E+01  0.32295957667E+02  0.81234271678E+02  0.11931947462E+03  0.80744609711E+02 0.  0.
          2    1    4    4  501    0  0.33737528623E+02 -0.32745319988E+02 -0.52577566096E+03  0.52787358570E+03  0.00000000000E+00 0. -1.
         -1    1    4    4    0  501 -0.16700236840E+02 -0.65930779207E+02 -0.28695614988E+03  0.29490608253E+03  0.00000000000E+00 0.  1.
          5    1    3    3  502    0  0.48004221974E+02  0.26387238056E+02 -0.14386624936E+03  0.15401389341E+03  0.47000000000E+01 0. -1.
         11    1    6    6    0    0 -0.18494764375E+02  0.56666096094E+02  0.45608542333E+02  0.75054925818E+02  0.00000000000E+00 0. -1.
        -12    1    6    6    0    0  0.98109144494E+01 -0.24370138427E+02  0.35625729345E+02  0.44264548802E+02  0.00000000000E+00 0.  1.
         -5    1    5    5    0  503 -0.56357663831E+02  0.39992903473E+02 -0.42601998216E+02  0.81318133603E+02  0.47000000000E+01 0.  1.
<mgrwt>
<rscale>  2 0.19742066E+03</rscale>
<asrwt>0</asrwt>
<pdfrwt beam="1">  1       21 0.19958876E-01 0.19760013E+03</pdfrwt>
<pdfrwt beam="2">  1       21 0.16118438E+00 0.19760013E+03</pdfrwt>
<totfact> 0.56934985E+03</totfact>
</mgrwt>
</event>
<event>
12    1  0.1441827E-001  0.2251249E+03  0.7546771E-02  0.1130262E+00
         21   -1    0    0  504  503  0.00000000000E+00  0.00000000000E+00  0.17080321639E+03  0.17080321639E+03  0.00000000000E+00 0.  1.
         21   -1    0    0  502  504 -0.00000000000E+00 -0.00000000000E+00 -0.29576357641E+03  0.29576357641E+03  0.00000000000E+00 0. -1.
          6    2    1    2  502    0  0.63157342187E+02  0.12882656007E+03 -0.66141116641E+02  0.23388480187E+03  0.17245962073E+03 0.  0.
         24    2    3    3    0    0  0.73006901221E+02  0.15861451306E+03 -0.51373706566E+02  0.19889191178E+03  0.80188300070E+02 0.  0.
         -6    2    1    2    0  503 -0.63157342187E+02 -0.12882656007E+03 -0.58819243376E+02  0.23268199093E+03  0.17348219811E+03 0.  0.
        -24    2    5    5    0    0 -0.59007251497E+02 -0.11194806650E+03  0.22037744110E+02  0.14984450411E+03  0.77158848641E+02 0.  0.
          4    1    4    4  501    0  0.86559213600E+02  0.12897782061E+03 -0.25782649696E+02  0.15745640887E+03  0.00000000000E+00 0. -1.
         -3    1    4    4    0  501 -0.13552312379E+02  0.29636692446E+02 -0.25591056871E+02  0.41435502914E+02  0.00000000000E+00 0.  1.
          5    1    3    3  502    0 -0.98495590333E+01 -0.29787952985E+02 -0.14767410074E+02  0.34992890085E+02  0.47000000000E+01 0. -1.
         13    1    6    6    0    0  0.46313835877E+01 -0.30621056132E+02 -0.21577704546E+02  0.37745147053E+02  0.00000000000E+00 0. -1.
        -14    1    6    6    0    0 -0.63638635084E+02 -0.81327010372E+02  0.43615448656E+02  0.11209935706E+03  0.00000000000E+00 0.  1.
         -5    1    5    5    0  503 -0.41500906908E+01 -0.16878493568E+02 -0.80856987486E+02  0.82837486823E+02  0.47000000000E+01 0.  1.
<mgrwt>
<rscale>  2 0.22492784E+03</rscale>
<asrwt>0</asrwt>
<pdfrwt beam="1">  1       21 0.26277418E-01 0.22512487E+03</pdfrwt>
<pdfrwt beam="2">  1       21 0.45502089E-01 0.22512487E+03</pdfrwt>
<totfact> 0.62864852E+04</totfact>
</mgrwt>
</event>
<event>
12    1  0.1441827E-001  0.3168780E+03  0.7546771E-02  0.1077218E+00
         21   -1    0    0  504  503  0.00000000000E+00  0.00000000000E+00  0.97145830108E+03  0.97145830108E+03  0.00000000000E+00 0. -1.
         21   -1    0    0  502  504 -0.00000000000E+00 -0.00000000000E+00 -0.20431765287E+03  0.20431765287E+03  0.00000000000E+00 0.  1.
          6    2    1    2  502    0 -0.57862745859E+02 -0.25918190172E+03 -0.30700708065E+02  0.31731077093E+03  0.17093927675E+03 0.  0.
         24    2    3    3    0    0  0.27097985432E+02 -0.16822335724E+03  0.42078849876E+01  0.18795667342E+03  0.79225034240E+02 0.  0.
         -6    2    1    2    0  503  0.57862745859E+02  0.25918190172E+03  0.79784135627E+03  0.85846518302E+03  0.17288228694E+03 0.  0.
        -24    2    5    5    0    0  0.83483402854E+02  0.99897919275E+02  0.44269286225E+03  0.46836218645E+03  0.80231506134E+02 0.  0.
          4    1    4    4  501    0  0.14682503036E+02 -0.10610311109E+03  0.41006837219E+02  0.11469527792E+03  0.00000000000E+00 0. -1.
         -3    1    4    4    0  501  0.12415482396E+02 -0.62120246150E+02 -0.36798952231E+02  0.73261395497E+02  0.00000000000E+00 0.  1.
          5    1    3    3  502    0 -0.84960731291E+02 -0.90958544477E+02 -0.34908593053E+02  0.12935409751E+03  0.47000000000E+01 0. -1.
         11    1    6    6    0    0  0.52441919052E+02  0.49905295715E+02  0.35791499230E+03  0.36516275156E+03  0.00000000000E+00 0. -1.
        -12    1    6    6    0    0  0.31041483802E+02  0.49992623560E+02  0.84777869949E+02  0.10319943488E+03  0.00000000000E+00 0.  1.
         -5    1    5    5    0  503 -0.25620656995E+02  0.15928398244E+03  0.35514849402E+03  0.39010299657E+03  0.47000000000E+01 0.  1.
<mgrwt>
<rscale>  2 0.31661366E+03</rscale>
<asrwt>0</asrwt>
<pdfrwt beam="1">  1       21 0.14945512E+00 0.31687796E+03</pdfrwt>
<pdfrwt beam="2">  1       21 0.31433486E-01 0.31687796E+03</pdfrwt>
<totfact> 0.26848028E+03</totfact>
</mgrwt>
</event>
<event>
12    1  0.1441827E-001  0.2502880E+03  0.7546771E-02  0.1113130E+00
         21   -1    0    0  504  503  0.00000000000E+00  0.00000000000E+00  0.15592044743E+03  0.15592044743E+03  0.00000000000E+00 0.  1.
         21   -1    0    0  502  504 -0.00000000000E+00 -0.00000000000E+00 -0.40224492701E+03  0.40224492701E+03  0.00000000000E+00 0. -1.
          6    2    1    2  502    0 -0.45892675764E+02 -0.17464459817E+03 -0.13349121802E+03  0.28366174099E+03  0.17331244806E+03 0.  0.
         24    2    3    3    0    0 -0.96796738390E+01 -0.18207322361E+03 -0.70177307084E+02  0.21019537247E+03  0.77542796811E+02 0.  0.
         -6    2    1    2    0  503  0.45892675764E+02  0.17464459817E+03 -0.11283326156E+03  0.27450363346E+03  0.17324556707E+03 0.  0.
        -24    2    5    5    0    0 -0.46038481840E+01  0.39648878832E+02  0.20864052247E+01  0.90106336887E+02  0.80756237218E+02 0.  0.
          2    1    4    4  501    0  0.28637062253E+02 -0.31595680136E+02 -0.11156750161E+02  0.44077674756E+02  0.00000000000E+00 0. -1.
         -1    1    4    4    0  501 -0.38316736092E+02 -0.15047754347E+03 -0.59020556923E+02  0.16611769772E+03  0.00000000000E+00 0.  1.
          5    1    3    3  502    0 -0.36213001925E+02  0.74286254451E+01 -0.63313910940E+02  0.73466368516E+02  0.47000000000E+01 0. -1.
         13    1    6    6    0    0  0.24163875006E+01  0.18546448024E+02 -0.39075344431E+02  0.43320805686E+02  0.00000000000E+00 0. -1.
        -14    1    6    6    0    0 -0.70202356846E+01  0.21102430809E+02  0.41161749656E+02  0.46785531201E+02  0.00000000000E+00 0.  1.
         -5    1    5    5    0  503  0.50496523948E+02  0.13499571933E+03 -0.11491966678E+03  0.18439729657E+03  0.47000000000E+01 0.  1.
<mgrwt>
<rscale>  2 0.25027641E+03</rscale>
<asrwt>0</asrwt>
<pdfrwt beam="1">  1       21 0.23987762E-01 0.25028799E+03</pdfrwt>
<pdfrwt beam="2">  1       21 0.61883834E-01 0.25028799E+03</pdfrwt>
<totfact> 0.38656319E+04</totfact>
</mgrwt>
</event>
<event>
12    1  0.1441827E-001  0.2471760E+03  0.7546771E-02  0.1116456E+00
         21   -1    0    0  504  503  0.00000000000E+00  0.00000000000E+00  0.57124945107E+03  0.57124945107E+03  0.00000000000E+00 0. -1.
         21   -1    0    0  502  504 -0.00000000000E+00 -0.00000000000E+00 -0.30107402617E+03  0.30107402617E+03  0.00000000000E+00 0.  1.
          6    2    1    2  502    0 -0.39691707704E+02  0.15788340814E+03 -0.21910501853E+03  0.32415259276E+03  0.17482932253E+03 0.  0.
         24    2    3    3    0    0  0.21340452305E+02  0.49398048915E+02 -0.15969835742E+03  0.18614810331E+03  0.79069392702E+02 0.  0.
         -6    2    1    2    0  503  0.39691707704E+02 -0.15788340814E+03  0.48928044344E+03  0.54817088448E+03  0.18599291393E+03 0.  0.
        -24    2    5    5    0    0  0.62558529979E+02 -0.18446480997E+02  0.24176538879E+03  0.26312467684E+03  0.80809962326E+02 0.  0.
          4    1    4    4  501    0  0.32533610386E+02  0.63758171480E+02 -0.95066977625E+02  0.11900113642E+03  0.00000000000E+00 0. -1.
         -3    1    4    4    0  501 -0.11193158082E+02 -0.14360122565E+02 -0.64631379797E+02  0.67146966889E+02  0.00000000000E+00 0.  1.
          5    1    3    3  502    0 -0.61032160008E+02  0.10848535923E+03 -0.59406661112E+02  0.13800448944E+03  0.47000000000E+01 0. -1.
         13    1    6    6    0    0  0.36235066520E+02 -0.10059924106E+02  0.23007146523E+03  0.23312456162E+03  0.00000000000E+00 0. -1.
        -14    1    6    6    0    0  0.26323463459E+02 -0.83865568919E+01  0.11693923565E+02  0.30000115222E+02  0.00000000000E+00 0.  1.
         -5    1    5    5    0  503 -0.22866822275E+02 -0.13943692714E+03  0.24751505464E+03  0.28504620764E+03  0.47000000000E+01 0.  1.
<mgrwt>
<rscale>  2 0.24507764E+03</rscale>
<asrwt>0</asrwt>
<pdfrwt beam="1">  1       21 0.87884531E-01 0.24717598E+03</pdfrwt>
<pdfrwt beam="2">  1       21 0.46319081E-01 0.24717598E+03</pdfrwt>
<totfact> 0.47657563E+03</totfact>
</mgrwt>
</event>
<event>
12    1  0.1441827E-001  0.1920565E+03  0.7546771E-02  0.1156783E+00
         21   -1    0    0  504  503  0.00000000000E+00  0.00000000000E+00  0.26849829696E+02  0.26849829696E+02  0.00000000000E+00 0.  1.
         21   -1    0    0  502  504 -0.00000000000E+00 -0.00000000000E+00 -0.16406364308E+04  0.16406364308E+04  0.00000000000E+00 0.  1.
          6    2    1    2  502    0  0.85533759238E+02  0.15489660431E+02 -0.11477356198E+04  0.11636935879E+04  0.17125933549E+03 0.  0.
         24    2    3    3    0    0  0.47736260351E+02 -0.42554409569E+02 -0.41077126995E+03  0.42346638768E+03  0.80629504226E+02 0.  0.
         -6    2    1    2    0  503 -0.85533759238E+02 -0.15489660431E+02 -0.46605098129E+03  0.50379267259E+03  0.17043352442E+03 0.  0.
        -24    2    5    5    0    0 -0.26679028886E+02  0.14876042270E+01 -0.41334204555E+03  0.42284559910E+03  0.85045696587E+02 0.  0.
          2    1    4    4  501    0 -0.21086924315E+02 -0.23102026334E+02 -0.13429974261E+03  0.13789410017E+03  0.00000000000E+00 0. -1.
         -1    1    4    4    0  501  0.68823184666E+02 -0.19452383235E+02 -0.27647152734E+03  0.28557228750E+03  0.00000000000E+00 0.  1.
          5    1    3    3  502    0  0.37797498887E+02  0.58044069999E+02 -0.73696434989E+03  0.74022720026E+03  0.47000000000E+01 0. -1.
         13    1    6    6    0    0  0.31067414771E+02  0.40851168280E+01 -0.14742157265E+03  0.15071493795E+03  0.00000000000E+00 0. -1.
        -14    1    6    6    0    0 -0.57746443657E+02 -0.25975126010E+01 -0.26592047291E+03  0.27213066115E+03  0.00000000000E+00 0.  1.
         -5    1    5    5    0  503 -0.58854730352E+02 -0.16977264658E+02 -0.52708935733E+02  0.80947073487E+02  0.47000000000E+01 0.  1.
<mgrwt>
<rscale>  2 0.19187227E+03</rscale>
<asrwt>0</asrwt>
<pdfrwt beam="1">  1       21 0.41307417E-02 0.19205654E+03</pdfrwt>
<pdfrwt beam="2">  1       21 0.25240569E+00 0.19205654E+03</pdfrwt>
<totfact> 0.23908665E+04</totfact>
</mgrwt>
</event>
<event>
12    1  0.1441827E-001  0.2306844E+03  0.7546771E-02  0.1126222E+00
         21   -1    0    0  504  503  0.00000000000E+00  0.00000000000E+00  0.51846502610E+02  0.51846502610E+02  0.00000000000E+00 0. -1.
         21   -1    0    0  502  504 -0.00000000000E+00 -0.00000000000E+00 -0.19475361484E+04  0.19475361484E+04  0.00000000000E+00 0. -1.
          6    2    1    2  502    0  0.67774359033E+02  0.13610816934E+03 -0.16355718341E+04  0.16517095990E+04  0.17300455884E+03 0.  0.
         24    2    3    3    0    0  0.90450844534E+02  0.58506437380E+02 -0.12820678240E+04  0.12890480116E+04  0.79639892167E+02 0.  0.
         -6    2    1    2    0  503 -0.67774359033E+02 -0.13610816934E+03 -0.26011781165E+03  0.34767305198E+03  0.17348336414E+03 0.  0.
        -24    2    5    5    0    0 -0.25805653814E+02 -0.83033708070E+02 -0.54641128170E+02  0.13129137968E+03  0.81800030837E+02 0.  0.
          4    1    4    4  501    0  0.99435975247E+02  0.67410133501E+02 -0.10997422574E+04  0.11062841732E+04  0.00000000000E+00 0. -1.
         -3    1    4    4    0  501 -0.89851307123E+01 -0.89036961210E+01 -0.18232556656E+03  0.18276383833E+03  0.00000000000E+00 0.  1.
          5    1    3    3  502    0 -0.22676485501E+02  0.77601731957E+02 -0.35350401016E+03  0.36266158743E+03  0.47000000000E+01 0. -1.
         11    1    6    6    0    0 -0.49749838824E+02 -0.80823591389E+02 -0.39015277525E+02  0.10261428394E+03  0.00000000000E+00 0. -1.
        -12    1    6    6    0    0  0.23944185010E+02 -0.22101166811E+01 -0.15625850645E+02  0.28677095737E+02  0.00000000000E+00 0.  1.
         -5    1    5    5    0  503 -0.41968705219E+02 -0.53074461267E+02 -0.20547668348E+03  0.21638167230E+03  0.47000000000E+01 0.  1.
<mgrwt>
<rscale>  2 0.23059434E+03</rscale>
<asrwt>0</asrwt>
<pdfrwt beam="1">  1       21 0.79763858E-02 0.23068436E+03</pdfrwt>
<pdfrwt beam="2">  1       21 0.29962092E+00 0.23068436E+03</pdfrwt>
<totfact> 0.39688592E+03</totfact>
</mgrwt>
</event>
<event>
12    1  0.1441827E-001  0.1847431E+03  0.7546771E-02  0.1163379E+00
         21   -1    0    0  504  503  0.00000000000E+00  0.00000000000E+00  0.14435203109E+03  0.14435203109E+03  0.00000000000E+00 0.  1.
         21   -1    0    0  502  504 -0.00000000000E+00 -0.00000000000E+00 -0.54124655815E+03  0.54124655815E+03  0.00000000000E+00 0. -1.
          6    2    1    2  502    0  0.56006781646E+02 -0.29935850304E+02 -0.45581494145E+03  0.49168718897E+03  0.17307835285E+03 0.  0.
         24    2    3    3    0    0 -0.98417744856E+01  0.30530776804E+01 -0.10478849606E+03  0.13298681669E+03  0.81232276207E+02 0.  0.
         -6    2    1    2    0  503 -0.56006781646E+02  0.29935850304E+02  0.58920414397E+02  0.19391140026E+03  0.17348516131E+03 0.  0.
        -24    2    5    5    0    0 -0.79073687427E+02 -0.13003384344E+02 -0.48986180508E+01  0.11346999975E+03  0.80185462126E+02 0.  0.
          2    1    4    4  501    0 -0.15402577234E+02  0.40783564577E+02 -0.51865624318E+02  0.67753830231E+02  0.00000000000E+00 0. -1.
         -1    1    4    4    0  501  0.55608027488E+01 -0.37730486896E+02 -0.52922871746E+02  0.65232986460E+02  0.00000000000E+00 0.  1.
          5    1    3    3  502    0  0.65848556132E+02 -0.32988927985E+02 -0.35102644539E+03  0.35870037228E+03  0.47000000000E+01 0. -1.
         11    1    6    6    0    0 -0.51920259204E+02 -0.29209520424E+02  0.29726974139E+02  0.66577792023E+02  0.00000000000E+00 0. -1.
        -12    1    6    6    0    0 -0.27153428223E+02  0.16206136079E+02 -0.34625592189E+02  0.46892207725E+02  0.00000000000E+00 0.  1.
         -5    1    5    5    0  503  0.23066905781E+02  0.42939234648E+02  0.63819032448E+02  0.80441400516E+02  0.47000000000E+01 0.  1.
<mgrwt>
<rscale>  2 0.18464754E+03</rscale>
<asrwt>0</asrwt>
<pdfrwt beam="1">  1       21 0.22208005E-01 0.18474311E+03</pdfrwt>
<pdfrwt beam="2">  1       21 0.83268701E-01 0.18474311E+03</pdfrwt>
<totfact> 0.23925588E+04</totfact>
</mgrwt>
</event>
<event>
12    1  0.1441827E-001  0.1819088E+03  0.7546771E-02  0.1167478E+00
         21   -1    0    0  504  503  0.00000000000E+00  0.00000000000E+00  0.78403739040E+03  0.78403739040E+03  0.00000000000E+00 0. -1.
         21   -1    0    0  502  504 -0.00000000000E+00 -0.00000000000E+00 -0.54814125887E+02  0.54814125887E+02  0.00000000000E+00 0. -1.
          6    2    1    2  502    0 -0.10152445789E+02 -0.53750227654E+02  0.15709927678E+03  0.24035599993E+03  0.17348966773E+03 0.  0.
         24    2    3    3    0    0  0.12248647311E+02  0.29191422799E+02  0.11730446150E+03  0.14555703540E+03  0.80152013957E+02 0.  0.
         -6    2    1    2    0  503  0.10152445789E+02  0.53750227654E+02  0.57212398773E+03  0.59849551636E+03  0.16696965783E+03 0.  0.
        -24    2    5    5    0    0  0.62815701531E+00  0.11571884721E+02  0.12145384836E+03  0.14573135124E+03  0.79701231840E+02 0.  0.
          2    1    4    4  501    0  0.44549591887E+00  0.56272678860E+02  0.70442845098E+02  0.90161007527E+02  0.00000000000E+00 0. -1.
         -1    1    4    4    0  501  0.11803151392E+02 -0.27081256061E+02  0.46861616403E+02  0.55396027877E+02  0.00000000000E+00 0.  1.
          5    1    3    3  502    0 -0.22401093100E+02 -0.82941650454E+02  0.39794815282E+02  0.94798964527E+02  0.47000000000E+01 0. -1.
         13    1    6    6    0    0  0.19781083986E+02 -0.29174151461E+02  0.59279976916E+02  0.68967659525E+02  0.00000000000E+00 0. -1.
        -14    1    6    6    0    0 -0.19152926971E+02  0.40746036182E+02  0.62173871439E+02  0.76763691715E+02  0.00000000000E+00 0.  1.
         -5    1    5    5    0  503  0.95242887741E+01  0.42178342934E+02  0.45067013938E+03  0.45276416512E+03  0.47000000000E+01 0.  1.
<mgrwt>
<rscale>  2 0.18033674E+03</rscale>
<asrwt>0</asrwt>
<pdfrwt beam="1">  1       21 0.12062113E+00 0.18190883E+03</pdfrwt>
<pdfrwt beam="2">  1       21 0.84329430E-02 0.18190883E+03</pdfrwt>
<totfact> 0.57381523E+04</totfact>
</mgrwt>
</event>
<event>
12    1  0.1441827E-001  0.1810022E+03  0.7546771E-02  0.1166838E+00
         21   -1    0    0  504  503  0.00000000000E+00  0.00000000000E+00  0.84020875273E+03  0.84020875273E+03  0.00000000000E+00 0.  1.
         21   -1    0    0  502  504 -0.00000000000E+00 -0.00000000000E+00 -0.64549381546E+02  0.64549381546E+02  0.00000000000E+00 0.  1.
          6    2    1    2  502    0 -0.47775385080E+02 -0.21000950895E+02  0.10316929024E+03  0.20833534198E+03  0.17330950612E+03 0.  0.
         24    2    3    3    0    0 -0.35680187376E+02  0.48063443747E+02  0.93885739593E+02  0.13745192553E+03  0.80593606062E+02 0.  0.
         -6    2    1    2    0  503  0.47775385080E+02  0.21000950895E+02  0.67249008094E+03  0.69642279229E+03  0.17331551952E+03 0.  0.
        -24    2    5    5    0    0 -0.13048466420E+02  0.54873004804E+02  0.51391983323E+03  0.52317883019E+03  0.80132292099E+02 0.  0.
          2    1    4    4  501    0 -0.10213502819E+02  0.49655479280E+02  0.99186319595E+02  0.11139079072E+03  0.00000000000E+00 0. -1.
         -1    1    4    4    0  501 -0.25466684557E+02 -0.15920355329E+01 -0.53005800021E+01  0.26061134814E+02  0.00000000000E+00 0.  1.
          5    1    3    3  502    0 -0.12095197704E+02 -0.69064394642E+02  0.92835506503E+01  0.70883416449E+02  0.47000000000E+01 0. -1.
         13    1    6    6    0    0 -0.42123667164E+02  0.15769060804E+02  0.32401020502E+03  0.32711722604E+03  0.00000000000E+00 0. -1.
        -14    1    6    6    0    0  0.29075200744E+02  0.39103944000E+02  0.18990962821E+03  0.19606160415E+03  0.00000000000E+00 0.  1.
         -5    1    5    5    0  503  0.60823851501E+02 -0.33872053908E+02  0.15857024771E+03  0.17324396211E+03  0.47000000000E+01 0.  1.
<mgrwt>
<rscale>  2 0.18100076E+03</rscale>
<asrwt>0</asrwt>
<pdfrwt beam="1">  1       21 0.12926288E+00 0.18100220E+03</pdfrwt>
<pdfrwt beam="2">  1       21 0.99306747E-02 0.18100220E+03</pdfrwt>
<totfact> 0.36262142E+04</totfact>
</mgrwt>
</event>
<event>
12    1  0.1441827E-001  0.2287836E+03  0.7546771E-02  0.1127618E+00
         21   -1    0    0  504  503  0.00000000000E+00  0.00000000000E+00  0.28426496059E+03  0.28426496059E+03  0.00000000000E+00 0.  1.
         21   -1    0    0  502  504 -0.00000000000E+00 -0.00000000000E+00 -0.28333418426E+03  0.28333418426E+03  0.00000000000E+00 0.  1.
          6    2    1    2  502    0 -0.37530213453E+02  0.14530470151E+03 -0.16791945388E+03  0.28379372468E+03  0.17268457364E+03 0.  0.
         24    2    3    3    0    0 -0.19285334365E+02  0.16932352516E+03 -0.10990097036E+03  0.21823448481E+03  0.80657837665E+02 0.  0.
         -6    2    1    2    0  503  0.37530213453E+02 -0.14530470151E+03  0.16885023021E+03  0.28380542017E+03  0.17179389708E+03 0.  0.
        -24    2    5    5    0    0  0.86194648405E+02 -0.67181170504E+02  0.94337341386E+02  0.16529055221E+03  0.80489785609E+02 0.  0.
          2    1    4    4  501    0  0.27798320645E+02  0.74116604303E+02 -0.27477043999E+02  0.83791441156E+02  0.00000000000E+00 0. -1.
         -1    1    4    4    0  501 -0.47083655010E+02  0.95206920858E+02 -0.82423926364E+02  0.13444304365E+03  0.00000000000E+00 0.  1.
          5    1    3    3  502    0 -0.18244879088E+02 -0.24018823656E+02 -0.58018483521E+02  0.65559239873E+02  0.47000000000E+01 0. -1.
         13    1    6    6    0    0 -0.14161632617E+02 -0.17951355280E+02  0.86527546538E+01  0.24447354824E+02  0.00000000000E+00 0. -1.
        -14    1    6    6    0    0  0.10035628102E+03 -0.49229815224E+02  0.85684586733E+02  0.14084319739E+03  0.00000000000E+00 0.  1.
         -5    1    5    5    0  503 -0.48664434952E+02 -0.78123531002E+02  0.74512888828E+02  0.11851486796E+03  0.47000000000E+01 0.  1.
<mgrwt>
<rscale>  2 0.22861553E+03</rscale>
<asrwt>0</asrwt>
<pdfrwt beam="1">  1       21 0.43733071E-01 0.22878360E+03</pdfrwt>
<pdfrwt beam="2">  1       21 0.43589875E-01 0.22878360E+03</pdfrwt>
<totfact> 0.24917227E+04</totfact>
</mgrwt>
</event>
<event>
12    1  0.1441827E-001  0.2035901E+03  0.7546771E-02  0.1146841E+00
         21   -1    0    0  504  503  0.00000000000E+00  0.00000000000E+00  0.32119015106E+03  0.32119015106E+03  0.00000000000E+00 0. -1.
         21   -1    0    0  502  504 -0.00000000000E+00 -0.00000000000E+00 -0.15201931249E+03  0.15201931249E+03  0.00000000000E+00 0.  1.
          6    2    1    2  502    0  0.62592648122E+02  0.87811376893E+02 -0.78967324925E+01  0.20374316233E+03  0.17268537952E+03 0.  0.
         24    2    3    3    0    0  0.38255533535E+01 -0.88609066497E+01 -0.44450168618E+01  0.90459861822E+02  0.89833612311E+02 0.  0.
         -6    2    1    2    0  503 -0.62592648122E+02 -0.87811376893E+02  0.17706757107E+03  0.26946630122E+03  0.17213507852E+03 0.  0.
        -24    2    5    5    0    0 -0.71724592808E+02 -0.53719146350E+01  0.51619101886E+02  0.11900346271E+03  0.79523693184E+02 0.  0.
          2    1    4    4  501    0  0.91837878151E+01 -0.47231093692E+02  0.99423770656E+01  0.49132158834E+02  0.00000000000E+00 0. -1.
         -1    1    4    4    0  501 -0.53582344616E+01  0.38370187043E+02 -0.14387393927E+02  0.41327702988E+02  0.00000000000E+00 0.  1.
          5    1    3    3  502    0  0.58767094769E+02  0.96672283543E+02 -0.34517156307E+01  0.11328330051E+03  0.47000000000E+01 0. -1.
         11    1    6    6    0    0 -0.84432577482E+02 -0.12386730120E+01  0.23155413093E+02  0.87558937903E+02  0.00000000000E+00 0. -1.
        -12    1    6    6    0    0  0.12707984674E+02 -0.41332416230E+01  0.28463688793E+02  0.31444524810E+02  0.00000000000E+00 0.  1.
         -5    1    5    5    0  503  0.91319446860E+01 -0.82439462258E+02  0.12544846918E+03  0.15046283851E+03  0.47000000000E+01 0.  1.
<mgrwt>
<rscale>  2 0.20347333E+03</rscale>
<asrwt>0</asrwt>
<pdfrwt beam="1">  1       21 0.49413869E-01 0.20359007E+03</pdfrwt>
<pdfrwt beam="2">  1       21 0.23387587E-01 0.20359007E+03</pdfrwt>
<totfact> 0.66818643E+04</totfact>
</mgrwt>
</event>
<event>
12    1  0.1441827E-001  0.1846677E+03  0.7546771E-02  0.1164480E+00
         21   -1    0    0  504  503  0.00000000000E+00  0.00000000000E+00  0.20793841142E+04  0.20793841142E+04  0.00000000000E+00 0. -1.
         21   -1    0    0  502  504 -0.00000000000E+00 -0.00000000000E+00 -0.19862190889E+02  0.19862190889E+02  0.00000000000E+00 0. -1.
          6    2    1    2  502    0  0.25840920383E+02 -0.42446103343E+02  0.55524473344E+03  0.58367643876E+03  0.17295099391E+03 0.  0.
         24    2    3    3    0    0  0.29829976549E+02  0.37991083417E+02  0.36922685612E+03  0.38091846909E+03  0.80232530134E+02 0.  0.
         -6    2    1    2    0  503 -0.25840920383E+02  0.42446103343E+02  0.15042771899E+04  0.15155698664E+04  0.17785592738E+03 0.  0.
        -24    2    5    5    0    0 -0.68068843812E+02  0.28317571036E+02  0.62300595637E+03  0.63316185983E+03  0.85570244475E+02 0.  0.
          4    1    4    4  501    0  0.13184006105E+02  0.43605564847E+02  0.87536035431E+02  0.98680397251E+02  0.00000000000E+00 0. -1.
         -3    1    4    4    0  501  0.16645970444E+02 -0.56144814300E+01  0.28169082069E+03  0.28223807184E+03  0.00000000000E+00 0.  1.
          5    1    3    3  502    0 -0.39890561654E+01 -0.80437186760E+02  0.18601787732E+03  0.20275796967E+03  0.47000000000E+01 0. -1.
         11    1    6    6    0    0  0.17408503047E+02  0.17216259176E+02  0.91835701756E+02  0.95043419947E+02  0.00000000000E+00 0. -1.
        -12    1    6    6    0    0 -0.85477346859E+02  0.11101311860E+02  0.53117025462E+03  0.53811843988E+03  0.00000000000E+00 0.  1.
         -5    1    5    5    0  503  0.42227923429E+02  0.14128532307E+02  0.88127123354E+03  0.88240800654E+03  0.47000000000E+01 0.  1.
<mgrwt>
<rscale>  2 0.18347642E+03</rscale>
<asrwt>0</asrwt>
<pdfrwt beam="1">  1       21 0.31990508E+00 0.18466769E+03</pdfrwt>
<pdfrwt beam="2">  1       21 0.30557233E-02 0.18466769E+03</pdfrwt>
<totfact> 0.16225361E+04</totfact>
</mgrwt>
</event>
<event>
12    1  0.1441827E-001  0.1891483E+03  0.7546771E-02  0.1159740E+00
         21   -1    0    0  504  503  0.00000000000E+00  0.00000000000E+00  0.11833993155E+03  0.11833993155E+03  0.00000000000E+00 0.  1.
         21   -1    0    0  502  504 -0.00000000000E+00 -0.00000000000E+00 -0.30701022415E+03  0.30701022415E+03  0.00000000000E+00 0.  1.
          6    2    1    2  502    0  0.63795674088E+02  0.40247911895E+02 -0.60056067545E+02  0.19845358579E+03  0.17345694572E+03 0.  0.
         24    2    3    3    0    0  0.10029004264E+03 -0.27610029331E+01 -0.55192145155E+02  0.14164378530E+03  0.83373096600E+02 0.  0.
         -6    2    1    2    0  503 -0.63795674088E+02 -0.40247911895E+02 -0.12861422505E+03  0.22689656991E+03  0.17102822021E+03 0.  0.
        -24    2    5    5    0    0 -0.95278785624E+02 -0.69388617667E+02 -0.93866849770E+02  0.17149045893E+03  0.81885070473E+02 0.  0.
          4    1    4    4  501    0  0.49151955502E+02  0.33446239927E+02 -0.51867294435E+02  0.78897287196E+02  0.00000000000E+00 0. -1.
         -3    1    4    4    0  501  0.51138087140E+02 -0.36207242860E+02 -0.33248507197E+01  0.62746498102E+02  0.00000000000E+00 0.  1.
          5    1    3    3  502    0 -0.36494368554E+02  0.43008914828E+02 -0.48639223896E+01  0.56809800491E+02  0.47000000000E+01 0. -1.
         11    1    6    6    0    0 -0.22588783542E+02 -0.10460416038E+02  0.14105208962E+02  0.28611717275E+02  0.00000000000E+00 0. -1.
        -12    1    6    6    0    0 -0.72690002082E+02 -0.58928201630E+02 -0.10797205873E+03  0.14287874165E+03  0.00000000000E+00 0.  1.
         -5    1    5    5    0  503  0.31483111536E+02  0.29140705772E+02 -0.34747375283E+02  0.55406110980E+02  0.47000000000E+01 0.  1.
<mgrwt>
<rscale>  2 0.18858969E+03</rscale>
<asrwt>0</asrwt>
<pdfrwt beam="1">  1       21 0.18206144E-01 0.18914834E+03</pdfrwt>
<pdfrwt beam="2">  1       21 0.47232342E-01 0.18914834E+03</pdfrwt>
<totfact> 0.11804721E+05</totfact>
</mgrwt>
</event>
<event>
12    1  0.1441827E-001  0.1779724E+03  0.7546771E-02  0.1169933E+00
         21   -1    0    0  504  503  0.00000000000E+00  0.00000000000E+00  0.58676030689E+03  0.58676030689E+03  0.00000000000E+00 0.  1.
         21   -1    0    0  502  504 -0.00000000000E+00 -0.00000000000E+00 -0.21114439197E+03  0.21114439197E+03  0.00000000000E+00 0.  1.
          6    2    1    2  502    0 -0.31674008149E+02  0.32026773620E+02 -0.15667839197E+03  0.23664591691E+03  0.17153487826E+03 0.  0.
         24    2    3    3    0    0  0.82485710258E+01  0.67269432371E+02 -0.49995231921E+02  0.11731761364E+03  0.81674254198E+02 0.  0.
         -6    2    1    2    0  503  0.31674008149E+02 -0.32026773620E+02  0.53229430690E+03  0.56125878195E+03  0.17217791422E+03 0.  0.
        -24    2    5    5    0    0  0.71158370011E+02 -0.34544959456E+02  0.49054294150E+03  0.50354723541E+03  0.81673575847E+02 0.  0.
          2    1    4    4  501    0  0.18026446769E+02  0.23379880458E+02  0.18894934042E+02  0.35051249989E+02  0.00000000000E+00 0. -1.
         -1    1    4    4    0  501 -0.97778757433E+01  0.43889551913E+02 -0.68890165963E+02  0.82266363646E+02  0.00000000000E+00 0.  1.
          5    1    3    3  502    0 -0.39922579175E+02 -0.35242658752E+02 -0.10668316005E+03  0.11932830328E+03  0.47000000000E+01 0. -1.
         13    1    6    6    0    0  0.15688712858E+02  0.16305103729E+02  0.26111878362E+03  0.26209733169E+03  0.00000000000E+00 0. -1.
        -14    1    6    6    0    0  0.55469657153E+02 -0.50850063185E+02  0.22942415788E+03  0.24144990373E+03  0.00000000000E+00 0.  1.
         -5    1    5    5    0  503 -0.39484361862E+02  0.25181858360E+01  0.41751365397E+02  0.57711546540E+02  0.47000000000E+01 0.  1.
<mgrwt>
<rscale>  2 0.17781673E+03</rscale>
<asrwt>0</asrwt>
<pdfrwt beam="1">  1       21 0.90270816E-01 0.17797244E+03</pdfrwt>
<pdfrwt beam="2">  1       21 0.32483753E-01 0.17797244E+03</pdfrwt>
<totfact> 0.96144370E+03</totfact>
</mgrwt>
</event>
<event>
12    1  0.1441827E-001  0.2365589E+03  0.7546771E-02  0.1122146E+00
         21   -1    0    0  504  503  0.00000000000E+00  0.00000000000E+00  0.81176722815E+03  0.81176722815E+03  0.00000000000E+00 0. -1.
         21   -1    0    0  502  504 -0.00000000000E+00 -0.00000000000E+00 -0.82571562902E+02  0.82571562902E+02  0.00000000000E+00 0.  1.
          6    2    1    2  502    0 -0.12365744096E+03 -0.10394088118E+03  0.54661590733E+03  0.59551530130E+03  0.17249537514E+03 0.  0.
         24    2    3    3    0    0 -0.21873980473E+01 -0.77471825577E+02  0.26906612766E+03  0.29135818331E+03  0.80537826248E+02 0.  0.
         -6    2    1    2    0  503  0.12365744096E+03  0.10394088118E+03  0.18257975791E+03  0.29882348975E+03  0.17281562587E+03 0.  0.
        -24    2    5    5    0    0  0.12532576874E+03  0.39737235345E+02  0.17782050106E+03  0.23425080217E+03  0.77250964618E+02 0.  0.
          4    1    4    4  501    0 -0.24563210337E+02 -0.78841757289E+02  0.16046180616E+03  0.18046430459E+03  0.00000000000E+00 0. -1.
         -3    1    4    4    0  501  0.22375812290E+02  0.13699317122E+01  0.10860432150E+03  0.11089387871E+03  0.00000000000E+00 0.  1.
          5    1    3    3  502    0 -0.12147004291E+03 -0.26469055602E+02  0.27754977967E+03  0.30415711799E+03  0.47000000000E+01 0. -1.
         11    1    6    6    0    0  0.58843899580E+02 -0.11098099675E+02  0.11482470099E+03  0.12950090460E+03  0.00000000000E+00 0. -1.
        -12    1    6    6    0    0  0.66481869162E+02  0.50835335020E+02  0.62995800067E+02  0.10474989756E+03  0.00000000000E+00 0.  1.
         -5    1    5    5    0  503 -0.16683277858E+01  0.64203645835E+02  0.47592568507E+01  0.64572687584E+02  0.47000000000E+01 0.  1.
<mgrwt>
<rscale>  2 0.23650041E+03</rscale>
<asrwt>0</asrwt>
<pdfrwt beam="1">  1       21 0.12488726E+00 0.23655889E+03</pdfrwt>
<pdfrwt beam="2">  1       21 0.12703318E-01 0.23655889E+03</pdfrwt>
<totfact> 0.24696567E+04</totfact>
</mgrwt>
</event>
<event>
12    1  0.1441827E-001  0.1916964E+03  0.7546771E-02  0.1158347E+00
         21   -1    0    0  504  503  0.00000000000E+00  0.00000000000E+00  0.47891768595E+03  0.47891768595E+03  0.00000000000E+00 0. -1.
         21   -1    0    0  502  504 -0.00000000000E+00 -0.00000000000E+00 -0.14800025470E+03  0.14800025470E+03  0.00000000000E+00 0.  1.
          6    2    1    2  502    0 -0.43898128666E+02  0.68979141655E+02 -0.57139276016E+02  0.19409522503E+03  0.16650192742E+03 0.  0.
         24    2    3    3    0    0  0.32030623982E+02  0.55833526356E+01 -0.27852824959E+02  0.90828639153E+02  0.80105724720E+02 0.  0.
         -6    2    1    2    0  503  0.43898128666E+02 -0.68979141655E+02  0.38805670726E+03  0.43282271561E+03  0.17338491117E+03 0.  0.
        -24    2    5    5    0    0  0.66181828484E+02 -0.10318069384E+03  0.26751511442E+03  0.30547015360E+03  0.81984073385E+02 0.  0.
          4    1    4    4  501    0  0.41125445599E+02 -0.19904029752E+02  0.75073239925E+01  0.46301539819E+02  0.00000000000E+00 0. -1.
         -3    1    4    4    0  501 -0.90948216172E+01  0.25487382388E+02 -0.35360148952E+02  0.44527099334E+02  0.00000000000E+00 0.  1.
          5    1    3    3  502    0 -0.75928752648E+02  0.63395789019E+02 -0.29286451057E+02  0.10326658588E+03  0.47000000000E+01 0. -1.
         11    1    6    6    0    0  0.72386320665E+01 -0.80332926441E+01  0.11906046901E+03  0.11955052014E+03  0.00000000000E+00 0. -1.
        -12    1    6    6    0    0  0.58943196417E+02 -0.95147401200E+02  0.14845464541E+03  0.18591963345E+03  0.00000000000E+00 0.  1.
         -5    1    5    5    0  503 -0.22283699817E+02  0.34201552190E+02  0.12054159283E+03  0.12735256202E+03  0.47000000000E+01 0.  1.
<mgrwt>
<rscale>  2 0.19012662E+03</rscale>
<asrwt>0</asrwt>
<pdfrwt beam="1">  1       21 0.73679643E-01 0.19169636E+03</pdfrwt>
<pdfrwt beam="2">  1       21 0.22769270E-01 0.19169636E+03</pdfrwt>
<totfact> 0.29940743E+04</totfact>
</mgrwt>
</event>
<event>
12    1  0.1441827E-001  0.2014008E+03  0.7546771E-02  0.1149839E+00
         21   -1    0    0  504  503  0.00000000000E+00  0.00000000000E+00  0.27265829835E+03  0.27265829835E+03  0.00000000000E+00 0.  1.
         21   -1    0    0  502  504 -0.00000000000E+00 -0.00000000000E+00 -0.52020523084E+03  0.52020523084E+03  0.00000000000E+00 0.  1.
          6    2    1    2  502    0  0.88577499527E+02 -0.82633874398E+01 -0.46020785528E+03  0.49996943915E+03  0.17396526387E+03 0.  0.
         24    2    3    3    0    0  0.81112494102E+01 -0.88455480827E+01 -0.91922917893E+02  0.12296673171E+03  0.80789592056E+02 0.  0.
         -6    2    1    2    0  503 -0.88577499527E+02  0.82633874398E+01  0.21266092279E+03  0.29289409004E+03  0.18068763904E+03 0.  0.
        -24    2    5    5    0    0 -0.50838728554E+02 -0.44471947191E+02  0.45630819969E+02  0.11365576935E+03  0.79203104538E+02 0.  0.
          4    1    4    4  501    0 -0.12212084270E+01  0.23380571588E+02  0.17392311673E+01  0.23476954719E+02  0.00000000000E+00 0. -1.
         -3    1    4    4    0  501  0.93324578372E+01 -0.32226119671E+02 -0.93662149060E+02  0.99489776987E+02  0.00000000000E+00 0.  1.
          5    1    3    3  502    0  0.80466250116E+02  0.58216064298E+00 -0.36828493738E+03  0.37700270745E+03  0.47000000000E+01 0. -1.
         13    1    6    6    0    0 -0.69466789843E+02 -0.25217685318E+02  0.45650913937E+02  0.86865254775E+02  0.00000000000E+00 0. -1.
        -14    1    6    6    0    0  0.18628061289E+02 -0.19254261873E+02 -0.20093967465E-01  0.26790514579E+02  0.00000000000E+00 0.  1.
         -5    1    5    5    0  503 -0.37738770972E+02  0.52735334631E+02  0.16703010282E+03  0.17923832069E+03  0.47000000000E+01 0.  1.
<mgrwt>
<rscale>  2 0.19988158E+03</rscale>
<asrwt>0</asrwt>
<pdfrwt beam="1">  1       21 0.41947430E-01 0.20140079E+03</pdfrwt>
<pdfrwt beam="2">  1       21 0.80031574E-01 0.20140079E+03</pdfrwt>
<totfact> 0.74687561E+03</totfact>
</mgrwt>
</event>
<event>
12    1  0.1441827E-001  0.2075867E+03  0.7546771E-02  0.1143519E+00
         21   -1    0    0  504  503  0.00000000000E+00  0.00000000000E+00  0.40203737891E+02  0.40203737891E+02  0.00000000000E+00 0.  1.
         21   -1    0    0  502  504 -0.00000000000E+00 -0.00000000000E+00 -0.14073453541E+04  0.14073453541E+04  0.00000000000E+00 0. -1.
          6    2    1    2  502    0  0.11308455753E+03  0.23814040771E+02 -0.10371547322E+04  0.10576983915E+04  0.17228094238E+03 0.  0.
         24    2    3    3    0    0  0.14175177446E+03  0.42465957802E+02 -0.93636908810E+03  0.95116417447E+03  0.77648531922E+02 0.  0.
         -6    2    1    2    0  503 -0.11308455753E+03 -0.23814040771E+02 -0.32998688402E+03  0.38985070053E+03  0.17244419210E+03 0.  0.
        -24    2    5    5    0    0 -0.10533569905E+03  0.41568352968E+02 -0.18709929309E+03  0.23245357267E+03  0.78771698642E+02 0.  0.
          4    1    4    4  501    0  0.80394091836E+02  0.62190131951E+02 -0.62290961065E+03  0.63114753074E+03  0.00000000000E+00 0. -1.
         -3    1    4    4    0  501  0.61357682626E+02 -0.19724174148E+02 -0.31345947745E+03  0.32001664373E+03  0.00000000000E+00 0.  1.
          5    1    3    3  502    0 -0.28667216935E+02 -0.18651917031E+02 -0.10078564413E+03  0.10653421703E+03  0.47000000000E+01 0. -1.
         13    1    6    6    0    0 -0.84108193240E+02  0.17855328496E+01 -0.15736420440E+03  0.17844009954E+03  0.00000000000E+00 0. -1.
        -14    1    6    6    0    0 -0.21227505811E+02  0.39782820119E+02 -0.29735088691E+02  0.54013473125E+02  0.00000000000E+00 0.  1.
         -5    1    5    5    0  503 -0.77488584754E+01 -0.65382393740E+02 -0.14288759093E+03  0.15739712786E+03  0.47000000000E+01 0.  1.
<mgrwt>
<rscale>  2 0.20755276E+03</rscale>
<asrwt>0</asrwt>
<pdfrwt beam="1">  1       21 0.61851904E-02 0.20758667E+03</pdfrwt>
<pdfrwt beam="2">  1       21 0.21651467E+00 0.20758667E+03</pdfrwt>
<totfact> 0.19552452E+04</totfact>
</mgrwt>
</event>
<event>
12    1  0.1441827E-001  0.2043824E+03  0.7546771E-02  0.1146151E+00
         21   -1    0    0  504  503  0.00000000000E+00  0.00000000000E+00  0.42087918546E+03  0.42087918546E+03  0.00000000000E+00 0.  1.
         21   -1    0    0  502  504 -0.00000000000E+00 -0.00000000000E+00 -0.17286610658E+03  0.17286610658E+03  0.00000000000E+00 0.  1.
          6    2    1    2  502    0 -0.10686839983E+03  0.12743821555E+02 -0.69953440673E+02  0.21575734652E+03  0.17341997821E+03 0.  0.
         24    2    3    3    0    0 -0.11139682920E+03  0.98512375773E+01 -0.10942774134E+03  0.17564270919E+03  0.79809963537E+02 0.  0.
         -6    2    1    2    0  503  0.10686839983E+03 -0.12743821555E+02  0.31796651955E+03  0.37798794553E+03  0.17374958860E+03 0.  0.
        -24    2    5    5    0    0  0.12579576858E+03 -0.56314657387E+02  0.25565014296E+03  0.29948900404E+03  0.73080448252E+02 0.  0.
          2    1    4    4  501    0 -0.76479724027E+02  0.41222514577E+02 -0.51181736984E+02  0.10083657122E+03  0.00000000000E+00 0. -1.
         -1    1    4    4    0  501 -0.34917105170E+02 -0.31371276999E+02 -0.58246004357E+02  0.74806137967E+02  0.00000000000E+00 0.  1.
          5    1    3    3  502    0  0.45284293650E+01  0.28925839779E+01  0.39474300668E+02  0.40114637326E+02  0.47000000000E+01 0. -1.
         13    1    6    6    0    0  0.24162000431E+02 -0.42183847179E+02  0.11943549922E+03  0.12895005895E+03  0.00000000000E+00 0. -1.
        -14    1    6    6    0    0  0.10163376815E+03 -0.14130810209E+02  0.13621464374E+03  0.17053894510E+03  0.00000000000E+00 0.  1.
         -5    1    5    5    0  503 -0.18927368752E+02  0.43570835832E+02  0.62316376596E+02  0.78498941490E+02  0.47000000000E+01 0.  1.
<mgrwt>
<rscale>  2 0.20431236E+03</rscale>
<asrwt>0</asrwt>
<pdfrwt beam="1">  1       21 0.64750644E-01 0.20438243E+03</pdfrwt>
<pdfrwt beam="2">  1       21 0.26594786E-01 0.20438243E+03</pdfrwt>
<totfact> 0.29378920E+04</totfact>
</mgrwt>
</event>
<event>
12    1  0.1441827E-001  0.2661370E+03  0.7546771E-02  0.1103687E+00
         21   -1    0    0  504  503  0.00000000000E+00  0.00000000000E+00  0.21567437157E+03  0.21567437157E+03  0.00000000000E+00 0.  1.
         21   -1    0    0  502  504 -0.00000000000E+00 -0.00000000000E+00 -0.39269137913E+03  0.39269137913E+03  0.00000000000E+00 0. -1.
          6    2    1    2  502    0 -0.17034843086E+03  0.10813655243E+03 -0.21282559281E+03  0.33983058905E+03  0.17169156773E+03 0.  0.
         24    2    3    3    0    0 -0.58682613508E+02  0.73064362268E+02 -0.24265329281E+02  0.11784776028E+03  0.67210402732E+02 0.  0.
         -6    2    1    2    0  503  0.17034843086E+03 -0.10813655243E+03  0.35808585243E+02  0.26853516165E+03  0.17354185777E+03 0.  0.
        -24    2    5    5    0    0  0.39475544092E+02  0.80652704164E+01 -0.17233041457E+01  0.89478442023E+02  0.79875244234E+02 0.  0.
          2    1    4    4  501    0 -0.10852680159E+02  0.52514040565E+01  0.20333133714E+02  0.23638829028E+02  0.00000000000E+00 0. -1.
         -1    1    4    4    0  501 -0.47829933349E+02  0.67812958211E+02 -0.44598462995E+02  0.94208931249E+02  0.00000000000E+00 0.  1.
          5    1    3    3  502    0 -0.11166581735E+03  0.35072190164E+02 -0.18856026353E+03  0.22198282877E+03  0.47000000000E+01 0. -1.
         13    1    6    6    0    0  0.38425593145E+02 -0.30849537474E+02 -0.83799874288E+01  0.49984441181E+02  0.00000000000E+00 0. -1.
        -14    1    6    6    0    0  0.10499509470E+01  0.38914807890E+02  0.66566832831E+01  0.39494000841E+02  0.00000000000E+00 0.  1.
         -5    1    5    5    0  503  0.13087288677E+03 -0.11620182285E+03  0.37531889389E+02  0.17905671963E+03  0.47000000000E+01 0.  1.
<mgrwt>
<rscale>  2 0.26583574E+03</rscale>
<asrwt>0</asrwt>
<pdfrwt beam="1">  1       21 0.33180673E-01 0.26613695E+03</pdfrwt>
<pdfrwt beam="2">  1       21 0.60414058E-01 0.26613695E+03</pdfrwt>
<totfact> 0.21492037E+04</totfact>
</mgrwt>
</event>
<event>
12    1  0.1441827E-001  0.2892184E+03  0.7546771E-02  0.1091646E+00
         21   -1    0    0  504  503  0.00000000000E+00  0.00000000000E+00  0.18128826304E+04  0.18128826304E+04  0.00000000000E+00 0. -1.
         21   -1    0    0  502  504 -0.00000000000E+00 -0.00000000000E+00 -0.61291880139E+02  0.61291880139E+02  0.00000000000E+00 0.  1.
          6    2    1    2  502    0 -0.20421892379E+03  0.84024626185E+02  0.38630309373E+03  0.47858944317E+03  0.17621653796E+03 0.  0.
         24    2    3    3    0    0 -0.13841053093E+03  0.82078912423E+02  0.15733736993E+03  0.24029986504E+03  0.84229176790E+02 0.  0.
         -6    2    1    2    0  503  0.20421892379E+03 -0.84024626185E+02  0.13652876566E+04  0.13955850674E+04  0.18676666871E+03 0.  0.
        -24    2    5    5    0    0  0.21434733799E+03 -0.33623230082E+02  0.98726719818E+03  0.10140559827E+04  0.80856122657E+02 0.  0.
          2    1    4    4  501    0 -0.13386291063E+02  0.49795128142E+02  0.56290062344E+02  0.76336876369E+02  0.00000000000E+00 0. -1.
         -1    1    4    4    0  501 -0.12502423987E+03  0.32283784281E+02  0.10104730758E+03  0.16396298867E+03  0.00000000000E+00 0.  1.
          5    1    3    3  502    0 -0.65808392859E+02  0.19457137619E+01  0.22896572380E+03  0.23828957813E+03  0.47000000000E+01 0. -1.
         11    1    6    6    0    0  0.11720518878E+03 -0.44053176062E+01  0.69150261365E+03  0.70137887606E+03  0.00000000000E+00 0. -1.
        -12    1    6    6    0    0  0.97142149209E+02 -0.29217912475E+02  0.29576458453E+03  0.31267710665E+03  0.00000000000E+00 0.  1.
         -5    1    5    5    0  503 -0.10128414198E+02 -0.50401396104E+02  0.37802045838E+03  0.38152908468E+03  0.47000000000E+01 0.  1.
<mgrwt>
<rscale>  2 0.28752917E+03</rscale>
<asrwt>0</asrwt>
<pdfrwt beam="1">  1       21 0.27890498E+00 0.28921842E+03</pdfrwt>
<pdfrwt beam="2">  1       21 0.94295214E-02 0.28921842E+03</pdfrwt>
<totfact> 0.37147529E+03</totfact>
</mgrwt>
</event>
<event>
12    1  0.1441827E-001  0.2268879E+03  0.7546771E-02  0.1129317E+00
         21   -1    0    0  504  503  0.00000000000E+00  0.00000000000E+00  0.82331470777E+02  0.82331470777E+02  0.00000000000E+00 0.  1.
         21   -1    0    0  502  504 -0.00000000000E+00 -0.00000000000E+00 -0.66137960765E+03  0.66137960765E+03  0.00000000000E+00 0.  1.
          6    2    1    2  502    0 -0.11228573160E+03  0.90052775375E+02 -0.19598588166E+03  0.29981425035E+03  0.17538680404E+03 0.  0.
         24    2    3    3    0    0 -0.85819215006E+02  0.12820684416E+03 -0.17913922380E+03  0.25019460357E+03  0.81881289679E+02 0.  0.
         -6    2    1    2    0  503  0.11228573160E+03 -0.90052775375E+02 -0.38306225521E+03  0.44389682808E+03  0.17201777447E+03 0.  0.
        -24    2    5    5    0    0  0.58802088848E+02 -0.12112204112E+03 -0.31510350669E+03  0.35188443317E+03  0.80026244936E+02 0.  0.
          4    1    4    4  501    0 -0.25357834608E+02  0.86864321340E+02 -0.14119877967E+03  0.16770666498E+03  0.00000000000E+00 0. -1.
         -3    1    4    4    0  501 -0.60461380398E+02  0.41342522822E+02 -0.37940444131E+02  0.82487938596E+02  0.00000000000E+00 0.  1.
          5    1    3    3  502    0 -0.26466516590E+02 -0.38154068787E+02 -0.16846657862E+02  0.49619646779E+02  0.47000000000E+01 0. -1.
         11    1    6    6    0    0 -0.18671645048E+02 -0.41595332680E+02 -0.90035645968E+02  0.10092184885E+03  0.00000000000E+00 0. -1.
        -12    1    6    6    0    0  0.77473733895E+02 -0.79526708445E+02 -0.22506786072E+03  0.25096258432E+03  0.00000000000E+00 0.  1.
         -5    1    5    5    0  503  0.53483642749E+02  0.31069265750E+02 -0.67958748521E+02  0.92012394906E+02  0.47000000000E+01 0.  1.
<mgrwt>
<rscale>  2 0.22623657E+03</rscale>
<asrwt>0</asrwt>
<pdfrwt beam="1">  1       21 0.12666380E-01 0.22688790E+03</pdfrwt>
<pdfrwt beam="2">  1       21 0.10175071E+00 0.22688790E+03</pdfrwt>
<totfact> 0.41224209E+04</totfact>
</mgrwt>
</event>
<event>
12    1  0.1441827E-001  0.2578457E+03  0.7546771E-02  0.1108573E+00
         21   -1    0    0  504  503  0.00000000000E+00  0.00000000000E+00  0.12489728566E+03  0.12489728566E+03  0.00000000000E+00 0. -1.
         21   -1    0    0  502  504 -0.00000000000E+00 -0.00000000000E+00 -0.54313915984E+03  0.54313915984E+03  0.00000000000E+00 0. -1.
          6    2    1    2  502    0  0.20954134053E+02  0.18908177206E+03 -0.15863302486E+03  0.30273561261E+03  0.17405005690E+03 0.  0.
         24    2    3    3    0    0  0.15027950176E+02  0.29744052439E+02 -0.15797710980E+02  0.88614979691E+02  0.80576044898E+02 0.  0.
         -6    2    1    2    0  503 -0.20954134053E+02 -0.18908177206E+03 -0.25960884932E+03  0.36530083289E+03  0.17279164218E+03 0.  0.
        -24    2    5    5    0    0 -0.72960861715E+02 -0.12898424772E+03 -0.21488088008E+03  0.27398219631E+03  0.83260001021E+02 0.  0.
          4    1    4    4  501    0  0.11091095451E+02  0.10044330862E+02 -0.48211721634E+02  0.50480402966E+02  0.00000000000E+00 0. -1.
         -3    1    4    4    0  501  0.39368547253E+01  0.19699721577E+02  0.32414010653E+02  0.38134576725E+02  0.00000000000E+00 0.  1.
          5    1    3    3  502    0  0.59261838772E+01  0.15933771962E+03 -0.14283531388E+03  0.21412063292E+03  0.47000000000E+01 0. -1.
         11    1    6    6    0    0 -0.65680229625E+02 -0.43922693762E+02 -0.13837778348E+03  0.15934712596E+03  0.00000000000E+00 0. -1.
        -12    1    6    6    0    0 -0.72806320905E+01 -0.85061553954E+02 -0.76503096597E+02  0.11463507035E+03  0.00000000000E+00 0.  1.
         -5    1    5    5    0  503  0.52006727662E+02 -0.60097524342E+02 -0.44727969237E+02  0.91318636577E+02  0.47000000000E+01 0.  1.
<mgrwt>
<rscale>  2 0.25763351E+03</rscale>
<asrwt>0</asrwt>
<pdfrwt beam="1">  1       21 0.19214967E-01 0.25784572E+03</pdfrwt>
<pdfrwt beam="2">  1       21 0.83559870E-01 0.25784572E+03</pdfrwt>
<totfact> 0.29990611E+04</totfact>
</mgrwt>
</event>
<event>
12    1  0.1441827E-001  0.1774009E+03  0.7546771E-02  0.1170705E+00
         21   -1    0    0  504  503  0.00000000000E+00  0.00000000000E+00  0.74959643662E+02  0.74959643662E+02  0.00000000000E+00 0.  1.
         21   -1    0    0  502  504 -0.00000000000E+00 -0.00000000000E+00 -0.86742610312E+03  0.86742610312E+03  0.00000000000E+00 0.  1.
          6    2    1    2  502    0 -0.31678399164E+02  0.58480896014E+01 -0.73679598013E+03  0.75785183105E+03  0.17445159891E+03 0.  0.
         24    2    3    3    0    0 -0.34971462684E+02 -0.58821530259E+02 -0.44077792440E+03  0.45479773799E+03  0.88728959306E+02 0.  0.
         -6    2    1    2    0  503  0.31678399164E+02 -0.58480896014E+01 -0.55670479325E+02  0.18453391573E+03  0.17296196883E+03 0.  0.
        -24    2    5    5    0    0 -0.22371316703E+02  0.19532435125E+02 -0.83411414477E+02  0.11852488374E+03  0.78795254734E+02 0.  0.
          2    1    4    4  501    0 -0.13340096859E+02 -0.50118046405E+02 -0.42111599489E+03  0.42429760535E+03  0.00000000000E+00 0. -1.
         -1    1    4    4    0  501 -0.21631365825E+02 -0.87034838536E+01 -0.19661929510E+02  0.30500132634E+02  0.00000000000E+00 0.  1.
          5    1    3    3  502    0  0.32930635198E+01  0.64669619860E+02 -0.29601805573E+03  0.30305409306E+03  0.47000000000E+01 0. -1.
         13    1    6    6    0    0 -0.49061778213E+02  0.27156066951E+02 -0.50426153686E+02  0.75414236251E+02  0.00000000000E+00 0. -1.
        -14    1    6    6    0    0  0.26690461510E+02 -0.76236318260E+01 -0.32985260791E+02  0.43110647493E+02  0.00000000000E+00 0.  1.
         -5    1    5    5    0  503  0.54049715868E+02 -0.25380524726E+02  0.27740935151E+02  0.66009031987E+02  0.47000000000E+01 0.  1.
<mgrwt>
<rscale>  2 0.17703360E+03</rscale>
<asrwt>0</asrwt>
<pdfrwt beam="1">  1       21 0.11532253E-01 0.17740091E+03</pdfrwt>
<pdfrwt beam="2">  1       21 0.13345017E+00 0.17740091E+03</pdfrwt>
<totfact> 0.25730381E+04</totfact>
</mgrwt>
</event>
<event>
12    1  0.1441827E-001  0.1800422E+03  0.7546771E-02  0.1168093E+00
         21   -1    0    0  504  503  0.00000000000E+00  0.00000000000E+00  0.55704848863E+03  0.55704848863E+03  0.00000000000E+00 0.  1.
         21   -1    0    0  502  504 -0.00000000000E+00 -0.00000000000E+00 -0.99184729026E+02  0.99184729026E+02  0.00000000000E+00 0.  1.
          6    2    1    2  502    0 -0.14294688437E+02  0.46359558651E+02  0.16358142766E+02  0.17942886143E+03  0.17196970863E+03 0.  0.
         24    2    3    3    0    0 -0.10149476271E+02 -0.10463468066E+02  0.64421673379E+02  0.10474129805E+03  0.81290168432E+02 0.  0.
         -6    2    1    2    0  503  0.14294688437E+02 -0.46359558651E+02  0.44150561684E+03  0.47680435622E+03  0.17338292193E+03 0.  0.
        -24    2    5    5    0    0 -0.16401322984E+02  0.37738461205E+02  0.20429761624E+03  0.22322113988E+03  0.79981038003E+02 0.  0.
          2    1    4    4  501    0 -0.21125926223E+02 -0.40664122436E+02  0.54298993695E+02  0.71051082529E+02  0.00000000000E+00 0. -1.
         -1    1    4    4    0  501  0.10976449951E+02  0.30200654369E+02  0.10122679684E+02  0.33690215521E+02  0.00000000000E+00 0.  1.
          5    1    3    3  502    0 -0.41452121658E+01  0.56823026717E+02 -0.48063530613E+02  0.74687563384E+02  0.47000000000E+01 0. -1.
         11    1    6    6    0    0 -0.48269052435E+02  0.29879953534E+02  0.13877282619E+03  0.14993535385E+03  0.00000000000E+00 0. -1.
        -12    1    6    6    0    0  0.31867729451E+02  0.78585076710E+01  0.65524790047E+02  0.73285786029E+02  0.00000000000E+00 0.  1.
         -5    1    5    5    0  503  0.30696011421E+02 -0.84098019856E+02  0.23720800060E+03  0.25358321634E+03  0.47000000000E+01 0.  1.
<mgrwt>
<rscale>  2 0.17970107E+03</rscale>
<asrwt>0</asrwt>
<pdfrwt beam="1">  1       21 0.85699766E-01 0.18004217E+03</pdfrwt>
<pdfrwt beam="2">  1       21 0.15259189E-01 0.18004217E+03</pdfrwt>
<totfact> 0.44997270E+04</totfact>
</mgrwt>
</event>
<event>
12    1  0.1441827E-001  0.2370103E+03  0.7546771E-02  0.1121907E+00
         21   -1    0    0  504  503  0.00000000000E+00  0.00000000000E+00  0.42181239148E+03  0.42181239148E+03  0.00000000000E+00 0.  1.
         21   -1    0    0  502  504 -0.00000000000E+00 -0.00000000000E+00 -0.27607927739E+03  0.27607927739E+03  0.00000000000E+00 0.  1.
          6    2    1    2  502    0 -0.14206328807E+03  0.76710716465E+02 -0.17854270367E+03  0.29623424400E+03  0.17265780736E+03 0.  0.
         24    2    3    3    0    0 -0.34124289471E+02  0.12814024250E+02 -0.48341760266E+01  0.81920555046E+02  0.73204793093E+02 0.  0.
         -6    2    1    2    0  503  0.14206328807E+03 -0.76710716465E+02  0.32427581777E+03  0.40165742487E+03  0.17351475191E+03 0.  0.
        -24    2    5    5    0    0  0.16375975038E+03 -0.96091645297E+02  0.26557188836E+03  0.33597182366E+03  0.79358542487E+02 0.  0.
          4    1    4    4  501    0 -0.32532669566E+01 -0.28298749487E+02 -0.10136675893E+02  0.30234999034E+02  0.00000000000E+00 0. -1.
         -3    1    4    4    0  501 -0.30871022514E+02  0.41112773737E+02  0.53024998667E+01  0.51685556012E+02  0.00000000000E+00 0.  1.
          5    1    3    3  502    0 -0.10793899860E+03  0.63896692215E+02 -0.17370852765E+03  0.21431368895E+03  0.47000000000E+01 0. -1.
         11    1    6    6    0    0  0.67485654051E+02 -0.22868200903E+02  0.16106117297E+03  0.17611919132E+03  0.00000000000E+00 0. -1.
        -12    1    6    6    0    0  0.96274096328E+02 -0.73223444393E+02  0.10451071540E+03  0.15985263234E+03  0.00000000000E+00 0.  1.
         -5    1    5    5    0  503 -0.21696462308E+02  0.19380928832E+02  0.58703929406E+02  0.65685601213E+02  0.47000000000E+01 0.  1.
<mgrwt>
<rscale>  2 0.23685348E+03</rscale>
<asrwt>0</asrwt>
<pdfrwt beam="1">  1       21 0.64894214E-01 0.23701030E+03</pdfrwt>
<pdfrwt beam="2">  1       21 0.42473735E-01 0.23701030E+03</pdfrwt>
<totfact> 0.11344134E+04</totfact>
</mgrwt>
</event>
<event>
12    1  0.1441827E-001  0.2659544E+03  0.7546771E-02  0.1103637E+00
         21   -1    0    0  504  503  0.00000000000E+00  0.00000000000E+00  0.96462006150E+03  0.96462006150E+03  0.00000000000E+00 0.  1.
         21   -1    0    0  502  504 -0.00000000000E+00 -0.00000000000E+00 -0.83873610490E+02  0.83873610490E+02  0.00000000000E+00 0. -1.
          6    2    1    2  502    0  0.38531768090E+01  0.20242582771E+03  0.25403676519E+03  0.36768767964E+03  0.17224543244E+03 0.  0.
         24    2    3    3    0    0 -0.63037774946E+02  0.12846646233E+03  0.13417577089E+03  0.21169686225E+03  0.79592907860E+02 0.  0.
         -6    2    1    2    0  503 -0.38531768090E+01 -0.20242582771E+03  0.62670968582E+03  0.68080599235E+03  0.17245493969E+03 0.  0.
        -24    2    5    5    0    0  0.35695582753E+02 -0.19738759440E+03  0.58170221563E+03  0.62049636998E+03  0.80014001477E+02 0.  0.
          4    1    4    4  501    0  0.18356903610E+01  0.50944780562E+02  0.10643123942E+02  0.52077024808E+02  0.00000000000E+00 0. -1.
         -3    1    4    4    0  501 -0.64873465307E+02  0.77521681767E+02  0.12353264695E+03  0.15961983745E+03  0.00000000000E+00 0.  1.
          5    1    3    3  502    0  0.66890951755E+02  0.73959365379E+02  0.11986099430E+03  0.15599081739E+03  0.47000000000E+01 0. -1.
         11    1    6    6    0    0 -0.24045644493E+02 -0.55450827651E+02  0.13259748608E+03  0.14572261534E+03  0.00000000000E+00 0. -1.
        -12    1    6    6    0    0  0.59741227246E+02 -0.14193676675E+03  0.44910472955E+03  0.47477375464E+03  0.00000000000E+00 0.  1.
         -5    1    5    5    0  503 -0.39548759562E+02 -0.50382333078E+01  0.45007470184E+02  0.60309622368E+02  0.47000000000E+01 0.  1.
<mgrwt>
<rscale>  2 0.26592049E+03</rscale>
<asrwt>0</asrwt>
<pdfrwt beam="1">  1       21 0.14840308E+00 0.26595445E+03</pdfrwt>
<pdfrwt beam="2">  1       21 0.12903633E-01 0.26595445E+03</pdfrwt>
<totfact> 0.15137247E+04</totfact>
</mgrwt>
</event>
<event>
12    1  0.1441827E-001  0.1906540E+03  0.7546771E-02  0.1158257E+00
         21   -1    0    0  504  503  0.00000000000E+00  0.00000000000E+00  0.17552954954E+03  0.17552954954E+03  0.00000000000E+00 0. -1.
         21   -1    0    0  502  504 -0.00000000000E+00 -0.00000000000E+00 -0.31141333412E+03  0.31141333412E+03  0.00000000000E+00 0. -1.
          6    2    1    2  502    0 -0.48919970205E+02  0.60009689977E+02 -0.20990536941E+03  0.28242355423E+03  0.17236146176E+03 0.  0.
         24    2    3    3    0    0 -0.67353862297E+02  0.49372102517E+02 -0.22713837425E+03  0.25463807060E+03  0.79212111905E+02 0.  0.
         -6    2    1    2    0  503  0.48919970205E+02 -0.60009689977E+02  0.74021584832E+02  0.20451932943E+03  0.17422581529E+03 0.  0.
        -24    2    5    5    0    0  0.20169214650E+02 -0.99106091332E+02  0.18370066719E+02  0.13053070860E+03  0.80448691585E+02 0.  0.
          2    1    4    4  501    0 -0.35988375955E+02  0.12951922366E+02 -0.19023077696E+03  0.19403779013E+03  0.00000000000E+00 0. -1.
         -1    1    4    4    0  501 -0.31365486342E+02  0.36420180151E+02 -0.36907597286E+02  0.60600280470E+02  0.00000000000E+00 0.  1.
          5    1    3    3  502    0  0.18433892092E+02  0.10637587460E+02  0.17233004835E+02  0.27785483625E+02  0.47000000000E+01 0. -1.
         13    1    6    6    0    0 -0.15105824572E+02 -0.86362858012E+02  0.27581061189E+02  0.91909978329E+02  0.00000000000E+00 0. -1.
        -14    1    6    6    0    0  0.35275039222E+02 -0.12743233319E+02 -0.92109944700E+01  0.38620730271E+02  0.00000000000E+00 0.  1.
         -5    1    5    5    0  503  0.28750755555E+02  0.39096401355E+02  0.55651518112E+02  0.73988620828E+02  0.47000000000E+01 0.  1.
<mgrwt>
<rscale>  2 0.19022706E+03</rscale>
<asrwt>0</asrwt>
<pdfrwt beam="1">  1       21 0.27004546E-01 0.19065404E+03</pdfrwt>
<pdfrwt beam="2">  1       21 0.47909744E-01 0.19065404E+03</pdfrwt>
<totfact> 0.54455912E+04</totfact>
</mgrwt>
</event>
<event>
12    1  0.1441827E-001  0.1855948E+03  0.7546771E-02  0.1163059E+00
         21   -1    0    0  504  503  0.00000000000E+00  0.00000000000E+00  0.18233865778E+04  0.18233865778E+04  0.00000000000E+00 0.  1.
         21   -1    0    0  502  504 -0.00000000000E+00 -0.00000000000E+00 -0.21981443852E+02  0.21981443852E+02  0.00000000000E+00 0.  1.
          6    2    1    2  502    0 -0.47896057766E+02  0.39637788456E+02  0.54631358406E+03  0.57697829045E+03  0.17487203578E+03 0.  0.
         24    2    3    3    0    0 -0.79170339057E+02  0.24768472371E+02  0.51498601290E+03  0.53004553061E+03  0.94107657643E+02 0.  0.
         -6    2    1    2    0  503  0.47896057766E+02 -0.39637788456E+02  0.12550915499E+04  0.12683897312E+04  0.17231519085E+03 0.  0.
        -24    2    5    5    0    0  0.54951008210E+02 -0.13903481951E+02  0.36552359419E+03  0.37840924565E+03  0.79831943302E+02 0.  0.
          2    1    4    4  501    0 -0.84585305729E+02  0.34306871032E+02  0.50981078998E+03  0.51791763527E+03  0.00000000000E+00 0. -1.
         -1    1    4    4    0  501  0.54149666711E+01 -0.95383986617E+01  0.51752229207E+01  0.12127895339E+02  0.00000000000E+00 0.  1.
          5    1    3    3  502    0  0.31274281292E+02  0.14869316086E+02  0.31327571155E+02  0.46932759834E+02  0.47000000000E+01 0. -1.
         13    1    6    6    0    0  0.70190481961E+02 -0.41828144504E+01  0.33961845675E+03  0.34682112949E+03  0.00000000000E+00 0. -1.
        -14    1    6    6    0    0 -0.15239473751E+02 -0.97206675004E+01  0.25905137435E+02  0.31588116158E+02  0.00000000000E+00 0.  1.
         -5    1    5    5    0  503 -0.70549504441E+01 -0.25734306506E+02  0.88956795570E+03  0.88998048555E+03  0.47000000000E+01 0.  1.
<mgrwt>
<rscale>  2 0.18499003E+03</rscale>
<asrwt>0</asrwt>
<pdfrwt beam="1">  1       21 0.28052089E+00 0.18559476E+03</pdfrwt>
<pdfrwt beam="2">  1       21 0.33817620E-02 0.18559476E+03</pdfrwt>
<totfact> 0.23076832E+04</totfact>
</mgrwt>
</event>
<event>
12    1  0.1441827E-001  0.1971928E+03  0.7546771E-02  0.1152197E+00
         21   -1    0    0  504  503  0.00000000000E+00  0.00000000000E+00  0.13364208245E+04  0.13364208245E+04  0.00000000000E+00 0. -1.
         21   -1    0    0  502  504 -0.00000000000E+00 -0.00000000000E+00 -0.29171902426E+02  0.29171902426E+02  0.00000000000E+00 0. -1.
          6    2    1    2  502    0 -0.32618640712E+02  0.90145121537E+02  0.60889504120E+03  0.63993223821E+03  0.17195923830E+03 0.  0.
         24    2    3    3    0    0 -0.78813749545E+02  0.88470346875E+02  0.37882660945E+03  0.40521886781E+03  0.81572798251E+02 0.  0.
         -6    2    1    2    0  503  0.32618640712E+02 -0.90145121537E+02  0.69835388087E+03  0.72566048872E+03  0.17232203371E+03 0.  0.
        -24    2    5    5    0    0 -0.27405086202E+02 -0.10354683229E+03  0.45124826380E+03  0.47097297503E+03  0.81960736907E+02 0.  0.
          2    1    4    4  501    0 -0.61839266511E+01  0.68122039504E+02  0.17669799647E+03  0.18947568491E+03  0.00000000000E+00 0. -1.
         -1    1    4    4    0  501 -0.72629822894E+02  0.20348307370E+02  0.20212861297E+03  0.21574318290E+03  0.00000000000E+00 0.  1.
          5    1    3    3  502    0  0.46195108833E+02  0.16747746627E+01  0.23006843176E+03  0.23471337039E+03  0.47000000000E+01 0. -1.
         13    1    6    6    0    0 -0.11756568834E+02 -0.11490758161E+03  0.38314977139E+03  0.40018210422E+03  0.00000000000E+00 0. -1.
        -14    1    6    6    0    0 -0.15648517368E+02  0.11360749317E+02  0.68098492416E+02  0.70790870811E+02  0.00000000000E+00 0.  1.
         -5    1    5    5    0  503  0.60023726915E+02  0.13401710753E+02  0.24710561707E+03  0.25468751370E+03  0.47000000000E+01 0.  1.
<mgrwt>
<rscale>  2 0.19711352E+03</rscale>
<asrwt>0</asrwt>
<pdfrwt beam="1">  1       21 0.20560316E+00 0.19719280E+03</pdfrwt>
<pdfrwt beam="2">  1       21 0.44879860E-02 0.19719280E+03</pdfrwt>
<totfact> 0.39808337E+04</totfact>
</mgrwt>
</event>
<event>
12    1  0.1441827E-001  0.1998967E+03  0.7546771E-02  0.1150024E+00
         21   -1    0    0  504  503  0.00000000000E+00  0.00000000000E+00  0.78911445594E+02  0.78911445594E+02  0.00000000000E+00 0.  1.
         21   -1    0    0  502  504 -0.00000000000E+00 -0.00000000000E+00 -0.18371404876E+04  0.18371404876E+04  0.00000000000E+00 0.  1.
          6    2    1    2  502    0 -0.18368008017E+02 -0.97013763295E+02 -0.16957763962E+04  0.17075175773E+04  0.17380919620E+03 0.  0.
         24    2    3    3    0    0 -0.63368454842E+01 -0.11676808487E+03 -0.86631719978E+03  0.87772264437E+03  0.78845472582E+02 0.  0.
         -6    2    1    2    0  503  0.18368008017E+02  0.97013763295E+02 -0.62452645743E+02  0.20853435589E+03  0.17273445122E+03 0.  0.
        -24    2    5    5    0    0  0.35564432755E+02  0.78100671159E+01 -0.75503397378E+02  0.11663534309E+03  0.81100025996E+02 0.  0.
          2    1    4    4  501    0 -0.73404668755E+01 -0.41623296412E+02 -0.11265100921E+03  0.12031887273E+03  0.00000000000E+00 0. -1.
         -1    1    4    4    0  501  0.10036213913E+01 -0.75144788460E+02 -0.75366619057E+03  0.75740377165E+03  0.00000000000E+00 0.  1.
          5    1    3    3  502    0 -0.12031162533E+02  0.19754321577E+02 -0.82945919644E+03  0.82979493289E+03  0.47000000000E+01 0. -1.
         11    1    6    6    0    0  0.32010649797E+02  0.29453789546E+02 -0.82790815848E+02  0.93522866764E+02  0.00000000000E+00 0. -1.
        -12    1    6    6    0    0  0.35537829582E+01 -0.21643722430E+02  0.72874184701E+01  0.23112476326E+02  0.00000000000E+00 0.  1.
         -5    1    5    5    0  503 -0.17196424738E+02  0.89203696179E+02  0.13050751635E+02  0.91899012802E+02  0.47000000000E+01 0.  1.
<mgrwt>
<rscale>  2 0.19966285E+03</rscale>
<asrwt>0</asrwt>
<pdfrwt beam="1">  1       21 0.12140222E-01 0.19989670E+03</pdfrwt>
<pdfrwt beam="2">  1       21 0.28263701E+00 0.19989670E+03</pdfrwt>
<totfact> 0.24486315E+03</totfact>
</mgrwt>
</event>
<event>
12    1  0.1441827E-001  0.1794507E+03  0.7546771E-02  0.1168863E+00
         21   -1    0    0  504  503  0.00000000000E+00  0.00000000000E+00  0.27956726150E+03  0.27956726150E+03  0.00000000000E+00 0.  1.
         21   -1    0    0  502  504 -0.00000000000E+00 -0.00000000000E+00 -0.21893581343E+03  0.21893581343E+03  0.00000000000E+00 0.  1.
          6    2    1    2  502    0 -0.40749266129E+02  0.19978569139E+02 -0.14230717335E+03  0.22902812088E+03  0.17361711509E+03 0.  0.
         24    2    3    3    0    0 -0.76831431562E+02 -0.15275252584E+02 -0.13798091983E+03  0.17817970815E+03  0.81073250461E+02 0.  0.
         -6    2    1    2    0  503  0.40749266129E+02 -0.19978569139E+02  0.20293862142E+03  0.26947495405E+03  0.17138559122E+03 0.  0.
        -24    2    5    5    0    0 -0.39416118524E+02 -0.30504368060E+02  0.12794796883E+03  0.15909846509E+03  0.80358521603E+02 0.  0.
          4    1    4    4  501    0 -0.81361865299E+02 -0.37832467116E+02 -0.10971918938E+03  0.14173690137E+03  0.00000000000E+00 0. -1.
         -3    1    4    4    0  501  0.45304337375E+01  0.22557214532E+02 -0.28261730452E+02  0.36442806772E+02  0.00000000000E+00 0.  1.
          5    1    3    3  502    0  0.36082165432E+02  0.35253821723E+02 -0.43262535243E+01  0.50848412738E+02  0.47000000000E+01 0. -1.
         13    1    6    6    0    0 -0.24921519637E+02 -0.66394907141E+01 -0.22982334799E+01  0.25892988531E+02  0.00000000000E+00 0. -1.
        -14    1    6    6    0    0 -0.14494598888E+02 -0.23864877346E+02  0.13024620231E+03  0.13320547655E+03  0.00000000000E+00 0.  1.
         -5    1    5    5    0  503  0.80165384654E+02  0.10525798921E+02  0.74990652590E+02  0.11037648896E+03  0.47000000000E+01 0.  1.
<mgrwt>
<rscale>  2 0.17890871E+03</rscale>
<asrwt>0</asrwt>
<pdfrwt beam="1">  1       21 0.43010348E-01 0.17945069E+03</pdfrwt>
<pdfrwt beam="2">  1       21 0.33682433E-01 0.17945069E+03</pdfrwt>
<totfact> 0.44421223E+04</totfact>
</mgrwt>
</event>
<event>
12    1  0.1441827E-001  0.1952333E+03  0.7546771E-02  0.1154029E+00
         21   -1    0    0  504  503  0.00000000000E+00  0.00000000000E+00  0.99004364440E+02  0.99004364440E+02  0.00000000000E+00 0. -1.
         21   -1    0    0  502  504 -0.00000000000E+00 -0.00000000000E+00 -0.48997661804E+03  0.48997661804E+03  0.00000000000E+00 0. -1.
          6    2    1    2  502    0 -0.44590470973E+01  0.92032252409E+02 -0.58345266174E+02  0.20376510750E+03  0.17212271891E+03 0.  0.
         24    2    3    3    0    0 -0.69418325204E+02  0.60720790291E+02 -0.45004030417E+02  0.13027909493E+03  0.80258093515E+02 0.  0.
         -6    2    1    2    0  503  0.44590470973E+01 -0.92032252409E+02 -0.33262698743E+03  0.38521587498E+03  0.17105770660E+03 0.  0.
        -24    2    5    5    0    0  0.36416564526E+02 -0.11914777803E+03 -0.22621684216E+03  0.27075302657E+03  0.81306718892E+02 0.  0.
          4    1    4    4  501    0 -0.38949251721E+02  0.44711566349E+02  0.14945396782E+02  0.61151723279E+02  0.00000000000E+00 0. -1.
         -3    1    4    4    0  501 -0.30469073483E+02  0.16009223942E+02 -0.59949427199E+02  0.69127371652E+02  0.00000000000E+00 0.  1.
          5    1    3    3  502    0  0.64959278107E+02  0.31311462118E+02 -0.13341235757E+02  0.73486012571E+02  0.47000000000E+01 0. -1.
         13    1    6    6    0    0  0.58745488050E+02 -0.60771281829E+02 -0.10919310078E+03  0.13808444633E+03  0.00000000000E+00 0. -1.
        -14    1    6    6    0    0 -0.22328923524E+02 -0.58376496205E+02 -0.11702374138E+03  0.13266858024E+03  0.00000000000E+00 0.  1.
         -5    1    5    5    0  503 -0.31957517429E+02  0.27115525625E+02 -0.10641014527E+03  0.11446284841E+03  0.47000000000E+01 0.  1.
<mgrwt>
<rscale>  2 0.19499832E+03</rscale>
<asrwt>0</asrwt>
<pdfrwt beam="1">  1       21 0.15231440E-01 0.19523332E+03</pdfrwt>
<pdfrwt beam="2">  1       21 0.75381019E-01 0.19523332E+03</pdfrwt>
<totfact> 0.59900102E+04</totfact>
</mgrwt>
</event>
<event>
12    1  0.1441827E-001  0.1804913E+03  0.7546771E-02  0.1167336E+00
         21   -1    0    0  504  503  0.00000000000E+00  0.00000000000E+00  0.11577336648E+03  0.11577336648E+03  0.00000000000E+00 0.  1.
         21   -1    0    0  502  504 -0.00000000000E+00 -0.00000000000E+00 -0.49322286217E+03  0.49322286217E+03  0.00000000000E+00 0.  1.
          6    2    1    2  502    0  0.74535281795E+01  0.48933391270E+02 -0.38829296815E+03  0.42817946444E+03  0.17354017630E+03 0.  0.
         24    2    3    3    0    0 -0.54929044537E+02 -0.45350616136E+01 -0.23369630458E+03  0.25304329108E+03  0.79869754405E+02 0.  0.
         -6    2    1    2    0  503 -0.74535281795E+01 -0.48933391270E+02  0.10843472453E+02  0.18081676421E+03  0.17357156870E+03 0.  0.
        -24    2    5    5    0    0  0.51727254716E+02  0.81485802286E+01  0.23354560707E+02  0.97514100009E+02  0.78876206517E+02 0.  0.
          4    1    4    4  501    0 -0.19124222026E+02  0.22151039861E+02 -0.21797499248E+02  0.36490209762E+02  0.00000000000E+00 0. -1.
         -3    1    4    4    0  501 -0.35804822510E+02 -0.26686101474E+02 -0.21189880534E+03  0.21655308132E+03  0.00000000000E+00 0.  1.
          5    1    3    3  502    0  0.62382572716E+02  0.53468452884E+02 -0.15459666356E+03  0.17513617335E+03  0.47000000000E+01 0. -1.
         11    1    6    6    0    0 -0.67495629824E+01  0.26112577662E+02 -0.88440815160E+01  0.28383817405E+02  0.00000000000E+00 0. -1.
        -12    1    6    6    0    0  0.58476817699E+02 -0.17963997434E+02  0.32198642223E+02  0.69130282604E+02  0.00000000000E+00 0.  1.
         -5    1    5    5    0  503 -0.59180782896E+02 -0.57081971499E+02 -0.12511088253E+02  0.83302664205E+02  0.47000000000E+01 0.  1.
<mgrwt>
<rscale>  2 0.18048379E+03</rscale>
<asrwt>0</asrwt>
<pdfrwt beam="1">  1       21 0.17811287E-01 0.18049133E+03</pdfrwt>
<pdfrwt beam="2">  1       21 0.75880440E-01 0.18049133E+03</pdfrwt>
<totfact> 0.44612559E+04</totfact>
</mgrwt>
</event>
<event>
12    1  0.1441827E-001  0.2104619E+03  0.7546771E-02  0.1141285E+00
         21   -1    0    0  504  503  0.00000000000E+00  0.00000000000E+00  0.91258187041E+02  0.91258187041E+02  0.00000000000E+00 0.  1.
         21   -1    0    0  502  504 -0.00000000000E+00 -0.00000000000E+00 -0.59746866168E+03  0.59746866168E+03  0.00000000000E+00 0. -1.
          6    2    1    2  502    0 -0.75345233955E+02  0.93217388439E+02 -0.40270963175E+03  0.45419189488E+03  0.17247853222E+03 0.  0.
         24    2    3    3    0    0 -0.12422912715E+02 -0.12471571443E+02 -0.11342139683E+03  0.13980495555E+03  0.79819443022E+02 0.  0.
         -6    2    1    2    0  503  0.75345233955E+02 -0.93217388439E+02 -0.10350084289E+03  0.23453495385E+03  0.17299663092E+03 0.  0.
        -24    2    5    5    0    0  0.10374181460E+02 -0.60235879018E+02 -0.12162028547E+03  0.15930582501E+03  0.82769966075E+02 0.  0.
          2    1    4    4  501    0 -0.23223025881E+01  0.11762431374E+02  0.87509365942E+01  0.14843408383E+02  0.00000000000E+00 0. -1.
         -1    1    4    4    0  501 -0.10100610127E+02 -0.24234002818E+02 -0.12217233342E+03  0.12496154717E+03  0.00000000000E+00 0.  1.
          5    1    3    3  502    0 -0.62922321240E+02  0.10568895988E+03 -0.28928823492E+03  0.31438693932E+03  0.47000000000E+01 0. -1.
         11    1    6    6    0    0 -0.20412738003E+02 -0.56344720262E+02 -0.40174230417E+02  0.72148292868E+02  0.00000000000E+00 0. -1.
        -12    1    6    6    0    0  0.30786919463E+02 -0.38911587558E+01 -0.81446055048E+02  0.87157532144E+02  0.00000000000E+00 0.  1.
         -5    1    5    5    0  503  0.64971052495E+02 -0.32981509422E+02  0.18119442576E+02  0.75229128835E+02  0.47000000000E+01 0.  1.
<mgrwt>
<rscale>  2 0.21035542E+03</rscale>
<asrwt>0</asrwt>
<pdfrwt beam="1">  1       21 0.14039721E-01 0.21046192E+03</pdfrwt>
<pdfrwt beam="2">  1       21 0.91918255E-01 0.21046192E+03</pdfrwt>
<totfact> 0.43849849E+04</totfact>
</mgrwt>
</event>
<event>
12    1  0.1441827E-001  0.1786759E+03  0.7546771E-02  0.1169451E+00
         21   -1    0    0  504  503  0.00000000000E+00  0.00000000000E+00  0.58269287280E+03  0.58269287280E+03  0.00000000000E+00 0. -1.
         21   -1    0    0  502  504 -0.00000000000E+00 -0.00000000000E+00 -0.59545798580E+02  0.59545798580E+02  0.00000000000E+00 0. -1.
          6    2    1    2  502    0 -0.42466911948E+02  0.37543490012E+01  0.16563535868E+03  0.24256418675E+03  0.17200226423E+03 0.  0.
         24    2    3    3    0    0 -0.18561126647E+02 -0.61769637267E+02  0.12353879126E+03  0.16096093721E+03  0.80539349704E+02 0.  0.
         -6    2    1    2    0  503  0.42466911948E+02 -0.37543490012E+01  0.35751171555E+03  0.39967448464E+03  0.17351522460E+03 0.  0.
        -24    2    5    5    0    0  0.27677716959E+02 -0.68648943517E+02  0.18743282933E+03  0.21697542546E+03  0.80427211082E+02 0.  0.
          4    1    4    4  501    0 -0.30341241225E+02 -0.15580899347E+02  0.10399008384E+03  0.10944081908E+03  0.00000000000E+00 0. -1.
         -3    1    4    4    0  501  0.11780114577E+02 -0.46188737920E+02  0.19548707414E+02  0.51520118125E+02  0.00000000000E+00 0.  1.
          5    1    3    3  502    0 -0.23905785301E+02  0.65523986268E+02  0.42096567422E+02  0.81603249543E+02  0.47000000000E+01 0. -1.
         11    1    6    6    0    0  0.18116406087E+02 -0.20001836385E-01  0.11618629897E+03  0.11759022340E+03  0.00000000000E+00 0. -1.
        -12    1    6    6    0    0  0.95613108720E+01 -0.68628941680E+02  0.71246530356E+02  0.99385202065E+02  0.00000000000E+00 0.  1.
         -5    1    5    5    0  503  0.14789194990E+02  0.64894594516E+02  0.17007888622E+03  0.18269905917E+03  0.47000000000E+01 0.  1.
<mgrwt>
<rscale>  2 0.17830751E+03</rscale>
<asrwt>0</asrwt>
<pdfrwt beam="1">  1       21 0.89645054E-01 0.17867587E+03</pdfrwt>
<pdfrwt beam="2">  1       21 0.91608925E-02 0.17867587E+03</pdfrwt>
<totfact> 0.10095931E+05</totfact>
</mgrwt>
</event>
<event>
12    1  0.1441827E-001  0.2120238E+03  0.7546771E-02  0.1140441E+00
         21   -1    0    0  504  503  0.00000000000E+00  0.00000000000E+00  0.28749128927E+02  0.28749128927E+02  0.00000000000E+00 0. -1.
         21   -1    0    0  502  504 -0.00000000000E+00 -0.00000000000E+00 -0.30793413266E+04  0.30793413266E+04  0.00000000000E+00 0. -1.
          6    2    1    2  502    0  0.65818402757E+02 -0.97039275271E+02 -0.26261613320E+04  0.26347063245E+04  0.17665047826E+03 0.  0.
         24    2    3    3    0    0 -0.54588346660E+01 -0.10926240625E+02 -0.56098420629E+03  0.56650068918E+03  0.77913859670E+02 0.  0.
         -6    2    1    2    0  503 -0.65818402757E+02  0.97039275271E+02 -0.42443086567E+03  0.47338413104E+03  0.17378806836E+03 0.  0.
        -24    2    5    5    0    0 -0.47717140060E+02 -0.11564008045E+02 -0.23470491255E+03  0.25397502425E+03  0.83703436180E+02 0.  0.
          4    1    4    4  501    0 -0.26944862191E+02 -0.24707470938E+01 -0.50780132234E+03  0.50852169389E+03  0.00000000000E+00 0. -1.
         -3    1    4    4    0  501  0.21486027525E+02 -0.84554935308E+01 -0.53182883950E+02  0.57978995290E+02  0.00000000000E+00 0.  1.
          5    1    3    3  502    0  0.71277237423E+02 -0.86113034646E+02 -0.20651771257E+04  0.20682056353E+04  0.47000000000E+01 0. -1.
         11    1    6    6    0    0  0.69236386929E+01 -0.17797322409E+02 -0.80165096807E+01  0.20711008791E+02  0.00000000000E+00 0. -1.
        -12    1    6    6    0    0 -0.54640778753E+02  0.62333143643E+01 -0.22668840287E+03  0.23326401546E+03  0.00000000000E+00 0.  1.
         -5    1    5    5    0  503 -0.18101262697E+02  0.10860328332E+03 -0.18972595311E+03  0.21940910679E+03  0.47000000000E+01 0.  1.
<mgrwt>
<rscale>  2 0.21142652E+03</rscale>
<asrwt>0</asrwt>
<pdfrwt beam="1">  1       21 0.44229455E-02 0.21202376E+03</pdfrwt>
<pdfrwt beam="2">  1       21 0.47374454E+00 0.21202376E+03</pdfrwt>
<totfact> 0.92532843E+02</totfact>
</mgrwt>
</event>
<event>
12    1  0.1441827E-001  0.2099211E+03  0.7546771E-02  0.1141630E+00
         21   -1    0    0  504  503  0.00000000000E+00  0.00000000000E+00  0.27176155964E+03  0.27176155964E+03  0.00000000000E+00 0.  1.
         21   -1    0    0  502  504 -0.00000000000E+00 -0.00000000000E+00 -0.24799456246E+03  0.24799456246E+03  0.00000000000E+00 0. -1.
          6    2    1    2  502    0  0.81874463818E+02 -0.83664126794E+02 -0.14101739927E+03  0.25288389571E+03  0.17424478148E+03 0.  0.
         24    2    3    3    0    0  0.11539236336E+03 -0.32046415300E+02 -0.78009410037E+02  0.16467995908E+03  0.81802509815E+02 0.  0.
         -6    2    1    2    0  503 -0.81874463818E+02  0.83664126794E+02  0.16478439646E+03  0.26687222639E+03  0.17425204150E+03 0.  0.
        -24    2    5    5    0    0 -0.55159112934E+02 -0.19860210853E+02  0.58219901906E+02  0.11584547394E+03  0.81201361682E+02 0.  0.
          4    1    4    4  501    0  0.12135908164E+03 -0.10140486405E+02 -0.70759145875E+02  0.14084641595E+03  0.00000000000E+00 0. -1.
         -3    1    4    4    0  501 -0.59667182761E+01 -0.21905928895E+02 -0.72502641616E+01  0.23833543130E+02  0.00000000000E+00 0.  1.
          5    1    3    3  502    0 -0.33517899543E+02 -0.51617711495E+02 -0.63007989233E+02  0.88203936629E+02  0.47000000000E+01 0. -1.
         11    1    6    6    0    0 -0.66055381502E+02 -0.38983713981E-01  0.64549498392E+02  0.92357742977E+02  0.00000000000E+00 0. -1.
        -12    1    6    6    0    0  0.10896268568E+02 -0.19821227139E+02 -0.63295964863E+01  0.23487730960E+02  0.00000000000E+00 0.  1.
         -5    1    5    5    0  503 -0.26715350883E+02  0.10352433765E+03  0.10656449455E+03  0.15102675245E+03  0.47000000000E+01 0.  1.
<mgrwt>
<rscale>  2 0.20991964E+03</rscale>
<asrwt>0</asrwt>
<pdfrwt beam="1">  1       21 0.41809471E-01 0.20992115E+03</pdfrwt>
<pdfrwt beam="2">  1       21 0.38153010E-01 0.20992115E+03</pdfrwt>
<totfact> 0.36155890E+04</totfact>
</mgrwt>
</event>
<event>
12    1  0.1441827E-001  0.2067137E+03  0.7546771E-02  0.1144300E+00
         21   -1    0    0  504  503  0.00000000000E+00  0.00000000000E+00  0.39357651204E+02  0.39357651204E+02  0.00000000000E+00 0.  1.
         21   -1    0    0  502  504 -0.00000000000E+00 -0.00000000000E+00 -0.13769482216E+04  0.13769482216E+04  0.00000000000E+00 0.  1.
          6    2    1    2  502    0 -0.50761741116E+02  0.10204803625E+03 -0.99666673783E+03  0.10178777666E+04  0.17245290764E+03 0.  0.
         24    2    3    3    0    0 -0.92317034012E+02  0.73685876583E+02 -0.86633273663E+03  0.87809115658E+03  0.80991515174E+02 0.  0.
         -6    2    1    2    0  503  0.50761741116E+02 -0.10204803625E+03 -0.34092383260E+03  0.39842810625E+03  0.17182939257E+03 0.  0.
        -24    2    5    5    0    0 -0.12681170782E+02 -0.11268359615E+03 -0.19978559727E+03  0.24325011272E+03  0.79987045993E+02 0.  0.
          4    1    4    4  501    0 -0.61874873274E+02  0.23297490812E+02 -0.23819060309E+03  0.24719635196E+03  0.00000000000E+00 0. -1.
         -3    1    4    4    0  501 -0.30442160738E+02  0.50388385771E+02 -0.62814213355E+03  0.63089480463E+03  0.00000000000E+00 0.  1.
          5    1    3    3  502    0  0.41555292895E+02  0.28362159666E+02 -0.13033400119E+03  0.13978661000E+03  0.47000000000E+01 0. -1.
         13    1    6    6    0    0 -0.38334247302E+01 -0.65096555880E+01 -0.89819565864E+02  0.90136702697E+02  0.00000000000E+00 0. -1.
        -14    1    6    6    0    0 -0.88477460517E+01 -0.10617394056E+03 -0.10996603140E+03  0.15311341002E+03  0.00000000000E+00 0.  1.
         -5    1    5    5    0  503  0.63442911898E+02  0.10635559903E+02 -0.14113823533E+03  0.15517799353E+03  0.47000000000E+01 0.  1.
<mgrwt>
<rscale>  2 0.20658362E+03</rscale>
<asrwt>0</asrwt>
<pdfrwt beam="1">  1       21 0.60550237E-02 0.20671372E+03</pdfrwt>
<pdfrwt beam="2">  1       21 0.21183817E+00 0.20671372E+03</pdfrwt>
<totfact> 0.21702380E+04</totfact>
</mgrwt>
</event>
<event>
12    1  0.1441827E-001  0.1746343E+03  0.7546771E-02  0.1173566E+00
         21   -1    0    0  504  503  0.00000000000E+00  0.00000000000E+00  0.24305453557E+03  0.24305453557E+03  0.00000000000E+00 0. -1.
         21   -1    0    0  502  504 -0.00000000000E+00 -0.00000000000E+00 -0.12674425433E+03  0.12674425433E+03  0.00000000000E+00 0. -1.
          6    2    1    2  502    0 -0.25337909409E+01 -0.18191960384E+02  0.84892936099E+02  0.19417503749E+03  0.17366567614E+03 0.  0.
         24    2    3    3    0    0  0.21199467101E+02 -0.23557088202E+02 -0.17290507062E+02  0.89029432784E+02  0.81381352025E+02 0.  0.
         -6    2    1    2    0  503  0.25337909409E+01  0.18191960384E+02  0.31417345142E+02  0.17562375240E+03  0.17181177292E+03 0.  0.
        -24    2    5    5    0    0  0.14035035634E+02  0.63820073382E+02  0.56808563908E+02  0.12194873665E+03  0.85873729664E+02 0.  0.
          4    1    4    4  501    0 -0.31428351761E+02 -0.79055112558E+01 -0.73617574561E+01  0.33233023869E+02  0.00000000000E+00 0. -1.
         -3    1    4    4    0  501  0.52627818862E+02 -0.15651576946E+02 -0.99287496057E+01  0.55796408915E+02  0.00000000000E+00 0.  1.
          5    1    3    3  502    0 -0.23733258042E+02  0.53651278183E+01  0.10218344316E+03  0.10514560471E+03  0.47000000000E+01 0. -1.
         13    1    6    6    0    0  0.45164331881E+02  0.10819526988E+02  0.24587699313E+02  0.52549348198E+02  0.00000000000E+00 0. -1.
        -14    1    6    6    0    0 -0.31129296247E+02  0.53000546394E+02  0.32220864595E+02  0.69399388456E+02  0.00000000000E+00 0.  1.
         -5    1    5    5    0  503 -0.11501244693E+02 -0.45628112999E+02 -0.25391218766E+02  0.53675015750E+02  0.47000000000E+01 0.  1.
<mgrwt>
<rscale>  2 0.17417157E+03</rscale>
<asrwt>0</asrwt>
<pdfrwt beam="1">  1       21 0.37393005E-01 0.17463429E+03</pdfrwt>
<pdfrwt beam="2">  1       21 0.19499116E-01 0.17463429E+03</pdfrwt>
<totfact> 0.16786643E+05</totfact>
</mgrwt>
</event>
<event>
12    1  0.1441827E-001  0.2208852E+03  0.7546771E-02  0.1133378E+00
         21   -1    0    0  504  503  0.00000000000E+00  0.00000000000E+00  0.48982884480E+03  0.48982884480E+03  0.00000000000E+00 0. -1.
         21   -1    0    0  502  504 -0.00000000000E+00 -0.00000000000E+00 -0.22651336601E+03  0.22651336601E+03  0.00000000000E+00 0.  1.
          6    2    1    2  502    0 -0.87463839717E+02 -0.10307280871E+03 -0.13671973802E+03  0.25977407997E+03  0.17468932052E+03 0.  0.
         24    2    3    3    0    0  0.11124430228E+02 -0.76451550692E+02 -0.35458041439E+02  0.11588398460E+03  0.78760603311E+02 0.  0.
         -6    2    1    2    0  503  0.87463839717E+02  0.10307280871E+03  0.40003521682E+03  0.45656813084E+03  0.17364433839E+03 0.  0.
        -24    2    5    5    0    0 -0.11609305281E+02  0.60678156559E+02  0.12412340248E+03  0.16032125089E+03  0.80496396137E+02 0.  0.
          2    1    4    4  501    0  0.11507767240E+02 -0.78616535958E+02  0.90010982144E+00  0.79459414990E+02  0.00000000000E+00 0. -1.
         -1    1    4    4    0  501 -0.38333701230E+00  0.21649852660E+01 -0.36358151261E+02  0.36424569614E+02  0.00000000000E+00 0.  1.
          5    1    3    3  502    0 -0.98588269945E+02 -0.26621258022E+02 -0.10126169658E+03  0.14389009536E+03  0.47000000000E+01 0. -1.
         11    1    6    6    0    0  0.13713666811E+02  0.44962773360E+02  0.12164913515E+03  0.13041559618E+03  0.00000000000E+00 0. -1.
        -12    1    6    6    0    0 -0.25322972092E+02  0.15715383199E+02  0.24742673331E+01  0.29905654707E+02  0.00000000000E+00 0.  1.
         -5    1    5    5    0  503  0.99073144998E+02  0.42394652155E+02  0.27591181434E+03  0.29624687995E+03  0.47000000000E+01 0.  1.
<mgrwt>
<rscale>  2 0.22067857E+03</rscale>
<asrwt>0</asrwt>
<pdfrwt beam="1">  1       21 0.75358283E-01 0.22088523E+03</pdfrwt>
<pdfrwt beam="2">  1       21 0.34848210E-01 0.22088523E+03</pdfrwt>
<totfact> 0.12261284E+04</totfact>
</mgrwt>
</event>
<event>
12    1  0.1441827E-001  0.2149827E+03  0.7546771E-02  0.1137883E+00
         21   -1    0    0  504  503  0.00000000000E+00  0.00000000000E+00  0.70779606897E+03  0.70779606897E+03  0.00000000000E+00 0. -1.
         21   -1    0    0  502  504 -0.00000000000E+00 -0.00000000000E+00 -0.66934502161E+02  0.66934502161E+02  0.00000000000E+00 0. -1.
          6    2    1    2  502    0 -0.12753609031E+03  0.50338580418E+01  0.25342144228E+03  0.33164207588E+03  0.17167773597E+03 0.  0.
         24    2    3    3    0    0 -0.12164600584E+02 -0.15991460536E+02  0.49872040820E+02  0.96680177910E+02  0.80350059289E+02 0.  0.
         -6    2    1    2    0  503  0.12753609031E+03 -0.50338580418E+01  0.38744012453E+03  0.44308849525E+03  0.17299355615E+03 0.  0.
        -24    2    5    5    0    0  0.52830120450E+02  0.38879123775E+02  0.31023451062E+03  0.32693287238E+03  0.79605549873E+02 0.  0.
          2    1    4    4  501    0 -0.19656538848E+02  0.28383141378E+02  0.35300703010E+02  0.49377341635E+02  0.00000000000E+00 0. -1.
         -1    1    4    4    0  501  0.74919382635E+01 -0.44374601915E+02  0.14571337810E+02  0.47302836275E+02  0.00000000000E+00 0.  1.
          5    1    3    3  502    0 -0.11537148973E+03  0.21025318578E+02  0.20354940146E+03  0.23496189797E+03  0.47000000000E+01 0. -1.
         13    1    6    6    0    0  0.14701955750E+02  0.88214282214E+01  0.24507557788E+03  0.24567458960E+03  0.00000000000E+00 0. -1.
        -14    1    6    6    0    0  0.38128164700E+02  0.30057695554E+02  0.65158932735E+02  0.81258282782E+02  0.00000000000E+00 0.  1.
         -5    1    5    5    0  503  0.74705969863E+02 -0.43912981817E+02  0.77205613907E+02  0.11615562287E+03  0.47000000000E+01 0.  1.
<mgrwt>
<rscale>  2 0.21471787E+03</rscale>
<asrwt>0</asrwt>
<pdfrwt beam="1">  1       21 0.10889170E+00 0.21498271E+03</pdfrwt>
<pdfrwt beam="2">  1       21 0.10297616E-01 0.21498271E+03</pdfrwt>
<totfact> 0.50982576E+04</totfact>
</mgrwt>
</event>
<event>
12    1  0.1441827E-001  0.3585908E+03  0.7546771E-02  0.1059305E+00
         21   -1    0    0  504  503  0.00000000000E+00  0.00000000000E+00  0.14846144248E+04  0.14846144248E+04  0.00000000000E+00 0.  1.
         21   -1    0    0  502  504 -0.00000000000E+00 -0.00000000000E+00 -0.14342581043E+03  0.14342581043E+03  0.00000000000E+00 0. -1.
          6    2    1    2  502    0  0.27283369045E+03  0.15207811892E+03  0.15559668457E+03  0.38940566156E+03  0.17280180586E+03 0.  0.
         24    2    3    3    0    0  0.27969894537E+03  0.10947733729E+03  0.13594266407E+03  0.34175769369E+03  0.90006254568E+02 0.  0.
         -6    2    1    2    0  503 -0.27283369045E+03 -0.15207811892E+03  0.11855919298E+04  0.12386345737E+04  0.17612894761E+03 0.  0.
        -24    2    5    5    0    0 -0.69126405441E+02 -0.57606307643E+02  0.58500420949E+03  0.59742534036E+03  0.81179834797E+02 0.  0.
          4    1    4    4  501    0  0.59528692103E+02  0.27210407829E+02 -0.83175144976E+01  0.65979182513E+02  0.00000000000E+00 0. -1.
         -3    1    4    4    0  501  0.22017025327E+03  0.82266929458E+02  0.14426017857E+03  0.27577851118E+03  0.00000000000E+00 0.  1.
          5    1    3    3  502    0 -0.68652549199E+01  0.42600781628E+02  0.19654020492E+02  0.47647967868E+02  0.47000000000E+01 0. -1.
         13    1    6    6    0    0 -0.41800710258E+02 -0.72343982288E+02  0.32475561765E+03  0.33533142165E+03  0.00000000000E+00 0. -1.
        -14    1    6    6    0    0 -0.27325695183E+02  0.14737674645E+02  0.26024859184E+03  0.26209391871E+03  0.00000000000E+00 0.  1.
         -5    1    5    5    0  503 -0.20370728501E+03 -0.94471811272E+02  0.60058772036E+03  0.64120923335E+03  0.47000000000E+01 0.  1.
<mgrwt>
<rscale>  2 0.35818453E+03</rscale>
<asrwt>0</asrwt>
<pdfrwt beam="1">  1       21 0.22840221E+00 0.35859083E+03</pdfrwt>
<pdfrwt beam="2">  1       21 0.22065510E-01 0.35859083E+03</pdfrwt>
<totfact> 0.14996512E+03</totfact>
</mgrwt>
</event>
<event>
12    1  0.1441827E-001  0.2514101E+03  0.7546771E-02  0.1112690E+00
         21   -1    0    0  504  503  0.00000000000E+00  0.00000000000E+00  0.19337761462E+03  0.19337761462E+03  0.00000000000E+00 0. -1.
         21   -1    0    0  502  504 -0.00000000000E+00 -0.00000000000E+00 -0.64915659378E+03  0.64915659378E+03  0.00000000000E+00 0. -1.
          6    2    1    2  502    0  0.72424037236E+02  0.17011654866E+03 -0.52614858646E+03  0.58312896536E+03  0.17035895608E+03 0.  0.
         24    2    3    3    0    0  0.82579221845E+01 -0.47671932054E+01 -0.17217078813E+03  0.18309898499E+03  0.61575470833E+02 0.  0.
         -6    2    1    2    0  503 -0.72424037236E+02 -0.17011654866E+03  0.70369607307E+02  0.25940524304E+03  0.16779248251E+03 0.  0.
        -24    2    5    5    0    0  0.24872502889E+02 -0.81974850055E+02  0.40047925857E+02  0.12458287798E+03  0.81108197364E+02 0.  0.
          4    1    4    4  501    0 -0.22944496960E+02 -0.11099721341E+02 -0.11369912943E+03  0.11652101007E+03  0.00000000000E+00 0. -1.
         -3    1    4    4    0  501  0.31202419145E+02  0.63325281357E+01 -0.58471658706E+02  0.66577974923E+02  0.00000000000E+00 0.  1.
          5    1    3    3  502    0  0.64166115052E+02  0.17488374186E+03 -0.35397779833E+03  0.40002998037E+03  0.47000000000E+01 0. -1.
         13    1    6    6    0    0 -0.75810952980E+01 -0.82002493299E+02  0.15279875713E+02  0.83757725106E+02  0.00000000000E+00 0. -1.
        -14    1    6    6    0    0  0.32453598187E+02  0.27643244394E-01  0.24768050144E+02  0.40825152877E+02  0.00000000000E+00 0.  1.
         -5    1    5    5    0  503 -0.97296540125E+02 -0.88141698603E+02  0.30321681450E+02  0.13482236505E+03  0.47000000000E+01 0.  1.
<mgrwt>
<rscale>  2 0.25097602E+03</rscale>
<asrwt>0</asrwt>
<pdfrwt beam="1">  1       21 0.29750402E-01 0.25141013E+03</pdfrwt>
<pdfrwt beam="2">  1       21 0.99870247E-01 0.25141013E+03</pdfrwt>
<totfact> 0.85839987E+03</totfact>
</mgrwt>
</event>
<event>
12    1  0.1441827E-001  0.2375606E+03  0.7546771E-02  0.1121624E+00
         21   -1    0    0  504  503  0.00000000000E+00  0.00000000000E+00  0.54304982344E+02  0.54304982344E+02  0.00000000000E+00 0.  1.
         21   -1    0    0  502  504 -0.00000000000E+00 -0.00000000000E+00 -0.10853548145E+04  0.10853548145E+04  0.00000000000E+00 0. -1.
          6    2    1    2  502    0  0.14953064835E+03 -0.48593473261E+02 -0.63806218402E+03  0.68044922953E+03  0.17654195777E+03 0.  0.
         24    2    3    3    0    0  0.10327787129E+03 -0.10021940794E+03 -0.49883770432E+03  0.52485327115E+03  0.76952274543E+02 0.  0.
         -6    2    1    2    0  503 -0.14953064835E+03  0.48593473261E+02 -0.39298764819E+03  0.45921056736E+03  0.17808512883E+03 0.  0.
        -24    2    5    5    0    0 -0.72474882224E+02  0.92443954709E+02 -0.17581458678E+03  0.22459026897E+03  0.75706846962E+02 0.  0.
          4    1    4    4  501    0  0.20871025653E+02 -0.54624768937E+02 -0.28889760182E+03  0.29475632212E+03  0.00000000000E+00 0. -1.
         -3    1    4    4    0  501  0.82406845634E+02 -0.45594639005E+02 -0.20994010250E+03  0.23009694902E+03  0.00000000000E+00 0.  1.
          5    1    3    3  502    0  0.46252777061E+02  0.51625934681E+02 -0.13922447970E+03  0.15559595839E+03  0.47000000000E+01 0. -1.
         11    1    6    6    0    0 -0.78894779210E+01  0.10808667917E+02 -0.86208507767E+02  0.87240919157E+02  0.00000000000E+00 0. -1.
        -12    1    6    6    0    0 -0.64585404303E+02  0.81635286792E+02 -0.89606079015E+02  0.13734934982E+03  0.00000000000E+00 0.  1.
         -5    1    5    5    0  503 -0.77055766124E+02 -0.43850481448E+02 -0.21717306141E+03  0.23462029839E+03  0.47000000000E+01 0.  1.
<mgrwt>
<rscale>  2 0.23727145E+03</rscale>
<asrwt>0</asrwt>
<pdfrwt beam="1">  1       21 0.83546134E-02 0.23756063E+03</pdfrwt>
<pdfrwt beam="2">  1       21 0.16697765E+00 0.23756063E+03</pdfrwt>
<totfact> 0.24240739E+04</totfact>
</mgrwt>
</event>
<event>
12    1  0.1441827E-001  0.1836107E+03  0.7546771E-02  0.1164482E+00
         21   -1    0    0  504  503  0.00000000000E+00  0.00000000000E+00  0.72917669646E+03  0.72917669646E+03  0.00000000000E+00 0. -1.
         21   -1    0    0  502  504 -0.00000000000E+00 -0.00000000000E+00 -0.67291236393E+03  0.67291236393E+03  0.00000000000E+00 0. -1.
          6    2    1    2  502    0 -0.11507339218E+02  0.61330895932E+02 -0.64847692353E+03  0.67382184889E+03  0.17210364913E+03 0.  0.
         24    2    3    3    0    0 -0.83664250587E+01 -0.11874964732E+02 -0.15760411781E+03  0.17748812571E+03  0.80324124398E+02 0.  0.
         -6    2    1    2    0  503  0.11507339218E+02 -0.61330895932E+02  0.70474125606E+03  0.72826721150E+03  0.17268177581E+03 0.  0.
        -24    2    5    5    0    0 -0.23860102630E+02 -0.16067742175E+02  0.61915591289E+03  0.62508509097E+03  0.80931141411E+02 0.  0.
          2    1    4    4  501    0  0.32660779911E+02 -0.21977975207E+02 -0.74833825219E+02  0.84556840856E+02  0.00000000000E+00 0. -1.
         -1    1    4    4    0  501 -0.41027204970E+02  0.10103010475E+02 -0.82770292591E+02  0.92931284850E+02  0.00000000000E+00 0.  1.
          5    1    3    3  502    0 -0.31409141597E+01  0.73205860664E+02 -0.49087280572E+03  0.49633372319E+03  0.47000000000E+01 0. -1.
         11    1    6    6    0    0 -0.18192161969E+01  0.26383469658E+02  0.39491316136E+03  0.39579767816E+03  0.00000000000E+00 0. -1.
        -12    1    6    6    0    0 -0.22040886433E+02 -0.42451211834E+02  0.22424275153E+03  0.22928741282E+03  0.00000000000E+00 0.  1.
         -5    1    5    5    0  503  0.35367441849E+02 -0.45263153756E+02  0.85585343173E+02  0.10318212053E+03  0.47000000000E+01 0.  1.
<mgrwt>
<rscale>  2 0.18347466E+03</rscale>
<asrwt>0</asrwt>
<pdfrwt beam="1">  1       21 0.11218103E+00 0.18361071E+03</pdfrwt>
<pdfrwt beam="2">  1       21 0.10352498E+00 0.18361071E+03</pdfrwt>
<totfact> 0.47562216E+02</totfact>
</mgrwt>
</event>
<event>
12    1  0.1441827E-001  0.2092983E+03  0.7546771E-02  0.1142483E+00
         21   -1    0    0  504  503  0.00000000000E+00  0.00000000000E+00  0.17491068716E+04  0.17491068716E+04  0.00000000000E+00 0.  1.
         21   -1    0    0  502  504 -0.00000000000E+00 -0.00000000000E+00 -0.30114902348E+02  0.30114902348E+02  0.00000000000E+00 0.  1.
          6    2    1    2  502    0 -0.93157256342E+02  0.72750198837E+02  0.48986738677E+03  0.53270613280E+03  0.17272782479E+03 0.  0.
         24    2    3    3    0    0 -0.94008416725E+02  0.11209193750E+03  0.42628907196E+03  0.45778758377E+03  0.80280222392E+02 0.  0.
         -6    2    1    2    0  503  0.93157256342E+02 -0.72750198837E+02  0.12291245825E+04  0.12465156412E+04  0.17053779211E+03 0.  0.
        -24    2    5    5    0    0  0.63161611724E+02 -0.10947681309E+03  0.69883149486E+03  0.71408589774E+03  0.74690356419E+02 0.  0.
          4    1    4    4  501    0 -0.43481779091E+02  0.16673736728E+02  0.22082382325E+03  0.22568083553E+03  0.00000000000E+00 0. -1.
         -3    1    4    4    0  501 -0.50526637635E+02  0.95418200772E+02  0.20546524871E+03  0.23210674824E+03  0.00000000000E+00 0.  1.
          5    1    3    3  502    0  0.85116038310E+00 -0.39341738663E+02  0.63578314811E+02  0.74918549034E+02  0.47000000000E+01 0. -1.
         13    1    6    6    0    0 -0.11393974823E+02 -0.41825761182E+02  0.27930876320E+03  0.28265279436E+03  0.00000000000E+00 0. -1.
        -14    1    6    6    0    0  0.74555586547E+02 -0.67651051911E+02  0.41952273165E+03  0.43143310337E+03  0.00000000000E+00 0.  1.
         -5    1    5    5    0  503  0.29995644618E+02  0.36726614256E+02  0.53029308763E+03  0.53242974342E+03  0.47000000000E+01 0.  1.
<mgrwt>
<rscale>  2 0.20884589E+03</rscale>
<asrwt>0</asrwt>
<pdfrwt beam="1">  1       21 0.26909329E+00 0.20929827E+03</pdfrwt>
<pdfrwt beam="2">  1       21 0.46330633E-02 0.20929827E+03</pdfrwt>
<totfact> 0.15505305E+04</totfact>
</mgrwt>
</event>
<event>
12    1  0.1441827E-001  0.1866939E+03  0.7546771E-02  0.1161881E+00
         21   -1    0    0  504  503  0.00000000000E+00  0.00000000000E+00  0.20662142565E+04  0.20662142565E+04  0.00000000000E+00 0. -1.
         21   -1    0    0  502  504 -0.00000000000E+00 -0.00000000000E+00 -0.44381414891E+02  0.44381414891E+02  0.00000000000E+00 0. -1.
          6    2    1    2  502    0 -0.18331775051E+02  0.63648830857E+02  0.17945277622E+03  0.25895539789E+03  0.17454905201E+03 0.  0.
         24    2    3    3    0    0  0.35471930298E+02 -0.95432987367E+01  0.94624292953E+02  0.13457739293E+03  0.88362805988E+02 0.  0.
         -6    2    1    2    0  503  0.18331775051E+02 -0.63648830857E+02  0.18423800654E+04  0.18516402735E+04  0.17268517441E+03 0.  0.
        -24    2    5    5    0    0  0.10132764981E+02  0.54631529009E+01  0.15027897190E+04  0.15049597528E+04  0.79964986597E+02 0.  0.
          4    1    4    4  501    0  0.27102059850E+02  0.33396135061E+02  0.75374108471E+02  0.86781793672E+02  0.00000000000E+00 0. -1.
         -3    1    4    4    0  501  0.83698704487E+01 -0.42939433798E+02  0.19250184482E+02  0.47795599262E+02  0.00000000000E+00 0.  1.
          5    1    3    3  502    0 -0.53803705349E+02  0.73192129594E+02  0.84828483270E+02  0.12437800496E+03  0.47000000000E+01 0. -1.
         13    1    6    6    0    0 -0.33692551822E+01 -0.25639534275E+02  0.11998089075E+04  0.12000875602E+04  0.00000000000E+00 0. -1.
        -14    1    6    6    0    0  0.13502020163E+02  0.31102687176E+02  0.30298081149E+03  0.30487219262E+03  0.00000000000E+00 0.  1.
         -5    1    5    5    0  503  0.81990100703E+01 -0.69111983758E+02  0.33959034639E+03  0.34668052069E+03  0.47000000000E+01 0.  1.
<mgrwt>
<rscale>  2 0.18625697E+03</rscale>
<asrwt>0</asrwt>
<pdfrwt beam="1">  1       21 0.31787904E+00 0.18669386E+03</pdfrwt>
<pdfrwt beam="2">  1       21 0.68279116E-02 0.18669386E+03</pdfrwt>
<totfact> 0.42828525E+03</totfact>
</mgrwt>
</event>
<event>
12    1  0.1441827E-001  0.2942489E+03  0.7546771E-02  0.1088414E+00
         21   -1    0    0  504  503  0.00000000000E+00  0.00000000000E+00  0.26390124207E+03  0.26390124207E+03  0.00000000000E+00 0. -1.
         21   -1    0    0  502  504 -0.00000000000E+00 -0.00000000000E+00 -0.47107082069E+03  0.47107082069E+03  0.00000000000E+00 0. -1.
          6    2    1    2  502    0  0.49577142863E+02  0.23296689713E+03 -0.30739644313E+03  0.42412189769E+03  0.16927889000E+03 0.  0.
         24    2    3    3    0    0  0.75256679156E+02  0.18316934304E+03 -0.16112447328E+03  0.26741575824E+03  0.79595953915E+02 0.  0.
         -6    2    1    2    0  503 -0.49577142863E+02 -0.23296689713E+03  0.10022686450E+03  0.31085016507E+03  0.17277422407E+03 0.  0.
        -24    2    5    5    0    0  0.34359048014E+02 -0.72759247119E+02  0.29352768390E+02  0.11653855255E+03  0.79026558799E+02 0.  0.
          4    1    4    4  501    0  0.50875887755E+02  0.17360709402E+03 -0.11497310247E+03  0.21435156483E+03  0.00000000000E+00 0. -1.
         -3    1    4    4    0  501  0.24380791401E+02  0.95622490114E+01 -0.46151370807E+02  0.53064193416E+02  0.00000000000E+00 0.  1.
          5    1    3    3  502    0 -0.25679536293E+02  0.49797554097E+02 -0.14627196984E+03  0.15670613945E+03  0.47000000000E+01 0. -1.
         13    1    6    6    0    0 -0.12930617507E+02 -0.49021335711E+02  0.37422254534E+02  0.63013628354E+02  0.00000000000E+00 0. -1.
        -14    1    6    6    0    0  0.47289665521E+02 -0.23737911408E+02 -0.80694861440E+01  0.53524924192E+02  0.00000000000E+00 0.  1.
         -5    1    5    5    0  503 -0.83936190877E+02 -0.16020765001E+03  0.70874096115E+02  0.19431161253E+03  0.47000000000E+01 0.  1.
<mgrwt>
<rscale>  2 0.29373788E+03</rscale>
<asrwt>0</asrwt>
<pdfrwt beam="1">  1       21 0.40600191E-01 0.29424888E+03</pdfrwt>
<pdfrwt beam="2">  1       21 0.72472433E-01 0.29424888E+03</pdfrwt>
<totfact> 0.94591634E+03</totfact>
</mgrwt>
</event>
<event>
12    1  0.1441827E-001  0.3143014E+03  0.7546771E-02  0.1078350E+00
         21   -1    0    0  504  503  0.00000000000E+00  0.00000000000E+00  0.16209065809E+03  0.16209065809E+03  0.00000000000E+00 0.  1.
         21   -1    0    0  502  504 -0.00000000000E+00 -0.00000000000E+00 -0.76297118949E+03  0.76297118949E+03  0.00000000000E+00 0. -1.
          6    2    1    2  502    0 -0.25110253888E+03 -0.75196155133E+02 -0.50860101078E+03  0.59787990788E+03  0.17343139655E+03 0.  0.
         24    2    3    3    0    0 -0.23948755719E+03 -0.11022059038E+03 -0.42750868176E+03  0.50866289891E+03  0.80445031912E+02 0.  0.
         -6    2    1    2    0  503  0.25110253888E+03  0.75196155133E+02 -0.92279520623E+02  0.32718193969E+03  0.17270079605E+03 0.  0.
        -24    2    5    5    0    0  0.66341647568E+02 -0.24420797877E+02 -0.34611166893E+02  0.10944849415E+03  0.76049000171E+02 0.  0.
          2    1    4    4  501    0 -0.10792783103E+03 -0.75674440125E+01 -0.18433723886E+03  0.21374260350E+03  0.00000000000E+00 0. -1.
         -1    1    4    4    0  501 -0.13155972616E+03 -0.10265314637E+03 -0.24317144290E+03  0.29492029541E+03  0.00000000000E+00 0.  1.
          5    1    3    3  502    0 -0.11614981690E+02  0.35024435245E+02 -0.81092329019E+02  0.89217008970E+02  0.47000000000E+01 0. -1.
         13    1    6    6    0    0  0.29360157292E+02  0.15886328967E+02 -0.42647926822E+02  0.54159393890E+02  0.00000000000E+00 0. -1.
        -14    1    6    6    0    0  0.36981490276E+02 -0.40307126844E+02  0.80367599290E+01  0.55289100261E+02  0.00000000000E+00 0.  1.
         -5    1    5    5    0  503  0.18476089131E+03  0.99616953011E+02 -0.57668353730E+02  0.21773344554E+03  0.47000000000E+01 0.  1.
<mgrwt>
<rscale>  2 0.31420075E+03</rscale>
<asrwt>0</asrwt>
<pdfrwt beam="1">  1       21 0.24937024E-01 0.31430144E+03</pdfrwt>
<pdfrwt beam="2">  1       21 0.11738018E+00 0.31430144E+03</pdfrwt>
<totfact> 0.78960451E+03</totfact>
</mgrwt>
</event>
<event>
12    1  0.1441827E-001  0.2656697E+03  0.7546771E-02  0.1103785E+00
         21   -1    0    0  504  503  0.00000000000E+00  0.00000000000E+00  0.20489123103E+03  0.20489123103E+03  0.00000000000E+00 0.  1.
         21   -1    0    0  502  504 -0.00000000000E+00 -0.00000000000E+00 -0.39995834401E+03  0.39995834401E+03  0.00000000000E+00 0.  1.
          6    2    1    2  502    0 -0.13858004350E+03  0.14668712642E+03 -0.21018257737E+03  0.33875820509E+03  0.17279717642E+03 0.  0.
         24    2    3    3    0    0 -0.13223777759E+03  0.13994818372E+03 -0.23358881350E+03  0.31315391687E+03  0.80183027571E+02 0.  0.
         -6    2    1    2    0  503  0.13858004350E+03 -0.14668712642E+03  0.15115464379E+02  0.26609136994E+03  0.17278483262E+03 0.  0.
        -24    2    5    5    0    0  0.63931829801E+02 -0.14356082561E+03 -0.33155563826E+02  0.17701661634E+03  0.74421781337E+02 0.  0.
          4    1    4    4  501    0 -0.53549686257E+02  0.65640094498E+02 -0.16370237026E+03  0.18432215530E+03  0.00000000000E+00 0. -1.
         -3    1    4    4    0  501 -0.78688091330E+02  0.74308089226E+02 -0.69886443236E+02  0.12883176157E+03  0.00000000000E+00 0.  1.
          5    1    3    3  502    0 -0.63422659155E+01  0.67389426907E+01  0.23406236133E+02  0.25604288224E+02  0.47000000000E+01 0. -1.
         11    1    6    6    0    0  0.38130687563E+02 -0.12835926801E+02 -0.12824579772E+02  0.42227718352E+02  0.00000000000E+00 0. -1.
        -12    1    6    6    0    0  0.25801142239E+02 -0.13072489880E+03 -0.20330984055E+02  0.13478889799E+03  0.00000000000E+00 0.  1.
         -5    1    5    5    0  503  0.74648213701E+02 -0.31263008090E+01  0.48271028206E+02  0.89074753604E+02  0.47000000000E+01 0.  1.
<mgrwt>
<rscale>  2 0.26566772E+03</rscale>
<asrwt>0</asrwt>
<pdfrwt beam="1">  1       21 0.31521728E-01 0.26566973E+03</pdfrwt>
<pdfrwt beam="2">  1       21 0.61532052E-01 0.26566973E+03</pdfrwt>
<totfact> 0.22867324E+04</totfact>
</mgrwt>
</event>
<event>
12    1  0.1441827E-001  0.2464037E+03  0.7546771E-02  0.1115718E+00
         21   -1    0    0  504  503  0.00000000000E+00  0.00000000000E+00  0.11035886110E+04  0.11035886110E+04  0.00000000000E+00 0.  1.
         21   -1    0    0  502  504 -0.00000000000E+00 -0.00000000000E+00 -0.70046555359E+02  0.70046555359E+02  0.00000000000E+00 0.  1.
          6    2    1    2  502    0 -0.17373358018E+03 -0.25244991239E+02  0.79069278413E+03  0.82819674925E+03  0.17289913281E+03 0.  0.
         24    2    3    3    0    0 -0.91668622156E+02 -0.65410665643E+02  0.60369164051E+03  0.62001544257E+03  0.85404102556E+02 0.  0.
         -6    2    1    2    0  503  0.17373358018E+03  0.25244991239E+02  0.24284927152E+03  0.34543841712E+03  0.17184663185E+03 0.  0.
        -24    2    5    5    0    0  0.16088356115E+03 -0.97828147881E+01  0.12312210569E+03  0.21994437574E+03  0.85072038860E+02 0.  0.
          4    1    4    4  501    0 -0.16281627051E+02 -0.21699493357E+02  0.33049194169E+02  0.42757556368E+02  0.00000000000E+00 0. -1.
         -3    1    4    4    0  501 -0.75386995105E+02 -0.43711172286E+02  0.57064244634E+03  0.57725788620E+03  0.00000000000E+00 0.  1.
          5    1    3    3  502    0 -0.82064958023E+02  0.40165674404E+02  0.18700114362E+03  0.20818130668E+03  0.47000000000E+01 0. -1.
         13    1    6    6    0    0  0.14247481309E+03 -0.74011980892E+01  0.13619697163E+03  0.19723961362E+03  0.00000000000E+00 0. -1.
        -14    1    6    6    0    0  0.18408748057E+02 -0.23816166988E+01 -0.13074865948E+02  0.22704762115E+02  0.00000000000E+00 0.  1.
         -5    1    5    5    0  503  0.12850019029E+02  0.35027806027E+02  0.11972716583E+03  0.12549404138E+03  0.47000000000E+01 0.  1.
<mgrwt>
<rscale>  2 0.24621913E+03</rscale>
<asrwt>0</asrwt>
<pdfrwt beam="1">  1       21 0.16978285E+00 0.24640369E+03</pdfrwt>
<pdfrwt beam="2">  1       21 0.10776394E-01 0.24640369E+03</pdfrwt>
<totfact> 0.14678075E+04</totfact>
</mgrwt>
</event>
<event>
12    1  0.1441827E-001  0.2398907E+03  0.7546771E-02  0.1119895E+00
         21   -1    0    0  504  503  0.00000000000E+00  0.00000000000E+00  0.13516674446E+03  0.13516674446E+03  0.00000000000E+00 0.  1.
         21   -1    0    0  502  504 -0.00000000000E+00 -0.00000000000E+00 -0.49187957971E+03  0.49187957971E+03  0.00000000000E+00 0. -1.
          6    2    1    2  502    0  0.16664592192E+03 -0.24108266774E+01 -0.29352759578E+03  0.37897393051E+03  0.17229659063E+03 0.  0.
         24    2    3    3    0    0  0.92751870130E+02 -0.62772534764E+02 -0.21251003248E+03  0.25371498968E+03  0.81654648079E+02 0.  0.
         -6    2    1    2    0  503 -0.16664592192E+03  0.24108266774E+01 -0.63185239472E+02  0.24807239366E+03  0.17254235025E+03 0.  0.
        -24    2    5    5    0    0 -0.12868181788E+03  0.65751453028E+02 -0.39475641065E+02  0.17037076434E+03  0.81151754613E+02 0.  0.
          4    1    4    4  501    0  0.79754391230E+02 -0.79367496153E+01 -0.14588898976E+03  0.16645525599E+03  0.00000000000E+00 0. -1.
         -3    1    4    4    0  501  0.12997478899E+02 -0.54835785148E+02 -0.66621042718E+02  0.87259733688E+02  0.00000000000E+00 0.  1.
          5    1    3    3  502    0  0.73894051789E+02  0.60361708086E+02 -0.81017563303E+02  0.12525894082E+03  0.47000000000E+01 0. -1.
         11    1    6    6    0    0  0.72108959305E+01 -0.24335628484E+01  0.80483983343E+01  0.11076821024E+02  0.00000000000E+00 0. -1.
        -12    1    6    6    0    0 -0.13589271381E+03  0.68185015877E+02 -0.47524039399E+02  0.15929394332E+03  0.00000000000E+00 0.  1.
         -5    1    5    5    0  503 -0.37964104040E+02 -0.63340626351E+02 -0.23709598407E+02  0.77701629318E+02  0.47000000000E+01 0.  1.
<mgrwt>
<rscale>  2 0.23984649E+03</rscale>
<asrwt>0</asrwt>
<pdfrwt beam="1">  1       21 0.20794884E-01 0.23989068E+03</pdfrwt>
<pdfrwt beam="2">  1       21 0.75673782E-01 0.23989068E+03</pdfrwt>
<totfact> 0.32648362E+04</totfact>
</mgrwt>
</event>
<event>
12    1  0.1441827E-001  0.1857085E+03  0.7546771E-02  0.1162729E+00
         21   -1    0    0  504  503  0.00000000000E+00  0.00000000000E+00  0.10575595381E+03  0.10575595381E+03  0.00000000000E+00 0. -1.
         21   -1    0    0  502  504 -0.00000000000E+00 -0.00000000000E+00 -0.94993645807E+03  0.94993645807E+03  0.00000000000E+00 0. -1.
          6    2    1    2  502    0  0.53542526773E+01  0.65624729347E+02 -0.85128173239E+03  0.87130261191E+03  0.17364440819E+03 0.  0.
         24    2    3    3    0    0 -0.29774386367E+02 -0.24265454338E+02 -0.42149646376E+03  0.43078957745E+03  0.80281160391E+02 0.  0.
         -6    2    1    2    0  503 -0.53542526773E+01 -0.65624729347E+02  0.71012281286E+01  0.18438979997E+03  0.17208689017E+03 0.  0.
        -24    2    5    5    0    0 -0.44319942895E+02 -0.66183688329E+02 -0.42472060951E+02  0.12115817466E+03  0.80813918270E+02 0.  0.
          4    1    4    4  501    0 -0.18798042209E+00 -0.26356787604E+02 -0.38567676951E+02  0.46713823381E+02  0.00000000000E+00 0. -1.
         -3    1    4    4    0  501 -0.29586405945E+02  0.20913332665E+01 -0.38292878681E+03  0.38407575406E+03  0.00000000000E+00 0.  1.
          5    1    3    3  502    0  0.35128639044E+02  0.89890183685E+02 -0.42978526863E+03  0.44051303447E+03  0.47000000000E+01 0. -1.
         11    1    6    6    0    0 -0.20813375854E+02 -0.68542372401E+02  0.10467442793E+01  0.71640415286E+02  0.00000000000E+00 0. -1.
        -12    1    6    6    0    0 -0.23506567042E+02  0.23586840716E+01 -0.43518805231E+02  0.49517759373E+02  0.00000000000E+00 0.  1.
         -5    1    5    5    0  503  0.38965690218E+02  0.55895898175E+00  0.49573289080E+02  0.63231625311E+02  0.47000000000E+01 0.  1.
<mgrwt>
<rscale>  2 0.18534357E+03</rscale>
<asrwt>0</asrwt>
<pdfrwt beam="1">  1       21 0.16270147E-01 0.18570852E+03</pdfrwt>
<pdfrwt beam="2">  1       21 0.14614407E+00 0.18570852E+03</pdfrwt>
<totfact> 0.10877939E+04</totfact>
</mgrwt>
</event>
<event>
12    1  0.1441827E-001  0.2945950E+03  0.7546771E-02  0.1088718E+00
         21   -1    0    0  504  503  0.00000000000E+00  0.00000000000E+00  0.93056554991E+02  0.93056554991E+02  0.00000000000E+00 0. -1.
         21   -1    0    0  502  504 -0.00000000000E+00 -0.00000000000E+00 -0.14655690617E+04  0.14655690617E+04  0.00000000000E+00 0.  1.
          6    2    1    2  502    0 -0.18426979452E+03 -0.15152291158E+03 -0.11683412261E+04  0.12049097276E+04  0.17283425923E+03 0.  0.
         24    2    3    3    0    0 -0.13765282483E+03 -0.16767234555E+03 -0.10702083552E+04  0.10949729438E+04  0.80978444563E+02 0.  0.
         -6    2    1    2    0  503  0.18426979452E+03  0.15152291158E+03 -0.20417128058E+03  0.35371588906E+03  0.16283263940E+03 0.  0.
        -24    2    5    5    0    0  0.61336397021E+02  0.12885293849E+03 -0.12445740824E+03  0.20538201112E+03  0.79541754253E+02 0.  0.
          4    1    4    4  501    0 -0.43586489258E+02 -0.11250337295E+03 -0.63081033283E+03  0.64224486528E+03  0.00000000000E+00 0. -1.
         -3    1    4    4    0  501 -0.94066335575E+02 -0.55168972600E+02 -0.43939802236E+03  0.45272807852E+03  0.00000000000E+00 0.  1.
          5    1    3    3  502    0 -0.46616969686E+02  0.16149433971E+02 -0.98132870901E+02  0.10993678380E+03  0.47000000000E+01 0. -1.
         13    1    6    6    0    0 -0.14435837517E+02  0.38473457193E+02 -0.12977208602E+02  0.43093018649E+02  0.00000000000E+00 0. -1.
        -14    1    6    6    0    0  0.75772234538E+02  0.90379481294E+02 -0.11148019964E+03  0.16228899247E+03  0.00000000000E+00 0.  1.
         -5    1    5    5    0  503  0.12293339750E+03  0.22669973093E+02 -0.79713872340E+02  0.14833387794E+03  0.47000000000E+01 0.  1.
<mgrwt>
<rscale>  2 0.29314582E+03</rscale>
<asrwt>0</asrwt>
<pdfrwt beam="1">  1       21 0.14316392E-01 0.29459503E+03</pdfrwt>
<pdfrwt beam="2">  1       21 0.22547218E+00 0.29459503E+03</pdfrwt>
<totfact> 0.36563629E+03</totfact>
</mgrwt>
</event>
<event>
12    1  0.1441827E-001  0.2020594E+03  0.7546771E-02  0.1148472E+00
         21   -1    0    0  504  503  0.00000000000E+00  0.00000000000E+00  0.15739995894E+03  0.15739995894E+03  0.00000000000E+00 0. -1.
         21   -1    0    0  502  504 -0.00000000000E+00 -0.00000000000E+00 -0.27618937995E+03  0.27618937995E+03  0.00000000000E+00 0. -1.
          6    2    1    2  502    0  0.15985529056E+02  0.10043858749E+03 -0.11745267019E+03  0.23371596015E+03  0.17459831987E+03 0.  0.
         24    2    3    3    0    0  0.15131997235E+02  0.32170520338E+02 -0.13671070456E+03  0.16262292676E+03  0.80575925996E+02 0.  0.
         -6    2    1    2    0  503 -0.15985529056E+02 -0.10043858749E+03 -0.13367508164E+01  0.19987337873E+03  0.17205851803E+03 0.  0.
        -24    2    5    5    0    0 -0.53186840616E+02 -0.11399917973E+03  0.26125276464E+02  0.15145767688E+03  0.80201276933E+02 0.  0.
          4    1    4    4  501    0  0.17074081498E+01  0.44828746961E+02 -0.29170288881E+02  0.53511097448E+02  0.00000000000E+00 0. -1.
         -3    1    4    4    0  501  0.13424589086E+02 -0.12658226622E+02 -0.10754041568E+03  0.10911182932E+03  0.00000000000E+00 0.  1.
          5    1    3    3  502    0  0.85353182081E+00  0.68268067148E+02  0.19258034369E+02  0.71093033389E+02  0.47000000000E+01 0. -1.
         13    1    6    6    0    0 -0.31207719195E+02 -0.16935781647E+02  0.37076429639E+02  0.51336186771E+02  0.00000000000E+00 0. -1.
        -14    1    6    6    0    0 -0.21979121421E+02 -0.97063398081E+02 -0.10951153176E+02  0.10012149011E+03  0.00000000000E+00 0.  1.
         -5    1    5    5    0  503  0.37201311560E+02  0.13560592242E+02 -0.27462027280E+02  0.48415701855E+02  0.47000000000E+01 0.  1.
<mgrwt>
<rscale>  2 0.20150957E+03</rscale>
<asrwt>0</asrwt>
<pdfrwt beam="1">  1       21 0.24215378E-01 0.20205945E+03</pdfrwt>
<pdfrwt beam="2">  1       21 0.42490674E-01 0.20205945E+03</pdfrwt>
<totfact> 0.85430380E+04</totfact>
</mgrwt>
</event>
<event>
12    1  0.1441827E-001  0.3020432E+03  0.7546771E-02  0.1085612E+00
         21   -1    0    0  504  503  0.00000000000E+00  0.00000000000E+00  0.36891213617E+02  0.36891213617E+02  0.00000000000E+00 0.  1.
         21   -1    0    0  502  504 -0.00000000000E+00 -0.00000000000E+00 -0.23839047289E+04  0.23839047289E+04  0.00000000000E+00 0.  1.
          6    2    1    2  502    0  0.23378142756E+03  0.28495949607E+00 -0.12038633503E+04  0.12411756750E+04  0.19124919067E+03 0.  0.
         24    2    3    3    0    0  0.13023928404E+03  0.99034295571E+01 -0.10065834326E+04  0.10181175068E+04  0.79326552546E+02 0.  0.
         -6    2    1    2    0  503 -0.23378142756E+03 -0.28495949607E+00 -0.11431501650E+04  0.11796202675E+04  0.17337196650E+03 0.  0.
        -24    2    5    5    0    0 -0.25537936005E+03 -0.65745136046E+01 -0.10522893668E+04  0.10858983180E+04  0.81242868959E+02 0.  0.
          2    1    4    4  501    0  0.12250830842E+03  0.18749678738E+02 -0.67231408570E+03  0.68364176724E+03  0.00000000000E+00 0. -1.
         -1    1    4    4    0  501  0.77309756213E+01 -0.88462491814E+01 -0.33426934688E+03  0.33447573959E+03  0.00000000000E+00 0.  1.
          5    1    3    3  502    0  0.10354214352E+03 -0.96184700610E+01 -0.19727991773E+03  0.22305816818E+03  0.47000000000E+01 0. -1.
         11    1    6    6    0    0 -0.11088812027E+03 -0.50066652684E+01 -0.62650544460E+03  0.63626277121E+03  0.00000000000E+00 0. -1.
        -12    1    6    6    0    0 -0.14449123978E+03 -0.15678483362E+01 -0.42578392223E+03  0.44963554680E+03  0.00000000000E+00 0.  1.
         -5    1    5    5    0  503  0.21597932481E+02  0.62895541085E+01 -0.90860798159E+02  0.93721949512E+02  0.47000000000E+01 0.  1.
<mgrwt>
<rscale>  2 0.29925726E+03</rscale>
<asrwt>0</asrwt>
<pdfrwt beam="1">  1       21 0.56755701E-02 0.30204319E+03</pdfrwt>
<pdfrwt beam="2">  1       21 0.36675465E+00 0.30204319E+03</pdfrwt>
<totfact> 0.26788444E+03</totfact>
</mgrwt>
</event>
<event>
12    1  0.1441827E-001  0.1794748E+03  0.7546771E-02  0.1168365E+00
         21   -1    0    0  504  503  0.00000000000E+00  0.00000000000E+00  0.10372966608E+03  0.10372966608E+03  0.00000000000E+00 0.  1.
         21   -1    0    0  502  504 -0.00000000000E+00 -0.00000000000E+00 -0.38333755128E+03  0.38333755128E+03  0.00000000000E+00 0.  1.
          6    2    1    2  502    0 -0.43941337348E+02  0.21825379096E+02 -0.24614131973E+03  0.30449885763E+03  0.17241466504E+03 0.  0.
         24    2    3    3    0    0 -0.35848716721E+02  0.52885095859E+02 -0.25147196314E+03  0.27162482117E+03  0.80373698292E+02 0.  0.
         -6    2    1    2    0  503  0.43941337348E+02 -0.21825379096E+02 -0.33466565473E+02  0.18256835972E+03  0.17263836963E+03 0.  0.
        -24    2    5    5    0    0  0.75140361119E+02  0.46225420433E+01  0.90584744206E+01  0.12337933511E+03  0.97329145733E+02 0.  0.
          4    1    4    4  501    0 -0.24689865215E+02  0.42834427814E+02 -0.52605898616E+02  0.72192508058E+02  0.00000000000E+00 0. -1.
         -3    1    4    4    0  501 -0.11158851506E+02  0.10050668045E+02 -0.19886606453E+03  0.19943231312E+03  0.00000000000E+00 0.  1.
          5    1    3    3  502    0 -0.80926206267E+01 -0.31059716763E+02  0.53306434076E+01  0.32874036460E+02  0.47000000000E+01 0. -1.
         13    1    6    6    0    0  0.24462446245E+02  0.13265179223E+02 -0.42351000531E+02  0.50675275057E+02  0.00000000000E+00 0. -1.
        -14    1    6    6    0    0  0.50677914874E+02 -0.86426371801E+01  0.51409474951E+02  0.72704060053E+02  0.00000000000E+00 0.  1.
         -5    1    5    5    0  503 -0.31199023771E+02 -0.26447921140E+02 -0.42525039894E+02  0.59189024615E+02  0.47000000000E+01 0.  1.
<mgrwt>
<rscale>  2 0.17942096E+03</rscale>
<asrwt>0</asrwt>
<pdfrwt beam="1">  1       21 0.15958410E-01 0.17947478E+03</pdfrwt>
<pdfrwt beam="2">  1       21 0.58975008E-01 0.17947478E+03</pdfrwt>
<totfact> 0.94683774E+04</totfact>
</mgrwt>
</event>
<event>
12    1  0.1441827E-001  0.1875577E+03  0.7546771E-02  0.1160933E+00
         21   -1    0    0  504  503  0.00000000000E+00  0.00000000000E+00  0.68315310400E+03  0.68315310400E+03  0.00000000000E+00 0. -1.
         21   -1    0    0  502  504 -0.00000000000E+00 -0.00000000000E+00 -0.51196867233E+02  0.51196867233E+02  0.00000000000E+00 0. -1.
          6    2    1    2  502    0  0.35258152436E+02  0.60610008326E+02  0.31724525730E+03  0.36798825100E+03  0.17278335906E+03 0.  0.
         24    2    3    3    0    0  0.42254550896E+02  0.95249845164E+02  0.16372670204E+03  0.21038461938E+03  0.81223611322E+02 0.  0.
         -6    2    1    2    0  503 -0.35258152436E+02 -0.60610008326E+02  0.31471097946E+03  0.36636172024E+03  0.17395746330E+03 0.  0.
        -24    2    5    5    0    0 -0.66508129217E+02  0.45043559143E+01  0.19579464404E+03  0.22715099397E+03  0.93906394613E+02 0.  0.
          2    1    4    4  501    0  0.30430154515E+02  0.70614248554E+02  0.16602045726E+03  0.18296217815E+03  0.00000000000E+00 0. -1.
         -1    1    4    4    0  501  0.11824396381E+02  0.24635596610E+02 -0.22937552257E+01  0.27422441232E+02  0.00000000000E+00 0.  1.
          5    1    3    3  502    0 -0.69963984600E+01 -0.34639836837E+02  0.15351855527E+03  0.15760363162E+03  0.47000000000E+01 0. -1.
         11    1    6    6    0    0 -0.45795690241E+02  0.26358019115E+02  0.18904974622E+03  0.19629517814E+03  0.00000000000E+00 0. -1.
        -12    1    6    6    0    0 -0.20712438976E+02 -0.21853663200E+02  0.67448978277E+01  0.30855815826E+02  0.00000000000E+00 0.  1.
         -5    1    5    5    0  503  0.31249976780E+02 -0.65114364241E+02  0.11891633542E+03  0.13921072627E+03  0.47000000000E+01 0.  1.
<mgrwt>
<rscale>  2 0.18728504E+03</rscale>
<asrwt>0</asrwt>
<pdfrwt beam="1">  1       21 0.10510047E+00 0.18755775E+03</pdfrwt>
<pdfrwt beam="2">  1       21 0.78764416E-02 0.18755775E+03</pdfrwt>
<totfact> 0.90071679E+04</totfact>
</mgrwt>
</event>
<event>
12    1  0.1441827E-001  0.1979266E+03  0.7546771E-02  0.1152194E+00
         21   -1    0    0  504  503  0.00000000000E+00  0.00000000000E+00  0.67372508072E+03  0.67372508072E+03  0.00000000000E+00 0. -1.
         21   -1    0    0  502  504 -0.00000000000E+00 -0.00000000000E+00 -0.59516035516E+02  0.59516035516E+02  0.00000000000E+00 0. -1.
          6    2    1    2  502    0  0.34696469795E+02  0.83582285752E+02  0.23728620745E+03  0.30899786280E+03  0.17602582612E+03 0.  0.
         24    2    3    3    0    0 -0.15282959492E+02 -0.12768433962E+02  0.13975445569E+03  0.16299807807E+03  0.81489041048E+02 0.  0.
         -6    2    1    2    0  503 -0.34696469795E+02 -0.83582285752E+02  0.37692283775E+03  0.42424325343E+03  0.17239973595E+03 0.  0.
        -24    2    5    5    0    0  0.12098100725E+02 -0.11051684401E+03  0.26553867915E+03  0.30037347081E+03  0.85750189466E+02 0.  0.
          2    1    4    4  501    0 -0.70220718747E+01 -0.41848600510E+01 -0.99178140291E+01  0.12852454325E+02  0.00000000000E+00 0. -1.
         -1    1    4    4    0  501 -0.82608876168E+01 -0.85835739108E+01  0.14967226972E+03  0.15014562374E+03  0.00000000000E+00 0.  1.
          5    1    3    3  502    0  0.49979429287E+02  0.96350719714E+02  0.97531751756E+02  0.14599978473E+03  0.47000000000E+01 0. -1.
         11    1    6    6    0    0 -0.11719596337E+02 -0.11361408538E+03  0.19659097836E+03  0.22736209470E+03  0.00000000000E+00 0. -1.
        -12    1    6    6    0    0  0.23817697062E+02  0.30972413721E+01  0.68947700788E+02  0.73011376109E+02  0.00000000000E+00 0.  1.
         -5    1    5    5    0  503 -0.46794570520E+02  0.26934558256E+02  0.11138415861E+03  0.12386978262E+03  0.47000000000E+01 0.  1.
<mgrwt>
<rscale>  2 0.19711719E+03</rscale>
<asrwt>0</asrwt>
<pdfrwt beam="1">  1       21 0.10365001E+00 0.19792659E+03</pdfrwt>
<pdfrwt beam="2">  1       21 0.91563137E-02 0.19792659E+03</pdfrwt>
<totfact> 0.71247386E+04</totfact>
</mgrwt>
</event>
<event>
12    1  0.1441827E-001  0.1866146E+03  0.7546771E-02  0.1161738E+00
         21   -1    0    0  504  503  0.00000000000E+00  0.00000000000E+00  0.19388484103E+03  0.19388484103E+03  0.00000000000E+00 0. -1.
         21   -1    0    0  502  504 -0.00000000000E+00 -0.00000000000E+00 -0.18132376134E+03  0.18132376134E+03  0.00000000000E+00 0. -1.
          6    2    1    2  502    0 -0.68178096877E+02 -0.40450678899E+01 -0.15667431331E+02  0.18727114959E+03  0.17366749724E+03 0.  0.
         24    2    3    3    0    0 -0.10258262489E+03  0.16815425707E+02 -0.42430512323E+02  0.13872030773E+03  0.81467919644E+02 0.  0.
         -6    2    1    2    0  503  0.68178096877E+02  0.40450678899E+01  0.28228511024E+02  0.18793745278E+03  0.17279763267E+03 0.  0.
        -24    2    5    5    0    0  0.52252305252E+02 -0.16248855511E+02  0.83277076843E+02  0.12696279604E+03  0.78677514843E+02 0.  0.
          2    1    4    4  501    0 -0.68730024184E+02  0.44591438819E+02 -0.47396813787E+02  0.94650254080E+02  0.00000000000E+00 0. -1.
         -1    1    4    4    0  501 -0.33852600705E+02 -0.27776013112E+02  0.49663014639E+01  0.44070053654E+02  0.00000000000E+00 0.  1.
          5    1    3    3  502    0  0.34404528012E+02 -0.20860493597E+02  0.26763080992E+02  0.48550841857E+02  0.47000000000E+01 0. -1.
         11    1    6    6    0    0  0.46635039228E+02  0.17463049706E+02  0.77767529049E+02  0.92344862137E+02  0.00000000000E+00 0. -1.
        -12    1    6    6    0    0  0.56172660238E+01 -0.33711905218E+02  0.55095477947E+01  0.34617933906E+02  0.00000000000E+00 0.  1.
         -5    1    5    5    0  503  0.15925791625E+02  0.20293923401E+02 -0.55048565819E+02  0.60974656741E+02  0.47000000000E+01 0.  1.
<mgrwt>
<rscale>  2 0.18641198E+03</rscale>
<asrwt>0</asrwt>
<pdfrwt beam="1">  1       21 0.29828437E-01 0.18661462E+03</pdfrwt>
<pdfrwt beam="2">  1       21 0.27895963E-01 0.18661462E+03</pdfrwt>
<totfact> 0.13250639E+05</totfact>
</mgrwt>
</event>
<event>
12    1  0.1441827E-001  0.2085167E+03  0.7546771E-02  0.1143187E+00
         21   -1    0    0  504  503  0.00000000000E+00  0.00000000000E+00  0.16996147895E+03  0.16996147895E+03  0.00000000000E+00 0.  1.
         21   -1    0    0  502  504 -0.00000000000E+00 -0.00000000000E+00 -0.46202614610E+03  0.46202614610E+03  0.00000000000E+00 0.  1.
          6    2    1    2  502    0 -0.97447205878E+02  0.50003080915E+02 -0.35808277642E+03  0.41326952341E+03  0.17484895818E+03 0.  0.
         24    2    3    3    0    0 -0.59660046906E+02 -0.91466756785E+01 -0.31599666184E+03  0.33129456303E+03  0.79115196556E+02 0.  0.
         -6    2    1    2    0  503  0.97447205878E+02 -0.50003080915E+02  0.66018109267E+02  0.21871810164E+03  0.17743435744E+03 0.  0.
        -24    2    5    5    0    0  0.87857496384E+02 -0.91325415057E+02  0.12865609891E+02  0.15055083665E+03  0.80254341884E+02 0.  0.
          4    1    4    4  501    0 -0.25790239111E+02  0.30970511293E+02 -0.19925355740E+03  0.20328868424E+03  0.00000000000E+00 0. -1.
         -3    1    4    4    0  501 -0.33869807795E+02 -0.40117186972E+02 -0.11674310444E+03  0.12800587879E+03  0.00000000000E+00 0.  1.
          5    1    3    3  502    0 -0.37787158971E+02  0.59149756593E+02 -0.42086114573E+02  0.81974960372E+02  0.47000000000E+01 0. -1.
         13    1    6    6    0    0  0.94377222662E+02 -0.49827167395E+02  0.36724243747E+00  0.10672366952E+03  0.00000000000E+00 0. -1.
        -14    1    6    6    0    0 -0.65197262779E+01 -0.41498247662E+02  0.12498367454E+02  0.43827167132E+02  0.00000000000E+00 0.  1.
         -5    1    5    5    0  503  0.95897094936E+01  0.41322334142E+02  0.53152499376E+02  0.68167264996E+02  0.47000000000E+01 0.  1.
<mgrwt>
<rscale>  2 0.20796564E+03</rscale>
<asrwt>0</asrwt>
<pdfrwt beam="1">  1       21 0.26147920E-01 0.20851671E+03</pdfrwt>
<pdfrwt beam="2">  1       21 0.71080944E-01 0.20851671E+03</pdfrwt>
<totfact> 0.24672091E+04</totfact>
</mgrwt>
</event>
<event>
12    1  0.1441827E-001  0.1954814E+03  0.7546771E-02  0.1154341E+00
         21   -1    0    0  504  503  0.00000000000E+00  0.00000000000E+00  0.17490039237E+03  0.17490039237E+03  0.00000000000E+00 0.  1.
         21   -1    0    0  502  504 -0.00000000000E+00 -0.00000000000E+00 -0.30896383941E+03  0.30896383941E+03  0.00000000000E+00 0.  1.
          6    2    1    2  502    0 -0.83148047168E+02 -0.26370762080E+02 -0.20021333493E+03  0.27749371792E+03  0.17119687253E+03 0.  0.
         24    2    3    3    0    0 -0.97674132669E+02 -0.57397016178E+02 -0.88270255431E+02  0.16033152841E+03  0.71273468771E+02 0.  0.
         -6    2    1    2    0  503  0.83148047168E+02  0.26370762080E+02  0.66149887888E+02  0.20637051386E+03  0.17493989391E+03 0.  0.
        -24    2    5    5    0    0  0.33846965848E+01 -0.28374878994E+02 -0.50141563962E+01  0.86180295822E+02  0.81149933424E+02 0.  0.
          2    1    4    4  501    0 -0.21790156243E+02 -0.52468093208E+02 -0.28216804260E+02  0.63434215977E+02  0.00000000000E+00 0. -1.
         -1    1    4    4    0  501 -0.75883976425E+02 -0.49289229700E+01 -0.60053451172E+02  0.96897312436E+02  0.00000000000E+00 0.  1.
          5    1    3    3  502    0  0.14526085501E+02  0.31026254097E+02 -0.11194307950E+03  0.11716218951E+03  0.47000000000E+01 0. -1.
         13    1    6    6    0    0  0.16247095212E+02 -0.53502959537E+02 -0.11800990294E+02  0.57147162257E+02  0.00000000000E+00 0. -1.
        -14    1    6    6    0    0 -0.12862398627E+02  0.25128080543E+02  0.67868338979E+01  0.29033133565E+02  0.00000000000E+00 0.  1.
         -5    1    5    5    0  503  0.79763350583E+02  0.54745641074E+02  0.71164044285E+02  0.12019021804E+03  0.47000000000E+01 0.  1.
<mgrwt>
<rscale>  2 0.19464039E+03</rscale>
<asrwt>0</asrwt>
<pdfrwt beam="1">  1       21 0.26907753E-01 0.19548141E+03</pdfrwt>
<pdfrwt beam="2">  1       21 0.47532898E-01 0.19548141E+03</pdfrwt>
<totfact> 0.55612198E+04</totfact>
</mgrwt>
</event>
<event>
12    1  0.1441827E-001  0.2096561E+03  0.7546771E-02  0.1142663E+00
         21   -1    0    0  504  503  0.00000000000E+00  0.00000000000E+00  0.44554127757E+03  0.44554127757E+03  0.00000000000E+00 0. -1.
         21   -1    0    0  502  504 -0.00000000000E+00 -0.00000000000E+00 -0.12390334191E+03  0.12390334191E+03  0.00000000000E+00 0.  1.
          6    2    1    2  502    0 -0.10488431902E+03 -0.43183439818E+02  0.28733938100E+02  0.21161600775E+03  0.17632403604E+03 0.  0.
         24    2    3    3    0    0 -0.77188030307E+02 -0.83823921108E+02 -0.21662554538E+02  0.14104243197E+03  0.80244997190E+02 0.  0.
         -6    2    1    2    0  503  0.10488431902E+03  0.43183439818E+02  0.29290399756E+03  0.35782861173E+03  0.17141480022E+03 0.  0.
        -24    2    5    5    0    0  0.12942918150E+03  0.14818199418E+01  0.24191975286E+03  0.28738034289E+03  0.85487928047E+02 0.  0.
          4    1    4    4  501    0 -0.46163712180E+02 -0.93391464385E+02 -0.28194405302E+02  0.10792580059E+03  0.00000000000E+00 0. -1.
         -3    1    4    4    0  501 -0.31024318127E+02  0.95675432771E+01  0.65318507640E+01  0.33116631381E+02  0.00000000000E+00 0.  1.
          5    1    3    3  502    0 -0.27696288716E+02  0.40640481290E+02  0.50396492638E+02  0.70573575780E+02  0.47000000000E+01 0. -1.
         11    1    6    6    0    0 -0.50509674098E+01 -0.17729204065E+02  0.20140576016E+02  0.27303475068E+02  0.00000000000E+00 0. -1.
        -12    1    6    6    0    0  0.13448014891E+03  0.19211024007E+02  0.22177917685E+03  0.26007686783E+03  0.00000000000E+00 0.  1.
         -5    1    5    5    0  503 -0.24544862481E+02  0.41701619876E+02  0.50984244695E+02  0.70448268833E+02  0.47000000000E+01 0.  1.
<mgrwt>
<rscale>  2 0.20862059E+03</rscale>
<asrwt>0</asrwt>
<pdfrwt beam="1">  1       21 0.68544811E-01 0.20965614E+03</pdfrwt>
<pdfrwt beam="2">  1       21 0.19062053E-01 0.20965614E+03</pdfrwt>
<totfact> 0.48580612E+04</totfact>
</mgrwt>
</event>
<event>
12    1  0.1441827E-001  0.1872832E+03  0.7546771E-02  0.1161197E+00
         21   -1    0    0  504  503  0.00000000000E+00  0.00000000000E+00  0.74337261607E+02  0.74337261607E+02  0.00000000000E+00 0. -1.
         21   -1    0    0  502  504 -0.00000000000E+00 -0.00000000000E+00 -0.77597174051E+03  0.77597174051E+03  0.00000000000E+00 0. -1.
          6    2    1    2  502    0  0.70687138098E+02  0.11088591903E+02 -0.61887732829E+03  0.64659425493E+03  0.17307615282E+03 0.  0.
         24    2    3    3    0    0 -0.12572365812E+02 -0.58935193482E+01 -0.15363676441E+03  0.17363399299E+03  0.79697617223E+02 0.  0.
         -6    2    1    2    0  503 -0.70687138098E+02 -0.11088591903E+02 -0.82757150607E+02  0.20371474718E+03  0.17184680352E+03 0.  0.
        -24    2    5    5    0    0 -0.67731911219E+02 -0.70166334317E+02 -0.64202036955E+02  0.14154324843E+03  0.80010395307E+02 0.  0.
          2    1    4    4  501    0 -0.39345768077E+02  0.19123640582E+02 -0.73840097321E+02  0.85826354152E+02  0.00000000000E+00 0. -1.
         -1    1    4    4    0  501  0.26773402266E+02 -0.25017159930E+02 -0.79796667090E+02  0.87807638839E+02  0.00000000000E+00 0.  1.
          5    1    3    3  502    0  0.83259503910E+02  0.16982111251E+02 -0.46524056388E+03  0.47296026194E+03  0.47000000000E+01 0. -1.
         11    1    6    6    0    0 -0.25131060342E+02 -0.16022812429E+02  0.17585855583E+02  0.34605823623E+02  0.00000000000E+00 0. -1.
        -12    1    6    6    0    0 -0.42600850878E+02 -0.54143521888E+02 -0.81787892538E+02  0.10693742480E+03  0.00000000000E+00 0.  1.
         -5    1    5    5    0  503 -0.29552268792E+01  0.59077742414E+02 -0.18555113651E+02  0.62171498754E+02  0.47000000000E+01 0.  1.
<mgrwt>
<rscale>  2 0.18699864E+03</rscale>
<asrwt>0</asrwt>
<pdfrwt beam="1">  1       21 0.11436502E-01 0.18728316E+03</pdfrwt>
<pdfrwt beam="2">  1       21 0.11938027E+00 0.18728316E+03</pdfrwt>
<totfact> 0.34309420E+04</totfact>
</mgrwt>
</event>
<event>
12    1  0.1441827E-001  0.2487505E+03  0.7546771E-02  0.1114245E+00
         21   -1    0    0  504  503  0.00000000000E+00  0.00000000000E+00  0.27561369292E+03  0.27561369292E+03  0.00000000000E+00 0. -1.
         21   -1    0    0  502  504 -0.00000000000E+00 -0.00000000000E+00 -0.22367067625E+03  0.22367067625E+03  0.00000000000E+00 0.  1.
          6    2    1    2  502    0  0.17721567987E+03 -0.20030677533E+02  0.25001990100E+02  0.25000385331E+03  0.17340761785E+03 0.  0.
         24    2    3    3    0    0  0.18513856291E+02 -0.31531217393E+02  0.14398212916E+02  0.90463697506E+02  0.81482461219E+02 0.  0.
         -6    2    1    2    0  503 -0.17721567987E+03  0.20030677533E+02  0.26941026567E+02  0.24928051586E+03  0.17207071640E+03 0.  0.
        -24    2    5    5    0    0 -0.13431556342E+03 -0.32466086066E+02  0.66740629235E+02  0.17052501731E+03  0.74362306422E+02 0.  0.
          2    1    4    4  501    0  0.27899709986E+02 -0.42591900723E+02  0.37465022799E+02  0.63214648285E+02  0.00000000000E+00 0. -1.
         -1    1    4    4    0  501 -0.93858536950E+01  0.11060683330E+02 -0.23066809882E+02  0.27249049221E+02  0.00000000000E+00 0.  1.
          5    1    3    3  502    0  0.15870182358E+03  0.11500539859E+02  0.10603777183E+02  0.15954015580E+03  0.47000000000E+01 0. -1.
         13    1    6    6    0    0 -0.13427155846E+03 -0.46118526113E+02  0.54131994014E+02  0.15194091825E+03  0.00000000000E+00 0. -1.
        -14    1    6    6    0    0 -0.44004956295E-01  0.13652440047E+02  0.12608635220E+02  0.18584099058E+02  0.00000000000E+00 0.  1.
         -5    1    5    5    0  503 -0.42900116449E+02  0.52496763599E+02 -0.39799602668E+02  0.78755498553E+02  0.47000000000E+01 0.  1.
<mgrwt>
<rscale>  2 0.24851768E+03</rscale>
<asrwt>0</asrwt>
<pdfrwt beam="1">  1       21 0.42402106E-01 0.24875053E+03</pdfrwt>
<pdfrwt beam="2">  1       21 0.34410873E-01 0.24875053E+03</pdfrwt>
<totfact> 0.42437611E+04</totfact>
</mgrwt>
</event>
<event>
12    1  0.1441827E-001  0.2417880E+03  0.7546771E-02  0.1118648E+00
         21   -1    0    0  504  503  0.00000000000E+00  0.00000000000E+00  0.13209468960E+04  0.13209468960E+04  0.00000000000E+00 0.  1.
         21   -1    0    0  502  504 -0.00000000000E+00 -0.00000000000E+00 -0.48102505538E+02  0.48102505538E+02  0.00000000000E+00 0.  1.
          6    2    1    2  502    0  0.14019161121E+03 -0.91981810722E+02  0.44144998904E+03  0.50320986034E+03  0.17386123594E+03 0.  0.
         24    2    3    3    0    0  0.11477062180E+03 -0.40624550216E+02  0.16162430683E+03  0.21753820033E+03  0.79861144083E+02 0.  0.
         -6    2    1    2    0  503 -0.14019161121E+03  0.91981810722E+02  0.83139440139E+03  0.86583954117E+03  0.17420424515E+03 0.  0.
        -24    2    5    5    0    0 -0.11507769686E+03  0.39092370425E+02  0.76026198876E+03  0.77359035843E+03  0.75317072183E+02 0.  0.
          2    1    4    4  501    0  0.31587079177E+02  0.14803656885E+02  0.10653028758E+02  0.36474358799E+02  0.00000000000E+00 0. -1.
         -1    1    4    4    0  501  0.83183542627E+02 -0.55428207101E+02  0.15097127807E+03  0.18106384153E+03  0.00000000000E+00 0.  1.
          5    1    3    3  502    0  0.25420989406E+02 -0.51357260506E+02  0.27982568221E+03  0.28567166001E+03  0.47000000000E+01 0. -1.
         13    1    6    6    0    0 -0.23253239907E+02 -0.68927320570E+01  0.46178381160E+02  0.52160001994E+02  0.00000000000E+00 0. -1.
        -14    1    6    6    0    0 -0.91824456950E+02  0.45985102482E+02  0.71408360760E+03  0.72143035644E+03  0.00000000000E+00 0.  1.
         -5    1    5    5    0  503 -0.25113914353E+02  0.52889440297E+02  0.71132412627E+02  0.92249182734E+02  0.47000000000E+01 0.  1.
<mgrwt>
<rscale>  2 0.24172627E+03</rscale>
<asrwt>0</asrwt>
<pdfrwt beam="1">  1       21 0.20322257E+00 0.24178805E+03</pdfrwt>
<pdfrwt beam="2">  1       21 0.74003865E-02 0.24178805E+03</pdfrwt>
<totfact> 0.16979470E+04</totfact>
</mgrwt>
</event>
<event>
12    1  0.1441827E-001  0.2049483E+03  0.7546771E-02  0.1145666E+00
         21   -1    0    0  504  503  0.00000000000E+00  0.00000000000E+00  0.12980966615E+04  0.12980966615E+04  0.00000000000E+00 0.  1.
         21   -1    0    0  502  504 -0.00000000000E+00 -0.00000000000E+00 -0.39215276395E+02  0.39215276395E+02  0.00000000000E+00 0.  1.
          6    2    1    2  502    0 -0.64077820661E+01  0.10944976808E+03  0.90983116761E+03  0.93262883512E+03  0.17315738258E+03 0.  0.
         24    2    3    3    0    0 -0.65298046075E+02  0.57419491507E+02  0.40536960525E+03  0.42206172810E+03  0.79061701462E+02 0.  0.
         -6    2    1    2    0  503  0.64077820661E+01 -0.10944976808E+03  0.34905021751E+03  0.40468310279E+03  0.17295099865E+03 0.  0.
        -24    2    5    5    0    0 -0.53838137007E+02 -0.76760650126E+02  0.15135310838E+03  0.19538812875E+03  0.80486117047E+02 0.  0.
          4    1    4    4  501    0 -0.83901520412E+02  0.47187664498E+02  0.32835972841E+03  0.34217868439E+03  0.00000000000E+00 0. -1.
         -3    1    4    4    0  501  0.18603474337E+02  0.10231827009E+02  0.77009876839E+02  0.79883043708E+02  0.00000000000E+00 0.  1.
          5    1    3    3  502    0  0.58890264009E+02  0.52030276575E+02  0.50446156236E+03  0.51056710703E+03  0.47000000000E+01 0. -1.
         13    1    6    6    0    0  0.19489787203E+02 -0.32555806178E+02  0.46041959393E+02  0.59662336074E+02  0.00000000000E+00 0. -1.
        -14    1    6    6    0    0 -0.73327924210E+02 -0.44204843948E+02  0.10531114898E+03  0.13572579268E+03  0.00000000000E+00 0.  1.
         -5    1    5    5    0  503  0.60245919073E+02 -0.32689117956E+02  0.19769710914E+03  0.20929497404E+03  0.47000000000E+01 0.  1.
<mgrwt>
<rscale>  2 0.20490466E+03</rscale>
<asrwt>0</asrwt>
<pdfrwt beam="1">  1       21 0.19970715E+00 0.20494826E+03</pdfrwt>
<pdfrwt beam="2">  1       21 0.60331204E-02 0.20494826E+03</pdfrwt>
<totfact> 0.26107193E+04</totfact>
</mgrwt>
</event>
<event>
12    1  0.1441827E-001  0.2217208E+03  0.7546771E-02  0.1133994E+00
         21   -1    0    0  504  503  0.00000000000E+00  0.00000000000E+00  0.36601655877E+03  0.36601655877E+03  0.00000000000E+00 0.  1.
         21   -1    0    0  502  504 -0.00000000000E+00 -0.00000000000E+00 -0.20494100792E+03  0.20494100792E+03  0.00000000000E+00 0. -1.
          6    2    1    2  502    0 -0.63113980796E+01  0.12741552970E+03 -0.93085250632E+02  0.23367754937E+03  0.17223757500E+03 0.  0.
         24    2    3    3    0    0  0.33840685626E+02  0.10882736591E+03 -0.11158195194E+02  0.14044750019E+03  0.81316710540E+02 0.  0.
         -6    2    1    2    0  503  0.63113980796E+01 -0.12741552970E+03  0.25416080148E+03  0.33728001731E+03  0.18134372367E+03 0.  0.
        -24    2    5    5    0    0  0.70624884905E+02 -0.10021460225E+03  0.14199675428E+03  0.20507192934E+03  0.82828600754E+02 0.  0.
          2    1    4    4  501    0  0.10673988089E+02  0.11381620677E+03 -0.18132491538E+02  0.11574476314E+03  0.00000000000E+00 0. -1.
         -1    1    4    4    0  501  0.23166697537E+02 -0.49888408581E+01  0.69742963448E+01  0.24702737043E+02  0.00000000000E+00 0.  1.
          5    1    3    3  502    0 -0.40152083706E+02  0.18588163786E+02 -0.81927055438E+02  0.93230049188E+02  0.47000000000E+01 0. -1.
         11    1    6    6    0    0 -0.18826745672E+02 -0.22350638608E+02  0.31719389235E+02  0.43129074326E+02  0.00000000000E+00 0. -1.
        -12    1    6    6    0    0  0.89451630577E+02 -0.77863963645E+02  0.11027736505E+03  0.16194285501E+03  0.00000000000E+00 0.  1.
         -5    1    5    5    0  503 -0.64313486826E+02 -0.27200927447E+02  0.11216404720E+03  0.13220808798E+03  0.47000000000E+01 0.  1.
<mgrwt>
<rscale>  2 0.21985130E+03</rscale>
<asrwt>0</asrwt>
<pdfrwt beam="1">  1       21 0.56310240E-01 0.22172076E+03</pdfrwt>
<pdfrwt beam="2">  1       21 0.31529386E-01 0.22172076E+03</pdfrwt>
<totfact> 0.28244981E+04</totfact>
</mgrwt>
</event>
<event>
12    1  0.1441827E-001  0.1832821E+03  0.7546771E-02  0.1164889E+00
         21   -1    0    0  504  503  0.00000000000E+00  0.00000000000E+00  0.20331336081E+03  0.20331336081E+03  0.00000000000E+00 0.  1.
         21   -1    0    0  502  504 -0.00000000000E+00 -0.00000000000E+00 -0.28339734970E+04  0.28339734970E+04  0.00000000000E+00 0. -1.
          6    2    1    2  502    0  0.52878522554E+02  0.26559728218E+02 -0.27890769186E+04  0.27950303440E+04  0.17246161519E+03 0.  0.
         24    2    3    3    0    0  0.22917131708E+02 -0.59306607681E+01 -0.25720738407E+04  0.25735224747E+04  0.83028419370E+02 0.  0.
         -6    2    1    2    0  503 -0.52878522554E+02 -0.26559728218E+02  0.15841678243E+03  0.24225651379E+03  0.17346695422E+03 0.  0.
        -24    2    5    5    0    0 -0.36630317631E+02 -0.37467146814E+02  0.14487376388E+02  0.96926751294E+02  0.80245521879E+02 0.  0.
          4    1    4    4  501    0  0.38210098401E+02  0.25844809408E+02 -0.10128868951E+04  0.10139367969E+04  0.00000000000E+00 0. -1.
         -3    1    4    4    0  501 -0.15292966693E+02 -0.31775470176E+02 -0.15591869456E+04  0.15595856778E+04  0.00000000000E+00 0.  1.
          5    1    3    3  502    0  0.29961390847E+02  0.32490388986E+02 -0.21700307791E+03  0.22150786925E+03  0.47000000000E+01 0. -1.
         11    1    6    6    0    0 -0.17949776304E+02  0.37021625731E+01 -0.28929114205E+02  0.34246081904E+02  0.00000000000E+00 0. -1.
        -12    1    6    6    0    0 -0.18680541327E+02 -0.41169309388E+02  0.43416490593E+02  0.62680669390E+02  0.00000000000E+00 0.  1.
         -5    1    5    5    0  503 -0.16248204923E+02  0.10907418597E+02  0.14392940604E+03  0.14532976249E+03  0.47000000000E+01 0.  1.
<mgrwt>
<rscale>  2 0.18304387E+03</rscale>
<asrwt>0</asrwt>
<pdfrwt beam="1">  1       21 0.31278979E-01 0.18328214E+03</pdfrwt>
<pdfrwt beam="2">  1       21 0.43599591E+00 0.18328214E+03</pdfrwt>
<totfact> 0.51475835E+01</totfact>
</mgrwt>
</event>
<event>
12    1  0.1441827E-001  0.1935477E+03  0.7546771E-02  0.1155304E+00
         21   -1    0    0  504  503  0.00000000000E+00  0.00000000000E+00  0.18505264355E+03  0.18505264355E+03  0.00000000000E+00 0. -1.
         21   -1    0    0  502  504 -0.00000000000E+00 -0.00000000000E+00 -0.20744150867E+03  0.20744150867E+03  0.00000000000E+00 0. -1.
          6    2    1    2  502    0  0.87407668155E+02  0.83745114724E+01 -0.41749237289E+02  0.19798057774E+03  0.17246181448E+03 0.  0.
         24    2    3    3    0    0 -0.11865824873E+02  0.19709845067E+02  0.91876580943E+01  0.85729192377E+02  0.82071953625E+02 0.  0.
         -6    2    1    2    0  503 -0.87407668155E+02 -0.83745114724E+01  0.19360372172E+02  0.19451357448E+03  0.17248325643E+03 0.  0.
        -24    2    5    5    0    0 -0.74883558863E+02 -0.36580534921E+02 -0.44764723592E+02  0.12319351433E+03  0.78911840505E+02 0.  0.
          2    1    4    4  501    0  0.17447957109E+02 -0.22192195631E+02  0.18498214600E+02  0.33750684402E+02  0.00000000000E+00 0. -1.
         -1    1    4    4    0  501 -0.29313781982E+02  0.41902040698E+02 -0.93105565061E+01  0.51978507974E+02  0.00000000000E+00 0.  1.
          5    1    3    3  502    0  0.99273493028E+02 -0.11335333594E+02 -0.50936895383E+02  0.11225138537E+03  0.47000000000E+01 0. -1.
         13    1    6    6    0    0  0.14272500422E+01 -0.20353202459E+02 -0.40153935555E+02  0.45040297885E+02  0.00000000000E+00 0. -1.
        -14    1    6    6    0    0 -0.76310808905E+02 -0.16227332462E+02 -0.46107880370E+01  0.78153216446E+02  0.00000000000E+00 0.  1.
         -5    1    5    5    0  503 -0.12524109293E+02  0.28206023448E+02  0.64125095764E+02  0.71320060145E+02  0.47000000000E+01 0.  1.
<mgrwt>
<rscale>  2 0.19354291E+03</rscale>
<asrwt>0</asrwt>
<pdfrwt beam="1">  1       21 0.28469638E-01 0.19354769E+03</pdfrwt>
<pdfrwt beam="2">  1       21 0.31914078E-01 0.19354769E+03</pdfrwt>
<totfact> 0.11136135E+05</totfact>
</mgrwt>
</event>
<event>
12    1  0.1441827E-001  0.1776060E+03  0.7546771E-02  0.1170547E+00
         21   -1    0    0  504  503  0.00000000000E+00  0.00000000000E+00  0.18323512128E+03  0.18323512128E+03  0.00000000000E+00 0.  1.
         21   -1    0    0  502  504 -0.00000000000E+00 -0.00000000000E+00 -0.18286418178E+03  0.18286418178E+03  0.00000000000E+00 0.  1.
          6    2    1    2  502    0 -0.33843886868E+02 -0.12579511008E+02 -0.47291029083E+02  0.18379424375E+03  0.17389718177E+03 0.  0.
         24    2    3    3    0    0  0.39431269408E+02 -0.37101178463E+02 -0.87708749843E+01  0.97327759063E+02  0.80401753624E+02 0.  0.
         -6    2    1    2    0  503  0.33843886868E+02  0.12579511008E+02  0.47661968583E+02  0.18230505931E+03  0.17222026195E+03 0.  0.
        -24    2    5    5    0    0 -0.22693069178E+01  0.70162222342E+02  0.21376517161E+02  0.10927803441E+03  0.80974354708E+02 0.  0.
          4    1    4    4  501    0  0.61402561631E+02 -0.15017161586E+02  0.47026996327E+01  0.63386947401E+02  0.00000000000E+00 0. -1.
         -3    1    4    4    0  501 -0.21971292223E+02 -0.22084016877E+02 -0.13473574617E+02  0.33940811663E+02  0.00000000000E+00 0.  1.
          5    1    3    3  502    0 -0.73275156276E+02  0.24521667455E+02 -0.38520154098E+02  0.86466484685E+02  0.47000000000E+01 0. -1.
         11    1    6    6    0    0 -0.16847829014E+02  0.15929991134E+02 -0.26692739893E+02  0.35356984077E+02  0.00000000000E+00 0. -1.
        -12    1    6    6    0    0  0.14578522096E+02  0.54232231207E+02  0.48069257054E+02  0.73921050331E+02  0.00000000000E+00 0.  1.
         -5    1    5    5    0  503  0.36113193785E+02 -0.57582711334E+02  0.26285451422E+02  0.73027024905E+02  0.47000000000E+01 0.  1.
<mgrwt>
<rscale>  2 0.17719415E+03</rscale>
<asrwt>0</asrwt>
<pdfrwt beam="1">  1       21 0.28190019E-01 0.17760598E+03</pdfrwt>
<pdfrwt beam="2">  1       21 0.28132951E-01 0.17760598E+03</pdfrwt>
<totfact> 0.14588483E+05</totfact>
</mgrwt>
</event>
<event>
12    1  0.1441827E-001  0.2484232E+03  0.7546771E-02  0.1114745E+00
         21   -1    0    0  504  503  0.00000000000E+00  0.00000000000E+00  0.20408217736E+03  0.20408217736E+03  0.00000000000E+00 0.  1.
         21   -1    0    0  502  504 -0.00000000000E+00 -0.00000000000E+00 -0.30492555933E+03  0.30492555933E+03  0.00000000000E+00 0.  1.
          6    2    1    2  502    0 -0.13312444210E+03  0.11866881888E+03 -0.14878867951E+02  0.24613140893E+03  0.16898190464E+03 0.  0.
         24    2    3    3    0    0 -0.15923372047E+03  0.73598020766E+02 -0.13224778596E+02  0.19380648876E+03  0.81326588028E+02 0.  0.
         -6    2    1    2    0  503  0.13312444210E+03 -0.11866881888E+03 -0.85964514019E+02  0.26287632775E+03  0.17294409606E+03 0.  0.
        -24    2    5    5    0    0  0.30094589856E+02 -0.10116347195E+03 -0.85830382944E+02  0.15826420792E+03  0.80876278819E+02 0.  0.
          2    1    4    4  501    0 -0.12628045203E+03  0.26066654352E+02  0.14337835010E+02  0.12973741382E+03  0.00000000000E+00 0. -1.
         -1    1    4    4    0  501 -0.32953268449E+02  0.47531366413E+02 -0.27562613606E+02  0.64069074938E+02  0.00000000000E+00 0.  1.
          5    1    3    3  502    0  0.26109278376E+02  0.45070798110E+02 -0.16540893544E+01  0.52324920174E+02  0.47000000000E+01 0. -1.
         13    1    6    6    0    0  0.62849214671E+01 -0.37844477578E+02  0.11214512202E+02  0.39968362550E+02  0.00000000000E+00 0. -1.
        -14    1    6    6    0    0  0.23809668389E+02 -0.63318994377E+02 -0.97044895147E+02  0.11829584537E+03  0.00000000000E+00 0.  1.
         -5    1    5    5    0  503  0.10302985224E+03 -0.17505346921E+02 -0.13413107486E+00  0.10461211983E+03  0.47000000000E+01 0.  1.
<mgrwt>
<rscale>  2 0.24773483E+03</rscale>
<asrwt>0</asrwt>
<pdfrwt beam="1">  1       21 0.31397258E-01 0.24842316E+03</pdfrwt>
<pdfrwt beam="2">  1       21 0.46911625E-01 0.24842316E+03</pdfrwt>
<totfact> 0.41314772E+04</totfact>
</mgrwt>
</event>
<event>
12    1  0.1441827E-001  0.1908334E+03  0.7546771E-02  0.1159845E+00
         21   -1    0    0  504  503  0.00000000000E+00  0.00000000000E+00  0.19062712308E+03  0.19062712308E+03  0.00000000000E+00 0. -1.
         21   -1    0    0  502  504 -0.00000000000E+00 -0.00000000000E+00 -0.23621133805E+03  0.23621133805E+03  0.00000000000E+00 0. -1.
          6    2    1    2  502    0  0.49845345882E+02  0.22877786555E+02  0.79101806977E+02  0.20657805773E+03  0.18278251132E+03 0.  0.
         24    2    3    3    0    0 -0.36445991761E+02 -0.24760140408E+02  0.29537166410E+02  0.96150205120E+02  0.80193783280E+02 0.  0.
         -6    2    1    2    0  503 -0.49845345882E+02 -0.22877786555E+02 -0.12468602195E+03  0.22026040340E+03  0.17308983105E+03 0.  0.
        -24    2    5    5    0    0 -0.26731861108E+02 -0.63746668037E+00  0.90262299112E+01  0.82674352858E+02  0.77708281617E+02 0.  0.
          2    1    4    4  501    0 -0.54897514562E+02  0.44046426823E+01  0.27553050226E+02  0.61581722605E+02  0.00000000000E+00 0. -1.
         -1    1    4    4    0  501  0.18451522801E+02 -0.29164783090E+02  0.19841161845E+01  0.34568482515E+02  0.00000000000E+00 0.  1.
          5    1    3    3  502    0  0.86291337643E+02  0.47637926962E+02  0.49564640566E+02  0.11042785261E+03  0.47000000000E+01 0. -1.
         11    1    6    6    0    0  0.14275640716E+02 -0.28045707436E+02  0.10929897708E+02  0.33313935333E+02  0.00000000000E+00 0. -1.
        -12    1    6    6    0    0 -0.41007501824E+02  0.27408240756E+02 -0.19036677968E+01  0.49360417525E+02  0.00000000000E+00 0.  1.
         -5    1    5    5    0  503 -0.23113484773E+02 -0.22240319874E+02 -0.13371225186E+03  0.13758605055E+03  0.47000000000E+01 0.  1.
<mgrwt>
<rscale>  2 0.18847445E+03</rscale>
<asrwt>0</asrwt>
<pdfrwt beam="1">  1       21 0.29327250E-01 0.19083343E+03</pdfrwt>
<pdfrwt beam="2">  1       21 0.36340206E-01 0.19083343E+03</pdfrwt>
<totfact> 0.81392155E+04</totfact>
</mgrwt>
</event>
<event>
12    1  0.1441827E-001  0.2072445E+03  0.7546771E-02  0.1143886E+00
         21   -1    0    0  504  503  0.00000000000E+00  0.00000000000E+00  0.40561025301E+02  0.40561025301E+02  0.00000000000E+00 0.  1.
         21   -1    0    0  502  504 -0.00000000000E+00 -0.00000000000E+00 -0.15884505554E+04  0.15884505554E+04  0.00000000000E+00 0.  1.
          6    2    1    2  502    0 -0.10567105958E+03  0.39002138444E+02 -0.12448298284E+04  0.12618665673E+04  0.17325816708E+03 0.  0.
         24    2    3    3    0    0 -0.45817825328E+02  0.61459426085E+02 -0.41006410121E+03  0.42464338998E+03  0.79327847440E+02 0.  0.
         -6    2    1    2    0  503  0.10567105958E+03 -0.39002138444E+02 -0.30305970169E+03  0.36714501335E+03  0.17396188779E+03 0.  0.
        -24    2    5    5    0    0  0.35396205121E+01 -0.60266645536E+02 -0.11686424539E+03  0.15366469095E+03  0.79441726540E+02 0.  0.
          4    1    4    4  501    0  0.85352626736E+00 -0.14928363786E+02 -0.12404951092E+03  0.12494745180E+03  0.00000000000E+00 0. -1.
         -3    1    4    4    0  501 -0.46671351595E+02  0.76387789871E+02 -0.28601459029E+03  0.29969593818E+03  0.00000000000E+00 0.  1.
          5    1    3    3  502    0 -0.59853234251E+02 -0.22457287642E+02 -0.83476572715E+03  0.83722317732E+03  0.47000000000E+01 0. -1.
         13    1    6    6    0    0  0.16765553745E+02  0.11339797765E+02 -0.61569558171E+01  0.21156155385E+02  0.00000000000E+00 0. -1.
        -14    1    6    6    0    0 -0.13225933233E+02 -0.71606443301E+02 -0.11070728958E+03  0.13250853556E+03  0.00000000000E+00 0.  1.
         -5    1    5    5    0  503  0.10213143907E+03  0.21264507092E+02 -0.18619545630E+03  0.21348032240E+03  0.47000000000E+01 0.  1.
<mgrwt>
<rscale>  2 0.20709674E+03</rscale>
<asrwt>0</asrwt>
<pdfrwt beam="1">  1       21 0.62401571E-02 0.20724449E+03</pdfrwt>
<pdfrwt beam="2">  1       21 0.24437703E+00 0.20724449E+03</pdfrwt>
<totfact> 0.13059960E+04</totfact>
</mgrwt>
</event>
<event>
12    1  0.1441827E-001  0.2731164E+03  0.7546771E-02  0.1099548E+00
         21   -1    0    0  504  503  0.00000000000E+00  0.00000000000E+00  0.45783691765E+03  0.45783691765E+03  0.00000000000E+00 0.  1.
         21   -1    0    0  502  504 -0.00000000000E+00 -0.00000000000E+00 -0.16496544041E+03  0.16496544041E+03  0.00000000000E+00 0. -1.
          6    2    1    2  502    0 -0.11580356348E+02 -0.21098988501E+03  0.18236776260E+03  0.32817776034E+03  0.17260302813E+03 0.  0.
         24    2    3    3    0    0  0.56955857861E+02 -0.98958138429E+02  0.69979049218E+02  0.15525685994E+03  0.78555345611E+02 0.  0.
         -6    2    1    2    0  503  0.11580356348E+02  0.21098988501E+03  0.11050371464E+03  0.29462459772E+03  0.17303683540E+03 0.  0.
        -24    2    5    5    0    0  0.46826035441E+02  0.51831867631E+02  0.65150275196E+02  0.12535393618E+03  0.81177773188E+02 0.  0.
          4    1    4    4  501    0  0.22710355773E+02  0.89444100147E+01  0.56652384830E+01  0.25057087958E+02  0.00000000000E+00 0. -1.
         -3    1    4    4    0  501  0.34245502088E+02 -0.10790254844E+03  0.64313810735E+02  0.13019977199E+03  0.00000000000E+00 0.  1.
          5    1    3    3  502    0 -0.68536214209E+02 -0.11203174658E+03  0.11238871338E+03  0.17292090040E+03  0.47000000000E+01 0. -1.
         13    1    6    6    0    0  0.59849697259E+02  0.41283861974E+02  0.17417375298E+02  0.74764353028E+02  0.00000000000E+00 0. -1.
        -14    1    6    6    0    0 -0.13023661818E+02  0.10548005657E+02  0.47732899898E+02  0.50589583148E+02  0.00000000000E+00 0.  1.
         -5    1    5    5    0  503 -0.35245679093E+02  0.15915801738E+03  0.45353439445E+02  0.16927066154E+03  0.47000000000E+01 0.  1.
<mgrwt>
<rscale>  2 0.27304774E+03</rscale>
<asrwt>0</asrwt>
<pdfrwt beam="1">  1       21 0.70436448E-01 0.27311643E+03</pdfrwt>
<pdfrwt beam="2">  1       21 0.25379299E-01 0.27311643E+03</pdfrwt>
<totfact> 0.25843362E+04</totfact>
</mgrwt>
</event>
<event>
12    1  0.1441827E-001  0.1792710E+03  0.7546771E-02  0.1168655E+00
         21   -1    0    0  504  503  0.00000000000E+00  0.00000000000E+00  0.71024984469E+02  0.71024984469E+02  0.00000000000E+00 0.  1.
         21   -1    0    0  502  504 -0.00000000000E+00 -0.00000000000E+00 -0.55293944274E+03  0.55293944274E+03  0.00000000000E+00 0.  1.
          6    2    1    2  502    0 -0.36266558929E+02 -0.29247873649E+02 -0.37524658167E+03  0.41587026640E+03  0.17311088935E+03 0.  0.
         24    2    3    3    0    0 -0.26030622516E+02  0.49412079716E+02 -0.17716561596E+03  0.20244505319E+03  0.80481035974E+02 0.  0.
         -6    2    1    2    0  503  0.36266558929E+02  0.29247873649E+02 -0.10666787660E+03  0.20809416081E+03  0.17249476066E+03 0.  0.
        -24    2    5    5    0    0 -0.25237661467E+02  0.38713513462E+02 -0.10861719177E+02  0.93755727797E+02  0.80848524232E+02 0.  0.
          2    1    4    4  501    0  0.13552962004E+02  0.11847055854E+01  0.10289085064E+01  0.13643495121E+02  0.00000000000E+00 0. -1.
         -1    1    4    4    0  501 -0.39583584519E+02  0.48227374131E+02 -0.17819452446E+03  0.18880155807E+03  0.00000000000E+00 0.  1.
          5    1    3    3  502    0 -0.10235936413E+02 -0.78659953366E+02 -0.19808096571E+03  0.21342521321E+03  0.47000000000E+01 0. -1.
         13    1    6    6    0    0 -0.32453887621E+01 -0.93831061729E+01 -0.34446659736E+02  0.35848955307E+02  0.00000000000E+00 0. -1.
        -14    1    6    6    0    0 -0.21992272705E+02  0.48096619634E+02  0.23584940559E+02  0.57906772490E+02  0.00000000000E+00 0.  1.
         -5    1    5    5    0  503  0.61504220395E+02 -0.94656398122E+01 -0.95806157426E+02  0.11433843301E+03  0.47000000000E+01 0.  1.
<mgrwt>
<rscale>  2 0.17912207E+03</rscale>
<asrwt>0</asrwt>
<pdfrwt beam="1">  1       21 0.10926921E-01 0.17927097E+03</pdfrwt>
<pdfrwt beam="2">  1       21 0.85067603E-01 0.17927097E+03</pdfrwt>
<totfact> 0.83417597E+04</totfact>
</mgrwt>
</event>
<event>
12    1  0.1441827E-001  0.2351067E+03  0.7546771E-02  0.1123187E+00
         21   -1    0    0  504  503  0.00000000000E+00  0.00000000000E+00  0.72451320514E+03  0.72451320514E+03  0.00000000000E+00 0. -1.
         21   -1    0    0  502  504 -0.00000000000E+00 -0.00000000000E+00 -0.13495298290E+03  0.13495298290E+03  0.00000000000E+00 0.  1.
          6    2    1    2  502    0  0.14814800793E+03  0.54273826873E+02  0.11231564897E+02  0.23537482569E+03  0.17430341357E+03 0.  0.
         24    2    3    3    0    0  0.12131593536E+03 -0.22553851533E+02 -0.83500164982E+01  0.15154177363E+03  0.87572564134E+02 0.  0.
         -6    2    1    2    0  503 -0.14814800793E+03 -0.54273826873E+02  0.57832865735E+03  0.62409136235E+03  0.17358718879E+03 0.  0.
        -24    2    5    5    0    0 -0.14612018823E+03 -0.38819429191E+02  0.58265143306E+03  0.60724716898E+03  0.80052322226E+02 0.  0.
          2    1    4    4  501    0  0.15906245022E+02  0.27198650822E+01  0.32031785876E+02  0.35866998804E+02  0.00000000000E+00 0. -1.
         -1    1    4    4    0  501  0.10540969034E+03 -0.25273716615E+02 -0.40381802374E+02  0.11567477483E+03  0.00000000000E+00 0.  1.
          5    1    3    3  502    0  0.26832072570E+02  0.76827678406E+02  0.19581581395E+02  0.83833052059E+02  0.47000000000E+01 0. -1.
         13    1    6    6    0    0 -0.11847917678E+03 -0.69519692637E+01  0.32142231128E+03  0.34263383866E+03  0.00000000000E+00 0. -1.
        -14    1    6    6    0    0 -0.27641011458E+02 -0.31867459927E+02  0.26122912178E+03  0.26461333032E+03  0.00000000000E+00 0.  1.
         -5    1    5    5    0  503 -0.20278196943E+01 -0.15454397682E+02 -0.43227757114E+01  0.16844193370E+02  0.47000000000E+01 0.  1.
<mgrwt>
<rscale>  2 0.23497396E+03</rscale>
<asrwt>0</asrwt>
<pdfrwt beam="1">  1       21 0.11146357E+00 0.23510670E+03</pdfrwt>
<pdfrwt beam="2">  1       21 0.20761998E-01 0.23510670E+03</pdfrwt>
<totfact> 0.13250306E+04</totfact>
</mgrwt>
</event>
<event>
12    1  0.1441827E-001  0.1760918E+03  0.7546771E-02  0.1171864E+00
         21   -1    0    0  504  503  0.00000000000E+00  0.00000000000E+00  0.24058942761E+03  0.24058942761E+03  0.00000000000E+00 0.  1.
         21   -1    0    0  502  504 -0.00000000000E+00 -0.00000000000E+00 -0.31480561561E+03  0.31480561561E+03  0.00000000000E+00 0.  1.
          6    2    1    2  502    0 -0.14565207238E+02  0.28590152782E+02 -0.25085516447E+03  0.30597639742E+03  0.17223153063E+03 0.  0.
         24    2    3    3    0    0 -0.26457732550E+02  0.41341093564E+02 -0.26220921159E+03  0.28464512847E+03  0.99297940008E+02 0.  0.
         -6    2    1    2    0  503  0.14565207238E+02 -0.28590152782E+02  0.17663897647E+03  0.24941864580E+03  0.17314384416E+03 0.  0.
        -24    2    5    5    0    0  0.49818401908E+02 -0.42171692536E+02  0.18285764932E+03  0.21084394103E+03  0.82206585709E+02 0.  0.
          4    1    4    4  501    0  0.38828979606E+01 -0.87902464628E+01 -0.19597531875E+03  0.19621078179E+03  0.00000000000E+00 0. -1.
         -3    1    4    4    0  501 -0.30340630510E+02  0.50131340027E+02 -0.66233892838E+02  0.88434346682E+02  0.00000000000E+00 0.  1.
          5    1    3    3  502    0  0.11892525312E+02 -0.12750940782E+02  0.11354047123E+02  0.21331268954E+02  0.47000000000E+01 0. -1.
         13    1    6    6    0    0  0.49490004930E+02 -0.30144575141E+02  0.47432094955E+02  0.74884975998E+02  0.00000000000E+00 0. -1.
        -14    1    6    6    0    0  0.32839697769E+00 -0.12027117396E+02  0.13542555436E+03  0.13595896503E+03  0.00000000000E+00 0.  1.
         -5    1    5    5    0  503 -0.35253194670E+02  0.13581539754E+02 -0.62186728518E+01  0.38574704776E+02  0.47000000000E+01 0.  1.
<mgrwt>
<rscale>  2 0.17586716E+03</rscale>
<asrwt>0</asrwt>
<pdfrwt beam="1">  1       21 0.37013758E-01 0.17609183E+03</pdfrwt>
<pdfrwt beam="2">  1       21 0.48431633E-01 0.17609183E+03</pdfrwt>
<totfact> 0.28924866E+04</totfact>
</mgrwt>
</event>
<event>
12    1  0.1441827E-001  0.3416832E+03  0.7546771E-02  0.1066204E+00
         21   -1    0    0  504  503  0.00000000000E+00  0.00000000000E+00  0.54441558805E+03  0.54441558805E+03  0.00000000000E+00 0.  1.
         21   -1    0    0  502  504 -0.00000000000E+00 -0.00000000000E+00 -0.28620550114E+03  0.28620550114E+03  0.00000000000E+00 0. -1.
          6    2    1    2  502    0 -0.29084728468E+03  0.33510651217E+02 -0.80061200417E+02  0.34981463307E+03  0.17391197471E+03 0.  0.
         24    2    3    3    0    0 -0.47161066420E+02  0.66124366025E+01 -0.44453416438E+01  0.93209225847E+02  0.80001926333E+02 0.  0.
         -6    2    1    2    0  503  0.29084728468E+03 -0.33510651217E+02  0.33827128733E+03  0.48080645611E+03  0.17615980716E+03 0.  0.
        -24    2    5    5    0    0  0.10901719759E+03 -0.50857945693E+02  0.81132612939E+02  0.16536153689E+03  0.79313662064E+02 0.  0.
          4    1    4    4  501    0  0.20515911714E+01 -0.30997149450E+02 -0.35214732147E+01  0.31263926081E+02  0.00000000000E+00 0. -1.
         -3    1    4    4    0  501 -0.49212657591E+02  0.37609586053E+02 -0.92386842908E+00  0.61945299766E+02  0.00000000000E+00 0.  1.
          5    1    3    3  502    0 -0.24368621826E+03  0.26898214615E+02 -0.75615858773E+02  0.25660540723E+03  0.47000000000E+01 0. -1.
         13    1    6    6    0    0  0.49633742995E+01 -0.27966517199E+02 -0.43895031769E+01  0.28740718620E+02  0.00000000000E+00 0. -1.
        -14    1    6    6    0    0  0.10405382329E+03 -0.22891428494E+02  0.85522116116E+02  0.13662081827E+03  0.00000000000E+00 0.  1.
         -5    1    5    5    0  503  0.18183008709E+03  0.17347294475E+02  0.25713867439E+03  0.31544491923E+03  0.47000000000E+01 0.  1.
<mgrwt>
<rscale>  2 0.34139443E+03</rscale>
<asrwt>0</asrwt>
<pdfrwt beam="1">  1       21 0.83756244E-01 0.34168316E+03</pdfrwt>
<pdfrwt beam="2">  1       21 0.44031616E-01 0.34168316E+03</pdfrwt>
<totfact> 0.56328359E+03</totfact>
</mgrwt>
</event>
<event>
12    1  0.1441827E-001  0.2159486E+03  0.7546771E-02  0.1137680E+00
         21   -1    0    0  504  503  0.00000000000E+00  0.00000000000E+00  0.10985536687E+04  0.10985536687E+04  0.00000000000E+00 0. -1.
         21   -1    0    0  502  504 -0.00000000000E+00 -0.00000000000E+00 -0.42310495020E+02  0.42310495020E+02  0.00000000000E+00 0. -1.
          6    2    1    2  502    0  0.30879513229E+02  0.11528493646E+03  0.46423326099E+03  0.51200225695E+03  0.17997119102E+03 0.  0.
         24    2    3    3    0    0  0.55220203546E+02  0.43085959852E+02  0.38959289655E+03  0.40523880144E+03  0.86776669289E+02 0.  0.
         -6    2    1    2    0  503 -0.30879513229E+02 -0.11528493646E+03  0.59200991271E+03  0.62886190679E+03  0.17534936599E+03 0.  0.
        -24    2    5    5    0    0  0.18485679592E+02 -0.21766278854E+02  0.40892411922E+03  0.41737867019E+03  0.78552707208E+02 0.  0.
          2    1    4    4  501    0  0.43185327156E+02  0.61929104724E+02  0.36167553811E+03  0.36947175990E+03  0.00000000000E+00 0. -1.
         -1    1    4    4    0  501  0.12034876390E+02 -0.18843144872E+02  0.27917358436E+02  0.35767041539E+02  0.00000000000E+00 0.  1.
          5    1    3    3  502    0 -0.24340690317E+02  0.72198976611E+02  0.74640364444E+02  0.10676345551E+03  0.47000000000E+01 0. -1.
         13    1    6    6    0    0 -0.21712845019E+02 -0.32707324936E+02  0.25101100358E+03  0.25406247394E+03  0.00000000000E+00 0. -1.
        -14    1    6    6    0    0  0.40198524611E+02  0.10941046082E+02  0.15791311563E+03  0.16331619626E+03  0.00000000000E+00 0.  1.
         -5    1    5    5    0  503 -0.49365192821E+02 -0.93518657610E+02  0.18308579349E+03  0.21148323660E+03  0.47000000000E+01 0.  1.
<mgrwt>
<rscale>  2 0.21498302E+03</rscale>
<asrwt>0</asrwt>
<pdfrwt beam="1">  1       21 0.16900824E+00 0.21594858E+03</pdfrwt>
<pdfrwt beam="2">  1       21 0.65093078E-02 0.21594858E+03</pdfrwt>
<totfact> 0.36645580E+04</totfact>
</mgrwt>
</event>
<event>
12    1  0.1441827E-001  0.3792111E+03  0.7546771E-02  0.1051295E+00
         21   -1    0    0  504  503  0.00000000000E+00  0.00000000000E+00  0.64838712904E+03  0.64838712904E+03  0.00000000000E+00 0.  1.
         21   -1    0    0  502  504 -0.00000000000E+00 -0.00000000000E+00 -0.54765197960E+03  0.54765197960E+03  0.00000000000E+00 0. -1.
          6    2    1    2  502    0 -0.18980744644E+03 -0.27778529394E+03 -0.41122283358E+03  0.55937935398E+03  0.17495572740E+03 0.  0.
         24    2    3    3    0    0 -0.89050881707E+02 -0.14762310238E+03 -0.12016751642E+03  0.22497036922E+03  0.80304390491E+02 0.  0.
         -6    2    1    2    0  503  0.18980744644E+03  0.27778529394E+03  0.51195798302E+03  0.63665975465E+03  0.17332954323E+03 0.  0.
        -24    2    5    5    0    0  0.13110345188E+03  0.27888494575E+03  0.41890224208E+03  0.52652879110E+03  0.82392665762E+02 0.  0.
          4    1    4    4  501    0 -0.83956999427E+02 -0.15376213297E+03 -0.12538655469E+03  0.21543759975E+03  0.00000000000E+00 0. -1.
         -3    1    4    4    0  501 -0.50938822804E+01  0.61390305882E+01  0.52190382688E+01  0.95327694664E+01  0.00000000000E+00 0.  1.
          5    1    3    3  502    0 -0.10075656474E+03 -0.13016219156E+03 -0.29105531715E+03  0.33440898477E+03  0.47000000000E+01 0. -1.
         11    1    6    6    0    0 -0.31336634164E+01 -0.41386896118E+01  0.11551955346E+02  0.12664764918E+02  0.00000000000E+00 0. -1.
        -12    1    6    6    0    0  0.13423711530E+03  0.28302363536E+03  0.40735028673E+03  0.51386402618E+03  0.00000000000E+00 0.  1.
         -5    1    5    5    0  503  0.58703994560E+02 -0.10996518079E+01  0.93055740937E+02  0.11013096355E+03  0.47000000000E+01 0.  1.
<mgrwt>
<rscale>  2 0.37902406E+03</rscale>
<asrwt>0</asrwt>
<pdfrwt beam="1">  1       21 0.99751866E-01 0.37921108E+03</pdfrwt>
<pdfrwt beam="2">  1       21 0.84254150E-01 0.37921108E+03</pdfrwt>
<totfact> 0.88388516E+02</totfact>
</mgrwt>
</event>
<event>
12    1  0.1441827E-001  0.1953354E+03  0.7546771E-02  0.1156141E+00
         21   -1    0    0  504  503  0.00000000000E+00  0.00000000000E+00  0.17729729445E+04  0.17729729445E+04  0.00000000000E+00 0.  1.
         21   -1    0    0  502  504 -0.00000000000E+00 -0.00000000000E+00 -0.80282717810E+02  0.80282717810E+02  0.00000000000E+00 0. -1.
          6    2    1    2  502    0 -0.29523629286E+02 -0.59977638653E+02  0.39778287853E+02  0.18884170711E+03  0.17207532170E+03 0.  0.
         24    2    3    3    0    0 -0.42943052908E+01  0.18629481857E+02  0.52021263988E+02  0.10524996919E+03  0.89475390224E+02 0.  0.
         -6    2    1    2    0  503  0.29523629286E+02  0.59977638653E+02  0.16529119388E+04  0.16644139552E+04  0.18354011790E+03 0.  0.
        -24    2    5    5    0    0  0.69831128148E+02  0.94360148977E+02  0.12181453884E+04  0.12264060844E+04  0.80084158580E+02 0.  0.
          4    1    4    4  501    0  0.24200681149E+02 -0.26225854428E+02  0.33577911339E+02  0.48999434062E+02  0.00000000000E+00 0. -1.
         -3    1    4    4    0  501 -0.28494986439E+02  0.44855336285E+02  0.18443352650E+02  0.56250535130E+02  0.00000000000E+00 0.  1.
          5    1    3    3  502    0 -0.25229323995E+02 -0.78607120511E+02 -0.12242976135E+02  0.83591737922E+02  0.47000000000E+01 0. -1.
         13    1    6    6    0    0  0.60944716162E+02  0.35274942589E+02  0.40563567086E+03  0.41170241373E+03  0.00000000000E+00 0. -1.
        -14    1    6    6    0    0  0.88864119852E+01  0.59085206388E+02  0.81250971754E+03  0.81470367069E+03  0.00000000000E+00 0.  1.
         -5    1    5    5    0  503 -0.40307498861E+02 -0.34382510324E+02  0.43476655043E+03  0.43800787077E+03  0.47000000000E+01 0.  1.
<mgrwt>
<rscale>  2 0.19259564E+03</rscale>
<asrwt>0</asrwt>
<pdfrwt beam="1">  1       21 0.27276504E+00 0.19533545E+03</pdfrwt>
<pdfrwt beam="2">  1       21 0.12351189E-01 0.19533545E+03</pdfrwt>
<totfact> 0.27218500E+03</totfact>
</mgrwt>
</event>
<event>
12    1  0.1441827E-001  0.1853768E+03  0.7546771E-02  0.1163946E+00
         21   -1    0    0  504  503  0.00000000000E+00  0.00000000000E+00  0.34715406825E+02  0.34715406825E+02  0.00000000000E+00 0.  1.
         21   -1    0    0  502  504 -0.00000000000E+00 -0.00000000000E+00 -0.12198676405E+04  0.12198676405E+04  0.00000000000E+00 0.  1.
          6    2    1    2  502    0  0.18225428165E+01 -0.46234741681E+02 -0.29740339964E+03  0.34768583367E+03  0.17405655350E+03 0.  0.
         24    2    3    3    0    0  0.49496977670E+02  0.12629361438E+02 -0.21551261670E+03  0.23603448032E+03  0.81591276334E+02 0.  0.
         -6    2    1    2    0  503 -0.18225428165E+01  0.46234741681E+02 -0.88774883399E+03  0.90689721361E+03  0.17950930560E+03 0.  0.
        -24    2    5    5    0    0  0.66474396916E+02  0.73816185017E+01 -0.54311152813E+03  0.55338483794E+03  0.82409423857E+02 0.  0.
          2    1    4    4  501    0 -0.19034466549E+02  0.18463118853E+02 -0.45940042113E+02  0.53044181056E+02  0.00000000000E+00 0. -1.
         -1    1    4    4    0  501  0.68531444218E+02 -0.58337574147E+01 -0.16957257459E+03  0.18299029926E+03  0.00000000000E+00 0.  1.
          5    1    3    3  502    0 -0.47674434853E+02 -0.58864103120E+02 -0.81890782936E+02  0.11165135335E+03  0.47000000000E+01 0. -1.
         11    1    6    6    0    0 -0.17062970543E+02  0.25200929320E+01 -0.43159205535E+02  0.46478090049E+02  0.00000000000E+00 0. -1.
        -12    1    6    6    0    0  0.83537367459E+02  0.48615255697E+01 -0.49995232259E+03  0.50690674789E+03  0.00000000000E+00 0.  1.
         -5    1    5    5    0  503 -0.68296939733E+02  0.38853123180E+02 -0.34463730586E+03  0.35351237567E+03  0.47000000000E+01 0.  1.
<mgrwt>
<rscale>  2 0.18404375E+03</rscale>
<asrwt>0</asrwt>
<pdfrwt beam="1">  1       21 0.53408324E-02 0.18537682E+03</pdfrwt>
<pdfrwt beam="2">  1       21 0.18767192E+00 0.18537682E+03</pdfrwt>
<totfact> 0.39048813E+04</totfact>
</mgrwt>
</event>
<event>
12    1  0.1441827E-001  0.2041943E+03  0.7546771E-02  0.1146464E+00
         21   -1    0    0  504  503  0.00000000000E+00  0.00000000000E+00  0.10849979985E+04  0.10849979985E+04  0.00000000000E+00 0.  1.
         21   -1    0    0  502  504 -0.00000000000E+00 -0.00000000000E+00 -0.75309105067E+02  0.75309105067E+02  0.00000000000E+00 0. -1.
          6    2    1    2  502    0  0.53043279921E+02  0.92477557232E+02  0.97106295871E+02  0.22515882559E+03  0.17291956484E+03 0.  0.
         24    2    3    3    0    0  0.64262043143E+02  0.12751642854E+03  0.89750000336E+02  0.18734628488E+03  0.81569100545E+02 0.  0.
         -6    2    1    2    0  503 -0.53043279921E+02 -0.92477557232E+02  0.91258259759E+03  0.93514827801E+03  0.17415400168E+03 0.  0.
        -24    2    5    5    0    0  0.35725640538E+02 -0.31780695297E+02  0.27582701148E+03  0.28935899602E+03  0.73224001057E+02 0.  0.
          2    1    4    4  501    0 -0.46434953204E+01  0.78992451945E+02  0.54011622328E+02  0.95805140048E+02  0.00000000000E+00 0. -1.
         -1    1    4    4    0  501  0.68905538463E+02  0.48523976591E+02  0.35738378008E+02  0.91541144835E+02  0.00000000000E+00 0.  1.
          5    1    3    3  502    0 -0.11218763221E+02 -0.35038871304E+02  0.73562955349E+01  0.37812540703E+02  0.47000000000E+01 0. -1.
         13    1    6    6    0    0 -0.10837092794E+02  0.12012362622E+02  0.20300074544E+02  0.25958283119E+02  0.00000000000E+00 0. -1.
        -14    1    6    6    0    0  0.46562733332E+02 -0.43793057919E+02  0.25552693694E+03  0.26340071290E+03  0.00000000000E+00 0.  1.
         -5    1    5    5    0  503 -0.88768920460E+02 -0.60696861935E+02  0.63675558611E+03  0.64578928198E+03  0.47000000000E+01 0.  1.
<mgrwt>
<rscale>  2 0.20393082E+03</rscale>
<asrwt>0</asrwt>
<pdfrwt beam="1">  1       21 0.16692276E+00 0.20419428E+03</pdfrwt>
<pdfrwt beam="2">  1       21 0.11586017E-01 0.20419428E+03</pdfrwt>
<totfact> 0.13898130E+04</totfact>
</mgrwt>
</event>
<event>
12    1  0.1441827E-001  0.2010839E+03  0.7546771E-02  0.1148998E+00
         21   -1    0    0  504  503  0.00000000000E+00  0.00000000000E+00  0.32555927766E+02  0.32555927766E+02  0.00000000000E+00 0.  1.
         21   -1    0    0  502  504 -0.00000000000E+00 -0.00000000000E+00 -0.19306184074E+04  0.19306184074E+04  0.00000000000E+00 0. -1.
          6    2    1    2  502    0 -0.99931924446E+02 -0.19562787154E+02 -0.15361549773E+04  0.15491553047E+04  0.17245565176E+03 0.  0.
         24    2    3    3    0    0  0.11856632845E+02 -0.46226836731E+02 -0.52096141981E+03  0.52746665245E+03  0.67400061919E+02 0.  0.
         -6    2    1    2    0  503  0.99931924446E+02  0.19562787154E+02 -0.36190750241E+03  0.41401903048E+03  0.17339442071E+03 0.  0.
        -24    2    5    5    0    0  0.24834694148E+01  0.57860862128E+02 -0.19251650930E+03  0.21482479742E+03  0.75716842577E+02 0.  0.
          2    1    4    4  501    0  0.22625102782E+02 -0.29610422839E+02 -0.48487464831E+03  0.48630453112E+03  0.00000000000E+00 0. -1.
         -1    1    4    4    0  501 -0.10768469937E+02 -0.16616413892E+02 -0.36086771501E+02  0.41162121335E+02  0.00000000000E+00 0.  1.
          5    1    3    3  502    0 -0.11178855729E+03  0.26664049578E+02 -0.10151935575E+04  0.10216886523E+04  0.47000000000E+01 0. -1.
         13    1    6    6    0    0  0.26368266122E+02  0.20040323970E+02 -0.14820826411E+03  0.15186372046E+03  0.00000000000E+00 0. -1.
        -14    1    6    6    0    0 -0.23884796707E+02  0.37820538158E+02 -0.44308245190E+02  0.62961076961E+02  0.00000000000E+00 0.  1.
         -5    1    5    5    0  503  0.97448455031E+02 -0.38298074974E+02 -0.16939099312E+03  0.19919423306E+03  0.47000000000E+01 0.  1.
<mgrwt>
<rscale>  2 0.20088132E+03</rscale>
<asrwt>0</asrwt>
<pdfrwt beam="1">  1       21 0.50086038E-02 0.20108386E+03</pdfrwt>
<pdfrwt beam="2">  1       21 0.29701824E+00 0.20108386E+03</pdfrwt>
<totfact> 0.94397152E+03</totfact>
</mgrwt>
</event>
<event>
12    1  0.1441827E-001  0.1855506E+03  0.7546771E-02  0.1162984E+00
         21   -1    0    0  504  503  0.00000000000E+00  0.00000000000E+00  0.33057202494E+03  0.33057202494E+03  0.00000000000E+00 0. -1.
         21   -1    0    0  502  504 -0.00000000000E+00 -0.00000000000E+00 -0.96637695944E+03  0.96637695944E+03  0.00000000000E+00 0. -1.
          6    2    1    2  502    0 -0.43104880053E+02 -0.42077387150E+02 -0.93099222047E+03  0.94930266543E+03  0.17550070889E+03 0.  0.
         24    2    3    3    0    0  0.32821140804E+02  0.56944320851E+01 -0.31062781157E+03  0.32246855884E+03  0.79916708374E+02 0.  0.
         -6    2    1    2    0  503  0.43104880053E+02  0.42077387150E+02  0.29518728597E+03  0.34764631895E+03  0.17347591214E+03 0.  0.
        -24    2    5    5    0    0  0.25830355350E+02 -0.43473453540E+02  0.17065329427E+03  0.19550112305E+03  0.80876410970E+02 0.  0.
          2    1    4    4  501    0 -0.13865206929E+02  0.91010922826E+01 -0.12709456883E+02  0.20895074495E+02  0.00000000000E+00 0. -1.
         -1    1    4    4    0  501  0.46686347733E+02 -0.34066601975E+01 -0.29791835469E+03  0.30157348435E+03  0.00000000000E+00 0.  1.
          5    1    3    3  502    0 -0.75926020857E+02 -0.47771819235E+02 -0.62036440889E+03  0.62683410659E+03  0.47000000000E+01 0. -1.
         11    1    6    6    0    0  0.53365582389E+01 -0.43114713240E+02  0.16949220569E+03  0.17497132663E+03  0.00000000000E+00 0. -1.
        -12    1    6    6    0    0  0.20493797111E+02 -0.35874029935E+00  0.11610885746E+01  0.20529796427E+02  0.00000000000E+00 0.  1.
         -5    1    5    5    0  503  0.17274524703E+02  0.85550840690E+02  0.12453399170E+03  0.15214519590E+03  0.47000000000E+01 0.  1.
<mgrwt>
<rscale>  2 0.18507028E+03</rscale>
<asrwt>0</asrwt>
<pdfrwt beam="1">  1       21 0.50857235E-01 0.18555063E+03</pdfrwt>
<pdfrwt beam="2">  1       21 0.14867338E+00 0.18555063E+03</pdfrwt>
<totfact> 0.11336186E+03</totfact>
</mgrwt>
</event>
<event>
12    1  0.1441827E-001  0.2418560E+03  0.7546771E-02  0.1118910E+00
         21   -1    0    0  504  503  0.00000000000E+00  0.00000000000E+00  0.21931204476E+03  0.21931204476E+03  0.00000000000E+00 0. -1.
         21   -1    0    0  502  504 -0.00000000000E+00 -0.00000000000E+00 -0.26447950793E+03  0.26447950793E+03  0.00000000000E+00 0.  1.
          6    2    1    2  502    0  0.20785752488E+02 -0.16699505370E+03 -0.18798797856E+02  0.24258547232E+03  0.17370930060E+03 0.  0.
         24    2    3    3    0    0  0.79567873975E+02 -0.10022655152E+03 -0.16877103897E+02  0.15348354419E+03  0.83041878004E+02 0.  0.
         -6    2    1    2    0  503 -0.20785752488E+02  0.16699505370E+03 -0.26368665318E+02  0.24120608036E+03  0.17077959840E+03 0.  0.
        -24    2    5    5    0    0 -0.50568304524E+02  0.18223794741E+03 -0.28744458047E+02  0.20733750192E+03  0.79967324174E+02 0.  0.
          2    1    4    4  501    0  0.93660310612E+01 -0.47739840016E+02  0.26807995359E+02  0.55547128439E+02  0.00000000000E+00 0. -1.
         -1    1    4    4    0  501  0.70201842914E+02 -0.52486711501E+02 -0.43685099256E+02  0.97936415749E+02  0.00000000000E+00 0.  1.
          5    1    3    3  502    0 -0.58782121487E+02 -0.66768502178E+02 -0.19216939593E+01  0.89101928135E+02  0.47000000000E+01 0. -1.
         13    1    6    6    0    0  0.12135561190E+02  0.12722016206E+01  0.43967370023E+01  0.12970028474E+02  0.00000000000E+00 0. -1.
        -14    1    6    6    0    0 -0.62703865714E+02  0.18096574579E+03 -0.33141195049E+02  0.19436747345E+03  0.00000000000E+00 0.  1.
         -5    1    5    5    0  503  0.29782552037E+02 -0.15242893715E+02  0.23757927283E+01  0.33868578442E+02  0.47000000000E+01 0.  1.
<mgrwt>
<rscale>  2 0.24133039E+03</rscale>
<asrwt>0</asrwt>
<pdfrwt beam="1">  1       21 0.33740314E-01 0.24185598E+03</pdfrwt>
<pdfrwt beam="2">  1       21 0.40689155E-01 0.24185598E+03</pdfrwt>
<totfact> 0.48147477E+04</totfact>
</mgrwt>
</event>
<event>
12    1  0.1441827E-001  0.1902390E+03  0.7546771E-02  0.1161281E+00
         21   -1    0    0  504  503  0.00000000000E+00  0.00000000000E+00  0.17481338386E+03  0.17481338386E+03  0.00000000000E+00 0. -1.
         21   -1    0    0  502  504 -0.00000000000E+00 -0.00000000000E+00 -0.32501785819E+03  0.32501785819E+03  0.00000000000E+00 0. -1.
          6    2    1    2  502    0 -0.33046998414E+02  0.20005055084E+02 -0.23266132719E+03  0.29249087284E+03  0.17299511899E+03 0.  0.
         24    2    3    3    0    0 -0.40274864958E+02  0.61680455810E+02 -0.22299362283E+03  0.24884874196E+03  0.82298220981E+02 0.  0.
         -6    2    1    2    0  503  0.33046998414E+02 -0.20005055084E+02  0.82456852864E+02  0.20734036921E+03  0.18627557485E+03 0.  0.
        -24    2    5    5    0    0  0.95404083204E+02 -0.29657529459E+01  0.54748119614E+02  0.13685201741E+03  0.81365737783E+02 0.  0.
          2    1    4    4  501    0 -0.24045346499E+02  0.20479371965E+02 -0.19252091333E+03  0.19509455512E+03  0.00000000000E+00 0. -1.
         -1    1    4    4    0  501 -0.16229518460E+02  0.41201083845E+02 -0.30472709493E+02  0.53754186844E+02  0.00000000000E+00 0.  1.
          5    1    3    3  502    0  0.72278665445E+01 -0.41675400726E+02 -0.96677043605E+01  0.43642130883E+02  0.47000000000E+01 0. -1.
         13    1    6    6    0    0  0.61011172028E+01 -0.22772351280E+02  0.36693181280E+02  0.43614139524E+02  0.00000000000E+00 0. -1.
        -14    1    6    6    0    0  0.89302966002E+02  0.19806598334E+02  0.18054938334E+02  0.93237877885E+02  0.00000000000E+00 0.  1.
         -5    1    5    5    0  503 -0.62357084790E+02 -0.17039302138E+02  0.27708733251E+02  0.70488351799E+02  0.47000000000E+01 0.  1.
<mgrwt>
<rscale>  2 0.18690670E+03</rscale>
<asrwt>0</asrwt>
<pdfrwt beam="1">  1       21 0.26894367E-01 0.19023905E+03</pdfrwt>
<pdfrwt beam="2">  1       21 0.50002746E-01 0.19023905E+03</pdfrwt>
<totfact> 0.50228919E+04</totfact>
</mgrwt>
</event>
<event>
12    1  0.1441827E-001  0.1748223E+03  0.7546771E-02  0.1172930E+00
         21   -1    0    0  504  503  0.00000000000E+00  0.00000000000E+00  0.10385531737E+02  0.10385531737E+02  0.00000000000E+00 0. -1.
         21   -1    0    0  502  504 -0.00000000000E+00 -0.00000000000E+00 -0.31643851851E+04  0.31643851851E+04  0.00000000000E+00 0. -1.
          6    2    1    2  502    0  0.93987030987E+01  0.27419582311E+02 -0.19986049961E+04  0.20062364691E+04  0.17240264002E+03 0.  0.
         24    2    3    3    0    0  0.53655201497E+02  0.39076291692E+02 -0.17617361607E+04  0.17649411071E+04  0.83048024702E+02 0.  0.
         -6    2    1    2    0  503 -0.93987030987E+01 -0.27419582311E+02 -0.11553946572E+04  0.11685342477E+04  0.17232325744E+03 0.  0.
        -24    2    5    5    0    0  0.35726747702E+02 -0.70000495505E+02 -0.68329919060E+03  0.69235606671E+03  0.79263291316E+02 0.  0.
          4    1    4    4  501    0  0.50955430494E+02  0.38787479830E+02 -0.63883564049E+03  0.64203730425E+03  0.00000000000E+00 0. -1.
         -3    1    4    4    0  501  0.26997710031E+01  0.28881186117E+00 -0.11229005202E+04  0.11229038028E+04  0.00000000000E+00 0.  1.
          5    1    3    3  502    0 -0.44256498399E+02 -0.11656709381E+02 -0.23686883546E+03  0.24129536203E+03  0.47000000000E+01 0. -1.
         13    1    6    6    0    0  0.41007389625E+02 -0.25177622916E+02 -0.53947053243E+03  0.54161238360E+03  0.00000000000E+00 0. -1.
        -14    1    6    6    0    0 -0.52806419233E+01 -0.44822872589E+02 -0.14382865817E+03  0.15074368311E+03  0.00000000000E+00 0.  1.
         -5    1    5    5    0  503 -0.45125450801E+02  0.42580913194E+02 -0.47209546663E+03  0.47617818103E+03  0.47000000000E+01 0.  1.
<mgrwt>
<rscale>  2 0.17480273E+03</rscale>
<asrwt>0</asrwt>
<pdfrwt beam="1">  1       21 0.15977722E-02 0.17482231E+03</pdfrwt>
<pdfrwt beam="2">  1       21 0.48682907E+00 0.17482231E+03</pdfrwt>
<totfact> 0.42610391E+03</totfact>
</mgrwt>
</event>
<event>
12    1  0.1441827E-001  0.2179916E+03  0.7546771E-02  0.1135399E+00
         21   -1    0    0  504  503  0.00000000000E+00  0.00000000000E+00  0.67101167233E+03  0.67101167233E+03  0.00000000000E+00 0. -1.
         21   -1    0    0  502  504 -0.00000000000E+00 -0.00000000000E+00 -0.89738306835E+02  0.89738306835E+02  0.00000000000E+00 0. -1.
          6    2    1    2  502    0 -0.10087264231E+03  0.86829882721E+02  0.11588081696E+03  0.24683311253E+03  0.17257897671E+03 0.  0.
         24    2    3    3    0    0 -0.71799430436E+02  0.31260710080E+02  0.14014529766E+03  0.17942362046E+03  0.80123285752E+02 0.  0.
         -6    2    1    2    0  503  0.10087264231E+03 -0.86829882721E+02  0.46539254853E+03  0.51391686663E+03  0.17264299314E+03 0.  0.
        -24    2    5    5    0    0  0.82348715099E+01 -0.48483380305E+02  0.34298895830E+03  0.35562302680E+03  0.80049112435E+02 0.  0.
          2    1    4    4  501    0 -0.34648578543E+02 -0.21106266800E+02  0.25196219900E+02  0.47758224323E+02  0.00000000000E+00 0. -1.
         -1    1    4    4    0  501 -0.37150851893E+02  0.52366976879E+02  0.11494907776E+03  0.13166539614E+03  0.00000000000E+00 0.  1.
          5    1    3    3  502    0 -0.29073211873E+02  0.55569172641E+02 -0.24264480700E+02  0.67409492063E+02  0.47000000000E+01 0. -1.
         13    1    6    6    0    0 -0.15781696083E+02 -0.30450693722E+02  0.47371407818E+02  0.58483817917E+02  0.00000000000E+00 0. -1.
        -14    1    6    6    0    0  0.24016567592E+02 -0.18032686583E+02  0.29561755048E+03  0.29713920889E+03  0.00000000000E+00 0.  1.
         -5    1    5    5    0  503  0.92637770799E+02 -0.38346502416E+02  0.12240359023E+03  0.15829383983E+03  0.47000000000E+01 0.  1.
<mgrwt>
<rscale>  2 0.21797889E+03</rscale>
<asrwt>0</asrwt>
<pdfrwt beam="1">  1       21 0.10323256E+00 0.21799156E+03</pdfrwt>
<pdfrwt beam="2">  1       21 0.13805894E-01 0.21799156E+03</pdfrwt>
<totfact> 0.34224584E+04</totfact>
</mgrwt>
</event>
<event>
12    1  0.1441827E-001  0.2303637E+03  0.7546771E-02  0.1126776E+00
         21   -1    0    0  504  503  0.00000000000E+00  0.00000000000E+00  0.79124905683E+03  0.79124905683E+03  0.00000000000E+00 0.  1.
         21   -1    0    0  502  504 -0.00000000000E+00 -0.00000000000E+00 -0.11262554137E+03  0.11262554137E+03  0.00000000000E+00 0. -1.
          6    2    1    2  502    0 -0.15091309404E+03  0.14807516277E+02  0.48879367674E+02  0.23331875923E+03  0.17045358996E+03 0.  0.
         24    2    3    3    0    0 -0.17848580008E+02 -0.29108269321E+02  0.20509490453E+02  0.90274356844E+02  0.81012080296E+02 0.  0.
         -6    2    1    2    0  503  0.15091309404E+03 -0.14807516277E+02  0.62974414779E+03  0.67055583896E+03  0.17341688789E+03 0.  0.
        -24    2    5    5    0    0  0.62659256476E+02  0.28909240385E+02  0.47840547769E+03  0.48993087467E+03  0.79990838687E+02 0.  0.
          4    1    4    4  501    0  0.97964149284E+01 -0.51121772437E+02  0.73669401821E+01  0.52570687367E+02  0.00000000000E+00 0. -1.
         -3    1    4    4    0  501 -0.27644994936E+02  0.22013503116E+02  0.13142550270E+02  0.37703669477E+02  0.00000000000E+00 0.  1.
          5    1    3    3  502    0 -0.13306451403E+03  0.43915785598E+02  0.28369877221E+02  0.14304440238E+03  0.47000000000E+01 0. -1.
         13    1    6    6    0    0  0.96192387840E+01  0.90938779150E+01  0.66945131388E+01  0.14833909683E+02  0.00000000000E+00 0. -1.
        -14    1    6    6    0    0  0.53040017692E+02  0.19815362470E+02  0.47171096455E+03  0.47509696499E+03  0.00000000000E+00 0.  1.
         -5    1    5    5    0  503  0.88253837565E+02 -0.43716756662E+02  0.15133867010E+03  0.18062496429E+03  0.47000000000E+01 0.  1.
<mgrwt>
<rscale>  2 0.22980609E+03</rscale>
<asrwt>0</asrwt>
<pdfrwt beam="1">  1       21 0.12173062E+00 0.23036372E+03</pdfrwt>
<pdfrwt beam="2">  1       21 0.17327007E-01 0.23036372E+03</pdfrwt>
<totfact> 0.14985443E+04</totfact>
</mgrwt>
</event>
<event>
12    1  0.1441827E-001  0.1904268E+03  0.7546771E-02  0.1160292E+00
         21   -1    0    0  504  503  0.00000000000E+00  0.00000000000E+00  0.98184863587E+02  0.98184863587E+02  0.00000000000E+00 0. -1.
         21   -1    0    0  502  504 -0.00000000000E+00 -0.00000000000E+00 -0.37901748478E+03  0.37901748478E+03  0.00000000000E+00 0. -1.
          6    2    1    2  502    0 -0.36703303833E+02  0.37572530695E+02 -0.72174071567E+02  0.19471207231E+03  0.17304585208E+03 0.  0.
         24    2    3    3    0    0  0.11914100926E+02 -0.15104428156E+02  0.15013771015E+02  0.81741616286E+02  0.78014030547E+02 0.  0.
         -6    2    1    2    0  503  0.36703303833E+02 -0.37572530695E+02 -0.20865854963E+03  0.28249027606E+03  0.18303971744E+03 0.  0.
        -24    2    5    5    0    0 -0.32466460827E+02  0.26809402180E+00 -0.17755755104E+03  0.19760369682E+03  0.80413892541E+02 0.  0.
          2    1    4    4  501    0 -0.31981865885E+02 -0.14094055140E+02  0.14480544652E+02  0.37830785205E+02  0.00000000000E+00 0. -1.
         -1    1    4    4    0  501  0.43895966811E+02 -0.10103730155E+01  0.53322636316E+00  0.43910831082E+02  0.00000000000E+00 0.  1.
          5    1    3    3  502    0 -0.48617404759E+02  0.52676958851E+02 -0.87187842583E+02  0.11297045602E+03  0.47000000000E+01 0. -1.
         11    1    6    6    0    0  0.25421750240E+02  0.11122864974E+02 -0.60761350137E+02  0.66797643529E+02  0.00000000000E+00 0. -1.
        -12    1    6    6    0    0 -0.57888211067E+02 -0.10854770952E+02 -0.11679620090E+03  0.13080605329E+03  0.00000000000E+00 0.  1.
         -5    1    5    5    0  503  0.69169764660E+02 -0.37840624717E+02 -0.31100998591E+02  0.84886579242E+02  0.47000000000E+01 0.  1.
<mgrwt>
<rscale>  2 0.18798390E+03</rscale>
<asrwt>0</asrwt>
<pdfrwt beam="1">  1       21 0.15105364E-01 0.19042680E+03</pdfrwt>
<pdfrwt beam="2">  1       21 0.58310382E-01 0.19042680E+03</pdfrwt>
<totfact> 0.10678544E+05</totfact>
</mgrwt>
</event>
<event>
12    1  0.1441827E-001  0.1751013E+03  0.7546771E-02  0.1172997E+00
         21   -1    0    0  504  503  0.00000000000E+00  0.00000000000E+00  0.14472479734E+04  0.14472479734E+04  0.00000000000E+00 0. -1.
         21   -1    0    0  502  504 -0.00000000000E+00 -0.00000000000E+00 -0.55937112972E+02  0.55937112972E+02  0.00000000000E+00 0. -1.
          6    2    1    2  502    0 -0.80373061791E+01  0.29070604108E+02  0.10284362358E+03  0.20306960178E+03  0.17248406867E+03 0.  0.
         24    2    3    3    0    0  0.49080814707E+02  0.20760102237E+02  0.10701132337E+03  0.14500925476E+03  0.82075285074E+02 0.  0.
         -6    2    1    2    0  503  0.80373061791E+01 -0.29070604108E+02  0.12884672368E+04  0.13001154846E+04  0.17100513011E+03 0.  0.
        -24    2    5    5    0    0 -0.95998050341E+00 -0.32556265073E+02  0.33641088124E+03  0.34799863501E+03  0.82885083059E+02 0.  0.
          4    1    4    4  501    0 -0.10461737450E+02  0.28175157246E+02  0.65443502295E+02  0.72014855613E+02  0.00000000000E+00 0. -1.
         -3    1    4    4    0  501  0.59542552157E+02 -0.74150550089E+01  0.41567821073E+02  0.72994399147E+02  0.00000000000E+00 0.  1.
          5    1    3    3  502    0 -0.57118120886E+02  0.83105018707E+01 -0.41676997879E+01  0.58060347023E+02  0.47000000000E+01 0. -1.
         13    1    6    6    0    0 -0.43702160947E+01 -0.31550976083E+02  0.34083661078E+03  0.34232171729E+03  0.00000000000E+00 0. -1.
        -14    1    6    6    0    0  0.34102355913E+01 -0.10052889896E+01 -0.44257295444E+01  0.56769177149E+01  0.00000000000E+00 0.  1.
         -5    1    5    5    0  503  0.89972866825E+01  0.34856609649E+01  0.95205635558E+03  0.95211684955E+03  0.47000000000E+01 0.  1.
<mgrwt>
<rscale>  2 0.17473596E+03</rscale>
<asrwt>0</asrwt>
<pdfrwt beam="1">  1       21 0.22265351E+00 0.17510126E+03</pdfrwt>
<pdfrwt beam="2">  1       21 0.86057108E-02 0.17510126E+03</pdfrwt>
<totfact> 0.10404487E+04</totfact>
</mgrwt>
</event>
<event>
12    1  0.1441827E-001  0.2417964E+03  0.7546771E-02  0.1118659E+00
         21   -1    0    0  504  503  0.00000000000E+00  0.00000000000E+00  0.63848436015E+03  0.63848436015E+03  0.00000000000E+00 0. -1.
         21   -1    0    0  502  504 -0.00000000000E+00 -0.00000000000E+00 -0.10637161682E+03  0.10637161682E+03  0.00000000000E+00 0. -1.
          6    2    1    2  502    0  0.10188333681E+03 -0.13354410781E+03  0.12634656759E+03  0.27250897094E+03  0.17344578706E+03 0.  0.
         24    2    3    3    0    0  0.94008602149E+02 -0.14704138277E+03  0.15004267027E+03  0.24373774991E+03  0.80227815052E+02 0.  0.
         -6    2    1    2    0  503 -0.10188333681E+03  0.13354410781E+03  0.40576617574E+03  0.47234700603E+03  0.17392889834E+03 0.  0.
        -24    2    5    5    0    0 -0.11197547267E+03  0.12216800926E+03  0.41281238535E+03  0.45493994153E+03  0.95355943357E+02 0.  0.
          2    1    4    4  501    0  0.97259093283E+02 -0.10064602783E+03  0.84905625389E+02  0.16370070057E+03  0.00000000000E+00 0. -1.
         -1    1    4    4    0  501 -0.32504911341E+01 -0.46395354938E+02  0.65137044876E+02  0.80037049344E+02  0.00000000000E+00 0.  1.
          5    1    3    3  502    0  0.78747346633E+01  0.13497274954E+02 -0.23696102676E+02  0.28771221024E+02  0.47000000000E+01 0. -1.
         11    1    6    6    0    0 -0.40817609481E+02  0.27879026861E+02  0.39166455050E+02  0.63066065230E+02  0.00000000000E+00 0. -1.
        -12    1    6    6    0    0 -0.71157863193E+02  0.94288982402E+02  0.37364593030E+03  0.39187387630E+03  0.00000000000E+00 0.  1.
         -5    1    5    5    0  503  0.10092135862E+02  0.11376098549E+02 -0.70462096132E+01  0.17407064496E+02  0.47000000000E+01 0.  1.
<mgrwt>
<rscale>  2 0.24170955E+03</rscale>
<asrwt>0</asrwt>
<pdfrwt beam="1">  1       21 0.98228361E-01 0.24179641E+03</pdfrwt>
<pdfrwt beam="2">  1       21 0.16364864E-01 0.24179641E+03</pdfrwt>
<totfact> 0.27905975E+04</totfact>
</mgrwt>
</event>
<event>
12    1  0.1441827E-001  0.1842093E+03  0.7546771E-02  0.1164733E+00
         21   -1    0    0  504  503  0.00000000000E+00  0.00000000000E+00  0.27915142079E+03  0.27915142079E+03  0.00000000000E+00 0.  1.
         21   -1    0    0  502  504 -0.00000000000E+00 -0.00000000000E+00 -0.12557292520E+03  0.12557292520E+03  0.00000000000E+00 0.  1.
          6    2    1    2  502    0 -0.47907979180E+02 -0.37891971537E+02  0.29535681538E+02  0.18264402460E+03  0.16957448883E+03 0.  0.
         24    2    3    3    0    0 -0.31161807138E+02 -0.60242099526E+02  0.71253004920E+02  0.13222193054E+03  0.88348624356E+02 0.  0.
         -6    2    1    2    0  503  0.47907979180E+02  0.37891971537E+02  0.12404281406E+03  0.22208032139E+03  0.17378743756E+03 0.  0.
        -24    2    5    5    0    0  0.75320970082E+02 -0.23685402512E+02  0.10184381465E+03  0.15095978540E+03  0.78628540613E+02 0.  0.
          2    1    4    4  501    0  0.27615235362E+02 -0.28305741115E+02  0.46146338557E+02  0.60772532993E+02  0.00000000000E+00 0. -1.
         -1    1    4    4    0  501 -0.58777042500E+02 -0.31936358411E+02  0.25106666363E+02  0.71449397545E+02  0.00000000000E+00 0.  1.
          5    1    3    3  502    0 -0.16746172042E+02  0.22350127989E+02 -0.41717323382E+02  0.50422094059E+02  0.47000000000E+01 0. -1.
         13    1    6    6    0    0  0.21029987326E+02 -0.22114545652E+02  0.90455878843E+02  0.95465069599E+02  0.00000000000E+00 0. -1.
        -14    1    6    6    0    0  0.54290982756E+02 -0.15708568598E+01  0.11387935809E+02  0.55494715801E+02  0.00000000000E+00 0.  1.
         -5    1    5    5    0  503 -0.27412990902E+02  0.61577374050E+02  0.22198999407E+02  0.71120535991E+02  0.47000000000E+01 0.  1.
<mgrwt>
<rscale>  2 0.18320884E+03</rscale>
<asrwt>0</asrwt>
<pdfrwt beam="1">  1       21 0.42946372E-01 0.18420925E+03</pdfrwt>
<pdfrwt beam="2">  1       21 0.19318912E-01 0.18420925E+03</pdfrwt>
<totfact> 0.12876201E+05</totfact>
</mgrwt>
</event>
<event>
12    1  0.1441827E-001  0.1963654E+03  0.7546771E-02  0.1153579E+00
         21   -1    0    0  504  503  0.00000000000E+00  0.00000000000E+00  0.28296004616E+03  0.28296004616E+03  0.00000000000E+00 0. -1.
         21   -1    0    0  502  504 -0.00000000000E+00 -0.00000000000E+00 -0.16774609830E+03  0.16774609830E+03  0.00000000000E+00 0. -1.
          6    2    1    2  502    0 -0.69325899830E+02  0.51023482901E+02 -0.43958661557E+02  0.19793095852E+03  0.17272760121E+03 0.  0.
         24    2    3    3    0    0 -0.19215813578E+01  0.79349854911E+02 -0.52617255103E+02  0.12415571374E+03  0.79661620429E+02 0.  0.
         -6    2    1    2    0  503  0.69325899830E+02 -0.51023482901E+02  0.15917260941E+03  0.25277518595E+03  0.17649333939E+03 0.  0.
        -24    2    5    5    0    0  0.66115422806E+01 -0.76511976807E+02  0.14566945049E+03  0.18358574119E+03  0.81156271950E+02 0.  0.
          4    1    4    4  501    0 -0.22608961296E+02  0.87162703767E+02 -0.45734798581E+02  0.10099591012E+03  0.00000000000E+00 0. -1.
         -3    1    4    4    0  501  0.20687379938E+02 -0.78128488561E+01 -0.68824565220E+01  0.23159803620E+02  0.00000000000E+00 0.  1.
          5    1    3    3  502    0 -0.67404318472E+02 -0.28326372010E+02  0.86585935465E+01  0.73775244779E+02  0.47000000000E+01 0. -1.
         13    1    6    6    0    0  0.43373950990E+02 -0.44031120340E+02  0.69723271025E+02  0.93173889612E+02  0.00000000000E+00 0. -1.
        -14    1    6    6    0    0 -0.36762408709E+02 -0.32480856467E+02  0.75946179464E+02  0.90411851580E+02  0.00000000000E+00 0.  1.
         -5    1    5    5    0  503  0.62714357550E+02  0.25488493905E+02  0.13503158923E+02  0.69189444754E+02  0.47000000000E+01 0.  1.
<mgrwt>
<rscale>  2 0.19551551E+03</rscale>
<asrwt>0</asrwt>
<pdfrwt beam="1">  1       21 0.43532315E-01 0.19636541E+03</pdfrwt>
<pdfrwt beam="2">  1       21 0.25807092E-01 0.19636541E+03</pdfrwt>
<totfact> 0.72175580E+04</totfact>
</mgrwt>
</event>
<event>
12    1  0.1441827E-001  0.2650023E+03  0.7546771E-02  0.1104185E+00
         21   -1    0    0  504  503  0.00000000000E+00  0.00000000000E+00  0.12988977422E+03  0.12988977422E+03  0.00000000000E+00 0.  1.
         21   -1    0    0  502  504 -0.00000000000E+00 -0.00000000000E+00 -0.58541333726E+03  0.58541333726E+03  0.00000000000E+00 0. -1.
          6    2    1    2  502    0 -0.19785415665E+03 -0.34774467143E+02 -0.12874550671E+03  0.29462117179E+03  0.17283141642E+03 0.  0.
         24    2    3    3    0    0 -0.28999410793E+02  0.10128064585E+02 -0.15451510056E+02  0.86328631766E+02  0.79185478347E+02 0.  0.
         -6    2    1    2    0  503  0.19785415665E+03  0.34774467143E+02 -0.32677805632E+03  0.42068193969E+03  0.17272482571E+03 0.  0.
        -24    2    5    5    0    0  0.73953896697E+02  0.74017804240E+02 -0.18848782020E+03  0.23084623881E+03  0.82550066176E+02 0.  0.
          2    1    4    4  501    0  0.11325855740E+02  0.29973394051E+02  0.11358663595E+02  0.33995567326E+02  0.00000000000E+00 0. -1.
         -1    1    4    4    0  501 -0.40325266533E+02 -0.19845329466E+02 -0.26810173650E+02  0.52333064440E+02  0.00000000000E+00 0.  1.
          5    1    3    3  502    0 -0.16885474585E+03 -0.44902531729E+02 -0.11329399665E+03  0.20829254002E+03  0.47000000000E+01 0. -1.
         13    1    6    6    0    0  0.59932771419E+02  0.22634621188E+02 -0.15554081830E+03  0.16821774378E+03  0.00000000000E+00 0. -1.
        -14    1    6    6    0    0  0.14021125278E+02  0.51383183051E+02 -0.32947001902E+02  0.62628495024E+02  0.00000000000E+00 0.  1.
         -5    1    5    5    0  503  0.12390025995E+03 -0.39243337096E+02 -0.13829023612E+03  0.18983570088E+03  0.47000000000E+01 0.  1.
<mgrwt>
<rscale>  2 0.26498494E+03</rscale>
<asrwt>0</asrwt>
<pdfrwt beam="1">  1       21 0.19983042E-01 0.26500232E+03</pdfrwt>
<pdfrwt beam="2">  1       21 0.90063591E-01 0.26500232E+03</pdfrwt>
<totfact> 0.23346589E+04</totfact>
</mgrwt>
</event>
<event>
12    1  0.1441827E-001  0.1854332E+03  0.7546771E-02  0.1162685E+00
         21   -1    0    0  504  503  0.00000000000E+00  0.00000000000E+00  0.58005080941E+03  0.58005080941E+03  0.00000000000E+00 0. -1.
         21   -1    0    0  502  504 -0.00000000000E+00 -0.00000000000E+00 -0.10244187778E+03  0.10244187778E+03  0.00000000000E+00 0.  1.
          6    2    1    2  502    0 -0.57007025076E+02 -0.33791200889E+02  0.17225910428E+02  0.18623159082E+03  0.17318726068E+03 0.  0.
         24    2    3    3    0    0 -0.24348316528E+02 -0.36545309316E+02 -0.54369685868E+02  0.10735069474E+03  0.81484408135E+02 0.  0.
         -6    2    1    2    0  503  0.57007025076E+02  0.33791200889E+02  0.46038302120E+03  0.49626109637E+03  0.17300550103E+03 0.  0.
        -24    2    5    5    0    0  0.34034303909E+02 -0.36978643755E+02  0.35419099597E+03  0.36651151813E+03  0.79709957724E+02 0.  0.
          2    1    4    4  501    0 -0.43395448851E+02 -0.37133964864E+02 -0.85821419941E+01  0.57755947648E+02  0.00000000000E+00 0. -1.
         -1    1    4    4    0  501  0.19047132323E+02  0.58865554826E+00 -0.45787543874E+02  0.49594747092E+02  0.00000000000E+00 0.  1.
          5    1    3    3  502    0 -0.32658708548E+02  0.27541084272E+01  0.71595596296E+02  0.78880896079E+02  0.47000000000E+01 0. -1.
         13    1    6    6    0    0  0.86268451054E+00  0.15711460123E+02  0.19413769338E+03  0.19477432633E+03  0.00000000000E+00 0. -1.
        -14    1    6    6    0    0  0.33171619399E+02 -0.52690103878E+02  0.16005330259E+03  0.17173719181E+03  0.00000000000E+00 0.  1.
         -5    1    5    5    0  503  0.22972721167E+02  0.70769844644E+02  0.10619202523E+03  0.12974957823E+03  0.47000000000E+01 0.  1.
<mgrwt>
<rscale>  2 0.18539075E+03</rscale>
<asrwt>0</asrwt>
<pdfrwt beam="1">  1       21 0.89238584E-01 0.18543320E+03</pdfrwt>
<pdfrwt beam="2">  1       21 0.15760289E-01 0.18543320E+03</pdfrwt>
<totfact> 0.38549411E+04</totfact>
</mgrwt>
</event>
<event>
12    1  0.1441827E-001  0.1801256E+03  0.7546771E-02  0.1167686E+00
         21   -1    0    0  504  503  0.00000000000E+00  0.00000000000E+00  0.50271355415E+03  0.50271355415E+03  0.00000000000E+00 0.  1.
         21   -1    0    0  502  504 -0.00000000000E+00 -0.00000000000E+00 -0.11769965186E+03  0.11769965186E+03  0.00000000000E+00 0.  1.
          6    2    1    2  502    0  0.47371468678E+02  0.15926988310E+02 -0.15985068935E+02  0.18081635024E+03  0.17303556017E+03 0.  0.
         24    2    3    3    0    0 -0.12833013075E+01  0.57909516500E+01 -0.71521154512E+02  0.10614123603E+03  0.78201690902E+02 0.  0.
         -6    2    1    2    0  503 -0.47371468678E+02 -0.15926988310E+02  0.40099897123E+03  0.43959685577E+03  0.17305344746E+03 0.  0.
        -24    2    5    5    0    0 -0.72261495069E+02  0.41827716154E+02  0.29271866989E+03  0.31428990082E+03  0.78247303771E+02 0.  0.
          4    1    4    4  501    0  0.29548444346E+02  0.17243293467E+02 -0.88089748869E+01  0.35327606364E+02  0.00000000000E+00 0. -1.
         -3    1    4    4    0  501 -0.30831745654E+02 -0.11452341817E+02 -0.62712179625E+02  0.70813629666E+02  0.00000000000E+00 0.  1.
          5    1    3    3  502    0  0.48654769985E+02  0.10136036660E+02  0.55536085577E+02  0.74675114213E+02  0.47000000000E+01 0. -1.
         11    1    6    6    0    0 -0.67372632682E+02  0.29987234697E+02  0.29231480088E+03  0.30147346267E+03  0.00000000000E+00 0. -1.
        -12    1    6    6    0    0 -0.48888623867E+01  0.11840481457E+02  0.40386900195E+00  0.12816438145E+02  0.00000000000E+00 0.  1.
         -5    1    5    5    0  503  0.24890026391E+02 -0.57754704464E+02  0.10828030134E+03  0.12530695495E+03  0.47000000000E+01 0.  1.
<mgrwt>
<rscale>  2 0.18012127E+03</rscale>
<asrwt>0</asrwt>
<pdfrwt beam="1">  1       21 0.77340546E-01 0.18012557E+03</pdfrwt>
<pdfrwt beam="2">  1       21 0.18107639E-01 0.18012557E+03</pdfrwt>
<totfact> 0.41475584E+04</totfact>
</mgrwt>
</event>
<event>
12    1  0.1441827E-001  0.1807429E+03  0.7546771E-02  0.1167259E+00
         21   -1    0    0  504  503  0.00000000000E+00  0.00000000000E+00  0.10072175370E+04  0.10072175370E+04  0.00000000000E+00 0.  1.
         21   -1    0    0  502  504 -0.00000000000E+00 -0.00000000000E+00 -0.57074087530E+02  0.57074087530E+02  0.00000000000E+00 0.  1.
          6    2    1    2  502    0 -0.50165948905E+02  0.83404073170E+01  0.12504544345E+03  0.21978253570E+03  0.17344110023E+03 0.  0.
         24    2    3    3    0    0 -0.96343376106E+02 -0.11307371831E+02  0.87798263746E+02  0.15711011430E+03  0.86977871446E+02 0.  0.
         -6    2    1    2    0  503  0.50165948905E+02 -0.83404073170E+01  0.82509800604E+03  0.84450908884E+03  0.17269249187E+03 0.  0.
        -24    2    5    5    0    0 -0.20332230814E+02  0.41199484664E+02  0.35682806923E+03  0.36835468326E+03  0.79044952662E+02 0.  0.
          2    1    4    4  501    0 -0.21846369355E+02 -0.28367447108E+02  0.70021117831E+02  0.78644344054E+02  0.00000000000E+00 0. -1.
         -1    1    4    4    0  501 -0.74497006751E+02  0.17060075277E+02  0.17777145915E+02  0.78465770246E+02  0.00000000000E+00 0.  1.
          5    1    3    3  502    0  0.46177427202E+02  0.19647779148E+02  0.37247179702E+02  0.62672421400E+02  0.47000000000E+01 0. -1.
         13    1    6    6    0    0 -0.20510831879E+02 -0.48936266219E+01  0.22394531685E+02  0.30759662795E+02  0.00000000000E+00 0. -1.
        -14    1    6    6    0    0  0.17860106519E+00  0.46093111286E+02  0.33443353754E+03  0.33759502046E+03  0.00000000000E+00 0.  1.
         -5    1    5    5    0  503  0.70498179719E+02 -0.49539891981E+02  0.46826993681E+03  0.47615440559E+03  0.47000000000E+01 0.  1.
<mgrwt>
<rscale>  2 0.18056308E+03</rscale>
<asrwt>0</asrwt>
<pdfrwt beam="1">  1       21 0.15495653E+00 0.18074291E+03</pdfrwt>
<pdfrwt beam="2">  1       21 0.87806296E-02 0.18074291E+03</pdfrwt>
<totfact> 0.28191005E+04</totfact>
</mgrwt>
</event>
<event>
12    1  0.1441827E-001  0.2280472E+03  0.7546771E-02  0.1128282E+00
         21   -1    0    0  504  503  0.00000000000E+00  0.00000000000E+00  0.40159117428E+02  0.40159117428E+02  0.00000000000E+00 0. -1.
         21   -1    0    0  502  504 -0.00000000000E+00 -0.00000000000E+00 -0.12949907698E+04  0.12949907698E+04  0.00000000000E+00 0.  1.
          6    2    1    2  502    0 -0.14486080629E+03 -0.30012147130E+02 -0.57607824686E+03  0.61957377704E+03  0.17355153850E+03 0.  0.
         24    2    3    3    0    0 -0.14382598763E+03 -0.42029135029E+01 -0.29956953859E+03  0.34182147167E+03  0.79977689659E+02 0.  0.
         -6    2    1    2    0  503  0.14486080629E+03  0.30012147130E+02 -0.67875340551E+03  0.71557611018E+03  0.17163217007E+03 0.  0.
        -24    2    5    5    0    0  0.14536054837E+03  0.54198779503E+02 -0.66444865713E+03  0.68708122022E+03  0.80755114385E+02 0.  0.
          4    1    4    4  501    0  0.50123283679E+01  0.44605678242E+01  0.52733129713E+00  0.67303922084E+01  0.00000000000E+00 0. -1.
         -3    1    4    4    0  501 -0.14883831600E+03 -0.86634813271E+01 -0.30009686989E+03  0.33509107947E+03  0.00000000000E+00 0.  1.
          5    1    3    3  502    0 -0.10348186587E+01 -0.25809233627E+02 -0.27650870827E+03  0.27775230537E+03  0.47000000000E+01 0. -1.
         11    1    6    6    0    0  0.14810085465E+01 -0.83797905696E+01 -0.65676628134E+01  0.10749347475E+02  0.00000000000E+00 0. -1.
        -12    1    6    6    0    0  0.14387953982E+03  0.62578570072E+02 -0.65788099432E+03  0.67633187275E+03  0.00000000000E+00 0.  1.
         -5    1    5    5    0  503 -0.49974208014E+00 -0.24186632373E+02 -0.14304748377E+02  0.28494889960E+02  0.47000000000E+01 0.  1.
<mgrwt>
<rscale>  2 0.22768199E+03</rscale>
<asrwt>0</asrwt>
<pdfrwt beam="1">  1       21 0.61783259E-02 0.22804719E+03</pdfrwt>
<pdfrwt beam="2">  1       21 0.19922934E+00 0.22804719E+03</pdfrwt>
<totfact> 0.24846920E+04</totfact>
</mgrwt>
</event>
<event>
12    1  0.1441827E-001  0.2915237E+03  0.7546771E-02  0.1089892E+00
         21   -1    0    0  504  503  0.00000000000E+00  0.00000000000E+00  0.15753636692E+03  0.15753636692E+03  0.00000000000E+00 0. -1.
         21   -1    0    0  502  504 -0.00000000000E+00 -0.00000000000E+00 -0.81123181369E+03  0.81123181369E+03  0.00000000000E+00 0. -1.
          6    2    1    2  502    0 -0.22798498605E+03 -0.56808168853E+02 -0.60869123068E+03  0.67379119725E+03  0.16818216693E+03 0.  0.
         24    2    3    3    0    0 -0.24092175845E+03 -0.51555114012E+02 -0.48253108019E+03  0.54677376445E+03  0.73648371745E+02 0.  0.
         -6    2    1    2    0  503  0.22798498605E+03  0.56808168853E+02 -0.45004216095E+02  0.29497698336E+03  0.17257380835E+03 0.  0.
        -24    2    5    5    0    0  0.17004537536E+03  0.74518410488E+02  0.21212929619E+02  0.20510233992E+03  0.84549147100E+02 0.  0.
          2    1    4    4  501    0 -0.13533318396E+03 -0.20217523728E+02 -0.34104295747E+03  0.36746988691E+03  0.00000000000E+00 0. -1.
         -1    1    4    4    0  501 -0.10558857449E+03 -0.31337590285E+02 -0.14148812272E+03  0.17930387753E+03  0.00000000000E+00 0.  1.
          5    1    3    3  502    0  0.12936772399E+02 -0.52530548411E+01 -0.12616015049E+03  0.12701743281E+03  0.47000000000E+01 0. -1.
         11    1    6    6    0    0  0.77918850966E+02  0.60169088848E+02 -0.24224230056E+02  0.10138283834E+03  0.00000000000E+00 0. -1.
        -12    1    6    6    0    0  0.92126524395E+02  0.14349321640E+02  0.45437159675E+02  0.10371950158E+03  0.00000000000E+00 0.  1.
         -5    1    5    5    0  503  0.57939610692E+02 -0.17710241634E+02 -0.66217145714E+02  0.89874643434E+02  0.47000000000E+01 0.  1.
<mgrwt>
<rscale>  2 0.29087699E+03</rscale>
<asrwt>0</asrwt>
<pdfrwt beam="1">  1       21 0.24236364E-01 0.29152365E+03</pdfrwt>
<pdfrwt beam="2">  1       21 0.12480490E+00 0.29152365E+03</pdfrwt>
<totfact> 0.72275147E+03</totfact>
</mgrwt>
</event>
<event>
12    1  0.1441827E-001  0.2252167E+03  0.7546771E-02  0.1130506E+00
         21   -1    0    0  504  503  0.00000000000E+00  0.00000000000E+00  0.20449489641E+03  0.20449489641E+03  0.00000000000E+00 0.  1.
         21   -1    0    0  502  504 -0.00000000000E+00 -0.00000000000E+00 -0.25194815149E+03  0.25194815149E+03  0.00000000000E+00 0.  1.
          6    2    1    2  502    0  0.14312866272E+03 -0.23602631085E+02 -0.60672890372E+02  0.23083867702E+03  0.16900413278E+03 0.  0.
         24    2    3    3    0    0  0.11382144983E+03  0.63638440330E+01  0.16536508330E+02  0.14285979543E+03  0.84496414658E+02 0.  0.
         -6    2    1    2    0  503 -0.14312866272E+03  0.23602631085E+02  0.13219635292E+02  0.22560437087E+03  0.17227790083E+03 0.  0.
        -24    2    5    5    0    0 -0.11646255087E+02  0.41821259456E+02  0.99678284391E+01  0.92742765492E+02  0.81346234991E+02 0.  0.
          4    1    4    4  501    0  0.70575258843E+02  0.32375438120E+01  0.51279751773E+02  0.87298120213E+02  0.00000000000E+00 0. -1.
         -3    1    4    4    0  501  0.43246190987E+02  0.31263002210E+01 -0.34743243443E+02  0.55561675217E+02  0.00000000000E+00 0.  1.
          5    1    3    3  502    0  0.29307212890E+02 -0.29966475118E+02 -0.77209398702E+02  0.87978881593E+02  0.47000000000E+01 0. -1.
         11    1    6    6    0    0  0.77260738181E+00 -0.23364110265E+02  0.12156626448E+02  0.26348854571E+02  0.00000000000E+00 0. -1.
        -12    1    6    6    0    0 -0.12418862468E+02  0.65185369720E+02 -0.21887980093E+01  0.66393910921E+02  0.00000000000E+00 0.  1.
         -5    1    5    5    0  503 -0.13148240763E+03 -0.18218628371E+02  0.32518068529E+01  0.13286160538E+03  0.47000000000E+01 0.  1.
<mgrwt>
<rscale>  2 0.22459055E+03</rscale>
<asrwt>0</asrwt>
<pdfrwt beam="1">  1       21 0.31460753E-01 0.22521673E+03</pdfrwt>
<pdfrwt beam="2">  1       21 0.38761254E-01 0.22521673E+03</pdfrwt>
<totfact> 0.61426963E+04</totfact>
</mgrwt>
</event>
<event>
12    1  0.1441827E-001  0.2045069E+03  0.7546771E-02  0.1146217E+00
         21   -1    0    0  504  503  0.00000000000E+00  0.00000000000E+00  0.20345267815E+04  0.20345267815E+04  0.00000000000E+00 0. -1.
         21   -1    0    0  502  504 -0.00000000000E+00 -0.00000000000E+00 -0.22867859234E+02  0.22867859234E+02  0.00000000000E+00 0.  1.
          6    2    1    2  502    0 -0.10592219662E+03 -0.25438444638E+02  0.67351740681E+03  0.70388121423E+03  0.17307928899E+03 0.  0.
         24    2    3    3    0    0 -0.10571895657E+03  0.38723607188E+02  0.49811627704E+03  0.51705387008E+03  0.80925049142E+02 0.  0.
         -6    2    1    2    0  503  0.10592219662E+03  0.25438444638E+02  0.13381415154E+04  0.13535134265E+04  0.17178257803E+03 0.  0.
        -24    2    5    5    0    0  0.51597700058E+02 -0.14173672777E+02  0.11517791179E+04  0.11553384937E+04  0.73134690115E+02 0.  0.
          2    1    4    4  501    0 -0.10706097709E+03  0.10528342171E+02  0.43142059652E+03  0.44463089176E+03  0.00000000000E+00 0. -1.
         -1    1    4    4    0  501  0.13420205252E+01  0.28195265017E+02  0.66695680522E+02  0.72422978320E+02  0.00000000000E+00 0.  1.
          5    1    3    3  502    0 -0.20324004988E+00 -0.64162051826E+02  0.17540112977E+03  0.18682734416E+03  0.47000000000E+01 0. -1.
         11    1    6    6    0    0 -0.11785042983E+02 -0.23087117722E+02  0.27104803786E+03  0.27228466918E+03  0.00000000000E+00 0. -1.
        -12    1    6    6    0    0  0.63382743041E+02  0.89134449450E+01  0.88073108006E+03  0.88305382452E+03  0.00000000000E+00 0.  1.
         -5    1    5    5    0  503  0.54324496560E+02  0.39612117415E+02  0.18636239751E+03  0.19817493277E+03  0.47000000000E+01 0.  1.
<mgrwt>
<rscale>  2 0.20423227E+03</rscale>
<asrwt>0</asrwt>
<pdfrwt beam="1">  1       21 0.31300398E+00 0.20450689E+03</pdfrwt>
<pdfrwt beam="2">  1       21 0.35181338E-02 0.20450689E+03</pdfrwt>
<totfact> 0.13778286E+04</totfact>
</mgrwt>
</event>
<event>
12    1  0.1441827E-001  0.2306085E+03  0.7546771E-02  0.1128330E+00
         21   -1    0    0  504  503  0.00000000000E+00  0.00000000000E+00  0.16093713366E+04  0.16093713366E+04  0.00000000000E+00 0. -1.
         21   -1    0    0  502  504 -0.00000000000E+00 -0.00000000000E+00 -0.45286151452E+03  0.45286151452E+03  0.00000000000E+00 0. -1.
          6    2    1    2  502    0 -0.46331563118E+02 -0.12489593088E+03 -0.41751547863E+03  0.47140415849E+03  0.17365799276E+03 0.  0.
         24    2    3    3    0    0 -0.64640595099E+02 -0.77746807564E+02 -0.13977853029E+03  0.18906010781E+03  0.77348007163E+02 0.  0.
         -6    2    1    2    0  503  0.46331563118E+02  0.12489593088E+03  0.15740253007E+04  0.15908286926E+04  0.18824100181E+03 0.  0.
        -24    2    5    5    0    0  0.59284862080E+02  0.90769030691E+02  0.59764274252E+03  0.61375273694E+03  0.88101433644E+02 0.  0.
          2    1    4    4  501    0 -0.42662860072E+02 -0.20019917815E+02 -0.11164903691E+03  0.12118755787E+03  0.00000000000E+00 0. -1.
         -1    1    4    4    0  501 -0.21977735027E+02 -0.57726889749E+02 -0.28129493377E+02  0.67872549935E+02  0.00000000000E+00 0.  1.
          5    1    3    3  502    0  0.18309031981E+02 -0.47149123318E+02 -0.27773694834E+03  0.28234405068E+03  0.47000000000E+01 0. -1.
         11    1    6    6    0    0  0.34026673582E+02  0.57928564176E+02  0.53133737272E+03  0.53556786377E+03  0.00000000000E+00 0. -1.
        -12    1    6    6    0    0  0.25258188498E+02  0.32840466514E+02  0.66305369801E+02  0.78184873163E+02  0.00000000000E+00 0.  1.
         -5    1    5    5    0  503 -0.12953298962E+02  0.34126900192E+02  0.97638255817E+03  0.97707595568E+03  0.47000000000E+01 0.  1.
<mgrwt>
<rscale>  2 0.22761532E+03</rscale>
<asrwt>0</asrwt>
<pdfrwt beam="1">  1       21 0.24759559E+00 0.23060850E+03</pdfrwt>
<pdfrwt beam="2">  1       21 0.69671003E-01 0.23060850E+03</pdfrwt>
<totfact> 0.12201837E+02</totfact>
</mgrwt>
</event>
<event>
12    1  0.1441827E-001  0.1763805E+03  0.7546771E-02  0.1172962E+00
         21   -1    0    0  504  503  0.00000000000E+00  0.00000000000E+00  0.67200315775E+03  0.67200315775E+03  0.00000000000E+00 0.  1.
         21   -1    0    0  502  504 -0.00000000000E+00 -0.00000000000E+00 -0.31543791586E+03  0.31543791586E+03  0.00000000000E+00 0.  1.
          6    2    1    2  502    0  0.27225261819E+01 -0.33777364203E+02 -0.27962018924E+03  0.32725777075E+03  0.16661895392E+03 0.  0.
         24    2    3    3    0    0  0.46756810471E+02 -0.33970023282E+02 -0.26207263599E+03  0.27962309918E+03  0.78529289163E+02 0.  0.
         -6    2    1    2    0  503 -0.27225261819E+01  0.33777364203E+02  0.63618543114E+03  0.66018330286E+03  0.17309467958E+03 0.  0.
        -24    2    5    5    0    0 -0.69956098894E+01 -0.48218121361E+02  0.32049181130E+03  0.33395321457E+03  0.80223578990E+02 0.  0.
          4    1    4    4  501    0  0.14632126367E+02  0.24993683615E+02 -0.58768652223E+02  0.65517461999E+02  0.00000000000E+00 0. -1.
         -3    1    4    4    0  501  0.32124684104E+02 -0.58963706897E+02 -0.20330398377E+03  0.21410563719E+03  0.00000000000E+00 0.  1.
          5    1    3    3  502    0 -0.44034284289E+02  0.19265907903E+00 -0.17547553253E+02  0.47634671569E+02  0.47000000000E+01 0. -1.
         11    1    6    6    0    0  0.18003757779E+02 -0.31220843407E+02  0.28526819998E+03  0.28753577565E+03  0.00000000000E+00 0. -1.
        -12    1    6    6    0    0 -0.24999367668E+02 -0.16997277954E+02  0.35223611316E+02  0.46417438919E+02  0.00000000000E+00 0.  1.
         -5    1    5    5    0  503  0.42730837075E+01  0.81995485564E+02  0.31569361984E+03  0.32623008829E+03  0.47000000000E+01 0.  1.
<mgrwt>
<rscale>  2 0.17477100E+03</rscale>
<asrwt>0</asrwt>
<pdfrwt beam="1">  1       21 0.10338510E+00 0.17638053E+03</pdfrwt>
<pdfrwt beam="2">  1       21 0.48528910E-01 0.17638053E+03</pdfrwt>
<totfact> 0.31189815E+03</totfact>
</mgrwt>
</event>
<event>
12    1  0.1441827E-001  0.2074946E+03  0.7546771E-02  0.1144072E+00
         21   -1    0    0  504  503  0.00000000000E+00  0.00000000000E+00  0.56172525045E+03  0.56172525045E+03  0.00000000000E+00 0.  1.
         21   -1    0    0  502  504 -0.00000000000E+00 -0.00000000000E+00 -0.89054404376E+02  0.89054404376E+02  0.00000000000E+00 0. -1.
          6    2    1    2  502    0  0.76943497487E+01  0.11140095491E+03  0.10922877396E+03  0.23227737981E+03  0.17190834865E+03 0.  0.
         24    2    3    3    0    0 -0.25897443184E+02  0.79300282023E+01  0.11832015838E+02  0.86185423429E+02  0.80959049537E+02 0.  0.
         -6    2    1    2    0  503 -0.76943497487E+01 -0.11140095491E+03  0.36344207211E+03  0.41850227501E+03  0.17488464381E+03 0.  0.
        -24    2    5    5    0    0 -0.25521233234E+02 -0.10774143899E+03  0.37000272210E+03  0.39859443837E+03  0.98569573996E+02 0.  0.
          2    1    4    4  501    0  0.81368840374E+01 -0.29803454368E+02 -0.75436353725E+01  0.31801905740E+02  0.00000000000E+00 0. -1.
         -1    1    4    4    0  501 -0.34034327222E+02  0.37733482570E+02  0.19375651211E+02  0.54383517688E+02  0.00000000000E+00 0.  1.
          5    1    3    3  502    0  0.33591792933E+02  0.10347092671E+03  0.97396758124E+02  0.14609195638E+03  0.47000000000E+01 0. -1.
         13    1    6    6    0    0 -0.56870741422E+02 -0.33193231825E+02  0.13811739790E+03  0.15301139654E+03  0.00000000000E+00 0. -1.
        -14    1    6    6    0    0  0.31349508188E+02 -0.74548207161E+02  0.23188532420E+03  0.24558304183E+03  0.00000000000E+00 0.  1.
         -5    1    5    5    0  503  0.17826883486E+02 -0.36595159221E+01 -0.65606499913E+01  0.19907836645E+02  0.47000000000E+01 0.  1.
<mgrwt>
<rscale>  2 0.20686619E+03</rscale>
<asrwt>0</asrwt>
<pdfrwt beam="1">  1       21 0.86419267E-01 0.20749461E+03</pdfrwt>
<pdfrwt beam="2">  1       21 0.13700678E-01 0.20749461E+03</pdfrwt>
<totfact> 0.52951546E+04</totfact>
</mgrwt>
</event>
<event>
12    1  0.1441827E-001  0.2107942E+03  0.7546771E-02  0.1141319E+00
         21   -1    0    0  504  503  0.00000000000E+00  0.00000000000E+00  0.11264604068E+03  0.11264604068E+03  0.00000000000E+00 0. -1.
         21   -1    0    0  502  504 -0.00000000000E+00 -0.00000000000E+00 -0.48484215704E+03  0.48484215704E+03  0.00000000000E+00 0.  1.
          6    2    1    2  502    0 -0.11040587452E+03 -0.41435542094E+02 -0.31830487024E+03  0.38177505097E+03  0.17472217332E+03 0.  0.
         24    2    3    3    0    0 -0.12127630070E+03  0.17708265978E+02 -0.25415827343E+03  0.29372374728E+03  0.81582399893E+02 0.  0.
         -6    2    1    2    0  503  0.11040587452E+03  0.41435542094E+02 -0.53891246121E+02  0.21571314675E+03  0.17239934454E+03 0.  0.
        -24    2    5    5    0    0  0.39340299700E+02  0.33279756187E+02  0.35119216594E+02  0.10142497921E+03  0.79990409929E+02 0.  0.
          2    1    4    4  501    0 -0.11252788363E+02  0.15356604778E+01  0.44664611921E+01  0.12203801646E+02  0.00000000000E+00 0. -1.
         -1    1    4    4    0  501 -0.11002351234E+03  0.16172605501E+02 -0.25862473462E+03  0.28151994564E+03  0.00000000000E+00 0.  1.
          5    1    3    3  502    0  0.10870426180E+02 -0.59143808072E+02 -0.64146596813E+02  0.88051303689E+02  0.47000000000E+01 0. -1.
         13    1    6    6    0    0  0.57097761672E+02  0.39403162858E+02  0.42371145654E+02  0.81290083130E+02  0.00000000000E+00 0. -1.
        -14    1    6    6    0    0 -0.17757461972E+02 -0.61234066706E+01 -0.72519290601E+01  0.20134896077E+02  0.00000000000E+00 0.  1.
         -5    1    5    5    0  503  0.71065574820E+02  0.81557859065E+01 -0.89010462715E+02  0.11428816755E+03  0.47000000000E+01 0.  1.
<mgrwt>
<rscale>  2 0.21031224E+03</rscale>
<asrwt>0</asrwt>
<pdfrwt beam="1">  1       21 0.17330160E-01 0.21079421E+03</pdfrwt>
<pdfrwt beam="2">  1       21 0.74591102E-01 0.21079421E+03</pdfrwt>
<totfact> 0.48028275E+04</totfact>
</mgrwt>
</event>
<event>
12    1  0.1441827E-001  0.2021749E+03  0.7546771E-02  0.1147973E+00
         21   -1    0    0  504  503  0.00000000000E+00  0.00000000000E+00  0.22053865172E+03  0.22053865172E+03  0.00000000000E+00 0.  1.
         21   -1    0    0  502  504 -0.00000000000E+00 -0.00000000000E+00 -0.21072725057E+03  0.21072725057E+03  0.00000000000E+00 0.  1.
          6    2    1    2  502    0  0.86455098719E+02  0.57008646647E+02 -0.70303042362E+02  0.21379631731E+03  0.17332592894E+03 0.  0.
         24    2    3    3    0    0  0.16326326868E+02 -0.30894351098E+02 -0.19098058272E+02  0.90147532235E+02  0.80875409486E+02 0.  0.
         -6    2    1    2    0  503 -0.86455098719E+02 -0.57008646647E+02  0.80114443517E+02  0.21746958498E+03  0.17363820560E+03 0.  0.
        -24    2    5    5    0    0 -0.65921634905E+02  0.33605648387E+02  0.43490609491E+02  0.11748974291E+03  0.80233440809E+02 0.  0.
          4    1    4    4  501    0 -0.31680659390E+02 -0.22487075575E+02 -0.36544667697E+01  0.39021633419E+02  0.00000000000E+00 0. -1.
         -3    1    4    4    0  501  0.48006986258E+02 -0.84072755233E+01 -0.15443591502E+02  0.51125898816E+02  0.00000000000E+00 0.  1.
          5    1    3    3  502    0  0.70128771851E+02  0.87902997745E+02 -0.51204984090E+02  0.12364878507E+03  0.47000000000E+01 0. -1.
         13    1    6    6    0    0 -0.42246380803E+01  0.22298814534E+02 -0.18515755041E+02  0.29290235254E+02  0.00000000000E+00 0. -1.
        -14    1    6    6    0    0 -0.61696996824E+02  0.11306833853E+02  0.62006364531E+02  0.88199507659E+02  0.00000000000E+00 0.  1.
         -5    1    5    5    0  503 -0.20533463815E+02 -0.90614295034E+02  0.36623834026E+02  0.99979842066E+02  0.47000000000E+01 0.  1.
<mgrwt>
<rscale>  2 0.20210785E+03</rscale>
<asrwt>0</asrwt>
<pdfrwt beam="1">  1       21 0.33929023E-01 0.20217492E+03</pdfrwt>
<pdfrwt beam="2">  1       21 0.32419577E-01 0.20217492E+03</pdfrwt>
<totfact> 0.76301147E+04</totfact>
</mgrwt>
</event>
<event>
12    1  0.1441827E-001  0.2717922E+03  0.7546771E-02  0.1100386E+00
         21   -1    0    0  504  503  0.00000000000E+00  0.00000000000E+00  0.26089259135E+03  0.26089259135E+03  0.00000000000E+00 0.  1.
         21   -1    0    0  502  504 -0.00000000000E+00 -0.00000000000E+00 -0.71005702896E+03  0.71005702896E+03  0.00000000000E+00 0.  1.
          6    2    1    2  502    0  0.47774195475E+02 -0.20365525104E+03 -0.60157421149E+03  0.66012312013E+03  0.17353145760E+03 0.  0.
         24    2    3    3    0    0 -0.33186736479E+02 -0.14763670244E+03 -0.41844214499E+03  0.45215150171E+03  0.80306888925E+02 0.  0.
         -6    2    1    2    0  503 -0.47774195475E+02  0.20365525104E+03  0.15240977388E+03  0.31082650018E+03  0.17212361549E+03 0.  0.
        -24    2    5    5    0    0 -0.56394878087E+02  0.15638272430E+03  0.17801852294E+03  0.25617390663E+03  0.79363323969E+02 0.  0.
          4    1    4    4  501    0 -0.98774679546E+01 -0.61158438011E+02 -0.28350796235E+03  0.29019766303E+03  0.00000000000E+00 0. -1.
         -3    1    4    4    0  501 -0.23309268524E+02 -0.86478264428E+02 -0.13493418264E+03  0.16195383868E+03  0.00000000000E+00 0.  1.
          5    1    3    3  502    0  0.80960931953E+02 -0.56018548606E+02 -0.18313206649E+03  0.20797161842E+03  0.47000000000E+01 0. -1.
         13    1    6    6    0    0 -0.26745984945E+02  0.98989948795E+01  0.76199402988E+01  0.29519507118E+02  0.00000000000E+00 0. -1.
        -14    1    6    6    0    0 -0.29648893142E+02  0.14648372942E+03  0.17039858264E+03  0.22665439951E+03  0.00000000000E+00 0.  1.
         -5    1    5    5    0  503  0.86206826124E+01  0.47272526744E+02 -0.25608749066E+02  0.54652593554E+02  0.47000000000E+01 0.  1.
<mgrwt>
<rscale>  2 0.27156775E+03</rscale>
<asrwt>0</asrwt>
<pdfrwt beam="1">  1       21 0.40137323E-01 0.27179220E+03</pdfrwt>
<pdfrwt beam="2">  1       21 0.10923954E+00 0.27179220E+03</pdfrwt>
<totfact> 0.37539001E+03</totfact>
</mgrwt>
</event>
<event>
12    1  0.1441827E-001  0.1748128E+03  0.7546771E-02  0.1173098E+00
         21   -1    0    0  504  503  0.00000000000E+00  0.00000000000E+00  0.55580443265E+03  0.55580443265E+03  0.00000000000E+00 0. -1.
         21   -1    0    0  502  504 -0.00000000000E+00 -0.00000000000E+00 -0.55735584894E+02  0.55735584894E+02  0.00000000000E+00 0. -1.
          6    2    1    2  502    0  0.24131021624E+02 -0.15585181200E+02  0.29099100370E+03  0.33946320309E+03  0.17243635910E+03 0.  0.
         24    2    3    3    0    0  0.52200778657E+01 -0.54904713322E+02  0.27810888879E+03  0.29372822430E+03  0.76745937827E+02 0.  0.
         -6    2    1    2    0  503 -0.24131021624E+02  0.15585181200E+02  0.20907784406E+03  0.27207681446E+03  0.17171791989E+03 0.  0.
        -24    2    5    5    0    0  0.37776683317E+02  0.28495096707E+02  0.14877660272E+03  0.18456933160E+03  0.98449541949E+02 0.  0.
          2    1    4    4  501    0  0.31867059923E+02 -0.56468466338E+02  0.15996580887E+03  0.17260723394E+03  0.00000000000E+00 0. -1.
         -1    1    4    4    0  501 -0.26646982058E+02  0.15637530159E+01  0.11814307991E+03  0.12112099036E+03  0.00000000000E+00 0.  1.
          5    1    3    3  502    0  0.18910943759E+02  0.39319532122E+02  0.12882114918E+02  0.45734978790E+02  0.47000000000E+01 0. -1.
         11    1    6    6    0    0 -0.31125105980E+02  0.19241396686E+02  0.31730164144E+02  0.48433530588E+02  0.00000000000E+00 0. -1.
        -12    1    6    6    0    0  0.68901789297E+02  0.92537000218E+01  0.11704643858E+03  0.13613580101E+03  0.00000000000E+00 0.  1.
         -5    1    5    5    0  503 -0.61907704942E+02 -0.12909915507E+02  0.60301241334E+02  0.87507482857E+02  0.47000000000E+01 0.  1.
<mgrwt>
<rscale>  2 0.17463533E+03</rscale>
<asrwt>0</asrwt>
<pdfrwt beam="1">  1       21 0.85508371E-01 0.17481276E+03</pdfrwt>
<pdfrwt beam="2">  1       21 0.85747057E-02 0.17481276E+03</pdfrwt>
<totfact> 0.12651248E+05</totfact>
</mgrwt>
</event>
<event>
12    1  0.1441827E-001  0.1774479E+03  0.7546771E-02  0.1170362E+00
         21   -1    0    0  504  503  0.00000000000E+00  0.00000000000E+00  0.49944763305E+03  0.49944763305E+03  0.00000000000E+00 0.  1.
         21   -1    0    0  502  504 -0.00000000000E+00 -0.00000000000E+00 -0.76625785204E+02  0.76625785204E+02  0.00000000000E+00 0.  1.
          6    2    1    2  502    0 -0.92865122203E+01 -0.36535019159E+02  0.89595243904E+02  0.19854497261E+03  0.17312351512E+03 0.  0.
         24    2    3    3    0    0 -0.26396354740E+02 -0.86141426851E+02  0.79724762227E+02  0.14494405095E+03  0.80843226240E+02 0.  0.
         -6    2    1    2    0  503  0.92865122203E+01  0.36535019159E+02  0.33322660394E+03  0.37752844564E+03  0.17339755119E+03 0.  0.
        -24    2    5    5    0    0  0.72915173103E+02  0.32068105835E+02  0.22741088284E+03  0.25388534380E+03  0.79981699669E+02 0.  0.
          2    1    4    4  501    0 -0.34233429412E+02 -0.71094578937E+01  0.48087692918E+02  0.59455010647E+02  0.00000000000E+00 0. -1.
         -1    1    4    4    0  501  0.78370746723E+01 -0.79031968957E+02  0.31637069309E+02  0.85489040299E+02  0.00000000000E+00 0.  1.
          5    1    3    3  502    0  0.17109842519E+02  0.49606407692E+02  0.98704816765E+01  0.53600921668E+02  0.47000000000E+01 0. -1.
         13    1    6    6    0    0  0.38152788827E+02 -0.19851458805E+02  0.13987152112E+03  0.14633440515E+03  0.00000000000E+00 0. -1.
        -14    1    6    6    0    0  0.34762384276E+02  0.51919564640E+02  0.87539361723E+02  0.10755093865E+03  0.00000000000E+00 0.  1.
         -5    1    5    5    0  503 -0.63628660883E+02  0.44669133240E+01  0.10581572110E+03  0.12364310184E+03  0.47000000000E+01 0.  1.
<mgrwt>
<rscale>  2 0.17738092E+03</rscale>
<asrwt>0</asrwt>
<pdfrwt beam="1">  1       21 0.76838095E-01 0.17744790E+03</pdfrwt>
<pdfrwt beam="2">  1       21 0.11788583E-01 0.17744790E+03</pdfrwt>
<totfact> 0.91796600E+04</totfact>
</mgrwt>
</event>
<event>
12    1  0.1441827E-001  0.2563689E+03  0.7546771E-02  0.1109454E+00
         21   -1    0    0  504  503  0.00000000000E+00  0.00000000000E+00  0.92500031976E+02  0.92500031976E+02  0.00000000000E+00 0. -1.
         21   -1    0    0  502  504 -0.00000000000E+00 -0.00000000000E+00 -0.87414285730E+03  0.87414285730E+03  0.00000000000E+00 0.  1.
          6    2    1    2  502    0  0.19541868205E+02 -0.18793851171E+03 -0.18091260015E+03  0.31377445248E+03  0.17326935487E+03 0.  0.
         24    2    3    3    0    0 -0.53256656589E+01 -0.52336808503E+02 -0.14679835587E+03  0.17167558614E+03  0.71800037255E+02 0.  0.
         -6    2    1    2    0  503 -0.19541868205E+02  0.18793851171E+03 -0.60073022517E+03  0.65286843680E+03  0.17221388893E+03 0.  0.
        -24    2    5    5    0    0 -0.43286511429E+02  0.48794392775E+02 -0.16531011734E+03  0.19511560588E+03  0.80548432160E+02 0.  0.
          4    1    4    4  501    0 -0.32944880366E+02 -0.42157966025E+02 -0.61896077709E+02  0.81815546674E+02  0.00000000000E+00 0. -1.
         -3    1    4    4    0  501  0.27619214707E+02 -0.10178842478E+02 -0.84902278161E+02  0.89860039462E+02  0.00000000000E+00 0.  1.
          5    1    3    3  502    0  0.24867533864E+02 -0.13560170320E+03 -0.34114244283E+02  0.14209886634E+03  0.47000000000E+01 0. -1.
         11    1    6    6    0    0  0.89406101266E+00 -0.85167211290E+01 -0.90965840091E+02  0.91368035698E+02  0.00000000000E+00 0. -1.
        -12    1    6    6    0    0 -0.44180572442E+02  0.57311113904E+02 -0.74344277252E+02  0.10374757018E+03  0.00000000000E+00 0.  1.
         -5    1    5    5    0  503  0.23744643225E+02  0.13914411893E+03 -0.43542010783E+03  0.45775283092E+03  0.47000000000E+01 0.  1.
<mgrwt>
<rscale>  2 0.25619072E+03</rscale>
<asrwt>0</asrwt>
<pdfrwt beam="1">  1       21 0.14230774E-01 0.25636895E+03</pdfrwt>
<pdfrwt beam="2">  1       21 0.13448352E+00 0.25636895E+03</pdfrwt>
<totfact> 0.16475778E+04</totfact>
</mgrwt>
</event>
<event>
12    1  0.1441827E-001  0.2327771E+03  0.7546771E-02  0.1127674E+00
         21   -1    0    0  504  503  0.00000000000E+00  0.00000000000E+00  0.10067466782E+03  0.10067466782E+03  0.00000000000E+00 0. -1.
         21   -1    0    0  502  504 -0.00000000000E+00 -0.00000000000E+00 -0.54884380107E+03  0.54884380107E+03  0.00000000000E+00 0.  1.
          6    2    1    2  502    0  0.13101885823E+03  0.34351779717E+01 -0.32769097094E+03  0.40195343883E+03  0.19237321252E+03 0.  0.
         24    2    3    3    0    0  0.54048114770E+02  0.52690668148E+01 -0.41029207593E+02  0.10509502972E+03  0.80078758861E+02 0.  0.
         -6    2    1    2    0  503 -0.13101885823E+03 -0.34351779717E+01 -0.12047816231E+03  0.24756503006E+03  0.17203405145E+03 0.  0.
        -24    2    5    5    0    0 -0.14530164559E+03  0.20901729165E+02 -0.57570650513E+02  0.17845838708E+03  0.83567730768E+02 0.  0.
          4    1    4    4  501    0  0.71173122962E+02 -0.11723206488E+02 -0.35265348757E+02  0.80291293585E+02  0.00000000000E+00 0. -1.
         -3    1    4    4    0  501 -0.17125008192E+02  0.16992273302E+02 -0.57638588356E+01  0.24803736135E+02  0.00000000000E+00 0.  1.
          5    1    3    3  502    0  0.76970743455E+02 -0.18338888430E+01 -0.28666176334E+03  0.29685840911E+03  0.47000000000E+01 0. -1.
         11    1    6    6    0    0 -0.28403970884E+02 -0.25185992069E+02  0.46437669083E+01  0.38245056276E+02  0.00000000000E+00 0. -1.
        -12    1    6    6    0    0 -0.11689767471E+03  0.46087721234E+02 -0.62214417422E+02  0.14021333081E+03  0.00000000000E+00 0.  1.
         -5    1    5    5    0  503  0.14282787366E+02 -0.24336907137E+02 -0.62907511796E+02  0.69106642983E+02  0.47000000000E+01 0.  1.
<mgrwt>
<rscale>  2 0.22853629E+03</rscale>
<asrwt>0</asrwt>
<pdfrwt beam="1">  1       21 0.15488411E-01 0.23277713E+03</pdfrwt>
<pdfrwt beam="2">  1       21 0.84437507E-01 0.23277713E+03</pdfrwt>
<totfact> 0.44141590E+04</totfact>
</mgrwt>
</event>
<event>
12    1  0.1441827E-001  0.2112298E+03  0.7546771E-02  0.1141239E+00
         21   -1    0    0  504  503  0.00000000000E+00  0.00000000000E+00  0.55816262633E+03  0.55816262633E+03  0.00000000000E+00 0. -1.
         21   -1    0    0  502  504 -0.00000000000E+00 -0.00000000000E+00 -0.95917686127E+02  0.95917686127E+02  0.00000000000E+00 0.  1.
          6    2    1    2  502    0 -0.80857422535E+02  0.84312329500E+02  0.94091018381E+02  0.23123825025E+03  0.17598726362E+03 0.  0.
         24    2    3    3    0    0 -0.47974728032E+02  0.64268638577E+02  0.13313962371E+03  0.17619367993E+03  0.82982052356E+02 0.  0.
         -6    2    1    2    0  503  0.80857422535E+02 -0.84312329500E+02  0.36815392182E+03  0.42284206220E+03  0.17208023631E+03 0.  0.
        -24    2    5    5    0    0 -0.21352724354E+02 -0.43099450917E+02  0.22405929182E+03  0.24137369613E+03  0.75797054215E+02 0.  0.
          2    1    4    4  501    0 -0.53934295262E+02  0.47329676221E+02  0.13972011501E+03  0.15706914718E+03  0.00000000000E+00 0. -1.
         -1    1    4    4    0  501  0.59595672300E+01  0.16938962356E+02 -0.65804913039E+01  0.19124532755E+02  0.00000000000E+00 0.  1.
          5    1    3    3  502    0 -0.32882694502E+02  0.20043690923E+02 -0.39048605329E+02  0.55044570320E+02  0.47000000000E+01 0. -1.
         11    1    6    6    0    0  0.65024395782E+01 -0.51053632842E+02  0.18906574406E+03  0.19594542792E+03  0.00000000000E+00 0. -1.
        -12    1    6    6    0    0 -0.27855163932E+02  0.79541819252E+01  0.34993547759E+02  0.45428268210E+02  0.00000000000E+00 0.  1.
         -5    1    5    5    0  503  0.10221014689E+03 -0.41212878583E+02  0.14409463001E+03  0.18146836607E+03  0.47000000000E+01 0.  1.
<mgrwt>
<rscale>  2 0.21041406E+03</rscale>
<asrwt>0</asrwt>
<pdfrwt beam="1">  1       21 0.85871172E-01 0.21122975E+03</pdfrwt>
<pdfrwt beam="2">  1       21 0.14756567E-01 0.21122975E+03</pdfrwt>
<totfact> 0.46866997E+04</totfact>
</mgrwt>
</event>
<event>
12    1  0.1441827E-001  0.1850937E+03  0.7546771E-02  0.1163765E+00
         21   -1    0    0  504  503  0.00000000000E+00  0.00000000000E+00  0.14191987397E+03  0.14191987397E+03  0.00000000000E+00 0.  1.
         21   -1    0    0  502  504 -0.00000000000E+00 -0.00000000000E+00 -0.23871681365E+03  0.23871681365E+03  0.00000000000E+00 0. -1.
          6    2    1    2  502    0 -0.29320387621E+01  0.50778586793E+02 -0.65066089653E+02  0.19619699273E+03  0.17796798084E+03 0.  0.
         24    2    3    3    0    0 -0.16258192803E+02 -0.18560686247E+02 -0.87132112291E+02  0.12207195969E+03  0.81857989491E+02 0.  0.
         -6    2    1    2    0  503  0.29320387621E+01 -0.50778586793E+02 -0.31730850027E+02  0.18443969489E+03  0.17442503398E+03 0.  0.
        -24    2    5    5    0    0  0.15568153031E+02 -0.79402743328E+02 -0.70140079653E+02  0.13467652938E+03  0.81676029254E+02 0.  0.
          4    1    4    4  501    0 -0.34297179420E+02  0.12684648738E+02 -0.75958847044E+02  0.84302688415E+02  0.00000000000E+00 0. -1.
         -3    1    4    4    0  501  0.18038986617E+02 -0.31245334985E+02 -0.11173265247E+02  0.37769271277E+02  0.00000000000E+00 0.  1.
          5    1    3    3  502    0  0.13326154041E+02  0.69339273040E+02  0.22066022638E+02  0.74125033034E+02  0.47000000000E+01 0. -1.
         11    1    6    6    0    0 -0.23058182281E+02 -0.61549392794E+02 -0.19555841923E+02  0.68574328117E+02  0.00000000000E+00 0. -1.
        -12    1    6    6    0    0  0.38626335311E+02 -0.17853350535E+02 -0.50584237729E+02  0.66102201261E+02  0.00000000000E+00 0.  1.
         -5    1    5    5    0  503 -0.12636114269E+02  0.28624156536E+02  0.38409229626E+02  0.49763165511E+02  0.47000000000E+01 0.  1.
<mgrwt>
<rscale>  2 0.18423674E+03</rscale>
<asrwt>0</asrwt>
<pdfrwt beam="1">  1       21 0.21833827E-01 0.18509366E+03</pdfrwt>
<pdfrwt beam="2">  1       21 0.36725664E-01 0.18509366E+03</pdfrwt>
<totfact> 0.14035978E+05</totfact>
</mgrwt>
</event>
<event>
12    1  0.1441827E-001  0.1883782E+03  0.7546771E-02  0.1159937E+00
         21   -1    0    0  504  503  0.00000000000E+00  0.00000000000E+00  0.16184327058E+03  0.16184327058E+03  0.00000000000E+00 0.  1.
         21   -1    0    0  502  504 -0.00000000000E+00 -0.00000000000E+00 -0.43124565837E+03  0.43124565837E+03  0.00000000000E+00 0.  1.
          6    2    1    2  502    0 -0.52433549028E+01  0.75043457125E+02 -0.34261977624E+03  0.39098217497E+03  0.17268392180E+03 0.  0.
         24    2    3    3    0    0  0.42826526734E+02  0.77291907195E+02 -0.31110748985E+03  0.33326837037E+03  0.80447412247E+02 0.  0.
         -6    2    1    2    0  503  0.52433549028E+01 -0.75043457125E+02  0.73217388445E+02  0.20210675398E+03  0.17270593738E+03 0.  0.
        -24    2    5    5    0    0 -0.57333430052E+02 -0.19404660562E+02  0.59888414850E+02  0.11718749094E+03  0.80514736212E+02 0.  0.
          4    1    4    4  501    0  0.58975372385E+02  0.39447038370E+02 -0.24785448034E+03  0.25781002077E+03  0.00000000000E+00 0. -1.
         -3    1    4    4    0  501 -0.16148845650E+02  0.37844868826E+02 -0.63253009511E+02  0.75458349601E+02  0.00000000000E+00 0.  1.
          5    1    3    3  502    0 -0.48069881637E+02 -0.22484500708E+01 -0.31512286385E+02  0.57713804601E+02  0.47000000000E+01 0. -1.
         11    1    6    6    0    0 -0.29657203606E+02  0.26642216396E+02  0.47574700030E+02  0.62070198189E+02  0.00000000000E+00 0. -1.
        -12    1    6    6    0    0 -0.27676226446E+02 -0.46046876958E+02  0.12313714820E+02  0.55117292754E+02  0.00000000000E+00 0.  1.
         -5    1    5    5    0  503  0.62576784954E+02 -0.55638796563E+02  0.13328973595E+02  0.84919263040E+02  0.47000000000E+01 0.  1.
<mgrwt>
<rscale>  2 0.18837317E+03</rscale>
<asrwt>0</asrwt>
<pdfrwt beam="1">  1       21 0.24898965E-01 0.18837822E+03</pdfrwt>
<pdfrwt beam="2">  1       21 0.66345485E-01 0.18837822E+03</pdfrwt>
<totfact> 0.31887842E+04</totfact>
</mgrwt>
</event>
<event>
12    1  0.1441827E-001  0.2011537E+03  0.7546771E-02  0.1149363E+00
         21   -1    0    0  504  503  0.00000000000E+00  0.00000000000E+00  0.67999313884E+02  0.67999313884E+02  0.00000000000E+00 0.  1.
         21   -1    0    0  502  504 -0.00000000000E+00 -0.00000000000E+00 -0.60437743915E+03  0.60437743915E+03  0.00000000000E+00 0. -1.
          6    2    1    2  502    0 -0.47033030780E+02 -0.92035310027E+02 -0.32743490910E+03  0.38428692784E+03  0.17256946120E+03 0.  0.
         24    2    3    3    0    0 -0.47585451666E+02  0.33245660251E+01 -0.94915611471E+02  0.13292836941E+03  0.79909637359E+02 0.  0.
         -6    2    1    2    0  503  0.47033030780E+02  0.92035310027E+02 -0.20894321616E+03  0.28808982519E+03  0.16928046408E+03 0.  0.
        -24    2    5    5    0    0  0.66667559756E+02  0.97643119053E+02 -0.93358223058E+02  0.17062092342E+03  0.80106176263E+02 0.  0.
          2    1    4    4  501    0 -0.53305138412E+02 -0.28335639714E+02 -0.55048011522E+02  0.81698407767E+02  0.00000000000E+00 0. -1.
         -1    1    4    4    0  501  0.57196867464E+01  0.31660205739E+02 -0.39867599949E+02  0.51229961640E+02  0.00000000000E+00 0.  1.
          5    1    3    3  502    0  0.55242088617E+00 -0.95359876052E+02 -0.23251929763E+03  0.25135855843E+03  0.47000000000E+01 0. -1.
         13    1    6    6    0    0  0.49948932167E+02  0.74159679552E+02 -0.10640079052E+03  0.13898086961E+03  0.00000000000E+00 0. -1.
        -14    1    6    6    0    0  0.16718627589E+02  0.23483439501E+02  0.13042567459E+02  0.31640053811E+02  0.00000000000E+00 0.  1.
         -5    1    5    5    0  503 -0.19634528976E+02 -0.56078090263E+01 -0.11558499311E+03  0.11746890176E+03  0.47000000000E+01 0.  1.
<mgrwt>
<rscale>  2 0.20044640E+03</rscale>
<asrwt>0</asrwt>
<pdfrwt beam="1">  1       21 0.10461433E-01 0.20115373E+03</pdfrwt>
<pdfrwt beam="2">  1       21 0.92981143E-01 0.20115373E+03</pdfrwt>
<totfact> 0.72685302E+04</totfact>
</mgrwt>
</event>
<event>
12    1  0.1441827E-001  0.2367633E+03  0.7546771E-02  0.1122069E+00
         21   -1    0    0  504  503  0.00000000000E+00  0.00000000000E+00  0.17274248139E+03  0.17274248139E+03  0.00000000000E+00 0.  1.
         21   -1    0    0  502  504 -0.00000000000E+00 -0.00000000000E+00 -0.11452724017E+04  0.11452724017E+04  0.00000000000E+00 0. -1.
          6    2    1    2  502    0 -0.15837286154E+03  0.31615031502E+02 -0.10445991715E+04  0.10710949112E+04  0.17313407003E+03 0.  0.
         24    2    3    3    0    0 -0.16970215946E+03  0.84482329463E+01 -0.67886457764E+03  0.70442211878E+03  0.80518389825E+02 0.  0.
         -6    2    1    2    0  503  0.15837286154E+03 -0.31615031502E+02  0.72069251232E+02  0.24691997185E+03  0.17231953468E+03 0.  0.
        -24    2    5    5    0    0  0.43468452978E+02 -0.11471789970E+02 -0.24610658765E+02  0.95335446634E+02  0.80386904970E+02 0.  0.
          4    1    4    4  501    0 -0.11315431616E+03  0.11027752636E+02 -0.57501772479E+03  0.58614920833E+03  0.00000000000E+00 0. -1.
         -3    1    4    4    0  501 -0.56547843295E+02 -0.25795196897E+01 -0.10384685284E+03  0.11827291046E+03  0.00000000000E+00 0.  1.
          5    1    3    3  502    0  0.11329297912E+02  0.23166798556E+02 -0.36573459388E+03  0.36667279243E+03  0.47000000000E+01 0. -1.
         11    1    6    6    0    0  0.43850752850E+02 -0.38757458769E+02 -0.32483197865E+02  0.66934201118E+02  0.00000000000E+00 0. -1.
        -12    1    6    6    0    0 -0.38229987218E+00  0.27285668799E+02  0.78725390999E+01  0.28401245516E+02  0.00000000000E+00 0.  1.
         -5    1    5    5    0  503  0.11490440857E+03 -0.20143241532E+02  0.96679909997E+02  0.15158452521E+03  0.47000000000E+01 0.  1.
<mgrwt>
<rscale>  2 0.23661446E+03</rscale>
<asrwt>0</asrwt>
<pdfrwt beam="1">  1       21 0.26575767E-01 0.23676334E+03</pdfrwt>
<pdfrwt beam="2">  1       21 0.17619575E+00 0.23676334E+03</pdfrwt>
<totfact> 0.25025810E+03</totfact>
</mgrwt>
</event>
<event>
12    1  0.1441827E-001  0.2380692E+03  0.7546771E-02  0.1121129E+00
         21   -1    0    0  504  503  0.00000000000E+00  0.00000000000E+00  0.25121761819E+04  0.25121761819E+04  0.00000000000E+00 0.  1.
         21   -1    0    0  502  504 -0.00000000000E+00 -0.00000000000E+00 -0.22537268781E+02  0.22537268781E+02  0.00000000000E+00 0. -1.
          6    2    1    2  502    0  0.46699904631E+02  0.15589251819E+03  0.12383523565E+04  0.12610287475E+04  0.17376301381E+03 0.  0.
         24    2    3    3    0    0 -0.86688125886E+01  0.13365884128E+02  0.42606869627E+03  0.43446576087E+03  0.83499510529E+02 0.  0.
         -6    2    1    2    0  503 -0.46699904631E+02 -0.15589251819E+03  0.12512865566E+04  0.12736847031E+04  0.17341083559E+03 0.  0.
        -24    2    5    5    0    0  0.75340598936E+01 -0.18695151375E+02  0.61665645045E+03  0.62211590245E+03  0.79729213303E+02 0.  0.
          2    1    4    4  501    0 -0.33045529795E+02  0.36708259148E+02  0.20690383836E+03  0.21271742208E+03  0.00000000000E+00 0. -1.
         -1    1    4    4    0  501  0.24376717206E+02 -0.23342375020E+02  0.21916485792E+03  0.22174833880E+03  0.00000000000E+00 0.  1.
          5    1    3    3  502    0  0.55368717220E+02  0.14252663406E+03  0.81228366022E+03  0.82656298667E+03  0.47000000000E+01 0. -1.
         13    1    6    6    0    0 -0.35388634556E+02 -0.15246790612E+02  0.33025534758E+03  0.33249573634E+03  0.00000000000E+00 0. -1.
        -14    1    6    6    0    0  0.42922694450E+02 -0.34483607630E+01  0.28640110287E+03  0.28962016611E+03  0.00000000000E+00 0.  1.
         -5    1    5    5    0  503 -0.54233964525E+02 -0.13719736682E+03  0.63463010614E+03  0.65156880066E+03  0.47000000000E+01 0.  1.
<mgrwt>
<rscale>  2 0.23800494E+03</rscale>
<asrwt>0</asrwt>
<pdfrwt beam="1">  1       21 0.38648842E+00 0.23806920E+03</pdfrwt>
<pdfrwt beam="2">  1       21 0.34672741E-02 0.23806920E+03</pdfrwt>
<totfact> 0.49707916E+03</totfact>
</mgrwt>
</event>
<event>
12    1  0.1441827E-001  0.1765035E+03  0.7546771E-02  0.1171249E+00
         21   -1    0    0  504  503  0.00000000000E+00  0.00000000000E+00  0.10425130064E+04  0.10425130064E+04  0.00000000000E+00 0. -1.
         21   -1    0    0  502  504 -0.00000000000E+00 -0.00000000000E+00 -0.38771025487E+02  0.38771025487E+02  0.00000000000E+00 0. -1.
          6    2    1    2  502    0  0.29547632531E+02  0.20534125820E+02  0.24274549803E+03  0.30008678088E+03  0.17271938610E+03 0.  0.
         24    2    3    3    0    0  0.20008518078E+02 -0.30663280715E+02  0.63421459763E+02  0.11329446348E+03  0.86445221475E+02 0.  0.
         -6    2    1    2    0  503 -0.29547632531E+02 -0.20534125820E+02  0.76099648285E+03  0.78119725098E+03  0.17279694763E+03 0.  0.
        -24    2    5    5    0    0 -0.23110829699E+02 -0.76332754809E+02  0.37671435631E+03  0.39280342738E+03  0.77588829136E+02 0.  0.
          4    1    4    4  501    0  0.24498409777E+02 -0.28771747720E+02 -0.10493896301E+02  0.39218712473E+02  0.00000000000E+00 0. -1.
         -3    1    4    4    0  501 -0.44898916986E+01 -0.18915329955E+01  0.73915356065E+02  0.74075751003E+02  0.00000000000E+00 0.  1.
          5    1    3    3  502    0  0.95391144526E+01  0.51197406535E+02  0.17932403827E+03  0.18679231740E+03  0.47000000000E+01 0. -1.
         11    1    6    6    0    0 -0.24550994100E+02 -0.61012187390E+02  0.37036172094E+03  0.37615560964E+03  0.00000000000E+00 0. -1.
        -12    1    6    6    0    0  0.14401644013E+01 -0.15320567419E+02  0.63526353666E+01  0.16647817745E+02  0.00000000000E+00 0.  1.
         -5    1    5    5    0  503 -0.64368028322E+01  0.55798628989E+02  0.38428212654E+03  0.38839382359E+03  0.47000000000E+01 0.  1.
<mgrwt>
<rscale>  2 0.17648455E+03</rscale>
<asrwt>0</asrwt>
<pdfrwt beam="1">  1       21 0.16038659E+00 0.17650354E+03</pdfrwt>
<pdfrwt beam="2">  1       21 0.59647740E-02 0.17650354E+03</pdfrwt>
<totfact> 0.50277421E+04</totfact>
</mgrwt>
</event>
<event>
12    1  0.1441827E-001  0.2478611E+03  0.7546771E-02  0.1114768E+00
         21   -1    0    0  504  503  0.00000000000E+00  0.00000000000E+00  0.10984683687E+03  0.10984683687E+03  0.00000000000E+00 0. -1.
         21   -1    0    0  502  504 -0.00000000000E+00 -0.00000000000E+00 -0.55898416855E+03  0.55898416855E+03  0.00000000000E+00 0. -1.
          6    2    1    2  502    0 -0.10254333025E+03 -0.14522356911E+03 -0.20954441180E+03  0.32456736882E+03  0.17271391600E+03 0.  0.
         24    2    3    3    0    0 -0.77212764270E+02 -0.82443747628E+02 -0.21860821652E+03  0.25610434147E+03  0.71000696472E+02 0.  0.
         -6    2    1    2    0  503  0.10254333025E+03  0.14522356911E+03 -0.23959291988E+03  0.34426363660E+03  0.17177795151E+03 0.  0.
        -24    2    5    5    0    0  0.10917630910E+03  0.38867040133E+02 -0.10180119802E+03  0.17000992422E+03  0.71482705163E+02 0.  0.
          2    1    4    4  501    0 -0.69672829898E+02 -0.37619140057E+02 -0.17932197708E+03  0.19602518815E+03  0.00000000000E+00 0. -1.
         -1    1    4    4    0  501 -0.75399343718E+01 -0.44824607571E+02 -0.39286239438E+02  0.60079153318E+02  0.00000000000E+00 0.  1.
          5    1    3    3  502    0 -0.25330565982E+02 -0.62779821479E+02  0.90638047198E+01  0.68463027349E+02  0.47000000000E+01 0. -1.
         11    1    6    6    0    0  0.65612231660E+02  0.35813648244E+02 -0.10185256959E+03  0.12633894204E+03  0.00000000000E+00 0. -1.
        -12    1    6    6    0    0  0.43564077443E+02  0.30533918891E+01  0.51371571649E-01  0.43670982179E+02  0.00000000000E+00 0.  1.
         -5    1    5    5    0  503 -0.66329788508E+01  0.10635652897E+03 -0.13779172186E+03  0.17425371238E+03  0.47000000000E+01 0.  1.
<mgrwt>
<rscale>  2 0.24769810E+03</rscale>
<asrwt>0</asrwt>
<pdfrwt beam="1">  1       21 0.16899513E-01 0.24786108E+03</pdfrwt>
<pdfrwt beam="2">  1       21 0.85997564E-01 0.24786108E+03</pdfrwt>
<totfact> 0.35801632E+04</totfact>
</mgrwt>
</event>
<event>
12    1  0.1441827E-001  0.1798664E+03  0.7546771E-02  0.1168223E+00
         21   -1    0    0  504  503  0.00000000000E+00  0.00000000000E+00  0.73648692795E+02  0.73648692795E+02  0.00000000000E+00 0.  1.
         21   -1    0    0  502  504 -0.00000000000E+00 -0.00000000000E+00 -0.10440656449E+04  0.10440656449E+04  0.00000000000E+00 0.  1.
          6    2    1    2  502    0 -0.11126043534E+02  0.43910373118E+02 -0.91225276817E+03  0.92981558378E+03  0.17406894349E+03 0.  0.
         24    2    3    3    0    0 -0.49169717550E+02  0.71564080715E+01 -0.80172766692E+03  0.80719395809E+03  0.79535896133E+02 0.  0.
         -6    2    1    2    0  503  0.11126043534E+02 -0.43910373118E+02 -0.58164183928E+02  0.18789875391E+03  0.17283217211E+03 0.  0.
        -24    2    5    5    0    0 -0.22769201841E+01  0.24739916454E+02 -0.74956434695E+02  0.11581150552E+03  0.84714755959E+02 0.  0.
          4    1    4    4  501    0 -0.31594554334E+02 -0.35354007528E+02 -0.44251180001E+03  0.44504473355E+03  0.00000000000E+00 0. -1.
         -3    1    4    4    0  501 -0.17575163216E+02  0.42510415599E+02 -0.35921586691E+03  0.36214922454E+03  0.00000000000E+00 0.  1.
          5    1    3    3  502    0  0.38043674016E+02  0.36753965047E+02 -0.11052510125E+03  0.12262162569E+03  0.47000000000E+01 0. -1.
         11    1    6    6    0    0 -0.41632624184E+01 -0.27190479882E+02 -0.52361451514E+02  0.59147075624E+02  0.00000000000E+00 0. -1.
        -12    1    6    6    0    0  0.18863422342E+01  0.51930396336E+02 -0.22594983181E+02  0.56664429897E+02  0.00000000000E+00 0.  1.
         -5    1    5    5    0  503  0.13402963718E+02 -0.68650289572E+02  0.16792250767E+02  0.72087248391E+02  0.47000000000E+01 0.  1.
<mgrwt>
<rscale>  2 0.17956645E+03</rscale>
<asrwt>0</asrwt>
<pdfrwt beam="1">  1       21 0.11330569E-01 0.17986636E+03</pdfrwt>
<pdfrwt beam="2">  1       21 0.16062547E+00 0.17986636E+03</pdfrwt>
<totfact> 0.16342612E+04</totfact>
</mgrwt>
</event>
<event>
12    1  0.1441827E-001  0.2196493E+03  0.7546771E-02  0.1134388E+00
         21   -1    0    0  504  503  0.00000000000E+00  0.00000000000E+00  0.67365653580E+03  0.67365653580E+03  0.00000000000E+00 0. -1.
         21   -1    0    0  502  504 -0.00000000000E+00 -0.00000000000E+00 -0.92266743060E+02  0.92266743060E+02  0.00000000000E+00 0. -1.
          6    2    1    2  502    0 -0.25966288772E+02 -0.13048776776E+03  0.10701612709E+03  0.24316503505E+03  0.17313427485E+03 0.  0.
         24    2    3    3    0    0  0.15784176380E+02 -0.30197006058E+02  0.10191906186E+03  0.13431004758E+03  0.80564845390E+02 0.  0.
         -6    2    1    2    0  503  0.25966288772E+02  0.13048776776E+03  0.47437366565E+03  0.52275824381E+03  0.17476985187E+03 0.  0.
        -24    2    5    5    0    0  0.25858500621E+02  0.13579039238E+03  0.48460967586E+03  0.51030853090E+03  0.80377646498E+02 0.  0.
          2    1    4    4  501    0  0.37356192869E+02  0.11652659554E+02  0.35083356599E+02  0.52555794453E+02  0.00000000000E+00 0. -1.
         -1    1    4    4    0  501 -0.21572016489E+02 -0.41849665612E+02  0.66835705261E+02  0.81754253131E+02  0.00000000000E+00 0.  1.
          5    1    3    3  502    0 -0.41750465153E+02 -0.10029076170E+03  0.50970652297E+01  0.10885498747E+03  0.47000000000E+01 0. -1.
         13    1    6    6    0    0  0.39672496435E+01  0.82866687318E+02  0.39744806600E+03  0.40601427574E+03  0.00000000000E+00 0. -1.
        -14    1    6    6    0    0  0.21891250977E+02  0.52923705059E+02  0.87161609867E+02  0.10429425517E+03  0.00000000000E+00 0.  1.
         -5    1    5    5    0  503  0.10778815162E+00 -0.53026246215E+01 -0.10236010217E+02  0.12449712901E+02  0.47000000000E+01 0.  1.
<mgrwt>
<rscale>  2 0.21932377E+03</rscale>
<asrwt>0</asrwt>
<pdfrwt beam="1">  1       21 0.10363946E+00 0.21964928E+03</pdfrwt>
<pdfrwt beam="2">  1       21 0.14194884E-01 0.21964928E+03</pdfrwt>
<totfact> 0.32206064E+04</totfact>
</mgrwt>
</event>
<event>
12    1  0.1441827E-001  0.2568857E+03  0.7546771E-02  0.1109055E+00
         21   -1    0    0  504  503  0.00000000000E+00  0.00000000000E+00  0.91637477230E+02  0.91637477230E+02  0.00000000000E+00 0.  1.
         21   -1    0    0  502  504 -0.00000000000E+00 -0.00000000000E+00 -0.73592716248E+03  0.73592716248E+03  0.00000000000E+00 0. -1.
          6    2    1    2  502    0 -0.83746035723E+02  0.17133017588E+03 -0.26070383959E+03  0.36600105080E+03  0.17211289766E+03 0.  0.
         24    2    3    3    0    0 -0.10869073890E+03  0.83810465116E+02 -0.18388754662E+03  0.24681728154E+03  0.90919029255E+02 0.  0.
         -6    2    1    2    0  503  0.83746035723E+02 -0.17133017588E+03 -0.38358584566E+03  0.46156358891E+03  0.17185871510E+03 0.  0.
        -24    2    5    5    0    0 -0.15967062618E+02 -0.73612934616E+02 -0.23433651455E+03  0.25714046386E+03  0.74389548133E+02 0.  0.
          4    1    4    4  501    0 -0.47225981720E+02 -0.47581096871E+01 -0.98327284503E+02  0.10918419224E+03  0.00000000000E+00 0. -1.
         -3    1    4    4    0  501 -0.61464757176E+02  0.88568574803E+02 -0.85560262121E+02  0.13763308930E+03  0.00000000000E+00 0.  1.
          5    1    3    3  502    0  0.24944703173E+02  0.87519710761E+02 -0.76816292967E+02  0.11918376925E+03  0.47000000000E+01 0. -1.
         11    1    6    6    0    0 -0.11613979896E+02 -0.49367018823E+02 -0.22524338530E+03  0.23088215543E+03  0.00000000000E+00 0. -1.
        -12    1    6    6    0    0 -0.43530827221E+01 -0.24245915793E+02 -0.90931292493E+01  0.26258308426E+02  0.00000000000E+00 0.  1.
         -5    1    5    5    0  503  0.99713098341E+02 -0.97717241260E+02 -0.14924933111E+03  0.20442312506E+03  0.47000000000E+01 0.  1.
<mgrwt>
<rscale>  2 0.25684316E+03</rscale>
<asrwt>0</asrwt>
<pdfrwt beam="1">  1       21 0.14098074E-01 0.25688573E+03</pdfrwt>
<pdfrwt beam="2">  1       21 0.11321956E+00 0.25688573E+03</pdfrwt>
<totfact> 0.25827183E+04</totfact>
</mgrwt>
</event>
<event>
12    1  0.1441827E-001  0.1962556E+03  0.7546771E-02  0.1156200E+00
         21   -1    0    0  504  503  0.00000000000E+00  0.00000000000E+00  0.15054644219E+04  0.15054644219E+04  0.00000000000E+00 0.  1.
         21   -1    0    0  502  504 -0.00000000000E+00 -0.00000000000E+00 -0.10003948263E+03  0.10003948263E+03  0.00000000000E+00 0.  1.
          6    2    1    2  502    0  0.20434326929E+02  0.51686782657E+02  0.81171863201E+01  0.19642334387E+03  0.18822102986E+03 0.  0.
         24    2    3    3    0    0 -0.43160333474E+02  0.42208831665E+02  0.54685873446E+02  0.11689444970E+03  0.83841324893E+02 0.  0.
         -6    2    1    2    0  503 -0.20434326929E+02 -0.51686782657E+02  0.13973077530E+04  0.14090805607E+04  0.17306063899E+03 0.  0.
        -24    2    5    5    0    0 -0.27405864269E+01 -0.25543432544E+02  0.30528064450E+03  0.31658715620E+03  0.79819658007E+02 0.  0.
          4    1    4    4  501    0 -0.48149801196E+02  0.83842967103E+01  0.64868702394E+02  0.81219753366E+02  0.00000000000E+00 0. -1.
         -3    1    4    4    0  501  0.49894677226E+01  0.33824534954E+02 -0.10182828949E+02  0.35674696333E+02  0.00000000000E+00 0.  1.
          5    1    3    3  502    0  0.63594660403E+02  0.94779509920E+01 -0.46568687126E+02  0.79528894167E+02  0.47000000000E+01 0. -1.
         11    1    6    6    0    0 -0.25081658471E+02 -0.42276957396E+02  0.12785580538E+03  0.13698006311E+03  0.00000000000E+00 0. -1.
        -12    1    6    6    0    0  0.22341072044E+02  0.16733524852E+02  0.17742483912E+03  0.17960709310E+03  0.00000000000E+00 0.  1.
         -5    1    5    5    0  503 -0.17693740502E+02 -0.26143350113E+02  0.10920271085E+04  0.10924934045E+04  0.47000000000E+01 0.  1.
<mgrwt>
<rscale>  2 0.19252846E+03</rscale>
<asrwt>0</asrwt>
<pdfrwt beam="1">  1       21 0.23160989E+00 0.19625555E+03</pdfrwt>
<pdfrwt beam="2">  1       21 0.15390691E-01 0.19625555E+03</pdfrwt>
<totfact> 0.31892390E+03</totfact>
</mgrwt>
</event>
<event>
12    1  0.1441827E-001  0.1789227E+03  0.7546771E-02  0.1169087E+00
         21   -1    0    0  504  503  0.00000000000E+00  0.00000000000E+00  0.39649891242E+02  0.39649891242E+02  0.00000000000E+00 0.  1.
         21   -1    0    0  502  504 -0.00000000000E+00 -0.00000000000E+00 -0.81306919724E+03  0.81306919724E+03  0.00000000000E+00 0.  1.
          6    2    1    2  502    0  0.31952327559E+02 -0.28461714060E+02 -0.43513250673E+03  0.47048235341E+03  0.17373061346E+03 0.  0.
         24    2    3    3    0    0  0.58349619480E+02 -0.75310720446E+02 -0.31645195505E+03  0.34010286972E+03  0.80322720509E+02 0.  0.
         -6    2    1    2    0  503 -0.31952327559E+02  0.28461714060E+02 -0.33828679927E+03  0.38223673508E+03  0.17273083881E+03 0.  0.
        -24    2    5    5    0    0 -0.68784010227E+02  0.12644044545E+02 -0.12300410620E+03  0.16320363380E+03  0.81328371551E+02 0.  0.
          4    1    4    4  501    0  0.23707641779E+02 -0.24652590015E+02 -0.25272857363E+02  0.42526695057E+02  0.00000000000E+00 0. -1.
         -3    1    4    4    0  501  0.34641977700E+02 -0.50658130431E+02 -0.29117909769E+03  0.29757617466E+03  0.00000000000E+00 0.  1.
          5    1    3    3  502    0 -0.26397291920E+02  0.46849006386E+02 -0.11868055168E+03  0.13037948369E+03  0.47000000000E+01 0. -1.
         11    1    6    6    0    0  0.73685374801E-01  0.22511514316E+02 -0.75966175768E+02  0.79231518774E+02  0.00000000000E+00 0. -1.
        -12    1    6    6    0    0 -0.68857695602E+02 -0.98674697708E+01 -0.47037930433E+02  0.83972115030E+02  0.00000000000E+00 0.  1.
         -5    1    5    5    0  503  0.36831682668E+02  0.15817669515E+02 -0.21528269307E+03  0.21903310127E+03  0.47000000000E+01 0.  1.
<mgrwt>
<rscale>  2 0.17867959E+03</rscale>
<asrwt>0</asrwt>
<pdfrwt beam="1">  1       21 0.60999832E-02 0.17892274E+03</pdfrwt>
<pdfrwt beam="2">  1       21 0.12508757E+00 0.17892274E+03</pdfrwt>
<totfact> 0.91841439E+04</totfact>
</mgrwt>
</event>
<event>
12    1  0.1441827E-001  0.2015879E+03  0.7546771E-02  0.1150471E+00
         21   -1    0    0  504  503  0.00000000000E+00  0.00000000000E+00  0.35285996443E+03  0.35285996443E+03  0.00000000000E+00 0. -1.
         21   -1    0    0  502  504 -0.00000000000E+00 -0.00000000000E+00 -0.16962560312E+03  0.16962560312E+03  0.00000000000E+00 0. -1.
          6    2    1    2  502    0  0.81515652664E+02  0.10478101426E+01  0.24537642941E+03  0.31153694878E+03  0.17378083556E+03 0.  0.
         24    2    3    3    0    0  0.17833155975E+02 -0.55364025825E+02  0.84207251546E+02  0.12923130017E+03  0.78909257523E+02 0.  0.
         -6    2    1    2    0  503 -0.81515652664E+02 -0.10478101426E+01 -0.62142068097E+02  0.21094861877E+03  0.18436860795E+03 0.  0.
        -24    2    5    5    0    0 -0.11288878777E+03  0.38867517278E+02 -0.23325129881E+02  0.14686779744E+03  0.82289282044E+02 0.  0.
          2    1    4    4  501    0  0.44035627520E+02 -0.55783592922E+02  0.54112084076E+02  0.89325603124E+02  0.00000000000E+00 0. -1.
         -1    1    4    4    0  501 -0.26202471545E+02  0.41956709719E+00  0.30095167471E+02  0.39905697046E+02  0.00000000000E+00 0.  1.
          5    1    3    3  502    0  0.63682496688E+02  0.56411835967E+02  0.16116917787E+03  0.18230564861E+03  0.47000000000E+01 0. -1.
         13    1    6    6    0    0 -0.59646943140E+02  0.55787189700E+02 -0.36522791482E+02  0.89464421186E+02  0.00000000000E+00 0. -1.
        -14    1    6    6    0    0 -0.53241844627E+02 -0.16919672421E+02  0.13197661601E+02  0.57403376259E+02  0.00000000000E+00 0.  1.
         -5    1    5    5    0  503  0.31373135104E+02 -0.39915327421E+02 -0.38816938216E+02  0.64080821326E+02  0.47000000000E+01 0.  1.
<mgrwt>
<rscale>  2 0.19913458E+03</rscale>
<asrwt>0</asrwt>
<pdfrwt beam="1">  1       21 0.54286148E-01 0.20158790E+03</pdfrwt>
<pdfrwt beam="2">  1       21 0.26096247E-01 0.20158790E+03</pdfrwt>
<totfact> 0.44538205E+04</totfact>
</mgrwt>
</event>
<event>
12    1  0.1441827E-001  0.2896043E+03  0.7546771E-02  0.1090635E+00
         21   -1    0    0  504  503  0.00000000000E+00  0.00000000000E+00  0.44416871038E+03  0.44416871038E+03  0.00000000000E+00 0. -1.
         21   -1    0    0  502  504 -0.00000000000E+00 -0.00000000000E+00 -0.29202099475E+03  0.29202099475E+03  0.00000000000E+00 0. -1.
          6    2    1    2  502    0  0.78048430657E+02  0.21782049959E+03 -0.14311016351E+03  0.32303427418E+03  0.17416456535E+03 0.  0.
         24    2    3    3    0    0  0.11896493292E+03  0.18839415340E+03 -0.12689073777E+03  0.26988138358E+03  0.84200294359E+02 0.  0.
         -6    2    1    2    0  503 -0.78048430657E+02 -0.21782049959E+03  0.29525787913E+03  0.41315543095E+03  0.17315561603E+03 0.  0.
        -24    2    5    5    0    0 -0.21211145033E+02 -0.98868349273E+02  0.23521500727E+03  0.26821638319E+03  0.79931629572E+02 0.  0.
          2    1    4    4  501    0 -0.53741004139E+01  0.55240412437E+02 -0.37231496523E+02  0.66832390761E+02  0.00000000000E+00 0. -1.
         -1    1    4    4    0  501  0.12433903334E+03  0.13315374096E+03 -0.89659241248E+02  0.20304899282E+03  0.00000000000E+00 0.  1.
          5    1    3    3  502    0 -0.40916502265E+02  0.29426346195E+02 -0.16219425736E+02  0.53152890600E+02  0.47000000000E+01 0. -1.
         13    1    6    6    0    0  0.14689349238E+02 -0.44191276396E+02  0.36970406396E+02  0.59459707699E+02  0.00000000000E+00 0. -1.
        -14    1    6    6    0    0 -0.35900494270E+02 -0.54677072877E+02  0.19824460088E+03  0.20875667549E+03  0.00000000000E+00 0.  1.
         -5    1    5    5    0  503 -0.56837285624E+02 -0.11895215032E+03  0.60042871862E+02  0.14493904776E+03  0.47000000000E+01 0.  1.
<mgrwt>
<rscale>  2 0.28945272E+03</rscale>
<asrwt>0</asrwt>
<pdfrwt beam="1">  1       21 0.68333648E-01 0.28960425E+03</pdfrwt>
<pdfrwt beam="2">  1       21 0.44926307E-01 0.28960425E+03</pdfrwt>
<totfact> 0.87743581E+03</totfact>
</mgrwt>
</event>
<event>
12    1  0.1441827E-001  0.2682614E+03  0.7546771E-02  0.1103205E+00
         21   -1    0    0  504  503  0.00000000000E+00  0.00000000000E+00  0.68461057596E+03  0.68461057596E+03  0.00000000000E+00 0.  1.
         21   -1    0    0  502  504 -0.00000000000E+00 -0.00000000000E+00 -0.10409779148E+03  0.10409779148E+03  0.00000000000E+00 0. -1.
          6    2    1    2  502    0 -0.10501693124E+03 -0.17175582088E+03  0.24028717222E+03  0.35544444679E+03  0.16755360864E+03 0.  0.
         24    2    3    3    0    0 -0.57244644319E+02 -0.16952813334E+02  0.80645276762E+02  0.12794985932E+03  0.79392434485E+02 0.  0.
         -6    2    1    2    0  503  0.10501693124E+03  0.17175582088E+03  0.34022561227E+03  0.43326392065E+03  0.17730070457E+03 0.  0.
        -24    2    5    5    0    0  0.11920158025E+03  0.13664226956E+03  0.34173165564E+03  0.39507329458E+03  0.80138985859E+02 0.  0.
          4    1    4    4  501    0  0.29841235878E+01  0.16288199280E+02 -0.57341237139E+01  0.17524000803E+02  0.00000000000E+00 0. -1.
         -3    1    4    4    0  501 -0.60228767907E+02 -0.33241012614E+02  0.86379400476E+02  0.11042585852E+03  0.00000000000E+00 0.  1.
          5    1    3    3  502    0 -0.47772286921E+02 -0.15480300754E+03  0.15964189546E+03  0.22749458747E+03  0.47000000000E+01 0. -1.
         11    1    6    6    0    0  0.54312807427E+01  0.22459673272E+02  0.79966055492E+01  0.24451614145E+02  0.00000000000E+00 0. -1.
        -12    1    6    6    0    0  0.11377029951E+03  0.11418259629E+03  0.33373505009E+03  0.37062168043E+03  0.00000000000E+00 0.  1.
         -5    1    5    5    0  503 -0.14184649014E+02  0.35113551314E+02 -0.15060433691E+01  0.38190626077E+02  0.47000000000E+01 0.  1.
<mgrwt>
<rscale>  2 0.26666213E+03</rscale>
<asrwt>0</asrwt>
<pdfrwt beam="1">  1       21 0.10532470E+00 0.26826136E+03</pdfrwt>
<pdfrwt beam="2">  1       21 0.16015045E-01 0.26826136E+03</pdfrwt>
<totfact> 0.24257340E+04</totfact>
</mgrwt>
</event>
<event>
12    1  0.1441827E-001  0.1835628E+03  0.7546771E-02  0.1164822E+00
         21   -1    0    0  504  503  0.00000000000E+00  0.00000000000E+00  0.39627651876E+03  0.39627651876E+03  0.00000000000E+00 0.  1.
         21   -1    0    0  502  504 -0.00000000000E+00 -0.00000000000E+00 -0.11056606354E+03  0.11056606354E+03  0.00000000000E+00 0.  1.
          6    2    1    2  502    0  0.59748481447E+02 -0.11591664429E+02  0.19646796895E+02  0.18461118927E+03  0.17317923333E+03 0.  0.
         24    2    3    3    0    0  0.76009855115E+02 -0.39280680335E+02 -0.30665616535E+02  0.12474013767E+03  0.85435659917E+02 0.  0.
         -6    2    1    2    0  503 -0.59748481447E+02  0.11591664429E+02  0.26606365832E+03  0.32223139302E+03  0.17128617179E+03 0.  0.
        -24    2    5    5    0    0  0.73009754889E+01 -0.44144282974E+02  0.16325642969E+03  0.18734795531E+03  0.80278095150E+02 0.  0.
          4    1    4    4  501    0  0.29342432957E+02 -0.55290348014E+02  0.65571876253E+01  0.62936457359E+02  0.00000000000E+00 0. -1.
         -3    1    4    4    0  501  0.46667422158E+02  0.16009667679E+02 -0.37222804161E+02  0.61803680308E+02  0.00000000000E+00 0.  1.
          5    1    3    3  502    0 -0.16261373668E+02  0.27689015905E+02  0.50312413430E+02  0.59871051607E+02  0.47000000000E+01 0. -1.
         13    1    6    6    0    0  0.38376125064E+02 -0.42728775080E+01  0.48826558575E+02  0.62249636782E+02  0.00000000000E+00 0. -1.
        -14    1    6    6    0    0 -0.31075149575E+02 -0.39871405466E+02  0.11442987112E+03  0.12509831853E+03  0.00000000000E+00 0.  1.
         -5    1    5    5    0  503 -0.67049456936E+02  0.55735947403E+02  0.10280722863E+03  0.13488343771E+03  0.47000000000E+01 0.  1.
<mgrwt>
<rscale>  2 0.18311492E+03</rscale>
<asrwt>0</asrwt>
<pdfrwt beam="1">  1       21 0.60965617E-01 0.18356278E+03</pdfrwt>
<pdfrwt beam="2">  1       21 0.17010164E-01 0.18356278E+03</pdfrwt>
<totfact> 0.78317689E+04</totfact>
</mgrwt>
</event>
<event>
12    1  0.1441827E-001  0.1792317E+03  0.7546771E-02  0.1169937E+00
         21   -1    0    0  504  503  0.00000000000E+00  0.00000000000E+00  0.49432350291E+03  0.49432350291E+03  0.00000000000E+00 0.  1.
         21   -1    0    0  502  504 -0.00000000000E+00 -0.00000000000E+00 -0.10002143049E+03  0.10002143049E+03  0.00000000000E+00 0.  1.
          6    2    1    2  502    0 -0.25004505126E+02 -0.10600171314E+02  0.14319008815E+02  0.17421264622E+03  0.17148592706E+03 0.  0.
         24    2    3    3    0    0 -0.63382593842E+02 -0.44447172830E+02  0.36080396164E+02  0.11840811966E+03  0.82010873909E+02 0.  0.
         -6    2    1    2    0  503  0.25004505126E+02  0.10600171314E+02  0.37998306361E+03  0.42013228718E+03  0.17716213250E+03 0.  0.
        -24    2    5    5    0    0  0.83567704630E+02 -0.68490787940E+01  0.28329232991E+03  0.30565384969E+03  0.78353433302E+02 0.  0.
          4    1    4    4  501    0 -0.60955719667E+02  0.22114229783E+01  0.28277296671E+01  0.61061331518E+02  0.00000000000E+00 0. -1.
         -3    1    4    4    0  501 -0.24268741751E+01 -0.46658595808E+02  0.33252666497E+02  0.57346788142E+02  0.00000000000E+00 0.  1.
          5    1    3    3  502    0  0.38378088716E+02  0.33847001516E+02 -0.21761387348E+02  0.55804526558E+02  0.47000000000E+01 0. -1.
         13    1    6    6    0    0  0.60347480012E+02 -0.48597956544E+01  0.76529618700E+02  0.97581855362E+02  0.00000000000E+00 0. -1.
        -14    1    6    6    0    0  0.23220224617E+02 -0.19892831396E+01  0.20676271121E+03  0.20807199433E+03  0.00000000000E+00 0.  1.
         -5    1    5    5    0  503 -0.58563199503E+02  0.17449250108E+02  0.96690733703E+02  0.11447843749E+03  0.47000000000E+01 0.  1.
<mgrwt>
<rscale>  2 0.17781283E+03</rscale>
<asrwt>0</asrwt>
<pdfrwt beam="1">  1       21 0.76049768E-01 0.17923172E+03</pdfrwt>
<pdfrwt beam="2">  1       21 0.15387913E-01 0.17923172E+03</pdfrwt>
<totfact> 0.58071896E+04</totfact>
</mgrwt>
</event>
<event>
12    1  0.1441827E-001  0.1787553E+03  0.7546771E-02  0.1169407E+00
         21   -1    0    0  504  503  0.00000000000E+00  0.00000000000E+00  0.81016226472E+02  0.81016226472E+02  0.00000000000E+00 0. -1.
         21   -1    0    0  502  504 -0.00000000000E+00 -0.00000000000E+00 -0.11865461271E+04  0.11865461271E+04  0.00000000000E+00 0. -1.
          6    2    1    2  502    0 -0.41315598926E+02 -0.76398538972E+01 -0.10709380634E+04  0.10854908439E+04  0.17209500388E+03 0.  0.
         24    2    3    3    0    0  0.39220104402E+02 -0.13488242026E+02 -0.69632586999E+03  0.70224602835E+03  0.80991467796E+02 0.  0.
         -6    2    1    2    0  503  0.41315598926E+02  0.76398538972E+01 -0.34591837169E+02  0.18207150966E+03  0.17374721106E+03 0.  0.
        -24    2    5    5    0    0 -0.14123174574E+02 -0.42111882549E+02 -0.52825060481E+02  0.10523900795E+03  0.79447385535E+02 0.  0.
          2    1    4    4  501    0  0.21698561020E+02 -0.22078669900E+02 -0.82604583327E+02  0.88214581570E+02  0.00000000000E+00 0. -1.
         -1    1    4    4    0  501  0.17521543382E+02  0.85904278737E+01 -0.61372128666E+03  0.61403144678E+03  0.00000000000E+00 0.  1.
          5    1    3    3  502    0 -0.80535703329E+02  0.58483881293E+01 -0.37461219343E+03  0.38324481551E+03  0.47000000000E+01 0. -1.
         11    1    6    6    0    0 -0.22084093749E+02 -0.14232916835E+02  0.15857359181E+02  0.30687765616E+02  0.00000000000E+00 0. -1.
        -12    1    6    6    0    0  0.79609191749E+01 -0.27878965714E+02 -0.68682419662E+02  0.74551242338E+02  0.00000000000E+00 0.  1.
         -5    1    5    5    0  503  0.55438773500E+02  0.49751736447E+02  0.18233223313E+02  0.76832501710E+02  0.47000000000E+01 0.  1.
<mgrwt>
<rscale>  2 0.17835252E+03</rscale>
<asrwt>0</asrwt>
<pdfrwt beam="1">  1       21 0.12464036E-01 0.17875525E+03</pdfrwt>
<pdfrwt beam="2">  1       21 0.18254554E+00 0.17875525E+03</pdfrwt>
<totfact> 0.96989822E+03</totfact>
</mgrwt>
</event>
<event>
12    1  0.1441827E-001  0.2250538E+03  0.7546771E-02  0.1131096E+00
         21   -1    0    0  504  503  0.00000000000E+00  0.00000000000E+00  0.53188625943E+03  0.53188625943E+03  0.00000000000E+00 0.  1.
         21   -1    0    0  502  504 -0.00000000000E+00 -0.00000000000E+00 -0.11485131586E+03  0.11485131586E+03  0.00000000000E+00 0.  1.
          6    2    1    2  502    0  0.91155432109E+02 -0.98476940332E+02  0.65875240072E+02  0.22964965910E+03  0.17433415641E+03 0.  0.
         24    2    3    3    0    0  0.73687865643E+02 -0.66489599557E+02 -0.25791569177E+02  0.13089136950E+03  0.81342345525E+02 0.  0.
         -6    2    1    2    0  503 -0.91155432109E+02  0.98476940332E+02  0.35115970349E+03  0.41708791619E+03  0.18067144736E+03 0.  0.
        -24    2    5    5    0    0 -0.72380845048E+02  0.40537254532E+02  0.33591478898E+03  0.35412769281E+03  0.75401734867E+02 0.  0.
          4    1    4    4  501    0  0.26534655684E+01 -0.42908407035E+02 -0.35059138916E+02  0.55473556722E+02  0.00000000000E+00 0. -1.
         -3    1    4    4    0  501  0.71034400074E+02 -0.23581192522E+02  0.92675697390E+01  0.75417812774E+02  0.00000000000E+00 0.  1.
          5    1    3    3  502    0  0.17467566466E+02 -0.31987340775E+02  0.91666809250E+02  0.98758289607E+02  0.47000000000E+01 0. -1.
         13    1    6    6    0    0  0.12353017579E+02 -0.28280489017E+00  0.89932478119E+02  0.90777352035E+02  0.00000000000E+00 0. -1.
        -14    1    6    6    0    0 -0.84733862627E+02  0.40820059423E+02  0.24598231086E+03  0.26335034077E+03  0.00000000000E+00 0.  1.
         -5    1    5    5    0  503 -0.18774587061E+02  0.57939685799E+02  0.15244914512E+02  0.62960223382E+02  0.47000000000E+01 0.  1.
<mgrwt>
<rscale>  2 0.22377920E+03</rscale>
<asrwt>0</asrwt>
<pdfrwt beam="1">  1       21 0.81828654E-01 0.22505375E+03</pdfrwt>
<pdfrwt beam="2">  1       21 0.17669433E-01 0.22505375E+03</pdfrwt>
<totfact> 0.37337849E+04</totfact>
</mgrwt>
</event>
<event>
12    1  0.1441827E-001  0.1950315E+03  0.7546771E-02  0.1154231E+00
         21   -1    0    0  504  503  0.00000000000E+00  0.00000000000E+00  0.68764776664E+02  0.68764776664E+02  0.00000000000E+00 0.  1.
         21   -1    0    0  502  504 -0.00000000000E+00 -0.00000000000E+00 -0.10246441137E+04  0.10246441137E+04  0.00000000000E+00 0.  1.
          6    2    1    2  502    0 -0.80886613683E+02  0.36518770040E+02 -0.84927159092E+03  0.87114220193E+03  0.17248256724E+03 0.  0.
         24    2    3    3    0    0 -0.31302652966E+02 -0.33364586048E+02 -0.26366781456E+03  0.27928400481E+03  0.79911120753E+02 0.  0.
         -6    2    1    2    0  503  0.80886613683E+02 -0.36518770040E+02 -0.10660774611E+03  0.22226668842E+03  0.17366923854E+03 0.  0.
        -24    2    5    5    0    0  0.94467792358E+02  0.15310665170E+01 -0.19216032190E+02  0.12587353443E+03  0.80922078683E+02 0.  0.
          4    1    4    4  501    0  0.69847498490E+01 -0.34698542080E+02 -0.44831235795E+02  0.57119307207E+02  0.00000000000E+00 0. -1.
         -3    1    4    4    0  501 -0.38287402815E+02  0.13339560319E+01 -0.21883657877E+03  0.22216469760E+03  0.00000000000E+00 0.  1.
          5    1    3    3  502    0 -0.49583960718E+02  0.69883356088E+02 -0.58560377635E+03  0.59185819712E+03  0.47000000000E+01 0. -1.
         11    1    6    6    0    0  0.54011746081E+02 -0.42029223190E+01 -0.50771039734E+02  0.74247099246E+02  0.00000000000E+00 0. -1.
        -12    1    6    6    0    0  0.40456046277E+02  0.57339888360E+01  0.31555007545E+02  0.51626435181E+02  0.00000000000E+00 0.  1.
         -5    1    5    5    0  503 -0.13581178674E+02 -0.38049836557E+02 -0.87391713916E+02  0.96393153996E+02  0.47000000000E+01 0.  1.
<mgrwt>
<rscale>  2 0.19476693E+03</rscale>
<asrwt>0</asrwt>
<pdfrwt beam="1">  1       21 0.10579197E-01 0.19503146E+03</pdfrwt>
<pdfrwt beam="2">  1       21 0.15763754E+00 0.19503146E+03</pdfrwt>
<totfact> 0.19210333E+04</totfact>
</mgrwt>
</event>
<event>
12    1  0.1441827E-001  0.1982176E+03  0.7546771E-02  0.1151841E+00
         21   -1    0    0  504  503  0.00000000000E+00  0.00000000000E+00  0.22768152139E+03  0.22768152139E+03  0.00000000000E+00 0. -1.
         21   -1    0    0  502  504 -0.00000000000E+00 -0.00000000000E+00 -0.21190135922E+03  0.21190135922E+03  0.00000000000E+00 0. -1.
          6    2    1    2  502    0  0.22875841537E+02 -0.94743810534E+02 -0.89667746624E+02  0.21506229843E+03  0.16944554777E+03 0.  0.
         24    2    3    3    0    0 -0.11494091040E+02 -0.60170299419E+02  0.13854511381E+02  0.10053907878E+03  0.78508469701E+02 0.  0.
         -6    2    1    2    0  503 -0.22875841537E+02  0.94743810534E+02  0.10544790880E+03  0.22452058219E+03  0.17259935283E+03 0.  0.
        -24    2    5    5    0    0 -0.25640596358E+01  0.40476220469E+02 -0.14738572120E+02  0.91012455059E+02  0.80132032562E+02 0.  0.
          2    1    4    4  501    0  0.52756013290E+01  0.80660955825E+01  0.27340673454E+02  0.28989761853E+02  0.00000000000E+00 0. -1.
         -1    1    4    4    0  501 -0.16769692369E+02 -0.68236395001E+02 -0.13486162073E+02  0.71549316925E+02  0.00000000000E+00 0.  1.
          5    1    3    3  502    0  0.34369932577E+02 -0.34573511115E+02 -0.10352225801E+03  0.11452321965E+03  0.47000000000E+01 0. -1.
         11    1    6    6    0    0 -0.14832855513E+02  0.55825621632E+02  0.10826145532E+02  0.58768350839E+02  0.00000000000E+00 0. -1.
        -12    1    6    6    0    0  0.12268795877E+02 -0.15349401163E+02 -0.25564717652E+02  0.32244104220E+02  0.00000000000E+00 0.  1.
         -5    1    5    5    0  503 -0.20311781901E+02  0.54267590065E+02  0.12018648091E+03  0.13350812713E+03  0.47000000000E+01 0.  1.
<mgrwt>
<rscale>  2 0.19752904E+03</rscale>
<asrwt>0</asrwt>
<pdfrwt beam="1">  1       21 0.35027926E-01 0.19821763E+03</pdfrwt>
<pdfrwt beam="2">  1       21 0.32600209E-01 0.19821763E+03</pdfrwt>
<totfact> 0.70972626E+04</totfact>
</mgrwt>
</event>
<event>
12    1  0.1441827E-001  0.2497416E+03  0.7546771E-02  0.1113966E+00
         21   -1    0    0  504  503  0.00000000000E+00  0.00000000000E+00  0.87728005495E+02  0.87728005495E+02  0.00000000000E+00 0. -1.
         21   -1    0    0  502  504 -0.00000000000E+00 -0.00000000000E+00 -0.85208566547E+03  0.85208566547E+03  0.00000000000E+00 0. -1.
          6    2    1    2  502    0  0.11774755916E+03  0.13377366026E+03 -0.57735312656E+03  0.62781760070E+03  0.17046532532E+03 0.  0.
         24    2    3    3    0    0  0.96067194673E+02  0.22299549068E+02 -0.37031997869E+03  0.39163688602E+03  0.80724148148E+02 0.  0.
         -6    2    1    2    0  503 -0.11774755916E+03 -0.13377366026E+03 -0.18700453342E+03  0.31199607026E+03  0.17495991676E+03 0.  0.
        -24    2    5    5    0    0 -0.66248947398E+02 -0.11223531645E+03 -0.20186797338E+03  0.25403902483E+03  0.82458827105E+02 0.  0.
          2    1    4    4  501    0  0.49514943128E+02 -0.11497512975E+02 -0.27982757559E+03  0.28440709284E+03  0.00000000000E+00 0. -1.
         -1    1    4    4    0  501  0.46552251545E+02  0.33797062043E+02 -0.90492403100E+02  0.10722979318E+03  0.00000000000E+00 0.  1.
          5    1    3    3  502    0  0.21680364491E+02  0.11147411119E+03 -0.20703314787E+03  0.23618071468E+03  0.47000000000E+01 0. -1.
         11    1    6    6    0    0 -0.54931467003E+02 -0.83446663359E+02 -0.79079901483E+02  0.12741445174E+03  0.00000000000E+00 0. -1.
        -12    1    6    6    0    0 -0.11317480395E+02 -0.28788653090E+02 -0.12278807190E+03  0.12662457309E+03  0.00000000000E+00 0.  1.
         -5    1    5    5    0  503 -0.51498611766E+02 -0.21538343812E+02  0.14863439967E+02  0.57957045436E+02  0.47000000000E+01 0.  1.
<mgrwt>
<rscale>  2 0.24895590E+03</rscale>
<asrwt>0</asrwt>
<pdfrwt beam="1">  1       21 0.13496616E-01 0.24974157E+03</pdfrwt>
<pdfrwt beam="2">  1       21 0.13109010E+00 0.24974157E+03</pdfrwt>
<totfact> 0.19437699E+04</totfact>
</mgrwt>
</event>
<event>
12    1  0.1441827E-001  0.2617882E+03  0.7546771E-02  0.1106086E+00
         21   -1    0    0  504  503  0.00000000000E+00  0.00000000000E+00  0.18606552918E+03  0.18606552918E+03  0.00000000000E+00 0.  1.
         21   -1    0    0  502  504 -0.00000000000E+00 -0.00000000000E+00 -0.10751732815E+04  0.10751732815E+04  0.00000000000E+00 0.  1.
          6    2    1    2  502    0  0.18296279401E+03 -0.69317463188E+02 -0.95593589064E+03  0.99113394989E+03  0.17393327720E+03 0.  0.
         24    2    3    3    0    0  0.85924372273E+02 -0.90258861907E+02 -0.73687294894E+03  0.75058112846E+03  0.69718201450E+02 0.  0.
         -6    2    1    2    0  503 -0.18296279401E+03  0.69317463188E+02  0.66828138290E+02  0.27010486081E+03  0.17381122251E+03 0.  0.
        -24    2    5    5    0    0 -0.34037683707E+02  0.74383483791E+02  0.36907774272E+02  0.11804674289E+03  0.76690176236E+02 0.  0.
          4    1    4    4  501    0  0.23695207133E+02 -0.58228047214E+02 -0.48874102841E+03  0.49276745141E+03  0.00000000000E+00 0. -1.
         -3    1    4    4    0  501  0.62229165140E+02 -0.32030814692E+02 -0.24813192054E+03  0.25781367705E+03  0.00000000000E+00 0.  1.
          5    1    3    3  502    0  0.97038421738E+02  0.20941398719E+02 -0.21906294170E+03  0.24055282143E+03  0.47000000000E+01 0. -1.
         11    1    6    6    0    0 -0.49517577896E+02  0.52389618021E+02 -0.35853452440E+00  0.72088772664E+02  0.00000000000E+00 0. -1.
        -12    1    6    6    0    0  0.15479894189E+02  0.21993865770E+02  0.37266308797E+02  0.45957970222E+02  0.00000000000E+00 0.  1.
         -5    1    5    5    0  503 -0.14892511030E+03 -0.50660206036E+01  0.29920364018E+02  0.15205811792E+03  0.47000000000E+01 0.  1.
<mgrwt>
<rscale>  2 0.26176796E+03</rscale>
<asrwt>0</asrwt>
<pdfrwt beam="1">  1       21 0.28625467E-01 0.26178823E+03</pdfrwt>
<pdfrwt beam="2">  1       21 0.16541127E+00 0.26178823E+03</pdfrwt>
<totfact> 0.25354389E+03</totfact>
</mgrwt>
</event>
<event>
12    1  0.1441827E-001  0.2097779E+03  0.7546771E-02  0.1143701E+00
         21   -1    0    0  504  503  0.00000000000E+00  0.00000000000E+00  0.44163256181E+02  0.44163256181E+02  0.00000000000E+00 0.  1.
         21   -1    0    0  502  504 -0.00000000000E+00 -0.00000000000E+00 -0.97461365420E+03  0.97461365420E+03  0.00000000000E+00 0. -1.
          6    2    1    2  502    0  0.21204308118E+02  0.97809868765E+02 -0.37563610773E+03  0.42562798565E+03  0.17332138826E+03 0.  0.
         24    2    3    3    0    0  0.67737848409E+02  0.10655552184E+03 -0.31617535011E+03  0.34947335010E+03  0.78881398744E+02 0.  0.
         -6    2    1    2    0  503 -0.21204308118E+02 -0.97809868765E+02 -0.55481429029E+03  0.59314892473E+03  0.18436473928E+03 0.  0.
        -24    2    5    5    0    0 -0.83710743896E+02 -0.40386072666E+02 -0.36032903326E+03  0.38089635802E+03  0.81280377929E+02 0.  0.
          4    1    4    4  501    0  0.50112598433E+02  0.43456619813E+02 -0.24001435623E+03  0.24901132810E+03  0.00000000000E+00 0. -1.
         -3    1    4    4    0  501  0.17625249976E+02  0.63098902030E+02 -0.76160993881E+02  0.10046202199E+03  0.00000000000E+00 0.  1.
          5    1    3    3  502    0 -0.46533540291E+02 -0.87456530786E+01 -0.59460757620E+02  0.76154635555E+02  0.47000000000E+01 0. -1.
         11    1    6    6    0    0  0.43015388252E+01 -0.15098656280E+02 -0.15837114979E+03  0.15914739629E+03  0.00000000000E+00 0. -1.
        -12    1    6    6    0    0 -0.88012282721E+02 -0.25287416386E+02 -0.20195788346E+03  0.22174896173E+03  0.00000000000E+00 0.  1.
         -5    1    5    5    0  503  0.62506435778E+02 -0.57423796099E+02 -0.19448525703E+03  0.21225256671E+03  0.47000000000E+01 0.  1.
<mgrwt>
<rscale>  2 0.20732617E+03</rscale>
<asrwt>0</asrwt>
<pdfrwt beam="1">  1       21 0.67943477E-02 0.20977786E+03</pdfrwt>
<pdfrwt beam="2">  1       21 0.14994055E+00 0.20977786E+03</pdfrwt>
<totfact> 0.47188791E+04</totfact>
</mgrwt>
</event>
<event>
12    1  0.1441827E-001  0.2494520E+03  0.7546771E-02  0.1113746E+00
         21   -1    0    0  504  503  0.00000000000E+00  0.00000000000E+00  0.83953778674E+03  0.83953778674E+03  0.00000000000E+00 0. -1.
         21   -1    0    0  502  504 -0.00000000000E+00 -0.00000000000E+00 -0.22884647602E+03  0.22884647602E+03  0.00000000000E+00 0.  1.
          6    2    1    2  502    0 -0.14807256767E+03 -0.10118652347E+03 -0.13403299639E+03  0.28318039663E+03  0.17338424116E+03 0.  0.
         24    2    3    3    0    0 -0.73349659732E+02 -0.11270079629E+02 -0.69724110515E+01  0.11045239603E+03  0.81510306065E+02 0.  0.
         -6    2    1    2    0  503  0.14807256767E+03  0.10118652347E+03  0.74472430711E+03  0.78520386613E+03  0.17253005520E+03 0.  0.
        -24    2    5    5    0    0  0.12538294025E+03  0.13342772426E+03  0.68598805923E+03  0.71430710290E+03  0.78301855309E+02 0.  0.
          2    1    4    4  501    0 -0.46076714808E+02  0.18220501050E+01  0.35578862555E+02  0.58242930686E+02  0.00000000000E+00 0. -1.
         -1    1    4    4    0  501 -0.27272944924E+02 -0.13092129734E+02 -0.42551273607E+02  0.52209465343E+02  0.00000000000E+00 0.  1.
          5    1    3    3  502    0 -0.74722907934E+02 -0.89916443844E+02 -0.12706058534E+03  0.17272800060E+03  0.47000000000E+01 0. -1.
         13    1    6    6    0    0 -0.15002520125E+01 -0.83310837771E+01  0.40024317457E+02  0.40909701795E+02  0.00000000000E+00 0. -1.
        -14    1    6    6    0    0  0.12688319226E+03  0.14175880803E+03  0.64596374177E+03  0.67339740110E+03  0.00000000000E+00 0.  1.
         -5    1    5    5    0  503  0.22689627415E+02 -0.32241200783E+02  0.58736247888E+02  0.70896763227E+02  0.47000000000E+01 0.  1.
<mgrwt>
<rscale>  2 0.24930361E+03</rscale>
<asrwt>0</asrwt>
<pdfrwt beam="1">  1       21 0.12915966E+00 0.24945199E+03</pdfrwt>
<pdfrwt beam="2">  1       21 0.35207151E-01 0.24945199E+03</pdfrwt>
<totfact> 0.32688699E+03</totfact>
</mgrwt>
</event>
<event>
12    1  0.1441827E-001  0.1971591E+03  0.7546771E-02  0.1152388E+00
         21   -1    0    0  504  503  0.00000000000E+00  0.00000000000E+00  0.12466072941E+04  0.12466072941E+04  0.00000000000E+00 0.  1.
         21   -1    0    0  502  504 -0.00000000000E+00 -0.00000000000E+00 -0.57781226265E+02  0.57781226265E+02  0.00000000000E+00 0.  1.
          6    2    1    2  502    0 -0.93104914118E+02 -0.14795222087E+02  0.14964346105E+03  0.24666823045E+03  0.17194367347E+03 0.  0.
         24    2    3    3    0    0 -0.10201719058E+03  0.22601138317E+02  0.52760634835E+02  0.14233085239E+03  0.80969551854E+02 0.  0.
         -6    2    1    2    0  503  0.93104914118E+02  0.14795222087E+02  0.10391826068E+04  0.10577202900E+04  0.17315974658E+03 0.  0.
        -24    2    5    5    0    0  0.53682755493E+02  0.17503645421E+02  0.26804393681E+03  0.28555555330E+03  0.80661057024E+02 0.  0.
          2    1    4    4  501    0 -0.47989983565E+02  0.51131163340E+02  0.36748695064E+02  0.79170076266E+02  0.00000000000E+00 0. -1.
         -1    1    4    4    0  501 -0.54027207017E+02 -0.28530025023E+02  0.16011939771E+02  0.63160776128E+02  0.00000000000E+00 0.  1.
          5    1    3    3  502    0  0.89122764635E+01 -0.37396360404E+02  0.96882826218E+02  0.10433737805E+03  0.47000000000E+01 0. -1.
         11    1    6    6    0    0  0.58125962082E+02 -0.17257014765E+02  0.13532100779E+03  0.14828421081E+03  0.00000000000E+00 0. -1.
        -12    1    6    6    0    0 -0.44432065888E+01  0.34760660186E+02  0.13272292903E+03  0.13727134250E+03  0.00000000000E+00 0.  1.
         -5    1    5    5    0  503  0.39422158625E+02 -0.27084233338E+01  0.77113867001E+03  0.77216473666E+03  0.47000000000E+01 0.  1.
<mgrwt>
<rscale>  2 0.19689179E+03</rscale>
<asrwt>0</asrwt>
<pdfrwt beam="1">  1       21 0.19178572E+00 0.19715913E+03</pdfrwt>
<pdfrwt beam="2">  1       21 0.88894204E-02 0.19715913E+03</pdfrwt>
<totfact> 0.15101485E+04</totfact>
</mgrwt>
</event>
<event>
12    1  0.1441827E-001  0.1854102E+03  0.7546771E-02  0.1162742E+00
         21   -1    0    0  504  503  0.00000000000E+00  0.00000000000E+00  0.17535107667E+04  0.17535107667E+04  0.00000000000E+00 0. -1.
         21   -1    0    0  502  504 -0.00000000000E+00 -0.00000000000E+00 -0.20203985513E+02  0.20203985513E+02  0.00000000000E+00 0. -1.
          6    2    1    2  502    0  0.60988004146E+02  0.24654760275E+02  0.71036236179E+03  0.73416050075E+03  0.17334809478E+03 0.  0.
         24    2    3    3    0    0  0.15338578536E+02  0.13363214976E+02  0.65747057350E+03  0.66323095598E+03  0.84816852329E+02 0.  0.
         -6    2    1    2    0  503 -0.60988004146E+02 -0.24654760275E+02  0.10229444194E+04  0.10395542515E+04  0.17300393839E+03 0.  0.
        -24    2    5    5    0    0 -0.97673208457E+01  0.32381747554E+02  0.77111790539E+03  0.77627606250E+03  0.82690525909E+02 0.  0.
          4    1    4    4  501    0  0.42102317035E+02 -0.17079850717E+02  0.40284866515E+03  0.40540272991E+03  0.00000000000E+00 0. -1.
         -3    1    4    4    0  501 -0.26763738499E+02  0.30443065693E+02  0.25462190835E+03  0.25782822607E+03  0.00000000000E+00 0.  1.
          5    1    3    3  502    0  0.45649425610E+02  0.11291545299E+02  0.52891788286E+02  0.70929544774E+02  0.47000000000E+01 0. -1.
         13    1    6    6    0    0 -0.45808015698E+02  0.14854384512E+02  0.35932177645E+03  0.36253436537E+03  0.00000000000E+00 0. -1.
        -14    1    6    6    0    0  0.36040694852E+02  0.17527363042E+02  0.41179612893E+03  0.41374169713E+03  0.00000000000E+00 0.  1.
         -5    1    5    5    0  503 -0.51220683300E+02 -0.57036507828E+02  0.25182651405E+03  0.26327818900E+03  0.47000000000E+01 0.  1.
<mgrwt>
<rscale>  2 0.18532975E+03</rscale>
<asrwt>0</asrwt>
<pdfrwt beam="1">  1       21 0.26977077E+00 0.18541024E+03</pdfrwt>
<pdfrwt beam="2">  1       21 0.31083068E-02 0.18541024E+03</pdfrwt>
<totfact> 0.30618842E+04</totfact>
</mgrwt>
</event>
<event>
12    1  0.1441827E-001  0.1896891E+03  0.7546771E-02  0.1159121E+00
         21   -1    0    0  504  503  0.00000000000E+00  0.00000000000E+00  0.91351864881E+02  0.91351864881E+02  0.00000000000E+00 0.  1.
         21   -1    0    0  502  504 -0.00000000000E+00 -0.00000000000E+00 -0.55320611642E+03  0.55320611642E+03  0.00000000000E+00 0. -1.
          6    2    1    2  502    0 -0.67568177789E+02 -0.29428855250E+02 -0.40646760940E+03  0.44855087248E+03  0.17478687463E+03 0.  0.
         24    2    3    3    0    0  0.14126687271E+01 -0.43886301221E+02 -0.33802691608E+03  0.35019644486E+03  0.80295397950E+02 0.  0.
         -6    2    1    2    0  503  0.67568177789E+02  0.29428855250E+02 -0.55386642147E+02  0.19600710883E+03  0.17297280252E+03 0.  0.
        -24    2    5    5    0    0  0.24316477003E+02 -0.46251908388E+02 -0.53879859089E+02  0.10869933139E+03  0.78625538766E+02 0.  0.
          2    1    4    4  501    0 -0.57781379457E+01 -0.42234373375E+02 -0.33991749008E+03  0.34257996035E+03  0.00000000000E+00 0. -1.
         -1    1    4    4    0  501  0.71908066729E+01 -0.16519278451E+01  0.18905740020E+01  0.76164845085E+01  0.00000000000E+00 0.  1.
          5    1    3    3  502    0 -0.68980846516E+02  0.14457445970E+02 -0.68440693319E+02  0.98354427618E+02  0.47000000000E+01 0. -1.
         13    1    6    6    0    0  0.37672681239E+02 -0.52892896618E+02 -0.14426957444E+02  0.66520872856E+02  0.00000000000E+00 0. -1.
        -14    1    6    6    0    0 -0.13356204236E+02  0.66409882306E+01 -0.39452901645E+02  0.42178458536E+02  0.00000000000E+00 0.  1.
         -5    1    5    5    0  503  0.43251700786E+02  0.75680763638E+02 -0.15067830580E+01  0.87307777437E+02  0.47000000000E+01 0.  1.
<mgrwt>
<rscale>  2 0.18927019E+03</rscale>
<asrwt>0</asrwt>
<pdfrwt beam="1">  1       21 0.14054133E-01 0.18968913E+03</pdfrwt>
<pdfrwt beam="2">  1       21 0.85108633E-01 0.18968913E+03</pdfrwt>
<totfact> 0.52829544E+04</totfact>
</mgrwt>
</event>
<event>
12    1  0.1441827E-001  0.2653227E+03  0.7546771E-02  0.1104123E+00
         21   -1    0    0  504  503  0.00000000000E+00  0.00000000000E+00  0.75677392425E+02  0.75677392425E+02  0.00000000000E+00 0.  1.
         21   -1    0    0  502  504 -0.00000000000E+00 -0.00000000000E+00 -0.10557925565E+04  0.10557925565E+04  0.00000000000E+00 0.  1.
          6    2    1    2  502    0 -0.28061514727E+02 -0.19807142619E+03 -0.68692200620E+03  0.73604817196E+03  0.17287374113E+03 0.  0.
         24    2    3    3    0    0  0.10943656215E+02 -0.15719230396E+03 -0.63622014949E+03  0.65998718151E+03  0.77316344412E+02 0.  0.
         -6    2    1    2    0  503  0.28061514727E+02  0.19807142619E+03 -0.29319315787E+03  0.39542177695E+03  0.17428831110E+03 0.  0.
        -24    2    5    5    0    0 -0.45244035744E+02  0.68305228377E+02 -0.10666385414E+03  0.15661591233E+03  0.80241754859E+02 0.  0.
          4    1    4    4  501    0 -0.31400986529E+02 -0.54097715539E+02 -0.18867579325E+03  0.19877409222E+03  0.00000000000E+00 0. -1.
         -3    1    4    4    0  501  0.42344642745E+02 -0.10309458842E+03 -0.44754435624E+03  0.46121308929E+03  0.00000000000E+00 0.  1.
          5    1    3    3  502    0 -0.39005170943E+02 -0.40879122229E+02 -0.50701856709E+02  0.76060990450E+02  0.47000000000E+01 0. -1.
         11    1    6    6    0    0 -0.44226686908E+02  0.82417810472E+02 -0.10743415663E+03  0.14244575574E+03  0.00000000000E+00 0. -1.
        -12    1    6    6    0    0 -0.10173488361E+01 -0.14112582095E+02  0.77030248909E+00  0.14170156596E+02  0.00000000000E+00 0.  1.
         -5    1    5    5    0  503  0.73305550471E+02  0.12976619781E+03 -0.18652930373E+03  0.23880586462E+03  0.47000000000E+01 0.  1.
<mgrwt>
<rscale>  2 0.26509066E+03</rscale>
<asrwt>0</asrwt>
<pdfrwt beam="1">  1       21 0.11642676E-01 0.26532274E+03</pdfrwt>
<pdfrwt beam="2">  1       21 0.16242962E+00 0.26532274E+03</pdfrwt>
<totfact> 0.14285935E+04</totfact>
</mgrwt>
</event>
<event>
12    1  0.1441827E-001  0.3438659E+03  0.7546771E-02  0.1065377E+00
         21   -1    0    0  504  503  0.00000000000E+00  0.00000000000E+00  0.19735030005E+03  0.19735030005E+03  0.00000000000E+00 0. -1.
         21   -1    0    0  502  504 -0.00000000000E+00 -0.00000000000E+00 -0.62581611189E+03  0.62581611189E+03  0.00000000000E+00 0.  1.
          6    2    1    2  502    0 -0.29616251759E+03  0.37575081708E+01 -0.30529210272E+03  0.45983369833E+03  0.17469231936E+03 0.  0.
         24    2    3    3    0    0 -0.23146891528E+03  0.64996828818E+02 -0.21261691853E+03  0.33120129053E+03  0.81767318061E+02 0.  0.
         -6    2    1    2    0  503  0.29616251759E+03 -0.37575081708E+01 -0.12317370912E+03  0.36333271361E+03  0.17062397977E+03 0.  0.
        -24    2    5    5    0    0  0.27439329622E+03  0.21480904999E+02 -0.61897360444E+02  0.29342021541E+03  0.80690949250E+02 0.  0.
          2    1    4    4  501    0 -0.55972888150E+02  0.53285300257E+02 -0.53214919844E+02  0.93830246325E+02  0.00000000000E+00 0. -1.
         -1    1    4    4    0  501 -0.17549602713E+03  0.11711528561E+02 -0.15940199869E+03  0.23737104420E+03  0.00000000000E+00 0.  1.
          5    1    3    3  502    0 -0.64693602305E+02 -0.61239320647E+02 -0.92675184188E+02  0.12863240780E+03  0.47000000000E+01 0. -1.
         13    1    6    6    0    0  0.20240420719E+03  0.42733805307E+02 -0.68887495217E+02  0.21803469495E+03  0.00000000000E+00 0. -1.
        -14    1    6    6    0    0  0.71989089036E+02 -0.21252900308E+02  0.69901347738E+01  0.75385520466E+02  0.00000000000E+00 0.  1.
         -5    1    5    5    0  503  0.21769221364E+02 -0.25238413170E+02 -0.61276348673E+02  0.69912498202E+02  0.47000000000E+01 0.  1.
<mgrwt>
<rscale>  2 0.34335255E+03</rscale>
<asrwt>0</asrwt>
<pdfrwt beam="1">  1       21 0.30361584E-01 0.34386591E+03</pdfrwt>
<pdfrwt beam="2">  1       21 0.96279403E-01 0.34386591E+03</pdfrwt>
<totfact> 0.86076717E+03</totfact>
</mgrwt>
</event>
<event>
12    1  0.1441827E-001  0.2634965E+03  0.7546771E-02  0.1105211E+00
         21   -1    0    0  504  503  0.00000000000E+00  0.00000000000E+00  0.27262399005E+03  0.27262399005E+03  0.00000000000E+00 0.  1.
         21   -1    0    0  502  504 -0.00000000000E+00 -0.00000000000E+00 -0.27256620271E+03  0.27256620271E+03  0.00000000000E+00 0. -1.
          6    2    1    2  502    0  0.16914533369E+03 -0.10266478102E+03 -0.71708302269E+02  0.27307959247E+03  0.17401201694E+03 0.  0.
         24    2    3    3    0    0  0.72479841858E+02 -0.10371119153E+03 -0.89462062950E+02  0.17467939784E+03  0.80623151748E+02 0.  0.
         -6    2    1    2    0  503 -0.16914533369E+03  0.10266478102E+03  0.71766089612E+02  0.27211060028E+03  0.17246334682E+03 0.  0.
        -24    2    5    5    0    0 -0.91727381824E+02  0.10773070432E+03  0.97841363607E+02  0.19012759739E+03  0.80967608505E+02 0.  0.
          4    1    4    4  501    0  0.69777629221E+02 -0.11512410663E+03 -0.91504356808E+02  0.16277445986E+03  0.00000000000E+00 0. -1.
         -3    1    4    4    0  501  0.27022126367E+01  0.11412915098E+02  0.20422938584E+01  0.11904937983E+02  0.00000000000E+00 0.  1.
          5    1    3    3  502    0  0.96665491828E+02  0.10464105067E+01  0.17753760680E+02  0.98400194632E+02  0.47000000000E+01 0. -1.
         13    1    6    6    0    0  0.31699333690E+01  0.48845981502E+02  0.45338088475E+02  0.66719717123E+02  0.00000000000E+00 0. -1.
        -14    1    6    6    0    0 -0.94897315193E+02  0.58884722818E+02  0.52503275133E+02  0.12340788027E+03  0.00000000000E+00 0.  1.
         -5    1    5    5    0  503 -0.77417951862E+02 -0.50659232963E+01 -0.26075273995E+02  0.81983002893E+02  0.47000000000E+01 0.  1.
<mgrwt>
<rscale>  2 0.26324105E+03</rscale>
<asrwt>0</asrwt>
<pdfrwt beam="1">  1       21 0.41942152E-01 0.26349646E+03</pdfrwt>
<pdfrwt beam="2">  1       21 0.41933262E-01 0.26349646E+03</pdfrwt>
<totfact> 0.28929598E+04</totfact>
</mgrwt>
</event>
<event>
12    1  0.1441827E-001  0.1899794E+03  0.7546771E-02  0.1158548E+00
         21   -1    0    0  504  503  0.00000000000E+00  0.00000000000E+00  0.65888170712E+03  0.65888170712E+03  0.00000000000E+00 0.  1.
         21   -1    0    0  502  504 -0.00000000000E+00 -0.00000000000E+00 -0.12697880778E+03  0.12697880778E+03  0.00000000000E+00 0.  1.
          6    2    1    2  502    0 -0.13155119534E+02 -0.76528258848E+02 -0.30428734927E+02  0.19240081182E+03  0.17338550374E+03 0.  0.
         24    2    3    3    0    0 -0.94410156486E+01 -0.77517715648E+02 -0.82787831677E+02  0.13969086395E+03  0.81003601035E+02 0.  0.
         -6    2    1    2    0  503  0.13155119534E+02  0.76528258848E+02  0.56233163427E+03  0.59345970307E+03  0.17305467547E+03 0.  0.
        -24    2    5    5    0    0 -0.30079537446E+02  0.63369920655E+02  0.18589108654E+03  0.21428698068E+03  0.80267606296E+02 0.  0.
          2    1    4    4  501    0 -0.13969922288E+02  0.19142413592E+01 -0.52825573353E+02  0.54675078864E+02  0.00000000000E+00 0. -1.
         -1    1    4    4    0  501  0.45289066392E+01 -0.79431957007E+02 -0.29962258324E+02  0.85015785083E+02  0.00000000000E+00 0.  1.
          5    1    3    3  502    0 -0.37141038856E+01  0.98945680051E+00  0.52359096750E+02  0.52709947875E+02  0.47000000000E+01 0. -1.
         13    1    6    6    0    0  0.63562625135E+01  0.22037360937E+02  0.28254291907E+01  0.23109097783E+02  0.00000000000E+00 0. -1.
        -14    1    6    6    0    0 -0.36435799960E+02  0.41332559718E+02  0.18306565734E+03  0.19117788290E+03  0.00000000000E+00 0.  1.
         -5    1    5    5    0  503  0.43234656981E+02  0.13158338193E+02  0.37644054773E+03  0.37917272239E+03  0.47000000000E+01 0.  1.
<mgrwt>
<rscale>  2 0.18990386E+03</rscale>
<asrwt>0</asrwt>
<pdfrwt beam="1">  1       21 0.10136641E+00 0.18997938E+03</pdfrwt>
<pdfrwt beam="2">  1       21 0.19535202E-01 0.18997938E+03</pdfrwt>
<totfact> 0.19202932E+04</totfact>
</mgrwt>
</event>
<event>
12    1  0.1441827E-001  0.2191107E+03  0.7546771E-02  0.1134574E+00
         21   -1    0    0  504  503  0.00000000000E+00  0.00000000000E+00  0.23972190589E+03  0.23972190589E+03  0.00000000000E+00 0. -1.
         21   -1    0    0  502  504 -0.00000000000E+00 -0.00000000000E+00 -0.21816828228E+03  0.21816828228E+03  0.00000000000E+00 0. -1.
          6    2    1    2  502    0  0.11656719380E+03 -0.67414424199E+02 -0.55030927211E+02  0.22578099433E+03  0.17267321503E+03 0.  0.
         24    2    3    3    0    0  0.43654680835E+02 -0.56389957611E+01  0.31176315304E+02  0.96993507485E+02  0.80611713953E+02 0.  0.
         -6    2    1    2    0  503 -0.11656719380E+03  0.67414424199E+02  0.76584550820E+02  0.23210919384E+03  0.17284926722E+03 0.  0.
        -24    2    5    5    0    0 -0.10444744520E+03  0.23332336815E+02 -0.88596407640E+01  0.13508899692E+03  0.81956556206E+02 0.  0.
          4    1    4    4  501    0  0.97051470978E+01  0.34953571766E+02  0.24224451597E+02  0.43620707405E+02  0.00000000000E+00 0. -1.
         -3    1    4    4    0  501  0.33949533737E+02 -0.40592567527E+02  0.69518637070E+01  0.53372800080E+02  0.00000000000E+00 0.  1.
          5    1    3    3  502    0  0.72912512962E+02 -0.61775428438E+02 -0.86207242515E+02  0.12878748684E+03  0.47000000000E+01 0. -1.
         13    1    6    6    0    0 -0.40989400348E+02  0.41560132334E+02  0.21777719064E+02  0.62302845747E+02  0.00000000000E+00 0. -1.
        -14    1    6    6    0    0 -0.63458044851E+02 -0.18227795519E+02 -0.30637359828E+02  0.72786151176E+02  0.00000000000E+00 0.  1.
         -5    1    5    5    0  503 -0.12119748599E+02  0.44082087384E+02  0.85444191584E+02  0.97020196916E+02  0.47000000000E+01 0.  1.
<mgrwt>
<rscale>  2 0.21907595E+03</rscale>
<asrwt>0</asrwt>
<pdfrwt beam="1">  1       21 0.36880293E-01 0.21911067E+03</pdfrwt>
<pdfrwt beam="2">  1       21 0.33564351E-01 0.21911067E+03</pdfrwt>
<totfact> 0.59901693E+04</totfact>
</mgrwt>
</event>
<event>
12    1  0.1441827E-001  0.1806779E+03  0.7546771E-02  0.1167214E+00
         21   -1    0    0  504  503  0.00000000000E+00  0.00000000000E+00  0.23479409961E+03  0.23479409961E+03  0.00000000000E+00 0. -1.
         21   -1    0    0  502  504 -0.00000000000E+00 -0.00000000000E+00 -0.14250606373E+03  0.14250606373E+03  0.00000000000E+00 0. -1.
          6    2    1    2  502    0  0.47421628745E+02  0.14482203054E+02  0.15790575667E+02  0.18109522638E+03  0.17345775757E+03 0.  0.
         24    2    3    3    0    0  0.76039840281E+02  0.21338267499E+02 -0.38540284202E+02  0.11912797708E+03  0.80428492762E+02 0.  0.
         -6    2    1    2    0  503 -0.47421628745E+02 -0.14482203054E+02  0.76497460215E+02  0.19620493696E+03  0.17374110276E+03 0.  0.
        -24    2    5    5    0    0 -0.48604078354E+01 -0.51071640692E+02 -0.90785940894E+01  0.93756923104E+02  0.77948724890E+02 0.  0.
          4    1    4    4  501    0  0.83089949960E+02  0.25745035121E+02 -0.78603452641E+01  0.87341465784E+02  0.00000000000E+00 0. -1.
         -3    1    4    4    0  501 -0.70501096788E+01 -0.44067676216E+01 -0.30679938938E+02  0.31786511299E+02  0.00000000000E+00 0.  1.
          5    1    3    3  502    0 -0.28618211536E+02 -0.68560644457E+01  0.54330859869E+02  0.61967249297E+02  0.47000000000E+01 0. -1.
         11    1    6    6    0    0 -0.24997732814E+02 -0.51825897055E+02 -0.29845952595E+02  0.64819681715E+02  0.00000000000E+00 0. -1.
        -12    1    6    6    0    0  0.20137324978E+02  0.75425636251E+00  0.20767358505E+02  0.28937241389E+02  0.00000000000E+00 0.  1.
         -5    1    5    5    0  503 -0.42561220909E+02  0.36589437639E+02  0.85576054305E+02  0.10244801385E+03  0.47000000000E+01 0.  1.
<mgrwt>
<rscale>  2 0.18060978E+03</rscale>
<asrwt>0</asrwt>
<pdfrwt beam="1">  1       21 0.36122169E-01 0.18067793E+03</pdfrwt>
<pdfrwt beam="2">  1       21 0.21924010E-01 0.18067793E+03</pdfrwt>
<totfact> 0.14415853E+05</totfact>
</mgrwt>
</event>
<event>
12    1  0.1441827E-001  0.1964356E+03  0.7546771E-02  0.1154447E+00
         21   -1    0    0  504  503  0.00000000000E+00  0.00000000000E+00  0.37402262403E+03  0.37402262403E+03  0.00000000000E+00 0. -1.
         21   -1    0    0  502  504 -0.00000000000E+00 -0.00000000000E+00 -0.89074734576E+03  0.89074734576E+03  0.00000000000E+00 0. -1.
          6    2    1    2  502    0 -0.73067571620E+02  0.22260593200E+02 -0.85503169110E+03  0.87730618287E+03  0.18097663298E+03 0.  0.
         24    2    3    3    0    0 -0.55456903415E+02 -0.55344623900E+02 -0.40417233210E+03  0.41945363352E+03  0.80296831199E+02 0.  0.
         -6    2    1    2    0  503  0.73067571620E+02 -0.22260593200E+02  0.33830696937E+03  0.38746378692E+03  0.17274888311E+03 0.  0.
        -24    2    5    5    0    0  0.36276746149E+02 -0.29653295060E+02  0.69589593096E+02  0.11609810156E+03  0.80254205492E+02 0.  0.
          4    1    4    4  501    0 -0.50624925599E+02 -0.55484893282E+02 -0.40698710438E+03  0.41385983087E+03  0.00000000000E+00 0. -1.
         -3    1    4    4    0  501 -0.48319778159E+01  0.14026938120E+00  0.28147722754E+01  0.55938026489E+01  0.00000000000E+00 0.  1.
          5    1    3    3  502    0 -0.17610668205E+02  0.77605217100E+02 -0.45085935900E+03  0.45785254935E+03  0.47000000000E+01 0. -1.
         13    1    6    6    0    0 -0.72159494567E+00 -0.29688149394E+02  0.73130976643E+02  0.78930644610E+02  0.00000000000E+00 0. -1.
        -14    1    6    6    0    0  0.36998341094E+02  0.34854334124E-01 -0.35413835479E+01  0.37167456948E+02  0.00000000000E+00 0.  1.
         -5    1    5    5    0  503  0.36790825471E+02  0.73927018601E+01  0.26871737627E+03  0.27136568536E+03  0.47000000000E+01 0.  1.
<mgrwt>
<rscale>  2 0.19451946E+03</rscale>
<asrwt>0</asrwt>
<pdfrwt beam="1">  1       21 0.57541943E-01 0.19643560E+03</pdfrwt>
<pdfrwt beam="2">  1       21 0.13703805E+00 0.19643560E+03</pdfrwt>
<totfact> 0.10673641E+03</totfact>
</mgrwt>
</event>
<event>
12    1  0.1441827E-001  0.2475260E+03  0.7546771E-02  0.1115246E+00
         21   -1    0    0  504  503  0.00000000000E+00  0.00000000000E+00  0.53638454319E+03  0.53638454319E+03  0.00000000000E+00 0. -1.
         21   -1    0    0  502  504 -0.00000000000E+00 -0.00000000000E+00 -0.25924089141E+03  0.25924089141E+03  0.00000000000E+00 0.  1.
          6    2    1    2  502    0 -0.17577634625E+03 -0.10838376187E+02 -0.15975449338E+03  0.29460251410E+03  0.17393777294E+03 0.  0.
         24    2    3    3    0    0 -0.53344206320E+01  0.29202417537E+02 -0.67584036254E+02  0.96685363910E+02  0.62443737914E+02 0.  0.
         -6    2    1    2    0  503  0.17577634625E+03  0.10838376187E+02  0.43689814515E+03  0.50102292051E+03  0.17067273752E+03 0.  0.
        -24    2    5    5    0    0  0.13499605736E+03  0.59891726400E+02  0.23129743124E+03  0.28570221391E+03  0.79475146663E+02 0.  0.
          4    1    4    4  501    0 -0.12738248794E+02  0.36051205097E+02 -0.11826124531E+02  0.40022613516E+02  0.00000000000E+00 0. -1.
         -3    1    4    4    0  501  0.74038281620E+01 -0.68487875601E+01 -0.55757911723E+02  0.56662750394E+02  0.00000000000E+00 0.  1.
          5    1    3    3  502    0 -0.17044192562E+03 -0.40040793723E+02 -0.92170457124E+02  0.19791715018E+03  0.47000000000E+01 0. -1.
         11    1    6    6    0    0  0.11685257864E+03  0.79077705753E+02  0.19985658510E+03  0.24464354333E+03  0.00000000000E+00 0. -1.
        -12    1    6    6    0    0  0.18143478720E+02 -0.19185979353E+02  0.31440846137E+02  0.41058670578E+02  0.00000000000E+00 0.  1.
         -5    1    5    5    0  503  0.40780288888E+02 -0.49053350213E+02  0.20560071391E+03  0.21532070660E+03  0.47000000000E+01 0.  1.
<mgrwt>
<rscale>  2 0.24695322E+03</rscale>
<asrwt>0</asrwt>
<pdfrwt beam="1">  1       21 0.82520699E-01 0.24752605E+03</pdfrwt>
<pdfrwt beam="2">  1       21 0.39883214E-01 0.24752605E+03</pdfrwt>
<totfact> 0.74897229E+03</totfact>
</mgrwt>
</event>
<event>
12    1  0.1441827E-001  0.2091483E+03  0.7546771E-02  0.1144775E+00
         21   -1    0    0  504  503  0.00000000000E+00  0.00000000000E+00  0.66612885313E+03  0.66612885313E+03  0.00000000000E+00 0. -1.
         21   -1    0    0  502  504 -0.00000000000E+00 -0.00000000000E+00 -0.62567871299E+02  0.62567871299E+02  0.00000000000E+00 0. -1.
          6    2    1    2  502    0  0.90579524266E+02  0.10008103823E+02  0.34967101088E+03  0.40744673902E+03  0.18825041017E+03 0.  0.
         24    2    3    3    0    0 -0.29341176221E+02 -0.23058895871E+02  0.13908099240E+03  0.16281508376E+03  0.75977705611E+02 0.  0.
         -6    2    1    2    0  503 -0.90579524266E+02 -0.10008103823E+02  0.25388997095E+03  0.32124998541E+03  0.17446095099E+03 0.  0.
        -24    2    5    5    0    0  0.91297230334E+01  0.33141817813E+02  0.12420414564E+03  0.15200355851E+03  0.80601985540E+02 0.  0.
          2    1    4    4  501    0  0.59654424488E+01 -0.31547279488E+02  0.18873972198E+02  0.37243041943E+02  0.00000000000E+00 0. -1.
         -1    1    4    4    0  501 -0.35306618670E+02  0.84883836163E+01  0.12020702021E+03  0.12557204181E+03  0.00000000000E+00 0.  1.
          5    1    3    3  502    0  0.11992070049E+03  0.33066999694E+02  0.21059001848E+03  0.24463165526E+03  0.47000000000E+01 0. -1.
         13    1    6    6    0    0 -0.11632060153E+02  0.55219544862E+02  0.70123344015E+02  0.90009923531E+02  0.00000000000E+00 0. -1.
        -14    1    6    6    0    0  0.20761783187E+02 -0.22077727049E+02  0.54080801628E+02  0.61993634975E+02  0.00000000000E+00 0.  1.
         -5    1    5    5    0  503 -0.99709247299E+02 -0.43149921636E+02  0.12968582531E+03  0.16924642690E+03  0.47000000000E+01 0.  1.
<mgrwt>
<rscale>  2 0.20599790E+03</rscale>
<asrwt>0</asrwt>
<pdfrwt beam="1">  1       21 0.10248136E+00 0.20914834E+03</pdfrwt>
<pdfrwt beam="2">  1       21 0.96258268E-02 0.20914834E+03</pdfrwt>
<totfact> 0.66681618E+04</totfact>
</mgrwt>
</event>
<event>
12    1  0.1441827E-001  0.2118046E+03  0.7546771E-02  0.1140165E+00
         21   -1    0    0  504  503  0.00000000000E+00  0.00000000000E+00  0.60613152950E+02  0.60613152950E+02  0.00000000000E+00 0.  1.
         21   -1    0    0  502  504 -0.00000000000E+00 -0.00000000000E+00 -0.83402789736E+03  0.83402789736E+03  0.00000000000E+00 0. -1.
          6    2    1    2  502    0 -0.79428567622E+02  0.92987371661E+02 -0.23624033370E+03  0.31721786150E+03  0.17280661950E+03 0.  0.
         24    2    3    3    0    0 -0.12268136989E+03  0.65249285435E+02 -0.18470245291E+03  0.24429016108E+03  0.79085390059E+02 0.  0.
         -6    2    1    2    0  503  0.79428567622E+02 -0.92987371661E+02 -0.53717441071E+03  0.57742318881E+03  0.17293248051E+03 0.  0.
        -24    2    5    5    0    0  0.54363845480E+02 -0.85375065442E+02 -0.53550116150E+03  0.55075715677E+03  0.79546352932E+02 0.  0.
          2    1    4    4  501    0 -0.10134464377E+03  0.23210557424E+02 -0.16066915810E+03  0.19137409741E+03  0.00000000000E+00 0. -1.
         -1    1    4    4    0  501 -0.21336726127E+02  0.42038728011E+02 -0.24033294812E+02  0.52916063668E+02  0.00000000000E+00 0.  1.
          5    1    3    3  502    0  0.43252802270E+02  0.27738086226E+02 -0.51537880789E+02  0.72927700416E+02  0.47000000000E+01 0. -1.
         13    1    6    6    0    0 -0.25554846800E+01 -0.35242719175E+02 -0.32671832795E+03  0.32862356211E+03  0.00000000000E+00 0. -1.
        -14    1    6    6    0    0  0.56919330160E+02 -0.50132346267E+02 -0.20878283356E+03  0.22213359466E+03  0.00000000000E+00 0.  1.
         -5    1    5    5    0  503  0.25064722142E+02 -0.76123062187E+01 -0.16732492034E+01  0.26666032043E+02  0.47000000000E+01 0.  1.
<mgrwt>
<rscale>  2 0.21177891E+03</rscale>
<asrwt>0</asrwt>
<pdfrwt beam="1">  1       21 0.93251013E-02 0.21180461E+03</pdfrwt>
<pdfrwt beam="2">  1       21 0.12831197E+00 0.21180461E+03</pdfrwt>
<totfact> 0.40565602E+04</totfact>
</mgrwt>
</event>
<event>
12    1  0.1441827E-001  0.1781502E+03  0.7546771E-02  0.1170235E+00
         21   -1    0    0  504  503  0.00000000000E+00  0.00000000000E+00  0.28873273483E+03  0.28873273483E+03  0.00000000000E+00 0. -1.
         21   -1    0    0  502  504 -0.00000000000E+00 -0.00000000000E+00 -0.46030118373E+03  0.46030118373E+03  0.00000000000E+00 0. -1.
          6    2    1    2  502    0  0.21330418376E+02  0.38444923247E+02 -0.41341119385E+03  0.45016251896E+03  0.17263973878E+03 0.  0.
         24    2    3    3    0    0  0.75783645095E+02  0.52658612756E+02 -0.29265824367E+03  0.31685630063E+03  0.78949207081E+02 0.  0.
         -6    2    1    2    0  503 -0.21330418376E+02 -0.38444923247E+02  0.24184274495E+03  0.29887139959E+03  0.17000941545E+03 0.  0.
        -24    2    5    5    0    0  0.48471181220E+02 -0.28357978175E+02  0.18181488119E+03  0.20613821140E+03  0.79263363785E+02 0.  0.
          4    1    4    4  501    0  0.30005570574E+02  0.13672099716E+02 -0.22039524175E+03  0.22284820655E+03  0.00000000000E+00 0. -1.
         -3    1    4    4    0  501  0.45778074521E+02  0.38986513041E+02 -0.72263001919E+02  0.94008094078E+02  0.00000000000E+00 0.  1.
          5    1    3    3  502    0 -0.54453226718E+02 -0.14213689510E+02 -0.12075295018E+03  0.13330621833E+03  0.47000000000E+01 0. -1.
         13    1    6    6    0    0  0.21646144781E+01 -0.35948079454E+02  0.13550936996E+03  0.14021319238E+03  0.00000000000E+00 0. -1.
        -14    1    6    6    0    0  0.46306566742E+02  0.75901012780E+01  0.46305511238E+02  0.65925019013E+02  0.00000000000E+00 0.  1.
         -5    1    5    5    0  503 -0.69801599596E+02 -0.10086945071E+02  0.60027863751E+02  0.92733188199E+02  0.47000000000E+01 0.  1.
<mgrwt>
<rscale>  2 0.17750977E+03</rscale>
<asrwt>0</asrwt>
<pdfrwt beam="1">  1       21 0.44420421E-01 0.17815016E+03</pdfrwt>
<pdfrwt beam="2">  1       21 0.70815566E-01 0.17815016E+03</pdfrwt>
<totfact> 0.88810049E+03</totfact>
</mgrwt>
</event>
<event>
12    1  0.1441827E-001  0.2227248E+03  0.7546771E-02  0.1132150E+00
         21   -1    0    0  504  503  0.00000000000E+00  0.00000000000E+00  0.50531579339E+03  0.50531579339E+03  0.00000000000E+00 0.  1.
         21   -1    0    0  502  504 -0.00000000000E+00 -0.00000000000E+00 -0.13426718005E+03  0.13426718005E+03  0.00000000000E+00 0. -1.
          6    2    1    2  502    0 -0.14073589089E+03  0.19149177554E+02  0.17702082474E+02  0.22189873185E+03  0.16956533103E+03 0.  0.
         24    2    3    3    0    0 -0.83721304183E+02  0.52682646132E+02  0.60634135394E+02  0.14290248016E+03  0.83426030018E+02 0.  0.
         -6    2    1    2    0  503  0.14073589089E+03 -0.19149177554E+02  0.35334653086E+03  0.41768424159E+03  0.17156069718E+03 0.  0.
        -24    2    5    5    0    0  0.60760243561E+01 -0.31769431341E+02  0.18902784568E+03  0.20481040393E+03  0.71899654220E+02 0.  0.
          2    1    4    4  501    0 -0.16845328118E+01 -0.12712218289E+02  0.31515534692E+02  0.34024506926E+02  0.00000000000E+00 0. -1.
         -1    1    4    4    0  501 -0.82036771371E+02  0.65394864421E+02  0.29118600702E+02  0.10887797324E+03  0.00000000000E+00 0.  1.
          5    1    3    3  502    0 -0.57014586707E+02 -0.33533468579E+02 -0.42932052921E+02  0.78996251685E+02  0.47000000000E+01 0. -1.
         13    1    6    6    0    0 -0.70125624069E+01 -0.47670583091E+02  0.76472945488E+02  0.90386790602E+02  0.00000000000E+00 0. -1.
        -14    1    6    6    0    0  0.13088586763E+02  0.15901151750E+02  0.11255490019E+03  0.11442361333E+03  0.00000000000E+00 0.  1.
         -5    1    5    5    0  503  0.13465986653E+03  0.12620253787E+02  0.16431868518E+03  0.21287383766E+03  0.47000000000E+01 0.  1.
<mgrwt>
<rscale>  2 0.22234051E+03</rscale>
<asrwt>0</asrwt>
<pdfrwt beam="1">  1       21 0.77740890E-01 0.22272484E+03</pdfrwt>
<pdfrwt beam="2">  1       21 0.20656489E-01 0.22272484E+03</pdfrwt>
<totfact> 0.31371078E+04</totfact>
</mgrwt>
</event>
<event>
12    1  0.1441827E-001  0.2072801E+03  0.7546771E-02  0.1144220E+00
         21   -1    0    0  504  503  0.00000000000E+00  0.00000000000E+00  0.36904612863E+02  0.36904612863E+02  0.00000000000E+00 0. -1.
         21   -1    0    0  502  504 -0.00000000000E+00 -0.00000000000E+00 -0.11509555267E+04  0.11509555267E+04  0.00000000000E+00 0.  1.
          6    2    1    2  502    0  0.66663522863E+02 -0.91622824768E+02 -0.55838756178E+03  0.59479456114E+03  0.17071945849E+03 0.  0.
         24    2    3    3    0    0  0.84638334190E+02 -0.58905910864E+01 -0.31933477188E+03  0.34015474474E+03  0.80822070996E+02 0.  0.
         -6    2    1    2    0  503 -0.66663522863E+02  0.91622824768E+02 -0.55566335205E+03  0.59306557842E+03  0.17356915682E+03 0.  0.
        -24    2    5    5    0    0 -0.11068767767E+03  0.67440179585E+02 -0.35747528018E+03  0.38855756301E+03  0.79927867627E+02 0.  0.
          4    1    4    4  501    0  0.91747929630E+02  0.81333058153E+01 -0.20497164342E+03  0.22471583803E+03  0.00000000000E+00 0. -1.
         -3    1    4    4    0  501 -0.71095954394E+01 -0.14023896902E+02 -0.11436312846E+03  0.11543890671E+03  0.00000000000E+00 0.  1.
          5    1    3    3  502    0 -0.17974811327E+02 -0.85732233682E+02 -0.23905278991E+03  0.25463981640E+03  0.47000000000E+01 0. -1.
         11    1    6    6    0    0 -0.46536630751E+02  0.59585769727E+02 -0.11507685455E+03  0.13769097432E+03  0.00000000000E+00 0. -1.
        -12    1    6    6    0    0 -0.64151046922E+02  0.78544098585E+01 -0.24239842562E+03  0.25086658869E+03  0.00000000000E+00 0.  1.
         -5    1    5    5    0  503  0.44024154810E+02  0.24182645183E+02 -0.19818807187E+03  0.20450801541E+03  0.47000000000E+01 0.  1.
<mgrwt>
<rscale>  2 0.20668239E+03</rscale>
<asrwt>0</asrwt>
<pdfrwt beam="1">  1       21 0.56776321E-02 0.20728005E+03</pdfrwt>
<pdfrwt beam="2">  1       21 0.17707010E+00 0.20728005E+03</pdfrwt>
<totfact> 0.40913371E+04</totfact>
</mgrwt>
</event>
<event>
12    1  0.1441827E-001  0.2168160E+03  0.7546771E-02  0.1137015E+00
         21   -1    0    0  504  503  0.00000000000E+00  0.00000000000E+00  0.83491186534E+03  0.83491186534E+03  0.00000000000E+00 0.  1.
         21   -1    0    0  502  504 -0.00000000000E+00 -0.00000000000E+00 -0.68051438397E+02  0.68051438397E+02  0.00000000000E+00 0.  1.
          6    2    1    2  502    0 -0.94697152123E+02  0.82174337515E+02  0.18532126282E+03  0.28232090730E+03  0.17216547819E+03 0.  0.
         24    2    3    3    0    0 -0.73304197068E+02  0.47722645946E+02  0.20477326007E+03  0.23709870286E+03  0.81441700705E+02 0.  0.
         -6    2    1    2    0  503  0.94697152123E+02 -0.82174337515E+02  0.58153916413E+03  0.62064239644E+03  0.17688700482E+03 0.  0.
        -24    2    5    5    0    0  0.10358208986E+03 -0.12354552478E+02  0.27245211630E+03  0.30360826951E+03  0.84059153769E+02 0.  0.
          2    1    4    4  501    0 -0.41409469537E+00  0.44931782995E+02  0.97730589414E+02  0.10756535086E+03  0.00000000000E+00 0. -1.
         -1    1    4    4    0  501 -0.72890102373E+02  0.27908629510E+01  0.10704267065E+03  0.12953335200E+03  0.00000000000E+00 0.  1.
          5    1    3    3  502    0 -0.21392955054E+02  0.34451691569E+02 -0.19451997250E+02  0.45222204446E+02  0.47000000000E+01 0. -1.
         11    1    6    6    0    0  0.22577507797E+02 -0.95336842091E+01  0.61829013153E+01  0.25275744531E+02  0.00000000000E+00 0. -1.
        -12    1    6    6    0    0  0.81004582065E+02 -0.28208682693E+01  0.26626921499E+03  0.27833252498E+03  0.00000000000E+00 0.  1.
         -5    1    5    5    0  503 -0.88849377392E+01 -0.69819785036E+02  0.30908704783E+03  0.31703412693E+03  0.47000000000E+01 0.  1.
<mgrwt>
<rscale>  2 0.21585097E+03</rscale>
<asrwt>0</asrwt>
<pdfrwt beam="1">  1       21 0.12844797E+00 0.21681602E+03</pdfrwt>
<pdfrwt beam="2">  1       21 0.10469453E-01 0.21681602E+03</pdfrwt>
<totfact> 0.32874328E+04</totfact>
</mgrwt>
</event>
<event>
12    1  0.1441827E-001  0.1761837E+03  0.7546771E-02  0.1172241E+00
         21   -1    0    0  504  503  0.00000000000E+00  0.00000000000E+00  0.64781665425E+02  0.64781665425E+02  0.00000000000E+00 0.  1.
         21   -1    0    0  502  504 -0.00000000000E+00 -0.00000000000E+00 -0.47257880095E+03  0.47257880095E+03  0.00000000000E+00 0.  1.
          6    2    1    2  502    0  0.55030725811E+01  0.14111794877E+02 -0.21400818593E+03  0.27545425179E+03  0.17276028081E+03 0.  0.
         24    2    3    3    0    0  0.57474474381E+02 -0.27823757695E+02 -0.15343503560E+03  0.18517239473E+03  0.81664122613E+02 0.  0.
         -6    2    1    2    0  503 -0.55030725811E+01 -0.14111794877E+02 -0.19378894960E+03  0.26190621458E+03  0.17553142650E+03 0.  0.
        -24    2    5    5    0    0 -0.46294739861E+02 -0.40491960224E+02 -0.18764491850E+03  0.21271564271E+03  0.79085570315E+02 0.  0.
          2    1    4    4  501    0  0.69680898685E+02 -0.89260583446E+00 -0.12978079903E+03  0.14730675539E+03  0.00000000000E+00 0. -1.
         -1    1    4    4    0  501 -0.12206424304E+02 -0.26931151861E+02 -0.23654236575E+02  0.37865639343E+02  0.00000000000E+00 0.  1.
          5    1    3    3  502    0 -0.51971401800E+02  0.41935552573E+02 -0.60573150326E+02  0.90281857065E+02  0.47000000000E+01 0. -1.
         13    1    6    6    0    0 -0.59833731220E+02 -0.52480255434E+02 -0.13128168290E+03  0.15352241813E+03  0.00000000000E+00 0. -1.
        -14    1    6    6    0    0  0.13538991360E+02  0.11988295210E+02 -0.56363235600E+02  0.59193224582E+02  0.00000000000E+00 0.  1.
         -5    1    5    5    0  503  0.40791667279E+02  0.26380165347E+02 -0.61440310984E+01  0.49190571874E+02  0.47000000000E+01 0.  1.
<mgrwt>
<rscale>  2 0.17548946E+03</rscale>
<asrwt>0</asrwt>
<pdfrwt beam="1">  1       21 0.99664098E-02 0.17618373E+03</pdfrwt>
<pdfrwt beam="2">  1       21 0.72704433E-01 0.17618373E+03</pdfrwt>
<totfact> 0.13988470E+05</totfact>
</mgrwt>
</event>
<event>
12    1  0.1441827E-001  0.1985752E+03  0.7546771E-02  0.1151836E+00
         21   -1    0    0  504  503  0.00000000000E+00  0.00000000000E+00  0.14182176725E+03  0.14182176725E+03  0.00000000000E+00 0. -1.
         21   -1    0    0  502  504 -0.00000000000E+00 -0.00000000000E+00 -0.31856403697E+03  0.31856403697E+03  0.00000000000E+00 0. -1.
          6    2    1    2  502    0  0.13169482271E+02 -0.88612626451E+02  0.15492942013E+00  0.19444457918E+03  0.17257762757E+03 0.  0.
         24    2    3    3    0    0  0.48317138320E+00  0.12202929806E+02  0.33515919104E+02  0.87394289592E+02  0.79782830668E+02 0.  0.
         -6    2    1    2    0  503 -0.13169482271E+02  0.88612626451E+02 -0.17689719915E+03  0.26594122504E+03  0.17721874416E+03 0.  0.
        -24    2    5    5    0    0 -0.61225789569E+02  0.73645922903E+02 -0.52224469372E+02  0.13140947996E+03  0.73271665416E+02 0.  0.
          4    1    4    4  501    0 -0.16205216238E+02  0.17118832065E+02  0.54947436133E+02  0.59790335190E+02  0.00000000000E+00 0. -1.
         -3    1    4    4    0  501  0.16688387622E+02 -0.49159022589E+01 -0.21431517029E+02  0.27603954401E+02  0.00000000000E+00 0.  1.
          5    1    3    3  502    0  0.12686310888E+02 -0.10081555626E+03 -0.33360989684E+02  0.10705028958E+03  0.47000000000E+01 0. -1.
         11    1    6    6    0    0 -0.60964834373E+02  0.81715556880E+02 -0.61537403919E+02  0.11908398443E+03  0.00000000000E+00 0. -1.
        -12    1    6    6    0    0 -0.26095519588E+00 -0.80696339773E+01  0.93129345471E+01  0.12325495528E+02  0.00000000000E+00 0.  1.
         -5    1    5    5    0  503  0.48056307298E+02  0.14966703548E+02 -0.12467272977E+03  0.13453174508E+03  0.47000000000E+01 0.  1.
<mgrwt>
<rscale>  2 0.19753439E+03</rscale>
<asrwt>0</asrwt>
<pdfrwt beam="1">  1       21 0.21818734E-01 0.19857522E+03</pdfrwt>
<pdfrwt beam="2">  1       21 0.49009851E-01 0.19857522E+03</pdfrwt>
<totfact> 0.77685613E+04</totfact>
</mgrwt>
</event>
<event>
12    1  0.1441827E-001  0.2123450E+03  0.7546771E-02  0.1139804E+00
         21   -1    0    0  504  503  0.00000000000E+00  0.00000000000E+00  0.32741300672E+03  0.32741300672E+03  0.00000000000E+00 0. -1.
         21   -1    0    0  502  504 -0.00000000000E+00 -0.00000000000E+00 -0.14109747637E+03  0.14109747637E+03  0.00000000000E+00 0. -1.
          6    2    1    2  502    0  0.99760759584E+02  0.71434162210E+02  0.13093738410E+03  0.24946945337E+03  0.17330712889E+03 0.  0.
         24    2    3    3    0    0  0.12646938456E+03  0.18902807099E+02  0.11076262122E+03  0.18700342280E+03  0.79687518039E+02 0.  0.
         -6    2    1    2    0  503 -0.99760759584E+02 -0.71434162210E+02  0.55378146245E+02  0.21904102973E+03  0.17279231736E+03 0.  0.
        -24    2    5    5    0    0 -0.32687230207E+02 -0.55851855774E+02 -0.31262005603E+02  0.10826976753E+03  0.80976198689E+02 0.  0.
          2    1    4    4  501    0  0.53119752961E+02  0.46214575232E+02  0.37394724070E+02  0.79723650862E+02  0.00000000000E+00 0. -1.
         -1    1    4    4    0  501  0.73349631599E+02 -0.27311768133E+02  0.73367897152E+02  0.10727977194E+03  0.00000000000E+00 0.  1.
          5    1    3    3  502    0 -0.26708624976E+02  0.52531355111E+02  0.20174762879E+02  0.62466030569E+02  0.47000000000E+01 0. -1.
         13    1    6    6    0    0 -0.25914529786E+02 -0.63996404476E+02  0.62161376225E+01  0.69323466495E+02  0.00000000000E+00 0. -1.
        -14    1    6    6    0    0 -0.67727004209E+01  0.81445487017E+01 -0.37478143225E+02  0.38946301033E+02  0.00000000000E+00 0.  1.
         -5    1    5    5    0  503 -0.67073529378E+02 -0.15582306435E+02  0.86640151848E+02  0.11077126220E+03  0.47000000000E+01 0.  1.
<mgrwt>
<rscale>  2 0.21223996E+03</rscale>
<asrwt>0</asrwt>
<pdfrwt beam="1">  1       21 0.50371232E-01 0.21234502E+03</pdfrwt>
<pdfrwt beam="2">  1       21 0.21707304E-01 0.21234502E+03</pdfrwt>
<totfact> 0.73641724E+04</totfact>
</mgrwt>
</event>
<event>
12    1  0.1441827E-001  0.1931721E+03  0.7546771E-02  0.1156244E+00
         21   -1    0    0  504  503  0.00000000000E+00  0.00000000000E+00  0.27825839364E+03  0.27825839364E+03  0.00000000000E+00 0.  1.
         21   -1    0    0  502  504 -0.00000000000E+00 -0.00000000000E+00 -0.13907406688E+03  0.13907406688E+03  0.00000000000E+00 0. -1.
          6    2    1    2  502    0 -0.59829000248E+02  0.51584851256E+02  0.11646860578E+03  0.22556686787E+03  0.17628093940E+03 0.  0.
         24    2    3    3    0    0 -0.75972069814E+02 -0.17410518367E+02  0.10302865665E+03  0.15329182406E+03  0.82514227201E+02 0.  0.
         -6    2    1    2    0  503  0.59829000248E+02 -0.51584851256E+02  0.22715720973E+02  0.19176559265E+03  0.17325568504E+03 0.  0.
        -24    2    5    5    0    0  0.15991780882E+01 -0.74063523824E+02  0.54806051304E+02  0.12142440835E+03  0.79070985518E+02 0.  0.
          2    1    4    4  501    0 -0.44954827591E+02  0.31674561464E+02  0.43320347491E+02  0.70006191686E+02  0.00000000000E+00 0. -1.
         -1    1    4    4    0  501 -0.31017242223E+02 -0.49085079830E+02  0.59708309163E+02  0.83285632375E+02  0.00000000000E+00 0.  1.
          5    1    3    3  502    0  0.16143069566E+02  0.68995369622E+02  0.13439949126E+02  0.72275043804E+02  0.47000000000E+01 0. -1.
         13    1    6    6    0    0  0.22112529504E+02 -0.80132112583E+02  0.29310849684E+02  0.88143322704E+02  0.00000000000E+00 0. -1.
        -14    1    6    6    0    0 -0.20513351415E+02  0.60685887591E+01  0.25495201621E+02  0.33281085642E+02  0.00000000000E+00 0.  1.
         -5    1    5    5    0  503  0.58229822160E+02  0.22478672569E+02 -0.32090330331E+02  0.70341184309E+02  0.47000000000E+01 0.  1.
<mgrwt>
<rscale>  2 0.19247925E+03</rscale>
<asrwt>0</asrwt>
<pdfrwt beam="1">  1       21 0.42808983E-01 0.19317214E+03</pdfrwt>
<pdfrwt beam="2">  1       21 0.21396010E-01 0.19317214E+03</pdfrwt>
<totfact> 0.10674522E+05</totfact>
</mgrwt>
</event>
<event>
12    1  0.1441827E-001  0.1929128E+03  0.7546771E-02  0.1155932E+00
         21   -1    0    0  504  503  0.00000000000E+00  0.00000000000E+00  0.20400528757E+03  0.20400528757E+03  0.00000000000E+00 0. -1.
         21   -1    0    0  502  504 -0.00000000000E+00 -0.00000000000E+00 -0.19708344497E+03  0.19708344497E+03  0.00000000000E+00 0. -1.
          6    2    1    2  502    0  0.50209908654E+02  0.69542312271E+02 -0.51800909457E+02  0.19974654962E+03  0.17279520173E+03 0.  0.
         24    2    3    3    0    0  0.12043163137E+02  0.32259799976E+02  0.37812610045E+02  0.95346554105E+02  0.80470115126E+02 0.  0.
         -6    2    1    2    0  503 -0.50209908654E+02 -0.69542312271E+02  0.58722752054E+02  0.20134218292E+03  0.17243301567E+03 0.  0.
        -24    2    5    5    0    0 -0.49777423906E+02  0.14569721465E+02 -0.17750026210E+01  0.97625792786E+02  0.82689637007E+02 0.  0.
          2    1    4    4  501    0 -0.22243961030E+02  0.32061707936E+02 -0.62450275286E+01  0.39518948454E+02  0.00000000000E+00 0. -1.
         -1    1    4    4    0  501  0.34287124167E+02  0.19809203953E+00  0.44057637574E+02  0.55827605651E+02  0.00000000000E+00 0.  1.
          5    1    3    3  502    0  0.38166745517E+02  0.37282512296E+02 -0.89613519502E+02  0.10439999552E+03  0.47000000000E+01 0. -1.
         11    1    6    6    0    0 -0.26447541062E+02 -0.31782252670E+01  0.39108994182E+02  0.47318991642E+02  0.00000000000E+00 0. -1.
        -12    1    6    6    0    0 -0.23329882844E+02  0.17747946732E+02 -0.40883996803E+02  0.50306801144E+02  0.00000000000E+00 0.  1.
         -5    1    5    5    0  503 -0.43248474766E+00 -0.84112033736E+02  0.60497754675E+02  0.10371639014E+03  0.47000000000E+01 0.  1.
<mgrwt>
<rscale>  2 0.19283167E+03</rscale>
<asrwt>0</asrwt>
<pdfrwt beam="1">  1       21 0.31385429E-01 0.19291280E+03</pdfrwt>
<pdfrwt beam="2">  1       21 0.30320530E-01 0.19291280E+03</pdfrwt>
<totfact> 0.10183078E+05</totfact>
</mgrwt>
</event>
<event>
12    1  0.1441827E-001  0.1788728E+03  0.7546771E-02  0.1169672E+00
         21   -1    0    0  504  503  0.00000000000E+00  0.00000000000E+00  0.22315491604E+03  0.22315491604E+03  0.00000000000E+00 0.  1.
         21   -1    0    0  502  504 -0.00000000000E+00 -0.00000000000E+00 -0.16136008359E+03  0.16136008359E+03  0.00000000000E+00 0.  1.
          6    2    1    2  502    0  0.13663194712E+01 -0.32837385815E+02 -0.37847092937E+02  0.17976152359E+03  0.17263152141E+03 0.  0.
         24    2    3    3    0    0 -0.22975637436E+02  0.22449756745E+01  0.39160840123E+02  0.91582077525E+02  0.79503369069E+02 0.  0.
         -6    2    1    2    0  503 -0.13663194712E+01  0.32837385815E+02  0.99641925386E+02  0.20475347605E+03  0.17582750616E+03 0.  0.
        -24    2    5    5    0    0  0.56070394474E+02  0.64164025461E+01  0.10090598506E+03  0.14134423135E+03  0.81308760652E+02 0.  0.
          2    1    4    4  501    0 -0.32858418599E+02  0.35232398232E+02  0.25752606351E+02  0.54627779489E+02  0.00000000000E+00 0. -1.
         -1    1    4    4    0  501  0.98827811635E+01 -0.32987422557E+02  0.13408233772E+02  0.36954298037E+02  0.00000000000E+00 0.  1.
          5    1    3    3  502    0  0.24341956907E+02 -0.35082361489E+02 -0.77007933060E+02  0.88179446063E+02  0.47000000000E+01 0. -1.
         13    1    6    6    0    0  0.75636068025E+02  0.13572529772E+02  0.69224086930E+02  0.10342631465E+03  0.00000000000E+00 0. -1.
        -14    1    6    6    0    0 -0.19565673551E+02 -0.71561272254E+01  0.31681898126E+02  0.37917916705E+02  0.00000000000E+00 0.  1.
         -5    1    5    5    0  503 -0.57436713945E+02  0.26420983269E+02 -0.12640596709E+01  0.63409244693E+02  0.47000000000E+01 0.  1.
<mgrwt>
<rscale>  2 0.17808241E+03</rscale>
<asrwt>0</asrwt>
<pdfrwt beam="1">  1       21 0.34331525E-01 0.17887278E+03</pdfrwt>
<pdfrwt beam="2">  1       21 0.24824628E-01 0.17887278E+03</pdfrwt>
<totfact> 0.12611384E+05</totfact>
</mgrwt>
</event>
<event>
12    1  0.1441827E-001  0.1953553E+03  0.7546771E-02  0.1153779E+00
         21   -1    0    0  504  503  0.00000000000E+00  0.00000000000E+00  0.76522094170E+02  0.76522094170E+02  0.00000000000E+00 0. -1.
         21   -1    0    0  502  504 -0.00000000000E+00 -0.00000000000E+00 -0.64803742599E+03  0.64803742599E+03  0.00000000000E+00 0.  1.
          6    2    1    2  502    0  0.11981559649E+02 -0.88683004576E+02 -0.45990967884E+03  0.49957171070E+03  0.17333997914E+03 0.  0.
         24    2    3    3    0    0 -0.20647239660E+02 -0.52850888107E+02 -0.11582073099E+03  0.15205498715E+03  0.80540378136E+02 0.  0.
         -6    2    1    2    0  503 -0.11981559649E+02  0.88683004576E+02 -0.11160565298E+03  0.22498780946E+03  0.17365327396E+03 0.  0.
        -24    2    5    5    0    0 -0.77315077387E+01  0.12948634924E+03 -0.97664171241E+02  0.18140534980E+03  0.80889552715E+02 0.  0.
          2    1    4    4  501    0  0.81390137033E+01  0.10212876839E+02  0.39718385934E+01  0.13649977993E+02  0.00000000000E+00 0. -1.
         -1    1    4    4    0  501 -0.28786253363E+02 -0.63063764946E+02 -0.11979256958E+03  0.13840500915E+03  0.00000000000E+00 0.  1.
          5    1    3    3  502    0  0.32628799309E+02 -0.35832116470E+02 -0.34408894785E+03  0.34751672355E+03  0.47000000000E+01 0. -1.
         13    1    6    6    0    0  0.20863856198E+02  0.11814506137E+03 -0.64661601742E+02  0.13628895319E+03  0.00000000000E+00 0. -1.
        -14    1    6    6    0    0 -0.28595363937E+02  0.11341287873E+02 -0.33002569499E+02  0.45116396607E+02  0.00000000000E+00 0.  1.
         -5    1    5    5    0  503 -0.42500519098E+01 -0.40803344666E+02 -0.13941481737E+02  0.43582459663E+02  0.47000000000E+01 0.  1.
<mgrwt>
<rscale>  2 0.19528565E+03</rscale>
<asrwt>0</asrwt>
<pdfrwt beam="1">  1       21 0.11772629E-01 0.19535530E+03</pdfrwt>
<pdfrwt beam="2">  1       21 0.99698070E-01 0.19535530E+03</pdfrwt>
<totfact> 0.50142592E+04</totfact>
</mgrwt>
</event>
<event>
12    1  0.1441827E-001  0.2281612E+03  0.7546771E-02  0.1127944E+00
         21   -1    0    0  504  503  0.00000000000E+00  0.00000000000E+00  0.51993858664E+03  0.51993858664E+03  0.00000000000E+00 0.  1.
         21   -1    0    0  502  504 -0.00000000000E+00 -0.00000000000E+00 -0.24122862917E+03  0.24122862917E+03  0.00000000000E+00 0. -1.
          6    2    1    2  502    0 -0.18676916843E+02 -0.14692865736E+03  0.43043854378E+03  0.48716157377E+03  0.17352867606E+03 0.  0.
         24    2    3    3    0    0 -0.70717011781E+02 -0.10498689241E+03  0.36089712240E+03  0.39059355414E+03  0.79331256436E+02 0.  0.
         -6    2    1    2    0  503  0.18676916843E+02  0.14692865736E+03 -0.15172858631E+03  0.27400564204E+03  0.17355307658E+03 0.  0.
        -24    2    5    5    0    0 -0.52891798973E+02  0.11457548372E+03 -0.95950270882E+02  0.17755814648E+03  0.79970976182E+02 0.  0.
          2    1    4    4  501    0 -0.10067520426E+02 -0.84710402594E+02  0.19811040595E+03  0.21569640753E+03  0.00000000000E+00 0. -1.
         -1    1    4    4    0  501 -0.60649491355E+02 -0.20276489815E+02  0.16278671645E+03  0.17489714662E+03  0.00000000000E+00 0.  1.
          5    1    3    3  502    0  0.52040094938E+02 -0.41941764954E+02  0.69541421377E+02  0.96568019632E+02  0.47000000000E+01 0. -1.
         11    1    6    6    0    0 -0.82980496560E+01 -0.12340077524E+02 -0.90158103347E+01  0.17390226490E+02  0.00000000000E+00 0. -1.
        -12    1    6    6    0    0 -0.44593749317E+02  0.12691556124E+03 -0.86934460547E+02  0.16016791999E+03  0.00000000000E+00 0.  1.
         -5    1    5    5    0  503  0.71568715816E+02  0.32353173647E+02 -0.55778315425E+02  0.96447495563E+02  0.47000000000E+01 0.  1.
<mgrwt>
<rscale>  2 0.22815655E+03</rscale>
<asrwt>0</asrwt>
<pdfrwt beam="1">  1       21 0.79990551E-01 0.22816119E+03</pdfrwt>
<pdfrwt beam="2">  1       21 0.37112097E-01 0.22816119E+03</pdfrwt>
<totfact> 0.94078240E+03</totfact>
</mgrwt>
</event>
<event>
12    1  0.1441827E-001  0.2481784E+03  0.7546771E-02  0.1114589E+00
         21   -1    0    0  504  503  0.00000000000E+00  0.00000000000E+00  0.91423380242E+02  0.91423380242E+02  0.00000000000E+00 0. -1.
         21   -1    0    0  502  504 -0.00000000000E+00 -0.00000000000E+00 -0.69150239239E+03  0.69150239239E+03  0.00000000000E+00 0. -1.
          6    2    1    2  502    0  0.17536324199E+03 -0.10600792392E+02 -0.36607866805E+03  0.44182657423E+03  0.17416224348E+03 0.  0.
         24    2    3    3    0    0  0.10635933325E+02  0.11614322258E+02 -0.11906164215E+03  0.14405468398E+03  0.79549115554E+02 0.  0.
         -6    2    1    2    0  503 -0.17536324199E+03  0.10600792392E+02 -0.23400034410E+03  0.34109919840E+03  0.17529363557E+03 0.  0.
        -24    2    5    5    0    0 -0.16407724678E+03  0.25108061924E+02 -0.25455910418E+03  0.31312443882E+03  0.75464024417E+02 0.  0.
          2    1    4    4  501    0  0.44956038388E+01 -0.24658286335E+02 -0.99056720557E+02  0.10217864467E+03  0.00000000000E+00 0. -1.
         -1    1    4    4    0  501  0.61403294860E+01  0.36272608593E+02 -0.20004921593E+02  0.41876039310E+02  0.00000000000E+00 0.  1.
          5    1    3    3  502    0  0.16472730867E+03 -0.22215114651E+02 -0.24701702590E+03  0.29777189025E+03  0.47000000000E+01 0. -1.
         11    1    6    6    0    0 -0.19759038653E+02  0.14383023394E+02 -0.54644375149E+01  0.25042984003E+02  0.00000000000E+00 0. -1.
        -12    1    6    6    0    0 -0.14431820813E+03  0.10725038530E+02 -0.24909466667E+03  0.28808145482E+03  0.00000000000E+00 0.  1.
         -5    1    5    5    0  503 -0.11285995209E+02 -0.14507269531E+02  0.20558760085E+02  0.27974759577E+02  0.47000000000E+01 0.  1.
<mgrwt>
<rscale>  2 0.24797867E+03</rscale>
<asrwt>0</asrwt>
<pdfrwt beam="1">  1       21 0.14065135E-01 0.24817837E+03</pdfrwt>
<pdfrwt beam="2">  1       21 0.10638499E+00 0.24817837E+03</pdfrwt>
<totfact> 0.30315334E+04</totfact>
</mgrwt>
</event>
<event>
12    1  0.1441827E-001  0.1883176E+03  0.7546771E-02  0.1161130E+00
         21   -1    0    0  504  503  0.00000000000E+00  0.00000000000E+00  0.10127276662E+03  0.10127276662E+03  0.00000000000E+00 0.  1.
         21   -1    0    0  502  504 -0.00000000000E+00 -0.00000000000E+00 -0.34674790117E+03  0.34674790117E+03  0.00000000000E+00 0.  1.
          6    2    1    2  502    0  0.73340122433E+02  0.18285705012E+02 -0.92440160500E+02  0.20536203191E+03  0.16707854534E+03 0.  0.
         24    2    3    3    0    0  0.68669182638E+02 -0.21560916878E+02 -0.32788309597E+01  0.10747738736E+03  0.79751540925E+02 0.  0.
         -6    2    1    2    0  503 -0.73340122433E+02 -0.18285705012E+02 -0.15303497405E+03  0.24265863588E+03  0.17248295486E+03 0.  0.
        -24    2    5    5    0    0  0.16159033349E+02 -0.27492269892E+02 -0.31428050295E+02  0.91314017115E+02  0.79583843296E+02 0.  0.
          2    1    4    4  501    0 -0.13858738902E+02 -0.71815196564E+01 -0.16450131575E+02  0.22676986073E+02  0.00000000000E+00 0. -1.
         -1    1    4    4    0  501  0.82527921540E+02 -0.14379397222E+02  0.13171300615E+02  0.84800401285E+02  0.00000000000E+00 0.  1.
          5    1    3    3  502    0  0.46709397950E+01  0.39846621890E+02 -0.89161329540E+02  0.97884644557E+02  0.47000000000E+01 0. -1.
         13    1    6    6    0    0  0.98051277786E+01  0.27457483107E+02 -0.35523889658E+01  0.29371301924E+02  0.00000000000E+00 0. -1.
        -14    1    6    6    0    0  0.63539055708E+01 -0.54949752999E+02 -0.27875661329E+02  0.61942715191E+02  0.00000000000E+00 0.  1.
         -5    1    5    5    0  503 -0.89499155783E+02  0.92065648801E+01 -0.12160692376E+03  0.15134461876E+03  0.47000000000E+01 0.  1.
<mgrwt>
<rscale>  2 0.18707097E+03</rscale>
<asrwt>0</asrwt>
<pdfrwt beam="1">  1       21 0.15580426E-01 0.18831758E+03</pdfrwt>
<pdfrwt beam="2">  1       21 0.53345831E-01 0.18831758E+03</pdfrwt>
<totfact> 0.12196414E+05</totfact>
</mgrwt>
</event>
<event>
12    1  0.1441827E-001  0.2311608E+03  0.7546771E-02  0.1126751E+00
         21   -1    0    0  504  503  0.00000000000E+00  0.00000000000E+00  0.22530339389E+03  0.22530339389E+03  0.00000000000E+00 0.  1.
         21   -1    0    0  502  504 -0.00000000000E+00 -0.00000000000E+00 -0.23195515065E+03  0.23195515065E+03  0.00000000000E+00 0. -1.
          6    2    1    2  502    0  0.38277630934E+02  0.14293732809E+03  0.18352522156E+01  0.23116804807E+03  0.17759234641E+03 0.  0.
         24    2    3    3    0    0  0.30909706527E+01  0.16148816960E+03 -0.25092476597E+02  0.18290390650E+03  0.82074500381E+02 0.  0.
         -6    2    1    2    0  503 -0.38277630934E+02 -0.14293732809E+03 -0.84870089770E+01  0.22609049648E+03  0.17072968835E+03 0.  0.
        -24    2    5    5    0    0 -0.76592857174E+02 -0.43667350033E+02 -0.72554147327E+01  0.11957199137E+03  0.80445738536E+02 0.  0.
          2    1    4    4  501    0 -0.14329570382E+02  0.97172539576E+02 -0.51886083775E+02  0.11108557388E+03  0.00000000000E+00 0. -1.
         -1    1    4    4    0  501  0.17420541035E+02  0.64315630019E+02  0.26793607178E+02  0.71818332620E+02  0.00000000000E+00 0.  1.
          5    1    3    3  502    0  0.35186660282E+02 -0.18550841501E+02  0.26927728812E+02  0.48264141566E+02  0.47000000000E+01 0. -1.
         13    1    6    6    0    0 -0.32260691658E+02 -0.55747999187E+02 -0.26640436472E+02  0.69701538685E+02  0.00000000000E+00 0. -1.
        -14    1    6    6    0    0 -0.44332165517E+02  0.12080649154E+02  0.19385021739E+02  0.49870452687E+02  0.00000000000E+00 0.  1.
         -5    1    5    5    0  503  0.38315226240E+02 -0.99269978061E+02 -0.12315942443E+01  0.10651850511E+03  0.47000000000E+01 0.  1.
<mgrwt>
<rscale>  2 0.22984212E+03</rscale>
<asrwt>0</asrwt>
<pdfrwt beam="1">  1       21 0.34662061E-01 0.23116076E+03</pdfrwt>
<pdfrwt beam="2">  1       21 0.35685408E-01 0.23116076E+03</pdfrwt>
<totfact> 0.59719777E+04</totfact>
</mgrwt>
</event>
<event>
12    1  0.1441827E-001  0.1932557E+03  0.7546771E-02  0.1155808E+00
         21   -1    0    0  504  503  0.00000000000E+00  0.00000000000E+00  0.24452005534E+03  0.24452005534E+03  0.00000000000E+00 0. -1.
         21   -1    0    0  502  504 -0.00000000000E+00 -0.00000000000E+00 -0.43371545664E+03  0.43371545664E+03  0.00000000000E+00 0. -1.
          6    2    1    2  502    0 -0.79513069864E+02  0.28952631239E+02 -0.36788424725E+03  0.41502936086E+03  0.17248178995E+03 0.  0.
         24    2    3    3    0    0  0.92520166688E+01  0.24963975365E+02 -0.24927030664E+03  0.26675088343E+03  0.91167692507E+02 0.  0.
         -6    2    1    2    0  503  0.79513069864E+02 -0.28952631239E+02  0.17868884596E+03  0.26320615111E+03  0.17374461482E+03 0.  0.
        -24    2    5    5    0    0  0.10734556044E+03  0.13321323318E+02  0.15852768021E+03  0.20852253959E+03  0.81548127633E+02 0.  0.
          4    1    4    4  501    0 -0.10574893197E+02  0.11125398799E+02 -0.24056279148E+03  0.24105198507E+03  0.00000000000E+00 0. -1.
         -3    1    4    4    0  501  0.19826909866E+02  0.13838576565E+02 -0.87075151646E+01  0.25698898353E+02  0.00000000000E+00 0.  1.
          5    1    3    3  502    0 -0.88765086533E+02  0.39886558745E+01 -0.11861394061E+03  0.14827847743E+03  0.47000000000E+01 0. -1.
         13    1    6    6    0    0  0.61268886946E+02 -0.27619321484E+02  0.50194678448E+02  0.83882114729E+02  0.00000000000E+00 0. -1.
        -14    1    6    6    0    0  0.46076673494E+02  0.40940644802E+02  0.10833300177E+03  0.12464042486E+03  0.00000000000E+00 0.  1.
         -5    1    5    5    0  503 -0.27832490576E+02 -0.42273954557E+02  0.20161165744E+02  0.54683611528E+02  0.47000000000E+01 0.  1.
<mgrwt>
<rscale>  2 0.19297146E+03</rscale>
<asrwt>0</asrwt>
<pdfrwt beam="1">  1       21 0.37618470E-01 0.19325572E+03</pdfrwt>
<pdfrwt beam="2">  1       21 0.66725454E-01 0.19325572E+03</pdfrwt>
<totfact> 0.14023802E+04</totfact>
</mgrwt>
</event>
<event>
12    1  0.1441827E-001  0.3358790E+03  0.7546771E-02  0.1068633E+00
         21   -1    0    0  504  503  0.00000000000E+00  0.00000000000E+00  0.30981372821E+03  0.30981372821E+03  0.00000000000E+00 0.  1.
         21   -1    0    0  502  504 -0.00000000000E+00 -0.00000000000E+00 -0.76135024078E+03  0.76135024078E+03  0.00000000000E+00 0. -1.
          6    2    1    2  502    0  0.29274422418E+02  0.28621272739E+03 -0.61285055821E+03  0.69855570209E+03  0.17210329774E+03 0.  0.
         24    2    3    3    0    0  0.58673613664E+02  0.24335147118E+03 -0.58017941861E+03  0.63698547314E+03  0.80497228188E+02 0.  0.
         -6    2    1    2    0  503 -0.29274422418E+02 -0.28621272739E+03  0.16131404564E+03  0.37260826690E+03  0.17332046074E+03 0.  0.
        -24    2    5    5    0    0  0.47774789889E+02 -0.19753040998E+03  0.11437132844E+03  0.24601109775E+03  0.78357935339E+02 0.  0.
          4    1    4    4  501    0 -0.35293327419E+01  0.11126954905E+03 -0.31762763508E+03  0.33657195858E+03  0.00000000000E+00 0. -1.
         -3    1    4    4    0  501  0.62202946406E+02  0.13208192213E+03 -0.26255178352E+03  0.30041351455E+03  0.00000000000E+00 0.  1.
          5    1    3    3  502    0 -0.29399191247E+02  0.42861256215E+02 -0.32671139598E+02  0.61570228949E+02  0.47000000000E+01 0. -1.
         11    1    6    6    0    0 -0.21366551424E+02 -0.32920687098E+02  0.21933880649E+02  0.44959940826E+02  0.00000000000E+00 0. -1.
        -12    1    6    6    0    0  0.69141341313E+02 -0.16460972288E+03  0.92437447792E+02  0.20105115692E+03  0.00000000000E+00 0.  1.
         -5    1    5    5    0  503 -0.77049212307E+02 -0.88682317415E+02  0.46942717198E+02  0.12659716915E+03  0.47000000000E+01 0.  1.
<mgrwt>
<rscale>  2 0.33572227E+03</rscale>
<asrwt>0</asrwt>
<pdfrwt beam="1">  1       21 0.47663650E-01 0.33587899E+03</pdfrwt>
<pdfrwt beam="2">  1       21 0.11713081E+00 0.33587899E+03</pdfrwt>
<totfact> 0.21372220E+03</totfact>
</mgrwt>
</event>
<event>
12    1  0.1441827E-001  0.1842617E+03  0.7546771E-02  0.1164164E+00
         21   -1    0    0  504  503  0.00000000000E+00  0.00000000000E+00  0.22216685791E+03  0.22216685791E+03  0.00000000000E+00 0. -1.
         21   -1    0    0  502  504 -0.00000000000E+00 -0.00000000000E+00 -0.20695398005E+03  0.20695398005E+03  0.00000000000E+00 0. -1.
          6    2    1    2  502    0 -0.77265670919E+00 -0.62461879380E+02 -0.10359064372E+03  0.21138448130E+03  0.17335020650E+03 0.  0.
         24    2    3    3    0    0 -0.68671947616E+02 -0.38017479754E+02 -0.65529334963E+02  0.12966180634E+03  0.79730327512E+02 0.  0.
         -6    2    1    2    0  503  0.77265670919E+00  0.62461879380E+02  0.11880352158E+03  0.21773635666E+03  0.17144317105E+03 0.  0.
        -24    2    5    5    0    0  0.34321558392E+02  0.88330669876E+02  0.12394861428E+03  0.17480286036E+03  0.78819441742E+02 0.  0.
          2    1    4    4  501    0 -0.69167025846E+02 -0.15069212669E+02 -0.76494455968E+02  0.10422360783E+03  0.00000000000E+00 0. -1.
         -1    1    4    4    0  501  0.49507822961E+00 -0.22948267085E+02  0.10965121005E+02  0.25438198508E+02  0.00000000000E+00 0.  1.
          5    1    3    3  502    0  0.67899290907E+02 -0.24444399626E+02 -0.38061308752E+02  0.81722674960E+02  0.47000000000E+01 0. -1.
         13    1    6    6    0    0 -0.25051499764E+02  0.34290786882E+02  0.35490582854E+02  0.55344531588E+02  0.00000000000E+00 0. -1.
        -14    1    6    6    0    0  0.59373058156E+02  0.54039882994E+02  0.88458031425E+02  0.11945832877E+03  0.00000000000E+00 0.  1.
         -5    1    5    5    0  503 -0.33548901683E+02 -0.25868790496E+02 -0.51450927025E+01  0.42933496303E+02  0.47000000000E+01 0.  1.
<mgrwt>
<rscale>  2 0.18381182E+03</rscale>
<asrwt>0</asrwt>
<pdfrwt beam="1">  1       21 0.34179516E-01 0.18426171E+03</pdfrwt>
<pdfrwt beam="2">  1       21 0.31839074E-01 0.18426171E+03</pdfrwt>
<totfact> 0.78507051E+04</totfact>
</mgrwt>
</event>
<event>
12    1  0.1441827E-001  0.1894957E+03  0.7546771E-02  0.1158951E+00
         21   -1    0    0  504  503  0.00000000000E+00  0.00000000000E+00  0.43233180854E+02  0.43233180854E+02  0.00000000000E+00 0.  1.
         21   -1    0    0  502  504 -0.00000000000E+00 -0.00000000000E+00 -0.88936079505E+03  0.88936079505E+03  0.00000000000E+00 0.  1.
          6    2    1    2  502    0 -0.72320522591E+02  0.25160385808E+02 -0.54345274099E+03  0.57549359022E+03  0.17317242186E+03 0.  0.
         24    2    3    3    0    0 -0.81398813395E+02  0.10378590061E+02 -0.54522168439E+03  0.55743435408E+03  0.82054201731E+02 0.  0.
         -6    2    1    2    0  503  0.72320522591E+02 -0.25160385808E+02 -0.30267487320E+03  0.35710038568E+03  0.17333581160E+03 0.  0.
        -24    2    5    5    0    0  0.46389111329E+02 -0.56538338071E+02 -0.93903514699E+02  0.14434563460E+03  0.81665530256E+02 0.  0.
          4    1    4    4  501    0 -0.73812646115E+02 -0.23831044092E+02 -0.43221775824E+03  0.43912232456E+03  0.00000000000E+00 0. -1.
         -3    1    4    4    0  501 -0.75861672797E+01  0.34209634154E+02 -0.11300392615E+03  0.11831202951E+03  0.00000000000E+00 0.  1.
          5    1    3    3  502    0  0.90782908040E+01  0.14781795747E+02  0.17689433977E+01  0.18059236146E+02  0.47000000000E+01 0. -1.
         11    1    6    6    0    0 -0.15271664746E+02  0.95061223664E+01 -0.24589620348E+02  0.30467023737E+02  0.00000000000E+00 0. -1.
        -12    1    6    6    0    0  0.61660776075E+02 -0.66044460438E+02 -0.69313894352E+02  0.11387861086E+03  0.00000000000E+00 0.  1.
         -5    1    5    5    0  503  0.25931411262E+02  0.31377952263E+02 -0.20877135851E+03  0.21275475109E+03  0.47000000000E+01 0.  1.
<mgrwt>
<rscale>  2 0.18945829E+03</rscale>
<asrwt>0</asrwt>
<pdfrwt beam="1">  1       21 0.66512590E-02 0.18949566E+03</pdfrwt>
<pdfrwt beam="2">  1       21 0.13682473E+00 0.18949566E+03</pdfrwt>
<totfact> 0.62815987E+04</totfact>
</mgrwt>
</event>
<event>
12    1  0.1441827E-001  0.2061175E+03  0.7546771E-02  0.1144841E+00
         21   -1    0    0  504  503  0.00000000000E+00  0.00000000000E+00  0.39362923558E+03  0.39362923558E+03  0.00000000000E+00 0.  1.
         21   -1    0    0  502  504 -0.00000000000E+00 -0.00000000000E+00 -0.12611540609E+03  0.12611540609E+03  0.00000000000E+00 0.  1.
          6    2    1    2  502    0  0.75265176743E+02  0.83747935233E+02  0.33716779466E+02  0.20806294080E+03  0.17168227232E+03 0.  0.
         24    2    3    3    0    0  0.59806655516E+02  0.80740239371E+01 -0.33160318861E+02  0.10578810024E+03  0.80308713722E+02 0.  0.
         -6    2    1    2    0  503 -0.75265176743E+02 -0.83747935233E+02  0.23379705002E+03  0.31168170088E+03  0.17264373309E+03 0.  0.
        -24    2    5    5    0    0 -0.54547584438E+02 -0.28720054715E+01  0.19700046253E+03  0.22032408764E+03  0.82157373213E+02 0.  0.
          2    1    4    4  501    0  0.70555670966E+02  0.28033237480E+02 -0.16601042374E+02  0.77714604270E+02  0.00000000000E+00 0. -1.
         -1    1    4    4    0  501 -0.10749015450E+02 -0.19959213543E+02 -0.16559276487E+02  0.28073495973E+02  0.00000000000E+00 0.  1.
          5    1    3    3  502    0  0.15458521228E+02  0.75673911296E+02  0.66877098327E+02  0.10227484055E+03  0.47000000000E+01 0. -1.
         11    1    6    6    0    0 -0.33978729537E+02  0.30408796100E+02  0.47726206017E+02  0.66007875908E+02  0.00000000000E+00 0. -1.
        -12    1    6    6    0    0 -0.20568854901E+02 -0.33280801572E+02  0.14927425651E+03  0.15431621173E+03  0.00000000000E+00 0.  1.
         -5    1    5    5    0  503 -0.20717592306E+02 -0.80875929762E+02  0.36796587497E+02  0.91357613242E+02  0.47000000000E+01 0.  1.
<mgrwt>
<rscale>  2 0.20591604E+03</rscale>
<asrwt>0</asrwt>
<pdfrwt beam="1">  1       21 0.60558343E-01 0.20611750E+03</pdfrwt>
<pdfrwt beam="2">  1       21 0.19402370E-01 0.20611750E+03</pdfrwt>
<totfact> 0.61660564E+04</totfact>
</mgrwt>
</event>
<event>
12    1  0.1441827E-001  0.2924186E+03  0.7546771E-02  0.1089414E+00
         21   -1    0    0  504  503  0.00000000000E+00  0.00000000000E+00  0.17789091590E+04  0.17789091590E+04  0.00000000000E+00 0. -1.
         21   -1    0    0  502  504 -0.00000000000E+00 -0.00000000000E+00 -0.36983735193E+03  0.36983735193E+03  0.00000000000E+00 0. -1.
          6    2    1    2  502    0 -0.22809605588E+03  0.45912987995E+02 -0.29860503139E+03  0.41621402394E+03  0.17301253070E+03 0.  0.
         24    2    3    3    0    0 -0.15381445512E+03 -0.28620386508E+02 -0.13006907575E+03  0.21746936749E+03  0.76791589379E+02 0.  0.
         -6    2    1    2    0  503  0.22809605588E+03 -0.45912987995E+02  0.17076768385E+04  0.17325324870E+04  0.17712374403E+03 0.  0.
        -24    2    5    5    0    0  0.12785835170E+03 -0.89671706006E+02  0.86172723220E+03  0.87952882401E+03  0.81291798980E+02 0.  0.
          4    1    4    4  501    0 -0.15231398320E+03 -0.10040641156E+02 -0.10133537596E+03  0.18321905571E+03  0.00000000000E+00 0. -1.
         -3    1    4    4    0  501 -0.15004719226E+01 -0.18579745352E+02 -0.28733699788E+02  0.34250311778E+02  0.00000000000E+00 0.  1.
          5    1    3    3  502    0 -0.74281600754E+02  0.74533374503E+02 -0.16853595564E+03  0.19874465645E+03  0.47000000000E+01 0. -1.
         13    1    6    6    0    0  0.13105906356E+03 -0.93234927186E+02  0.85917796629E+03  0.87410297308E+03  0.00000000000E+00 0. -1.
        -14    1    6    6    0    0 -0.32007118575E+01  0.35632211796E+01  0.25492659087E+01  0.54258509234E+01  0.00000000000E+00 0.  1.
         -5    1    5    5    0  503  0.10023770418E+03  0.43758718012E+02  0.84594960629E+03  0.85300366302E+03  0.47000000000E+01 0.  1.
<mgrwt>
<rscale>  2 0.29179868E+03</rscale>
<asrwt>0</asrwt>
<pdfrwt beam="1">  1       21 0.27367833E+00 0.29241859E+03</pdfrwt>
<pdfrwt beam="2">  1       21 0.56898055E-01 0.29241859E+03</pdfrwt>
<totfact> 0.12407764E+02</totfact>
</mgrwt>
</event>
<event>
12    1  0.1441827E-001  0.1790520E+03  0.7546771E-02  0.1169501E+00
         21   -1    0    0  504  503  0.00000000000E+00  0.00000000000E+00  0.31303558813E+02  0.31303558813E+02  0.00000000000E+00 0.  1.
         21   -1    0    0  502  504 -0.00000000000E+00 -0.00000000000E+00 -0.10436167145E+04  0.10436167145E+04  0.00000000000E+00 0.  1.
          6    2    1    2  502    0 -0.16190211605E+02 -0.42056576661E+02 -0.60364323465E+03  0.62874685370E+03  0.17001933038E+03 0.  0.
         24    2    3    3    0    0 -0.62042709200E+02 -0.48532938276E+02 -0.29726309960E+03  0.31885127137E+03  0.84237990274E+02 0.  0.
         -6    2    1    2    0  503  0.16190211605E+02  0.42056576661E+02 -0.40866992107E+03  0.44617341964E+03  0.17328801869E+03 0.  0.
        -24    2    5    5    0    0 -0.69367470986E+01 -0.38038797819E+02 -0.26758594804E+03  0.28223165353E+03  0.80977762784E+02 0.  0.
          4    1    4    4  501    0  0.11396036255E+00 -0.52401022272E+02 -0.11912316344E+03  0.13013918776E+03  0.00000000000E+00 0. -1.
         -3    1    4    4    0  501 -0.62156669562E+02  0.38680839963E+01 -0.17813993616E+03  0.18871208361E+03  0.00000000000E+00 0.  1.
          5    1    3    3  502    0  0.45852497595E+02  0.64763616148E+01 -0.30638013505E+03  0.30989558233E+03  0.47000000000E+01 0. -1.
         13    1    6    6    0    0 -0.10057739228E+02 -0.17237048845E+02 -0.25858204814E+03  0.25935101618E+03  0.00000000000E+00 0. -1.
        -14    1    6    6    0    0  0.31209921295E+01 -0.20801748974E+02 -0.90038998993E+01  0.22880637352E+02  0.00000000000E+00 0.  1.
         -5    1    5    5    0  503  0.23126958704E+02  0.80095374480E+02 -0.14108397302E+03  0.16394176611E+03  0.47000000000E+01 0.  1.
<mgrwt>
<rscale>  2 0.17825632E+03</rscale>
<asrwt>0</asrwt>
<pdfrwt beam="1">  1       21 0.48159322E-02 0.17905199E+03</pdfrwt>
<pdfrwt beam="2">  1       21 0.16055641E+00 0.17905199E+03</pdfrwt>
<totfact> 0.71994839E+04</totfact>
</mgrwt>
</event>
<event>
12    1  0.1441827E-001  0.2407868E+03  0.7546771E-02  0.1119536E+00
         21   -1    0    0  504  503  0.00000000000E+00  0.00000000000E+00  0.15949030597E+04  0.15949030597E+04  0.00000000000E+00 0. -1.
         21   -1    0    0  502  504 -0.00000000000E+00 -0.00000000000E+00 -0.49303418097E+02  0.49303418097E+02  0.00000000000E+00 0.  1.
          6    2    1    2  502    0  0.16452095711E+03 -0.26865134187E+02  0.11961670597E+04  0.12198464701E+04  0.17152520227E+03 0.  0.
         24    2    3    3    0    0  0.60505974153E+02  0.26756118724E+02  0.33763643915E+03  0.35336434567E+03  0.80567567619E+02 0.  0.
         -6    2    1    2    0  503 -0.16452095711E+03  0.26865134187E+02  0.34943258182E+03  0.42436000766E+03  0.17375098879E+03 0.  0.
        -24    2    5    5    0    0 -0.15265922821E+02 -0.17386455728E+02  0.14801901932E+03  0.16975289537E+03  0.79819033848E+02 0.  0.
          2    1    4    4  501    0  0.17580637862E+02  0.49223211893E+02  0.22036065169E+03  0.22647476731E+03  0.00000000000E+00 0. -1.
         -1    1    4    4    0  501  0.42925336291E+02 -0.22467093169E+02  0.11727578746E+03  0.12688957836E+03  0.00000000000E+00 0.  1.
          5    1    3    3  502    0  0.10401498296E+03 -0.53621252911E+02  0.85853062060E+03  0.86648212443E+03  0.47000000000E+01 0. -1.
         13    1    6    6    0    0 -0.19211016809E+01  0.59554968639E+01  0.14207958145E+03  0.14221731976E+03  0.00000000000E+00 0. -1.
        -14    1    6    6    0    0 -0.13344821140E+02 -0.23341952592E+02  0.59394378684E+01  0.27535575611E+02  0.00000000000E+00 0.  1.
         -5    1    5    5    0  503 -0.14925503429E+03  0.44251589915E+02  0.20141356250E+03  0.25460711229E+03  0.47000000000E+01 0.  1.
<mgrwt>
<rscale>  2 0.24038552E+03</rscale>
<asrwt>0</asrwt>
<pdfrwt beam="1">  1       21 0.24536966E+00 0.24078681E+03</pdfrwt>
<pdfrwt beam="2">  1       21 0.75851425E-02 0.24078681E+03</pdfrwt>
<totfact> 0.89375138E+03</totfact>
</mgrwt>
</event>
<event>
12    1  0.1441827E-001  0.1818100E+03  0.7546771E-02  0.1166496E+00
         21   -1    0    0  504  503  0.00000000000E+00  0.00000000000E+00  0.61623039869E+03  0.61623039869E+03  0.00000000000E+00 0. -1.
         21   -1    0    0  502  504 -0.00000000000E+00 -0.00000000000E+00 -0.12062216421E+03  0.12062216421E+03  0.00000000000E+00 0. -1.
          6    2    1    2  502    0  0.35240585872E+02  0.38979571989E+02 -0.28368942077E+02  0.18222931566E+03  0.17216683968E+03 0.  0.
         24    2    3    3    0    0  0.19237947507E+02  0.66153843373E+02 -0.66224227026E+02  0.13273549727E+03  0.92122930768E+02 0.  0.
         -6    2    1    2    0  503 -0.35240585872E+02 -0.38979571989E+02  0.52397717655E+03  0.55462324724E+03  0.17405044933E+03 0.  0.
        -24    2    5    5    0    0  0.47095541011E+02 -0.18164212140E+02  0.28268858958E+03  0.29878191126E+03  0.82521895463E+02 0.  0.
          2    1    4    4  501    0  0.59614874824E+00  0.69283420801E+02 -0.82539805789E+02  0.10776533455E+03  0.00000000000E+00 0. -1.
         -1    1    4    4    0  501  0.18641798759E+02 -0.31295774288E+01  0.16315578763E+02  0.24970162719E+02  0.00000000000E+00 0.  1.
          5    1    3    3  502    0  0.16002638365E+02 -0.27174271384E+02  0.37855284949E+02  0.49493818386E+02  0.47000000000E+01 0. -1.
         13    1    6    6    0    0 -0.87668241319E+01 -0.32038325765E+01  0.18517030231E+03  0.18540540069E+03  0.00000000000E+00 0. -1.
        -14    1    6    6    0    0  0.55862365143E+02 -0.14960379563E+02  0.97518287273E+02  0.11337651057E+03  0.00000000000E+00 0.  1.
         -5    1    5    5    0  503 -0.82336126883E+02 -0.20815359849E+02  0.24128858697E+03  0.25584133599E+03  0.47000000000E+01 0.  1.
<mgrwt>
<rscale>  2 0.18135769E+03</rscale>
<asrwt>0</asrwt>
<pdfrwt beam="1">  1       21 0.94804675E-01 0.18180997E+03</pdfrwt>
<pdfrwt beam="2">  1       21 0.18557256E-01 0.18180997E+03</pdfrwt>
<totfact> 0.24856153E+04</totfact>
</mgrwt>
</event>
<event>
12    1  0.1441827E-001  0.2152472E+03  0.7546771E-02  0.1137631E+00
         21   -1    0    0  504  503  0.00000000000E+00  0.00000000000E+00  0.15492979623E+03  0.15492979623E+03  0.00000000000E+00 0. -1.
         21   -1    0    0  502  504 -0.00000000000E+00 -0.00000000000E+00 -0.32291019456E+03  0.32291019456E+03  0.00000000000E+00 0. -1.
          6    2    1    2  502    0 -0.22726667698E+02 -0.12547265289E+03 -0.15058650488E+03  0.26269306376E+03  0.17341125179E+03 0.  0.
         24    2    3    3    0    0  0.61420975620E+01 -0.11043711683E+01 -0.24828087181E+02  0.83421915137E+02  0.79396706568E+02 0.  0.
         -6    2    1    2    0  503  0.22726667698E+02  0.12547265289E+03 -0.17393893450E+02  0.21514692703E+03  0.17241161397E+03 0.  0.
        -24    2    5    5    0    0 -0.20411890644E+02  0.10772866816E+03 -0.62634404036E+02  0.14999650103E+03  0.80955361333E+02 0.  0.
          4    1    4    4  501    0 -0.44178233349E+01 -0.74546933628E+01 -0.52457953308E+02  0.53168848787E+02  0.00000000000E+00 0. -1.
         -3    1    4    4    0  501  0.10559920897E+02  0.63503221945E+01  0.27629866127E+02  0.30253066349E+02  0.00000000000E+00 0.  1.
          5    1    3    3  502    0 -0.28868765260E+02 -0.12436828172E+03 -0.12575841770E+03  0.17927114862E+03  0.47000000000E+01 0. -1.
         13    1    6    6    0    0 -0.31707742019E+02  0.11649493865E+03 -0.61907299746E+02  0.13567964253E+03  0.00000000000E+00 0. -1.
        -14    1    6    6    0    0  0.11295851374E+02 -0.87662704915E+01 -0.72710429043E+00  0.14316858498E+02  0.00000000000E+00 0.  1.
         -5    1    5    5    0  503  0.43138558342E+02  0.17743984731E+02  0.45240510587E+02  0.65150426001E+02  0.47000000000E+01 0.  1.
<mgrwt>
<rscale>  2 0.21504577E+03</rscale>
<asrwt>0</asrwt>
<pdfrwt beam="1">  1       21 0.23835354E-01 0.21524718E+03</pdfrwt>
<pdfrwt beam="2">  1       21 0.49678491E-01 0.21524718E+03</pdfrwt>
<totfact> 0.63410607E+04</totfact>
</mgrwt>
</event>
<event>
12    1  0.1441827E-001  0.2088867E+03  0.7546771E-02  0.1142794E+00
         21   -1    0    0  504  503  0.00000000000E+00  0.00000000000E+00  0.49712038961E+03  0.49712038961E+03  0.00000000000E+00 0. -1.
         21   -1    0    0  502  504 -0.00000000000E+00 -0.00000000000E+00 -0.10521426649E+03  0.10521426649E+03  0.00000000000E+00 0. -1.
          6    2    1    2  502    0 -0.11509131186E+03  0.37356740716E+01  0.71501559598E+02  0.22078521016E+03  0.17428043687E+03 0.  0.
         24    2    3    3    0    0 -0.45342710730E+02  0.68184829787E+02  0.21319087260E+02  0.11327273851E+03  0.75306556005E+02 0.  0.
         -6    2    1    2    0  503  0.11509131186E+03 -0.37356740716E+01  0.32040456353E+03  0.38154944594E+03  0.17222348863E+03 0.  0.
        -24    2    5    5    0    0  0.95936258615E+02 -0.55620946751E+02  0.15436828525E+03  0.20648050726E+03  0.80667074765E+02 0.  0.
          2    1    4    4  501    0 -0.29593358395E+02  0.12511882039E+02 -0.23731923990E+02  0.39943939083E+02  0.00000000000E+00 0. -1.
         -1    1    4    4    0  501 -0.15749352335E+02  0.55672947749E+02  0.45051011250E+02  0.73328799422E+02  0.00000000000E+00 0.  1.
          5    1    3    3  502    0 -0.69748601128E+02 -0.64449155716E+02  0.50182472338E+02  0.10751247166E+03  0.47000000000E+01 0. -1.
         11    1    6    6    0    0  0.92349030273E+02 -0.33571363419E+02  0.15568632742E+03  0.18410217918E+03  0.00000000000E+00 0. -1.
        -12    1    6    6    0    0  0.35872283419E+01 -0.22049583331E+02 -0.13180421684E+01  0.22378328075E+02  0.00000000000E+00 0.  1.
         -5    1    5    5    0  503  0.19155053244E+02  0.51885272679E+02  0.16603627828E+03  0.17506893868E+03  0.47000000000E+01 0.  1.
<mgrwt>
<rscale>  2 0.20845707E+03</rscale>
<asrwt>0</asrwt>
<pdfrwt beam="1">  1       21 0.76480058E-01 0.20888666E+03</pdfrwt>
<pdfrwt beam="2">  1       21 0.16186811E-01 0.20888666E+03</pdfrwt>
<totfact> 0.51538436E+04</totfact>
</mgrwt>
</event>
<event>
12    1  0.1441827E-001  0.1904132E+03  0.7546771E-02  0.1158507E+00
         21   -1    0    0  504  503  0.00000000000E+00  0.00000000000E+00  0.34806792054E+03  0.34806792054E+03  0.00000000000E+00 0.  1.
         21   -1    0    0  502  504 -0.00000000000E+00 -0.00000000000E+00 -0.13413322461E+03  0.13413322461E+03  0.00000000000E+00 0.  1.
          6    2    1    2  502    0  0.79824252175E+02  0.14281623691E+02 -0.92943766797E+01  0.18879290542E+03  0.17023659915E+03 0.  0.
         24    2    3    3    0    0  0.11724746728E+03  0.89003010282E+01  0.14454704533E+02  0.14389786649E+03  0.81679088846E+02 0.  0.
         -6    2    1    2    0  503 -0.79824252175E+02 -0.14281623691E+02  0.22322907261E+03  0.29340823972E+03  0.17228261744E+03 0.  0.
        -24    2    5    5    0    0  0.23985026586E+02 -0.11513011577E+02  0.76441024391E+02  0.11353925221E+03  0.79624748958E+02 0.  0.
          4    1    4    4  501    0  0.62845120324E+02  0.43904239189E+02  0.19210701472E+02  0.79032540250E+02  0.00000000000E+00 0. -1.
         -3    1    4    4    0  501  0.54402346957E+02 -0.35003938161E+02 -0.47559969390E+01  0.64865326239E+02  0.00000000000E+00 0.  1.
          5    1    3    3  502    0 -0.37423215105E+02  0.53813226626E+01 -0.23749081213E+02  0.44895038934E+02  0.47000000000E+01 0. -1.
         13    1    6    6    0    0 -0.19244372693E+02 -0.18302137950E+02  0.62016676510E+02  0.67463933321E+02  0.00000000000E+00 0. -1.
        -14    1    6    6    0    0  0.43229399279E+02  0.67891263724E+01  0.14424347881E+02  0.46075318889E+02  0.00000000000E+00 0.  1.
         -5    1    5    5    0  503 -0.10380927876E+03 -0.27686121136E+01  0.14678804822E+03  0.17986898751E+03  0.47000000000E+01 0.  1.
<mgrwt>
<rscale>  2 0.18994918E+03</rscale>
<asrwt>0</asrwt>
<pdfrwt beam="1">  1       21 0.53548911E-01 0.19041317E+03</pdfrwt>
<pdfrwt beam="2">  1       21 0.20635881E-01 0.19041317E+03</pdfrwt>
<totfact> 0.71919360E+04</totfact>
</mgrwt>
</event>
<event>
12    1  0.1441827E-001  0.1826706E+03  0.7546771E-02  0.1165561E+00
         21   -1    0    0  504  503  0.00000000000E+00  0.00000000000E+00  0.30397070786E+03  0.30397070786E+03  0.00000000000E+00 0. -1.
         21   -1    0    0  502  504 -0.00000000000E+00 -0.00000000000E+00 -0.11188179262E+03  0.11188179262E+03  0.00000000000E+00 0. -1.
          6    2    1    2  502    0  0.53563287962E+02 -0.77948706487E+01  0.12989876333E+03  0.22414776368E+03  0.17446703248E+03 0.  0.
         24    2    3    3    0    0 -0.13953154946E+02  0.48033178261E+02  0.64583243170E+02  0.11477021442E+03  0.80618422666E+02 0.  0.
         -6    2    1    2    0  503 -0.53563287962E+02  0.77948706487E+01  0.62190151912E+02  0.19170473680E+03  0.17307023225E+03 0.  0.
        -24    2    5    5    0    0 -0.93266599871E+02  0.43134181653E+02  0.36453176199E+02  0.13246200056E+03  0.75220550767E+02 0.  0.
          2    1    4    4  501    0  0.23443142464E+02  0.52131172830E+02  0.41444552288E+02  0.70603760690E+02  0.00000000000E+00 0. -1.
         -1    1    4    4    0  501 -0.37396297411E+02 -0.40979945682E+01  0.23138690881E+02  0.44166453731E+02  0.00000000000E+00 0.  1.
          5    1    3    3  502    0  0.67516442908E+02 -0.55828048910E+02  0.65315520157E+02  0.10937754926E+03  0.47000000000E+01 0. -1.
         11    1    6    6    0    0 -0.65889618411E+02  0.64363105033E+02  0.32119793608E+02  0.97548614779E+02  0.00000000000E+00 0. -1.
        -12    1    6    6    0    0 -0.27376981460E+02 -0.21228923380E+02  0.43333825905E+01  0.34913385777E+02  0.00000000000E+00 0.  1.
         -5    1    5    5    0  503  0.39703311909E+02 -0.35339311004E+02  0.25736975713E+02  0.59242736244E+02  0.47000000000E+01 0.  1.
<mgrwt>
<rscale>  2 0.18233624E+03</rscale>
<asrwt>0</asrwt>
<pdfrwt beam="1">  1       21 0.46764724E-01 0.18267055E+03</pdfrwt>
<pdfrwt beam="2">  1       21 0.17212584E-01 0.18267055E+03</pdfrwt>
<totfact> 0.13393610E+05</totfact>
</mgrwt>
</event>
<event>
12    1  0.1441827E-001  0.2116769E+03  0.7546771E-02  0.1140473E+00
         21   -1    0    0  504  503  0.00000000000E+00  0.00000000000E+00  0.20928692699E+03  0.20928692699E+03  0.00000000000E+00 0. -1.
         21   -1    0    0  502  504 -0.00000000000E+00 -0.00000000000E+00 -0.22423587580E+03  0.22423587580E+03  0.00000000000E+00 0. -1.
          6    2    1    2  502    0  0.11268740711E+03  0.43883048513E+02 -0.56144124482E+02  0.21787460846E+03  0.17231659417E+03 0.  0.
         24    2    3    3    0    0  0.77603168449E+02 -0.80394198871E+01  0.25168370350E+02  0.11510954463E+03  0.80807650464E+02 0.  0.
         -6    2    1    2    0  503 -0.11268740711E+03 -0.43883048513E+02  0.41195175674E+02  0.21564819433E+03  0.17373234457E+03 0.  0.
        -24    2    5    5    0    0 -0.10670514957E+03 -0.30627408014E+02 -0.28792871227E+02  0.14401080102E+03  0.87097958131E+02 0.  0.
          4    1    4    4  501    0  0.60852649086E+02  0.28834757539E+02  0.31106410383E+02  0.74176120888E+02  0.00000000000E+00 0. -1.
         -3    1    4    4    0  501  0.16750519363E+02 -0.36874177427E+02 -0.59380400338E+01  0.40933423742E+02  0.00000000000E+00 0.  1.
          5    1    3    3  502    0  0.35084238663E+02  0.51922468400E+02 -0.81312494832E+02  0.10276506383E+03  0.47000000000E+01 0. -1.
         13    1    6    6    0    0 -0.77027008697E+02  0.19675512280E+01  0.18621319335E+02  0.79270327742E+02  0.00000000000E+00 0. -1.
        -14    1    6    6    0    0 -0.29678140876E+02 -0.32594959242E+02 -0.47414190562E+02  0.64740473280E+02  0.00000000000E+00 0.  1.
         -5    1    5    5    0  503 -0.59822575385E+01 -0.13255640499E+02  0.69988046901E+02  0.71637393304E+02  0.47000000000E+01 0.  1.
<mgrwt>
<rscale>  2 0.21138618E+03</rscale>
<asrwt>0</asrwt>
<pdfrwt beam="1">  1       21 0.32197989E-01 0.21167688E+03</pdfrwt>
<pdfrwt beam="2">  1       21 0.34497827E-01 0.21167688E+03</pdfrwt>
<totfact> 0.74527844E+04</totfact>
</mgrwt>
</event>
<event>
12    1  0.1441827E-001  0.2172906E+03  0.7546771E-02  0.1136074E+00
         21   -1    0    0  504  503  0.00000000000E+00  0.00000000000E+00  0.19596077931E+03  0.19596077931E+03  0.00000000000E+00 0.  1.
         21   -1    0    0  502  504 -0.00000000000E+00 -0.00000000000E+00 -0.35016661086E+03  0.35016661086E+03  0.00000000000E+00 0.  1.
          6    2    1    2  502    0 -0.95129615783E+02  0.84954730003E+02 -0.23033717594E+03  0.31665507367E+03  0.17592120710E+03 0.  0.
         24    2    3    3    0    0 -0.27579535353E+02  0.28321820385E+02 -0.20690072004E+03  0.22532239998E+03  0.79996998065E+02 0.  0.
         -6    2    1    2    0  503  0.95129615783E+02 -0.84954730003E+02  0.76131344392E+02  0.22947231650E+03  0.17491315701E+03 0.  0.
        -24    2    5    5    0    0 -0.38513688445E+01 -0.78392576787E+02  0.64676306457E+02  0.12950429628E+03  0.80175488784E+02 0.  0.
          2    1    4    4  501    0  0.20421039332E+02 -0.13481790957E+02 -0.74501421392E+02  0.78417085665E+02  0.00000000000E+00 0. -1.
         -1    1    4    4    0  501 -0.48000574685E+02  0.41803611342E+02 -0.13239929865E+03  0.14690531431E+03  0.00000000000E+00 0.  1.
          5    1    3    3  502    0 -0.67550080430E+02  0.56632909618E+02 -0.23436455905E+02  0.91332673689E+02  0.47000000000E+01 0. -1.
         13    1    6    6    0    0  0.84638471214E+01  0.15628142633E+01  0.45576282172E+02  0.46381856293E+02  0.00000000000E+00 0. -1.
        -14    1    6    6    0    0 -0.12315215966E+02 -0.79955391051E+02  0.19100024285E+02  0.83122439991E+02  0.00000000000E+00 0.  1.
         -5    1    5    5    0  503  0.98980984628E+02 -0.65621532153E+01  0.11455037935E+02  0.99968020220E+02  0.47000000000E+01 0.  1.
<mgrwt>
<rscale>  2 0.21708652E+03</rscale>
<asrwt>0</asrwt>
<pdfrwt beam="1">  1       21 0.30147813E-01 0.21729064E+03</pdfrwt>
<pdfrwt beam="2">  1       21 0.53871786E-01 0.21729064E+03</pdfrwt>
<totfact> 0.33954293E+04</totfact>
</mgrwt>
</event>
<event>
12    1  0.1441827E-001  0.1826593E+03  0.7546771E-02  0.1166328E+00
         21   -1    0    0  504  503  0.00000000000E+00  0.00000000000E+00  0.35167748535E+03  0.35167748535E+03  0.00000000000E+00 0. -1.
         21   -1    0    0  502  504 -0.00000000000E+00 -0.00000000000E+00 -0.10854812153E+03  0.10854812153E+03  0.00000000000E+00 0. -1.
          6    2    1    2  502    0  0.33783366142E+02  0.27465587858E+02  0.34557343486E+02  0.18589950764E+03  0.17739431391E+03 0.  0.
         24    2    3    3    0    0  0.22913673245E+01  0.54368342244E+02  0.77084704581E+02  0.12634977527E+03  0.84030036467E+02 0.  0.
         -6    2    1    2    0  503 -0.33783366142E+02 -0.27465587858E+02  0.20857202034E+03  0.27432609924E+03  0.17279133865E+03 0.  0.
        -24    2    5    5    0    0 -0.22925123023E+02 -0.16532895248E+02  0.26134999429E+02  0.91179213354E+02  0.82654176312E+02 0.  0.
          2    1    4    4  501    0 -0.96764216126E+01 -0.90838776187E+01  0.57298135830E+02  0.58815187982E+02  0.00000000000E+00 0. -1.
         -1    1    4    4    0  501  0.11967788937E+02  0.63452219863E+02  0.19786568752E+02  0.67534587291E+02  0.00000000000E+00 0.  1.
          5    1    3    3  502    0  0.31491998818E+02 -0.26902754386E+02 -0.42527361096E+02  0.59549732366E+02  0.47000000000E+01 0. -1.
         11    1    6    6    0    0 -0.40200383835E+02  0.48369506211E+01  0.42899306030E+02  0.58989977196E+02  0.00000000000E+00 0. -1.
        -12    1    6    6    0    0  0.17275260812E+02 -0.21369845869E+02 -0.16764306601E+02  0.32189236158E+02  0.00000000000E+00 0.  1.
         -5    1    5    5    0  503 -0.10858243119E+02 -0.10932692610E+02  0.18243702091E+03  0.18314688589E+03  0.47000000000E+01 0.  1.
<mgrwt>
<rscale>  2 0.18153217E+03</rscale>
<asrwt>0</asrwt>
<pdfrwt beam="1">  1       21 0.54104228E-01 0.18265929E+03</pdfrwt>
<pdfrwt beam="2">  1       21 0.16699711E-01 0.18265929E+03</pdfrwt>
<totfact> 0.10448897E+05</totfact>
</mgrwt>
</event>
<event>
12    1  0.1441827E-001  0.2589709E+03  0.7546771E-02  0.1107769E+00
         21   -1    0    0  504  503  0.00000000000E+00  0.00000000000E+00  0.21204489941E+03  0.21204489941E+03  0.00000000000E+00 0. -1.
         21   -1    0    0  502  504 -0.00000000000E+00 -0.00000000000E+00 -0.31903649792E+03  0.31903649792E+03  0.00000000000E+00 0. -1.
          6    2    1    2  502    0  0.16849605284E+03 -0.94227115246E+02 -0.28615696678E+02  0.26051028394E+03  0.17256036877E+03 0.  0.
         24    2    3    3    0    0  0.18340159138E+03 -0.10958150272E+03 -0.45509124541E+02  0.23284423618E+03  0.80629451503E+02 0.  0.
         -6    2    1    2    0  503 -0.16849605284E+03  0.94227115246E+02 -0.78375901828E+02  0.27057111339E+03  0.17261597940E+03 0.  0.
        -24    2    5    5    0    0 -0.75654012158E+02  0.94736986662E+02 -0.98847631265E+02  0.17538137553E+03  0.79304139110E+02 0.  0.
          2    1    4    4  501    0  0.12643356322E+03 -0.11447200545E+03 -0.26578432088E+02  0.17261430703E+03  0.00000000000E+00 0. -1.
         -1    1    4    4    0  501  0.56968028153E+02  0.48905027286E+01 -0.18930692453E+02  0.60229929149E+02  0.00000000000E+00 0.  1.
          5    1    3    3  502    0 -0.14905538533E+02  0.15354387473E+02  0.16893427862E+02  0.27666047758E+02  0.47000000000E+01 0. -1.
         13    1    6    6    0    0 -0.91334797134E+02  0.72658826323E+02 -0.88173735428E+02  0.14627357188E+03  0.00000000000E+00 0. -1.
        -14    1    6    6    0    0  0.15680784976E+02  0.22078160339E+02 -0.10673895836E+02  0.29107803657E+02  0.00000000000E+00 0.  1.
         -5    1    5    5    0  503 -0.92842040685E+02 -0.50987141648E+00  0.20471729437E+02  0.95189737859E+02  0.47000000000E+01 0.  1.
<mgrwt>
<rscale>  2 0.25896167E+03</rscale>
<asrwt>0</asrwt>
<pdfrwt beam="1">  1       21 0.32622292E-01 0.25897094E+03</pdfrwt>
<pdfrwt beam="2">  1       21 0.49082538E-01 0.25897094E+03</pdfrwt>
<totfact> 0.34702219E+04</totfact>
</mgrwt>
</event>
<event>
12    1  0.1441827E-001  0.2246818E+03  0.7546771E-02  0.1131354E+00
         21   -1    0    0  504  503  0.00000000000E+00  0.00000000000E+00  0.15014581695E+03  0.15014581695E+03  0.00000000000E+00 0.  1.
         21   -1    0    0  502  504 -0.00000000000E+00 -0.00000000000E+00 -0.34150010859E+03  0.34150010859E+03  0.00000000000E+00 0.  1.
          6    2    1    2  502    0 -0.10950539272E+03 -0.91823625961E+02 -0.14202476150E+03  0.26161265219E+03  0.16687461637E+03 0.  0.
         24    2    3    3    0    0 -0.31376928633E+02 -0.40149008670E+02 -0.39128225087E+01  0.94665592721E+02  0.79685693306E+02 0.  0.
         -6    2    1    2    0  503  0.10950539272E+03  0.91823625961E+02 -0.49329530134E+02  0.23003327334E+03  0.17337501256E+03 0.  0.
        -24    2    5    5    0    0  0.10691796843E+03  0.12794378778E+03 -0.25552940203E+02  0.18645831398E+03  0.79452408990E+02 0.  0.
          4    1    4    4  501    0 -0.77530395177E+01  0.22043194850E+02  0.11989854779E+02  0.26263447576E+02  0.00000000000E+00 0. -1.
         -3    1    4    4    0  501 -0.23623889115E+02 -0.62192203520E+02 -0.15902677288E+02  0.68402145145E+02  0.00000000000E+00 0.  1.
          5    1    3    3  502    0 -0.78128464091E+02 -0.51674617291E+02 -0.13811193899E+03  0.16694705947E+03  0.47000000000E+01 0. -1.
         13    1    6    6    0    0  0.10070578674E+02  0.52277243178E+01  0.20548996510E+02  0.23473536460E+02  0.00000000000E+00 0. -1.
        -14    1    6    6    0    0  0.96847389758E+02  0.12271606346E+03 -0.46101936713E+02  0.16298477752E+03  0.00000000000E+00 0.  1.
         -5    1    5    5    0  503  0.25874242922E+01 -0.36120161821E+02 -0.23776589931E+02  0.43574959359E+02  0.47000000000E+01 0.  1.
<mgrwt>
<rscale>  2 0.22342704E+03</rscale>
<asrwt>0</asrwt>
<pdfrwt beam="1">  1       21 0.23099357E-01 0.22468178E+03</pdfrwt>
<pdfrwt beam="2">  1       21 0.52538477E-01 0.22468178E+03</pdfrwt>
<totfact> 0.59609186E+04</totfact>
</mgrwt>
</event>
<event>
12    1  0.1441827E-001  0.2020852E+03  0.7546771E-02  0.1148318E+00
         21   -1    0    0  504  503  0.00000000000E+00  0.00000000000E+00  0.27359128197E+03  0.27359128197E+03  0.00000000000E+00 0.  1.
         21   -1    0    0  502  504 -0.00000000000E+00 -0.00000000000E+00 -0.74110972886E+03  0.74110972886E+03  0.00000000000E+00 0.  1.
          6    2    1    2  502    0  0.66850618413E+02  0.78287808006E+02 -0.68740595954E+03  0.71605584341E+03  0.17207856231E+03 0.  0.
         24    2    3    3    0    0  0.46423628417E+01  0.41121984743E+02 -0.57504289965E+03  0.58226977273E+03  0.81554783043E+02 0.  0.
         -6    2    1    2    0  503 -0.66850618413E+02 -0.78287808006E+02  0.21988751265E+03  0.29864516741E+03  0.17389776230E+03 0.  0.
        -24    2    5    5    0    0 -0.66382853041E+01  0.18471894055E+02  0.63429441813E+02  0.10502393166E+03  0.81372319811E+02 0.  0.
          2    1    4    4  501    0  0.39421297541E+02  0.23058437341E+02 -0.41469359996E+03  0.41720080547E+03  0.00000000000E+00 0. -1.
         -1    1    4    4    0  501 -0.34778934699E+02  0.18063547402E+02 -0.16034929968E+03  0.16506896726E+03  0.00000000000E+00 0.  1.
          5    1    3    3  502    0  0.62208255571E+02  0.37165823264E+02 -0.11236305990E+03  0.13378607068E+03  0.47000000000E+01 0. -1.
         13    1    6    6    0    0 -0.33329434136E+02  0.25285672152E+02  0.72568370086E+01  0.42460311815E+02  0.00000000000E+00 0. -1.
        -14    1    6    6    0    0  0.26691148832E+02 -0.68137780973E+01  0.56172604804E+02  0.62563619848E+02  0.00000000000E+00 0.  1.
         -5    1    5    5    0  503 -0.60212333109E+02 -0.96759702061E+02  0.15645807084E+03  0.19362123575E+03  0.47000000000E+01 0.  1.
<mgrwt>
<rscale>  2 0.20169321E+03</rscale>
<asrwt>0</asrwt>
<pdfrwt beam="1">  1       21 0.42090967E-01 0.20208517E+03</pdfrwt>
<pdfrwt beam="2">  1       21 0.11401688E+00 0.20208517E+03</pdfrwt>
<totfact> 0.32259165E+03</totfact>
</mgrwt>
</event>
<event>
12    1  0.1441827E-001  0.2661915E+03  0.7546771E-02  0.1104024E+00
         21   -1    0    0  504  503  0.00000000000E+00  0.00000000000E+00  0.16859858250E+04  0.16859858250E+04  0.00000000000E+00 0. -1.
         21   -1    0    0  502  504 -0.00000000000E+00 -0.00000000000E+00 -0.46360554463E+02  0.46360554463E+02  0.00000000000E+00 0.  1.
          6    2    1    2  502    0 -0.19861440432E+03  0.40723150258E+02  0.54288643801E+03  0.60463511401E+03  0.17248733273E+03 0.  0.
         24    2    3    3    0    0 -0.15747149044E+03  0.17517445317E+02  0.24380919838E+03  0.30181416136E+03  0.80899515371E+02 0.  0.
         -6    2    1    2    0  503  0.19861440432E+03 -0.40723150258E+02  0.10967388325E+04  0.11277112655E+04  0.16670505354E+03 0.  0.
        -24    2    5    5    0    0  0.96334440126E+02 -0.79168541453E+02  0.47799588003E+03  0.49937682389E+03  0.73138010681E+02 0.  0.
          4    1    4    4  501    0 -0.54805896822E+02  0.43556005887E+02  0.11955740376E+03  0.13854524449E+03  0.00000000000E+00 0. -1.
         -3    1    4    4    0  501 -0.10266559362E+03 -0.26038560570E+02  0.12425179462E+03  0.16326891687E+03  0.00000000000E+00 0.  1.
          5    1    3    3  502    0 -0.41142913883E+02  0.23205704941E+02  0.29907723963E+03  0.30282095266E+03  0.47000000000E+01 0. -1.
         11    1    6    6    0    0 -0.33771910344E+01  0.23513520324E+00  0.10776330545E+03  0.10781646770E+03  0.00000000000E+00 0. -1.
        -12    1    6    6    0    0  0.99711631160E+02 -0.79403676656E+02  0.37023257459E+03  0.39156035619E+03  0.00000000000E+00 0.  1.
         -5    1    5    5    0  503  0.10227996420E+03  0.38445391195E+02  0.61874295250E+03  0.62833444156E+03  0.47000000000E+01 0.  1.
<mgrwt>
<rscale>  2 0.26525919E+03</rscale>
<asrwt>0</asrwt>
<pdfrwt beam="1">  1       21 0.25938239E+00 0.26619154E+03</pdfrwt>
<pdfrwt beam="2">  1       21 0.71323943E-02 0.26619154E+03</pdfrwt>
<totfact> 0.80540693E+03</totfact>
</mgrwt>
</event>
<event>
12    1  0.1441827E-001  0.2087837E+03  0.7546771E-02  0.1144871E+00
         21   -1    0    0  504  503  0.00000000000E+00  0.00000000000E+00  0.13628284113E+03  0.13628284113E+03  0.00000000000E+00 0. -1.
         21   -1    0    0  502  504 -0.00000000000E+00 -0.00000000000E+00 -0.53516139888E+03  0.53516139888E+03  0.00000000000E+00 0.  1.
          6    2    1    2  502    0 -0.40066300370E+02 -0.11015439287E+03 -0.41751393720E+03  0.46183050773E+03  0.15884027014E+03 0.  0.
         24    2    3    3    0    0 -0.87373786058E+02 -0.65607317876E+02 -0.20453028027E+03  0.23910518763E+03  0.58310861397E+02 0.  0.
         -6    2    1    2    0  503  0.40066300370E+02  0.11015439287E+03  0.18635379447E+02  0.20961373229E+03  0.17277540537E+03 0.  0.
        -24    2    5    5    0    0  0.91850431931E+02  0.78031532542E+02  0.25530473988E+02  0.14810676710E+03  0.82209412135E+02 0.  0.
          2    1    4    4  501    0 -0.55401734112E+02 -0.45391064990E+02 -0.73098383807E+02  0.10233804102E+03  0.00000000000E+00 0. -1.
         -1    1    4    4    0  501 -0.31972051946E+02 -0.20216252886E+02 -0.13143189646E+03  0.13676714662E+03  0.00000000000E+00 0.  1.
          5    1    3    3  502    0  0.47307485689E+02 -0.44547074996E+02 -0.21298365693E+03  0.22272532010E+03  0.47000000000E+01 0. -1.
         11    1    6    6    0    0  0.81433757758E+02  0.89778430203E+02  0.37622426626E+01  0.12126738186E+03  0.00000000000E+00 0. -1.
        -12    1    6    6    0    0  0.10416674172E+02 -0.11746897662E+02  0.21768231325E+02  0.26839385249E+02  0.00000000000E+00 0.  1.
         -5    1    5    5    0  503 -0.51784131561E+02  0.32122860330E+02 -0.68950945411E+01  0.61506965183E+02  0.47000000000E+01 0.  1.
<mgrwt>
<rscale>  2 0.20587950E+03</rscale>
<asrwt>0</asrwt>
<pdfrwt beam="1">  1       21 0.20966591E-01 0.20878371E+03</pdfrwt>
<pdfrwt beam="2">  1       21 0.82332523E-01 0.20878371E+03</pdfrwt>
<totfact> 0.26980965E+04</totfact>
</mgrwt>
</event>
<event>
12    1  0.1441827E-001  0.2743293E+03  0.7546771E-02  0.1098851E+00
         21   -1    0    0  504  503  0.00000000000E+00  0.00000000000E+00  0.50163727102E+03  0.50163727102E+03  0.00000000000E+00 0. -1.
         21   -1    0    0  502  504 -0.00000000000E+00 -0.00000000000E+00 -0.19060515444E+03  0.19060515444E+03  0.00000000000E+00 0. -1.
          6    2    1    2  502    0  0.19598752569E+03  0.82889848297E+02 -0.43377930883E+01  0.27436358137E+03  0.17313209164E+03 0.  0.
         24    2    3    3    0    0  0.11788981343E+03 -0.64506479497E+01  0.32558246884E+02  0.15000770215E+03  0.86617852056E+02 0.  0.
         -6    2    1    2    0  503 -0.19598752569E+03 -0.82889848297E+02  0.31536990967E+03  0.41787884409E+03  0.17286616567E+03 0.  0.
        -24    2    5    5    0    0 -0.14817430667E+03 -0.90828175435E+02  0.14980001345E+03  0.24529668544E+03  0.86746972549E+02 0.  0.
          4    1    4    4  501    0  0.75602840707E+02  0.50943873935E+01  0.61406472376E+02  0.97532031434E+02  0.00000000000E+00 0. -1.
         -3    1    4    4    0  501  0.42286972721E+02 -0.11545035343E+02 -0.28848225492E+02  0.52475670715E+02  0.00000000000E+00 0.  1.
          5    1    3    3  502    0  0.78097712263E+02  0.89340496247E+02 -0.36896039972E+02  0.12435587922E+03  0.47000000000E+01 0. -1.
         11    1    6    6    0    0 -0.11114421391E+03 -0.66615842674E+02  0.15352187363E+03  0.20089716888E+03  0.00000000000E+00 0. -1.
        -12    1    6    6    0    0 -0.37030092765E+02 -0.24212332761E+02 -0.37218601752E+01  0.44399516563E+02  0.00000000000E+00 0.  1.
         -5    1    5    5    0  503 -0.47813219017E+02  0.79383271378E+01  0.16556989622E+03  0.17258215865E+03  0.47000000000E+01 0.  1.
<mgrwt>
<rscale>  2 0.27428734E+03</rscale>
<asrwt>0</asrwt>
<pdfrwt beam="1">  1       21 0.77174964E-01 0.27432929E+03</pdfrwt>
<pdfrwt beam="2">  1       21 0.29323870E-01 0.27432929E+03</pdfrwt>
<totfact> 0.15886151E+04</totfact>
</mgrwt>
</event>
<event>
12    1  0.1441827E-001  0.2065592E+03  0.7546771E-02  0.1145841E+00
         21   -1    0    0  504  503  0.00000000000E+00  0.00000000000E+00  0.21692141699E+03  0.21692141699E+03  0.00000000000E+00 0. -1.
         21   -1    0    0  502  504 -0.00000000000E+00 -0.00000000000E+00 -0.26051713951E+03  0.26051713951E+03  0.00000000000E+00 0. -1.
          6    2    1    2  502    0 -0.47476194186E+02  0.91437526588E+02 -0.14592739078E+03  0.24692074623E+03  0.17047064632E+03 0.  0.
         24    2    3    3    0    0 -0.34877168222E+02  0.67365682695E+02 -0.14459793292E+02  0.11259275841E+03  0.81935899065E+02 0.  0.
         -6    2    1    2    0  503  0.47476194186E+02 -0.91437526588E+02  0.10233166825E+03  0.23051781027E+03  0.17903038916E+03 0.  0.
        -24    2    5    5    0    0  0.98687154964E+02 -0.45307292282E+02  0.46776158804E+02  0.14186643887E+03  0.78397526469E+02 0.  0.
          4    1    4    4  501    0 -0.35125186901E+02  0.71287898570E+02 -0.38448815689E+02  0.88283943417E+02  0.00000000000E+00 0. -1.
         -3    1    4    4    0  501  0.24801867910E+00 -0.39222158747E+01  0.23989022398E+02  0.24308814990E+02  0.00000000000E+00 0.  1.
          5    1    3    3  502    0 -0.12599025964E+02  0.24071843893E+02 -0.13146759749E+03  0.13432798782E+03  0.47000000000E+01 0. -1.
         13    1    6    6    0    0  0.40046719281E+02 -0.66453695728E+01  0.57940670215E+02  0.70746179592E+02  0.00000000000E+00 0. -1.
        -14    1    6    6    0    0  0.58640435683E+02 -0.38661922709E+02 -0.11164511412E+02  0.71120259278E+02  0.00000000000E+00 0.  1.
         -5    1    5    5    0  503 -0.51210960778E+02 -0.46130234307E+02  0.55555509447E+02  0.88651371399E+02  0.47000000000E+01 0.  1.
<mgrwt>
<rscale>  2 0.20469067E+03</rscale>
<asrwt>0</asrwt>
<pdfrwt beam="1">  1       21 0.33372525E-01 0.20655917E+03</pdfrwt>
<pdfrwt beam="2">  1       21 0.40079560E-01 0.20655917E+03</pdfrwt>
<totfact> 0.51530553E+04</totfact>
</mgrwt>
</event>
<event>
12    1  0.1441827E-001  0.2040564E+03  0.7546771E-02  0.1146581E+00
         21   -1    0    0  504  503  0.00000000000E+00  0.00000000000E+00  0.43027778742E+03  0.43027778742E+03  0.00000000000E+00 0. -1.
         21   -1    0    0  502  504 -0.00000000000E+00 -0.00000000000E+00 -0.10300375732E+03  0.10300375732E+03  0.00000000000E+00 0. -1.
          6    2    1    2  502    0  0.89217998615E+02  0.55748455542E+02  0.23142501011E+03  0.30783524283E+03  0.17360086363E+03 0.  0.
         24    2    3    3    0    0  0.41239842926E+02  0.10099551090E+03  0.13739066929E+03  0.19288418066E+03  0.80170401485E+02 0.  0.
         -6    2    1    2    0  503 -0.89217998615E+02 -0.55748455542E+02  0.95849019985E+02  0.22544630190E+03  0.17484638640E+03 0.  0.
        -24    2    5    5    0    0 -0.11319831051E+03 -0.34505234276E+02  0.21853651692E+02  0.14467666443E+03  0.80307449491E+02 0.  0.
          4    1    4    4  501    0  0.48084029305E+02  0.71579226109E+02  0.48349225341E+02  0.98860037809E+02  0.00000000000E+00 0. -1.
         -3    1    4    4    0  501 -0.68441863795E+01  0.29416284787E+02  0.89041443947E+02  0.94024142846E+02  0.00000000000E+00 0.  1.
          5    1    3    3  502    0  0.47978155689E+02 -0.45247055353E+02  0.94034340825E+02  0.11495106218E+03  0.47000000000E+01 0. -1.
         11    1    6    6    0    0 -0.49138516403E+02  0.23143357118E+02 -0.46464038828E+01  0.54514198536E+02  0.00000000000E+00 0. -1.
        -12    1    6    6    0    0 -0.64059794108E+02 -0.57648591394E+02  0.26500055575E+02  0.90162465896E+02  0.00000000000E+00 0.  1.
         -5    1    5    5    0  503  0.23980311896E+02 -0.21243221266E+02  0.73995368293E+02  0.80769637471E+02  0.47000000000E+01 0.  1.
<mgrwt>
<rscale>  2 0.20378929E+03</rscale>
<asrwt>0</asrwt>
<pdfrwt beam="1">  1       21 0.66196582E-01 0.20405637E+03</pdfrwt>
<pdfrwt beam="2">  1       21 0.15846732E-01 0.20405637E+03</pdfrwt>
<totfact> 0.73952335E+04</totfact>
</mgrwt>
</event>
<event>
12    1  0.1441827E-001  0.2151920E+03  0.7546771E-02  0.1138089E+00
         21   -1    0    0  504  503  0.00000000000E+00  0.00000000000E+00  0.14930298605E+03  0.14930298605E+03  0.00000000000E+00 0. -1.
         21   -1    0    0  502  504 -0.00000000000E+00 -0.00000000000E+00 -0.46818429706E+03  0.46818429706E+03  0.00000000000E+00 0. -1.
          6    2    1    2  502    0  0.10478687837E+03  0.62586533880E+02 -0.34047728036E+03  0.40121433919E+03  0.17363986705E+03 0.  0.
         24    2    3    3    0    0  0.62972426601E+02  0.43968610801E+02 -0.86211611123E+02  0.14281891356E+03  0.84059710501E+02 0.  0.
         -6    2    1    2    0  503 -0.10478687837E+03 -0.62586533880E+02  0.21595969345E+02  0.21627294392E+03  0.17722933244E+03 0.  0.
        -24    2    5    5    0    0 -0.99243573386E+02 -0.99599499100E+02  0.51194733888E+02  0.16832646661E+03  0.77094432369E+02 0.  0.
          2    1    4    4  501    0  0.98707920942E+01  0.50366336379E+02 -0.14453736805E+02  0.53320829743E+02  0.00000000000E+00 0. -1.
         -1    1    4    4    0  501  0.53101634507E+02 -0.63977255785E+01 -0.71757874317E+02  0.89498083814E+02  0.00000000000E+00 0.  1.
          5    1    3    3  502    0  0.41814451769E+02  0.18617923079E+02 -0.25426566923E+03  0.25839542563E+03  0.47000000000E+01 0. -1.
         11    1    6    6    0    0  0.73854071484E+01 -0.12994805400E+02  0.24027675479E+02  0.28297321341E+02  0.00000000000E+00 0. -1.
        -12    1    6    6    0    0 -0.10662898053E+03 -0.86604693700E+02  0.27167058408E+02  0.14002914526E+03  0.00000000000E+00 0.  1.
         -5    1    5    5    0  503 -0.55433049837E+01  0.37012965221E+02 -0.29598764542E+02  0.47946477316E+02  0.47000000000E+01 0.  1.
<mgrwt>
<rscale>  2 0.21445158E+03</rscale>
<asrwt>0</asrwt>
<pdfrwt beam="1">  1       21 0.22969690E-01 0.21519201E+03</pdfrwt>
<pdfrwt beam="2">  1       21 0.72028353E-01 0.21519201E+03</pdfrwt>
<totfact> 0.30574428E+04</totfact>
</mgrwt>
</event>
<event>
12    1  0.1441827E-001  0.2018700E+03  0.7546771E-02  0.1148298E+00
         21   -1    0    0  504  503  0.00000000000E+00  0.00000000000E+00  0.89143289872E+02  0.89143289872E+02  0.00000000000E+00 0. -1.
         21   -1    0    0  502  504 -0.00000000000E+00 -0.00000000000E+00 -0.10604567964E+04  0.10604567964E+04  0.00000000000E+00 0. -1.
          6    2    1    2  502    0 -0.28356101249E+02  0.99427487146E+02 -0.92001574015E+03  0.94190257181E+03  0.17338281050E+03 0.  0.
         24    2    3    3    0    0  0.45534969625E+02  0.48631204572E+02 -0.36423183107E+03  0.37891234430E+03  0.80444455250E+02 0.  0.
         -6    2    1    2    0  503  0.28356101249E+02 -0.99427487146E+02 -0.51297766354E+02  0.20769751444E+03  0.17267571628E+03 0.  0.
        -24    2    5    5    0    0 -0.71168464488E+01 -0.99825975006E+02  0.29538568472E+02  0.11929450635E+03  0.57816757339E+02 0.  0.
          4    1    4    4  501    0  0.34141221953E+02 -0.15449057081E+02 -0.16945037098E+03  0.17354458974E+03  0.00000000000E+00 0. -1.
         -3    1    4    4    0  501  0.11393747672E+02  0.64080261653E+02 -0.19478146009E+03  0.20536775456E+03  0.00000000000E+00 0.  1.
          5    1    3    3  502    0 -0.73891070874E+02  0.50796282574E+02 -0.55578390908E+03  0.56299022751E+03  0.47000000000E+01 0. -1.
         11    1    6    6    0    0 -0.27428334738E+02 -0.43273349760E+02  0.29670044634E+02  0.59204796212E+02  0.00000000000E+00 0. -1.
        -12    1    6    6    0    0  0.20311488289E+02 -0.56552625246E+02 -0.13147616259E+00  0.60089710140E+02  0.00000000000E+00 0.  1.
         -5    1    5    5    0  503  0.35472947698E+02  0.39848785989E+00 -0.80836334826E+02  0.88403008088E+02  0.47000000000E+01 0.  1.
<mgrwt>
<rscale>  2 0.20171807E+03</rscale>
<asrwt>0</asrwt>
<pdfrwt beam="1">  1       21 0.13714352E-01 0.20186999E+03</pdfrwt>
<pdfrwt beam="2">  1       21 0.16314720E+00 0.20186999E+03</pdfrwt>
<totfact> 0.10942949E+04</totfact>
</mgrwt>
</event>
<event>
12    1  0.1441827E-001  0.1757941E+03  0.7546771E-02  0.1172238E+00
         21   -1    0    0  504  503  0.00000000000E+00  0.00000000000E+00  0.41163126087E+02  0.41163126087E+02  0.00000000000E+00 0. -1.
         21   -1    0    0  502  504 -0.00000000000E+00 -0.00000000000E+00 -0.11323113305E+04  0.11323113305E+04  0.00000000000E+00 0. -1.
          6    2    1    2  502    0  0.45736999731E+01 -0.21883602066E+02 -0.88968068712E+03  0.90688217764E+03  0.17436670641E+03 0.  0.
         24    2    3    3    0    0  0.71274888455E+01  0.35060066058E+02 -0.25722197764E+03  0.27184264156E+03  0.80344674128E+02 0.  0.
         -6    2    1    2    0  503 -0.45736999731E+01  0.21883602066E+02 -0.20146751730E+03  0.26659227896E+03  0.17315447411E+03 0.  0.
        -24    2    5    5    0    0  0.27553905446E+02 -0.23494984277E+02 -0.19043133268E+03  0.20971270003E+03  0.80025571520E+02 0.  0.
          4    1    4    4  501    0 -0.36874936248E+01 -0.24831663491E+02 -0.51263312864E+02  0.57080087305E+02  0.00000000000E+00 0. -1.
         -3    1    4    4    0  501  0.10814982470E+02  0.59891729549E+02 -0.20595866477E+03  0.21476255425E+03  0.00000000000E+00 0.  1.
          5    1    3    3  502    0 -0.25537888724E+01 -0.56943668124E+02 -0.63245870949E+03  0.63503953608E+03  0.47000000000E+01 0. -1.
         11    1    6    6    0    0  0.24650172999E+02  0.25536803265E+02 -0.53172686526E+02  0.63930383561E+02  0.00000000000E+00 0. -1.
        -12    1    6    6    0    0  0.29037324469E+01 -0.49031787542E+02 -0.13725864615E+03  0.14578231647E+03  0.00000000000E+00 0.  1.
         -5    1    5    5    0  503 -0.32127605419E+02  0.45378586343E+02 -0.11036184623E+02  0.56879578932E+02  0.47000000000E+01 0.  1.
<mgrwt>
<rscale>  2 0.17549273E+03</rscale>
<asrwt>0</asrwt>
<pdfrwt beam="1">  1       21 0.63327882E-02 0.17579408E+03</pdfrwt>
<pdfrwt beam="2">  1       21 0.17420175E+00 0.17579408E+03</pdfrwt>
<totfact> 0.36246292E+04</totfact>
</mgrwt>
</event>
<event>
12    1  0.1441827E-001  0.1806736E+03  0.7546771E-02  0.1167233E+00
         21   -1    0    0  504  503  0.00000000000E+00  0.00000000000E+00  0.18957997137E+04  0.18957997137E+04  0.00000000000E+00 0.  1.
         21   -1    0    0  502  504 -0.00000000000E+00 -0.00000000000E+00 -0.50716309483E+02  0.50716309483E+02  0.00000000000E+00 0.  1.
          6    2    1    2  502    0 -0.49199570356E+02  0.66882734017E+01  0.13148206146E+03  0.22345133018E+03  0.17371710840E+03 0.  0.
         24    2    3    3    0    0 -0.75143402883E+02  0.52972724567E+02  0.11596741608E+03  0.16797045882E+03  0.79454344745E+02 0.  0.
         -6    2    1    2    0  503  0.49199570356E+02 -0.66882734017E+01  0.17136013428E+04  0.17230646930E+04  0.17336967339E+03 0.  0.
        -24    2    5    5    0    0  0.78488906364E+01  0.54980227731E+02  0.70814972256E+03  0.71486434917E+03  0.80439900731E+02 0.  0.
          2    1    4    4  501    0 -0.13183281377E+02 -0.12963127889E+02  0.57118286326E+02  0.60036157650E+02  0.00000000000E+00 0. -1.
         -1    1    4    4    0  501 -0.61960121507E+02  0.65935852456E+02  0.58849129754E+02  0.10793430117E+03  0.00000000000E+00 0.  1.
          5    1    3    3  502    0  0.25943832527E+02 -0.46284451166E+02  0.15514645383E+02  0.55480871364E+02  0.47000000000E+01 0. -1.
         13    1    6    6    0    0 -0.86436777647E+01  0.37535224800E+02  0.65940038167E+03  0.66052438987E+03  0.00000000000E+00 0. -1.
        -14    1    6    6    0    0  0.16492568401E+02  0.17445002931E+02  0.48749340887E+02  0.54339959299E+02  0.00000000000E+00 0.  1.
         -5    1    5    5    0  503  0.41350679720E+02 -0.61668501133E+02  0.10054516202E+04  0.10082003438E+04  0.47000000000E+01 0.  1.
<mgrwt>
<rscale>  2 0.18059007E+03</rscale>
<asrwt>0</asrwt>
<pdfrwt beam="1">  1       21 0.29166144E+00 0.18067364E+03</pdfrwt>
<pdfrwt beam="2">  1       21 0.78025106E-02 0.18067364E+03</pdfrwt>
<totfact> 0.48461925E+03</totfact>
</mgrwt>
</event>
<event>
12    1  0.1441827E-001  0.1945983E+03  0.7546771E-02  0.1155198E+00
         21   -1    0    0  504  503  0.00000000000E+00  0.00000000000E+00  0.56410851711E+02  0.56410851711E+02  0.00000000000E+00 0. -1.
         21   -1    0    0  502  504 -0.00000000000E+00 -0.00000000000E+00 -0.74371162333E+03  0.74371162333E+03  0.00000000000E+00 0.  1.
          6    2    1    2  502    0  0.72585758906E+02 -0.38909314122E+02 -0.20535218034E+03  0.28036970706E+03  0.17220635164E+03 0.  0.
         24    2    3    3    0    0  0.38943992980E+02 -0.24143945137E+02 -0.22142965196E+03  0.23999199502E+03  0.80408346763E+02 0.  0.
         -6    2    1    2    0  503 -0.72585758906E+02  0.38909314122E+02 -0.48194859128E+03  0.51975276798E+03  0.17631184890E+03 0.  0.
        -24    2    5    5    0    0  0.13361981247E+02  0.66314576998E+02 -0.30642631062E+03  0.32234906112E+03  0.73726980843E+02 0.  0.
          2    1    4    4  501    0 -0.20356469953E+02 -0.23327683963E+02 -0.10284465994E+03  0.10740386765E+03  0.00000000000E+00 0. -1.
         -1    1    4    4    0  501  0.59300462933E+02 -0.81626117467E+00 -0.11858499202E+03  0.13258812737E+03  0.00000000000E+00 0.  1.
          5    1    3    3  502    0  0.33641765926E+02 -0.14765368985E+02  0.16077471624E+02  0.40377712042E+02  0.47000000000E+01 0. -1.
         11    1    6    6    0    0 -0.14330404826E+02  0.65783254433E+02 -0.25719775853E+03  0.26586365690E+03  0.00000000000E+00 0. -1.
        -12    1    6    6    0    0  0.27692386073E+02  0.53132256582E+00 -0.49228552087E+02  0.56485404227E+02  0.00000000000E+00 0.  1.
         -5    1    5    5    0  503 -0.85947740154E+02 -0.27405262876E+02 -0.17552228066E+03  0.19740370685E+03  0.47000000000E+01 0.  1.
<mgrwt>
<rscale>  2 0.19366363E+03</rscale>
<asrwt>0</asrwt>
<pdfrwt beam="1">  1       21 0.86785926E-02 0.19459829E+03</pdfrwt>
<pdfrwt beam="2">  1       21 0.11441717E+00 0.19459829E+03</pdfrwt>
<totfact> 0.61736969E+04</totfact>
</mgrwt>
</event>
<event>
12    1  0.1441827E-001  0.1701902E+03  0.7546771E-02  0.1178230E+00
         21   -1    0    0  504  503  0.00000000000E+00  0.00000000000E+00  0.11699525311E+03  0.11699525311E+03  0.00000000000E+00 0. -1.
         21   -1    0    0  502  504 -0.00000000000E+00 -0.00000000000E+00 -0.45213427326E+03  0.45213427326E+03  0.00000000000E+00 0. -1.
          6    2    1    2  502    0 -0.17771158732E+01  0.44466186425E+01 -0.36106256682E+03  0.39916271447E+03  0.17012279362E+03 0.  0.
         24    2    3    3    0    0 -0.41740660600E+02 -0.45810598422E+02 -0.17703434456E+03  0.20419771925E+03  0.80713417210E+02 0.  0.
         -6    2    1    2    0  503  0.17771158732E+01 -0.44466186425E+01  0.25923546663E+02  0.16996681190E+03  0.16790996491E+03 0.  0.
        -24    2    5    5    0    0 -0.62216997568E+02 -0.65228811151E+01  0.32972518425E+02  0.10538093555E+03  0.78130991551E+02 0.  0.
          2    1    4    4  501    0 -0.14067143265E+02 -0.44534796102E+02 -0.32176598072E+02  0.56714778030E+02  0.00000000000E+00 0. -1.
         -1    1    4    4    0  501 -0.27673517335E+02 -0.12758023199E+01 -0.14485774649E+03  0.14748294122E+03  0.00000000000E+00 0.  1.
          5    1    3    3  502    0  0.39963544727E+02  0.50257217064E+02 -0.18402822226E+03  0.19496499522E+03  0.47000000000E+01 0. -1.
         13    1    6    6    0    0 -0.47431561897E+02  0.32857946735E+02  0.14870121106E+02  0.59586225165E+02  0.00000000000E+00 0. -1.
        -14    1    6    6    0    0 -0.14785435670E+02 -0.39380827851E+02  0.18102397320E+02  0.45794710381E+02  0.00000000000E+00 0.  1.
         -5    1    5    5    0  503  0.63994113441E+02  0.20762624726E+01 -0.70489717619E+01  0.64585876349E+02  0.47000000000E+01 0.  1.
<mgrwt>
<rscale>  2 0.16963447E+03</rscale>
<asrwt>0</asrwt>
<pdfrwt beam="1">  1       21 0.17999270E-01 0.17019017E+03</pdfrwt>
<pdfrwt beam="2">  1       21 0.69559118E-01 0.17019017E+03</pdfrwt>
<totfact> 0.53327437E+04</totfact>
</mgrwt>
</event>
<event>
12    1  0.1441827E-001  0.1747735E+03  0.7546771E-02  0.1173233E+00
         21   -1    0    0  504  503  0.00000000000E+00  0.00000000000E+00  0.11761005122E+04  0.11761005122E+04  0.00000000000E+00 0.  1.
         21   -1    0    0  502  504 -0.00000000000E+00 -0.00000000000E+00 -0.40358690903E+02  0.40358690903E+02  0.00000000000E+00 0.  1.
          6    2    1    2  502    0  0.23993284377E+00 -0.24111021515E+02  0.20383206314E+03  0.26850190818E+03  0.17310218313E+03 0.  0.
         24    2    3    3    0    0  0.43112051921E+02  0.38428949995E+01  0.49202356314E+02  0.10555444340E+03  0.82749331068E+02 0.  0.
         -6    2    1    2    0  503 -0.23993284377E+00  0.24111021515E+02  0.93190975818E+03  0.94795729495E+03  0.17200533927E+03 0.  0.
        -24    2    5    5    0    0 -0.64088653075E+02  0.23744623036E+02  0.48595468830E+03  0.49743003975E+03  0.81323568508E+02 0.  0.
          2    1    4    4  501    0  0.17650497936E+02 -0.39201418119E+02  0.17999363323E+02  0.46607599595E+02  0.00000000000E+00 0. -1.
         -1    1    4    4    0  501  0.25461553985E+02  0.43044313119E+02  0.31202992990E+02  0.58946843807E+02  0.00000000000E+00 0.  1.
          5    1    3    3  502    0 -0.42872119078E+02 -0.27953916514E+02  0.15462970683E+03  0.16294746477E+03  0.47000000000E+01 0. -1.
         13    1    6    6    0    0 -0.23555716290E+02  0.17606684493E+02  0.40276917678E+02  0.49870805151E+02  0.00000000000E+00 0. -1.
        -14    1    6    6    0    0 -0.40532936785E+02  0.61379385437E+01  0.44567777062E+03  0.44755923460E+03  0.00000000000E+00 0.  1.
         -5    1    5    5    0  503  0.63848720231E+02  0.36639847841E+00  0.44595506988E+03  0.45052725520E+03  0.47000000000E+01 0.  1.
<mgrwt>
<rscale>  2 0.17450126E+03</rscale>
<asrwt>0</asrwt>
<pdfrwt beam="1">  1       21 0.18093851E+00 0.17477347E+03</pdfrwt>
<pdfrwt beam="2">  1       21 0.62090303E-02 0.17477347E+03</pdfrwt>
<totfact> 0.33745418E+04</totfact>
</mgrwt>
</event>
<event>
12    1  0.1441827E-001  0.1952646E+03  0.7546771E-02  0.1153831E+00
         21   -1    0    0  504  503  0.00000000000E+00  0.00000000000E+00  0.31147429828E+02  0.31147429828E+02  0.00000000000E+00 0.  1.
         21   -1    0    0  502  504 -0.00000000000E+00 -0.00000000000E+00 -0.18425052726E+04  0.18425052726E+04  0.00000000000E+00 0.  1.
          6    2    1    2  502    0  0.14901209196E+02  0.89558043612E+02 -0.14486004533E+04  0.14616803784E+04  0.17269500925E+03 0.  0.
         24    2    3    3    0    0  0.35379973975E+01  0.68006204674E+02 -0.14197834672E+04  0.14236525855E+04  0.79776120091E+02 0.  0.
         -6    2    1    2    0  503 -0.14901209196E+02 -0.89558043612E+02 -0.36275738954E+03  0.41197232405E+03  0.17287447153E+03 0.  0.
        -24    2    5    5    0    0  0.17511462846E+01 -0.63463055494E+02 -0.36657743206E+03  0.38042978019E+03  0.79480677125E+02 0.  0.
          4    1    4    4  501    0 -0.27717584277E+02 -0.24321761309E+01 -0.38130391852E+03  0.38231774513E+03  0.00000000000E+00 0. -1.
         -3    1    4    4    0  501  0.31255581675E+02  0.70438380805E+02 -0.10384795486E+04  0.10413348404E+04  0.00000000000E+00 0.  1.
          5    1    3    3  502    0  0.11363211798E+02  0.21551838938E+02 -0.28816986107E+02  0.38027792892E+02  0.47000000000E+01 0. -1.
         11    1    6    6    0    0 -0.18708287481E+02 -0.66183325079E+02 -0.17963017196E+03  0.19234664337E+03  0.00000000000E+00 0. -1.
        -12    1    6    6    0    0  0.20459433766E+02  0.27202695855E+01 -0.18694726010E+03  0.18808313682E+03  0.00000000000E+00 0.  1.
         -5    1    5    5    0  503 -0.16652355480E+02 -0.26094988119E+02  0.38200425220E+01  0.31542543855E+02  0.47000000000E+01 0.  1.
<mgrwt>
<rscale>  2 0.19522489E+03</rscale>
<asrwt>0</asrwt>
<pdfrwt beam="1">  1       21 0.47919133E-02 0.19526462E+03</pdfrwt>
<pdfrwt beam="2">  1       21 0.28346229E+00 0.19526462E+03</pdfrwt>
<totfact> 0.12253842E+04</totfact>
</mgrwt>
</event>
<event>
12    1  0.1441827E-001  0.1961044E+03  0.7546771E-02  0.1153495E+00
         21   -1    0    0  504  503  0.00000000000E+00  0.00000000000E+00  0.49868001274E+03  0.49868001274E+03  0.00000000000E+00 0.  1.
         21   -1    0    0  502  504 -0.00000000000E+00 -0.00000000000E+00 -0.84770188752E+02  0.84770188752E+02  0.00000000000E+00 0.  1.
          6    2    1    2  502    0  0.35224197929E+02  0.79871876585E+02  0.11406082133E+03  0.22516770449E+03  0.17340808342E+03 0.  0.
         24    2    3    3    0    0  0.57211077140E+02  0.11427588694E+03  0.10309370667E+03  0.18263035161E+03  0.79959035079E+02 0.  0.
         -6    2    1    2    0  503 -0.35224197929E+02 -0.79871876585E+02  0.29984900266E+03  0.35828249700E+03  0.17560370859E+03 0.  0.
        -24    2    5    5    0    0 -0.84489880930E+02 -0.22861419583E+02  0.16262575903E+03  0.20166318682E+03  0.80992091792E+02 0.  0.
          4    1    4    4  501    0  0.26336770977E+01  0.71709671236E+02  0.20013521245E+02  0.74496672654E+02  0.00000000000E+00 0. -1.
         -3    1    4    4    0  501  0.54577400042E+02  0.42566215708E+02  0.83080185421E+02  0.10813367896E+03  0.00000000000E+00 0.  1.
          5    1    3    3  502    0 -0.21986879211E+02 -0.34404010360E+02  0.10967114665E+02  0.42537352884E+02  0.47000000000E+01 0. -1.
         11    1    6    6    0    0 -0.60348850405E+00 -0.10981695798E+02 -0.63049914894E+01  0.12677332474E+02  0.00000000000E+00 0. -1.
        -12    1    6    6    0    0 -0.83886392426E+02 -0.11879723785E+02  0.16893075052E+03  0.18898585434E+03  0.00000000000E+00 0.  1.
         -5    1    5    5    0  503  0.49265683001E+02 -0.57010457002E+02  0.13722324363E+03  0.15661931018E+03  0.47000000000E+01 0.  1.
<mgrwt>
<rscale>  2 0.19561161E+03</rscale>
<asrwt>0</asrwt>
<pdfrwt beam="1">  1       21 0.76720000E-01 0.19610437E+03</pdfrwt>
<pdfrwt beam="2">  1       21 0.13041568E-01 0.19610437E+03</pdfrwt>
<totfact> 0.76263303E+04</totfact>
</mgrwt>
</event>
<event>
12    1  0.1441827E-001  0.2240818E+03  0.7546771E-02  0.1130902E+00
         21   -1    0    0  504  503  0.00000000000E+00  0.00000000000E+00  0.11118815347E+04  0.11118815347E+04  0.00000000000E+00 0. -1.
         21   -1    0    0  502  504 -0.00000000000E+00 -0.00000000000E+00 -0.45504096321E+02  0.45504096321E+02  0.00000000000E+00 0. -1.
          6    2    1    2  502    0 -0.12057441006E+03 -0.73287474104E+02  0.58574034435E+03  0.62713986702E+03  0.17407877410E+03 0.  0.
         24    2    3    3    0    0 -0.14823510910E+03 -0.86965864644E+02  0.45637660864E+03  0.49406365294E+03  0.79262696508E+02 0.  0.
         -6    2    1    2    0  503  0.12057441006E+03  0.73287474104E+02  0.48063709404E+03  0.53024576401E+03  0.17389454235E+03 0.  0.
        -24    2    5    5    0    0  0.35313840298E+02  0.88740836432E+02  0.19403681898E+03  0.23079630445E+03  0.80589352037E+02 0.  0.
          2    1    4    4  501    0 -0.36308844657E+01 -0.34555516313E+02  0.68610684081E+02  0.76907041289E+02  0.00000000000E+00 0. -1.
         -1    1    4    4    0  501 -0.14460422463E+03 -0.52410348332E+02  0.38776592456E+03  0.41715661165E+03  0.00000000000E+00 0.  1.
          5    1    3    3  502    0  0.27660699037E+02  0.13678390541E+02  0.12936373570E+03  0.13307621408E+03  0.47000000000E+01 0. -1.
         13    1    6    6    0    0  0.42512393314E+01  0.34572831857E+02  0.15098479794E+03  0.15495084042E+03  0.00000000000E+00 0. -1.
        -14    1    6    6    0    0  0.31062600967E+02  0.54168004575E+02  0.43052021040E+02  0.75845464031E+02  0.00000000000E+00 0.  1.
         -5    1    5    5    0  503  0.85260569761E+02 -0.15453362329E+02  0.28660027507E+03  0.29944945956E+03  0.47000000000E+01 0.  1.
<mgrwt>
<rscale>  2 0.22404604E+03</rscale>
<asrwt>0</asrwt>
<pdfrwt beam="1">  1       21 0.17105868E+00 0.22408182E+03</pdfrwt>
<pdfrwt beam="2">  1       21 0.70006310E-02 0.22408182E+03</pdfrwt>
<totfact> 0.31102676E+04</totfact>
</mgrwt>
</event>
<event>
12    1  0.1441827E-001  0.2477637E+03  0.7546771E-02  0.1114787E+00
         21   -1    0    0  504  503  0.00000000000E+00  0.00000000000E+00  0.50544880920E+03  0.50544880920E+03  0.00000000000E+00 0.  1.
         21   -1    0    0  502  504 -0.00000000000E+00 -0.00000000000E+00 -0.12614085505E+03  0.12614085505E+03  0.00000000000E+00 0. -1.
          6    2    1    2  502    0  0.30636291542E+02  0.17340387124E+03  0.25160794389E+03  0.35285301008E+03  0.17375616354E+03 0.  0.
         24    2    3    3    0    0  0.74375469553E+02  0.68821833332E+02  0.16150631955E+03  0.20797060585E+03  0.83062184096E+02 0.  0.
         -6    2    1    2    0  503 -0.30636291542E+02 -0.17340387124E+03  0.12770001026E+03  0.27873665418E+03  0.17429671494E+03 0.  0.
        -24    2    5    5    0    0  0.34408142057E+02 -0.80254776069E+02  0.10812584992E+03  0.16335567642E+03  0.85843626893E+02 0.  0.
          2    1    4    4  501    0  0.53454689326E+02 -0.17558873739E+01  0.43747916445E+02  0.69096795474E+02  0.00000000000E+00 0. -1.
         -1    1    4    4    0  501  0.20920780227E+02  0.70577720706E+02  0.11775840311E+03  0.13887381037E+03  0.00000000000E+00 0.  1.
          5    1    3    3  502    0 -0.43739178011E+02  0.10458203791E+03  0.90101624334E+02  0.14488240423E+03  0.47000000000E+01 0. -1.
         11    1    6    6    0    0 -0.25656066318E+02 -0.21474205896E+02  0.53571184323E+02  0.63160486441E+02  0.00000000000E+00 0. -1.
        -12    1    6    6    0    0  0.60064208375E+02 -0.58780570173E+02  0.54554665594E+02  0.10019518998E+03  0.00000000000E+00 0.  1.
         -5    1    5    5    0  503 -0.65044433600E+02 -0.93149095176E+02  0.19574160348E+02  0.11538097775E+03  0.47000000000E+01 0.  1.
<mgrwt>
<rscale>  2 0.24766861E+03</rscale>
<asrwt>0</asrwt>
<pdfrwt beam="1">  1       21 0.77761354E-01 0.24776366E+03</pdfrwt>
<pdfrwt beam="2">  1       21 0.19406286E-01 0.24776366E+03</pdfrwt>
<totfact> 0.34838831E+04</totfact>
</mgrwt>
</event>
<event>
12    1  0.1441827E-001  0.1915273E+03  0.7546771E-02  0.1157848E+00
         21   -1    0    0  504  503  0.00000000000E+00  0.00000000000E+00  0.32085876220E+03  0.32085876220E+03  0.00000000000E+00 0.  1.
         21   -1    0    0  502  504 -0.00000000000E+00 -0.00000000000E+00 -0.32660850491E+03  0.32660850491E+03  0.00000000000E+00 0.  1.
          6    2    1    2  502    0 -0.23233462796E+02  0.65181609984E+02 -0.26509877796E+03  0.32704749756E+03  0.17858966238E+03 0.  0.
         24    2    3    3    0    0 -0.62289121604E+01  0.11018400210E+03 -0.15480153965E+03  0.20662349323E+03  0.80934773819E+02 0.  0.
         -6    2    1    2    0  503  0.23233462796E+02 -0.65181609984E+02  0.25934903525E+03  0.32041976955E+03  0.17498134346E+03 0.  0.
        -24    2    5    5    0    0 -0.25009292209E+02 -0.89417616462E+02  0.12618520558E+03  0.17665105614E+03  0.81620553169E+02 0.  0.
          4    1    4    4  501    0 -0.33172486297E+02  0.33626591122E+02 -0.24753839476E+02  0.53328360620E+02  0.00000000000E+00 0. -1.
         -3    1    4    4    0  501  0.26943574137E+02  0.76557410978E+02 -0.13004770017E+03  0.15329513261E+03  0.00000000000E+00 0.  1.
          5    1    3    3  502    0 -0.17004550636E+02 -0.45002392116E+02 -0.11029723831E+03  0.12042400432E+03  0.47000000000E+01 0. -1.
         13    1    6    6    0    0  0.92980418055E+01 -0.79230199091E+02  0.11339856596E+03  0.13864744063E+03  0.00000000000E+00 0. -1.
        -14    1    6    6    0    0 -0.34307334015E+02 -0.10187417372E+02  0.12786639614E+02  0.38003615519E+02  0.00000000000E+00 0.  1.
         -5    1    5    5    0  503  0.48242755005E+02  0.24236006478E+02  0.13316382967E+03  0.14376871340E+03  0.47000000000E+01 0.  1.
<mgrwt>
<rscale>  2 0.19068169E+03</rscale>
<asrwt>0</asrwt>
<pdfrwt beam="1">  1       21 0.49362887E-01 0.19152729E+03</pdfrwt>
<pdfrwt beam="2">  1       21 0.50247462E-01 0.19152729E+03</pdfrwt>
<totfact> 0.14770822E+04</totfact>
</mgrwt>
</event>
<event>
12    1  0.1441827E-001  0.1924624E+03  0.7546771E-02  0.1157437E+00
         21   -1    0    0  504  503  0.00000000000E+00  0.00000000000E+00  0.68960109666E+03  0.68960109666E+03  0.00000000000E+00 0.  1.
         21   -1    0    0  502  504 -0.00000000000E+00 -0.00000000000E+00 -0.52654862733E+02  0.52654862733E+02  0.00000000000E+00 0.  1.
          6    2    1    2  502    0  0.20574069407E+02 -0.72255421118E+02  0.28213576933E+03  0.33860728859E+03  0.17149392215E+03 0.  0.
         24    2    3    3    0    0 -0.21603845396E+02  0.12811836605E+02  0.17415616379E+03  0.19474242127E+03  0.83446821174E+02 0.  0.
         -6    2    1    2    0  503 -0.20574069407E+02  0.72255421118E+02  0.35481046460E+03  0.40364867081E+03  0.17719380759E+03 0.  0.
        -24    2    5    5    0    0 -0.29690868157E+02 -0.26678713885E+02  0.20439760236E+03  0.22332341408E+03  0.80632908916E+02 0.  0.
          2    1    4    4  501    0  0.81607514917E+00  0.23659137664E+02  0.16722149220E+03  0.16888886354E+03  0.00000000000E+00 0. -1.
         -1    1    4    4    0  501 -0.22419920545E+02 -0.10847301058E+02  0.69346715902E+01  0.25853557735E+02  0.00000000000E+00 0.  1.
          5    1    3    3  502    0  0.42177914803E+02 -0.85067257723E+02  0.10797960554E+03  0.14386486731E+03  0.47000000000E+01 0. -1.
         13    1    6    6    0    0 -0.33290873955E+02  0.50610867918E+01  0.27247978294E+02  0.43316846715E+02  0.00000000000E+00 0. -1.
        -14    1    6    6    0    0  0.36000057972E+01 -0.31739800677E+02  0.17714962407E+03  0.18000656737E+03  0.00000000000E+00 0.  1.
         -5    1    5    5    0  503  0.91167987507E+01  0.98934135003E+02  0.15041286223E+03  0.18032525673E+03  0.47000000000E+01 0.  1.
<mgrwt>
<rscale>  2 0.19114024E+03</rscale>
<asrwt>0</asrwt>
<pdfrwt beam="1">  1       21 0.10609247E+00 0.19246242E+03</pdfrwt>
<pdfrwt beam="2">  1       21 0.81007486E-02 0.19246242E+03</pdfrwt>
<totfact> 0.83688570E+04</totfact>
</mgrwt>
</event>
<event>
12    1  0.1441827E-001  0.2659196E+03  0.7546771E-02  0.1103915E+00
         21   -1    0    0  504  503  0.00000000000E+00  0.00000000000E+00  0.38450157502E+02  0.38450157502E+02  0.00000000000E+00 0. -1.
         21   -1    0    0  502  504 -0.00000000000E+00 -0.00000000000E+00 -0.19157480689E+04  0.19157480689E+04  0.00000000000E+00 0.  1.
          6    2    1    2  502    0 -0.52074502690E+02  0.19415036052E+03 -0.11469010262E+04  0.11768997911E+04  0.17118714293E+03 0.  0.
         24    2    3    3    0    0 -0.24930275642E+00  0.94433469870E+02 -0.34361175347E+03  0.36577399603E+03  0.82485372431E+02 0.  0.
         -6    2    1    2    0  503  0.52074502690E+02 -0.19415036052E+03 -0.73039688520E+03  0.77729843537E+03  0.17408943508E+03 0.  0.
        -24    2    5    5    0    0 -0.24587695689E+02 -0.12217643645E+03 -0.52712675927E+03  0.54839196429E+03  0.85670822119E+02 0.  0.
          4    1    4    4  501    0 -0.78354229689E+01  0.10064118211E+03 -0.22322292756E+03  0.24498676858E+03  0.00000000000E+00 0. -1.
         -3    1    4    4    0  501  0.75861202125E+01 -0.62077122438E+01 -0.12038882591E+03  0.12078722745E+03  0.00000000000E+00 0.  1.
          5    1    3    3  502    0 -0.51825199934E+02  0.99716890652E+02 -0.80328927275E+03  0.81112579502E+03  0.47000000000E+01 0. -1.
         13    1    6    6    0    0  0.23788315925E+02 -0.53478667121E+01 -0.71418901332E+02  0.75466172027E+02  0.00000000000E+00 0. -1.
        -14    1    6    6    0    0 -0.48376011613E+02 -0.11682856974E+03 -0.45570785794E+03  0.47292579227E+03  0.00000000000E+00 0.  1.
         -5    1    5    5    0  503  0.76662198379E+02 -0.71973924072E+02 -0.20327012593E+03  0.22890647108E+03  0.47000000000E+01 0.  1.
<mgrwt>
<rscale>  2 0.26544563E+03</rscale>
<asrwt>0</asrwt>
<pdfrwt beam="1">  1       21 0.59154075E-02 0.26591963E+03</pdfrwt>
<pdfrwt beam="2">  1       21 0.29473054E+00 0.26591963E+03</pdfrwt>
<totfact> 0.68999097E+03</totfact>
</mgrwt>
</event>
<event>
12    1  0.1441827E-001  0.1884484E+03  0.7546771E-02  0.1160774E+00
         21   -1    0    0  504  503  0.00000000000E+00  0.00000000000E+00  0.13557154107E+04  0.13557154107E+04  0.00000000000E+00 0.  1.
         21   -1    0    0  502  504 -0.00000000000E+00 -0.00000000000E+00 -0.30194816052E+02  0.30194816052E+02  0.00000000000E+00 0.  1.
          6    2    1    2  502    0  0.72841085625E+02 -0.92817776830E+01  0.38803674325E+03  0.42967344858E+03  0.16927723754E+03 0.  0.
         24    2    3    3    0    0  0.10005313852E+03  0.29798738544E+02  0.24092494784E+03  0.27497453805E+03  0.81655194183E+02 0.  0.
         -6    2    1    2    0  503 -0.72841085625E+02  0.92817776830E+01  0.93748385141E+03  0.95623677818E+03  0.17355353395E+03 0.  0.
        -24    2    5    5    0    0 -0.76660166576E+01 -0.33043435377E+02  0.70099144642E+03  0.70725894605E+03  0.87610344048E+02 0.  0.
          2    1    4    4  501    0  0.85230446546E+02  0.53315792723E+02  0.21319748975E+03  0.23571162977E+03  0.00000000000E+00 0. -1.
         -1    1    4    4    0  501  0.14822691970E+02 -0.23517054179E+02  0.27727458092E+02  0.39262908281E+02  0.00000000000E+00 0.  1.
          5    1    3    3  502    0 -0.27212052891E+02 -0.39080516227E+02  0.14711179541E+03  0.15469891053E+03  0.47000000000E+01 0. -1.
         11    1    6    6    0    0  0.33863156519E+02 -0.97115047499E+01  0.14448882728E+03  0.14872137676E+03  0.00000000000E+00 0. -1.
        -12    1    6    6    0    0 -0.41529173177E+02 -0.23331930627E+02  0.55650261913E+03  0.55853756929E+03  0.00000000000E+00 0.  1.
         -5    1    5    5    0  503 -0.65175068967E+02  0.42325213060E+02  0.23649240499E+03  0.24897783213E+03  0.47000000000E+01 0.  1.
<mgrwt>
<rscale>  2 0.18745794E+03</rscale>
<asrwt>0</asrwt>
<pdfrwt beam="1">  1       21 0.20857155E+00 0.18844841E+03</pdfrwt>
<pdfrwt beam="2">  1       21 0.46453574E-02 0.18844841E+03</pdfrwt>
<totfact> 0.36196647E+04</totfact>
</mgrwt>
</event>
<event>
12    1  0.1441827E-001  0.2110520E+03  0.7546771E-02  0.1140814E+00
         21   -1    0    0  504  503  0.00000000000E+00  0.00000000000E+00  0.30298376261E+03  0.30298376261E+03  0.00000000000E+00 0. -1.
         21   -1    0    0  502  504 -0.00000000000E+00 -0.00000000000E+00 -0.25750747738E+03  0.25750747738E+03  0.00000000000E+00 0. -1.
          6    2    1    2  502    0  0.66828157957E+02 -0.10056848601E+03 -0.16107703920E+03  0.26518252196E+03  0.17261498868E+03 0.  0.
         24    2    3    3    0    0  0.78375816433E+02 -0.12790413893E+03 -0.16219632643E+03  0.23511710760E+03  0.80437358388E+02 0.  0.
         -6    2    1    2    0  503 -0.66828157957E+02  0.10056848601E+03  0.20655332443E+03  0.29530871804E+03  0.17309806480E+03 0.  0.
        -24    2    5    5    0    0 -0.73041352948E+02  0.17566038824E+02  0.17313631759E+03  0.20549337203E+03  0.81287985097E+02 0.  0.
          2    1    4    4  501    0  0.77443419673E+02 -0.86713204006E+02 -0.74114754706E+02  0.13787552308E+03  0.00000000000E+00 0. -1.
         -1    1    4    4    0  501  0.93239675993E+00 -0.41190934920E+02 -0.88081571720E+02  0.97241584520E+02  0.00000000000E+00 0.  1.
          5    1    3    3  502    0 -0.11547658475E+02  0.27335652913E+02  0.11192872275E+01  0.30065414355E+02  0.47000000000E+01 0. -1.
         11    1    6    6    0    0 -0.73637039286E+02  0.23476540922E+02  0.76744519074E+02  0.10891869783E+03  0.00000000000E+00 0. -1.
        -12    1    6    6    0    0  0.59568633796E+00 -0.59105020981E+01  0.96391798513E+02  0.96574674205E+02  0.00000000000E+00 0.  1.
         -5    1    5    5    0  503  0.62131949905E+01  0.83002447189E+02  0.33417006845E+02  0.89815346004E+02  0.47000000000E+01 0.  1.
<mgrwt>
<rscale>  2 0.21095296E+03</rscale>
<asrwt>0</asrwt>
<pdfrwt beam="1">  1       21 0.46612887E-01 0.21105204E+03</pdfrwt>
<pdfrwt beam="2">  1       21 0.39616535E-01 0.21105204E+03</pdfrwt>
<totfact> 0.26792585E+04</totfact>
</mgrwt>
</event>
<event>
12    1  0.1441827E-001  0.1800763E+03  0.7546771E-02  0.1167801E+00
         21   -1    0    0  504  503  0.00000000000E+00  0.00000000000E+00  0.12567302392E+03  0.12567302392E+03  0.00000000000E+00 0. -1.
         21   -1    0    0  502  504 -0.00000000000E+00 -0.00000000000E+00 -0.28715253859E+03  0.28715253859E+03  0.00000000000E+00 0.  1.
          6    2    1    2  502    0  0.38372941968E+02 -0.30893802493E+02 -0.14688901862E+03  0.23215918838E+03  0.17290053572E+03 0.  0.
         24    2    3    3    0    0  0.38191046548E+02 -0.57619194657E+02 -0.34918161155E+02  0.11694702499E+03  0.87628768369E+02 0.  0.
         -6    2    1    2    0  503 -0.38372941968E+02  0.30893802493E+02 -0.14590496059E+02  0.18066637413E+03  0.17320665824E+03 0.  0.
        -24    2    5    5    0    0  0.45743439598E+02  0.20527599266E+02 -0.15418699848E+02  0.95779391980E+02  0.80138074753E+02 0.  0.
          2    1    4    4  501    0  0.49429637623E+02 -0.48750966809E+02  0.96891839718E+01  0.70098688478E+02  0.00000000000E+00 0. -1.
         -1    1    4    4    0  501 -0.11238591075E+02 -0.88682278488E+01 -0.44607345127E+02  0.46848336510E+02  0.00000000000E+00 0.  1.
          5    1    3    3  502    0  0.18189542050E+00  0.26725392165E+02 -0.11197085746E+03  0.11521216339E+03  0.47000000000E+01 0. -1.
         11    1    6    6    0    0  0.16481437458E+02  0.30710937311E+02  0.26407025055E+02  0.43727913550E+02  0.00000000000E+00 0. -1.
        -12    1    6    6    0    0  0.29262002140E+02 -0.10183338045E+02 -0.41825724903E+02  0.52051478429E+02  0.00000000000E+00 0.  1.
         -5    1    5    5    0  503 -0.84116381566E+02  0.10366203227E+02  0.82820378908E+00  0.84886982151E+02  0.47000000000E+01 0.  1.
<mgrwt>
<rscale>  2 0.18000260E+03</rscale>
<asrwt>0</asrwt>
<pdfrwt beam="1">  1       21 0.19334312E-01 0.18007625E+03</pdfrwt>
<pdfrwt beam="2">  1       21 0.44177313E-01 0.18007625E+03</pdfrwt>
<totfact> 0.12153986E+05</totfact>
</mgrwt>
</event>
<event>
12    1  0.1441827E-001  0.3178320E+03  0.7546771E-02  0.1077119E+00
         21   -1    0    0  504  503  0.00000000000E+00  0.00000000000E+00  0.25102341037E+03  0.25102341037E+03  0.00000000000E+00 0. -1.
         21   -1    0    0  502  504 -0.00000000000E+00 -0.00000000000E+00 -0.40924283903E+03  0.40924283903E+03  0.00000000000E+00 0.  1.
          6    2    1    2  502    0  0.25467734934E+03  0.79006377862E+02 -0.13485279871E+03  0.34157642004E+03  0.16548901293E+03 0.  0.
         24    2    3    3    0    0  0.24922284935E+03  0.44125990181E+02 -0.82646247050E+02  0.27837826302E+03  0.81270680588E+02 0.  0.
         -6    2    1    2    0  503 -0.25467734934E+03 -0.79006377862E+02 -0.23366629953E+02  0.31868982935E+03  0.17295851505E+03 0.  0.
        -24    2    5    5    0    0 -0.95511624676E+02 -0.85142516603E+02  0.24270589064E+02  0.15236852963E+03  0.79091015582E+02 0.  0.
          4    1    4    4  501    0  0.18078075260E+03  0.57336964518E+02 -0.32285823927E+02  0.19238394537E+03  0.00000000000E+00 0. -1.
         -3    1    4    4    0  501  0.68442096751E+02 -0.13210974337E+02 -0.50360423123E+02  0.85994317648E+02  0.00000000000E+00 0.  1.
          5    1    3    3  502    0  0.54544999882E+01  0.34880387681E+02 -0.52206551661E+02  0.63198157024E+02  0.47000000000E+01 0. -1.
         11    1    6    6    0    0  0.22096067517E+01 -0.10113938692E+02  0.27229446700E+02  0.29131029598E+02  0.00000000000E+00 0. -1.
        -12    1    6    6    0    0 -0.97721231428E+02 -0.75028577911E+02 -0.29588576363E+01  0.12323750003E+03  0.00000000000E+00 0.  1.
         -5    1    5    5    0  503 -0.15916572466E+03  0.61361387410E+01 -0.47637219017E+02  0.16632129972E+03  0.47000000000E+01 0.  1.
<mgrwt>
<rscale>  2 0.31682673E+03</rscale>
<asrwt>0</asrwt>
<pdfrwt beam="1">  1       21 0.38618986E-01 0.31783204E+03</pdfrwt>
<pdfrwt beam="2">  1       21 0.62960437E-01 0.31783204E+03</pdfrwt>
<totfact> 0.14165390E+04</totfact>
</mgrwt>
</event>
<event>
12    1  0.1441827E-001  0.1783230E+03  0.7546771E-02  0.1169464E+00
         21   -1    0    0  504  503  0.00000000000E+00  0.00000000000E+00  0.10213337648E+03  0.10213337648E+03  0.00000000000E+00 0.  1.
         21   -1    0    0  502  504 -0.00000000000E+00 -0.00000000000E+00 -0.52757932349E+03  0.52757932349E+03  0.00000000000E+00 0. -1.
          6    2    1    2  502    0 -0.39718367493E+02  0.18151209595E+02 -0.41442817402E+03  0.45116493985E+03  0.17289325147E+03 0.  0.
         24    2    3    3    0    0 -0.85269774712E+02 -0.18986818551E+02 -0.30587989255E+03  0.32763768276E+03  0.78437929218E+02 0.  0.
         -6    2    1    2    0  503  0.39718367493E+02 -0.18151209595E+02 -0.11017772995E+02  0.17854776012E+03  0.17277411900E+03 0.  0.
        -24    2    5    5    0    0  0.84883567570E+02 -0.30091467470E+02 -0.32732123096E+02  0.12681703369E+03  0.83068957466E+02 0.  0.
          2    1    4    4  501    0 -0.86237499471E+01 -0.44072600406E+01 -0.17499684423E+03  0.17526462420E+03  0.00000000000E+00 0. -1.
         -1    1    4    4    0  501 -0.76646024765E+02 -0.14579558511E+02 -0.13088304832E+03  0.15237305857E+03  0.00000000000E+00 0.  1.
          5    1    3    3  502    0  0.45551407219E+02  0.37138028147E+02 -0.10854828147E+03  0.12352725709E+03  0.47000000000E+01 0. -1.
         13    1    6    6    0    0  0.38328176696E+02 -0.15566327865E+02  0.27230250002E+02  0.49526217373E+02  0.00000000000E+00 0. -1.
        -14    1    6    6    0    0  0.46555390874E+02 -0.14525139605E+02 -0.59962373098E+02  0.77290816321E+02  0.00000000000E+00 0.  1.
         -5    1    5    5    0  503 -0.45165200077E+02  0.11940257874E+02  0.21714350100E+02  0.51730726425E+02  0.47000000000E+01 0.  1.
<mgrwt>
<rscale>  2 0.17829412E+03</rscale>
<asrwt>0</asrwt>
<pdfrwt beam="1">  1       21 0.15712827E-01 0.17832300E+03</pdfrwt>
<pdfrwt beam="2">  1       21 0.81166051E-01 0.17832300E+03</pdfrwt>
<totfact> 0.48312767E+04</totfact>
</mgrwt>
</event>
<event>
12    1  0.1441827E-001  0.1872191E+03  0.7546771E-02  0.1161052E+00
         21   -1    0    0  504  503  0.00000000000E+00  0.00000000000E+00  0.56382084315E+02  0.56382084315E+02  0.00000000000E+00 0.  1.
         21   -1    0    0  502  504 -0.00000000000E+00 -0.00000000000E+00 -0.12251785408E+04  0.12251785408E+04  0.00000000000E+00 0.  1.
          6    2    1    2  502    0 -0.72348246337E+02 -0.15650964868E+01 -0.13415493795E+03  0.23011682742E+03  0.17239341231E+03 0.  0.
         24    2    3    3    0    0  0.15502433566E+02  0.51871008285E+02 -0.65953444641E+02  0.10663932768E+03  0.63962195086E+02 0.  0.
         -6    2    1    2    0  503  0.72348246337E+02  0.15650964868E+01 -0.10346415186E+04  0.10514437977E+04  0.17266809077E+03 0.  0.
        -24    2    5    5    0    0  0.49082082230E+02  0.66852186772E+02 -0.57986586604E+03  0.59139303675E+03  0.81382035135E+02 0.  0.
          2    1    4    4  501    0  0.38037700320E+02  0.47389055573E+02 -0.46120983914E+02  0.76287183661E+02  0.00000000000E+00 0. -1.
         -1    1    4    4    0  501 -0.22535266755E+02  0.44819527122E+01 -0.19832460728E+02  0.30352144015E+02  0.00000000000E+00 0.  1.
          5    1    3    3  502    0 -0.87850679902E+02 -0.53436104772E+02 -0.68201493309E+02  0.12347749974E+03  0.47000000000E+01 0. -1.
         13    1    6    6    0    0  0.29766004257E+02 -0.94291601597E+01 -0.90354559975E+02  0.95597440232E+02  0.00000000000E+00 0. -1.
        -14    1    6    6    0    0  0.19316077973E+02  0.76281346931E+02 -0.48951130606E+03  0.49579559651E+03  0.00000000000E+00 0.  1.
         -5    1    5    5    0  503  0.23266164107E+02 -0.65287090285E+02 -0.45477565251E+03  0.46005076097E+03  0.47000000000E+01 0.  1.
<mgrwt>
<rscale>  2 0.18715573E+03</rscale>
<asrwt>0</asrwt>
<pdfrwt beam="1">  1       21 0.86741672E-02 0.18721909E+03</pdfrwt>
<pdfrwt beam="2">  1       21 0.18848900E+00 0.18721909E+03</pdfrwt>
<totfact> 0.16698785E+04</totfact>
</mgrwt>
</event>
<event>
12    1  0.1441827E-001  0.1770081E+03  0.7546771E-02  0.1171785E+00
         21   -1    0    0  504  503  0.00000000000E+00  0.00000000000E+00  0.20264487557E+03  0.20264487557E+03  0.00000000000E+00 0. -1.
         21   -1    0    0  502  504 -0.00000000000E+00 -0.00000000000E+00 -0.26668966138E+03  0.26668966138E+03  0.00000000000E+00 0. -1.
          6    2    1    2  502    0  0.26887219670E+01 -0.95434365155E+01 -0.18681986933E+03  0.25735873014E+03  0.17673015022E+03 0.  0.
         24    2    3    3    0    0  0.57767443533E+02  0.32049821948E+02 -0.13414145853E+03  0.17040604367E+03  0.81731390578E+02 0.  0.
         -6    2    1    2    0  503 -0.26887219670E+01  0.95434365155E+01  0.12277508352E+03  0.21197580681E+03  0.17251584023E+03 0.  0.
        -24    2    5    5    0    0 -0.37391896200E+02  0.59458990021E+01  0.64312190681E+01  0.90422372573E+02  0.81861695967E+02 0.  0.
          4    1    4    4  501    0  0.56895870567E+01  0.46138174358E+02 -0.87531488426E+02  0.99110362728E+02  0.00000000000E+00 0. -1.
         -3    1    4    4    0  501  0.52077856476E+02 -0.14088352410E+02 -0.46609970099E+02  0.71295680945E+02  0.00000000000E+00 0.  1.
          5    1    3    3  502    0 -0.55078721566E+02 -0.41593258464E+02 -0.52678410804E+02  0.86952686467E+02  0.47000000000E+01 0. -1.
         13    1    6    6    0    0 -0.50624636174E+01 -0.36142864340E+02  0.78535727408E+01  0.37331136942E+02  0.00000000000E+00 0. -1.
        -14    1    6    6    0    0 -0.32329432583E+02  0.42088763342E+02 -0.14223536727E+01  0.53091235631E+02  0.00000000000E+00 0.  1.
         -5    1    5    5    0  503  0.34703174233E+02  0.35975375134E+01  0.11634386445E+03  0.12155343423E+03  0.47000000000E+01 0.  1.
<mgrwt>
<rscale>  2 0.17594667E+03</rscale>
<asrwt>0</asrwt>
<pdfrwt beam="1">  1       21 0.31176135E-01 0.17700806E+03</pdfrwt>
<pdfrwt beam="2">  1       21 0.41029178E-01 0.17700806E+03</pdfrwt>
<totfact> 0.56962547E+04</totfact>
</mgrwt>
</event>
<event>
12    1  0.1441827E-001  0.2297413E+03  0.7546771E-02  0.1126885E+00
         21   -1    0    0  504  503  0.00000000000E+00  0.00000000000E+00  0.18119903720E+03  0.18119903720E+03  0.00000000000E+00 0.  1.
         21   -1    0    0  502  504 -0.00000000000E+00 -0.00000000000E+00 -0.48356320063E+03  0.48356320063E+03  0.00000000000E+00 0. -1.
          6    2    1    2  502    0  0.57125309102E+02 -0.13929783983E+03 -0.36108936606E+03  0.42797964739E+03  0.17353345261E+03 0.  0.
         24    2    3    3    0    0  0.58409799194E+02 -0.33482547753E+02 -0.94212390335E+02  0.14084912633E+03  0.80185511463E+02 0.  0.
         -6    2    1    2    0  503 -0.57125309102E+02  0.13929783983E+03  0.58725202628E+02  0.23678259045E+03  0.17306113543E+03 0.  0.
        -24    2    5    5    0    0 -0.10077167384E+03  0.89774190266E+02  0.45528564327E+02  0.16930045739E+03  0.91517535018E+02 0.  0.
          4    1    4    4  501    0  0.37349337266E+02 -0.59207793396E+02 -0.74356779758E+02  0.10212475943E+03  0.00000000000E+00 0. -1.
         -3    1    4    4    0  501  0.21060461928E+02  0.25725245643E+02 -0.19855610577E+02  0.38724366895E+02  0.00000000000E+00 0.  1.
          5    1    3    3  502    0 -0.12844900913E+01 -0.10581529207E+03 -0.26687697573E+03  0.28713052106E+03  0.47000000000E+01 0. -1.
         13    1    6    6    0    0 -0.34873545232E+02 -0.16055566960E+02  0.11093917772E+02  0.39962737632E+02  0.00000000000E+00 0. -1.
        -14    1    6    6    0    0 -0.65898128605E+02  0.10582975723E+03  0.34434646555E+02  0.12933771976E+03  0.00000000000E+00 0.  1.
         -5    1    5    5    0  503  0.43646364735E+02  0.49523649561E+02  0.13196638300E+02  0.67482133064E+02  0.47000000000E+01 0.  1.
<mgrwt>
<rscale>  2 0.22965207E+03</rscale>
<asrwt>0</asrwt>
<pdfrwt beam="1">  1       21 0.27876776E-01 0.22974126E+03</pdfrwt>
<pdfrwt beam="2">  1       21 0.74394336E-01 0.22974126E+03</pdfrwt>
<totfact> 0.19470550E+04</totfact>
</mgrwt>
</event>
<event>
12    1  0.1441827E-001  0.2612025E+03  0.7546771E-02  0.1106534E+00
         21   -1    0    0  504  503  0.00000000000E+00  0.00000000000E+00  0.18083262493E+03  0.18083262493E+03  0.00000000000E+00 0.  1.
         21   -1    0    0  502  504 -0.00000000000E+00 -0.00000000000E+00 -0.66083089921E+03  0.66083089921E+03  0.00000000000E+00 0. -1.
          6    2    1    2  502    0 -0.18794678709E+03 -0.54414067634E+02 -0.51637133827E+03  0.57867618398E+03  0.17303722543E+03 0.  0.
         24    2    3    3    0    0 -0.93949637307E+02  0.28844478566E+02 -0.33434154041E+03  0.35748760608E+03  0.79715648192E+02 0.  0.
         -6    2    1    2    0  503  0.18794678709E+03  0.54414067634E+02  0.36373063987E+02  0.26298734017E+03  0.17191409416E+03 0.  0.
        -24    2    5    5    0    0  0.16479663668E+03  0.46064005276E+02 -0.30560135511E+02  0.19151849241E+03  0.80408873928E+02 0.  0.
          2    1    4    4  501    0 -0.87533902421E+02  0.51597527085E+02 -0.28919573208E+03  0.30652676935E+03  0.00000000000E+00 0. -1.
         -1    1    4    4    0  501 -0.64157348866E+01 -0.22753048519E+02 -0.45145808328E+02  0.50960836734E+02  0.00000000000E+00 0.  1.
          5    1    3    3  502    0 -0.93997149779E+02 -0.83258546200E+02 -0.18202979786E+03  0.22118857789E+03  0.47000000000E+01 0. -1.
         13    1    6    6    0    0  0.15044809941E+03  0.42061175812E+02  0.14370612284E+01  0.15622368026E+03  0.00000000000E+00 0. -1.
        -14    1    6    6    0    0  0.14348537272E+02  0.40028294640E+01 -0.31997196739E+02  0.35294812151E+02  0.00000000000E+00 0.  1.
         -5    1    5    5    0  503  0.23150150401E+02  0.83500623576E+01  0.66933199498E+02  0.71468847759E+02  0.47000000000E+01 0.  1.
<mgrwt>
<rscale>  2 0.26101667E+03</rscale>
<asrwt>0</asrwt>
<pdfrwt beam="1">  1       21 0.27820405E-01 0.26120254E+03</pdfrwt>
<pdfrwt beam="2">  1       21 0.10166629E+00 0.26120254E+03</pdfrwt>
<totfact> 0.93243364E+03</totfact>
</mgrwt>
</event>
<event>
12    1  0.1441827E-001  0.1760048E+03  0.7546771E-02  0.1171732E+00
         21   -1    0    0  504  503  0.00000000000E+00  0.00000000000E+00  0.21846840663E+03  0.21846840663E+03  0.00000000000E+00 0.  1.
         21   -1    0    0  502  504 -0.00000000000E+00 -0.00000000000E+00 -0.28442975102E+03  0.28442975102E+03  0.00000000000E+00 0.  1.
          6    2    1    2  502    0 -0.27953137119E+02  0.56567802222E+01 -0.21105484398E+03  0.27479770276E+03  0.17365555919E+03 0.  0.
         24    2    3    3    0    0  0.54428165095E+02 -0.12058579793E+02 -0.89568674418E+02  0.12687376173E+03  0.70473892164E+02 0.  0.
         -6    2    1    2    0  503  0.27953137119E+02 -0.56567802222E+01  0.14509349959E+03  0.22810045490E+03  0.17367877494E+03 0.  0.
        -24    2    5    5    0    0 -0.50431581673E+02 -0.14279374310E+02  0.87166162254E+02  0.13014036262E+03  0.81187001297E+02 0.  0.
          2    1    4    4  501    0  0.41212171957E+02 -0.32182676031E+02 -0.24991655585E+02  0.57954728908E+02  0.00000000000E+00 0. -1.
         -1    1    4    4    0  501  0.13215993137E+02  0.20124096238E+02 -0.64577018832E+02  0.68919032823E+02  0.00000000000E+00 0.  1.
          5    1    3    3  502    0 -0.82381302214E+02  0.17715360016E+02 -0.12148616956E+03  0.14792394103E+03  0.47000000000E+01 0. -1.
         11    1    6    6    0    0 -0.32226020401E+02  0.28243393913E+02  0.17001636315E+02  0.46100556700E+02  0.00000000000E+00 0. -1.
        -12    1    6    6    0    0 -0.18205561272E+02 -0.42522768223E+02  0.70164525939E+02  0.84039805919E+02  0.00000000000E+00 0.  1.
         -5    1    5    5    0  503  0.78384718792E+02  0.86225940874E+01  0.57927337331E+02  0.97960092278E+02  0.47000000000E+01 0.  1.
<mgrwt>
<rscale>  2 0.17599908E+03</rscale>
<asrwt>0</asrwt>
<pdfrwt beam="1">  1       21 0.33610524E-01 0.17600481E+03</pdfrwt>
<pdfrwt beam="2">  1       21 0.43758423E-01 0.17600481E+03</pdfrwt>
<totfact> 0.43142730E+04</totfact>
</mgrwt>
</event>
<event>
12    1  0.1441827E-001  0.2208697E+03  0.7546771E-02  0.1133262E+00
         21   -1    0    0  504  503  0.00000000000E+00  0.00000000000E+00  0.83313479404E+02  0.83313479404E+02  0.00000000000E+00 0. -1.
         21   -1    0    0  502  504 -0.00000000000E+00 -0.00000000000E+00 -0.65990766906E+03  0.65990766906E+03  0.00000000000E+00 0. -1.
          6    2    1    2  502    0 -0.41428127967E+02  0.13502941043E+03 -0.16331740638E+03  0.27469256342E+03  0.16980635355E+03 0.  0.
         24    2    3    3    0    0  0.58857981041E+01  0.68370288717E+02 -0.16117876087E+03  0.19278584873E+03  0.80490070915E+02 0.  0.
         -6    2    1    2    0  503  0.41428127967E+02 -0.13502941043E+03 -0.41327678327E+03  0.46852858504E+03  0.16962341802E+03 0.  0.
        -24    2    5    5    0    0 -0.23044596630E+01 -0.15272966615E+03 -0.30297283332E+03  0.34846656087E+03  0.79402423487E+02 0.  0.
          4    1    4    4  501    0  0.22876258678E+02 -0.69415303601E+01 -0.66215661363E+02  0.70399018918E+02  0.00000000000E+00 0. -1.
         -3    1    4    4    0  501 -0.16990460574E+02  0.75311819077E+02 -0.94963099508E+02  0.12238682981E+03  0.00000000000E+00 0.  1.
          5    1    3    3  502    0 -0.47313926071E+02  0.66659121711E+02 -0.21386455139E+01  0.81906714695E+02  0.47000000000E+01 0. -1.
         11    1    6    6    0    0  0.30582522405E+02 -0.81605329292E+02 -0.11104277804E+03  0.14115671788E+03  0.00000000000E+00 0. -1.
        -12    1    6    6    0    0 -0.32886982068E+02 -0.71124336859E+02 -0.19193005527E+03  0.20730984299E+03  0.00000000000E+00 0.  1.
         -5    1    5    5    0  503  0.43732587630E+02  0.17700255723E+02 -0.11030394995E+03  0.12006202417E+03  0.47000000000E+01 0.  1.
<mgrwt>
<rscale>  2 0.22083455E+03</rscale>
<asrwt>0</asrwt>
<pdfrwt beam="1">  1       21 0.12817458E-01 0.22086971E+03</pdfrwt>
<pdfrwt beam="2">  1       21 0.10152426E+00 0.22086971E+03</pdfrwt>
<totfact> 0.40687444E+04</totfact>
</mgrwt>
</event>
<event>
12    1  0.1441827E-001  0.1949060E+03  0.7546771E-02  0.1154166E+00
         21   -1    0    0  504  503  0.00000000000E+00  0.00000000000E+00  0.10063430782E+03  0.10063430782E+03  0.00000000000E+00 0. -1.
         21   -1    0    0  502  504 -0.00000000000E+00 -0.00000000000E+00 -0.45276386065E+03  0.45276386065E+03  0.00000000000E+00 0.  1.
          6    2    1    2  502    0  0.56222133189E+02 -0.68636677887E+02 -0.28916485225E+03  0.34857412355E+03  0.17325035648E+03 0.  0.
         24    2    3    3    0    0  0.70657868489E+02 -0.93354858180E+02 -0.14652628871E+03  0.20301578920E+03  0.77703239670E+02 0.  0.
         -6    2    1    2    0  503 -0.56222133189E+02  0.68636677887E+02 -0.62964700577E+02  0.20482404492E+03  0.17354081378E+03 0.  0.
        -24    2    5    5    0    0 -0.67871282127E+02  0.86130536701E+02  0.22222796240E+01  0.13617151288E+03  0.80701685881E+02 0.  0.
          2    1    4    4  501    0  0.28611143561E+02 -0.77265733541E+02 -0.49666569800E+02  0.96204777798E+02  0.00000000000E+00 0. -1.
         -1    1    4    4    0  501  0.42046724928E+02 -0.16089124639E+02 -0.96859718912E+02  0.10681101140E+03  0.00000000000E+00 0.  1.
          5    1    3    3  502    0 -0.14435735300E+02  0.24718180293E+02 -0.14263856354E+03  0.14555833435E+03  0.47000000000E+01 0. -1.
         11    1    6    6    0    0  0.15155572851E+02  0.34009855114E+02  0.75676971096E+01  0.37995153281E+02  0.00000000000E+00 0. -1.
        -12    1    6    6    0    0 -0.83026854978E+02  0.52120681587E+02 -0.53454174856E+01  0.98176359602E+02  0.00000000000E+00 0.  1.
         -5    1    5    5    0  503  0.11649148938E+02 -0.17493858814E+02 -0.65186980202E+02  0.68652532036E+02  0.47000000000E+01 0.  1.
<mgrwt>
<rscale>  2 0.19484129E+03</rscale>
<asrwt>0</asrwt>
<pdfrwt beam="1">  1       21 0.15482201E-01 0.19490597E+03</pdfrwt>
<pdfrwt beam="2">  1       21 0.69655979E-01 0.19490597E+03</pdfrwt>
<totfact> 0.69293049E+04</totfact>
</mgrwt>
</event>
<event>
12    1  0.1441827E-001  0.1953908E+03  0.7546771E-02  0.1154241E+00
         21   -1    0    0  504  503  0.00000000000E+00  0.00000000000E+00  0.12572167734E+03  0.12572167734E+03  0.00000000000E+00 0.  1.
         21   -1    0    0  502  504 -0.00000000000E+00 -0.00000000000E+00 -0.30300442782E+03  0.30300442782E+03  0.00000000000E+00 0.  1.
          6    2    1    2  502    0 -0.76991043211E+02 -0.44557178914E+02 -0.66990436111E+02  0.20655573473E+03  0.17396720981E+03 0.  0.
         24    2    3    3    0    0  0.15852007484E+02 -0.16870028805E+02 -0.60110676345E+02  0.10931463520E+03  0.88320507495E+02 0.  0.
         -6    2    1    2    0  503  0.76991043211E+02  0.44557178914E+02 -0.11029231437E+03  0.22217037043E+03  0.17112076426E+03 0.  0.
        -24    2    5    5    0    0  0.84391688256E+02  0.33585370230E+01 -0.15548922356E+02  0.11848576226E+03  0.81632530609E+02 0.  0.
          4    1    4    4  501    0  0.22389644279E+02 -0.96834082800E+01 -0.81900968960E+02  0.85456616382E+02  0.00000000000E+00 0. -1.
         -3    1    4    4    0  501 -0.65376367955E+01 -0.71866205252E+01  0.21790292615E+02  0.23858018813E+02  0.00000000000E+00 0.  1.
          5    1    3    3  502    0 -0.92843050695E+02 -0.27687150109E+02 -0.68797597657E+01  0.97241099531E+02  0.47000000000E+01 0. -1.
         13    1    6    6    0    0  0.57837395475E+02 -0.81447929068E+00  0.30329747964E+02  0.65312489643E+02  0.00000000000E+00 0. -1.
        -14    1    6    6    0    0  0.26554292781E+02  0.41730163137E+01 -0.45878670319E+02  0.53173272614E+02  0.00000000000E+00 0.  1.
         -5    1    5    5    0  503 -0.74006450447E+01  0.41198641891E+02 -0.94743392018E+02  0.10368460817E+03  0.47000000000E+01 0.  1.
<mgrwt>
<rscale>  2 0.19475518E+03</rscale>
<asrwt>0</asrwt>
<pdfrwt beam="1">  1       21 0.19341797E-01 0.19539077E+03</pdfrwt>
<pdfrwt beam="2">  1       21 0.46616065E-01 0.19539077E+03</pdfrwt>
<totfact> 0.10815726E+05</totfact>
</mgrwt>
</event>
<event>
12    1  0.1441827E-001  0.1767883E+03  0.7546771E-02  0.1171377E+00
         21   -1    0    0  504  503  0.00000000000E+00  0.00000000000E+00  0.16545383472E+03  0.16545383472E+03  0.00000000000E+00 0. -1.
         21   -1    0    0  502  504 -0.00000000000E+00 -0.00000000000E+00 -0.18849801062E+03  0.18849801062E+03  0.00000000000E+00 0. -1.
          6    2    1    2  502    0  0.25707125247E+02 -0.89997025966E+01 -0.26913756355E+02  0.17712119122E+03  0.17293268969E+03 0.  0.
         24    2    3    3    0    0 -0.98668223717E+00 -0.56837190115E+02  0.26331592152E+02  0.10058269301E+03  0.78689806623E+02 0.  0.
         -6    2    1    2    0  503 -0.25707125247E+02  0.89997025966E+01  0.38695804493E+01  0.17683065412E+03  0.17467757626E+03 0.  0.
        -24    2    5    5    0    0  0.51510590002E+02  0.94541960597E+00  0.13381222903E+02  0.98472448650E+02  0.82846432127E+02 0.  0.
          2    1    4    4  501    0 -0.17845700944E+00 -0.32552871400E+02 -0.26795439734E+02  0.42162979898E+02  0.00000000000E+00 0. -1.
         -1    1    4    4    0  501 -0.80822522773E+00 -0.24284318714E+02  0.53127031885E+02  0.58419713115E+02  0.00000000000E+00 0.  1.
          5    1    3    3  502    0  0.26693807484E+02  0.47837487518E+02 -0.53245348507E+02  0.76538498206E+02  0.47000000000E+01 0. -1.
         13    1    6    6    0    0  0.38341052108E+02  0.33168241943E+02  0.31034745970E+02  0.59441769891E+02  0.00000000000E+00 0. -1.
        -14    1    6    6    0    0  0.13169537895E+02 -0.32222822337E+02 -0.17653523067E+02  0.39030678759E+02  0.00000000000E+00 0.  1.
         -5    1    5    5    0  503 -0.77217715249E+02  0.80542829906E+01 -0.95116424542E+01  0.78358205473E+02  0.47000000000E+01 0.  1.
<mgrwt>
<rscale>  2 0.17635576E+03</rscale>
<asrwt>0</asrwt>
<pdfrwt beam="1">  1       21 0.25454436E-01 0.17678831E+03</pdfrwt>
<pdfrwt beam="2">  1       21 0.28999694E-01 0.17678831E+03</pdfrwt>
<totfact> 0.16739371E+05</totfact>
</mgrwt>
</event>
<event>
12    1  0.1441827E-001  0.1886208E+03  0.7546771E-02  0.1159759E+00
         21   -1    0    0  504  503  0.00000000000E+00  0.00000000000E+00  0.12200695315E+04  0.12200695315E+04  0.00000000000E+00 0. -1.
         21   -1    0    0  502  504 -0.00000000000E+00 -0.00000000000E+00 -0.35495301875E+02  0.35495301875E+02  0.00000000000E+00 0. -1.
          6    2    1    2  502    0 -0.25909159287E+02  0.66435641761E+02  0.85844844617E+03  0.87892635421E+03  0.17462194125E+03 0.  0.
         24    2    3    3    0    0  0.28117921921E+02  0.67783812072E+02  0.34060049915E+03  0.35824475352E+03  0.83338710637E+02 0.  0.
         -6    2    1    2    0  503  0.25909159287E+02 -0.66435641761E+02  0.32612578347E+03  0.37663847917E+03  0.17439477722E+03 0.  0.
        -24    2    5    5    0    0  0.42135697080E+02  0.11319318777E+02  0.95803765806E+02  0.13295947672E+03  0.81217713348E+02 0.  0.
          2    1    4    4  501    0  0.46400174385E+02  0.10071501230E+02  0.10959102995E+03  0.11943452250E+03  0.00000000000E+00 0. -1.
         -1    1    4    4    0  501 -0.18282252465E+02  0.57712310842E+02  0.23100946920E+03  0.23881023101E+03  0.00000000000E+00 0.  1.
          5    1    3    3  502    0 -0.54027081207E+02 -0.13481703114E+01  0.51784794702E+03  0.52068160069E+03  0.47000000000E+01 0. -1.
         13    1    6    6    0    0 -0.13034685870E+02  0.30092557980E+02  0.24879575843E+02  0.41163799334E+02  0.00000000000E+00 0. -1.
        -14    1    6    6    0    0  0.55170382950E+02 -0.18773239204E+02  0.70924189963E+02  0.91795677387E+02  0.00000000000E+00 0.  1.
         -5    1    5    5    0  503 -0.16226537793E+02 -0.77754960537E+02  0.23032201766E+03  0.24367900245E+03  0.47000000000E+01 0.  1.
<mgrwt>
<rscale>  2 0.18856819E+03</rscale>
<asrwt>0</asrwt>
<pdfrwt beam="1">  1       21 0.18770297E+00 0.18862079E+03</pdfrwt>
<pdfrwt beam="2">  1       21 0.54608166E-02 0.18862079E+03</pdfrwt>
<totfact> 0.37502469E+04</totfact>
</mgrwt>
</event>
<event>
12    1  0.1441827E-001  0.2334758E+03  0.7546771E-02  0.1124472E+00
         21   -1    0    0  504  503  0.00000000000E+00  0.00000000000E+00  0.45920548222E+03  0.45920548222E+03  0.00000000000E+00 0.  1.
         21   -1    0    0  502  504 -0.00000000000E+00 -0.00000000000E+00 -0.23638057789E+03  0.23638057789E+03  0.00000000000E+00 0.  1.
          6    2    1    2  502    0  0.14474205257E+03 -0.59883139683E+02 -0.13492796004E+03  0.26838815704E+03  0.17114437251E+03 0.  0.
         24    2    3    3    0    0  0.10490830677E+03  0.23236855281E+02 -0.50070373385E+02  0.14301447208E+03  0.80002454099E+02 0.  0.
         -6    2    1    2    0  503 -0.14474205257E+03  0.59883139683E+02  0.35775286437E+03  0.42719790307E+03  0.17313198498E+03 0.  0.
        -24    2    5    5    0    0 -0.11060854759E+03 -0.23464754838E+02  0.24761293385E+03  0.28484319828E+03  0.83896585586E+02 0.  0.
          4    1    4    4  501    0  0.59140875620E+02  0.48522211817E+02 -0.48746838214E+02  0.90709990875E+02  0.00000000000E+00 0. -1.
         -3    1    4    4    0  501  0.45767431151E+02 -0.25285356535E+02 -0.13235351710E+01  0.52304481210E+02  0.00000000000E+00 0.  1.
          5    1    3    3  502    0  0.39833745798E+02 -0.83119994965E+02 -0.84857586653E+02  0.12537368496E+03  0.47000000000E+01 0. -1.
         11    1    6    6    0    0 -0.86557139086E+01 -0.11478512255E+02  0.12096532502E+03  0.12181661415E+03  0.00000000000E+00 0. -1.
        -12    1    6    6    0    0 -0.10195283368E+03 -0.11986242583E+02  0.12664760883E+03  0.16302658412E+03  0.00000000000E+00 0.  1.
         -5    1    5    5    0  503 -0.34133504976E+02  0.83347894521E+02  0.11013993052E+03  0.14235470480E+03  0.47000000000E+01 0.  1.
<mgrwt>
<rscale>  2 0.23310739E+03</rscale>
<asrwt>0</asrwt>
<pdfrwt beam="1">  1       21 0.70646997E-01 0.23347577E+03</pdfrwt>
<pdfrwt beam="2">  1       21 0.36366243E-01 0.23347577E+03</pdfrwt>
<totfact> 0.12909068E+04</totfact>
</mgrwt>
</event>
<event>
12    1  0.1441827E-001  0.1942448E+03  0.7546771E-02  0.1154771E+00
         21   -1    0    0  504  503  0.00000000000E+00  0.00000000000E+00  0.47100793987E+02  0.47100793987E+02  0.00000000000E+00 0. -1.
         21   -1    0    0  502  504 -0.00000000000E+00 -0.00000000000E+00 -0.86515071490E+03  0.86515071490E+03  0.00000000000E+00 0. -1.
          6    2    1    2  502    0  0.36559464757E+02  0.79013576609E+02 -0.53429797388E+03  0.56838203982E+03  0.17321685407E+03 0.  0.
         24    2    3    3    0    0  0.28071133160E+02  0.79705556084E+02 -0.20312152731E+03  0.23706276876E+03  0.88314422867E+02 0.  0.
         -6    2    1    2    0  503 -0.36559464757E+02 -0.79013576609E+02 -0.28375194703E+03  0.34386946907E+03  0.17364131008E+03 0.  0.
        -24    2    5    5    0    0 -0.39757096129E+02 -0.68519312781E+02 -0.30178198338E+03  0.32224710494E+03  0.80593475139E+02 0.  0.
          4    1    4    4  501    0  0.40562075537E+02  0.13413616480E+02 -0.32777161648E+02  0.53847464236E+02  0.00000000000E+00 0. -1.
         -3    1    4    4    0  501 -0.12490942377E+02  0.66291939604E+02 -0.17034436566E+03  0.18321530452E+03  0.00000000000E+00 0.  1.
          5    1    3    3  502    0  0.84883315971E+01 -0.69197947562E+00 -0.33117644657E+03  0.33131927106E+03  0.47000000000E+01 0. -1.
         13    1    6    6    0    0 -0.64492869580E+02 -0.43284190188E+02 -0.20765804703E+03  0.22170862825E+03  0.00000000000E+00 0. -1.
        -14    1    6    6    0    0  0.24735773451E+02 -0.25235122594E+02 -0.94123936355E+02  0.10053847669E+03  0.00000000000E+00 0.  1.
         -5    1    5    5    0  503  0.31976313718E+01 -0.10494263827E+02  0.18030036351E+02  0.21622364128E+02  0.47000000000E+01 0.  1.
<mgrwt>
<rscale>  2 0.19414990E+03</rscale>
<asrwt>0</asrwt>
<pdfrwt beam="1">  1       21 0.72462763E-02 0.19424481E+03</pdfrwt>
<pdfrwt beam="2">  1       21 0.13310010E+00 0.19424481E+03</pdfrwt>
<totfact> 0.57979980E+04</totfact>
</mgrwt>
</event>
<event>
12    1  0.1441827E-001  0.2055973E+03  0.7546771E-02  0.1145365E+00
         21   -1    0    0  504  503  0.00000000000E+00  0.00000000000E+00  0.99364871815E+03  0.99364871815E+03  0.00000000000E+00 0. -1.
         21   -1    0    0  502  504 -0.00000000000E+00 -0.00000000000E+00 -0.40107073829E+03  0.40107073829E+03  0.00000000000E+00 0. -1.
          6    2    1    2  502    0  0.89405813899E+02 -0.64374227835E+02 -0.36319799267E+03  0.41735241235E+03  0.17358805676E+03 0.  0.
         24    2    3    3    0    0  0.14671258233E+02  0.17034212193E+02 -0.89731818865E+02  0.12236355471E+03  0.80097627938E+02 0.  0.
         -6    2    1    2    0  503 -0.89405813899E+02  0.64374227835E+02  0.95577597252E+03  0.97736704409E+03  0.17204995918E+03 0.  0.
        -24    2    5    5    0    0 -0.32082648813E+02  0.18819471932E+02  0.80529180508E+03  0.80994913677E+03  0.78353327587E+02 0.  0.
          2    1    4    4  501    0  0.47880455897E+02  0.66479096065E+01 -0.49920602431E+02  0.69489562570E+02  0.00000000000E+00 0. -1.
         -1    1    4    4    0  501 -0.33209197664E+02  0.10386302587E+02 -0.39811216433E+02  0.52873992140E+02  0.00000000000E+00 0.  1.
          5    1    3    3  502    0  0.74734555666E+02 -0.81408440028E+02 -0.27346617380E+03  0.29498885764E+03  0.47000000000E+01 0. -1.
         13    1    6    6    0    0 -0.19942573750E+02  0.38279886020E+02  0.72918027714E+03  0.73045666024E+03  0.00000000000E+00 0. -1.
        -14    1    6    6    0    0 -0.12140075063E+02 -0.19460414088E+02  0.76111527949E+02  0.79492476536E+02  0.00000000000E+00 0.  1.
         -5    1    5    5    0  503 -0.57323165086E+02  0.45554755903E+02  0.15048416743E+03  0.16741790731E+03  0.47000000000E+01 0.  1.
<mgrwt>
<rscale>  2 0.20527230E+03</rscale>
<asrwt>0</asrwt>
<pdfrwt beam="1">  1       21 0.15286903E+00 0.20559731E+03</pdfrwt>
<pdfrwt beam="2">  1       21 0.61703191E-01 0.20559731E+03</pdfrwt>
<totfact> 0.68401321E+02</totfact>
</mgrwt>
</event>
<event>
12    1  0.1441827E-001  0.1741046E+03  0.7546771E-02  0.1174745E+00
         21   -1    0    0  504  503  0.00000000000E+00  0.00000000000E+00  0.21574248451E+03  0.21574248451E+03  0.00000000000E+00 0. -1.
         21   -1    0    0  502  504 -0.00000000000E+00 -0.00000000000E+00 -0.13702632201E+03  0.13702632201E+03  0.00000000000E+00 0. -1.
          6    2    1    2  502    0 -0.10913608038E+02  0.10157591750E+02  0.40540384433E+02  0.17876226505E+03  0.17346510060E+03 0.  0.
         24    2    3    3    0    0  0.32431190440E+02 -0.48146993406E+02  0.98161257393E+01  0.99741595113E+02  0.80511579191E+02 0.  0.
         -6    2    1    2    0  503  0.10913608038E+02 -0.10157591750E+02  0.38175778069E+02  0.17400654147E+03  0.16911121469E+03 0.  0.
        -24    2    5    5    0    0 -0.33494677121E+02  0.23781073194E+02  0.65235647219E+02  0.11173090187E+03  0.80874420723E+02 0.  0.
          2    1    4    4  501    0  0.61321308540E+01  0.51042360505E+01 -0.28145558649E+02  0.29254550521E+02  0.00000000000E+00 0. -1.
         -1    1    4    4    0  501  0.26299059586E+02 -0.53251229457E+02  0.37961684389E+02  0.70487044593E+02  0.00000000000E+00 0.  1.
          5    1    3    3  502    0 -0.43344798478E+02  0.58304585156E+02  0.30724258693E+02  0.79020669939E+02  0.47000000000E+01 0. -1.
         13    1    6    6    0    0  0.19228075620E+02 -0.14135606945E+02  0.28305618756E+02  0.37023537499E+02  0.00000000000E+00 0. -1.
        -14    1    6    6    0    0 -0.52722752741E+02  0.37916680139E+02  0.36930028463E+02  0.74707364373E+02  0.00000000000E+00 0.  1.
         -5    1    5    5    0  503  0.44408285159E+02 -0.33938664943E+02 -0.27059869151E+02  0.62275639598E+02  0.47000000000E+01 0.  1.
<mgrwt>
<rscale>  2 0.17300999E+03</rscale>
<asrwt>0</asrwt>
<pdfrwt beam="1">  1       21 0.33191152E-01 0.17410464E+03</pdfrwt>
<pdfrwt beam="2">  1       21 0.21080973E-01 0.17410464E+03</pdfrwt>
<totfact> 0.18382974E+05</totfact>
</mgrwt>
</event>
<event>
12    1  0.1441827E-001  0.1921269E+03  0.7546771E-02  0.1156741E+00
         21   -1    0    0  504  503  0.00000000000E+00  0.00000000000E+00  0.32236609412E+03  0.32236609412E+03  0.00000000000E+00 0.  1.
         21   -1    0    0  502  504 -0.00000000000E+00 -0.00000000000E+00 -0.28473665176E+03  0.28473665176E+03  0.00000000000E+00 0.  1.
          6    2    1    2  502    0 -0.83124669113E+02 -0.98512345759E+01 -0.21624876656E+03  0.28872108124E+03  0.17201620934E+03 0.  0.
         24    2    3    3    0    0 -0.47676635861E+02 -0.13505121326E+02 -0.39697104300E+02  0.10854757210E+03  0.88041271057E+02 0.  0.
         -6    2    1    2    0  503  0.83124669113E+02  0.98512345759E+01  0.25387820892E+03  0.31838166463E+03  0.17293346111E+03 0.  0.
        -24    2    5    5    0    0  0.76533162079E+02 -0.48754660837E+02  0.21738870495E+03  0.24887142911E+03  0.80279495123E+02 0.  0.
          4    1    4    4  501    0 -0.12083007860E+02 -0.47324649228E+02 -0.33113648803E+02  0.59009619898E+02  0.00000000000E+00 0. -1.
         -3    1    4    4    0  501 -0.35593628001E+02  0.33819527902E+02 -0.65834554976E+01  0.49537952200E+02  0.00000000000E+00 0.  1.
          5    1    3    3  502    0 -0.35448033252E+02  0.36538867500E+01 -0.17655166226E+03  0.18017350914E+03  0.47000000000E+01 0. -1.
         13    1    6    6    0    0  0.10765105630E+02 -0.17407502193E+02  0.93881725413E+00  0.20488777652E+02  0.00000000000E+00 0. -1.
        -14    1    6    6    0    0  0.65768056448E+02 -0.31347158644E+02  0.21644988770E+03  0.22838265146E+03  0.00000000000E+00 0.  1.
         -5    1    5    5    0  503  0.65915070349E+01  0.58605895413E+02  0.36489503966E+02  0.69510235519E+02  0.47000000000E+01 0.  1.
<mgrwt>
<rscale>  2 0.19192025E+03</rscale>
<asrwt>0</asrwt>
<pdfrwt beam="1">  1       21 0.49594784E-01 0.19212688E+03</pdfrwt>
<pdfrwt beam="2">  1       21 0.43805639E-01 0.19212688E+03</pdfrwt>
<totfact> 0.19413271E+04</totfact>
</mgrwt>
</event>
<event>
12    1  0.1441827E-001  0.3062734E+03  0.7546771E-02  0.1082380E+00
         21   -1    0    0  504  503  0.00000000000E+00  0.00000000000E+00  0.69346880405E+03  0.69346880405E+03  0.00000000000E+00 0. -1.
         21   -1    0    0  502  504 -0.00000000000E+00 -0.00000000000E+00 -0.50489889387E+03  0.50489889387E+03  0.00000000000E+00 0. -1.
          6    2    1    2  502    0  0.22001767389E+03 -0.12040818265E+03 -0.41905453342E+03  0.51791867356E+03  0.17241561173E+03 0.  0.
         24    2    3    3    0    0  0.21970505857E+03 -0.57102750709E+02 -0.33505013836E+03  0.41262620549E+03  0.80440992950E+02 0.  0.
         -6    2    1    2    0  503 -0.22001767389E+03  0.12040818265E+03  0.60762444360E+03  0.68044902436E+03  0.17577685576E+03 0.  0.
        -24    2    5    5    0    0 -0.18732589292E+03  0.28674736975E+02  0.36371011560E+03  0.41777038610E+03  0.79585278833E+02 0.  0.
          4    1    4    4  501    0  0.20708743458E+03 -0.52403826961E+02 -0.33702261151E+03  0.39901830448E+03  0.00000000000E+00 0. -1.
         -3    1    4    4    0  501  0.12617623988E+02 -0.46989237481E+01  0.19724731574E+01  0.13607901009E+02  0.00000000000E+00 0.  1.
          5    1    3    3  502    0  0.31261532115E+00 -0.63305431942E+02 -0.84004395060E+02  0.10529246806E+03  0.47000000000E+01 0. -1.
         13    1    6    6    0    0 -0.67661826711E+02  0.30787139587E+02  0.21123731766E+03  0.22393564953E+03  0.00000000000E+00 0. -1.
        -14    1    6    6    0    0 -0.11966406621E+03 -0.21124026116E+01  0.15247279794E+03  0.19383473657E+03  0.00000000000E+00 0.  1.
         -5    1    5    5    0  503 -0.32691780969E+02  0.91733445676E+02  0.24391432799E+03  0.26267863826E+03  0.47000000000E+01 0.  1.
<mgrwt>
<rscale>  2 0.30579313E+03</rscale>
<asrwt>0</asrwt>
<pdfrwt beam="1">  1       21 0.10668751E+00 0.30627342E+03</pdfrwt>
<pdfrwt beam="2">  1       21 0.77676753E-01 0.30627342E+03</pdfrwt>
<totfact> 0.94298029E+02</totfact>
</mgrwt>
</event>
<event>
12    1  0.1441827E-001  0.2285052E+03  0.7546771E-02  0.1128159E+00
         21   -1    0    0  504  503  0.00000000000E+00  0.00000000000E+00  0.58424785145E+03  0.58424785145E+03  0.00000000000E+00 0. -1.
         21   -1    0    0  502  504 -0.00000000000E+00 -0.00000000000E+00 -0.89383761337E+02  0.89383761337E+02  0.00000000000E+00 0.  1.
          6    2    1    2  502    0  0.11142883950E+03  0.96320331828E+02  0.28209632635E+03  0.36140610790E+03  0.17129519809E+03 0.  0.
         24    2    3    3    0    0  0.13340711239E+03  0.71004383725E+02  0.27874576380E+03  0.32738761327E+03  0.81512994956E+02 0.  0.
         -6    2    1    2    0  503 -0.11142883950E+03 -0.96320331828E+02  0.21276776376E+03  0.31222550489E+03  0.17470160849E+03 0.  0.
        -24    2    5    5    0    0 -0.10793894183E+03 -0.10295421392E+03  0.96622302361E+02  0.19574354928E+03  0.82032203703E+02 0.  0.
          2    1    4    4  501    0  0.12438032399E+03  0.87218872155E+02  0.25918919839E+03  0.30042742421E+03  0.00000000000E+00 0. -1.
         -1    1    4    4    0  501  0.90267883930E+01 -0.16214488430E+02  0.19556565410E+02  0.26960189064E+02  0.00000000000E+00 0.  1.
          5    1    3    3  502    0 -0.21978272882E+02  0.25315948103E+02  0.33505625550E+01  0.34018494627E+02  0.47000000000E+01 0. -1.
         11    1    6    6    0    0 -0.19913056735E+02 -0.40877858414E+02  0.72154775357E+02  0.85286814595E+02  0.00000000000E+00 0. -1.
        -12    1    6    6    0    0 -0.88025885098E+02 -0.62076355507E+02  0.24467527004E+02  0.11045673469E+03  0.00000000000E+00 0.  1.
         -5    1    5    5    0  503 -0.34898976704E+01  0.66338820925E+01  0.11614546140E+03  0.11648195560E+03  0.47000000000E+01 0.  1.
<mgrwt>
<rscale>  2 0.22785404E+03</rscale>
<asrwt>0</asrwt>
<pdfrwt beam="1">  1       21 0.89884282E-01 0.22850524E+03</pdfrwt>
<pdfrwt beam="2">  1       21 0.13751348E-01 0.22850524E+03</pdfrwt>
<totfact> 0.47556832E+04</totfact>
</mgrwt>
</event>
<event>
12    1  0.1441827E-001  0.2193122E+03  0.7546771E-02  0.1135589E+00
         21   -1    0    0  504  503  0.00000000000E+00  0.00000000000E+00  0.20909212357E+04  0.20909212357E+04  0.00000000000E+00 0.  1.
         21   -1    0    0  502  504 -0.00000000000E+00 -0.00000000000E+00 -0.39352595937E+02  0.39352595937E+02  0.00000000000E+00 0.  1.
          6    2    1    2  502    0  0.50997498961E+02  0.11190994161E+03  0.33415096023E+03  0.39969328746E+03  0.18158546165E+03 0.  0.
         24    2    3    3    0    0  0.96801782623E+02  0.84185848860E+02  0.17314505288E+03  0.22995333953E+03  0.80258873383E+02 0.  0.
         -6    2    1    2    0  503 -0.50997498961E+02 -0.11190994161E+03  0.17174176795E+04  0.17305805442E+04  0.17395675897E+03 0.  0.
        -24    2    5    5    0    0  0.12646125070E+02 -0.44446870843E+02  0.42817785304E+03  0.43800048979E+03  0.79829232825E+02 0.  0.
          4    1    4    4  501    0  0.94494343377E+02  0.36143958294E+02  0.13421606500E+03  0.16807593152E+03  0.00000000000E+00 0. -1.
         -3    1    4    4    0  501  0.23074392461E+01  0.48041890565E+02  0.38928987884E+02  0.61877408015E+02  0.00000000000E+00 0.  1.
          5    1    3    3  502    0 -0.45804283662E+02  0.27724092754E+02  0.16100590735E+03  0.16973994793E+03  0.47000000000E+01 0. -1.
         13    1    6    6    0    0  0.38036044814E+02 -0.31126533606E+02  0.36882245647E+03  0.37208279482E+03  0.00000000000E+00 0. -1.
        -14    1    6    6    0    0 -0.25389919744E+02 -0.13320337238E+02  0.59355396563E+02  0.65917694968E+02  0.00000000000E+00 0.  1.
         -5    1    5    5    0  503 -0.63643624031E+02 -0.67463070771E+02  0.12892398265E+04  0.12925800544E+04  0.47000000000E+01 0.  1.
<mgrwt>
<rscale>  2 0.21772677E+03</rscale>
<asrwt>0</asrwt>
<pdfrwt beam="1">  1       21 0.32168010E+00 0.21931224E+03</pdfrwt>
<pdfrwt beam="2">  1       21 0.60542471E-02 0.21931224E+03</pdfrwt>
<totfact> 0.48196163E+03</totfact>
</mgrwt>
</event>
<event>
12    1  0.1441827E-001  0.1797799E+03  0.7546771E-02  0.1168037E+00
         21   -1    0    0  504  503  0.00000000000E+00  0.00000000000E+00  0.25133968586E+03  0.25133968586E+03  0.00000000000E+00 0.  1.
         21   -1    0    0  502  504 -0.00000000000E+00 -0.00000000000E+00 -0.26557573824E+03  0.26557573824E+03  0.00000000000E+00 0.  1.
          6    2    1    2  502    0 -0.17987768662E+02 -0.42140706568E+02 -0.19278014303E+03  0.26360009386E+03  0.17384311020E+03 0.  0.
         24    2    3    3    0    0 -0.72928240118E+02 -0.12036710607E+02 -0.13417035459E+03  0.17768209064E+03  0.90032386803E+02 0.  0.
         -6    2    1    2    0  503  0.17987768662E+02  0.42140706568E+02  0.17854409065E+03  0.25331533025E+03  0.17375633877E+03 0.  0.
        -24    2    5    5    0    0  0.60878101547E+02  0.66224786998E+02  0.85787435273E+02  0.14821770563E+03  0.80728796287E+02 0.  0.
          2    1    4    4  501    0 -0.58377386947E+02 -0.18088335771E+01 -0.19401933408E+02  0.61543693468E+02  0.00000000000E+00 0. -1.
         -1    1    4    4    0  501 -0.14550853171E+02 -0.10227877030E+02 -0.11476842118E+03  0.11613839717E+03  0.00000000000E+00 0.  1.
          5    1    3    3  502    0  0.54940471456E+02 -0.30103995961E+02 -0.58609788436E+02  0.85918003220E+02  0.47000000000E+01 0. -1.
         11    1    6    6    0    0  0.24954390627E+01  0.15835145024E+02 -0.14561787526E+02  0.21656977859E+02  0.00000000000E+00 0. -1.
        -12    1    6    6    0    0  0.58382662484E+02  0.50389641975E+02  0.10034922280E+03  0.12656072777E+03  0.00000000000E+00 0.  1.
         -5    1    5    5    0  503 -0.42890332885E+02 -0.24084080430E+02  0.92756655373E+02  0.10509762462E+03  0.47000000000E+01 0.  1.
<mgrwt>
<rscale>  2 0.17975896E+03</rscale>
<asrwt>0</asrwt>
<pdfrwt beam="1">  1       21 0.38667644E-01 0.17977994E+03</pdfrwt>
<pdfrwt beam="2">  1       21 0.40857806E-01 0.17977994E+03</pdfrwt>
<totfact> 0.37458424E+04</totfact>
</mgrwt>
</event>
<event>
12    1  0.1441827E-001  0.2068029E+03  0.7546771E-02  0.1144422E+00
         21   -1    0    0  504  503  0.00000000000E+00  0.00000000000E+00  0.75442614863E+03  0.75442614863E+03  0.00000000000E+00 0. -1.
         21   -1    0    0  502  504 -0.00000000000E+00 -0.00000000000E+00 -0.57716396337E+02  0.57716396337E+02  0.00000000000E+00 0.  1.
          6    2    1    2  502    0 -0.16347900283E+02 -0.11092699016E+03  0.28318214452E+03  0.34978715616E+03  0.17200836214E+03 0.  0.
         24    2    3    3    0    0 -0.57945707647E+02 -0.25561980648E+02  0.10071232144E+03  0.14403271814E+03  0.81187020617E+02 0.  0.
         -6    2    1    2    0  503  0.16347900283E+02  0.11092699016E+03  0.41352760777E+03  0.46235538881E+03  0.17376815641E+03 0.  0.
        -24    2    5    5    0    0 -0.86342846879E+01  0.12259534702E+03  0.40796139648E+03  0.43383639819E+03  0.81715049995E+02 0.  0.
          4    1    4    4  501    0 -0.40289593714E+02  0.18386232053E+02  0.81829552624E+02  0.93045045937E+02  0.00000000000E+00 0. -1.
         -3    1    4    4    0  501 -0.17656113934E+02 -0.43948212700E+02  0.18882768812E+02  0.50987672204E+02  0.00000000000E+00 0.  1.
          5    1    3    3  502    0  0.41597807364E+02 -0.85365009514E+02  0.18246982309E+03  0.20575443802E+03  0.47000000000E+01 0. -1.
         11    1    6    6    0    0  0.15730174299E+02  0.43739231446E+02  0.58276044829E+02  0.74542981908E+02  0.00000000000E+00 0. -1.
        -12    1    6    6    0    0 -0.24364458987E+02  0.78856115570E+02  0.34968535165E+03  0.35929341628E+03  0.00000000000E+00 0.  1.
         -5    1    5    5    0  503  0.24982184971E+02 -0.11668356854E+02  0.55662112880E+01  0.28518990615E+02  0.47000000000E+01 0.  1.
<mgrwt>
<rscale>  2 0.20643275E+03</rscale>
<asrwt>0</asrwt>
<pdfrwt beam="1">  1       21 0.11606555E+00 0.20680286E+03</pdfrwt>
<pdfrwt beam="2">  1       21 0.88794461E-02 0.20680286E+03</pdfrwt>
<totfact> 0.56920474E+04</totfact>
</mgrwt>
</event>
<event>
12    1  0.1441827E-001  0.1820309E+03  0.7546771E-02  0.1166072E+00
         21   -1    0    0  504  503  0.00000000000E+00  0.00000000000E+00  0.83153794884E+02  0.83153794884E+02  0.00000000000E+00 0. -1.
         21   -1    0    0  502  504 -0.00000000000E+00 -0.00000000000E+00 -0.39720623669E+03  0.39720623669E+03  0.00000000000E+00 0.  1.
          6    2    1    2  502    0  0.57711200115E+02  0.10038985558E+02 -0.16700671295E+03  0.24635642858E+03  0.17137352153E+03 0.  0.
         24    2    3    3    0    0  0.26471167770E+01  0.27708968833E+02 -0.19126618431E+02  0.87501482361E+02  0.80721048691E+02 0.  0.
         -6    2    1    2    0  503 -0.57711200115E+02 -0.10038985558E+02 -0.14704572886E+03  0.23400360300E+03  0.17234812442E+03 0.  0.
        -24    2    5    5    0    0 -0.28843856556E+02  0.50430836980E+02 -0.39874288071E+02  0.10752146718E+03  0.81213728365E+02 0.  0.
          4    1    4    4  501    0 -0.30077135926E+02 -0.50168972503E+01 -0.26791911850E+02  0.40590761315E+02  0.00000000000E+00 0. -1.
         -3    1    4    4    0  501  0.32724252703E+02  0.32725866084E+02  0.76652934187E+01  0.46910721046E+02  0.00000000000E+00 0.  1.
          5    1    3    3  502    0  0.55064083338E+02 -0.17669983275E+02 -0.14788009452E+03  0.15885494622E+03  0.47000000000E+01 0. -1.
         11    1    6    6    0    0 -0.32927138773E+02 -0.12942573548E+02 -0.21549244938E+02  0.41425555340E+02  0.00000000000E+00 0. -1.
        -12    1    6    6    0    0  0.40832822163E+01  0.63373410528E+02 -0.18325043133E+02  0.66095911836E+02  0.00000000000E+00 0.  1.
         -5    1    5    5    0  503 -0.28867343559E+02 -0.60469822538E+02 -0.10717144079E+03  0.12648213582E+03  0.47000000000E+01 0.  1.
<mgrwt>
<rscale>  2 0.18179981E+03</rscale>
<asrwt>0</asrwt>
<pdfrwt beam="1">  1       21 0.12792892E-01 0.18203088E+03</pdfrwt>
<pdfrwt beam="2">  1       21 0.61108651E-01 0.18203088E+03</pdfrwt>
<totfact> 0.13082160E+05</totfact>
</mgrwt>
</event>
<event>
12    1  0.1441827E-001  0.1785762E+03  0.7546771E-02  0.1169974E+00
         21   -1    0    0  504  503  0.00000000000E+00  0.00000000000E+00  0.19562610388E+03  0.19562610388E+03  0.00000000000E+00 0. -1.
         21   -1    0    0  502  504 -0.00000000000E+00 -0.00000000000E+00 -0.27682608887E+03  0.27682608887E+03  0.00000000000E+00 0. -1.
          6    2    1    2  502    0 -0.26268054038E+01  0.27742129530E+02 -0.19418788191E+03  0.26381506285E+03  0.17638857120E+03 0.  0.
         24    2    3    3    0    0  0.89218527561E+01  0.64831442732E+02 -0.51063454925E+02  0.11543824438E+03  0.80223415619E+02 0.  0.
         -6    2    1    2    0  503  0.26268054038E+01 -0.27742129530E+02  0.11298789693E+03  0.20863712990E+03  0.17316657086E+03 0.  0.
        -24    2    5    5    0    0  0.65798588937E+02 -0.41016175418E+00  0.84029332849E+02  0.13381467918E+03  0.80720611045E+02 0.  0.
          2    1    4    4  501    0 -0.17507281598E+01  0.82632539110E+02 -0.43040118224E+02  0.93186122066E+02  0.00000000000E+00 0. -1.
         -1    1    4    4    0  501  0.10672580916E+02 -0.17801096379E+02 -0.80233367012E+01  0.22252122315E+02  0.00000000000E+00 0.  1.
          5    1    3    3  502    0 -0.11548658160E+02 -0.37089313202E+02 -0.14312442699E+03  0.14837681847E+03  0.47000000000E+01 0. -1.
         13    1    6    6    0    0  0.21536404514E+02 -0.14733383843E+02 -0.10759282114E+02  0.28225014977E+02  0.00000000000E+00 0. -1.
        -14    1    6    6    0    0  0.44262184423E+02  0.14323222088E+02  0.94788614963E+02  0.10558966421E+03  0.00000000000E+00 0.  1.
         -5    1    5    5    0  503 -0.63171783534E+02 -0.27331967776E+02  0.28958564077E+02  0.74822450713E+02  0.47000000000E+01 0.  1.
<mgrwt>
<rscale>  2 0.17777536E+03</rscale>
<asrwt>0</asrwt>
<pdfrwt beam="1">  1       21 0.30096324E-01 0.17857619E+03</pdfrwt>
<pdfrwt beam="2">  1       21 0.42588629E-01 0.17857619E+03</pdfrwt>
<totfact> 0.56526758E+04</totfact>
</mgrwt>
</event>
<event>
12    1  0.1441827E-001  0.2408138E+03  0.7546771E-02  0.1119516E+00
         21   -1    0    0  504  503  0.00000000000E+00  0.00000000000E+00  0.80696675161E+03  0.80696675161E+03  0.00000000000E+00 0.  1.
         21   -1    0    0  502  504 -0.00000000000E+00 -0.00000000000E+00 -0.87017239557E+02  0.87017239557E+02  0.00000000000E+00 0. -1.
          6    2    1    2  502    0 -0.29895353605E+02  0.16520073558E+03  0.17152718277E+03  0.29565667763E+03  0.17264495764E+03 0.  0.
         24    2    3    3    0    0  0.30643376533E+02  0.43077409714E+02  0.31915332039E+02  0.10048341248E+03  0.79269464557E+02 0.  0.
         -6    2    1    2    0  503  0.29895353605E+02 -0.16520073558E+03  0.54842232928E+03  0.59832731353E+03  0.17042155866E+03 0.  0.
        -24    2    5    5    0    0  0.11226055727E+02 -0.13154687494E+02  0.24067790053E+03  0.25453192838E+03  0.81003584064E+02 0.  0.
          4    1    4    4  501    0  0.24303221533E+02  0.17124815861E+02 -0.24198965246E+02  0.38334003367E+02  0.00000000000E+00 0. -1.
         -3    1    4    4    0  501  0.63401550006E+01  0.25952593852E+02  0.56114297285E+02  0.62149409112E+02  0.00000000000E+00 0.  1.
          5    1    3    3  502    0 -0.60538730138E+02  0.12212332587E+03  0.13961185073E+03  0.19517326516E+03  0.47000000000E+01 0. -1.
         11    1    6    6    0    0  0.28694549042E+01 -0.47338392376E+02  0.12903832759E+03  0.13747744234E+03  0.00000000000E+00 0. -1.
        -12    1    6    6    0    0  0.83566008228E+01  0.34183704882E+02  0.11163957294E+03  0.11705448605E+03  0.00000000000E+00 0.  1.
         -5    1    5    5    0  503  0.18669297878E+02 -0.15204604809E+03  0.30774442875E+03  0.34379538515E+03  0.47000000000E+01 0.  1.
<mgrwt>
<rscale>  2 0.24041559E+03</rscale>
<asrwt>0</asrwt>
<pdfrwt beam="1">  1       21 0.12414873E+00 0.24081382E+03</pdfrwt>
<pdfrwt beam="2">  1       21 0.13387268E-01 0.24081382E+03</pdfrwt>
<totfact> 0.22748311E+04</totfact>
</mgrwt>
</event>
<event>
12    1  0.1441827E-001  0.1762578E+03  0.7546771E-02  0.1172165E+00
         21   -1    0    0  504  503  0.00000000000E+00  0.00000000000E+00  0.25872349929E+02  0.25872349929E+02  0.00000000000E+00 0. -1.
         21   -1    0    0  502  504 -0.00000000000E+00 -0.00000000000E+00 -0.20756438961E+04  0.20756438961E+04  0.00000000000E+00 0. -1.
          6    2    1    2  502    0 -0.79314766526E+01  0.35357371601E+02 -0.17097045450E+04  0.17184857306E+04  0.16967770326E+03 0.  0.
         24    2    3    3    0    0 -0.12831611878E+02 -0.25256516434E+02 -0.49514330458E+03  0.50239397769E+03  0.80188994603E+02 0.  0.
         -6    2    1    2    0  503  0.79314766526E+01 -0.35357371601E+02 -0.34006700116E+03  0.38303051543E+03  0.17249277790E+03 0.  0.
        -24    2    5    5    0    0 -0.27550001892E+02  0.30040068676E+02 -0.25165381708E+03  0.26738129739E+03  0.80633158271E+02 0.  0.
          2    1    4    4  501    0 -0.38167339399E+01  0.25120702493E+02 -0.75935594618E+02  0.80073913865E+02  0.00000000000E+00 0. -1.
         -1    1    4    4    0  501 -0.90148779382E+01 -0.50377218927E+02 -0.41920770997E+03  0.42232006382E+03  0.00000000000E+00 0.  1.
          5    1    3    3  502    0  0.49001352255E+01  0.60613888035E+02 -0.12145612405E+04  0.12160917529E+04  0.47000000000E+01 0. -1.
         11    1    6    6    0    0 -0.24320214724E+02  0.22274822205E+02 -0.27142402610E+02  0.42712417023E+02  0.00000000000E+00 0. -1.
        -12    1    6    6    0    0 -0.32297871677E+01  0.77652464711E+01 -0.22451141447E+03  0.22466888037E+03  0.00000000000E+00 0.  1.
         -5    1    5    5    0  503  0.35481478544E+02 -0.65397440277E+02 -0.88413184077E+02  0.11564921804E+03  0.47000000000E+01 0.  1.
<mgrwt>
<rscale>  2 0.17556523E+03</rscale>
<asrwt>0</asrwt>
<pdfrwt beam="1">  1       21 0.39803603E-02 0.17625780E+03</pdfrwt>
<pdfrwt beam="2">  1       21 0.31932993E+00 0.17625780E+03</pdfrwt>
<totfact> 0.10634831E+04</totfact>
</mgrwt>
</event>
<event>
12    1  0.1441827E-001  0.2357512E+03  0.7546771E-02  0.1122958E+00
         21   -1    0    0  504  503  0.00000000000E+00  0.00000000000E+00  0.35810900164E+03  0.35810900164E+03  0.00000000000E+00 0.  1.
         21   -1    0    0  502  504 -0.00000000000E+00 -0.00000000000E+00 -0.17247535113E+03  0.17247535113E+03  0.00000000000E+00 0. -1.
          6    2    1    2  502    0 -0.15566533653E+03  0.24603703764E+02  0.57729495916E+01  0.23405695907E+03  0.17295170975E+03 0.  0.
         24    2    3    3    0    0 -0.11559536924E+03 -0.20318038605E+02  0.58869669361E+02  0.15365225232E+03  0.79801407198E+02 0.  0.
         -6    2    1    2    0  503  0.15566533653E+03 -0.24603703764E+02  0.17986070092E+03  0.29652739371E+03  0.17533278144E+03 0.  0.
        -24    2    5    5    0    0  0.49361408787E+02  0.40577247695E+02  0.11972370939E+03  0.15800797544E+03  0.80930167456E+02 0.  0.
          4    1    4    4  501    0 -0.84898221193E+02 -0.50556007766E+02  0.42379506685E+02  0.10751576847E+03  0.00000000000E+00 0. -1.
         -3    1    4    4    0  501 -0.30697148047E+02  0.30237969161E+02  0.16490162676E+02  0.46136483853E+02  0.00000000000E+00 0.  1.
          5    1    3    3  502    0 -0.40069967293E+02  0.44921742369E+02 -0.53096719770E+02  0.80404706744E+02  0.47000000000E+01 0. -1.
         11    1    6    6    0    0 -0.16711934189E+02  0.17314583269E+02  0.66008925523E+01  0.24953062349E+02  0.00000000000E+00 0. -1.
        -12    1    6    6    0    0  0.66073342976E+02  0.23262664426E+02  0.11312281683E+03  0.13305491309E+03  0.00000000000E+00 0.  1.
         -5    1    5    5    0  503  0.10630392775E+03 -0.65180951459E+02  0.60136991528E+02  0.13851941827E+03  0.47000000000E+01 0.  1.
<mgrwt>
<rscale>  2 0.23530859E+03</rscale>
<asrwt>0</asrwt>
<pdfrwt beam="1">  1       21 0.55093692E-01 0.23575119E+03</pdfrwt>
<pdfrwt beam="2">  1       21 0.26534669E-01 0.23575119E+03</pdfrwt>
<totfact> 0.41136595E+04</totfact>
</mgrwt>
</event>
<event>
12    1  0.1441827E-001  0.2013947E+03  0.7546771E-02  0.1152975E+00
         21   -1    0    0  504  503  0.00000000000E+00  0.00000000000E+00  0.38918218300E+03  0.38918218300E+03  0.00000000000E+00 0.  1.
         21   -1    0    0  502  504 -0.00000000000E+00 -0.00000000000E+00 -0.12634678142E+03  0.12634678142E+03  0.00000000000E+00 0.  1.
          6    2    1    2  502    0  0.16102326830E+02 -0.51484400112E+02 -0.36705439373E+01  0.18148517558E+03  0.17324395424E+03 0.  0.
         24    2    3    3    0    0  0.53673466785E+01 -0.27399769299E+02 -0.71184633874E+02  0.10885218321E+03  0.77472510756E+02 0.  0.
         -6    2    1    2    0  503 -0.16102326830E+02  0.51484400112E+02  0.26650594551E+03  0.33404378883E+03  0.19403583556E+03 0.  0.
        -24    2    5    5    0    0 -0.48273558767E+02  0.94680205832E+02  0.12327272117E+03  0.18094672043E+03  0.79062468969E+02 0.  0.
          2    1    4    4  501    0  0.41265543593E+02 -0.17565901088E+02 -0.43348350688E+02  0.62373756312E+02  0.00000000000E+00 0. -1.
         -1    1    4    4    0  501 -0.35898196915E+02 -0.98338682117E+01 -0.27836283186E+02  0.46478426903E+02  0.00000000000E+00 0.  1.
          5    1    3    3  502    0  0.10734980151E+02 -0.24084630812E+02  0.67514089937E+02  0.72632992367E+02  0.47000000000E+01 0. -1.
         11    1    6    6    0    0 -0.34219016555E+02  0.25382720913E+02  0.46627835904E+01  0.42859831612E+02  0.00000000000E+00 0. -1.
        -12    1    6    6    0    0 -0.14054542212E+02  0.69297484919E+02  0.11860993757E+03  0.13808688882E+03  0.00000000000E+00 0.  1.
         -5    1    5    5    0  503  0.32171231938E+02 -0.43195805720E+02  0.14323322435E+03  0.15309706840E+03  0.47000000000E+01 0.  1.
<mgrwt>
<rscale>  2 0.19621136E+03</rscale>
<asrwt>0</asrwt>
<pdfrwt beam="1">  1       21 0.59874181E-01 0.20139472E+03</pdfrwt>
<pdfrwt beam="2">  1       21 0.19437967E-01 0.20139472E+03</pdfrwt>
<totfact> 0.63107921E+04</totfact>
</mgrwt>
</event>
<event>
12    1  0.1441827E-001  0.1968731E+03  0.7546771E-02  0.1152712E+00
         21   -1    0    0  504  503  0.00000000000E+00  0.00000000000E+00  0.65306489474E+03  0.65306489474E+03  0.00000000000E+00 0.  1.
         21   -1    0    0  502  504 -0.00000000000E+00 -0.00000000000E+00 -0.59820787159E+02  0.59820787159E+02  0.00000000000E+00 0.  1.
          6    2    1    2  502    0 -0.45294649518E+02  0.78673472710E+02  0.25396205992E+03  0.32133434659E+03  0.17469377160E+03 0.  0.
         24    2    3    3    0    0  0.34189059947E+02  0.69009134356E+02  0.18582967138E+03  0.21609570409E+03  0.78952733440E+02 0.  0.
         -6    2    1    2    0  503  0.45294649518E+02 -0.78673472710E+02  0.33928204765E+03  0.39155133530E+03  0.17308674050E+03 0.  0.
        -24    2    5    5    0    0 -0.41372449515E+01  0.91335916691E+01  0.22452448061E+03  0.23876068788E+03  0.80590845588E+02 0.  0.
          2    1    4    4  501    0  0.53913014596E+02  0.47703805990E+02  0.86119583196E+02  0.11224459389E+03  0.00000000000E+00 0. -1.
         -1    1    4    4    0  501 -0.19723954649E+02  0.21305328366E+02  0.99710088183E+02  0.10385111020E+03  0.00000000000E+00 0.  1.
          5    1    3    3  502    0 -0.79483709465E+02  0.96643383541E+01  0.68132388544E+02  0.10523864250E+03  0.47000000000E+01 0. -1.
         13    1    6    6    0    0 -0.28363147990E+02 -0.18213277761E+02  0.16876561011E+03  0.17209887509E+03  0.00000000000E+00 0. -1.
        -14    1    6    6    0    0  0.24225903038E+02  0.27346869430E+02  0.55758870498E+02  0.66661812793E+02  0.00000000000E+00 0.  1.
         -5    1    5    5    0  503  0.49431894469E+02 -0.87807064379E+02  0.11475756704E+03  0.15279064742E+03  0.47000000000E+01 0.  1.
<mgrwt>
<rscale>  2 0.19651603E+03</rscale>
<asrwt>0</asrwt>
<pdfrwt beam="1">  1       21 0.10047152E+00 0.19687314E+03</pdfrwt>
<pdfrwt beam="2">  1       21 0.92031984E-02 0.19687314E+03</pdfrwt>
<totfact> 0.76105465E+04</totfact>
</mgrwt>
</event>
<event>
12    1  0.1441827E-001  0.2205006E+03  0.7546771E-02  0.1133893E+00
         21   -1    0    0  504  503  0.00000000000E+00  0.00000000000E+00  0.18195336621E+04  0.18195336621E+04  0.00000000000E+00 0.  1.
         21   -1    0    0  502  504 -0.00000000000E+00 -0.00000000000E+00 -0.46668333755E+02  0.46668333755E+02  0.00000000000E+00 0. -1.
          6    2    1    2  502    0 -0.12207549190E+03  0.62335512668E+02  0.27497306381E+03  0.35246372752E+03  0.17272044329E+03 0.  0.
         24    2    3    3    0    0 -0.38030573924E+02  0.91525615160E+02  0.13047199563E+03  0.18270431238E+03  0.80837252152E+02 0.  0.
         -6    2    1    2    0  503  0.12207549190E+03 -0.62335512668E+02  0.14978922646E+04  0.15137382684E+04  0.17010046155E+03 0.  0.
        -24    2    5    5    0    0  0.90846515108E+02  0.11100377559E+02  0.60458634239E+03  0.61686278116E+03  0.81355624794E+02 0.  0.
          2    1    4    4  501    0 -0.20235390065E+02  0.38609482693E+02  0.31787257234E+01  0.43706606619E+02  0.00000000000E+00 0. -1.
         -1    1    4    4    0  501 -0.17795183859E+02  0.52916132467E+02  0.12729326990E+03  0.13899770576E+03  0.00000000000E+00 0.  1.
          5    1    3    3  502    0 -0.84044917980E+02 -0.29190102492E+02  0.14450106819E+03  0.16975941514E+03  0.47000000000E+01 0. -1.
         11    1    6    6    0    0  0.10358069894E+03 -0.27790446639E+01  0.51117655028E+03  0.52157276562E+03  0.00000000000E+00 0. -1.
        -12    1    6    6    0    0 -0.12734183831E+02  0.13879422223E+02  0.93409792110E+02  0.95290015538E+02  0.00000000000E+00 0.  1.
         -5    1    5    5    0  503  0.31228976797E+02 -0.73435890227E+02  0.89330592218E+03  0.89687548721E+03  0.47000000000E+01 0.  1.
<mgrwt>
<rscale>  2 0.21998721E+03</rscale>
<asrwt>0</asrwt>
<pdfrwt beam="1">  1       21 0.27992820E+00 0.22050055E+03</pdfrwt>
<pdfrwt beam="2">  1       21 0.71797450E-02 0.22050055E+03</pdfrwt>
<totfact> 0.62673058E+03</totfact>
</mgrwt>
</event>
<event>
12    1  0.1441827E-001  0.1786228E+03  0.7546771E-02  0.1169293E+00
         21   -1    0    0  504  503  0.00000000000E+00  0.00000000000E+00  0.62688045209E+03  0.62688045209E+03  0.00000000000E+00 0.  1.
         21   -1    0    0  502  504 -0.00000000000E+00 -0.00000000000E+00 -0.87468257404E+02  0.87468257404E+02  0.00000000000E+00 0.  1.
          6    2    1    2  502    0  0.39006779140E+02 -0.10994571507E+02  0.38470113376E+02  0.18271853204E+03  0.17396465993E+03 0.  0.
         24    2    3    3    0    0  0.12554872440E+00 -0.31015301483E+02  0.83367077538E+02  0.11986626797E+03  0.80348540066E+02 0.  0.
         -6    2    1    2    0  503 -0.39006779140E+02  0.10994571507E+02  0.50094208131E+03  0.53163017746E+03  0.17333570704E+03 0.  0.
        -24    2    5    5    0    0 -0.29266904008E+01  0.43584907165E+02  0.13928124947E+03  0.16668559253E+03  0.80477392191E+02 0.  0.
          4    1    4    4  501    0 -0.12264996463E+02 -0.83557716353E+01  0.91573147163E+02  0.92767938100E+02  0.00000000000E+00 0. -1.
         -3    1    4    4    0  501  0.12390545188E+02 -0.22659529848E+02 -0.82060696250E+01  0.27098329868E+02  0.00000000000E+00 0.  1.
          5    1    3    3  502    0  0.38881230416E+02  0.20020729976E+02 -0.44896964162E+02  0.62852264068E+02  0.47000000000E+01 0. -1.
         11    1    6    6    0    0 -0.32953425985E+02  0.48568179211E+02  0.10873152109E+03  0.12356107799E+03  0.00000000000E+00 0. -1.
        -12    1    6    6    0    0  0.30026735584E+02 -0.49832720462E+01  0.30549728385E+02  0.43124514542E+02  0.00000000000E+00 0.  1.
         -5    1    5    5    0  503 -0.36080088740E+02 -0.32590335658E+02  0.36166083184E+03  0.36494458493E+03  0.47000000000E+01 0.  1.
<mgrwt>
<rscale>  2 0.17846950E+03</rscale>
<asrwt>0</asrwt>
<pdfrwt beam="1">  1       21 0.96443144E-01 0.17862282E+03</pdfrwt>
<pdfrwt beam="2">  1       21 0.13456655E-01 0.17862282E+03</pdfrwt>
<totfact> 0.43019497E+04</totfact>
</mgrwt>
</event>
<event>
12    1  0.1441827E-001  0.1968414E+03  0.7546771E-02  0.1154600E+00
         21   -1    0    0  504  503  0.00000000000E+00  0.00000000000E+00  0.17099976510E+03  0.17099976510E+03  0.00000000000E+00 0. -1.
         21   -1    0    0  502  504 -0.00000000000E+00 -0.00000000000E+00 -0.36086647246E+03  0.36086647246E+03  0.00000000000E+00 0. -1.
          6    2    1    2  502    0  0.43320171461E+02 -0.51700624015E+02 -0.26516119523E+03  0.33023775967E+03  0.18492411058E+03 0.  0.
         24    2    3    3    0    0 -0.14855858109E+02  0.28485649185E+02 -0.62889073570E+02  0.10495928749E+03  0.77648488239E+02 0.  0.
         -6    2    1    2    0  503 -0.43320171461E+02  0.51700624015E+02  0.75294487873E+02  0.20162847790E+03  0.17445684686E+03 0.  0.
        -24    2    5    5    0    0  0.33938355599E+02  0.22238330833E+02  0.76680512048E+02  0.11879782061E+03  0.81158276939E+02 0.  0.
          4    1    4    4  501    0 -0.33093610930E+02 -0.14263751511E+02 -0.17754013701E+02  0.40172710813E+02  0.00000000000E+00 0. -1.
         -3    1    4    4    0  501  0.18237752821E+02  0.42749400696E+02 -0.45135059870E+02  0.64786576675E+02  0.00000000000E+00 0.  1.
          5    1    3    3  502    0  0.58176029570E+02 -0.80186273199E+02 -0.20227212166E+03  0.22527847218E+03  0.47000000000E+01 0. -1.
         13    1    6    6    0    0  0.28084772240E+02  0.42144709116E+02  0.13668120747E+02  0.52457110700E+02  0.00000000000E+00 0. -1.
        -14    1    6    6    0    0  0.58535833593E+01 -0.19906378283E+02  0.63012391300E+02  0.66340709914E+02  0.00000000000E+00 0.  1.
         -5    1    5    5    0  503 -0.77258527060E+02  0.29462293182E+02 -0.13860241748E+01  0.82830657284E+02  0.47000000000E+01 0.  1.
<mgrwt>
<rscale>  2 0.19434446E+03</rscale>
<asrwt>0</asrwt>
<pdfrwt beam="1">  1       21 0.26307656E-01 0.19684135E+03</pdfrwt>
<pdfrwt beam="2">  1       21 0.55517918E-01 0.19684135E+03</pdfrwt>
<totfact> 0.41921394E+04</totfact>
</mgrwt>
</event>
<event>
12    1  0.1441827E-001  0.2212768E+03  0.7546771E-02  0.1133515E+00
         21   -1    0    0  504  503  0.00000000000E+00  0.00000000000E+00  0.79217420114E+03  0.79217420114E+03  0.00000000000E+00 0. -1.
         21   -1    0    0  502  504 -0.00000000000E+00 -0.00000000000E+00 -0.65931658941E+02  0.65931658941E+02  0.00000000000E+00 0. -1.
          6    2    1    2  502    0 -0.38927134786E+02  0.12868828742E+03  0.48353100524E+03  0.53175712751E+03  0.17574815073E+03 0.  0.
         24    2    3    3    0    0 -0.64650422588E+02  0.14987611397E+02  0.26509193804E+03  0.28411374007E+03  0.77734008293E+02 0.  0.
         -6    2    1    2    0  503  0.38927134786E+02 -0.12868828742E+03  0.24271153696E+03  0.32634873257E+03  0.17180980163E+03 0.  0.
        -24    2    5    5    0    0 -0.25209406737E+02 -0.54662339250E+02  0.52055439516E+02  0.11195382952E+03  0.78742654525E+02 0.  0.
          2    1    4    4  501    0 -0.45533080621E+02 -0.24600992441E+01  0.50797726563E+02  0.68262160405E+02  0.00000000000E+00 0. -1.
         -1    1    4    4    0  501 -0.19117341967E+02  0.17447710641E+02  0.21429421148E+03  0.21585157966E+03  0.00000000000E+00 0.  1.
          5    1    3    3  502    0  0.25723287802E+02  0.11370067602E+03  0.21843906720E+03  0.24764338744E+03  0.47000000000E+01 0. -1.
         13    1    6    6    0    0 -0.41854513006E+02 -0.62647857879E+02  0.54968946499E+02  0.93263816323E+02  0.00000000000E+00 0. -1.
        -14    1    6    6    0    0  0.16645106270E+02  0.79855186296E+01 -0.29135069835E+01  0.18690013201E+02  0.00000000000E+00 0.  1.
         -5    1    5    5    0  503  0.64136541522E+02 -0.74025948171E+02  0.19065609744E+03  0.21439490305E+03  0.47000000000E+01 0.  1.
<mgrwt>
<rscale>  2 0.22049390E+03</rscale>
<asrwt>0</asrwt>
<pdfrwt beam="1">  1       21 0.12187295E+00 0.22127677E+03</pdfrwt>
<pdfrwt beam="2">  1       21 0.10143333E-01 0.22127677E+03</pdfrwt>
<totfact> 0.39590981E+04</totfact>
</mgrwt>
</event>
<event>
12    1  0.1441827E-001  0.1753336E+03  0.7546771E-02  0.1172592E+00
         21   -1    0    0  504  503  0.00000000000E+00  0.00000000000E+00  0.12165382402E+04  0.12165382402E+04  0.00000000000E+00 0.  1.
         21   -1    0    0  502  504 -0.00000000000E+00 -0.00000000000E+00 -0.50967148606E+02  0.50967148606E+02  0.00000000000E+00 0.  1.
          6    2    1    2  502    0  0.15516897324E+02 -0.21060754214E+02  0.13244133854E+03  0.21973293662E+03  0.17337106394E+03 0.  0.
         24    2    3    3    0    0  0.34854667473E+02  0.95637937017E+00  0.73999991093E+01  0.91217839876E+02  0.83965301278E+02 0.  0.
         -6    2    1    2    0  503 -0.15516897324E+02  0.21060754214E+02  0.10331297531E+04  0.10477724522E+04  0.17258532798E+03 0.  0.
        -24    2    5    5    0    0 -0.26808301764E+02 -0.47412135021E+01  0.25519770970E+03  0.26931655013E+03  0.81635586554E+02 0.  0.
          4    1    4    4  501    0 -0.82377451963E+01 -0.12152634188E+02 -0.29525608511E+02  0.32974361579E+02  0.00000000000E+00 0. -1.
         -3    1    4    4    0  501  0.43092412669E+02  0.13109013558E+02  0.36925607620E+02  0.58243478298E+02  0.00000000000E+00 0.  1.
          5    1    3    3  502    0 -0.19337770148E+02 -0.22017133584E+02  0.12504133943E+03  0.12851509675E+03  0.47000000000E+01 0. -1.
         11    1    6    6    0    0 -0.27849849476E+02 -0.32836896383E+02  0.22046847606E+03  0.22463353449E+03  0.00000000000E+00 0. -1.
        -12    1    6    6    0    0  0.10415477117E+01  0.28095682881E+02  0.34729233634E+02  0.44683015644E+02  0.00000000000E+00 0.  1.
         -5    1    5    5    0  503  0.11291404440E+02  0.25801967716E+02  0.77793204339E+03  0.77845590209E+03  0.47000000000E+01 0.  1.
<mgrwt>
<rscale>  2 0.17513901E+03</rscale>
<asrwt>0</asrwt>
<pdfrwt beam="1">  1       21 0.18715971E+00 0.17533355E+03</pdfrwt>
<pdfrwt beam="2">  1       21 0.78411007E-02 0.17533355E+03</pdfrwt>
<totfact> 0.20503003E+04</totfact>
</mgrwt>
</event>
<event>
12    1  0.1441827E-001  0.2233275E+03  0.7546771E-02  0.1131548E+00
         21   -1    0    0  504  503  0.00000000000E+00  0.00000000000E+00  0.10089067090E+03  0.10089067090E+03  0.00000000000E+00 0.  1.
         21   -1    0    0  502  504 -0.00000000000E+00 -0.00000000000E+00 -0.49290840443E+03  0.49290840443E+03  0.00000000000E+00 0. -1.
          6    2    1    2  502    0 -0.11019113422E+03  0.88150562926E+02 -0.19861639046E+03  0.29887063903E+03  0.17309702629E+03 0.  0.
         24    2    3    3    0    0 -0.11540987163E+03  0.75512907081E+02 -0.79428913908E+02  0.17880944575E+03  0.81499864530E+02 0.  0.
         -6    2    1    2    0  503  0.11019113422E+03 -0.88150562926E+02 -0.19340134307E+03  0.29492843630E+03  0.17223848361E+03 0.  0.
        -24    2    5    5    0    0  0.10696933505E+03 -0.60112560648E+02 -0.21406612470E+03  0.25963491336E+03  0.80808563304E+02 0.  0.
          4    1    4    4  501    0 -0.20243901251E+02  0.59856095466E+02 -0.38852753044E+02  0.74176169498E+02  0.00000000000E+00 0. -1.
         -3    1    4    4    0  501 -0.95165970379E+02  0.15656811615E+02 -0.40576160863E+02  0.10463327625E+03  0.00000000000E+00 0.  1.
          5    1    3    3  502    0  0.52187374098E+01  0.12637655844E+02 -0.11918747655E+03  0.12006119328E+03  0.47000000000E+01 0. -1.
         13    1    6    6    0    0  0.26944592840E+01 -0.33315338047E+02 -0.86353493032E+02  0.92596423359E+02  0.00000000000E+00 0. -1.
        -14    1    6    6    0    0  0.10427487576E+03 -0.26797222602E+02 -0.12771263167E+03  0.16703849000E+03  0.00000000000E+00 0.  1.
         -5    1    5    5    0  503  0.32217991751E+01 -0.28038002277E+02  0.20664781636E+02  0.35293522943E+02  0.47000000000E+01 0.  1.
<mgrwt>
<rscale>  2 0.22316116E+03</rscale>
<asrwt>0</asrwt>
<pdfrwt beam="1">  1       21 0.15521642E-01 0.22332754E+03</pdfrwt>
<pdfrwt beam="2">  1       21 0.75832062E-01 0.22332754E+03</pdfrwt>
<totfact> 0.56361327E+04</totfact>
</mgrwt>
</event>
<event>
12    1  0.1441827E-001  0.1976926E+03  0.7546771E-02  0.1154312E+00
         21   -1    0    0  504  503  0.00000000000E+00  0.00000000000E+00  0.33869403894E+03  0.33869403894E+03  0.00000000000E+00 0. -1.
         21   -1    0    0  502  504 -0.00000000000E+00 -0.00000000000E+00 -0.18140189049E+03  0.18140189049E+03  0.00000000000E+00 0. -1.
          6    2    1    2  502    0 -0.62911664897E+02  0.73261702511E+02 -0.84594614863E+02  0.21503165244E+03  0.17250277694E+03 0.  0.
         24    2    3    3    0    0 -0.34504618641E+02  0.14733544990E+02  0.20987375682E+02  0.90926244710E+02  0.80121570027E+02 0.  0.
         -6    2    1    2    0  503  0.62911664897E+02 -0.73261702511E+02  0.24188676332E+03  0.30506427699E+03  0.15883907640E+03 0.  0.
        -24    2    5    5    0    0  0.65194002500E+02 -0.79229458668E+02  0.25670451112E+03  0.28825717051E+03  0.81654303242E+02 0.  0.
          2    1    4    4  501    0 -0.36145260083E+02  0.45236653957E+02  0.14659330928E+02  0.59730483598E+02  0.00000000000E+00 0. -1.
         -1    1    4    4    0  501  0.16406414424E+01 -0.30503108966E+02  0.63280447543E+01  0.31195761112E+02  0.00000000000E+00 0.  1.
          5    1    3    3  502    0 -0.28407046257E+02  0.58528157521E+02 -0.10558199054E+03  0.12410540773E+03  0.47000000000E+01 0. -1.
         11    1    6    6    0    0  0.65890952953E+02 -0.34095203100E+02  0.21249719600E+03  0.22507589578E+03  0.00000000000E+00 0. -1.
        -12    1    6    6    0    0 -0.69695045289E+00 -0.45134255569E+02  0.44207315118E+02  0.63181274723E+02  0.00000000000E+00 0.  1.
         -5    1    5    5    0  503 -0.22823376031E+01  0.59677561571E+01 -0.14817747798E+02  0.16807106482E+02  0.47000000000E+01 0.  1.
<mgrwt>
<rscale>  2 0.19467343E+03</rscale>
<asrwt>0</asrwt>
<pdfrwt beam="1">  1       21 0.52106775E-01 0.19769260E+03</pdfrwt>
<pdfrwt beam="2">  1       21 0.27907983E-01 0.19769260E+03</pdfrwt>
<totfact> 0.42747704E+04</totfact>
</mgrwt>
</event>
<event>
12    1  0.1441827E-001  0.2774129E+03  0.7546771E-02  0.1097376E+00
         21   -1    0    0  504  503  0.00000000000E+00  0.00000000000E+00  0.48314515425E+03  0.48314515425E+03  0.00000000000E+00 0. -1.
         21   -1    0    0  502  504 -0.00000000000E+00 -0.00000000000E+00 -0.25485376600E+03  0.25485376600E+03  0.00000000000E+00 0.  1.
          6    2    1    2  502    0  0.10328491058E+03 -0.18798735320E+03 -0.11335409148E+03  0.29790855957E+03  0.17289691174E+03 0.  0.
         24    2    3    3    0    0  0.13185090987E+03 -0.18269795193E+03 -0.76984374772E+02  0.25112351522E+03  0.79832461208E+02 0.  0.
         -6    2    1    2    0  503 -0.10328491058E+03  0.18798735320E+03  0.34164547973E+03  0.44009036068E+03  0.17592860491E+03 0.  0.
        -24    2    5    5    0    0 -0.15161136437E+02  0.50979266451E+02  0.54634019485E+02  0.11003781378E+03  0.79339137312E+02 0.  0.
          2    1    4    4  501    0  0.15320966492E+02 -0.54963828827E+01  0.12909374261E+02  0.20774844953E+02  0.00000000000E+00 0. -1.
         -1    1    4    4    0  501  0.11652994338E+03 -0.17720156905E+03 -0.89893749033E+02  0.23034867026E+03  0.00000000000E+00 0.  1.
          5    1    3    3  502    0 -0.28565999291E+02 -0.52894012707E+01 -0.36369716710E+02  0.46785044350E+02  0.47000000000E+01 0. -1.
         11    1    6    6    0    0  0.26177377660E+02  0.10795167371E+02  0.42587293500E+02  0.51141649439E+02  0.00000000000E+00 0. -1.
        -12    1    6    6    0    0 -0.41338514096E+02  0.40184099080E+02  0.12046725985E+02  0.58896164336E+02  0.00000000000E+00 0.  1.
         -5    1    5    5    0  503 -0.88123774144E+02  0.13700808675E+03  0.28701146025E+03  0.33005254690E+03  0.47000000000E+01 0.  1.
<mgrwt>
<rscale>  2 0.27693345E+03</rscale>
<asrwt>0</asrwt>
<pdfrwt beam="1">  1       21 0.74330024E-01 0.27741285E+03</pdfrwt>
<pdfrwt beam="2">  1       21 0.39208272E-01 0.27741285E+03</pdfrwt>
<totfact> 0.96728341E+03</totfact>
</mgrwt>
</event>
<event>
12    1  0.1441827E-001  0.2493392E+03  0.7546771E-02  0.1113771E+00
         21   -1    0    0  504  503  0.00000000000E+00  0.00000000000E+00  0.21327911811E+03  0.21327911811E+03  0.00000000000E+00 0. -1.
         21   -1    0    0  502  504 -0.00000000000E+00 -0.00000000000E+00 -0.33440076870E+03  0.33440076870E+03  0.00000000000E+00 0. -1.
          6    2    1    2  502    0  0.38393189679E+02  0.17554949980E+03  0.37894750363E+02  0.25220235800E+03  0.17285356051E+03 0.  0.
         24    2    3    3    0    0  0.92052201610E+02  0.12838732587E+03  0.25597710257E+02  0.17956030815E+03  0.81423265886E+02 0.  0.
         -6    2    1    2    0  503 -0.38393189679E+02 -0.17554949980E+03 -0.15901640096E+03  0.29547752881E+03  0.17242125843E+03 0.  0.
        -24    2    5    5    0    0  0.21208553394E+01 -0.61184919728E+02 -0.13993010349E+03  0.17256690367E+03  0.80316934403E+02 0.  0.
          2    1    4    4  501    0  0.10056995180E+03  0.99889072696E+02  0.38884677679E+02  0.14698353720E+03  0.00000000000E+00 0. -1.
         -1    1    4    4    0  501 -0.85177501924E+01  0.28498253174E+02 -0.13286967422E+02  0.32576770951E+02  0.00000000000E+00 0.  1.
          5    1    3    3  502    0 -0.53659011930E+02  0.47162173934E+02  0.12297040106E+02  0.72642049853E+02  0.47000000000E+01 0. -1.
         13    1    6    6    0    0  0.39066886258E+02 -0.41458931145E+02 -0.62715117298E+02  0.84724556719E+02  0.00000000000E+00 0. -1.
        -14    1    6    6    0    0 -0.36946030918E+02 -0.19725988583E+02 -0.77214986188E+02  0.87842346953E+02  0.00000000000E+00 0.  1.
         -5    1    5    5    0  503 -0.40514045019E+02 -0.11436458008E+03 -0.19086297474E+02  0.12291062513E+03  0.47000000000E+01 0.  1.
<mgrwt>
<rscale>  2 0.24926425E+03</rscale>
<asrwt>0</asrwt>
<pdfrwt beam="1">  1       21 0.32812172E-01 0.24933916E+03</pdfrwt>
<pdfrwt beam="2">  1       21 0.51446272E-01 0.24933916E+03</pdfrwt>
<totfact> 0.31205153E+04</totfact>
</mgrwt>
</event>
<event>
12    1  0.1441827E-001  0.2319995E+03  0.7546771E-02  0.1125488E+00
         21   -1    0    0  504  503  0.00000000000E+00  0.00000000000E+00  0.31534828238E+02  0.31534828238E+02  0.00000000000E+00 0. -1.
         21   -1    0    0  502  504 -0.00000000000E+00 -0.00000000000E+00 -0.20985904028E+04  0.20985904028E+04  0.00000000000E+00 0. -1.
          6    2    1    2  502    0 -0.13918641764E+03  0.61703581192E+02 -0.14972288825E+04  0.15148803613E+04  0.17317041249E+03 0.  0.
         24    2    3    3    0    0 -0.63376791308E+02  0.98261488446E+02 -0.77663807921E+03  0.78937586388E+03  0.79218751667E+02 0.  0.
         -6    2    1    2    0  503  0.13918641764E+03 -0.61703581192E+02 -0.56982669206E+03  0.61524486971E+03  0.17505313458E+03 0.  0.
        -24    2    5    5    0    0  0.16802273389E+03 -0.70835947582E+02 -0.51838997895E+03  0.55538871960E+03  0.80492788532E+02 0.  0.
          2    1    4    4  501    0 -0.40209154649E+02  0.64446379758E+02 -0.25354939243E+03  0.26468359674E+03  0.00000000000E+00 0. -1.
         -1    1    4    4    0  501 -0.23167636659E+02  0.33815108688E+02 -0.52308868678E+03  0.52469226714E+03  0.00000000000E+00 0.  1.
          5    1    3    3  502    0 -0.75809626337E+02 -0.36557907254E+02 -0.72059080328E+03  0.72550449743E+03  0.47000000000E+01 0. -1.
         11    1    6    6    0    0  0.13168677382E+03 -0.87445910311E+02 -0.43722535714E+03  0.46492387179E+03  0.00000000000E+00 0. -1.
        -12    1    6    6    0    0  0.36335960069E+02  0.16609962729E+02 -0.81164621812E+02  0.90464847813E+02  0.00000000000E+00 0.  1.
         -5    1    5    5    0  503 -0.28836316245E+02  0.91323663903E+01 -0.51436713111E+02  0.59856150111E+02  0.47000000000E+01 0.  1.
<mgrwt>
<rscale>  2 0.23164441E+03</rscale>
<asrwt>0</asrwt>
<pdfrwt beam="1">  1       21 0.48515100E-02 0.23199955E+03</pdfrwt>
<pdfrwt beam="2">  1       21 0.32286020E+00 0.23199955E+03</pdfrwt>
<totfact> 0.68329907E+03</totfact>
</mgrwt>
</event>
<event>
12    1  0.1441827E-001  0.1806960E+03  0.7546771E-02  0.1167959E+00
         21   -1    0    0  504  503  0.00000000000E+00  0.00000000000E+00  0.15157353282E+03  0.15157353282E+03  0.00000000000E+00 0.  1.
         21   -1    0    0  502  504 -0.00000000000E+00 -0.00000000000E+00 -0.22757925968E+03  0.22757925968E+03  0.00000000000E+00 0.  1.
          6    2    1    2  502    0  0.21712375780E+02  0.37614696811E+02 -0.88924751077E+02  0.20139178394E+03  0.17539882157E+03 0.  0.
         24    2    3    3    0    0 -0.43599816835E+02  0.44049871164E+02 -0.15609299197E+02  0.10288117813E+03  0.80619795427E+02 0.  0.
         -6    2    1    2    0  503 -0.21712375780E+02 -0.37614696811E+02  0.12919024226E+02  0.17776100856E+03  0.17188886613E+03 0.  0.
        -24    2    5    5    0    0  0.10394344363E+02 -0.68773330623E+02 -0.31774522064E+02  0.11434724807E+03  0.85016818859E+02 0.  0.
          4    1    4    4  501    0 -0.51368497227E+02  0.16354344039E+02  0.19648693863E+02  0.57378203587E+02  0.00000000000E+00 0. -1.
         -3    1    4    4    0  501  0.77686803925E+01  0.27695527125E+02 -0.35257993060E+02  0.45502974544E+02  0.00000000000E+00 0.  1.
          5    1    3    3  502    0  0.65312192614E+02 -0.64351743523E+01 -0.73315451880E+02  0.98510605812E+02  0.47000000000E+01 0. -1.
         13    1    6    6    0    0  0.16215660304E+02  0.10013856762E+02  0.13440804202E+02  0.23321238903E+02  0.00000000000E+00 0. -1.
        -14    1    6    6    0    0 -0.58213159409E+01 -0.78787187385E+02 -0.45215326266E+02  0.91026009166E+02  0.00000000000E+00 0.  1.
         -5    1    5    5    0  503 -0.32106720143E+02  0.31158633811E+02  0.44693546290E+02  0.63413760488E+02  0.47000000000E+01 0.  1.
<mgrwt>
<rscale>  2 0.17983864E+03</rscale>
<asrwt>0</asrwt>
<pdfrwt beam="1">  1       21 0.23319005E-01 0.18069599E+03</pdfrwt>
<pdfrwt beam="2">  1       21 0.35012194E-01 0.18069599E+03</pdfrwt>
<totfact> 0.13652115E+05</totfact>
</mgrwt>
</event>
<event>
12    1  0.1441827E-001  0.1983542E+03  0.7546771E-02  0.1153306E+00
         21   -1    0    0  504  503  0.00000000000E+00  0.00000000000E+00  0.10952941050E+03  0.10952941050E+03  0.00000000000E+00 0. -1.
         21   -1    0    0  502  504 -0.00000000000E+00 -0.00000000000E+00 -0.38039481808E+03  0.38039481808E+03  0.00000000000E+00 0. -1.
          6    2    1    2  502    0  0.58899427669E+02  0.37063143487E+02 -0.54011994207E+02  0.19603683731E+03  0.17512945748E+03 0.  0.
         24    2    3    3    0    0  0.49113648305E+02  0.70180055127E+02 -0.88176289272E+02  0.14723335002E+03  0.81025988298E+02 0.  0.
         -6    2    1    2    0  503 -0.58899427669E+02 -0.37063143487E+02 -0.21685341337E+03  0.29388739127E+03  0.18574600042E+03 0.  0.
        -24    2    5    5    0    0  0.23583572588E+02 -0.25973859271E+02 -0.17801993951E+03  0.20192790972E+03  0.88616903562E+02 0.  0.
          2    1    4    4  501    0  0.38657273300E+02  0.78815634297E+02 -0.38709289243E+02  0.95941117684E+02  0.00000000000E+00 0. -1.
         -1    1    4    4    0  501  0.10456375005E+02 -0.86355791698E+01 -0.49467000029E+02  0.51292232333E+02  0.00000000000E+00 0.  1.
          5    1    3    3  502    0  0.97857793640E+01 -0.33116911641E+02  0.34164295065E+02  0.48803487290E+02  0.47000000000E+01 0. -1.
         11    1    6    6    0    0 -0.30815224964E+02 -0.23289303625E+02 -0.95914971939E+02  0.10340044291E+03  0.00000000000E+00 0. -1.
        -12    1    6    6    0    0  0.54398797552E+02 -0.26845556456E+01 -0.82104967575E+02  0.98527466803E+02  0.00000000000E+00 0.  1.
         -5    1    5    5    0  503 -0.82483000257E+02 -0.11089284216E+02 -0.38833473859E+02  0.91959481555E+02  0.47000000000E+01 0.  1.
<mgrwt>
<rscale>  2 0.19583023E+03</rscale>
<asrwt>0</asrwt>
<pdfrwt beam="1">  1       21 0.16850678E-01 0.19835422E+03</pdfrwt>
<pdfrwt beam="2">  1       21 0.58522280E-01 0.19835422E+03</pdfrwt>
<totfact> 0.86460696E+04</totfact>
</mgrwt>
</event>
<event>
12    1  0.1441827E-001  0.3868512E+03  0.7546771E-02  0.1048462E+00
         21   -1    0    0  504  503  0.00000000000E+00  0.00000000000E+00  0.20432543485E+03  0.20432543485E+03  0.00000000000E+00 0.  1.
         21   -1    0    0  502  504 -0.00000000000E+00 -0.00000000000E+00 -0.73188796300E+03  0.73188796300E+03  0.00000000000E+00 0. -1.
          6    2    1    2  502    0 -0.13552056558E+03  0.31834231208E+03 -0.26976707768E+03  0.47133454313E+03  0.17226236962E+03 0.  0.
         24    2    3    3    0    0 -0.16994099843E+02  0.56260156245E+02 -0.59242133775E+02  0.11485393847E+03  0.78916361791E+02 0.  0.
         -6    2    1    2    0  503  0.13552056558E+03 -0.31834231208E+03 -0.25779545046E+03  0.46487885472E+03  0.17304971521E+03 0.  0.
        -24    2    5    5    0    0  0.73349349694E+02 -0.22394126927E+03 -0.95891097198E+02  0.26736448417E+03  0.82212199174E+02 0.  0.
          4    1    4    4  501    0 -0.18806949835E+02  0.65574972800E+02 -0.15319090270E+02  0.69917472398E+02  0.00000000000E+00 0. -1.
         -3    1    4    4    0  501  0.18128499917E+01 -0.93148165549E+01 -0.43923043505E+02  0.44936466075E+02  0.00000000000E+00 0.  1.
          5    1    3    3  502    0 -0.11852646573E+03  0.26208215584E+03 -0.21052494391E+03  0.35648060466E+03  0.47000000000E+01 0. -1.
         13    1    6    6    0    0  0.28187847726E+02 -0.24627095107E+02  0.77432101040E+01  0.38223106566E+02  0.00000000000E+00 0. -1.
        -14    1    6    6    0    0  0.45161501968E+02 -0.19931417416E+03 -0.10363430730E+03  0.22914137761E+03  0.00000000000E+00 0.  1.
         -5    1    5    5    0  503  0.62171215882E+02 -0.94401042816E+02 -0.16190435326E+03  0.19751437055E+03  0.47000000000E+01 0.  1.
<mgrwt>
<rscale>  2 0.38676329E+03</rscale>
<asrwt>0</asrwt>
<pdfrwt beam="1">  1       21 0.31434682E-01 0.38685121E+03</pdfrwt>
<pdfrwt beam="2">  1       21 0.11259815E+00 0.38685121E+03</pdfrwt>
<totfact> 0.53907048E+03</totfact>
</mgrwt>
</event>
<event>
12    1  0.1441827E-001  0.3344028E+03  0.7546771E-02  0.1069262E+00
         21   -1    0    0  504  503  0.00000000000E+00  0.00000000000E+00  0.51781680728E+03  0.51781680728E+03  0.00000000000E+00 0. -1.
         21   -1    0    0  502  504 -0.00000000000E+00 -0.00000000000E+00 -0.72077886811E+03  0.72077886811E+03  0.00000000000E+00 0.  1.
          6    2    1    2  502    0  0.12958299233E+03 -0.25425608156E+03 -0.61991575131E+03  0.70410938808E+03  0.17331065962E+03 0.  0.
         24    2    3    3    0    0 -0.14540469806E+01 -0.12852097336E+03 -0.29416812855E+03  0.33112999610E+03  0.81193790490E+02 0.  0.
         -6    2    1    2    0  503 -0.12958299233E+03  0.25425608156E+03  0.41695369048E+03  0.53448628731E+03  0.17431954682E+03 0.  0.
        -24    2    5    5    0    0 -0.13410579274E+03  0.26566050159E+03  0.34986386400E+03  0.46612217877E+03  0.79405896807E+02 0.  0.
          2    1    4    4  501    0  0.26830109657E+02 -0.47514615070E+02 -0.18140910601E+03  0.18943800350E+03  0.00000000000E+00 0. -1.
         -1    1    4    4    0  501 -0.28284156638E+02 -0.81006358287E+02 -0.11275902255E+03  0.14169199259E+03  0.00000000000E+00 0.  1.
          5    1    3    3  502    0  0.13103703931E+03 -0.12573510820E+03 -0.32574762276E+03  0.37297939198E+03  0.47000000000E+01 0. -1.
         13    1    6    6    0    0 -0.58555168634E+02  0.19820337269E+03  0.23097813761E+03  0.30994222812E+03  0.00000000000E+00 0. -1.
        -14    1    6    6    0    0 -0.75550624106E+02  0.67457128904E+02  0.11888572640E+03  0.15617995064E+03  0.00000000000E+00 0.  1.
         -5    1    5    5    0  503  0.45228004068E+01 -0.11404420037E+02  0.67089826478E+02  0.68364108542E+02  0.47000000000E+01 0.  1.
<mgrwt>
<rscale>  2 0.33427149E+03</rscale>
<asrwt>0</asrwt>
<pdfrwt beam="1">  1       21 0.79664124E-01 0.33440277E+03</pdfrwt>
<pdfrwt beam="2">  1       21 0.11088906E+00 0.33440277E+03</pdfrwt>
<totfact> 0.79572357E+02</totfact>
</mgrwt>
</event>
<event>
12    1  0.1441827E-001  0.1811020E+03  0.7546771E-02  0.1167053E+00
         21   -1    0    0  504  503  0.00000000000E+00  0.00000000000E+00  0.65214347695E+03  0.65214347695E+03  0.00000000000E+00 0. -1.
         21   -1    0    0  502  504 -0.00000000000E+00 -0.00000000000E+00 -0.80240457738E+02  0.80240457738E+02  0.00000000000E+00 0. -1.
          6    2    1    2  502    0 -0.39222164367E+01 -0.33715169337E+02  0.61537962952E+02  0.19127169698E+03  0.17789279006E+03 0.  0.
         24    2    3    3    0    0 -0.39674161596E+02 -0.13051762387E+02 -0.25677230235E+02  0.94660321398E+02  0.80974494101E+02 0.  0.
         -6    2    1    2    0  503  0.39222164367E+01  0.33715169337E+02  0.51036505626E+03  0.54111223771E+03  0.17657255370E+03 0.  0.
        -24    2    5    5    0    0  0.12151435167E+02  0.89168271471E+02  0.39458033848E+03  0.41238400673E+03  0.79172517230E+02 0.  0.
          2    1    4    4  501    0 -0.31751985933E+01 -0.40848638273E+02 -0.26463404636E+02  0.48775044027E+02  0.00000000000E+00 0. -1.
         -1    1    4    4    0  501 -0.36498963002E+02  0.27796875886E+02  0.78617440127E+00  0.45885277371E+02  0.00000000000E+00 0.  1.
          5    1    3    3  502    0  0.35751945159E+02 -0.20663406950E+02  0.87215193187E+02  0.96611375583E+02  0.47000000000E+01 0. -1.
         13    1    6    6    0    0  0.40563747102E+02  0.26370710191E+02  0.20590722765E+03  0.21151505463E+03  0.00000000000E+00 0. -1.
        -14    1    6    6    0    0 -0.28412311935E+02  0.62797561280E+02  0.18867311082E+03  0.20086895211E+03  0.00000000000E+00 0.  1.
         -5    1    5    5    0  503 -0.82292187305E+01 -0.55453102134E+02  0.11578471778E+03  0.12872823097E+03  0.47000000000E+01 0.  1.
<mgrwt>
<rscale>  2 0.18077698E+03</rscale>
<asrwt>0</asrwt>
<pdfrwt beam="1">  1       21 0.10032976E+00 0.18110202E+03</pdfrwt>
<pdfrwt beam="2">  1       21 0.12344686E-01 0.18110202E+03</pdfrwt>
<totfact> 0.45705273E+04</totfact>
</mgrwt>
</event>
<event>
12    1  0.1441827E-001  0.1803215E+03  0.7546771E-02  0.1169391E+00
         21   -1    0    0  504  503  0.00000000000E+00  0.00000000000E+00  0.12942638678E+03  0.12942638678E+03  0.00000000000E+00 0. -1.
         21   -1    0    0  502  504 -0.00000000000E+00 -0.00000000000E+00 -0.39419166672E+03  0.39419166672E+03  0.00000000000E+00 0. -1.
          6    2    1    2  502    0  0.10047572492E+02 -0.56724219822E+01 -0.29752170802E+03  0.34790084657E+03  0.17995194418E+03 0.  0.
         24    2    3    3    0    0 -0.61460074362E+02 -0.21456324862E+02 -0.22236897343E+03  0.24286514471E+03  0.72786012060E+02 0.  0.
         -6    2    1    2    0  503 -0.10047572492E+02  0.56724219822E+01  0.32756428084E+02  0.17571720693E+03  0.17225104686E+03 0.  0.
        -24    2    5    5    0    0 -0.57782083496E+02 -0.38399577490E+02  0.33678812050E+02  0.11057224956E+03  0.79238016551E+02 0.  0.
          2    1    4    4  501    0 -0.40904157165E+02  0.10754761360E+02 -0.18368354764E+03  0.18848994837E+03  0.00000000000E+00 0. -1.
         -1    1    4    4    0  501 -0.20555917198E+02 -0.32211086222E+02 -0.38685425793E+02  0.54375196333E+02  0.00000000000E+00 0.  1.
          5    1    3    3  502    0  0.71507646854E+02  0.15783902880E+02 -0.75152734594E+02  0.10503570186E+03  0.47000000000E+01 0. -1.
         11    1    6    6    0    0 -0.31292260552E+02 -0.15717432469E+02  0.58212373208E+02  0.67933229338E+02  0.00000000000E+00 0. -1.
        -12    1    6    6    0    0 -0.26489822944E+02 -0.22682145021E+02 -0.24533561157E+02  0.42639020221E+02  0.00000000000E+00 0.  1.
         -5    1    5    5    0  503  0.47734511004E+02  0.44071999472E+02 -0.92238396611E+00  0.65144957368E+02  0.47000000000E+01 0.  1.
<mgrwt>
<rscale>  2 0.17836888E+03</rscale>
<asrwt>0</asrwt>
<pdfrwt beam="1">  1       21 0.19911752E-01 0.18032147E+03</pdfrwt>
<pdfrwt beam="2">  1       21 0.60644871E-01 0.18032147E+03</pdfrwt>
<totfact> 0.59268241E+04</totfact>
</mgrwt>
</event>
<event>
12    1  0.1441827E-001  0.2133726E+03  0.7546771E-02  0.1139685E+00
         21   -1    0    0  504  503  0.00000000000E+00  0.00000000000E+00  0.25290663293E+03  0.25290663293E+03  0.00000000000E+00 0.  1.
         21   -1    0    0  502  504 -0.00000000000E+00 -0.00000000000E+00 -0.18392578246E+03  0.18392578246E+03  0.00000000000E+00 0.  1.
          6    2    1    2  502    0 -0.10149821515E+03 -0.63683467176E+02  0.77931467763E+02  0.22715891162E+03  0.17655136870E+03 0.  0.
         24    2    3    3    0    0 -0.10987438483E+03 -0.47078549563E+02  0.11578169898E+03  0.18472527507E+03  0.80182636271E+02 0.  0.
         -6    2    1    2    0  503  0.10149821515E+03  0.63683467176E+02 -0.89506172936E+01  0.20967350377E+03  0.17182954624E+03 0.  0.
        -24    2    5    5    0    0  0.12009703837E+03  0.77931614571E+02  0.25801036015E+02  0.16749894583E+03  0.83027514841E+02 0.  0.
          2    1    4    4  501    0 -0.34325694617E+02 -0.12960481349E+02  0.91134674204E+02  0.98243352091E+02  0.00000000000E+00 0. -1.
         -1    1    4    4    0  501 -0.75548690212E+02 -0.34118068214E+02  0.24647024777E+02  0.86481922977E+02  0.00000000000E+00 0.  1.
          5    1    3    3  502    0  0.83761696799E+01 -0.16604917613E+02 -0.37850231218E+02  0.42433636548E+02  0.47000000000E+01 0. -1.
         13    1    6    6    0    0 -0.47308224582E+00  0.26785416279E+02 -0.14508850964E+02  0.30466195830E+02  0.00000000000E+00 0. -1.
        -14    1    6    6    0    0  0.12057012061E+03  0.51146198292E+02  0.40309886979E+02  0.13703275000E+03  0.00000000000E+00 0.  1.
         -5    1    5    5    0  503 -0.18598823219E+02 -0.14248147395E+02 -0.34751653309E+02  0.42174557935E+02  0.47000000000E+01 0.  1.
<mgrwt>
<rscale>  2 0.21239331E+03</rscale>
<asrwt>0</asrwt>
<pdfrwt beam="1">  1       21 0.38908713E-01 0.21337258E+03</pdfrwt>
<pdfrwt beam="2">  1       21 0.28296274E-01 0.21337258E+03</pdfrwt>
<totfact> 0.75357090E+04</totfact>
</mgrwt>
</event>
<event>
12    1  0.1441827E-001  0.2913331E+03  0.7546771E-02  0.1090262E+00
         21   -1    0    0  504  503  0.00000000000E+00  0.00000000000E+00  0.87943116114E+02  0.87943116114E+02  0.00000000000E+00 0. -1.
         21   -1    0    0  502  504 -0.00000000000E+00 -0.00000000000E+00 -0.14752685751E+04  0.14752685751E+04  0.00000000000E+00 0. -1.
          6    2    1    2  502    0 -0.22355015059E+03  0.70289252358E+02 -0.11637002507E+04  0.11996137867E+04  0.17308874913E+03 0.  0.
         24    2    3    3    0    0 -0.15283721543E+03  0.83568065096E+01 -0.95829579087E+03  0.97367346462E+03  0.79247348720E+02 0.  0.
         -6    2    1    2    0  503  0.22355015059E+03 -0.70289252358E+02 -0.22362520832E+03  0.36359790449E+03  0.16516644189E+03 0.  0.
        -24    2    5    5    0    0  0.44629370017E+02 -0.33009439071E+02 -0.41084749182E+02  0.10524632346E+03  0.79419319123E+02 0.  0.
          4    1    4    4  501    0 -0.98502346132E+02  0.12976317960E+01 -0.37198436519E+03  0.38480743754E+03  0.00000000000E+00 0. -1.
         -3    1    4    4    0  501 -0.54334869301E+02  0.70591747135E+01 -0.58631142568E+03  0.58886602708E+03  0.00000000000E+00 0.  1.
          5    1    3    3  502    0 -0.70712935156E+02  0.61932445848E+02 -0.20540445981E+03  0.22594032212E+03  0.47000000000E+01 0. -1.
         13    1    6    6    0    0  0.40842739718E+02  0.13689055634E+00  0.11981597998E+02  0.42564149437E+02  0.00000000000E+00 0. -1.
        -14    1    6    6    0    0  0.37866302988E+01 -0.33146329628E+02 -0.53066347180E+02  0.62682174020E+02  0.00000000000E+00 0.  1.
         -5    1    5    5    0  503  0.17892078057E+03 -0.37279813286E+02 -0.18254045913E+03  0.25835158103E+03  0.47000000000E+01 0.  1.
<mgrwt>
<rscale>  2 0.29016709E+03</rscale>
<asrwt>0</asrwt>
<pdfrwt beam="1">  1       21 0.13529711E-01 0.29133308E+03</pdfrwt>
<pdfrwt beam="2">  1       21 0.22696438E+00 0.29133308E+03</pdfrwt>
<totfact> 0.39773278E+03</totfact>
</mgrwt>
</event>
<event>
12    1  0.1441827E-001  0.2022724E+03  0.7546771E-02  0.1148067E+00
         21   -1    0    0  504  503  0.00000000000E+00  0.00000000000E+00  0.20045106346E+03  0.20045106346E+03  0.00000000000E+00 0. -1.
         21   -1    0    0  502  504 -0.00000000000E+00 -0.00000000000E+00 -0.22075640770E+03  0.22075640770E+03  0.00000000000E+00 0.  1.
          6    2    1    2  502    0 -0.99354657933E+02  0.29143684747E+02  0.49563125466E+02  0.20825615762E+03  0.17376254304E+03 0.  0.
         24    2    3    3    0    0 -0.37553419404E+02  0.36758956704E+02 -0.35279995719E+02  0.10290991581E+03  0.81143653273E+02 0.  0.
         -6    2    1    2    0  503  0.99354657933E+02 -0.29143684747E+02 -0.69868469699E+02  0.21295131354E+03  0.17247016109E+03 0.  0.
        -24    2    5    5    0    0  0.64009902589E+02  0.49373790953E+02 -0.15926525135E+02  0.11123568493E+03  0.74730746928E+02 0.  0.
          2    1    4    4  501    0 -0.36474043518E+02  0.60408611467E+02 -0.36012960278E+02  0.79224298658E+02  0.00000000000E+00 0. -1.
         -1    1    4    4    0  501 -0.10793758860E+01 -0.23649654762E+02  0.73296455871E+00  0.23685617149E+02  0.00000000000E+00 0.  1.
          5    1    3    3  502    0 -0.61801238528E+02 -0.76152719575E+01  0.84843121185E+02  0.10534624181E+03  0.47000000000E+01 0. -1.
         11    1    6    6    0    0  0.40944938444E+02  0.31313623398E+02  0.27829230862E+02  0.58578981596E+02  0.00000000000E+00 0. -1.
        -12    1    6    6    0    0  0.23064964145E+02  0.18060167556E+02 -0.43755755997E+02  0.52656703334E+02  0.00000000000E+00 0.  1.
         -5    1    5    5    0  503  0.35344755344E+02 -0.78517475700E+02 -0.53941944564E+02  0.10171562861E+03  0.47000000000E+01 0.  1.
<mgrwt>
<rscale>  2 0.20199454E+03</rscale>
<asrwt>0</asrwt>
<pdfrwt beam="1">  1       21 0.30838625E-01 0.20227240E+03</pdfrwt>
<pdfrwt beam="2">  1       21 0.33962524E-01 0.20227240E+03</pdfrwt>
<totfact> 0.84001972E+04</totfact>
</mgrwt>
</event>
<event>
12    1  0.1441827E-001  0.2224849E+03  0.7546771E-02  0.1132294E+00
         21   -1    0    0  504  503  0.00000000000E+00  0.00000000000E+00  0.51902324010E+03  0.51902324010E+03  0.00000000000E+00 0. -1.
         21   -1    0    0  502  504 -0.00000000000E+00 -0.00000000000E+00 -0.43367502240E+03  0.43367502240E+03  0.00000000000E+00 0. -1.
          6    2    1    2  502    0  0.92348509332E+02  0.10395857789E+03 -0.37843919286E+03  0.43830707766E+03  0.17193382024E+03 0.  0.
         24    2    3    3    0    0 -0.12393959391E+02  0.62805222331E+02 -0.14506992052E+03  0.17917797721E+03  0.83434761913E+02 0.  0.
         -6    2    1    2    0  503 -0.92348509332E+02 -0.10395857789E+03  0.46378741056E+03  0.51439118484E+03  0.17367756261E+03 0.  0.
        -24    2    5    5    0    0 -0.12005724103E+02 -0.24754429264E+02  0.92287935864E+02  0.12611008821E+03  0.81423412257E+02 0.  0.
          2    1    4    4  501    0 -0.48207926517E+02  0.32609513111E+02 -0.84579040565E+02  0.10266936557E+03  0.00000000000E+00 0. -1.
         -1    1    4    4    0  501  0.35813967125E+02  0.30195709219E+02 -0.60490879956E+02  0.76508611635E+02  0.00000000000E+00 0.  1.
          5    1    3    3  502    0  0.10474246872E+03  0.41153355561E+02 -0.23336927234E+03  0.25912910045E+03  0.47000000000E+01 0. -1.
         11    1    6    6    0    0 -0.56905475974E+01 -0.64870894314E+01  0.10343737623E+03  0.10379670256E+03  0.00000000000E+00 0. -1.
        -12    1    6    6    0    0 -0.63151765055E+01 -0.18267339833E+02 -0.11149440364E+02  0.22313385653E+02  0.00000000000E+00 0.  1.
         -5    1    5    5    0  503 -0.80342785229E+02 -0.79204148628E+02  0.37149947469E+03  0.38828109662E+03  0.47000000000E+01 0.  1.
<mgrwt>
<rscale>  2 0.22214448E+03</rscale>
<asrwt>0</asrwt>
<pdfrwt beam="1">  1       21 0.79849729E-01 0.22248490E+03</pdfrwt>
<pdfrwt beam="2">  1       21 0.66719234E-01 0.22248490E+03</pdfrwt>
<totfact> 0.27747570E+03</totfact>
</mgrwt>
</event>
<event>
12    1  0.1441827E-001  0.2283727E+03  0.7546771E-02  0.1128046E+00
         21   -1    0    0  504  503  0.00000000000E+00  0.00000000000E+00  0.18963962232E+03  0.18963962232E+03  0.00000000000E+00 0.  1.
         21   -1    0    0  502  504 -0.00000000000E+00 -0.00000000000E+00 -0.30027531255E+03  0.30027531255E+03  0.00000000000E+00 0. -1.
          6    2    1    2  502    0 -0.11678926545E+03 -0.93669143172E+02 -0.12859214498E+03  0.26083737152E+03  0.17054780480E+03 0.  0.
         24    2    3    3    0    0 -0.76427461598E+02  0.15489167621E+01 -0.10881174577E+03  0.15543856536E+03  0.80483511056E+02 0.  0.
         -6    2    1    2    0  503  0.11678926545E+03  0.93669143172E+02  0.17956454750E+02  0.22907756335E+03  0.17245421090E+03 0.  0.
        -24    2    5    5    0    0  0.69590719402E+01  0.13736950742E+02  0.41101249488E+02  0.91202263470E+02  0.79946279805E+02 0.  0.
          2    1    4    4  501    0 -0.67014903538E+02 -0.47500042201E+01 -0.12124866807E+03  0.13861745686E+03  0.00000000000E+00 0. -1.
         -1    1    4    4    0  501 -0.94125580600E+01  0.62989209823E+01  0.12436922300E+02  0.16821108497E+02  0.00000000000E+00 0.  1.
          5    1    3    3  502    0 -0.40361803855E+02 -0.95218059934E+02 -0.19780399203E+02  0.10539880616E+03  0.47000000000E+01 0. -1.
         11    1    6    6    0    0 -0.35433357208E+02  0.91913952203E+01  0.86296973168E+01  0.37609523061E+02  0.00000000000E+00 0. -1.
        -12    1    6    6    0    0  0.42392429148E+02  0.45455555214E+01  0.32471552171E+02  0.53592740408E+02  0.00000000000E+00 0.  1.
         -5    1    5    5    0  503  0.10983019351E+03  0.79932192430E+02 -0.23144794738E+02  0.13787529988E+03  0.47000000000E+01 0.  1.
<mgrwt>
<rscale>  2 0.22801282E+03</rscale>
<asrwt>0</asrwt>
<pdfrwt beam="1">  1       21 0.29175327E-01 0.22837271E+03</pdfrwt>
<pdfrwt beam="2">  1       21 0.46196202E-01 0.22837271E+03</pdfrwt>
<totfact> 0.49674974E+04</totfact>
</mgrwt>
</event>
<event>
12    1  0.1441827E-001  0.1777292E+03  0.7546771E-02  0.1170218E+00
         21   -1    0    0  504  503  0.00000000000E+00  0.00000000000E+00  0.27641449507E+04  0.27641449507E+04  0.00000000000E+00 0.  1.
         21   -1    0    0  502  504 -0.00000000000E+00 -0.00000000000E+00 -0.13876657810E+02  0.13876657810E+02  0.00000000000E+00 0.  1.
          6    2    1    2  502    0 -0.31208239302E+02 -0.34356866640E+02  0.78292155105E+03  0.80266318923E+03  0.17072695092E+03 0.  0.
         24    2    3    3    0    0  0.18524747524E+02  0.39824189329E+02  0.41760699503E+03  0.42656079110E+03  0.75029153532E+02 0.  0.
         -6    2    1    2    0  503  0.31208239302E+02  0.34356866640E+02  0.19673467419E+04  0.19753584193E+04  0.17156145686E+03 0.  0.
        -24    2    5    5    0    0 -0.27843717489E+01  0.14524709682E+02  0.18428032489E+04  0.18446603562E+04  0.81420486911E+02 0.  0.
          4    1    4    4  501    0  0.22216866702E+02  0.25838271075E+02  0.40748172855E+03  0.40890410187E+03  0.00000000000E+00 0. -1.
         -3    1    4    4    0  501 -0.36921191779E+01  0.13985918254E+02  0.10125266472E+02  0.17656689230E+02  0.00000000000E+00 0.  1.
          5    1    3    3  502    0 -0.49732986826E+02 -0.74181055969E+02  0.36531455602E+03  0.37610239814E+03  0.47000000000E+01 0. -1.
         11    1    6    6    0    0 -0.23780933680E+02 -0.24595179006E+02  0.52769177542E+03  0.52879964588E+03  0.00000000000E+00 0. -1.
        -12    1    6    6    0    0  0.20996561931E+02  0.39119888688E+02  0.13151114735E+04  0.13158607103E+04  0.00000000000E+00 0.  1.
         -5    1    5    5    0  503  0.33992611051E+02  0.19832156958E+02  0.12454349296E+03  0.13069806308E+03  0.47000000000E+01 0.  1.
<mgrwt>
<rscale>  2 0.17752754E+03</rscale>
<asrwt>0</asrwt>
<pdfrwt beam="1">  1       21 0.42525263E+00 0.17772924E+03</pdfrwt>
<pdfrwt beam="2">  1       21 0.21348726E-02 0.17772924E+03</pdfrwt>
<totfact> 0.68213686E+03</totfact>
</mgrwt>
</event>
<event>
12    1  0.1441827E-001  0.2942973E+03  0.7546771E-02  0.1088149E+00
         21   -1    0    0  504  503  0.00000000000E+00  0.00000000000E+00  0.31595296283E+03  0.31595296283E+03  0.00000000000E+00 0. -1.
         21   -1    0    0  502  504 -0.00000000000E+00 -0.00000000000E+00 -0.58171448266E+03  0.58171448266E+03  0.00000000000E+00 0.  1.
          6    2    1    2  502    0 -0.10855269172E+03 -0.21210991004E+03 -0.45935759481E+03  0.54554589815E+03  0.17273281758E+03 0.  0.
         24    2    3    3    0    0 -0.67899765466E+02 -0.37163329849E+02 -0.20485674204E+03  0.23401461499E+03  0.82492811999E+02 0.  0.
         -6    2    1    2    0  503  0.10855269172E+03  0.21210991004E+03  0.19359607498E+03  0.35212154735E+03  0.17244083925E+03 0.  0.
        -24    2    5    5    0    0  0.10223985540E+03  0.16288172431E+03  0.71729276343E+02  0.22045198829E+03  0.80439703561E+02 0.  0.
          4    1    4    4  501    0 -0.78290266108E+02 -0.61314561304E+01 -0.12386344760E+03  0.14665985877E+03  0.00000000000E+00 0. -1.
         -3    1    4    4    0  501  0.10390500642E+02 -0.31031873719E+02 -0.80993294438E+02  0.87354756218E+02  0.00000000000E+00 0.  1.
          5    1    3    3  502    0 -0.40652926257E+02 -0.17494658019E+03 -0.25450085277E+03  0.31153128317E+03  0.47000000000E+01 0. -1.
         11    1    6    6    0    0  0.38606392277E+02  0.11819657081E+03  0.69968575839E+02  0.14267615246E+03  0.00000000000E+00 0. -1.
        -12    1    6    6    0    0  0.63633463124E+02  0.44685153501E+02  0.17607005036E+01  0.77775835829E+02  0.00000000000E+00 0.  1.
         -5    1    5    5    0  503  0.63128363212E+01  0.49228185726E+02  0.12186679864E+03  0.13166955906E+03  0.47000000000E+01 0.  1.
<mgrwt>
<rscale>  2 0.29425452E+03</rscale>
<asrwt>0</asrwt>
<pdfrwt beam="1">  1       21 0.48608149E-01 0.29429734E+03</pdfrwt>
<pdfrwt beam="2">  1       21 0.89494535E-01 0.29429734E+03</pdfrwt>
<totfact> 0.40188567E+03</totfact>
</mgrwt>
</event>
<event>
12    1  0.1441827E-001  0.1857927E+03  0.7546771E-02  0.1163049E+00
         21   -1    0    0  504  503  0.00000000000E+00  0.00000000000E+00  0.20469473098E+03  0.20469473098E+03  0.00000000000E+00 0.  1.
         21   -1    0    0  502  504 -0.00000000000E+00 -0.00000000000E+00 -0.24222798435E+03  0.24222798435E+03  0.00000000000E+00 0. -1.
          6    2    1    2  502    0 -0.62765262615E+02  0.21891071991E+02 -0.14440118802E+03  0.23530960861E+03  0.17349412548E+03 0.  0.
         24    2    3    3    0    0  0.18636214253E+02 -0.30748991555E+02 -0.55873180867E+02  0.10394570650E+03  0.79938029724E+02 0.  0.
         -6    2    1    2    0  503  0.62765262615E+02 -0.21891071991E+02  0.10686793464E+03  0.21161310672E+03  0.17011952933E+03 0.  0.
        -24    2    5    5    0    0  0.25705187845E+02  0.11476502490E+02 -0.14057139315E+02  0.80724575216E+02  0.74339673705E+02 0.  0.
          4    1    4    4  501    0  0.30884696839E+02  0.13982867906E+02 -0.44943834533E+02  0.56296832560E+02  0.00000000000E+00 0. -1.
         -3    1    4    4    0  501 -0.12248482586E+02 -0.44731859461E+02 -0.10929346334E+02  0.47648873940E+02  0.00000000000E+00 0.  1.
          5    1    3    3  502    0 -0.81401476868E+02  0.52640063546E+02 -0.88528007151E+02  0.13136390211E+03  0.47000000000E+01 0. -1.
         11    1    6    6    0    0 -0.21995419984E+02  0.16828677632E+02 -0.17234678364E+02  0.32619580461E+02  0.00000000000E+00 0. -1.
        -12    1    6    6    0    0  0.47700607829E+02 -0.53521751425E+01  0.31775390491E+01  0.48104994756E+02  0.00000000000E+00 0.  1.
         -5    1    5    5    0  503  0.37060074770E+02 -0.33367574481E+02  0.12092507396E+03  0.13088853151E+03  0.47000000000E+01 0.  1.
<mgrwt>
<rscale>  2 0.18500080E+03</rscale>
<asrwt>0</asrwt>
<pdfrwt beam="1">  1       21 0.31491497E-01 0.18579265E+03</pdfrwt>
<pdfrwt beam="2">  1       21 0.37265844E-01 0.18579265E+03</pdfrwt>
<totfact> 0.67506381E+04</totfact>
</mgrwt>
</event>
<event>
12    1  0.1441827E-001  0.2005685E+03  0.7546771E-02  0.1149563E+00
         21   -1    0    0  504  503  0.00000000000E+00  0.00000000000E+00  0.74173803670E+03  0.74173803670E+03  0.00000000000E+00 0. -1.
         21   -1    0    0  502  504 -0.00000000000E+00 -0.00000000000E+00 -0.61578444281E+02  0.61578444281E+02  0.00000000000E+00 0.  1.
          6    2    1    2  502    0  0.92787984624E+02 -0.36694071967E+02  0.19668532385E+03  0.27989019874E+03  0.17232916678E+03 0.  0.
         24    2    3    3    0    0  0.41882970354E+02 -0.77819915156E+02  0.17244287944E+03  0.20994420838E+03  0.80807806332E+02 0.  0.
         -6    2    1    2    0  503 -0.92787984624E+02  0.36694071967E+02  0.48347426857E+03  0.52342628224E+03  0.17398746957E+03 0.  0.
        -24    2    5    5    0    0 -0.23910771921E+02  0.46962173682E+02  0.41428892082E+03  0.42515010667E+03  0.79624949072E+02 0.  0.
          2    1    4    4  501    0  0.55587799594E+02 -0.45734178181E+02  0.15508129404E+03  0.17097317415E+03  0.00000000000E+00 0. -1.
         -1    1    4    4    0  501 -0.13704829239E+02 -0.32085736975E+02  0.17361585397E+02  0.38971034233E+02  0.00000000000E+00 0.  1.
          5    1    3    3  502    0  0.50905014269E+02  0.41125843189E+02  0.24242444416E+02  0.69945990357E+02  0.47000000000E+01 0. -1.
         11    1    6    6    0    0  0.90581302880E+00  0.27213930742E+02  0.34085243034E+02  0.43625936281E+02  0.00000000000E+00 0. -1.
        -12    1    6    6    0    0 -0.24816584950E+02  0.19748242940E+02  0.38020367779E+03  0.38152417039E+03  0.00000000000E+00 0.  1.
         -5    1    5    5    0  503 -0.68877212703E+02 -0.10268101715E+02  0.69185347743E+02  0.98276175571E+02  0.47000000000E+01 0.  1.
<mgrwt>
<rscale>  2 0.20020828E+03</rscale>
<asrwt>0</asrwt>
<pdfrwt beam="1">  1       21 0.11411354E+00 0.20056845E+03</pdfrwt>
<pdfrwt beam="2">  1       21 0.94736073E-02 0.20056845E+03</pdfrwt>
<totfact> 0.53109024E+04</totfact>
</mgrwt>
</event>
<event>
12    1  0.1441827E-001  0.2955722E+03  0.7546771E-02  0.1087500E+00
         21   -1    0    0  504  503  0.00000000000E+00  0.00000000000E+00  0.70291654787E+03  0.70291654787E+03  0.00000000000E+00 0.  1.
         21   -1    0    0  502  504 -0.00000000000E+00 -0.00000000000E+00 -0.27840214373E+03  0.27840214373E+03  0.00000000000E+00 0.  1.
          6    2    1    2  502    0  0.14574496766E+03 -0.19009640550E+03 -0.15287212851E+03  0.33276544574E+03  0.17316095178E+03 0.  0.
         24    2    3    3    0    0  0.10543575616E+03 -0.21071860200E+03 -0.13834348944E+03  0.28498177830E+03  0.80973236245E+02 0.  0.
         -6    2    1    2    0  503 -0.14574496766E+03  0.19009640550E+03  0.57738653265E+03  0.64855324586E+03  0.17282322081E+03 0.  0.
        -24    2    5    5    0    0 -0.50279190719E+02  0.38570463641E+02  0.12332621716E+03  0.16042755946E+03  0.80696767660E+02 0.  0.
          2    1    4    4  501    0  0.64050247414E+02 -0.52172635312E+02 -0.27148079190E+02  0.86956519439E+02  0.00000000000E+00 0. -1.
         -1    1    4    4    0  501  0.41385508745E+02 -0.15854596669E+03 -0.11119541025E+03  0.19802525886E+03  0.00000000000E+00 0.  1.
          5    1    3    3  502    0  0.40309211499E+02  0.20622196506E+02 -0.14528639073E+02  0.47783667437E+02  0.47000000000E+01 0. -1.
         13    1    6    6    0    0  0.12316177570E+02 -0.51544259532E+01  0.59290230460E+02  0.60774894199E+02  0.00000000000E+00 0. -1.
        -14    1    6    6    0    0 -0.62595368289E+02  0.43724889594E+02  0.64035986703E+02  0.99652665264E+02  0.00000000000E+00 0.  1.
         -5    1    5    5    0  503 -0.95465776939E+02  0.15152594186E+03  0.45406031549E+03  0.48812568640E+03  0.47000000000E+01 0.  1.
<mgrwt>
<rscale>  2 0.29552280E+03</rscale>
<asrwt>0</asrwt>
<pdfrwt beam="1">  1       21 0.10814101E+00 0.29557225E+03</pdfrwt>
<pdfrwt beam="2">  1       21 0.42831099E-01 0.29557225E+03</pdfrwt>
<totfact> 0.33220314E+03</totfact>
</mgrwt>
</event>
<event>
12    1  0.1441827E-001  0.2445077E+03  0.7546771E-02  0.1116862E+00
         21   -1    0    0  504  503  0.00000000000E+00  0.00000000000E+00  0.13954416192E+04  0.13954416192E+04  0.00000000000E+00 0. -1.
         21   -1    0    0  502  504 -0.00000000000E+00 -0.00000000000E+00 -0.96606646891E+02  0.96606646891E+02  0.00000000000E+00 0. -1.
          6    2    1    2  502    0 -0.12239004476E+03 -0.12154669793E+03  0.92806715458E+02  0.26152838321E+03  0.17329479496E+03 0.  0.
         24    2    3    3    0    0 -0.10673383899E+03 -0.14818199109E+03  0.10753974374E+03  0.22697830733E+03  0.81267094489E+02 0.  0.
         -6    2    1    2    0  503  0.12239004476E+03  0.12154669793E+03  0.12060282569E+04  0.12305198829E+04  0.17298006533E+03 0.  0.
        -24    2    5    5    0    0 -0.24483051714E+01  0.44517400241E+02  0.59133495714E+03  0.59854830992E+03  0.81211173199E+02 0.  0.
          4    1    4    4  501    0 -0.76977301335E+01 -0.44523629640E+00  0.33409801567E+02  0.34288017227E+02  0.00000000000E+00 0. -1.
         -3    1    4    4    0  501 -0.99036108856E+02 -0.14773675479E+03  0.74129942173E+02  0.19269029011E+03  0.00000000000E+00 0.  1.
          5    1    3    3  502    0 -0.15656205770E+02  0.26635293164E+02 -0.14733028282E+02  0.34550075882E+02  0.47000000000E+01 0. -1.
         13    1    6    6    0    0  0.31569615296E+02  0.28293450070E+02  0.45893009234E+03  0.46088392202E+03  0.00000000000E+00 0. -1.
        -14    1    6    6    0    0 -0.34017920468E+02  0.16223950172E+02  0.13240486480E+03  0.13766438790E+03  0.00000000000E+00 0.  1.
         -5    1    5    5    0  503  0.12483834993E+03  0.77029297686E+02  0.61469329974E+03  0.63197157299E+03  0.47000000000E+01 0.  1.
<mgrwt>
<rscale>  2 0.24445193E+03</rscale>
<asrwt>0</asrwt>
<pdfrwt beam="1">  1       21 0.21468331E+00 0.24450769E+03</pdfrwt>
<pdfrwt beam="2">  1       21 0.14862562E-01 0.24450769E+03</pdfrwt>
<totfact> 0.41336669E+03</totfact>
</mgrwt>
</event>
<event>
12    1  0.1441827E-001  0.2390312E+03  0.7546771E-02  0.1120669E+00
         21   -1    0    0  504  503  0.00000000000E+00  0.00000000000E+00  0.10976815407E+03  0.10976815407E+03  0.00000000000E+00 0.  1.
         21   -1    0    0  502  504 -0.00000000000E+00 -0.00000000000E+00 -0.61172110722E+03  0.61172110722E+03  0.00000000000E+00 0.  1.
          6    2    1    2  502    0  0.25816162901E+02 -0.16143179750E+03 -0.11004324074E+03  0.26314530155E+03  0.17438244001E+03 0.  0.
         24    2    3    3    0    0  0.73622092765E+02 -0.11860552160E+03 -0.36552539925E+02  0.16545973484E+03  0.80952784889E+02 0.  0.
         -6    2    1    2    0  503 -0.25816162901E+02  0.16143179750E+03 -0.39190971241E+03  0.45834395974E+03  0.17250873381E+03 0.  0.
        -24    2    5    5    0    0 -0.49141406578E+02  0.12543548262E+03 -0.15981817506E+03  0.22227538202E+03  0.75601311059E+02 0.  0.
          4    1    4    4  501    0  0.35561893395E+02 -0.87177525916E+02 -0.59132745999E+02  0.11118116269E+03  0.00000000000E+00 0. -1.
         -3    1    4    4    0  501  0.38060199370E+02 -0.31427995682E+02  0.22580206074E+02  0.54278572154E+02  0.00000000000E+00 0.  1.
          5    1    3    3  502    0 -0.47805929864E+02 -0.42826275903E+02 -0.73490700813E+02  0.97685566713E+02  0.47000000000E+01 0. -1.
         13    1    6    6    0    0 -0.75124471246E+01  0.11215460636E+02  0.75098024966E+01  0.15447347753E+02  0.00000000000E+00 0. -1.
        -14    1    6    6    0    0 -0.41628959453E+02  0.11422002198E+03 -0.16732797755E+03  0.20682803427E+03  0.00000000000E+00 0.  1.
         -5    1    5    5    0  503  0.23325243676E+02  0.35996314883E+02 -0.23209153735E+03  0.23606857772E+03  0.47000000000E+01 0.  1.
<mgrwt>
<rscale>  2 0.23868964E+03</rscale>
<asrwt>0</asrwt>
<pdfrwt beam="1">  1       21 0.16887408E-01 0.23903124E+03</pdfrwt>
<pdfrwt beam="2">  1       21 0.94110939E-01 0.23903124E+03</pdfrwt>
<totfact> 0.29175017E+04</totfact>
</mgrwt>
</event>
<event>
12    1  0.1441827E-001  0.1945950E+03  0.7546771E-02  0.1154695E+00
         21   -1    0    0  504  503  0.00000000000E+00  0.00000000000E+00  0.38199546899E+02  0.38199546899E+02  0.00000000000E+00 0.  1.
         21   -1    0    0  502  504 -0.00000000000E+00 -0.00000000000E+00 -0.11084683486E+04  0.11084683486E+04  0.00000000000E+00 0.  1.
          6    2    1    2  502    0  0.25921497521E+02  0.84055657171E+02 -0.72548835267E+03  0.75076287174E+03  0.17197169008E+03 0.  0.
         24    2    3    3    0    0  0.38812697627E+02  0.12253298822E+03 -0.60480594753E+03  0.62335399860E+03  0.79115198959E+02 0.  0.
         -6    2    1    2    0  503 -0.25921497521E+02 -0.84055657171E+02 -0.34478044906E+03  0.39590502379E+03  0.17357981527E+03 0.  0.
        -24    2    5    5    0    0 -0.65796520953E+01 -0.10698851710E+03 -0.15653566448E+03  0.20522672935E+03  0.78260855935E+02 0.  0.
          2    1    4    4  501    0  0.17160198837E+02  0.82944014653E+02 -0.21720895210E+03  0.23313925209E+03  0.00000000000E+00 0. -1.
         -1    1    4    4    0  501  0.21652498790E+02  0.39588973562E+02 -0.38759699543E+03  0.39021474651E+03  0.00000000000E+00 0.  1.
          5    1    3    3  502    0 -0.12891200106E+02 -0.38477331045E+02 -0.12068240514E+03  0.12740887314E+03  0.47000000000E+01 0. -1.
         13    1    6    6    0    0  0.24805826111E+02 -0.19438761396E+02 -0.12778356566E+02  0.34007070591E+02  0.00000000000E+00 0. -1.
        -14    1    6    6    0    0 -0.31385478207E+02 -0.87549755702E+02 -0.14375730791E+03  0.17121965875E+03  0.00000000000E+00 0.  1.
         -5    1    5    5    0  503 -0.19341845426E+02  0.22932859927E+02 -0.18824478458E+03  0.19067829444E+03  0.47000000000E+01 0.  1.
<mgrwt>
<rscale>  2 0.19423577E+03</rscale>
<asrwt>0</asrwt>
<pdfrwt beam="1">  1       21 0.58768533E-02 0.19459504E+03</pdfrwt>
<pdfrwt beam="2">  1       21 0.17053359E+00 0.19459504E+03</pdfrwt>
<totfact> 0.43168086E+04</totfact>
</mgrwt>
</event>
<event>
12    1  0.1441827E-001  0.2022463E+03  0.7546771E-02  0.1148350E+00
         21   -1    0    0  504  503  0.00000000000E+00  0.00000000000E+00  0.28290070155E+03  0.28290070155E+03  0.00000000000E+00 0.  1.
         21   -1    0    0  502  504 -0.00000000000E+00 -0.00000000000E+00 -0.19657987618E+03  0.19657987618E+03  0.00000000000E+00 0.  1.
          6    2    1    2  502    0 -0.96605779278E+02  0.39376294355E+02 -0.81924908458E+02  0.21820919589E+03  0.17326394143E+03 0.  0.
         24    2    3    3    0    0 -0.11132337556E+03  0.73267931030E+02 -0.89064522285E+02  0.18028407542E+03  0.82515301960E+02 0.  0.
         -6    2    1    2    0  503  0.96605779278E+02 -0.39376294355E+02  0.16824573382E+03  0.26127138184E+03  0.17050788507E+03 0.  0.
        -24    2    5    5    0    0  0.20641249369E+02 -0.76478277576E+02  0.11759493804E+03  0.16260649408E+03  0.79607250599E+02 0.  0.
          2    1    4    4  501    0 -0.46195554663E+02  0.10720848001E+02  0.75734860870E+01  0.48024197484E+02  0.00000000000E+00 0. -1.
         -1    1    4    4    0  501 -0.65127820897E+02  0.62547083029E+02 -0.96638008372E+02  0.13225987794E+03  0.00000000000E+00 0.  1.
          5    1    3    3  502    0  0.14717596282E+02 -0.33891636676E+02  0.71396138272E+01  0.37925120468E+02  0.47000000000E+01 0. -1.
         11    1    6    6    0    0  0.33287409809E+02 -0.38651176959E+02  0.15995473804E+02  0.53458585039E+02  0.00000000000E+00 0. -1.
        -12    1    6    6    0    0 -0.12646160440E+02 -0.37827100616E+02  0.10159946424E+03  0.10914790904E+03  0.00000000000E+00 0.  1.
         -5    1    5    5    0  503  0.75964529908E+02  0.37101983221E+02  0.50650795778E+02  0.98664887757E+02  0.47000000000E+01 0.  1.
<mgrwt>
<rscale>  2 0.20165469E+03</rscale>
<asrwt>0</asrwt>
<pdfrwt beam="1">  1       21 0.43523185E-01 0.20224629E+03</pdfrwt>
<pdfrwt beam="2">  1       21 0.30243058E-01 0.20224629E+03</pdfrwt>
<totfact> 0.52979916E+04</totfact>
</mgrwt>
</event>
<event>
12    1  0.1441827E-001  0.2107366E+03  0.7546771E-02  0.1141010E+00
         21   -1    0    0  504  503  0.00000000000E+00  0.00000000000E+00  0.97425383740E+02  0.97425383740E+02  0.00000000000E+00 0.  1.
         21   -1    0    0  502  504 -0.00000000000E+00 -0.00000000000E+00 -0.55909101423E+03  0.55909101423E+03  0.00000000000E+00 0.  1.
          6    2    1    2  502    0 -0.68500451434E+02  0.97260451606E+02 -0.37215083427E+03  0.42767530517E+03  0.17394831391E+03 0.  0.
         24    2    3    3    0    0  0.60526061469E+01  0.24413871224E+02 -0.65471708588E+02  0.10373247256E+03  0.76427809661E+02 0.  0.
         -6    2    1    2    0  503  0.68500451434E+02 -0.97260451606E+02 -0.89514796223E+02  0.22884109280E+03  0.17379136837E+03 0.  0.
        -24    2    5    5    0    0  0.10052762762E+02 -0.10956025573E+03 -0.97326768813E+02  0.16842144030E+03  0.82394016473E+02 0.  0.
          2    1    4    4  501    0  0.27450110012E+02  0.32185966022E+02 -0.95668661926E+01  0.43370149610E+02  0.00000000000E+00 0. -1.
         -1    1    4    4    0  501 -0.21397503866E+02 -0.77720947975E+01 -0.55904842396E+02  0.60362322955E+02  0.00000000000E+00 0.  1.
          5    1    3    3  502    0 -0.74553057581E+02  0.72846580381E+02 -0.30667912568E+03  0.32394283261E+03  0.47000000000E+01 0. -1.
         11    1    6    6    0    0  0.32227102678E+02 -0.89770348231E+02 -0.39168734612E+02  0.10310912346E+03  0.00000000000E+00 0. -1.
        -12    1    6    6    0    0 -0.22174339916E+02 -0.19789907498E+02 -0.58158034201E+02  0.65312316845E+02  0.00000000000E+00 0.  1.
         -5    1    5    5    0  503  0.58447688672E+02  0.12299804124E+02  0.78119725902E+01  0.60419652501E+02  0.47000000000E+01 0.  1.
<mgrwt>
<rscale>  2 0.21070423E+03</rscale>
<asrwt>0</asrwt>
<pdfrwt beam="1">  1       21 0.14988520E-01 0.21073662E+03</pdfrwt>
<pdfrwt beam="2">  1       21 0.86014004E-01 0.21073662E+03</pdfrwt>
<totfact> 0.45390165E+04</totfact>
</mgrwt>
</event>
<event>
12    1  0.1441827E-001  0.1879044E+03  0.7546771E-02  0.1160585E+00
         21   -1    0    0  504  503  0.00000000000E+00  0.00000000000E+00  0.46907911313E+03  0.46907911313E+03  0.00000000000E+00 0. -1.
         21   -1    0    0  502  504 -0.00000000000E+00 -0.00000000000E+00 -0.42916525060E+03  0.42916525060E+03  0.00000000000E+00 0. -1.
          6    2    1    2  502    0  0.75499986420E+02 -0.19317796151E+01 -0.38809415186E+03  0.43119035446E+03  0.17205833707E+03 0.  0.
         24    2    3    3    0    0  0.93839896742E+02 -0.13422319366E+02 -0.38956421721E+03  0.40899495164E+03  0.80811547794E+02 0.  0.
         -6    2    1    2    0  503 -0.75499986420E+02  0.19317796151E+01  0.42800801439E+03  0.46705400926E+03  0.17101054780E+03 0.  0.
        -24    2    5    5    0    0 -0.68331547817E+02 -0.58321793029E+02  0.22731176241E+03  0.25733287277E+03  0.80491851207E+02 0.  0.
          2    1    4    4  501    0  0.20216020331E+02 -0.50181452083E+01 -0.25098241618E+03  0.25184527491E+03  0.00000000000E+00 0. -1.
         -1    1    4    4    0  501  0.73623876411E+02 -0.84041741575E+01 -0.13858180103E+03  0.15714967674E+03  0.00000000000E+00 0.  1.
          5    1    3    3  502    0 -0.18339910322E+02  0.11490539751E+02  0.14700653533E+01  0.22195402824E+02  0.47000000000E+01 0. -1.
         11    1    6    6    0    0 -0.37042284818E+02  0.13440249925E+02  0.10459050096E+03  0.11176736587E+03  0.00000000000E+00 0. -1.
        -12    1    6    6    0    0 -0.31289262999E+02 -0.71762042955E+02  0.12272126145E+03  0.14556550690E+03  0.00000000000E+00 0.  1.
         -5    1    5    5    0  503 -0.71684386032E+01  0.60253572644E+02  0.20069625198E+03  0.20972113648E+03  0.47000000000E+01 0.  1.
<mgrwt>
<rscale>  2 0.18766417E+03</rscale>
<asrwt>0</asrwt>
<pdfrwt beam="1">  1       21 0.72166017E-01 0.18790437E+03</pdfrwt>
<pdfrwt beam="2">  1       21 0.66025423E-01 0.18790437E+03</pdfrwt>
<totfact> 0.36630671E+03</totfact>
</mgrwt>
</event>
<event>
12    1  0.1441827E-001  0.3171751E+03  0.7546771E-02  0.1077091E+00
         21   -1    0    0  504  503  0.00000000000E+00  0.00000000000E+00  0.55683449909E+03  0.55683449909E+03  0.00000000000E+00 0. -1.
         21   -1    0    0  502  504 -0.00000000000E+00 -0.00000000000E+00 -0.20951905864E+03  0.20951905864E+03  0.00000000000E+00 0. -1.
          6    2    1    2  502    0  0.25247355692E+03  0.77863607917E+02  0.31718813272E+03  0.44775082514E+03  0.17339795699E+03 0.  0.
         24    2    3    3    0    0  0.20151578924E+03  0.90263420582E+02  0.31945275404E+03  0.39504723938E+03  0.72499385350E+02 0.  0.
         -6    2    1    2    0  503 -0.25247355692E+03 -0.77863607917E+02  0.30127307725E+02  0.31860273259E+03  0.17548335580E+03 0.  0.
        -24    2    5    5    0    0 -0.14749248381E+03  0.24206957968E+02  0.33219593093E+02  0.17207260476E+03  0.78520254405E+02 0.  0.
          4    1    4    4  501    0  0.43685482471E+02 -0.86251447186E+01  0.81490378648E+02  0.92862782170E+02  0.00000000000E+00 0. -1.
         -3    1    4    4    0  501  0.15783030676E+03  0.98888565300E+02  0.23796237539E+03  0.30218445721E+03  0.00000000000E+00 0.  1.
          5    1    3    3  502    0  0.50957767688E+02 -0.12399812665E+02 -0.22646213138E+01  0.52703585756E+02  0.47000000000E+01 0. -1.
         13    1    6    6    0    0 -0.27501073092E+02 -0.26848361161E+02  0.74285092416E+01  0.39144939236E+02  0.00000000000E+00 0. -1.
        -14    1    6    6    0    0 -0.11999141071E+03  0.51055319130E+02  0.25791083852E+02  0.13292766553E+03  0.00000000000E+00 0.  1.
         -5    1    5    5    0  503 -0.10498107312E+03 -0.10207056589E+03 -0.30922853679E+01  0.14653012783E+03  0.47000000000E+01 0.  1.
<mgrwt>
<rscale>  2 0.31688746E+03</rscale>
<asrwt>0</asrwt>
<pdfrwt beam="1">  1       21 0.85666845E-01 0.31717510E+03</pdfrwt>
<pdfrwt beam="2">  1       21 0.32233702E-01 0.31717510E+03</pdfrwt>
<totfact> 0.10177436E+04</totfact>
</mgrwt>
</event>
<event>
12    1  0.1441827E-001  0.1867891E+03  0.7546771E-02  0.1162455E+00
         21   -1    0    0  504  503  0.00000000000E+00  0.00000000000E+00  0.89678356730E+02  0.89678356730E+02  0.00000000000E+00 0. -1.
         21   -1    0    0  502  504 -0.00000000000E+00 -0.00000000000E+00 -0.38095343130E+03  0.38095343130E+03  0.00000000000E+00 0. -1.
          6    2    1    2  502    0 -0.33896879585E+02 -0.59240610804E+02 -0.16137657245E+03  0.24684522850E+03  0.17387271287E+03 0.  0.
         24    2    3    3    0    0  0.83726702403E+01  0.17641462180E+02 -0.25038957579E+02  0.84649041059E+02  0.78467751088E+02 0.  0.
         -6    2    1    2    0  503  0.33896879585E+02  0.59240610804E+02 -0.12989850211E+03  0.22378655953E+03  0.16896258450E+03 0.  0.
        -24    2    5    5    0    0  0.41253725661E+02  0.63084403802E+02 -0.17792257116E+02  0.11127523523E+03  0.79900573704E+02 0.  0.
          2    1    4    4  501    0 -0.16825925438E+02  0.39552341951E+02 -0.11854305968E+00  0.42982712492E+02  0.00000000000E+00 0. -1.
         -1    1    4    4    0  501  0.25198595678E+02 -0.21910879771E+02 -0.24920414519E+02  0.41666328568E+02  0.00000000000E+00 0.  1.
          5    1    3    3  502    0 -0.42269549825E+02 -0.76882072985E+02 -0.13633761488E+03  0.16219618744E+03  0.47000000000E+01 0. -1.
         11    1    6    6    0    0  0.36642019942E+02 -0.87274692362E+01 -0.28054553024E+01  0.37771377049E+02  0.00000000000E+00 0. -1.
        -12    1    6    6    0    0  0.46117057188E+01  0.71811873038E+02 -0.14986801813E+02  0.73503858180E+02  0.00000000000E+00 0.  1.
         -5    1    5    5    0  503 -0.73568460763E+01 -0.38437929971E+01 -0.11210624500E+03  0.11251132430E+03  0.47000000000E+01 0.  1.
<mgrwt>
<rscale>  2 0.18563807E+03</rscale>
<asrwt>0</asrwt>
<pdfrwt beam="1">  1       21 0.13796670E-01 0.18678910E+03</pdfrwt>
<pdfrwt beam="2">  1       21 0.58608220E-01 0.18678910E+03</pdfrwt>
<totfact> 0.12466747E+05</totfact>
</mgrwt>
</event>
<event>
12    1  0.1441827E-001  0.2321531E+03  0.7546771E-02  0.1125157E+00
         21   -1    0    0  504  503  0.00000000000E+00  0.00000000000E+00  0.49409356608E+03  0.49409356608E+03  0.00000000000E+00 0. -1.
         21   -1    0    0  502  504 -0.00000000000E+00 -0.00000000000E+00 -0.13404201463E+03  0.13404201463E+03  0.00000000000E+00 0. -1.
          6    2    1    2  502    0  0.12399351211E+03 -0.92683132367E+02  0.44361743867E+02  0.23635359783E+03  0.17300434914E+03 0.  0.
         24    2    3    3    0    0  0.61438111995E+02  0.15975724108E+02  0.60517606125E+01  0.10516796604E+03  0.83629013551E+02 0.  0.
         -6    2    1    2    0  503 -0.12399351211E+03  0.92683132367E+02  0.31568980758E+03  0.39178198288E+03  0.17282509491E+03 0.  0.
        -24    2    5    5    0    0 -0.24740374523E+02  0.60440508267E+02  0.24520469552E+03  0.26576209099E+03  0.78987373254E+02 0.  0.
          4    1    4    4  501    0  0.58122088951E+02 -0.64441093711E+01 -0.27545642063E+02  0.64641056352E+02  0.00000000000E+00 0. -1.
         -3    1    4    4    0  501  0.33160230447E+01  0.22419833479E+02  0.33597402676E+02  0.40526909685E+02  0.00000000000E+00 0.  1.
          5    1    3    3  502    0  0.62555400110E+02 -0.10865885647E+03  0.38309983254E+02  0.13118563180E+03  0.47000000000E+01 0. -1.
         11    1    6    6    0    0 -0.26221993106E+02  0.59427383652E+02  0.92399390678E+02  0.11294624495E+03  0.00000000000E+00 0. -1.
        -12    1    6    6    0    0  0.14816185824E+01  0.10131246153E+01  0.15280530484E+03  0.15281584605E+03  0.00000000000E+00 0.  1.
         -5    1    5    5    0  503 -0.99253137583E+02  0.32242624100E+02  0.70485112059E+02  0.12601989189E+03  0.47000000000E+01 0.  1.
<mgrwt>
<rscale>  2 0.23211970E+03</rscale>
<asrwt>0</asrwt>
<pdfrwt beam="1">  1       21 0.76014394E-01 0.23215309E+03</pdfrwt>
<pdfrwt beam="2">  1       21 0.20621849E-01 0.23215309E+03</pdfrwt>
<totfact> 0.32951066E+04</totfact>
</mgrwt>
</event>
<event>
12    1  0.1441827E-001  0.1823967E+03  0.7546771E-02  0.1165533E+00
         21   -1    0    0  504  503  0.00000000000E+00  0.00000000000E+00  0.41551408198E+03  0.41551408198E+03  0.00000000000E+00 0.  1.
         21   -1    0    0  502  504 -0.00000000000E+00 -0.00000000000E+00 -0.10250656498E+03  0.10250656498E+03  0.00000000000E+00 0.  1.
          6    2    1    2  502    0  0.41839295258E+02 -0.42305772199E+02  0.27787689591E+03  0.33239153183E+03  0.17241883935E+03 0.  0.
         24    2    3    3    0    0 -0.25875231167E+00 -0.65517957523E+02  0.26301839648E+03  0.28185524623E+03  0.77272461034E+02 0.  0.
         -6    2    1    2    0  503 -0.41839295258E+02  0.42305772199E+02  0.35130621086E+02  0.18562911513E+03  0.17228959010E+03 0.  0.
        -24    2    5    5    0    0  0.22246199927E+01  0.19984008323E+01  0.77891819045E+02  0.11202936741E+03  0.80464284920E+02 0.  0.
          2    1    4    4  501    0  0.36109176318E+02 -0.38000417518E+02  0.10455781360E+03  0.11696256123E+03  0.00000000000E+00 0. -1.
         -1    1    4    4    0  501 -0.36367928629E+02 -0.27517540005E+02  0.15846058288E+03  0.16489268500E+03  0.00000000000E+00 0.  1.
          5    1    3    3  502    0  0.42098047570E+02  0.23212185323E+02  0.14858499437E+02  0.50536285600E+02  0.47000000000E+01 0. -1.
         13    1    6    6    0    0 -0.37624316853E+02 -0.68564934328E+01  0.48316923031E+02  0.61620822553E+02  0.00000000000E+00 0. -1.
        -14    1    6    6    0    0  0.39848936846E+02  0.88548942652E+01  0.29574896014E+02  0.50408544855E+02  0.00000000000E+00 0.  1.
         -5    1    5    5    0  503 -0.44063915251E+02  0.40307371367E+02 -0.42761197959E+02  0.73599747721E+02  0.47000000000E+01 0.  1.
<mgrwt>
<rscale>  2 0.18236616E+03</rscale>
<asrwt>0</asrwt>
<pdfrwt beam="1">  1       21 0.63925242E-01 0.18239671E+03</pdfrwt>
<pdfrwt beam="2">  1       21 0.15770241E-01 0.18239671E+03</pdfrwt>
<totfact> 0.81253247E+04</totfact>
</mgrwt>
</event>
<event>
12    1  0.1441827E-001  0.2094230E+03  0.7546771E-02  0.1142442E+00
         21   -1    0    0  504  503  0.00000000000E+00  0.00000000000E+00  0.69047651373E+03  0.69047651373E+03  0.00000000000E+00 0.  1.
         21   -1    0    0  502  504 -0.00000000000E+00 -0.00000000000E+00 -0.82039328418E+02  0.82039328418E+02  0.00000000000E+00 0.  1.
          6    2    1    2  502    0  0.57967885076E+02 -0.10210148849E+03  0.11875369312E+03  0.24074969900E+03  0.17341565180E+03 0.  0.
         24    2    3    3    0    0 -0.30850464758E+02 -0.70835891534E+02  0.44526609914E+02  0.12075808804E+03  0.81427404059E+02 0.  0.
         -6    2    1    2    0  503 -0.57967885076E+02  0.10210148849E+03  0.48968349220E+03  0.53176614314E+03  0.17088100776E+03 0.  0.
        -24    2    5    5    0    0 -0.71990897748E+02  0.13192870872E+03  0.44546056437E+03  0.47641214332E+03  0.77107343062E+02 0.  0.
          4    1    4    4  501    0 -0.20001423081E+02 -0.32898042149E+02  0.65570741355E+02  0.76038544334E+02  0.00000000000E+00 0. -1.
         -3    1    4    4    0  501 -0.10849041677E+02 -0.37937849385E+02 -0.21044131442E+02  0.44719543707E+02  0.00000000000E+00 0.  1.
          5    1    3    3  502    0  0.88818349834E+02 -0.31265596960E+02  0.74227083204E+02  0.11999161096E+03  0.47000000000E+01 0. -1.
         13    1    6    6    0    0 -0.24378069736E+02 -0.42567319766E+00  0.10974737839E+03  0.11242312283E+03  0.00000000000E+00 0. -1.
        -14    1    6    6    0    0 -0.47612828012E+02  0.13235438192E+03  0.33571318598E+03  0.36398902050E+03  0.00000000000E+00 0.  1.
         -5    1    5    5    0  503  0.14023012672E+02 -0.29827220226E+02  0.44222927827E+02  0.55353999823E+02  0.47000000000E+01 0.  1.
<mgrwt>
<rscale>  2 0.20889750E+03</rscale>
<asrwt>0</asrwt>
<pdfrwt beam="1">  1       21 0.10622715E+00 0.20942296E+03</pdfrwt>
<pdfrwt beam="2">  1       21 0.12621436E-01 0.20942296E+03</pdfrwt>
<totfact> 0.37738395E+04</totfact>
</mgrwt>
</event>
<event>
12    1  0.1441827E-001  0.3046394E+03  0.7546771E-02  0.1083106E+00
         21   -1    0    0  504  503  0.00000000000E+00  0.00000000000E+00  0.14586964244E+03  0.14586964244E+03  0.00000000000E+00 0.  1.
         21   -1    0    0  502  504 -0.00000000000E+00 -0.00000000000E+00 -0.79031664015E+03  0.79031664015E+03  0.00000000000E+00 0. -1.
          6    2    1    2  502    0  0.24842061274E+03 -0.16881822527E+02 -0.53131354294E+03  0.61245347486E+03  0.17552031558E+03 0.  0.
         24    2    3    3    0    0  0.17823368050E+03  0.54749642404E+02 -0.33223977887E+03  0.38949669481E+03  0.80991582254E+02 0.  0.
         -6    2    1    2    0  503 -0.24842061274E+03  0.16881822527E+02 -0.11313345476E+03  0.32373280774E+03  0.17322227181E+03 0.  0.
        -24    2    5    5    0    0 -0.10690869166E+03 -0.97422623209E+01 -0.11982784215E+03  0.17950600535E+03  0.79619810195E+02 0.  0.
          2    1    4    4  501    0  0.13384176783E+03  0.75165713729E+02 -0.23539285936E+03  0.28102188807E+03  0.00000000000E+00 0. -1.
         -1    1    4    4    0  501  0.44391912676E+02 -0.20416071325E+02 -0.96846919511E+02  0.10847480674E+03  0.00000000000E+00 0.  1.
          5    1    3    3  502    0  0.70186932239E+02 -0.71631464931E+02 -0.19907376407E+03  0.22295678004E+03  0.47000000000E+01 0. -1.
         13    1    6    6    0    0 -0.34821780879E+02 -0.40595369501E+02 -0.34627134638E+02  0.63714824819E+02  0.00000000000E+00 0. -1.
        -14    1    6    6    0    0 -0.72086910777E+02  0.30853107180E+02 -0.85200707517E+02  0.11579118053E+03  0.00000000000E+00 0.  1.
         -5    1    5    5    0  503 -0.14151192109E+03  0.26624084848E+02  0.66943873910E+01  0.14422680239E+03  0.47000000000E+01 0.  1.
<mgrwt>
<rscale>  2 0.30430933E+03</rscale>
<asrwt>0</asrwt>
<pdfrwt beam="1">  1       21 0.22441484E-01 0.30463942E+03</pdfrwt>
<pdfrwt beam="2">  1       21 0.12158718E+00 0.30463942E+03</pdfrwt>
<totfact> 0.88896649E+03</totfact>
</mgrwt>
</event>
<event>
12    1  0.1441827E-001  0.2471670E+03  0.7546771E-02  0.1115111E+00
         21   -1    0    0  504  503  0.00000000000E+00  0.00000000000E+00  0.15010692787E+04  0.15010692787E+04  0.00000000000E+00 0. -1.
         21   -1    0    0  502  504 -0.00000000000E+00 -0.00000000000E+00 -0.62837894624E+02  0.62837894624E+02  0.00000000000E+00 0.  1.
          6    2    1    2  502    0  0.16506493600E+03  0.61854490747E+02  0.25492425649E+03  0.35506173995E+03  0.17323409453E+03 0.  0.
         24    2    3    3    0    0  0.16895524730E+03  0.97225582607E+02  0.21653012164E+03  0.30250274213E+03  0.81387504654E+02 0.  0.
         -6    2    1    2    0  503 -0.16506493600E+03 -0.61854490747E+02  0.11833071276E+04  0.12088454334E+04  0.17326024491E+03 0.  0.
        -24    2    5    5    0    0 -0.56607519962E+02 -0.79273184057E+02  0.49211623828E+03  0.50896447390E+03  0.85894089947E+02 0.  0.
          4    1    4    4  501    0  0.13330345799E+03  0.10462196565E+03  0.14839065140E+03  0.22524509546E+03  0.00000000000E+00 0. -1.
         -3    1    4    4    0  501  0.35651789313E+02 -0.73963830405E+01  0.68139470248E+02  0.77257646670E+02  0.00000000000E+00 0.  1.
          5    1    3    3  502    0 -0.38903113005E+01 -0.35371091861E+02  0.38394134845E+02  0.52558997821E+02  0.47000000000E+01 0. -1.
         13    1    6    6    0    0 -0.24854513138E+01 -0.37683127625E+02  0.34176332308E+03  0.34384351758E+03  0.00000000000E+00 0. -1.
        -14    1    6    6    0    0 -0.54122068648E+02 -0.41590056431E+02  0.15035291520E+03  0.16512095632E+03  0.00000000000E+00 0.  1.
         -5    1    5    5    0  503 -0.10845741604E+03  0.17418693310E+02  0.69119088934E+03  0.69988095951E+03  0.47000000000E+01 0.  1.
<mgrwt>
<rscale>  2 0.24716241E+03</rscale>
<asrwt>0</asrwt>
<pdfrwt beam="1">  1       21 0.23093371E+00 0.24716700E+03</pdfrwt>
<pdfrwt beam="2">  1       21 0.96673695E-02 0.24716700E+03</pdfrwt>
<totfact> 0.70978293E+03</totfact>
</mgrwt>
</event>
<event>
12    1  0.1441827E-001  0.2132105E+03  0.7546771E-02  0.1139494E+00
         21   -1    0    0  504  503  0.00000000000E+00  0.00000000000E+00  0.54060684863E+02  0.54060684863E+02  0.00000000000E+00 0. -1.
         21   -1    0    0  502  504 -0.00000000000E+00 -0.00000000000E+00 -0.89706036070E+03  0.89706036070E+03  0.00000000000E+00 0. -1.
          6    2    1    2  502    0 -0.11993452614E+03 -0.31492842388E+02 -0.54755298765E+03  0.58677577672E+03  0.17063249450E+03 0.  0.
         24    2    3    3    0    0 -0.76871829502E+02  0.48482766474E+02 -0.32084360686E+03  0.34250189929E+03  0.78147771182E+02 0.  0.
         -6    2    1    2    0  503  0.11993452614E+03  0.31492842388E+02 -0.29544668819E+03  0.36434526884E+03  0.17344347692E+03 0.  0.
        -24    2    5    5    0    0  0.32375099303E+02  0.62854518556E+02 -0.21820269383E+03  0.24335381202E+03  0.81300828227E+02 0.  0.
          4    1    4    4  501    0  0.14279809516E+02  0.19575672769E+02 -0.66254522270E+02  0.70546308517E+02  0.00000000000E+00 0. -1.
         -3    1    4    4    0  501 -0.91151639018E+02  0.28907093705E+02 -0.25458908459E+03  0.27195559078E+03  0.00000000000E+00 0.  1.
          5    1    3    3  502    0 -0.43062696641E+02 -0.79975608862E+02 -0.22670938079E+03  0.24427387743E+03  0.47000000000E+01 0. -1.
         13    1    6    6    0    0  0.37865217195E+02  0.30133595277E+02 -0.19946227594E+03  0.20524864862E+03  0.00000000000E+00 0. -1.
        -14    1    6    6    0    0 -0.54901178918E+01  0.32720923279E+02 -0.18740417891E+02  0.38105163396E+02  0.00000000000E+00 0.  1.
         -5    1    5    5    0  503  0.87559426840E+02 -0.31361676168E+02 -0.77243994353E+02  0.12099145682E+03  0.47000000000E+01 0.  1.
<mgrwt>
<rscale>  2 0.21263814E+03</rscale>
<asrwt>0</asrwt>
<pdfrwt beam="1">  1       21 0.83170293E-02 0.21321053E+03</pdfrwt>
<pdfrwt beam="2">  1       21 0.13800927E+00 0.21321053E+03</pdfrwt>
<totfact> 0.41157707E+04</totfact>
</mgrwt>
</event>
<event>
12    1  0.1441827E-001  0.2186833E+03  0.7546771E-02  0.1136475E+00
         21   -1    0    0  504  503  0.00000000000E+00  0.00000000000E+00  0.52879803236E+03  0.52879803236E+03  0.00000000000E+00 0. -1.
         21   -1    0    0  502  504 -0.00000000000E+00 -0.00000000000E+00 -0.11528791664E+03  0.11528791664E+03  0.00000000000E+00 0.  1.
          6    2    1    2  502    0 -0.14961559610E+02 -0.13183142472E+03  0.44221827826E+02  0.21490509174E+03  0.16317247191E+03 0.  0.
         24    2    3    3    0    0 -0.21657231500E+02 -0.19207601943E+02  0.55106582067E+02  0.10146116130E+03  0.80122807090E+02 0.  0.
         -6    2    1    2    0  503  0.14961559610E+02  0.13183142472E+03  0.36928828789E+03  0.42918085726E+03  0.17383611780E+03 0.  0.
        -24    2    5    5    0    0  0.11666148087E+02  0.28852171758E+02  0.28015196437E+03  0.29286152463E+03  0.79461957176E+02 0.  0.
          4    1    4    4  501    0 -0.31974041972E+02 -0.38178791130E+00 -0.95191912911E+01  0.33363155200E+02  0.00000000000E+00 0. -1.
         -3    1    4    4    0  501  0.10316810472E+02 -0.18825814031E+02  0.64625773358E+02  0.68098006097E+02  0.00000000000E+00 0.  1.
          5    1    3    3  502    0  0.66956718902E+01 -0.11262382278E+03 -0.10884754242E+02  0.11344393045E+03  0.47000000000E+01 0. -1.
         13    1    6    6    0    0  0.37405543031E+02  0.32605479053E+02  0.10924583765E+03  0.11998726998E+03  0.00000000000E+00 0. -1.
        -14    1    6    6    0    0 -0.25739394945E+02 -0.37533072950E+01  0.17090612672E+03  0.17287425464E+03  0.00000000000E+00 0.  1.
         -5    1    5    5    0  503  0.32954115233E+01  0.10297925297E+03  0.89136323521E+02  0.13631933263E+03  0.47000000000E+01 0.  1.
<mgrwt>
<rscale>  2 0.21655818E+03</rscale>
<asrwt>0</asrwt>
<pdfrwt beam="1">  1       21 0.81353543E-01 0.21868326E+03</pdfrwt>
<pdfrwt beam="2">  1       21 0.17736603E-01 0.21868326E+03</pdfrwt>
<totfact> 0.37688226E+04</totfact>
</mgrwt>
</event>
<event>
12    1  0.1441827E-001  0.2010039E+03  0.7546771E-02  0.1149124E+00
         21   -1    0    0  504  503  0.00000000000E+00  0.00000000000E+00  0.96411343248E+03  0.96411343248E+03  0.00000000000E+00 0. -1.
         21   -1    0    0  502  504 -0.00000000000E+00 -0.00000000000E+00 -0.48335309674E+02  0.48335309674E+02  0.00000000000E+00 0. -1.
          6    2    1    2  502    0  0.92384943597E+02  0.39577283413E+02  0.26896976210E+03  0.33512784067E+03  0.17281376537E+03 0.  0.
         24    2    3    3    0    0  0.13166464982E+03  0.41311134432E+02  0.22588152716E+03  0.27660786502E+03  0.80294812021E+02 0.  0.
         -6    2    1    2    0  503 -0.92384943597E+02 -0.39577283413E+02  0.64680836070E+03  0.67732090148E+03  0.17407242442E+03 0.  0.
        -24    2    5    5    0    0 -0.14494491851E+01  0.23660861052E+02  0.20167038083E+03  0.21858542412E+03  0.80911728985E+02 0.  0.
          2    1    4    4  501    0  0.12743910872E+03  0.50231223388E+02  0.22848439789E+03  0.26640011695E+03  0.00000000000E+00 0. -1.
         -1    1    4    4    0  501  0.42255411040E+01 -0.89200889563E+01 -0.26028707262E+01  0.10207748068E+02  0.00000000000E+00 0.  1.
          5    1    3    3  502    0 -0.39279706222E+02 -0.17338510184E+01  0.43088234941E+02  0.58519975654E+02  0.47000000000E+01 0. -1.
         13    1    6    6    0    0 -0.10304735597E+02 -0.24608512820E+02  0.12302540446E+03  0.12588493405E+03  0.00000000000E+00 0. -1.
        -14    1    6    6    0    0  0.88552864115E+01  0.48269373872E+02  0.78644976365E+02  0.92700490068E+02  0.00000000000E+00 0.  1.
         -5    1    5    5    0  503 -0.90935494412E+02 -0.63238144465E+02  0.44513797988E+03  0.45873547736E+03  0.47000000000E+01 0.  1.
<mgrwt>
<rscale>  2 0.20073104E+03</rscale>
<asrwt>0</asrwt>
<pdfrwt beam="1">  1       21 0.14832513E+00 0.20100385E+03</pdfrwt>
<pdfrwt beam="2">  1       21 0.74362022E-02 0.20100385E+03</pdfrwt>
<totfact> 0.41737905E+04</totfact>
</mgrwt>
</event>
<event>
12    1  0.1441827E-001  0.2375139E+03  0.7546771E-02  0.1122628E+00
         21   -1    0    0  504  503  0.00000000000E+00  0.00000000000E+00  0.12648038699E+04  0.12648038699E+04  0.00000000000E+00 0.  1.
         21   -1    0    0  502  504 -0.00000000000E+00 -0.00000000000E+00 -0.51415317277E+02  0.51415317277E+02  0.00000000000E+00 0.  1.
          6    2    1    2  502    0  0.13392327492E+03 -0.93715962522E+02  0.33832830626E+03  0.40949802036E+03  0.16280190620E+03 0.  0.
         24    2    3    3    0    0  0.11573475675E+03 -0.12090607158E+03  0.24308112278E+03  0.30868016388E+03  0.90455509801E+02 0.  0.
         -6    2    1    2    0  503 -0.13392327492E+03  0.93715962522E+02  0.87506024640E+03  0.90672116686E+03  0.17232154365E+03 0.  0.
        -24    2    5    5    0    0 -0.11519815248E+03  0.11448517547E+03  0.52435104752E+03  0.55486747199E+03  0.80971727749E+02 0.  0.
          2    1    4    4  501    0  0.27507303585E+02 -0.90348558707E+02  0.97592396183E+02  0.13580791436E+03  0.00000000000E+00 0. -1.
         -1    1    4    4    0  501  0.88227453166E+02 -0.30557512877E+02  0.14548872659E+03  0.17287224951E+03  0.00000000000E+00 0.  1.
          5    1    3    3  502    0  0.18188518166E+02  0.27190109061E+02  0.95247183484E+02  0.10081785648E+03  0.47000000000E+01 0. -1.
         11    1    6    6    0    0 -0.73482593648E+02  0.23935303371E+02  0.16968409781E+03  0.18645450750E+03  0.00000000000E+00 0. -1.
        -12    1    6    6    0    0 -0.41715558833E+02  0.90549872103E+02  0.35466694971E+03  0.36841296449E+03  0.00000000000E+00 0.  1.
         -5    1    5    5    0  503 -0.18725122436E+02 -0.20769212952E+02  0.35070919888E+03  0.35185369487E+03  0.47000000000E+01 0.  1.
<mgrwt>
<rscale>  2 0.23579182E+03</rscale>
<asrwt>0</asrwt>
<pdfrwt beam="1">  1       21 0.19458519E+00 0.23751387E+03</pdfrwt>
<pdfrwt beam="2">  1       21 0.79100497E-02 0.23751387E+03</pdfrwt>
<totfact> 0.17252104E+04</totfact>
</mgrwt>
</event>
<event>
12    1  0.1441827E-001  0.2403653E+03  0.7546771E-02  0.1119891E+00
         21   -1    0    0  504  503  0.00000000000E+00  0.00000000000E+00  0.57457558743E+02  0.57457558743E+02  0.00000000000E+00 0. -1.
         21   -1    0    0  502  504 -0.00000000000E+00 -0.00000000000E+00 -0.99926506394E+03  0.99926506394E+03  0.00000000000E+00 0. -1.
          6    2    1    2  502    0 -0.11166352819E+03  0.12073990881E+03 -0.44378234415E+03  0.50372667387E+03  0.17248456130E+03 0.  0.
         24    2    3    3    0    0 -0.15996790993E+02  0.97264442918E+02 -0.32522153905E+03  0.34951261287E+03  0.81693010210E+02 0.  0.
         -6    2    1    2    0  503  0.11166352819E+03 -0.12073990881E+03 -0.49802516105E+03  0.55299594881E+03  0.17529571945E+03 0.  0.
        -24    2    5    5    0    0  0.79904286996E+02 -0.58700684417E+02 -0.14424542724E+03  0.19238576479E+03  0.79844059163E+02 0.  0.
          2    1    4    4  501    0  0.13374324533E+02  0.80203746564E+02 -0.14613356674E+03  0.16723197316E+03  0.00000000000E+00 0. -1.
         -1    1    4    4    0  501 -0.29371115526E+02  0.17060696354E+02 -0.17908797231E+03  0.18228063971E+03  0.00000000000E+00 0.  1.
          5    1    3    3  502    0 -0.95666737198E+02  0.23475465887E+02 -0.11856080510E+03  0.15421406100E+03  0.47000000000E+01 0. -1.
         13    1    6    6    0    0  0.40848448694E+02 -0.60880165830E+02 -0.13269193062E+03  0.15159861083E+03  0.00000000000E+00 0. -1.
        -14    1    6    6    0    0  0.39055838302E+02  0.21794814124E+01 -0.11553496622E+02  0.40787153969E+02  0.00000000000E+00 0.  1.
         -5    1    5    5    0  503  0.31759241194E+02 -0.62039224388E+02 -0.35377973381E+03  0.36061018402E+03  0.47000000000E+01 0.  1.
<mgrwt>
<rscale>  2 0.23985303E+03</rscale>
<asrwt>0</asrwt>
<pdfrwt beam="1">  1       21 0.88396249E-02 0.24036526E+03</pdfrwt>
<pdfrwt beam="2">  1       21 0.15373308E+00 0.24036526E+03</pdfrwt>
<totfact> 0.27445962E+04</totfact>
</mgrwt>
</event>
<event>
12    1  0.1441827E-001  0.2047043E+03  0.7546771E-02  0.1146543E+00
         21   -1    0    0  504  503  0.00000000000E+00  0.00000000000E+00  0.85626208745E+02  0.85626208745E+02  0.00000000000E+00 0.  1.
         21   -1    0    0  502  504 -0.00000000000E+00 -0.00000000000E+00 -0.61928398232E+03  0.61928398232E+03  0.00000000000E+00 0.  1.
          6    2    1    2  502    0  0.76447855797E+02 -0.67364560793E+02 -0.43504449933E+03  0.48079888480E+03  0.17754321312E+03 0.  0.
         24    2    3    3    0    0  0.29301660107E+02  0.10214641343E+02 -0.92753380592E+02  0.12664270974E+03  0.80450358207E+02 0.  0.
         -6    2    1    2    0  503 -0.76447855797E+02  0.67364560793E+02 -0.98613274252E+02  0.22411130626E+03  0.17354838239E+03 0.  0.
        -24    2    5    5    0    0 -0.19421991529E+02 -0.13618025091E+02  0.38937939642E+01  0.81493223799E+02  0.77867320047E+02 0.  0.
          4    1    4    4  501    0  0.34759306316E+02  0.41676229301E+02 -0.56852523246E+02  0.78595972313E+02  0.00000000000E+00 0. -1.
         -3    1    4    4    0  501 -0.54576462095E+01 -0.31461587958E+02 -0.35900857346E+02  0.48046737425E+02  0.00000000000E+00 0.  1.
          5    1    3    3  502    0  0.47146195691E+02 -0.77579202137E+02 -0.34229111873E+03  0.35415617507E+03  0.47000000000E+01 0. -1.
         11    1    6    6    0    0 -0.33716958402E+02 -0.11052116262E+02 -0.28812609566E+02  0.45707209800E+02  0.00000000000E+00 0. -1.
        -12    1    6    6    0    0  0.14294966873E+02 -0.25659088289E+01  0.32706403530E+02  0.35786013998E+02  0.00000000000E+00 0.  1.
         -5    1    5    5    0  503 -0.57025864268E+02  0.80982585884E+02 -0.10250706822E+03  0.14261808247E+03  0.47000000000E+01 0.  1.
<mgrwt>
<rscale>  2 0.20383504E+03</rscale>
<asrwt>0</asrwt>
<pdfrwt beam="1">  1       21 0.13173263E-01 0.20470430E+03</pdfrwt>
<pdfrwt beam="2">  1       21 0.95274459E-01 0.20470430E+03</pdfrwt>
<totfact> 0.45382350E+04</totfact>
</mgrwt>
</event>
<event>
12    1  0.1441827E-001  0.1957030E+03  0.7546771E-02  0.1154976E+00
         21   -1    0    0  504  503  0.00000000000E+00  0.00000000000E+00  0.93345736493E+03  0.93345736493E+03  0.00000000000E+00 0. -1.
         21   -1    0    0  502  504 -0.00000000000E+00 -0.00000000000E+00 -0.64404984020E+02  0.64404984020E+02  0.00000000000E+00 0.  1.
          6    2    1    2  502    0 -0.74652722018E+02  0.30528775481E+01  0.11980410853E+03  0.22347702907E+03  0.17322415863E+03 0.  0.
         24    2    3    3    0    0 -0.82874084398E+02  0.58672240017E+02  0.62470904176E+02  0.14303891247E+03  0.79037782091E+02 0.  0.
         -6    2    1    2    0  503  0.74652722018E+02 -0.30528775481E+01  0.74924827238E+03  0.77438531988E+03  0.18087924429E+03 0.  0.
        -24    2    5    5    0    0  0.10087720820E+03 -0.80484881322E+01  0.72956520335E+03  0.74088617054E+03  0.80037131742E+02 0.  0.
          4    1    4    4  501    0 -0.23640925567E+02  0.52557715674E+02  0.60359700009E+02  0.83453581251E+02  0.00000000000E+00 0. -1.
         -3    1    4    4    0  501 -0.59233158831E+02  0.61145243426E+01  0.21112041673E+01  0.59585331216E+02  0.00000000000E+00 0.  1.
          5    1    3    3  502    0  0.82213623806E+01 -0.55619362469E+02  0.57333204351E+02  0.80438116599E+02  0.47000000000E+01 0. -1.
         11    1    6    6    0    0  0.42210487295E+01 -0.25476535457E+02  0.25242773392E+03  0.25374521072E+03  0.00000000000E+00 0. -1.
        -12    1    6    6    0    0  0.96656159467E+02  0.17428047325E+02  0.47713746944E+03  0.48714095982E+03  0.00000000000E+00 0.  1.
         -5    1    5    5    0  503 -0.26224486178E+02  0.49956105841E+01  0.19683069032E+02  0.33499149346E+02  0.47000000000E+01 0.  1.
<mgrwt>
<rscale>  2 0.19391547E+03</rscale>
<asrwt>0</asrwt>
<pdfrwt beam="1">  1       21 0.14360882E+00 0.19570296E+03</pdfrwt>
<pdfrwt beam="2">  1       21 0.99084598E-02 0.19570296E+03</pdfrwt>
<totfact> 0.27574187E+04</totfact>
</mgrwt>
</event>
<event>
12    1  0.1441827E-001  0.2212920E+03  0.7546771E-02  0.1132935E+00
         21   -1    0    0  504  503  0.00000000000E+00  0.00000000000E+00  0.96410736394E+02  0.96410736394E+02  0.00000000000E+00 0. -1.
         21   -1    0    0  502  504 -0.00000000000E+00 -0.00000000000E+00 -0.56098041358E+03  0.56098041358E+03  0.00000000000E+00 0.  1.
          6    2    1    2  502    0 -0.13766888819E+03  0.16563613995E+01 -0.13109852826E+03  0.25720999801E+03  0.17324748961E+03 0.  0.
         24    2    3    3    0    0 -0.90097516560E+02 -0.16379447787E+02 -0.15814637179E+03  0.19939995000E+03  0.79776038694E+02 0.  0.
         -6    2    1    2    0  503  0.13766888819E+03 -0.16563613995E+01 -0.33347114893E+03  0.40018115196E+03  0.17316605011E+03 0.  0.
        -24    2    5    5    0    0  0.26688320706E+02 -0.37058044102E+02 -0.90231464769E+02  0.13044498559E+03  0.82393033308E+02 0.  0.
          2    1    4    4  501    0 -0.68015481010E+02  0.22597387242E+02 -0.68292158218E+02  0.98997810285E+02  0.00000000000E+00 0. -1.
         -1    1    4    4    0  501 -0.22082035550E+02 -0.38976835029E+02 -0.89854213569E+02  0.10040213971E+03  0.00000000000E+00 0.  1.
          5    1    3    3  502    0 -0.47571371627E+02  0.18035809186E+02  0.27047843531E+02  0.57810048012E+02  0.47000000000E+01 0. -1.
         11    1    6    6    0    0 -0.57102565744E+01  0.21635945650E+02 -0.42878018835E+02  0.48365748971E+02  0.00000000000E+00 0. -1.
        -12    1    6    6    0    0  0.32398577281E+02 -0.58693989753E+02 -0.47353445934E+02  0.82079236624E+02  0.00000000000E+00 0.  1.
         -5    1    5    5    0  503  0.11098056748E+03  0.35401682703E+02 -0.24323968416E+03  0.26973616637E+03  0.47000000000E+01 0.  1.
<mgrwt>
<rscale>  2 0.22127608E+03</rscale>
<asrwt>0</asrwt>
<pdfrwt beam="1">  1       21 0.14832421E-01 0.22129202E+03</pdfrwt>
<pdfrwt beam="2">  1       21 0.86304680E-01 0.22129202E+03</pdfrwt>
<totfact> 0.45675098E+04</totfact>
</mgrwt>
</event>
<event>
12    1  0.1441827E-001  0.1984488E+03  0.7546771E-02  0.1151117E+00
         21   -1    0    0  504  503  0.00000000000E+00  0.00000000000E+00  0.23789757804E+03  0.23789757804E+03  0.00000000000E+00 0. -1.
         21   -1    0    0  502  504 -0.00000000000E+00 -0.00000000000E+00 -0.37728630637E+03  0.37728630637E+03  0.00000000000E+00 0. -1.
          6    2    1    2  502    0  0.13968301659E+02  0.96314808455E+02 -0.30023917751E+03  0.35973373032E+03  0.17260688643E+03 0.  0.
         24    2    3    3    0    0  0.63613902196E+01  0.60680433195E+01 -0.23098521329E+03  0.24562612637E+03  0.83070673306E+02 0.  0.
         -6    2    1    2    0  503 -0.13968301659E+02 -0.96314808455E+02  0.16085044917E+03  0.25545015409E+03  0.17294582518E+03 0.  0.
        -24    2    5    5    0    0  0.25503244547E+02 -0.58297009569E+02  0.16662101416E+03  0.20014422844E+03  0.90808551427E+02 0.  0.
          2    1    4    4  501    0  0.89604414404E+01  0.26482766611E+02 -0.22098333526E+03  0.22274483361E+03  0.00000000000E+00 0. -1.
         -1    1    4    4    0  501 -0.25990512209E+01 -0.20414723292E+02 -0.10001878030E+02  0.22881292762E+02  0.00000000000E+00 0.  1.
          5    1    3    3  502    0  0.76069114394E+01  0.90246765135E+02 -0.69253964219E+02  0.11410760395E+03  0.47000000000E+01 0. -1.
         13    1    6    6    0    0 -0.31392483124E+02 -0.35142328219E+02  0.52532206048E+02  0.70569851223E+02  0.00000000000E+00 0. -1.
        -14    1    6    6    0    0  0.56895727671E+02 -0.23154681350E+02  0.11408880811E+03  0.12957437722E+03  0.00000000000E+00 0.  1.
         -5    1    5    5    0  503 -0.39471546206E+02 -0.38017798886E+02 -0.57705649842E+01  0.55305925652E+02  0.47000000000E+01 0.  1.
<mgrwt>
<rscale>  2 0.19837490E+03</rscale>
<asrwt>0</asrwt>
<pdfrwt beam="1">  1       21 0.36599628E-01 0.19844877E+03</pdfrwt>
<pdfrwt beam="2">  1       21 0.58044047E-01 0.19844877E+03</pdfrwt>
<totfact> 0.19958002E+04</totfact>
</mgrwt>
</event>
<event>
12    1  0.1441827E-001  0.2656870E+03  0.7546771E-02  0.1105053E+00
         21   -1    0    0  504  503  0.00000000000E+00  0.00000000000E+00  0.18624648223E+03  0.18624648223E+03  0.00000000000E+00 0.  1.
         21   -1    0    0  502  504 -0.00000000000E+00 -0.00000000000E+00 -0.38899860615E+03  0.38899860615E+03  0.00000000000E+00 0. -1.
          6    2    1    2  502    0 -0.80232053098E+02  0.18418630340E+03 -0.17158862079E+03  0.31627869401E+03  0.17386138385E+03 0.  0.
         24    2    3    3    0    0 -0.87018645759E+02  0.20792010624E+03 -0.16341068932E+03  0.28985295277E+03  0.80676301083E+02 0.  0.
         -6    2    1    2    0  503  0.80232053098E+02 -0.18418630340E+03 -0.31163503134E+02  0.25896639438E+03  0.16040777035E+03 0.  0.
        -24    2    5    5    0    0  0.99034422823E+02 -0.14890357035E+03 -0.64598372489E+02  0.20663685351E+03  0.80905805321E+02 0.  0.
          2    1    4    4  501    0 -0.70876305816E+02  0.13635455063E+03 -0.15100192926E+03  0.21544743406E+03  0.00000000000E+00 0. -1.
         -1    1    4    4    0  501 -0.16142339942E+02  0.71565555603E+02 -0.12408760066E+02  0.74405518706E+02  0.00000000000E+00 0.  1.
          5    1    3    3  502    0  0.67865926601E+01 -0.23733802836E+02 -0.81779314650E+01  0.26425741239E+02  0.47000000000E+01 0. -1.
         13    1    6    6    0    0  0.46431359199E+02 -0.25078483395E+02 -0.47535080762E+02  0.71023836488E+02  0.00000000000E+00 0. -1.
        -14    1    6    6    0    0  0.52603063624E+02 -0.12382508695E+03 -0.17063291727E+02  0.13561301702E+03  0.00000000000E+00 0.  1.
         -5    1    5    5    0  503 -0.18802369725E+02 -0.35282733050E+02  0.33434869355E+02  0.52329540869E+02  0.47000000000E+01 0.  1.
<mgrwt>
<rscale>  2 0.26350972E+03</rscale>
<asrwt>0</asrwt>
<pdfrwt beam="1">  1       21 0.28653305E-01 0.26568695E+03</pdfrwt>
<pdfrwt beam="2">  1       21 0.59845939E-01 0.26568695E+03</pdfrwt>
<totfact> 0.29294087E+04</totfact>
</mgrwt>
</event>
<event>
12    1  0.1441827E-001  0.1855531E+03  0.7546771E-02  0.1163624E+00
         21   -1    0    0  504  503  0.00000000000E+00  0.00000000000E+00  0.46793805398E+03  0.46793805398E+03  0.00000000000E+00 0. -1.
         21   -1    0    0  502  504 -0.00000000000E+00 -0.00000000000E+00 -0.88096687490E+02  0.88096687490E+02  0.00000000000E+00 0. -1.
          6    2    1    2  502    0 -0.25427020641E+02 -0.68359315922E+02  0.72143978791E+02  0.19908466619E+03  0.17061776339E+03 0.  0.
         24    2    3    3    0    0 -0.45497560990E+02 -0.10026389021E+02 -0.12333540566E+02  0.94375076239E+02  0.81141741781E+02 0.  0.
         -6    2    1    2    0  503  0.25427020641E+02  0.68359315922E+02  0.30769738770E+03  0.35695007528E+03  0.16557821232E+03 0.  0.
        -24    2    5    5    0    0  0.27576271436E+02  0.22275930970E+02  0.59162273708E+02  0.10412584675E+03  0.78008650057E+02 0.  0.
          4    1    4    4  501    0 -0.29046799796E+02 -0.45105471041E+02  0.21260300878E+00  0.53649466877E+02  0.00000000000E+00 0. -1.
         -3    1    4    4    0  501 -0.16450761194E+02  0.35079082020E+02 -0.12546143575E+02  0.40725609361E+02  0.00000000000E+00 0.  1.
          5    1    3    3  502    0  0.20070540349E+02 -0.58332926901E+02  0.84477519357E+02  0.10470958995E+03  0.47000000000E+01 0. -1.
         11    1    6    6    0    0 -0.20962401426E+02  0.20710473014E+02  0.44545051323E+02  0.53409807745E+02  0.00000000000E+00 0. -1.
        -12    1    6    6    0    0  0.48538672862E+02  0.15654579563E+01  0.14617222385E+02  0.50716039002E+02  0.00000000000E+00 0.  1.
         -5    1    5    5    0  503 -0.21492507956E+01  0.46083384951E+02  0.24853511399E+03  0.25282422853E+03  0.47000000000E+01 0.  1.
<mgrwt>
<rscale>  2 0.18438637E+03</rscale>
<asrwt>0</asrwt>
<pdfrwt beam="1">  1       21 0.71990468E-01 0.18555309E+03</pdfrwt>
<pdfrwt beam="2">  1       21 0.13553337E-01 0.18555309E+03</pdfrwt>
<totfact> 0.82354670E+04</totfact>
</mgrwt>
</event>
<event>
12    1  0.1441827E-001  0.1968568E+03  0.7546771E-02  0.1152423E+00
         21   -1    0    0  504  503  0.00000000000E+00  0.00000000000E+00  0.64102428119E+02  0.64102428119E+02  0.00000000000E+00 0.  1.
         21   -1    0    0  502  504 -0.00000000000E+00 -0.00000000000E+00 -0.11328474041E+04  0.11328474041E+04  0.00000000000E+00 0. -1.
          6    2    1    2  502    0  0.54886902468E+02  0.75573267376E+02 -0.94310924828E+03  0.96343534834E+03  0.17328798414E+03 0.  0.
         24    2    3    3    0    0  0.14382858509E+02  0.19461235806E+02 -0.80007189803E+03  0.80446707720E+03  0.80415359017E+02 0.  0.
         -6    2    1    2    0  503 -0.54886902468E+02 -0.75573267376E+02 -0.12563572766E+03  0.23351448384E+03  0.17326507811E+03 0.  0.
        -24    2    5    5    0    0 -0.54408261870E+02  0.17823171552E+02 -0.39875457780E+02  0.10662855951E+03  0.80632953352E+02 0.  0.
          4    1    4    4  501    0  0.24771380031E+02  0.47776645504E+02 -0.51284161170E+03  0.51565758776E+03  0.00000000000E+00 0. -1.
         -3    1    4    4    0  501 -0.10388521522E+02 -0.28315409698E+02 -0.28723028633E+03  0.28880948944E+03  0.00000000000E+00 0.  1.
          5    1    3    3  502    0  0.40504043959E+02  0.56112031569E+02 -0.14303735024E+03  0.15896827114E+03  0.47000000000E+01 0. -1.
         11    1    6    6    0    0 -0.18959200574E+02  0.31246478642E+02 -0.54817521641E+02  0.65884401741E+02  0.00000000000E+00 0. -1.
        -12    1    6    6    0    0 -0.35449061296E+02 -0.13423307090E+02  0.14942063860E+02  0.40744157770E+02  0.00000000000E+00 0.  1.
         -5    1    5    5    0  503 -0.47864059768E+00 -0.93396438928E+02 -0.85760269882E+02  0.12688592432E+03  0.47000000000E+01 0.  1.
<mgrwt>
<rscale>  2 0.19685180E+03</rscale>
<asrwt>0</asrwt>
<pdfrwt beam="1">  1       21 0.98619125E-02 0.19685684E+03</pdfrwt>
<pdfrwt beam="2">  1       21 0.17428421E+00 0.19685684E+03</pdfrwt>
<totfact> 0.16513689E+04</totfact>
</mgrwt>
</event>
<event>
12    1  0.1441827E-001  0.2448855E+03  0.7546771E-02  0.1116774E+00
         21   -1    0    0  504  503  0.00000000000E+00  0.00000000000E+00  0.15627696907E+03  0.15627696907E+03  0.00000000000E+00 0.  1.
         21   -1    0    0  502  504 -0.00000000000E+00 -0.00000000000E+00 -0.39169997171E+03  0.39169997171E+03  0.00000000000E+00 0. -1.
          6    2    1    2  502    0 -0.11212664421E+03  0.13016703568E+03 -0.16083439083E+03  0.29198406073E+03  0.17283271948E+03 0.  0.
         24    2    3    3    0    0 -0.80098931212E+02  0.54005367646E+02 -0.16617644868E+03  0.20905637138E+03  0.82204232276E+02 0.  0.
         -6    2    1    2    0  503  0.11212664421E+03 -0.13016703568E+03 -0.74588611804E+02  0.25599288005E+03  0.17450802878E+03 0.  0.
        -24    2    5    5    0    0  0.13667566266E+03 -0.14635653475E+03 -0.62568910446E+02  0.22387874910E+03  0.78143161677E+02 0.  0.
          2    1    4    4  501    0 -0.65924583402E+02 -0.51080802682E-01 -0.11847794998E+03  0.13558420976E+03  0.00000000000E+00 0. -1.
         -1    1    4    4    0  501 -0.14174347809E+02  0.54056448449E+02 -0.47698498702E+02  0.73472161620E+02  0.00000000000E+00 0.  1.
          5    1    3    3  502    0 -0.32027712999E+02  0.76161668037E+02  0.53420578450E+01  0.82927689346E+02  0.47000000000E+01 0. -1.
         11    1    6    6    0    0  0.10166338207E+03 -0.64549369032E+02 -0.60739395620E+02  0.13487527007E+03  0.00000000000E+00 0. -1.
        -12    1    6    6    0    0  0.35012280585E+02 -0.81807165715E+02 -0.18295148268E+01  0.89003479025E+02  0.00000000000E+00 0.  1.
         -5    1    5    5    0  503 -0.24549018445E+02  0.16189499063E+02 -0.12019701357E+02  0.32114130959E+02  0.47000000000E+01 0.  1.
<mgrwt>
<rscale>  2 0.24458717E+03</rscale>
<asrwt>0</asrwt>
<pdfrwt beam="1">  1       21 0.24042611E-01 0.24488547E+03</pdfrwt>
<pdfrwt beam="2">  1       21 0.60261533E-01 0.24488547E+03</pdfrwt>
<totfact> 0.40861739E+04</totfact>
</mgrwt>
</event>
<event>
12    1  0.1441827E-001  0.2164758E+03  0.7546771E-02  0.1136835E+00
         21   -1    0    0  504  503  0.00000000000E+00  0.00000000000E+00  0.15766651985E+04  0.15766651985E+04  0.00000000000E+00 0. -1.
         21   -1    0    0  502  504 -0.00000000000E+00 -0.00000000000E+00 -0.34909861015E+02  0.34909861015E+02  0.00000000000E+00 0.  1.
          6    2    1    2  502    0 -0.77226966021E+02  0.10084695332E+03  0.45158782817E+03  0.50012241556E+03  0.17336883144E+03 0.  0.
         24    2    3    3    0    0 -0.87855791648E+02  0.13367548355E+03  0.39293474209E+03  0.43190981526E+03  0.80997542890E+02 0.  0.
         -6    2    1    2    0  503  0.77226966021E+02 -0.10084695332E+03  0.10901675094E+04  0.11114526440E+04  0.17529309492E+03 0.  0.
        -24    2    5    5    0    0  0.10546195102E+03 -0.42593605563E+02  0.56939853711E+03  0.58665451200E+03  0.83739978695E+02 0.  0.
          4    1    4    4  501    0 -0.77733927425E+02  0.11795837660E+03  0.38749078822E+03  0.41243890825E+03  0.00000000000E+00 0. -1.
         -3    1    4    4    0  501 -0.10121864223E+02  0.15717106947E+02  0.54439538639E+01  0.19470907011E+02  0.00000000000E+00 0.  1.
          5    1    3    3  502    0  0.10628825627E+02 -0.32828530234E+02  0.58653086085E+02  0.68212600294E+02  0.47000000000E+01 0. -1.
         13    1    6    6    0    0  0.31819637690E+02 -0.49526362270E+02  0.15696483633E+03  0.16764041800E+03  0.00000000000E+00 0. -1.
        -14    1    6    6    0    0  0.73642313334E+02  0.69327567062E+01  0.41243370079E+03  0.41901409400E+03  0.00000000000E+00 0.  1.
         -5    1    5    5    0  503 -0.28234985004E+02 -0.58253347752E+02  0.52076897224E+03  0.52479813200E+03  0.47000000000E+01 0.  1.
<mgrwt>
<rscale>  2 0.21608596E+03</rscale>
<asrwt>0</asrwt>
<pdfrwt beam="1">  1       21 0.24256382E+00 0.21647582E+03</pdfrwt>
<pdfrwt beam="2">  1       21 0.53707490E-02 0.21647582E+03</pdfrwt>
<totfact> 0.17176312E+04</totfact>
</mgrwt>
</event>
<event>
12    1  0.1441827E-001  0.1985249E+03  0.7546771E-02  0.1151964E+00
         21   -1    0    0  504  503  0.00000000000E+00  0.00000000000E+00  0.15709673845E+03  0.15709673845E+03  0.00000000000E+00 0.  1.
         21   -1    0    0  502  504 -0.00000000000E+00 -0.00000000000E+00 -0.33540255416E+03  0.33540255416E+03  0.00000000000E+00 0.  1.
          6    2    1    2  502    0  0.34798440686E+02  0.89071430098E+02 -0.21760029962E+03  0.29455397030E+03  0.17397557268E+03 0.  0.
         24    2    3    3    0    0  0.34736085130E+02  0.10148907421E+03 -0.23679676537E+03  0.27121310334E+03  0.77312428122E+02 0.  0.
         -6    2    1    2    0  503 -0.34798440686E+02 -0.89071430098E+02  0.39294483916E+02  0.19794532231E+03  0.16880060137E+03 0.  0.
        -24    2    5    5    0    0 -0.43685355857E+02  0.11909381213E+02  0.18946062919E+02  0.94445323506E+02  0.80689046065E+02 0.  0.
          4    1    4    4  501    0  0.14664976972E+02  0.98908390979E+02 -0.13830550049E+03  0.17066441581E+03  0.00000000000E+00 0. -1.
         -3    1    4    4    0  501  0.20071108158E+02  0.25806832264E+01 -0.98491264872E+02  0.10054868753E+03  0.00000000000E+00 0.  1.
          5    1    3    3  502    0  0.62355556175E-01 -0.12417644108E+02  0.19196465742E+02  0.23340866959E+02  0.47000000000E+01 0. -1.
         11    1    6    6    0    0 -0.20376238327E+02  0.36117424925E+01 -0.31827900557E+02  0.37963812059E+02  0.00000000000E+00 0. -1.
        -12    1    6    6    0    0 -0.23309117530E+02  0.82976387209E+01  0.50773963476E+02  0.56481511448E+02  0.00000000000E+00 0.  1.
         -5    1    5    5    0  503  0.88869151711E+01 -0.10098081131E+03  0.20348420998E+02  0.10349999880E+03  0.47000000000E+01 0.  1.
<mgrwt>
<rscale>  2 0.19738541E+03</rscale>
<asrwt>0</asrwt>
<pdfrwt beam="1">  1       21 0.24168729E-01 0.19852494E+03</pdfrwt>
<pdfrwt beam="2">  1       21 0.51600392E-01 0.19852494E+03</pdfrwt>
<totfact> 0.57475456E+04</totfact>
</mgrwt>
</event>
<event>
12    1  0.1441827E-001  0.1874610E+03  0.7546771E-02  0.1161607E+00
         21   -1    0    0  504  503  0.00000000000E+00  0.00000000000E+00  0.27378290640E+03  0.27378290640E+03  0.00000000000E+00 0. -1.
         21   -1    0    0  502  504 -0.00000000000E+00 -0.00000000000E+00 -0.29677349543E+03  0.29677349543E+03  0.00000000000E+00 0. -1.
          6    2    1    2  502    0  0.47158550708E+02  0.50704670813E+02 -0.22800572618E+03  0.29517495767E+03  0.17420319147E+03 0.  0.
         24    2    3    3    0    0  0.37223082056E+02  0.10069714910E+03 -0.18344559990E+03  0.22730997203E+03  0.80573330478E+02 0.  0.
         -6    2    1    2    0  503 -0.47158550708E+02 -0.50704670813E+02  0.20501513715E+03  0.27538144415E+03  0.17031981910E+03 0.  0.
        -24    2    5    5    0    0 -0.40614679609E+02  0.34868089316E+02  0.87916108073E+02  0.13012376919E+03  0.79609153980E+02 0.  0.
          4    1    4    4  501    0 -0.14993332936E+02  0.56241182997E+02 -0.47811150897E+02  0.75324477081E+02  0.00000000000E+00 0. -1.
         -3    1    4    4    0  501  0.52216414993E+02  0.44455966105E+02 -0.13563444900E+03  0.15198549494E+03  0.00000000000E+00 0.  1.
          5    1    3    3  502    0  0.99354686522E+01 -0.49992478290E+02 -0.44560126280E+02  0.67864985648E+02  0.47000000000E+01 0. -1.
         11    1    6    6    0    0 -0.22548965012E+02  0.26457038295E+02 -0.49772233061E+01  0.35116996601E+02  0.00000000000E+00 0. -1.
        -12    1    6    6    0    0 -0.18065714597E+02  0.84110510205E+01  0.92893331379E+02  0.95006772590E+02  0.00000000000E+00 0.  1.
         -5    1    5    5    0  503 -0.65438710996E+01 -0.85572760128E+02  0.11709902908E+03  0.14525767496E+03  0.47000000000E+01 0.  1.
<mgrwt>
<rscale>  2 0.18655370E+03</rscale>
<asrwt>0</asrwt>
<pdfrwt beam="1">  1       21 0.42120448E-01 0.18746105E+03</pdfrwt>
<pdfrwt beam="2">  1       21 0.45657460E-01 0.18746105E+03</pdfrwt>
<totfact> 0.25022653E+04</totfact>
</mgrwt>
</event>
<event>
12    1  0.1441827E-001  0.1804819E+03  0.7546771E-02  0.1167359E+00
         21   -1    0    0  504  503  0.00000000000E+00  0.00000000000E+00  0.15069262305E+03  0.15069262305E+03  0.00000000000E+00 0. -1.
         21   -1    0    0  502  504 -0.00000000000E+00 -0.00000000000E+00 -0.25601117919E+03  0.25601117919E+03  0.00000000000E+00 0. -1.
          6    2    1    2  502    0 -0.18400500442E+02  0.51960534078E+02 -0.13300729807E+03  0.22419783769E+03  0.17185823683E+03 0.  0.
         24    2    3    3    0    0 -0.36951428533E+02 -0.30014837288E+02 -0.92159634317E+02  0.13063117654E+03  0.79402818337E+02 0.  0.
         -6    2    1    2    0  503  0.18400500442E+02 -0.51960534078E+02  0.27688741934E+02  0.18250596455E+03  0.17176520355E+03 0.  0.
        -24    2    5    5    0    0 -0.35257052208E+02  0.14631256184E+02 -0.10468065130E+02  0.88742264692E+02  0.79425913700E+02 0.  0.
          4    1    4    4  501    0 -0.53333079612E+02  0.46756781287E+01 -0.45789261352E+02  0.70448107157E+02  0.00000000000E+00 0. -1.
         -3    1    4    4    0  501  0.16381651079E+02 -0.34690515417E+02 -0.46370372965E+02  0.60183069388E+02  0.00000000000E+00 0.  1.
          5    1    3    3  502    0  0.18550928091E+02  0.81975371366E+02 -0.40847663752E+02  0.93566661144E+02  0.47000000000E+01 0. -1.
         13    1    6    6    0    0  0.46252836674E+01 -0.15258213036E+02  0.23521442609E+02  0.28415921180E+02  0.00000000000E+00 0. -1.
        -14    1    6    6    0    0 -0.39882335876E+02  0.29889469220E+02 -0.33989507739E+02  0.60326343512E+02  0.00000000000E+00 0.  1.
         -5    1    5    5    0  503  0.53657552650E+02 -0.66591790262E+02  0.38156807064E+02  0.93763699863E+02  0.47000000000E+01 0.  1.
<mgrwt>
<rscale>  2 0.18045979E+03</rscale>
<asrwt>0</asrwt>
<pdfrwt beam="1">  1       21 0.23183481E-01 0.18048194E+03</pdfrwt>
<pdfrwt beam="2">  1       21 0.39386335E-01 0.18048194E+03</pdfrwt>
<totfact> 0.10913217E+05</totfact>
</mgrwt>
</event>
<event>
12    1  0.1441827E-001  0.2016029E+03  0.7546771E-02  0.1148430E+00
         21   -1    0    0  504  503  0.00000000000E+00  0.00000000000E+00  0.10608210980E+03  0.10608210980E+03  0.00000000000E+00 0.  1.
         21   -1    0    0  502  504 -0.00000000000E+00 -0.00000000000E+00 -0.42271221678E+03  0.42271221678E+03  0.00000000000E+00 0.  1.
          6    2    1    2  502    0  0.98351425091E+02  0.27640009465E+02 -0.23961367900E+03  0.31314284327E+03  0.17380089812E+03 0.  0.
         24    2    3    3    0    0  0.81291548803E+02  0.20784387475E+02 -0.26039314676E+03  0.28500185516E+03  0.79882162557E+02 0.  0.
         -6    2    1    2    0  503 -0.98351425091E+02 -0.27640009465E+02 -0.77016427976E+02  0.21565148331E+03  0.17360028552E+03 0.  0.
        -24    2    5    5    0    0  0.13278874784E+02  0.47903706421E+00 -0.41020960354E+02  0.94946187991E+02  0.84590197031E+02 0.  0.
          2    1    4    4  501    0  0.36857304471E+02  0.36555547080E+02 -0.20859683837E+03  0.21495908889E+03  0.00000000000E+00 0. -1.
         -1    1    4    4    0  501  0.44434244333E+02 -0.15771159605E+02 -0.51796308387E+02  0.70042766274E+02  0.00000000000E+00 0.  1.
          5    1    3    3  502    0  0.17059876287E+02  0.68556219895E+01  0.20779467758E+02  0.28140988115E+02  0.47000000000E+01 0. -1.
         11    1    6    6    0    0 -0.34340330832E+01 -0.78862689519E+00  0.25808014446E+02  0.26047420702E+02  0.00000000000E+00 0. -1.
        -12    1    6    6    0    0  0.16712907867E+02  0.12676639594E+01 -0.66828974799E+02  0.68898767289E+02  0.00000000000E+00 0.  1.
         -5    1    5    5    0  503 -0.11163029987E+03 -0.28119046529E+02 -0.35995467623E+02  0.12070529532E+03  0.47000000000E+01 0.  1.
<mgrwt>
<rscale>  2 0.20155965E+03</rscale>
<asrwt>0</asrwt>
<pdfrwt beam="1">  1       21 0.16320324E-01 0.20160289E+03</pdfrwt>
<pdfrwt beam="2">  1       21 0.65032650E-01 0.20160289E+03</pdfrwt>
<totfact> 0.72911405E+04</totfact>
</mgrwt>
</event>
<event>
12    1  0.1441827E-001  0.1829819E+03  0.7546771E-02  0.1164968E+00
         21   -1    0    0  504  503  0.00000000000E+00  0.00000000000E+00  0.23619798068E+03  0.23619798068E+03  0.00000000000E+00 0.  1.
         21   -1    0    0  502  504 -0.00000000000E+00 -0.00000000000E+00 -0.17434675840E+03  0.17434675840E+03  0.00000000000E+00 0.  1.
          6    2    1    2  502    0 -0.12303792372E+01  0.60613620837E+02 -0.57906840863E+02  0.19192593176E+03  0.17264656440E+03 0.  0.
         24    2    3    3    0    0 -0.12198279887E+01 -0.33628252990E+02 -0.35139549093E+02  0.94859096701E+02  0.81431645795E+02 0.  0.
         -6    2    1    2    0  503  0.12303792372E+01 -0.60613620837E+02  0.11975806314E+03  0.21861880732E+03  0.17255916193E+03 0.  0.
        -24    2    5    5    0    0  0.72348713701E+01  0.23074777061E+02  0.17750321366E+02  0.86454246074E+02  0.81083130523E+02 0.  0.
          4    1    4    4  501    0  0.35179162614E+02 -0.28237287471E+02 -0.17058817645E+01  0.45142307412E+02  0.00000000000E+00 0. -1.
         -3    1    4    4    0  501 -0.36398990603E+02 -0.53909655192E+01 -0.33433667328E+02  0.49716789288E+02  0.00000000000E+00 0.  1.
          5    1    3    3  502    0 -0.10551248489E-01  0.94241873826E+02 -0.22767291770E+02  0.97066835058E+02  0.47000000000E+01 0. -1.
         13    1    6    6    0    0 -0.22022139089E+02  0.23129916084E+02  0.38916578927E+02  0.50343497529E+02  0.00000000000E+00 0. -1.
        -14    1    6    6    0    0  0.29257010459E+02 -0.55139023527E-01 -0.21166257561E+02  0.36110748545E+02  0.00000000000E+00 0.  1.
         -5    1    5    5    0  503 -0.60044921329E+01 -0.83688397897E+02  0.10200774177E+03  0.13216456125E+03  0.47000000000E+01 0.  1.
<mgrwt>
<rscale>  2 0.18296124E+03</rscale>
<asrwt>0</asrwt>
<pdfrwt beam="1">  1       21 0.36338151E-01 0.18298186E+03</pdfrwt>
<pdfrwt beam="2">  1       21 0.26822578E-01 0.18298186E+03</pdfrwt>
<totfact> 0.97022220E+04</totfact>
</mgrwt>
</event>
<event>
12    1  0.1441827E-001  0.2460413E+03  0.7546771E-02  0.1115908E+00
         21   -1    0    0  504  503  0.00000000000E+00  0.00000000000E+00  0.85943674354E+03  0.85943674354E+03  0.00000000000E+00 0.  1.
         21   -1    0    0  502  504 -0.00000000000E+00 -0.00000000000E+00 -0.79790007474E+02  0.79790007474E+02  0.00000000000E+00 0. -1.
          6    2    1    2  502    0 -0.50287603782E+02 -0.16574828967E+03  0.22757301595E+03  0.33480826764E+03  0.17408549585E+03 0.  0.
         24    2    3    3    0    0 -0.91207955876E+02 -0.67251025737E+02  0.13451811450E+03  0.19318379623E+03  0.79895333523E+02 0.  0.
         -6    2    1    2    0  503  0.50287603782E+02  0.16574828967E+03  0.55207372012E+03  0.60441848338E+03  0.17474258778E+03 0.  0.
        -24    2    5    5    0    0  0.27167981983E+02  0.14520476280E+03  0.23756648231E+03  0.28835923887E+03  0.69933502257E+02 0.  0.
          4    1    4    4  501    0 -0.64840757344E+02 -0.22753871893E+02  0.26924598044E+02  0.73803770085E+02  0.00000000000E+00 0. -1.
         -3    1    4    4    0  501 -0.26367198533E+02 -0.44497153845E+02  0.10759351645E+03  0.11938002614E+03  0.00000000000E+00 0.  1.
          5    1    3    3  502    0  0.40920352094E+02 -0.98497263933E+02  0.93054901456E+02  0.14162447141E+03  0.47000000000E+01 0. -1.
         11    1    6    6    0    0 -0.14983434298E+02  0.44591939626E+02  0.11516647830E+03  0.12440362578E+03  0.00000000000E+00 0. -1.
        -12    1    6    6    0    0  0.42151416281E+02  0.10061282317E+03  0.12240000401E+03  0.16395561309E+03  0.00000000000E+00 0.  1.
         -5    1    5    5    0  503  0.23119621799E+02  0.20543526869E+02  0.31450723781E+03  0.31605924451E+03  0.47000000000E+01 0.  1.
<mgrwt>
<rscale>  2 0.24592463E+03</rscale>
<asrwt>0</asrwt>
<pdfrwt beam="1">  1       21 0.13222103E+00 0.24604128E+03</pdfrwt>
<pdfrwt beam="2">  1       21 0.12275386E-01 0.24604128E+03</pdfrwt>
<totfact> 0.22619352E+04</totfact>
</mgrwt>
</event>
<event>
12    1  0.1441827E-001  0.1792846E+03  0.7546771E-02  0.1168633E+00
         21   -1    0    0  504  503  0.00000000000E+00  0.00000000000E+00  0.17026059998E+02  0.17026059998E+02  0.00000000000E+00 0.  1.
         21   -1    0    0  502  504 -0.00000000000E+00 -0.00000000000E+00 -0.20433708443E+04  0.20433708443E+04  0.00000000000E+00 0.  1.
          6    2    1    2  502    0  0.39958616038E+02 -0.21700368242E+02 -0.72223410017E+03  0.74402019069E+03  0.17284777037E+03 0.  0.
         24    2    3    3    0    0 -0.43398640904E+01 -0.51367062744E+02 -0.63102728349E+03  0.63826934429E+03  0.80838813676E+02 0.  0.
         -6    2    1    2    0  503 -0.39958616038E+02  0.21700368242E+02 -0.13041106841E+04  0.13163767136E+04  0.17342254380E+03 0.  0.
        -24    2    5    5    0    0 -0.81604876373E+01  0.42095846145E+02 -0.35663862312E+03  0.36814019624E+03  0.80606716609E+02 0.  0.
          4    1    4    4  501    0  0.29899660223E+02 -0.24651741073E+02 -0.46650210600E+03  0.46810886867E+03  0.00000000000E+00 0. -1.
         -3    1    4    4    0  501 -0.34239524313E+02 -0.26715321671E+02 -0.16452517749E+03  0.17016047562E+03  0.00000000000E+00 0.  1.
          5    1    3    3  502    0  0.44298480129E+02  0.29666694501E+02 -0.91206816683E+02  0.10575084640E+03  0.47000000000E+01 0. -1.
         13    1    6    6    0    0  0.26651023494E+02 -0.59987152906E+01 -0.17297391310E+03  0.17511777822E+03  0.00000000000E+00 0. -1.
        -14    1    6    6    0    0 -0.34811511131E+02  0.48094561435E+02 -0.18366471003E+03  0.19302241801E+03  0.00000000000E+00 0.  1.
         -5    1    5    5    0  503 -0.31798128401E+02 -0.20395477902E+02 -0.94747206102E+03  0.94823651739E+03  0.47000000000E+01 0.  1.
<mgrwt>
<rscale>  2 0.17914548E+03</rscale>
<asrwt>0</asrwt>
<pdfrwt beam="1">  1       21 0.26193916E-02 0.17928462E+03</pdfrwt>
<pdfrwt beam="2">  1       21 0.31436502E+00 0.17928462E+03</pdfrwt>
<totfact> 0.22645901E+04</totfact>
</mgrwt>
</event>
<event>
12    1  0.1441827E-001  0.2090328E+03  0.7546771E-02  0.1142669E+00
         21   -1    0    0  504  503  0.00000000000E+00  0.00000000000E+00  0.80469571815E+03  0.80469571815E+03  0.00000000000E+00 0. -1.
         21   -1    0    0  502  504 -0.00000000000E+00 -0.00000000000E+00 -0.59972609275E+02  0.59972609275E+02  0.00000000000E+00 0.  1.
          6    2    1    2  502    0  0.95519525291E+02  0.66041125762E+02  0.23304977860E+03  0.31194387375E+03  0.17178873962E+03 0.  0.
         24    2    3    3    0    0 -0.79280668002E+00  0.57564309399E+02  0.66324803658E+02  0.11915583217E+03  0.80528594312E+02 0.  0.
         -6    2    1    2    0  503 -0.95519525291E+02 -0.66041125762E+02  0.51167333028E+03  0.55272445368E+03  0.17380827015E+03 0.  0.
        -24    2    5    5    0    0 -0.10293754555E+03 -0.76112348063E+02  0.26290925797E+03  0.30360177262E+03  0.81630451453E+02 0.  0.
          2    1    4    4  501    0 -0.17549157256E+01  0.69026536462E+02  0.77026551359E+02  0.10344482626E+03  0.00000000000E+00 0. -1.
         -1    1    4    4    0  501  0.96210904561E+00 -0.11462227064E+02 -0.10701747701E+02  0.15711005917E+02  0.00000000000E+00 0.  1.
          5    1    3    3  502    0  0.96312331971E+02  0.84768163638E+01  0.16672497494E+03  0.19278804158E+03  0.47000000000E+01 0. -1.
         13    1    6    6    0    0  0.38281678800E+01 -0.20548738710E+02  0.93388533802E+02  0.95699131540E+02  0.00000000000E+00 0. -1.
        -14    1    6    6    0    0 -0.10676571343E+03 -0.55563609354E+02  0.16952072416E+03  0.20790264108E+03  0.00000000000E+00 0.  1.
         -5    1    5    5    0  503  0.74180202557E+01  0.10071222301E+02  0.24876407231E+03  0.24912268105E+03  0.47000000000E+01 0.  1.
<mgrwt>
<rscale>  2 0.20861252E+03</rscale>
<asrwt>0</asrwt>
<pdfrwt beam="1">  1       21 0.12379933E+00 0.20903283E+03</pdfrwt>
<pdfrwt beam="2">  1       21 0.92265559E-02 0.20903283E+03</pdfrwt>
<totfact> 0.45292229E+04</totfact>
</mgrwt>
</event>
<event>
12    1  0.1441827E-001  0.2005897E+03  0.7546771E-02  0.1149807E+00
         21   -1    0    0  504  503  0.00000000000E+00  0.00000000000E+00  0.27862799605E+03  0.27862799605E+03  0.00000000000E+00 0. -1.
         21   -1    0    0  502  504 -0.00000000000E+00 -0.00000000000E+00 -0.18083615475E+03  0.18083615475E+03  0.00000000000E+00 0. -1.
          6    2    1    2  502    0 -0.74423180350E+02  0.68797978577E+02 -0.57142316154E+02  0.20600643353E+03  0.17000421974E+03 0.  0.
         24    2    3    3    0    0 -0.72059406830E+02 -0.12805727614E+01 -0.78105502361E+02  0.13267065809E+03  0.79415590663E+02 0.  0.
         -6    2    1    2    0  503  0.74423180350E+02 -0.68797978577E+02  0.15493415745E+03  0.25345771727E+03  0.17310184768E+03 0.  0.
        -24    2    5    5    0    0  0.95011313322E+02 -0.78037946349E+02  0.17103143366E+03  0.22534258745E+03  0.80065346367E+02 0.  0.
          2    1    4    4  501    0 -0.83888351528E+02  0.17756392370E+01 -0.40577001693E+02  0.93203548662E+02  0.00000000000E+00 0. -1.
         -1    1    4    4    0  501  0.11828944698E+02 -0.30562119985E+01 -0.37528500668E+02  0.39467109431E+02  0.00000000000E+00 0.  1.
          5    1    3    3  502    0 -0.23637735197E+01  0.70078551339E+02  0.20963186207E+02  0.73335775437E+02  0.47000000000E+01 0. -1.
         13    1    6    6    0    0 -0.40125150154E+01 -0.40690949842E+02  0.47159577443E+02  0.62416980225E+02  0.00000000000E+00 0. -1.
        -14    1    6    6    0    0  0.99023828338E+02 -0.37346996507E+02  0.12387185621E+03  0.16292560722E+03  0.00000000000E+00 0.  1.
         -5    1    5    5    0  503 -0.20588132972E+02  0.92399677712E+01 -0.16097276209E+02  0.28115129824E+02  0.47000000000E+01 0.  1.
<mgrwt>
<rscale>  2 0.19991959E+03</rscale>
<asrwt>0</asrwt>
<pdfrwt beam="1">  1       21 0.42865846E-01 0.20058968E+03</pdfrwt>
<pdfrwt beam="2">  1       21 0.27820947E-01 0.20058968E+03</pdfrwt>
<totfact> 0.64331659E+04</totfact>
</mgrwt>
</event>
<event>
12    1  0.1441827E-001  0.1756843E+03  0.7546771E-02  0.1172671E+00
         21   -1    0    0  504  503  0.00000000000E+00  0.00000000000E+00  0.11034941031E+03  0.11034941031E+03  0.00000000000E+00 0.  1.
         21   -1    0    0  502  504 -0.00000000000E+00 -0.00000000000E+00 -0.39261264989E+03  0.39261264989E+03  0.00000000000E+00 0.  1.
          6    2    1    2  502    0  0.11412194614E+02  0.22746699797E+02 -0.27761791134E+03  0.32721639235E+03  0.17132195477E+03 0.  0.
         24    2    3    3    0    0  0.40217355972E+02 -0.43667139466E+02 -0.10249060040E+03  0.13765848456E+03  0.70151838260E+02 0.  0.
         -6    2    1    2    0  503 -0.11412194614E+02 -0.22746699797E+02 -0.46453282299E+01  0.17574566785E+03  0.17383126922E+03 0.  0.
        -24    2    5    5    0    0  0.55082641940E+00 -0.24688696546E+02  0.64456462068E+02  0.10543185238E+03  0.79695701563E+02 0.  0.
          4    1    4    4  501    0  0.53150916959E+02 -0.25589974714E+02 -0.98880129554E+02  0.11513968386E+03  0.00000000000E+00 0. -1.
         -3    1    4    4    0  501 -0.12933560987E+02 -0.18077164752E+02 -0.36104708478E+01  0.22518800701E+02  0.00000000000E+00 0.  1.
          5    1    3    3  502    0 -0.28805161358E+02  0.66413839263E+02 -0.17512731094E+03  0.18955790778E+03  0.47000000000E+01 0. -1.
         11    1    6    6    0    0 -0.17645747683E+02 -0.39404903430E+02  0.74563989042E+01  0.43814571894E+02  0.00000000000E+00 0. -1.
        -12    1    6    6    0    0  0.18196574102E+02  0.14716206884E+02  0.57000063164E+02  0.61617280488E+02  0.00000000000E+00 0.  1.
         -5    1    5    5    0  503 -0.11963021034E+02  0.19419967485E+01 -0.69101790298E+02  0.70313815470E+02  0.47000000000E+01 0.  1.
<mgrwt>
<rscale>  2 0.17506033E+03</rscale>
<asrwt>0</asrwt>
<pdfrwt beam="1">  1       21 0.16976832E-01 0.17568426E+03</pdfrwt>
<pdfrwt beam="2">  1       21 0.60401947E-01 0.17568426E+03</pdfrwt>
<totfact> 0.80451180E+04</totfact>
</mgrwt>
</event>
<event>
12    1  0.1441827E-001  0.1804606E+03  0.7546771E-02  0.1167451E+00
         21   -1    0    0  504  503  0.00000000000E+00  0.00000000000E+00  0.51321239580E+03  0.51321239580E+03  0.00000000000E+00 0. -1.
         21   -1    0    0  502  504 -0.00000000000E+00 -0.00000000000E+00 -0.87069575391E+02  0.87069575391E+02  0.00000000000E+00 0. -1.
          6    2    1    2  502    0  0.69119251483E+01  0.47263368279E+02  0.56480892664E+02  0.18909288598E+03  0.17402421556E+03 0.  0.
         24    2    3    3    0    0 -0.36628575979E+01  0.69713597365E+00  0.97466130526E+02  0.12598884694E+03  0.79747353740E+02 0.  0.
         -6    2    1    2    0  503 -0.69119251483E+01 -0.47263368279E+02  0.36966192774E+03  0.41118908520E+03  0.17362293132E+03 0.  0.
        -24    2    5    5    0    0  0.55734432040E+02 -0.53686894972E+02  0.17820702411E+03  0.20958824719E+03  0.78618574845E+02 0.  0.
          4    1    4    4  501    0 -0.20281228237E+02 -0.31633384645E+02  0.25649133982E+02  0.45495904397E+02  0.00000000000E+00 0. -1.
         -3    1    4    4    0  501  0.16618370639E+02  0.32330520618E+02  0.71816996544E+02  0.80492942540E+02  0.00000000000E+00 0.  1.
          5    1    3    3  502    0  0.10574782746E+02  0.46566232306E+02 -0.40985237862E+02  0.63104039046E+02  0.47000000000E+01 0. -1.
         13    1    6    6    0    0 -0.64971565473E+01 -0.29875270288E+02  0.11026778314E+03  0.11442783235E+03  0.00000000000E+00 0. -1.
        -14    1    6    6    0    0  0.62231588588E+02 -0.23811624684E+02  0.67939240969E+02  0.95160414836E+02  0.00000000000E+00 0.  1.
         -5    1    5    5    0  503 -0.62646357189E+02  0.64235266928E+01  0.19145490363E+03  0.20160083801E+03  0.47000000000E+01 0.  1.
<mgrwt>
<rscale>  2 0.18036379E+03</rscale>
<asrwt>0</asrwt>
<pdfrwt beam="1">  1       21 0.78955751E-01 0.18046060E+03</pdfrwt>
<pdfrwt beam="2">  1       21 0.13395320E-01 0.18046060E+03</pdfrwt>
<totfact> 0.68597784E+04</totfact>
</mgrwt>
</event>
<event>
12    1  0.1441827E-001  0.2007902E+03  0.7546771E-02  0.1150745E+00
         21   -1    0    0  504  503  0.00000000000E+00  0.00000000000E+00  0.49499552629E+03  0.49499552629E+03  0.00000000000E+00 0. -1.
         21   -1    0    0  502  504 -0.00000000000E+00 -0.00000000000E+00 -0.85501156667E+02  0.85501156667E+02  0.00000000000E+00 0. -1.
          6    2    1    2  502    0 -0.94053434702E+02  0.42865109949E+02  0.28514953878E+03  0.34432228345E+03  0.16298499680E+03 0.  0.
         24    2    3    3    0    0 -0.69397848967E+01 -0.13660813901E+02  0.78457522628E+02  0.11296185556E+03  0.79812401947E+02 0.  0.
         -6    2    1    2    0  503  0.94053434702E+02 -0.42865109949E+02  0.12434483084E+03  0.23617439951E+03  0.17214309105E+03 0.  0.
        -24    2    5    5    0    0  0.63756508211E+02 -0.98081009473E+02  0.11096293181E+03  0.17161539907E+03  0.58773260966E+02 0.  0.
          4    1    4    4  501    0 -0.27873392574E+02  0.14600024663E+02  0.54626648453E+01  0.31936302869E+02  0.00000000000E+00 0. -1.
         -3    1    4    4    0  501  0.20933607677E+02 -0.28260838564E+02  0.72994857783E+02  0.81025552695E+02  0.00000000000E+00 0.  1.
          5    1    3    3  502    0 -0.87113649805E+02  0.56525923850E+02  0.20669201616E+03  0.23136042789E+03  0.47000000000E+01 0. -1.
         13    1    6    6    0    0  0.14868520209E+02 -0.75367405154E+02  0.69721159703E+02  0.10374178889E+03  0.00000000000E+00 0. -1.
        -14    1    6    6    0    0  0.48887988002E+02 -0.22713604319E+02  0.41241772109E+02  0.67873610179E+02  0.00000000000E+00 0.  1.
         -5    1    5    5    0  503  0.30296926491E+02  0.55215899525E+02  0.13381899026E+02  0.64559000431E+02  0.47000000000E+01 0.  1.
<mgrwt>
<rscale>  2 0.19881272E+03</rscale>
<asrwt>0</asrwt>
<pdfrwt beam="1">  1       21 0.76153156E-01 0.20079021E+03</pdfrwt>
<pdfrwt beam="2">  1       21 0.13154024E-01 0.20079021E+03</pdfrwt>
<totfact> 0.76188317E+04</totfact>
</mgrwt>
</event>
<event>
12    1  0.1441827E-001  0.2083472E+03  0.7546771E-02  0.1143121E+00
         21   -1    0    0  504  503  0.00000000000E+00  0.00000000000E+00  0.58494600624E+02  0.58494600624E+02  0.00000000000E+00 0. -1.
         21   -1    0    0  502  504 -0.00000000000E+00 -0.00000000000E+00 -0.77818699718E+03  0.77818699718E+03  0.00000000000E+00 0.  1.
          6    2    1    2  502    0  0.70753917639E+02 -0.93417454333E+02 -0.45606685373E+03  0.50140357349E+03  0.17226616266E+03 0.  0.
         24    2    3    3    0    0 -0.10705480535E+02 -0.12727291615E+02 -0.12245351993E+03  0.14860549753E+03  0.82535677661E+02 0.  0.
         -6    2    1    2    0  503 -0.70753917639E+02  0.93417454333E+02 -0.26362554283E+03  0.33527802432E+03  0.17082151248E+03 0.  0.
        -24    2    5    5    0    0 -0.75817502994E+02  0.11711467438E+03 -0.26563110800E+03  0.31051291931E+03  0.79964034466E+02 0.  0.
          4    1    4    4  501    0 -0.28183546451E+02 -0.36597516107E+02 -0.40347526041E+02  0.61331992740E+02  0.00000000000E+00 0. -1.
         -3    1    4    4    0  501  0.17478065916E+02  0.23870224492E+02 -0.82105993892E+02  0.87273504791E+02  0.00000000000E+00 0.  1.
          5    1    3    3  502    0  0.81459398175E+02 -0.80690162718E+02 -0.33361333380E+03  0.35279807596E+03  0.47000000000E+01 0. -1.
         13    1    6    6    0    0 -0.12909692917E+02 -0.10725652027E+02 -0.16617525751E+02  0.23618677878E+02  0.00000000000E+00 0. -1.
        -14    1    6    6    0    0 -0.62907810077E+02  0.12784032641E+03 -0.24901358225E+03  0.28689424143E+03  0.00000000000E+00 0.  1.
         -5    1    5    5    0  503  0.50635853542E+01 -0.23697220044E+02  0.20055651701E+01  0.24765105009E+02  0.47000000000E+01 0.  1.
<mgrwt>
<rscale>  2 0.20804837E+03</rscale>
<asrwt>0</asrwt>
<pdfrwt beam="1">  1       21 0.89991696E-02 0.20834723E+03</pdfrwt>
<pdfrwt beam="2">  1       21 0.11972107E+00 0.20834723E+03</pdfrwt>
<totfact> 0.51468211E+04</totfact>
</mgrwt>
</event>
<event>
12    1  0.1441827E-001  0.2125425E+03  0.7546771E-02  0.1139697E+00
         21   -1    0    0  504  503  0.00000000000E+00  0.00000000000E+00  0.23798423979E+03  0.23798423979E+03  0.00000000000E+00 0.  1.
         21   -1    0    0  502  504 -0.00000000000E+00 -0.00000000000E+00 -0.25034000650E+03  0.25034000650E+03  0.00000000000E+00 0.  1.
          6    2    1    2  502    0  0.11035646782E+03  0.52890676979E+02  0.11446010880E+03  0.24082353672E+03  0.17297076525E+03 0.  0.
         24    2    3    3    0    0  0.35574712595E+02  0.67905140814E+02  0.12055209565E+02  0.11304795836E+03  0.82206109786E+02 0.  0.
         -6    2    1    2    0  503 -0.11035646782E+03 -0.52890676979E+02 -0.12681587551E+03  0.24750070957E+03  0.17377675695E+03 0.  0.
        -24    2    5    5    0    0  0.56720920867E+01  0.47651913389E+01 -0.27280489539E+02  0.84049772207E+02  0.79153391724E+02 0.  0.
          2    1    4    4  501    0 -0.59981040803E+01  0.19631580599E+01 -0.25678471428E+02  0.26442676434E+02  0.00000000000E+00 0. -1.
         -1    1    4    4    0  501  0.41572816676E+02  0.65941982754E+02  0.37733680992E+02  0.86605281924E+02  0.00000000000E+00 0.  1.
          5    1    3    3  502    0  0.74781755222E+02 -0.15014463835E+02  0.10240489923E+03  0.12777557836E+03  0.47000000000E+01 0. -1.
         11    1    6    6    0    0  0.65830786804E+01  0.25446116529E+02 -0.48022660786E+02  0.54745024617E+02  0.00000000000E+00 0. -1.
        -12    1    6    6    0    0 -0.91098659371E+00 -0.20680925190E+02  0.20742171247E+02  0.29304747590E+02  0.00000000000E+00 0.  1.
         -5    1    5    5    0  503 -0.11602855990E+03 -0.57655868318E+02 -0.99535385972E+02  0.16345093736E+03  0.47000000000E+01 0.  1.
<mgrwt>
<rscale>  2 0.21237774E+03</rscale>
<asrwt>0</asrwt>
<pdfrwt beam="1">  1       21 0.36612960E-01 0.21254255E+03</pdfrwt>
<pdfrwt beam="2">  1       21 0.38513847E-01 0.21254255E+03</pdfrwt>
<totfact> 0.46317441E+04</totfact>
</mgrwt>
</event>
<event>
12    1  0.1441827E-001  0.3255248E+03  0.7546771E-02  0.1073199E+00
         21   -1    0    0  504  503  0.00000000000E+00  0.00000000000E+00  0.23392304258E+03  0.23392304258E+03  0.00000000000E+00 0. -1.
         21   -1    0    0  502  504 -0.00000000000E+00 -0.00000000000E+00 -0.50265566354E+03  0.50265566354E+03  0.00000000000E+00 0.  1.
          6    2    1    2  502    0  0.24379002504E+03  0.12829953761E+03 -0.25115695263E+03  0.41115232403E+03  0.17341300714E+03 0.  0.
         24    2    3    3    0    0  0.23300457170E+03  0.78557578840E+02 -0.25070890074E+03  0.36003599380E+03  0.79426319907E+02 0.  0.
         -6    2    1    2    0  503 -0.24379002504E+03 -0.12829953761E+03 -0.17575668335E+02  0.32542638208E+03  0.17233420547E+03 0.  0.
        -24    2    5    5    0    0 -0.40877592460E+02 -0.19457101481E+02 -0.16431565300E+02  0.95114571332E+02  0.82019686528E+02 0.  0.
          4    1    4    4  501    0  0.15617772516E+03  0.41324405157E+02 -0.10997758180E+03  0.19543350991E+03  0.00000000000E+00 0. -1.
         -3    1    4    4    0  501  0.76826846546E+02  0.37233173683E+02 -0.14073131894E+03  0.16460248389E+03  0.00000000000E+00 0.  1.
          5    1    3    3  502    0  0.10785453339E+02  0.49741958767E+02 -0.44805188217E+00  0.51116330230E+02  0.47000000000E+01 0. -1.
         13    1    6    6    0    0 -0.31040910219E+02 -0.19647938153E+02  0.30137962805E+02  0.47517116736E+02  0.00000000000E+00 0. -1.
        -14    1    6    6    0    0 -0.98366822412E+01  0.19083667209E+00 -0.46569528105E+02  0.47597454596E+02  0.00000000000E+00 0.  1.
         -5    1    5    5    0  503 -0.20291243258E+03 -0.10884243613E+03 -0.11441030348E+01  0.23031181075E+03  0.47000000000E+01 0.  1.
<mgrwt>
<rscale>  2 0.32538139E+03</rscale>
<asrwt>0</asrwt>
<pdfrwt beam="1">  1       21 0.35988160E-01 0.32552484E+03</pdfrwt>
<pdfrwt beam="2">  1       21 0.77331641E-01 0.32552484E+03</pdfrwt>
<totfact> 0.10292148E+04</totfact>
</mgrwt>
</event>
<event>
12    1  0.1441827E-001  0.2555155E+03  0.7546771E-02  0.1109958E+00
         21   -1    0    0  504  503  0.00000000000E+00  0.00000000000E+00  0.67597303823E+03  0.67597303823E+03  0.00000000000E+00 0. -1.
         21   -1    0    0  502  504 -0.00000000000E+00 -0.00000000000E+00 -0.11019858571E+03  0.11019858571E+03  0.00000000000E+00 0. -1.
          6    2    1    2  502    0  0.66402874190E+01 -0.18690267558E+03  0.14332024505E+03  0.29245540006E+03  0.17324192571E+03 0.  0.
         24    2    3    3    0    0  0.62091914468E+02 -0.64629775211E+02  0.66939360006E+02  0.13791843132E+03  0.80673428666E+02 0.  0.
         -6    2    1    2    0  503 -0.66402874190E+01  0.18690267558E+03  0.42245420747E+03  0.49371622389E+03  0.17410183445E+03 0.  0.
        -24    2    5    5    0    0 -0.28067112009E+02  0.20833829350E+03  0.38308804834E+03  0.44381252650E+03  0.77591871873E+02 0.  0.
          4    1    4    4  501    0  0.27529076522E+02 -0.21358443776E+02  0.74287267753E+02  0.82052613151E+02  0.00000000000E+00 0. -1.
         -3    1    4    4    0  501  0.34562837946E+02 -0.43271331435E+02 -0.73479077471E+01  0.55865818166E+02  0.00000000000E+00 0.  1.
          5    1    3    3  502    0 -0.55451627049E+02 -0.12227290037E+03  0.76380885040E+02  0.15453696874E+03  0.47000000000E+01 0. -1.
         11    1    6    6    0    0 -0.54144904156E+02  0.11877771192E+03  0.23401593552E+03  0.26796132850E+03  0.00000000000E+00 0. -1.
        -12    1    6    6    0    0  0.26077792148E+02  0.89560581583E+02  0.14907211283E+03  0.17585119800E+03  0.00000000000E+00 0.  1.
         -5    1    5    5    0  503  0.21426824590E+02 -0.21435617923E+02  0.39366159131E+02  0.49903697382E+02  0.47000000000E+01 0.  1.
<mgrwt>
<rscale>  2 0.25536905E+03</rscale>
<asrwt>0</asrwt>
<pdfrwt beam="1">  1       21 0.10399585E+00 0.25551546E+03</pdfrwt>
<pdfrwt beam="2">  1       21 0.16953629E-01 0.25551546E+03</pdfrwt>
<totfact> 0.22649552E+04</totfact>
</mgrwt>
</event>
<event>
12    1  0.1441827E-001  0.2022560E+03  0.7546771E-02  0.1148586E+00
         21   -1    0    0  504  503  0.00000000000E+00  0.00000000000E+00  0.26038137677E+02  0.26038137677E+02  0.00000000000E+00 0. -1.
         21   -1    0    0  502  504 -0.00000000000E+00 -0.00000000000E+00 -0.23487518025E+04  0.23487518025E+04  0.00000000000E+00 0.  1.
          6    2    1    2  502    0  0.33595044144E+02  0.91192238369E+02 -0.18497290887E+04  0.18603758271E+04  0.17336627391E+03 0.  0.
         24    2    3    3    0    0  0.12368037662E+02  0.13013697153E+03 -0.15196614097E+04  0.15273082052E+04  0.78809603542E+02 0.  0.
         -6    2    1    2    0  503 -0.33595044144E+02 -0.91192238369E+02 -0.47298457615E+03  0.51441411317E+03  0.17737761757E+03 0.  0.
        -24    2    5    5    0    0 -0.73473221910E+02 -0.83023570182E+02 -0.44121053141E+03  0.46256166750E+03  0.83697883315E+02 0.  0.
          2    1    4    4  501    0 -0.19400471348E+02  0.81062175394E+01 -0.10811173859E+03  0.11013735548E+03  0.00000000000E+00 0. -1.
         -1    1    4    4    0  501  0.31768509009E+02  0.12203075399E+03 -0.14115496711E+04  0.14171708497E+04  0.00000000000E+00 0.  1.
          5    1    3    3  502    0  0.21227006482E+02 -0.38944733164E+02 -0.33006767898E+03  0.33306762189E+03  0.47000000000E+01 0. -1.
         13    1    6    6    0    0 -0.89163345331E+02 -0.49700620816E+02 -0.32374121864E+03  0.33945342907E+03  0.00000000000E+00 0. -1.
        -14    1    6    6    0    0  0.15690123421E+02 -0.33322949366E+02 -0.11746931277E+03  0.12310823843E+03  0.00000000000E+00 0.  1.
         -5    1    5    5    0  503  0.39878177767E+02 -0.81686681867E+01 -0.31774044744E+02  0.51852445664E+02  0.47000000000E+01 0.  1.
<mgrwt>
<rscale>  2 0.20137304E+03</rscale>
<asrwt>0</asrwt>
<pdfrwt beam="1">  1       21 0.40058677E-02 0.20225595E+03</pdfrwt>
<pdfrwt beam="2">  1       21 0.36134640E+00 0.20225595E+03</pdfrwt>
<totfact> 0.57844846E+03</totfact>
</mgrwt>
</event>
<event>
12    1  0.1441827E-001  0.1799052E+03  0.7546771E-02  0.1168101E+00
         21   -1    0    0  504  503  0.00000000000E+00  0.00000000000E+00  0.13723314223E+03  0.13723314223E+03  0.00000000000E+00 0. -1.
         21   -1    0    0  502  504 -0.00000000000E+00 -0.00000000000E+00 -0.62043278287E+03  0.62043278287E+03  0.00000000000E+00 0. -1.
          6    2    1    2  502    0 -0.36142787567E+02 -0.31317042624E+02 -0.54007559701E+03  0.56898433885E+03  0.17255280094E+03 0.  0.
         24    2    3    3    0    0  0.92823138162E+01 -0.14117666610E+02 -0.10601507378E+03  0.13218932262E+03  0.77132037998E+02 0.  0.
         -6    2    1    2    0  503  0.36142787567E+02  0.31317042624E+02  0.56875956368E+02  0.18868158625E+03  0.17343243158E+03 0.  0.
        -24    2    5    5    0    0  0.76957923705E+02  0.60074799155E+02  0.23498998961E+02  0.12844044429E+03  0.80082715136E+02 0.  0.
          2    1    4    4  501    0 -0.11952198089E+02  0.73944304167E+01  0.66438263136E+01  0.15545837656E+02  0.00000000000E+00 0. -1.
         -1    1    4    4    0  501  0.21234511905E+02 -0.21512097026E+02 -0.11265890009E+03  0.11664348496E+03  0.00000000000E+00 0.  1.
          5    1    3    3  502    0 -0.45425101383E+02 -0.17199376014E+02 -0.43406052324E+03  0.43679501623E+03  0.47000000000E+01 0. -1.
         11    1    6    6    0    0  0.34696897769E+00  0.34993123340E+02  0.31950475512E+02  0.47386411070E+02  0.00000000000E+00 0. -1.
        -12    1    6    6    0    0  0.76610954727E+02  0.25081675814E+02 -0.84514765513E+01  0.81054033223E+02  0.00000000000E+00 0.  1.
         -5    1    5    5    0  503 -0.40815136138E+02 -0.28757756531E+02  0.33376957407E+02  0.60241141958E+02  0.47000000000E+01 0.  1.
<mgrwt>
<rscale>  2 0.17969283E+03</rscale>
<asrwt>0</asrwt>
<pdfrwt beam="1">  1       21 0.21112791E-01 0.17990516E+03</pdfrwt>
<pdfrwt beam="2">  1       21 0.95451196E-01 0.17990516E+03</pdfrwt>
<totfact> 0.19259632E+04</totfact>
</mgrwt>
</event>
<event>
12    1  0.1441827E-001  0.2685180E+03  0.7546771E-02  0.1102354E+00
         21   -1    0    0  504  503  0.00000000000E+00  0.00000000000E+00  0.22266472665E+03  0.22266472665E+03  0.00000000000E+00 0. -1.
         21   -1    0    0  502  504 -0.00000000000E+00 -0.00000000000E+00 -0.32228252081E+03  0.32228252081E+03  0.00000000000E+00 0. -1.
          6    2    1    2  502    0  0.12318178054E+03 -0.16319319908E+03 -0.58605722675E+02  0.27483908366E+03  0.17405780618E+03 0.  0.
         24    2    3    3    0    0  0.79380804659E+02 -0.15045905399E+03 -0.10010474736E+03  0.21299296018E+03  0.80036251585E+02 0.  0.
         -6    2    1    2    0  503 -0.12318178054E+03  0.16319319908E+03 -0.41012071486E+02  0.27010816381E+03  0.17167020378E+03 0.  0.
        -24    2    5    5    0    0 -0.29607790044E+02  0.14798929822E+03 -0.36652119139E+02  0.17509053658E+03  0.80844693987E+02 0.  0.
          4    1    4    4  501    0  0.26196709492E+02 -0.12532090998E+03 -0.57441655268E+02  0.14032512899E+03  0.00000000000E+00 0. -1.
         -3    1    4    4    0  501  0.53184095167E+02 -0.25138144004E+02 -0.42663092091E+02  0.72667831187E+02  0.00000000000E+00 0.  1.
          5    1    3    3  502    0  0.43800975882E+02 -0.12734145097E+02  0.41499024684E+02  0.61846123478E+02  0.47000000000E+01 0. -1.
         11    1    6    6    0    0 -0.47998294512E+02  0.12228668168E+03 -0.66875841327E+01  0.13153931950E+03  0.00000000000E+00 0. -1.
        -12    1    6    6    0    0  0.18390504469E+02  0.25702616533E+02 -0.29964535006E+02  0.43551217082E+02  0.00000000000E+00 0.  1.
         -5    1    5    5    0  503 -0.93573990497E+02  0.15203900867E+02 -0.43599523478E+01  0.95017627225E+02  0.47000000000E+01 0.  1.
<mgrwt>
<rscale>  2 0.26813175E+03</rscale>
<asrwt>0</asrwt>
<pdfrwt beam="1">  1       21 0.34256112E-01 0.26851795E+03</pdfrwt>
<pdfrwt beam="2">  1       21 0.49581926E-01 0.26851795E+03</pdfrwt>
<totfact> 0.30705955E+04</totfact>
</mgrwt>
</event>
<event>
12    1  0.1441827E-001  0.2374630E+03  0.7546771E-02  0.1121647E+00
         21   -1    0    0  504  503  0.00000000000E+00  0.00000000000E+00  0.30153313295E+03  0.30153313295E+03  0.00000000000E+00 0.  1.
         21   -1    0    0  502  504 -0.00000000000E+00 -0.00000000000E+00 -0.18750625738E+03  0.18750625738E+03  0.00000000000E+00 0. -1.
          6    2    1    2  502    0  0.13170752079E+03  0.98296992443E+02  0.37498916813E+02  0.24040553687E+03  0.17140444463E+03 0.  0.
         24    2    3    3    0    0  0.13146171011E+03  0.27520202414E+02  0.58112142196E+02  0.16653802378E+03  0.79488046444E+02 0.  0.
         -6    2    1    2    0  503 -0.13170752079E+03 -0.98296992443E+02  0.76527958748E+02  0.24863385346E+03  0.17015608970E+03 0.  0.
        -24    2    5    5    0    0 -0.12571829359E+03 -0.13321551679E+03  0.47150685969E+02  0.20237060302E+03  0.71966732057E+02 0.  0.
          2    1    4    4  501    0  0.94850952520E+02 -0.18677929434E+02  0.29915769299E+02  0.10119546183E+03  0.00000000000E+00 0. -1.
         -1    1    4    4    0  501  0.36610757586E+02  0.46198131848E+02  0.28196372897E+02  0.65342561947E+02  0.00000000000E+00 0.  1.
          5    1    3    3  502    0  0.24581068702E+00  0.70776790029E+02 -0.20613225383E+02  0.73867513092E+02  0.47000000000E+01 0. -1.
         11    1    6    6    0    0 -0.84459366923E+02 -0.38433803339E+02  0.14198136612E+02  0.93872940635E+02  0.00000000000E+00 0. -1.
        -12    1    6    6    0    0 -0.41258926671E+02 -0.94781713452E+02  0.32952549357E+02  0.10849766239E+03  0.00000000000E+00 0.  1.
         -5    1    5    5    0  503 -0.59892271991E+01  0.34918524349E+02  0.29377272779E+02  0.46263250438E+02  0.47000000000E+01 0.  1.
<mgrwt>
<rscale>  2 0.23723776E+03</rscale>
<asrwt>0</asrwt>
<pdfrwt beam="1">  1       21 0.46389713E-01 0.23746295E+03</pdfrwt>
<pdfrwt beam="2">  1       21 0.28847116E-01 0.23746295E+03</pdfrwt>
<totfact> 0.50152235E+04</totfact>
</mgrwt>
</event>
<event>
12    1  0.1441827E-001  0.1838272E+03  0.7546771E-02  0.1164291E+00
         21   -1    0    0  504  503  0.00000000000E+00  0.00000000000E+00  0.21728434619E+03  0.21728434619E+03  0.00000000000E+00 0.  1.
         21   -1    0    0  502  504 -0.00000000000E+00 -0.00000000000E+00 -0.17639330338E+03  0.17639330338E+03  0.00000000000E+00 0.  1.
          6    2    1    2  502    0 -0.44359918800E+02 -0.36604991177E+02 -0.48051003185E+02  0.19000349439E+03  0.17459868613E+03 0.  0.
         24    2    3    3    0    0 -0.51149935153E+02  0.41442631577E+02 -0.36436887615E+02  0.11066552479E+03  0.81150502282E+02 0.  0.
         -6    2    1    2    0  503  0.44359918800E+02  0.36604991177E+02  0.88942045991E+02  0.20367415518E+03  0.17396765839E+03 0.  0.
        -24    2    5    5    0    0  0.78881115710E+02 -0.12724534625E+02  0.85552966967E+02  0.14318704078E+03  0.82456499395E+02 0.  0.
          2    1    4    4  501    0 -0.69746565218E+02  0.13805927856E+02 -0.26872104601E+02  0.76008532477E+02  0.00000000000E+00 0. -1.
         -1    1    4    4    0  501  0.18596630065E+02  0.27636703720E+02 -0.95647830147E+01  0.34656992316E+02  0.00000000000E+00 0.  1.
          5    1    3    3  502    0  0.67900163523E+01 -0.78047622753E+02 -0.11614115569E+02  0.79337969598E+02  0.47000000000E+01 0. -1.
         13    1    6    6    0    0  0.64409826651E+02 -0.30337425655E+02  0.20251203594E+02  0.74020918743E+02  0.00000000000E+00 0. -1.
        -14    1    6    6    0    0  0.14471289058E+02  0.17612891030E+02  0.65301763374E+02  0.69166122034E+02  0.00000000000E+00 0.  1.
         -5    1    5    5    0  503 -0.34521196909E+02  0.49329525802E+02  0.33890790236E+01  0.60487114401E+02  0.47000000000E+01 0.  1.
<mgrwt>
<rscale>  2 0.18367718E+03</rscale>
<asrwt>0</asrwt>
<pdfrwt beam="1">  1       21 0.33428361E-01 0.18382717E+03</pdfrwt>
<pdfrwt beam="2">  1       21 0.27137431E-01 0.18382717E+03</pdfrwt>
<totfact> 0.11189616E+05</totfact>
</mgrwt>
</event>
<event>
12    1  0.1441827E-001  0.2943420E+03  0.7546771E-02  0.1088335E+00
         21   -1    0    0  504  503  0.00000000000E+00  0.00000000000E+00  0.11187850440E+03  0.11187850440E+03  0.00000000000E+00 0. -1.
         21   -1    0    0  502  504 -0.00000000000E+00 -0.00000000000E+00 -0.85909482378E+03  0.85909482378E+03  0.00000000000E+00 0.  1.
          6    2    1    2  502    0 -0.23944127785E+02 -0.23472644373E+03 -0.53127154731E+03  0.60736040476E+03  0.17597550867E+03 0.  0.
         24    2    3    3    0    0 -0.47816688163E+02 -0.23944773295E+03 -0.52117961810E+03  0.58059986019E+03  0.76461433695E+02 0.  0.
         -6    2    1    2    0  503  0.23944127785E+02  0.23472644373E+03 -0.21594477207E+03  0.36361292341E+03  0.17295198422E+03 0.  0.
        -24    2    5    5    0    0 -0.37387701162E+02  0.19331695957E+03 -0.12919076616E+03  0.24948717626E+03  0.82366922995E+02 0.  0.
          2    1    4    4  501    0 -0.60936443905E+02 -0.11317070517E+03 -0.24644219781E+03  0.27794714527E+03  0.00000000000E+00 0. -1.
         -1    1    4    4    0  501  0.13119755742E+02 -0.12627702778E+03 -0.27473742030E+03  0.30265271492E+03  0.00000000000E+00 0.  1.
          5    1    3    3  502    0  0.23872560378E+02  0.47212892203E+01 -0.10091929208E+02  0.26760544577E+02  0.47000000000E+01 0. -1.
         11    1    6    6    0    0  0.17327020773E+02  0.99554102531E+02 -0.38874677163E+02  0.10827042765E+03  0.00000000000E+00 0. -1.
        -12    1    6    6    0    0 -0.54714721935E+02  0.93762857036E+02 -0.90316088995E+02  0.14121674861E+03  0.00000000000E+00 0.  1.
         -5    1    5    5    0  503  0.61331828947E+02  0.41409484159E+02 -0.86754005909E+02  0.11412574715E+03  0.47000000000E+01 0.  1.
<mgrwt>
<rscale>  2 0.29389155E+03</rscale>
<asrwt>0</asrwt>
<pdfrwt beam="1">  1       21 0.17212077E-01 0.29434199E+03</pdfrwt>
<pdfrwt beam="2">  1       21 0.13216844E+00 0.29434199E+03</pdfrwt>
<totfact> 0.11905544E+04</totfact>
</mgrwt>
</event>
<event>
12    1  0.1441827E-001  0.1868870E+03  0.7546771E-02  0.1161718E+00
         21   -1    0    0  504  503  0.00000000000E+00  0.00000000000E+00  0.10348539385E+03  0.10348539385E+03  0.00000000000E+00 0. -1.
         21   -1    0    0  502  504 -0.00000000000E+00 -0.00000000000E+00 -0.35336950834E+03  0.35336950834E+03  0.00000000000E+00 0. -1.
          6    2    1    2  502    0 -0.39815668281E+01 -0.72144437336E+02 -0.17749979707E+03  0.25643970327E+03  0.17039504318E+03 0.  0.
         24    2    3    3    0    0  0.26958492249E+02 -0.74746547376E+02 -0.46433502302E+02  0.12166388252E+03  0.79575269562E+02 0.  0.
         -6    2    1    2    0  503  0.39815668281E+01  0.72144437336E+02 -0.72384317416E+02  0.20041519892E+03  0.17235454690E+03 0.  0.
        -24    2    5    5    0    0 -0.25829099000E+01  0.54791810197E+01 -0.98814283682E+02  0.12824885031E+03  0.81527983525E+02 0.  0.
          4    1    4    4  501    0 -0.21618749608E+02  0.18360604083E+01 -0.73090473489E+01  0.22894620014E+02  0.00000000000E+00 0. -1.
         -3    1    4    4    0  501  0.48577241857E+02 -0.76582607784E+02 -0.39124454953E+02  0.98769262510E+02  0.00000000000E+00 0.  1.
          5    1    3    3  502    0 -0.30940059077E+02  0.26021100395E+01 -0.13106629477E+03  0.13477582075E+03  0.47000000000E+01 0. -1.
         13    1    6    6    0    0  0.11416339976E+02  0.21384730803E+02  0.28424448125E+01  0.24407355909E+02  0.00000000000E+00 0. -1.
        -14    1    6    6    0    0 -0.13999249876E+02 -0.15905549783E+02 -0.10165672849E+03  0.10384149440E+03  0.00000000000E+00 0.  1.
         -5    1    5    5    0  503  0.65644767282E+01  0.66665256316E+02  0.26429966267E+02  0.72166348607E+02  0.47000000000E+01 0.  1.
<mgrwt>
<rscale>  2 0.18643399E+03</rscale>
<asrwt>0</asrwt>
<pdfrwt beam="1">  1       21 0.15920830E-01 0.18688703E+03</pdfrwt>
<pdfrwt beam="2">  1       21 0.54364539E-01 0.18688703E+03</pdfrwt>
<totfact> 0.11271749E+05</totfact>
</mgrwt>
</event>
<event>
12    1  0.1441827E-001  0.1787537E+03  0.7546771E-02  0.1169576E+00
         21   -1    0    0  504  503  0.00000000000E+00  0.00000000000E+00  0.50067850376E+03  0.50067850376E+03  0.00000000000E+00 0. -1.
         21   -1    0    0  502  504 -0.00000000000E+00 -0.00000000000E+00 -0.78026779679E+02  0.78026779679E+02  0.00000000000E+00 0.  1.
          6    2    1    2  502    0  0.29948858364E+02  0.75113850488E+01  0.83281863364E+02  0.19513680426E+03  0.17375024774E+03 0.  0.
         24    2    3    3    0    0  0.83271941095E+02  0.22713299965E+02  0.49381892178E+02  0.12997740421E+03  0.83698531413E+02 0.  0.
         -6    2    1    2    0  503 -0.29948858364E+02 -0.75113850488E+01  0.33936986071E+03  0.38356847917E+03  0.17606680787E+03 0.  0.
        -24    2    5    5    0    0 -0.11655417799E+02  0.21650535992E+02  0.33866539165E+03  0.34881716433E+03  0.79840917848E+02 0.  0.
          2    1    4    4  501    0  0.19775630419E+02  0.46401122745E+02  0.94500616444E+01  0.51317086975E+02  0.00000000000E+00 0. -1.
         -1    1    4    4    0  501  0.63496310676E+02 -0.23687822780E+02  0.39931830533E+02  0.78660317234E+02  0.00000000000E+00 0.  1.
          5    1    3    3  502    0 -0.53323082731E+02 -0.15201914916E+02  0.33899971186E+02  0.65159400054E+02  0.47000000000E+01 0. -1.
         13    1    6    6    0    0 -0.22035287977E+02  0.44919877817E+01  0.32188257802E+03  0.32266720612E+03  0.00000000000E+00 0. -1.
        -14    1    6    6    0    0  0.10379870178E+02  0.17158548210E+02  0.16782813626E+02  0.26149958218E+02  0.00000000000E+00 0.  1.
         -5    1    5    5    0  503 -0.18293440565E+02 -0.29161921041E+02  0.70446906953E+00  0.34751314841E+02  0.47000000000E+01 0.  1.
<mgrwt>
<rscale>  2 0.17818060E+03</rscale>
<asrwt>0</asrwt>
<pdfrwt beam="1">  1       21 0.77027460E-01 0.17875367E+03</pdfrwt>
<pdfrwt beam="2">  1       21 0.12004120E-01 0.17875367E+03</pdfrwt>
<totfact> 0.88339435E+04</totfact>
</mgrwt>
</event>
<event>
12    1  0.1441827E-001  0.1993956E+03  0.7546771E-02  0.1150267E+00
         21   -1    0    0  504  503  0.00000000000E+00  0.00000000000E+00  0.29993717206E+03  0.29993717206E+03  0.00000000000E+00 0.  1.
         21   -1    0    0  502  504 -0.00000000000E+00 -0.00000000000E+00 -0.23219624367E+03  0.23219624367E+03  0.00000000000E+00 0.  1.
          6    2    1    2  502    0  0.42053171138E+02  0.91897342267E+02 -0.14046446302E+03  0.24390341553E+03  0.17188664875E+03 0.  0.
         24    2    3    3    0    0  0.85505737207E+02  0.33494568640E+02 -0.11042094967E+03  0.16501290812E+03  0.81261039221E+02 0.  0.
         -6    2    1    2    0  503 -0.42053171138E+02 -0.91897342267E+02  0.20820539140E+03  0.28823000020E+03  0.17179481160E+03 0.  0.
        -24    2    5    5    0    0 -0.25435972248E+02 -0.65138834463E+02  0.22707976962E+03  0.25120998951E+03  0.81554770662E+02 0.  0.
          2    1    4    4  501    0  0.32819085268E+02 -0.26910499263E+02 -0.36556494289E+02  0.56014682031E+02  0.00000000000E+00 0. -1.
         -1    1    4    4    0  501  0.52686651940E+02  0.60405067903E+02 -0.73864455381E+02  0.10899822609E+03  0.00000000000E+00 0.  1.
          5    1    3    3  502    0 -0.43452566069E+02  0.58402773627E+02 -0.30043513346E+02  0.78890507410E+02  0.47000000000E+01 0. -1.
         13    1    6    6    0    0  0.17647820972E+02 -0.34376668149E+01  0.82123666847E+01  0.19766287075E+02  0.00000000000E+00 0. -1.
        -14    1    6    6    0    0 -0.43083793219E+02 -0.61701167648E+02  0.21886740293E+03  0.23144370243E+03  0.00000000000E+00 0.  1.
         -5    1    5    5    0  503 -0.16617198890E+02 -0.26758507804E+02 -0.18874378221E+02  0.37020010698E+02  0.47000000000E+01 0.  1.
<mgrwt>
<rscale>  2 0.19937582E+03</rscale>
<asrwt>0</asrwt>
<pdfrwt beam="1">  1       21 0.46144180E-01 0.19939561E+03</pdfrwt>
<pdfrwt beam="2">  1       21 0.35722499E-01 0.19939561E+03</pdfrwt>
<totfact> 0.33881074E+04</totfact>
</mgrwt>
</event>
<event>
12    1  0.1441827E-001  0.1797539E+03  0.7546771E-02  0.1169030E+00
         21   -1    0    0  504  503  0.00000000000E+00  0.00000000000E+00  0.13960059759E+04  0.13960059759E+04  0.00000000000E+00 0.  1.
         21   -1    0    0  502  504 -0.00000000000E+00 -0.00000000000E+00 -0.37346513164E+03  0.37346513164E+03  0.00000000000E+00 0.  1.
          6    2    1    2  502    0 -0.49572042033E+01  0.31663122986E+02 -0.34658875848E+03  0.38859192250E+03  0.17277959225E+03 0.  0.
         24    2    3    3    0    0  0.62055268768E+02  0.39010898118E+02 -0.20467289487E+03  0.23140775130E+03  0.79283333129E+02 0.  0.
         -6    2    1    2    0  503  0.49572042033E+01 -0.31663122986E+02  0.13691296028E+04  0.13808791851E+04  0.17687376097E+03 0.  0.
        -24    2    5    5    0    0 -0.33393407992E+01  0.46783817744E+02  0.93759091713E+03  0.94216460544E+03  0.79984617629E+02 0.  0.
          4    1    4    4  501    0  0.60147787642E+02 -0.16527928490E+01 -0.78993212784E+02  0.99299626124E+02  0.00000000000E+00 0. -1.
         -3    1    4    4    0  501  0.19074811255E+01  0.40663690967E+02 -0.12567968209E+03  0.13210812518E+03  0.00000000000E+00 0.  1.
          5    1    3    3  502    0 -0.67012472971E+02 -0.73477751325E+01 -0.14191586361E+03  0.15718417120E+03  0.47000000000E+01 0. -1.
         11    1    6    6    0    0 -0.36773723202E+02  0.97990332518E+01  0.56074064156E+03  0.56203059958E+03  0.00000000000E+00 0. -1.
        -12    1    6    6    0    0  0.33434382403E+02  0.36984784492E+02  0.37685027557E+03  0.38013400586E+03  0.00000000000E+00 0.  1.
         -5    1    5    5    0  503  0.82965450025E+01 -0.78446940730E+02  0.43153868567E+03  0.43871457965E+03  0.47000000000E+01 0.  1.
<mgrwt>
<rscale>  2 0.17873854E+03</rscale>
<asrwt>0</asrwt>
<pdfrwt beam="1">  1       21 0.21477015E+00 0.17975387E+03</pdfrwt>
<pdfrwt beam="2">  1       21 0.57456175E-01 0.17975387E+03</pdfrwt>
<totfact> 0.31348898E+02</totfact>
</mgrwt>
</event>
<event>
12    1  0.1441827E-001  0.1833761E+03  0.7546771E-02  0.1165289E+00
         21   -1    0    0  504  503  0.00000000000E+00  0.00000000000E+00  0.50512111887E+03  0.50512111887E+03  0.00000000000E+00 0.  1.
         21   -1    0    0  502  504 -0.00000000000E+00 -0.00000000000E+00 -0.65492322588E+02  0.65492322588E+02  0.00000000000E+00 0.  1.
          6    2    1    2  502    0  0.53886462705E+02 -0.12171692653E+02  0.21961693313E+03  0.28610903504E+03  0.17485674607E+03 0.  0.
         24    2    3    3    0    0 -0.34886664937E+02  0.17808697214E+02  0.10048495894E+03  0.13447127839E+03  0.80318544875E+02 0.  0.
         -6    2    1    2    0  503 -0.53886462705E+02  0.12171692653E+02  0.22001186316E+03  0.28450440642E+03  0.17171382117E+03 0.  0.
        -24    2    5    5    0    0 -0.13993774503E+02  0.56273813070E+02  0.19674808693E+03  0.22047537487E+03  0.80851799302E+02 0.  0.
          2    1    4    4  501    0 -0.36690318035E+02  0.10729410152E+02  0.11337988437E+03  0.11965073280E+03  0.00000000000E+00 0. -1.
         -1    1    4    4    0  501  0.18036530984E+01  0.70792870613E+01 -0.12894925427E+02  0.14820545589E+02  0.00000000000E+00 0.  1.
          5    1    3    3  502    0  0.88773127642E+02 -0.29980389866E+02  0.11913197419E+03  0.15163775665E+03  0.47000000000E+01 0. -1.
         13    1    6    6    0    0  0.17684790723E+02  0.62390379903E+02  0.15248604205E+03  0.16570245728E+03  0.00000000000E+00 0. -1.
        -14    1    6    6    0    0 -0.31678565226E+02 -0.61165668321E+01  0.44262044880E+02  0.54772917592E+02  0.00000000000E+00 0.  1.
         -5    1    5    5    0  503 -0.39892688202E+02 -0.44102120418E+02  0.23263776221E+02  0.64029031551E+02  0.47000000000E+01 0.  1.
<mgrwt>
<rscale>  2 0.18262283E+03</rscale>
<asrwt>0</asrwt>
<pdfrwt beam="1">  1       21 0.77710939E-01 0.18337607E+03</pdfrwt>
<pdfrwt beam="2">  1       21 0.10075742E-01 0.18337607E+03</pdfrwt>
<totfact> 0.11797585E+05</totfact>
</mgrwt>
</event>
<event>
12    1  0.1441827E-001  0.1782900E+03  0.7546771E-02  0.1169720E+00
         21   -1    0    0  504  503  0.00000000000E+00  0.00000000000E+00  0.30067085735E+03  0.30067085735E+03  0.00000000000E+00 0. -1.
         21   -1    0    0  502  504 -0.00000000000E+00 -0.00000000000E+00 -0.16252009363E+03  0.16252009363E+03  0.00000000000E+00 0. -1.
          6    2    1    2  502    0 -0.36925052871E+02 -0.19535753560E+02 -0.68693977822E+02  0.19011209674E+03  0.17227490107E+03 0.  0.
         24    2    3    3    0    0 -0.80399443917E+02 -0.46104148728E+02 -0.64238377150E+02  0.13875214467E+03  0.80845070600E+02 0.  0.
         -6    2    1    2    0  503  0.36925052871E+02  0.19535753560E+02  0.20684474154E+03  0.27307885424E+03  0.17332688288E+03 0.  0.
        -24    2    5    5    0    0 -0.33362474024E+02  0.46515733388E+02  0.85431444616E+02  0.13013993574E+03  0.79756523374E+02 0.  0.
          2    1    4    4  501    0 -0.48216774495E+02 -0.68313795307E+02 -0.47984791194E+02  0.96406286921E+02  0.00000000000E+00 0. -1.
         -1    1    4    4    0  501 -0.32182669422E+02  0.22209646579E+02 -0.16253585956E+02  0.42345857751E+02  0.00000000000E+00 0.  1.
          5    1    3    3  502    0  0.43474391046E+02  0.26568395169E+02 -0.44556006727E+01  0.51359952064E+02  0.47000000000E+01 0. -1.
         11    1    6    6    0    0 -0.25086607487E+02  0.17863359249E+02  0.94157460162E+02  0.99065961778E+02  0.00000000000E+00 0. -1.
        -12    1    6    6    0    0 -0.82758665374E+01  0.28652374139E+02 -0.87260155461E+01  0.31073973966E+02  0.00000000000E+00 0.  1.
         -5    1    5    5    0  503  0.70287526896E+02 -0.26979979828E+02  0.12141329693E+03  0.14293891849E+03  0.47000000000E+01 0.  1.
<mgrwt>
<rscale>  2 0.17803379E+03</rscale>
<asrwt>0</asrwt>
<pdfrwt beam="1">  1       21 0.46257055E-01 0.17828997E+03</pdfrwt>
<pdfrwt beam="2">  1       21 0.25003091E-01 0.17828997E+03</pdfrwt>
<totfact> 0.68223562E+04</totfact>
</mgrwt>
</event>
<event>
12    1  0.1441827E-001  0.2001980E+03  0.7546771E-02  0.1149630E+00
         21   -1    0    0  504  503  0.00000000000E+00  0.00000000000E+00  0.61234170758E+03  0.61234170758E+03  0.00000000000E+00 0. -1.
         21   -1    0    0  502  504 -0.00000000000E+00 -0.00000000000E+00 -0.10161171709E+03  0.10161171709E+03  0.00000000000E+00 0. -1.
          6    2    1    2  502    0 -0.74819973549E+02  0.65007567590E+02  0.46869150605E+03  0.50965771513E+03  0.17394035319E+03 0.  0.
         24    2    3    3    0    0 -0.70189266896E+01 -0.19988100078E+02  0.13385774905E+03  0.15758246707E+03  0.80408628074E+02 0.  0.
         -6    2    1    2    0  503  0.74819973549E+02 -0.65007567590E+02  0.42038484448E+02  0.20429570954E+03  0.17362456760E+03 0.  0.
        -24    2    5    5    0    0  0.10009330742E+03 -0.41193876547E+02 -0.16697019329E+02  0.13590139187E+03  0.80466093493E+02 0.  0.
          2    1    4    4  501    0  0.13450973148E+00 -0.46087766628E+02  0.11687247579E+03  0.12563150848E+03  0.00000000000E+00 0. -1.
         -1    1    4    4    0  501 -0.71534364211E+01  0.26099666550E+02  0.16985273257E+02  0.31950958582E+02  0.00000000000E+00 0.  1.
          5    1    3    3  502    0 -0.67801046859E+02  0.84995667669E+02  0.33483375700E+03  0.35207524807E+03  0.47000000000E+01 0. -1.
         13    1    6    6    0    0  0.36551409511E+02 -0.57120336642E+02 -0.18761455311E+02  0.70361428359E+02  0.00000000000E+00 0. -1.
        -14    1    6    6    0    0  0.63541897905E+02  0.15926460095E+02  0.20644359817E+01  0.65539963507E+02  0.00000000000E+00 0.  1.
         -5    1    5    5    0  503 -0.25273333868E+02 -0.23813691044E+02  0.58735503778E+02  0.68394317673E+02  0.47000000000E+01 0.  1.
<mgrwt>
<rscale>  2 0.20012944E+03</rscale>
<asrwt>0</asrwt>
<pdfrwt beam="1">  1       21 0.94206414E-01 0.20019805E+03</pdfrwt>
<pdfrwt beam="2">  1       21 0.15632572E-01 0.20019805E+03</pdfrwt>
<totfact> 0.34226158E+04</totfact>
</mgrwt>
</event>
<event>
12    1  0.1441827E-001  0.2796501E+03  0.7546771E-02  0.1096860E+00
         21   -1    0    0  504  503  0.00000000000E+00  0.00000000000E+00  0.29319258355E+03  0.29319258355E+03  0.00000000000E+00 0. -1.
         21   -1    0    0  502  504 -0.00000000000E+00 -0.00000000000E+00 -0.27847372938E+03  0.27847372938E+03  0.00000000000E+00 0. -1.
          6    2    1    2  502    0 -0.18526505379E+03  0.10361254604E+03  0.80998203140E+02  0.29114410146E+03  0.18205899882E+03 0.  0.
         24    2    3    3    0    0 -0.13469261233E+03 -0.29360275016E+01  0.72359980406E+02  0.17279343923E+03  0.80441816250E+02 0.  0.
         -6    2    1    2    0  503  0.18526505379E+03 -0.10361254604E+03 -0.66279348968E+02  0.28052221147E+03  0.17100017303E+03 0.  0.
        -24    2    5    5    0    0  0.68638071185E+02 -0.37155699052E+02 -0.90591531531E+02  0.14402482027E+03  0.80278219221E+02 0.  0.
          4    1    4    4  501    0 -0.93536348737E+02  0.32918988424E+02  0.62813721776E+02  0.11738088421E+03  0.00000000000E+00 0. -1.
         -3    1    4    4    0  501 -0.41156263597E+02 -0.35855015925E+02  0.95462586297E+01  0.55412555022E+02  0.00000000000E+00 0.  1.
          5    1    3    3  502    0 -0.50572441457E+02  0.10654857354E+03  0.86382227341E+01  0.11835066223E+03  0.47000000000E+01 0. -1.
         11    1    6    6    0    0  0.12763151343E+02  0.17961997708E+02  0.25984629540E+01  0.22187460503E+02  0.00000000000E+00 0. -1.
        -12    1    6    6    0    0  0.55874919842E+02 -0.55117696759E+02 -0.93189994485E+02  0.12183735977E+03  0.00000000000E+00 0.  1.
         -5    1    5    5    0  503  0.11662698261E+03 -0.66456846988E+02  0.24312182563E+02  0.13649739120E+03  0.47000000000E+01 0.  1.
<mgrwt>
<rscale>  2 0.27786552E+03</rscale>
<asrwt>0</asrwt>
<pdfrwt beam="1">  1       21 0.45106552E-01 0.27965010E+03</pdfrwt>
<pdfrwt beam="2">  1       21 0.42842112E-01 0.27965010E+03</pdfrwt>
<totfact> 0.23668470E+04</totfact>
</mgrwt>
</event>
<event>
12    1  0.1441827E-001  0.2198247E+03  0.7546771E-02  0.1134363E+00
         21   -1    0    0  504  503  0.00000000000E+00  0.00000000000E+00  0.12812621713E+03  0.12812621713E+03  0.00000000000E+00 0.  1.
         21   -1    0    0  502  504 -0.00000000000E+00 -0.00000000000E+00 -0.84211857232E+03  0.84211857232E+03  0.00000000000E+00 0.  1.
          6    2    1    2  502    0  0.86266015153E+02  0.10080353183E+03 -0.71937837096E+03  0.75221548974E+03  0.17527043389E+03 0.  0.
         24    2    3    3    0    0 -0.11624701756E+01  0.33196379163E+02 -0.15326894992E+03  0.17539971869E+03  0.78551507816E+02 0.  0.
         -6    2    1    2    0  503 -0.86266015153E+02 -0.10080353183E+03  0.53860157631E+01  0.21802929971E+03  0.17292943349E+03 0.  0.
        -24    2    5    5    0    0 -0.45417923141E+02  0.33069591321E+02  0.35703512029E+01  0.77972288603E+02  0.53949464963E+02 0.  0.
          2    1    4    4  501    0  0.16195615161E+02 -0.68905283303E+01 -0.17244258306E+01  0.17684766765E+02  0.00000000000E+00 0. -1.
         -1    1    4    4    0  501 -0.17358085336E+02  0.40086907493E+02 -0.15154452409E+03  0.15771495192E+03  0.00000000000E+00 0.  1.
          5    1    3    3  502    0  0.87428485328E+02  0.67607152667E+02 -0.56610942104E+03  0.57681577105E+03  0.47000000000E+01 0. -1.
         11    1    6    6    0    0 -0.50186049935E+02  0.17433517804E+02  0.18074688478E+02  0.56118281466E+02  0.00000000000E+00 0. -1.
        -12    1    6    6    0    0  0.47681267945E+01  0.15636073517E+02 -0.14504337275E+02  0.21854007137E+02  0.00000000000E+00 0.  1.
         -5    1    5    5    0  503 -0.40848092012E+02 -0.13387312315E+03  0.18156645603E+01  0.14005701111E+03  0.47000000000E+01 0.  1.
<mgrwt>
<rscale>  2 0.21935774E+03</rscale>
<asrwt>0</asrwt>
<pdfrwt beam="1">  1       21 0.19711725E-01 0.21982471E+03</pdfrwt>
<pdfrwt beam="2">  1       21 0.12955671E+00 0.21982471E+03</pdfrwt>
<totfact> 0.10144110E+04</totfact>
</mgrwt>
</event>
<event>
12    1  0.1441827E-001  0.1859072E+03  0.7546771E-02  0.1162447E+00
         21   -1    0    0  504  503  0.00000000000E+00  0.00000000000E+00  0.54793123456E+02  0.54793123456E+02  0.00000000000E+00 0. -1.
         21   -1    0    0  502  504 -0.00000000000E+00 -0.00000000000E+00 -0.12558962719E+04  0.12558962719E+04  0.00000000000E+00 0. -1.
          6    2    1    2  502    0 -0.48007872674E+02 -0.47113027469E+02 -0.10650491290E+04  0.10811526896E+04  0.17331213976E+03 0.  0.
         24    2    3    3    0    0 -0.22691764465E+02 -0.16241193689E+02 -0.23192917912E+03  0.24706341597E+03  0.80439386091E+02 0.  0.
         -6    2    1    2    0  503  0.48007872674E+02  0.47113027469E+02 -0.13605401942E+03  0.22953670576E+03  0.17219758969E+03 0.  0.
        -24    2    5    5    0    0  0.86433820062E+02  0.23638303790E+02 -0.50301413928E+02  0.13256652770E+03  0.83750088757E+02 0.  0.
          2    1    4    4  501    0  0.13547258208E+02 -0.39703356647E+02 -0.11161768350E+03  0.11924089904E+03  0.00000000000E+00 0. -1.
         -1    1    4    4    0  501 -0.36239022673E+02  0.23462162959E+02 -0.12031149562E+03  0.12782251693E+03  0.00000000000E+00 0.  1.
          5    1    3    3  502    0 -0.25316108209E+02 -0.30871833780E+02 -0.83311994991E+03  0.83408927363E+03  0.47000000000E+01 0. -1.
         11    1    6    6    0    0  0.39193517356E+02  0.16822736917E+02  0.20386919003E+02  0.47273277299E+02  0.00000000000E+00 0. -1.
        -12    1    6    6    0    0  0.47240302706E+02  0.68155668726E+01 -0.70688332931E+02  0.85293250401E+02  0.00000000000E+00 0.  1.
         -5    1    5    5    0  503 -0.38425947387E+02  0.23474723679E+02 -0.85752605497E+02  0.96970178065E+02  0.47000000000E+01 0.  1.
<mgrwt>
<rscale>  2 0.18564701E+03</rscale>
<asrwt>0</asrwt>
<pdfrwt beam="1">  1       21 0.84297117E-02 0.18590721E+03</pdfrwt>
<pdfrwt beam="2">  1       21 0.19321480E+00 0.18590721E+03</pdfrwt>
<totfact> 0.16359966E+04</totfact>
</mgrwt>
</event>
<event>
12    1  0.1441827E-001  0.2051031E+03  0.7546771E-02  0.1145774E+00
         21   -1    0    0  504  503  0.00000000000E+00  0.00000000000E+00  0.31107527129E+02  0.31107527129E+02  0.00000000000E+00 0.  1.
         21   -1    0    0  502  504 -0.00000000000E+00 -0.00000000000E+00 -0.15300921545E+04  0.15300921545E+04  0.00000000000E+00 0.  1.
          6    2    1    2  502    0  0.10917732259E+03 -0.22942276466E+01 -0.10198621301E+04  0.10400225230E+04  0.17205560919E+03 0.  0.
         24    2    3    3    0    0  0.98542057358E+02  0.28634201012E+02 -0.42974648778E+03  0.44898255998E+03  0.79830074939E+02 0.  0.
         -6    2    1    2    0  503 -0.10917732259E+03  0.22942276466E+01 -0.47912249727E+03  0.52117715865E+03  0.17361541422E+03 0.  0.
        -24    2    5    5    0    0 -0.11787203929E+02 -0.11255077267E+02 -0.10260630585E+03  0.13200502285E+03  0.81434987059E+02 0.  0.
          4    1    4    4  501    0  0.33825427937E+02  0.46772648800E+02 -0.13782973802E+03  0.14942850108E+03  0.00000000000E+00 0. -1.
         -3    1    4    4    0  501  0.64716629421E+02 -0.18138447788E+02 -0.29191674976E+03  0.29955405890E+03  0.00000000000E+00 0.  1.
          5    1    3    3  502    0  0.10635265228E+02 -0.30928428658E+02 -0.59011564233E+03  0.59103996302E+03  0.47000000000E+01 0. -1.
         13    1    6    6    0    0 -0.98369211301E+01 -0.39365839924E+02 -0.94250664884E+02  0.10261394740E+03  0.00000000000E+00 0. -1.
        -14    1    6    6    0    0 -0.19502827993E+01  0.28110762657E+02 -0.83556409643E+01  0.29391075449E+02  0.00000000000E+00 0.  1.
         -5    1    5    5    0  503 -0.97390118656E+02  0.13549304914E+02 -0.37651619142E+03  0.38917213580E+03  0.47000000000E+01 0.  1.
<mgrwt>
<rscale>  2 0.20477260E+03</rscale>
<asrwt>0</asrwt>
<pdfrwt beam="1">  1       21 0.47857739E-02 0.20510306E+03</pdfrwt>
<pdfrwt beam="2">  1       21 0.23539877E+00 0.20510306E+03</pdfrwt>
<totfact> 0.23275219E+04</totfact>
</mgrwt>
</event>
<event>
12    1  0.1441827E-001  0.1949385E+03  0.7546771E-02  0.1156533E+00
         21   -1    0    0  504  503  0.00000000000E+00  0.00000000000E+00  0.20523991405E+04  0.20523991405E+04  0.00000000000E+00 0.  1.
         21   -1    0    0  502  504 -0.00000000000E+00 -0.00000000000E+00 -0.25119183886E+02  0.25119183886E+02  0.00000000000E+00 0.  1.
          6    2    1    2  502    0  0.35602146334E+02 -0.45692767300E+02  0.46180993091E+03  0.50126784304E+03  0.18613354445E+03 0.  0.
         24    2    3    3    0    0  0.68833042533E+02  0.32103933250E+02  0.24695125062E+03  0.27030689055E+03  0.79449635748E+02 0.  0.
         -6    2    1    2    0  503 -0.35602146334E+02  0.45692767300E+02  0.15654700257E+04  0.15762504814E+04  0.17468210203E+03 0.  0.
        -24    2    5    5    0    0 -0.25082990968E+02  0.28941679528E+02  0.15444384951E+04  0.15469986977E+04  0.80298991541E+02 0.  0.
          2    1    4    4  501    0  0.26690174474E+02  0.38244377233E+02  0.48296073971E+02  0.67137981534E+02  0.00000000000E+00 0. -1.
         -1    1    4    4    0  501  0.42142868059E+02 -0.61404439826E+01  0.19865517665E+03  0.20316890902E+03  0.00000000000E+00 0.  1.
          5    1    3    3  502    0 -0.33230896199E+02 -0.77796700550E+02  0.21485868029E+03  0.23096095248E+03  0.47000000000E+01 0. -1.
         13    1    6    6    0    0  0.24417805166E+02  0.25249264790E+02  0.88394101643E+03  0.88463861272E+03  0.00000000000E+00 0. -1.
        -14    1    6    6    0    0 -0.49500796135E+02  0.36924147376E+01  0.66049747872E+03  0.66236008495E+03  0.00000000000E+00 0.  1.
         -5    1    5    5    0  503 -0.10519155366E+02  0.16751087772E+02  0.21031530566E+02  0.29251783691E+02  0.47000000000E+01 0.  1.
<mgrwt>
<rscale>  2 0.19215376E+03</rscale>
<asrwt>0</asrwt>
<pdfrwt beam="1">  1       21 0.31575358E+00 0.19493855E+03</pdfrwt>
<pdfrwt beam="2">  1       21 0.38644914E-02 0.19493855E+03</pdfrwt>
<totfact> 0.11468088E+04</totfact>
</mgrwt>
</event>
<event>
12    1  0.1441827E-001  0.2025786E+03  0.7546771E-02  0.1147594E+00
         21   -1    0    0  504  503  0.00000000000E+00  0.00000000000E+00  0.27485985023E+03  0.27485985023E+03  0.00000000000E+00 0. -1.
         21   -1    0    0  502  504 -0.00000000000E+00 -0.00000000000E+00 -0.21483771042E+03  0.21483771042E+03  0.00000000000E+00 0.  1.
          6    2    1    2  502    0 -0.61096248681E+02  0.85362617832E+02 -0.10526625398E+03  0.22824330049E+03  0.17318917941E+03 0.  0.
         24    2    3    3    0    0 -0.20324696417E+02  0.12138444810E+03 -0.79160036066E+02  0.16771631194E+03  0.81946155828E+02 0.  0.
         -6    2    1    2    0  503  0.61096248681E+02 -0.85362617832E+02  0.16528839379E+03  0.26145426016E+03  0.17325861857E+03 0.  0.
        -24    2    5    5    0    0  0.86412573979E+02 -0.11177600748E+03  0.14900223889E+03  0.22113165706E+03  0.82076389845E+02 0.  0.
          4    1    4    4  501    0 -0.53201004979E+01  0.12873397787E+03 -0.78748147951E+02  0.15100334875E+03  0.00000000000E+00 0. -1.
         -3    1    4    4    0  501 -0.15004595919E+02 -0.73495297748E+01 -0.41188811502E+00  0.16712963185E+02  0.00000000000E+00 0.  1.
          5    1    3    3  502    0 -0.40771552264E+02 -0.36021830265E+02 -0.26106217912E+02  0.60526988554E+02  0.47000000000E+01 0. -1.
         11    1    6    6    0    0  0.32379784522E+02  0.65492713141E+01  0.25125197106E+02  0.41504444703E+02  0.00000000000E+00 0. -1.
        -12    1    6    6    0    0  0.54032789457E+02 -0.11832527879E+03  0.12387704178E+03  0.17962721236E+03  0.00000000000E+00 0.  1.
         -5    1    5    5    0  503 -0.25316325298E+02  0.26413389647E+02  0.16286154899E+02  0.40322603098E+02  0.47000000000E+01 0.  1.
<mgrwt>
<rscale>  2 0.20256372E+03</rscale>
<asrwt>0</asrwt>
<pdfrwt beam="1">  1       21 0.42286131E-01 0.20257857E+03</pdfrwt>
<pdfrwt beam="2">  1       21 0.33051955E-01 0.20257857E+03</pdfrwt>
<totfact> 0.47194788E+04</totfact>
</mgrwt>
</event>
<event>
12    1  0.1441827E-001  0.2128430E+03  0.7546771E-02  0.1139476E+00
         21   -1    0    0  504  503  0.00000000000E+00  0.00000000000E+00  0.14782728133E+03  0.14782728133E+03  0.00000000000E+00 0. -1.
         21   -1    0    0  502  504 -0.00000000000E+00 -0.00000000000E+00 -0.54931908500E+03  0.54931908500E+03  0.00000000000E+00 0. -1.
          6    2    1    2  502    0 -0.12193363956E+03  0.11037895403E+02 -0.43282764630E+03  0.48200905764E+03  0.17321464332E+03 0.  0.
         24    2    3    3    0    0 -0.54720522983E+02  0.47604849512E+02 -0.36211660529E+03  0.37771674492E+03  0.79252420998E+02 0.  0.
         -6    2    1    2    0  503  0.12193363956E+03 -0.11037895403E+02  0.31335842625E+02  0.21513730868E+03  0.17410479305E+03 0.  0.
        -24    2    5    5    0    0 -0.47969175083E+01 -0.14481713814E+02  0.42434514661E+02  0.87788321636E+02  0.75321782564E+02 0.  0.
          4    1    4    4  501    0 -0.68762253193E+02  0.57956655744E+02 -0.29859888106E+03  0.31184693870E+03  0.00000000000E+00 0. -1.
         -3    1    4    4    0  501  0.14041730210E+02 -0.10351806232E+02 -0.63517724230E+02  0.65869806216E+02  0.00000000000E+00 0.  1.
          5    1    3    3  502    0 -0.67213116577E+02 -0.36566954109E+02 -0.70711041009E+02  0.10429231272E+03  0.47000000000E+01 0. -1.
         13    1    6    6    0    0 -0.16788145161E+02  0.31296856001E+01  0.58603867520E+02  0.61041379721E+02  0.00000000000E+00 0. -1.
        -14    1    6    6    0    0  0.11991227653E+02 -0.17611399414E+02 -0.16169352859E+02  0.26746941915E+02  0.00000000000E+00 0.  1.
         -5    1    5    5    0  503  0.12673055707E+03  0.34438184113E+01 -0.11098672036E+02  0.12734898704E+03  0.47000000000E+01 0.  1.
<mgrwt>
<rscale>  2 0.21266085E+03</rscale>
<asrwt>0</asrwt>
<pdfrwt beam="1">  1       21 0.22742659E-01 0.21284296E+03</pdfrwt>
<pdfrwt beam="2">  1       21 0.84510628E-01 0.21284296E+03</pdfrwt>
<totfact> 0.21752136E+04</totfact>
</mgrwt>
</event>
<event>
12    1  0.1441827E-001  0.1875875E+03  0.7546771E-02  0.1162254E+00
         21   -1    0    0  504  503  0.00000000000E+00  0.00000000000E+00  0.35641116673E+03  0.35641116673E+03  0.00000000000E+00 0.  1.
         21   -1    0    0  502  504 -0.00000000000E+00 -0.00000000000E+00 -0.41261509047E+03  0.41261509047E+03  0.00000000000E+00 0.  1.
          6    2    1    2  502    0 -0.57118862825E+02 -0.36266822974E+02 -0.36523569776E+03  0.40751594608E+03  0.16761349724E+03 0.  0.
         24    2    3    3    0    0  0.25987876233E+02 -0.46156348417E+02 -0.21024508854E+03  0.23130949973E+03  0.80593481126E+02 0.  0.
         -6    2    1    2    0  503  0.57118862825E+02  0.36266822974E+02  0.30903177402E+03  0.36151031112E+03  0.17496062629E+03 0.  0.
        -24    2    5    5    0    0  0.53561371999E+02  0.59491191901E+02  0.31750422264E+03  0.33609575940E+03  0.75785259837E+02 0.  0.
          2    1    4    4  501    0  0.35889033711E+02 -0.15786663380E+02 -0.33111374779E+02  0.51318657632E+02  0.00000000000E+00 0. -1.
         -1    1    4    4    0  501 -0.99011574776E+01 -0.30369685037E+02 -0.17713371376E+03  0.17999084210E+03  0.00000000000E+00 0.  1.
          5    1    3    3  502    0 -0.83106739058E+02  0.98895254435E+01 -0.15499060922E+03  0.17620644635E+03  0.47000000000E+01 0. -1.
         11    1    6    6    0    0  0.14196462551E+02 -0.17260181941E+02  0.91514094640E+02  0.94203412610E+02  0.00000000000E+00 0. -1.
        -12    1    6    6    0    0  0.39364909448E+02  0.76751373841E+02  0.22599012800E+03  0.24189234679E+03  0.00000000000E+00 0.  1.
         -5    1    5    5    0  503  0.35574908261E+01 -0.23224368927E+02 -0.84724486275E+01  0.25414551713E+02  0.47000000000E+01 0.  1.
<mgrwt>
<rscale>  2 0.18585536E+03</rscale>
<asrwt>0</asrwt>
<pdfrwt beam="1">  1       21 0.54832487E-01 0.18758749E+03</pdfrwt>
<pdfrwt beam="2">  1       21 0.63479245E-01 0.18758749E+03</pdfrwt>
<totfact> 0.72300545E+03</totfact>
</mgrwt>
</event>
<event>
12    1  0.1441827E-001  0.1844511E+03  0.7546771E-02  0.1164275E+00
         21   -1    0    0  504  503  0.00000000000E+00  0.00000000000E+00  0.61508908096E+02  0.61508908096E+02  0.00000000000E+00 0. -1.
         21   -1    0    0  502  504 -0.00000000000E+00 -0.00000000000E+00 -0.63596087291E+03  0.63596087291E+03  0.00000000000E+00 0. -1.
          6    2    1    2  502    0  0.51389184162E+02  0.10330548282E+02 -0.15674231958E+03  0.24205446850E+03  0.17684638108E+03 0.  0.
         24    2    3    3    0    0 -0.39838108905E+02  0.13570412433E+02 -0.10516206417E+03  0.13709958073E+03  0.77239913782E+02 0.  0.
         -6    2    1    2    0  503 -0.51389184162E+02 -0.10330548282E+02 -0.41770964524E+03  0.45541531251E+03  0.17370719807E+03 0.  0.
        -24    2    5    5    0    0 -0.28354301359E+02 -0.23654451975E+02 -0.41948778103E+03  0.42833424897E+03  0.78337289377E+02 0.  0.
          4    1    4    4  501    0 -0.54157307259E+02  0.12480875826E+02 -0.35442229163E+02  0.65916142173E+02  0.00000000000E+00 0. -1.
         -3    1    4    4    0  501  0.14319198354E+02  0.10895366072E+01 -0.69719835003E+02  0.71183438554E+02  0.00000000000E+00 0.  1.
          5    1    3    3  502    0  0.91227293067E+02 -0.32398641511E+01 -0.51580255410E+02  0.10495488778E+03  0.47000000000E+01 0. -1.
         11    1    6    6    0    0 -0.38316096609E+02 -0.39027613106E+02 -0.17947554735E+03  0.18762395886E+03  0.00000000000E+00 0. -1.
        -12    1    6    6    0    0  0.99617952497E+01  0.15373161130E+02 -0.24001223368E+03  0.24071029011E+03  0.00000000000E+00 0.  1.
         -5    1    5    5    0  503 -0.23034882803E+02  0.13323903693E+02  0.17781357844E+01  0.27081063536E+02  0.47000000000E+01 0.  1.
<mgrwt>
<rscale>  2 0.18369457E+03</rscale>
<asrwt>0</asrwt>
<pdfrwt beam="1">  1       21 0.94629091E-02 0.18445111E+03</pdfrwt>
<pdfrwt beam="2">  1       21 0.97840133E-01 0.18445111E+03</pdfrwt>
<totfact> 0.77594172E+04</totfact>
</mgrwt>
</event>
<event>
12    1  0.1441827E-001  0.2296466E+03  0.7546771E-02  0.1126919E+00
         21   -1    0    0  504  503  0.00000000000E+00  0.00000000000E+00  0.16471223758E+03  0.16471223758E+03  0.00000000000E+00 0. -1.
         21   -1    0    0  502  504 -0.00000000000E+00 -0.00000000000E+00 -0.49943836245E+03  0.49943836245E+03  0.00000000000E+00 0. -1.
          6    2    1    2  502    0 -0.12322102585E+03  0.86712780709E+02 -0.36648024237E+03  0.43248736567E+03  0.17330616224E+03 0.  0.
         24    2    3    3    0    0 -0.88975033593E+02  0.81339689834E+02 -0.13376019817E+03  0.19715278032E+03  0.80279053486E+02 0.  0.
         -6    2    1    2    0  503  0.12322102585E+03 -0.86712780709E+02  0.31754117495E+02  0.23166323436E+03  0.17308091352E+03 0.  0.
        -24    2    5    5    0    0  0.11527158102E+03 -0.12746497438E+02  0.57363951624E+02  0.15284598791E+03  0.81371140382E+02 0.  0.
          4    1    4    4  501    0 -0.95188073984E+02  0.67677952777E+02 -0.80579173134E+02  0.14189460125E+03  0.00000000000E+00 0. -1.
         -3    1    4    4    0  501  0.62130403909E+01  0.13661737057E+02 -0.53181025039E+02  0.55258179073E+02  0.00000000000E+00 0.  1.
          5    1    3    3  502    0 -0.34245992259E+02  0.53730908750E+01 -0.23272004419E+03  0.23533458535E+03  0.47000000000E+01 0. -1.
         11    1    6    6    0    0  0.10470558364E+03 -0.30508572218E+02  0.21064501994E+02  0.11107540443E+03  0.00000000000E+00 0. -1.
        -12    1    6    6    0    0  0.10565997376E+02  0.17762074780E+02  0.36299449629E+02  0.41770583482E+02  0.00000000000E+00 0.  1.
         -5    1    5    5    0  503  0.79494448358E+01 -0.73966283272E+02 -0.25609834128E+02  0.78817246452E+02  0.47000000000E+01 0.  1.
<mgrwt>
<rscale>  2 0.22960409E+03</rscale>
<asrwt>0</asrwt>
<pdfrwt beam="1">  1       21 0.25340345E-01 0.22964658E+03</pdfrwt>
<pdfrwt beam="2">  1       21 0.76836670E-01 0.22964658E+03</pdfrwt>
<totfact> 0.21769241E+04</totfact>
</mgrwt>
</event>
<event>
12    1  0.1441827E-001  0.1954808E+03  0.7546771E-02  0.1153629E+00
         21   -1    0    0  504  503  0.00000000000E+00  0.00000000000E+00  0.40961067912E+03  0.40961067912E+03  0.00000000000E+00 0. -1.
         21   -1    0    0  502  504 -0.00000000000E+00 -0.00000000000E+00 -0.10306267027E+03  0.10306267027E+03  0.00000000000E+00 0. -1.
          6    2    1    2  502    0 -0.36185380880E+02 -0.82166604655E+02  0.74195530822E+02  0.20908779989E+03  0.17364330843E+03 0.  0.
         24    2    3    3    0    0 -0.53693081638E+02 -0.21349024714E+02  0.10181857084E+03  0.13987494014E+03  0.76545735611E+02 0.  0.
         -6    2    1    2    0  503  0.36185380880E+02  0.82166604655E+02  0.23235247803E+03  0.30358554950E+03  0.17353898440E+03 0.  0.
        -24    2    5    5    0    0  0.42492510531E+02  0.11922839241E+03  0.14476121322E+03  0.20815140641E+03  0.79687992362E+02 0.  0.
          4    1    4    4  501    0 -0.57968569982E+02  0.13808495870E+00  0.30983763503E+02  0.65729504593E+02  0.00000000000E+00 0. -1.
         -3    1    4    4    0  501  0.42754883442E+01 -0.21487109673E+02  0.70834807333E+02  0.74145435548E+02  0.00000000000E+00 0.  1.
          5    1    3    3  502    0  0.17507700758E+02 -0.60817579941E+02 -0.27623040014E+02  0.69212859754E+02  0.47000000000E+01 0. -1.
         11    1    6    6    0    0  0.41652526196E+02  0.13785159402E+02  0.37162596931E+02  0.57498018826E+02  0.00000000000E+00 0. -1.
        -12    1    6    6    0    0  0.83998433421E+00  0.10544323301E+03  0.10759861629E+03  0.15065338758E+03  0.00000000000E+00 0.  1.
         -5    1    5    5    0  503 -0.63071296511E+01 -0.37061787759E+02  0.87591264812E+02  0.95434143092E+02  0.47000000000E+01 0.  1.
<mgrwt>
<rscale>  2 0.19545760E+03</rscale>
<asrwt>0</asrwt>
<pdfrwt beam="1">  1       21 0.63017027E-01 0.19548077E+03</pdfrwt>
<pdfrwt beam="2">  1       21 0.15855796E-01 0.19548077E+03</pdfrwt>
<totfact> 0.82541497E+04</totfact>
</mgrwt>
</event>
<event>
12    1  0.1441827E-001  0.1853191E+03  0.7546771E-02  0.1162756E+00
         21   -1    0    0  504  503  0.00000000000E+00  0.00000000000E+00  0.43515044043E+03  0.43515044043E+03  0.00000000000E+00 0. -1.
         21   -1    0    0  502  504 -0.00000000000E+00 -0.00000000000E+00 -0.80906921313E+02  0.80906921313E+02  0.00000000000E+00 0. -1.
          6    2    1    2  502    0 -0.56002367375E+02 -0.27610390140E+02  0.21758988250E+03  0.28580228929E+03  0.17446774143E+03 0.  0.
         24    2    3    3    0    0  0.17019620336E+02  0.89936262638E+01  0.17372421012E+03  0.19296721014E+03  0.81766070098E+02 0.  0.
         -6    2    1    2    0  503  0.56002367375E+02  0.27610390140E+02  0.13665363662E+03  0.23025507246E+03  0.17448376199E+03 0.  0.
        -24    2    5    5    0    0  0.76613638798E+02  0.63337540115E+02  0.13817193171E+03  0.18871414114E+03  0.81487733522E+02 0.  0.
          2    1    4    4  501    0  0.11735234506E+02 -0.20256613840E+02  0.15725065912E+03  0.15898369705E+03  0.00000000000E+00 0. -1.
         -1    1    4    4    0  501  0.52843858300E+01  0.29250240104E+02  0.16473550996E+02  0.33983513093E+02  0.00000000000E+00 0.  1.
          5    1    3    3  502    0 -0.73021987711E+02 -0.36604016403E+02  0.43865672383E+02  0.92835079144E+02  0.47000000000E+01 0. -1.
         13    1    6    6    0    0  0.47211512922E+02 -0.96320506733E+01  0.38135518539E+02  0.61449337887E+02  0.00000000000E+00 0. -1.
        -14    1    6    6    0    0  0.29402125876E+02  0.72969590788E+02  0.10003641317E+03  0.12726480325E+03  0.00000000000E+00 0.  1.
         -5    1    5    5    0  503 -0.20611271423E+02 -0.35727149975E+02 -0.15182950954E+01  0.41540931321E+02  0.47000000000E+01 0.  1.
<mgrwt>
<rscale>  2 0.18531536E+03</rscale>
<asrwt>0</asrwt>
<pdfrwt beam="1">  1       21 0.66946220E-01 0.18531914E+03</pdfrwt>
<pdfrwt beam="2">  1       21 0.12447219E-01 0.18531914E+03</pdfrwt>
<totfact> 0.11261899E+05</totfact>
</mgrwt>
</event>
<event>
12    1  0.1441827E-001  0.1896631E+03  0.7546771E-02  0.1162001E+00
         21   -1    0    0  504  503  0.00000000000E+00  0.00000000000E+00  0.12208856953E+03  0.12208856953E+03  0.00000000000E+00 0. -1.
         21   -1    0    0  502  504 -0.00000000000E+00 -0.00000000000E+00 -0.32958102907E+03  0.32958102907E+03  0.00000000000E+00 0.  1.
          6    2    1    2  502    0 -0.20415051341E+02 -0.31399085591E+02 -0.19347269771E+03  0.26148899362E+03  0.17187824797E+03 0.  0.
         24    2    3    3    0    0  0.83062514848E+00  0.46175023156E+02 -0.12321119922E+03  0.15458768732E+03  0.81138959551E+02 0.  0.
         -6    2    1    2    0  503  0.20415051341E+02  0.31399085591E+02 -0.14019761829E+02  0.19018060498E+03  0.18592856664E+03 0.  0.
        -24    2    5    5    0    0 -0.42506445399E+02 -0.90220156931E+01 -0.54101344514E+02  0.10520058703E+03  0.79069674115E+02 0.  0.
          4    1    4    4  501    0 -0.31174495653E+02  0.40906328981E+02 -0.10611545247E+03  0.11792228875E+03  0.00000000000E+00 0. -1.
         -3    1    4    4    0  501  0.32005120802E+02  0.52686941750E+01 -0.17095746746E+02  0.36665398575E+02  0.00000000000E+00 0.  1.
          5    1    3    3  502    0 -0.21245676489E+02 -0.77574108746E+02 -0.70261498488E+02  0.10690130629E+03  0.47000000000E+01 0. -1.
         13    1    6    6    0    0 -0.32457406607E+02  0.20191166058E+02  0.49617999116E+01  0.38545893281E+02  0.00000000000E+00 0. -1.
        -14    1    6    6    0    0 -0.10049038791E+02 -0.29213181751E+02 -0.59063144426E+02  0.66654693744E+02  0.00000000000E+00 0.  1.
         -5    1    5    5    0  503  0.62921496739E+02  0.40421101284E+02  0.40081582686E+02  0.84980017954E+02  0.47000000000E+01 0.  1.
<mgrwt>
<rscale>  2 0.18612756E+03</rscale>
<asrwt>0</asrwt>
<pdfrwt beam="1">  1       21 0.18782857E-01 0.18966315E+03</pdfrwt>
<pdfrwt beam="2">  1       21 0.50704774E-01 0.18966315E+03</pdfrwt>
<totfact> 0.96133059E+04</totfact>
</mgrwt>
</event>
<event>
12    1  0.1441827E-001  0.2543369E+03  0.7546771E-02  0.1110750E+00
         21   -1    0    0  504  503  0.00000000000E+00  0.00000000000E+00  0.29337294377E+03  0.29337294377E+03  0.00000000000E+00 0. -1.
         21   -1    0    0  502  504 -0.00000000000E+00 -0.00000000000E+00 -0.23079289903E+03  0.23079289903E+03  0.00000000000E+00 0.  1.
          6    2    1    2  502    0  0.14317679794E+02  0.18496352913E+03 -0.26302110459E+02  0.25569326958E+03  0.17398489599E+03 0.  0.
         24    2    3    3    0    0 -0.75145775138E+01  0.19619975148E+03  0.10791802331E+02  0.21096130653E+03  0.76402869699E+02 0.  0.
         -6    2    1    2    0  503 -0.14317679794E+02 -0.18496352913E+03  0.88882155195E+02  0.26847257322E+03  0.17251371539E+03 0.  0.
        -24    2    5    5    0    0  0.57175898801E+02 -0.75968269275E+02  0.50595949177E+02  0.13253427096E+03  0.77234199457E+02 0.  0.
          4    1    4    4  501    0  0.19209751915E+02  0.16623929470E+03  0.23186300602E+02  0.16894413931E+03  0.00000000000E+00 0. -1.
         -3    1    4    4    0  501 -0.26724329428E+02  0.29960456785E+02 -0.12394498271E+02  0.42017167225E+02  0.00000000000E+00 0.  1.
          5    1    3    3  502    0  0.21832257308E+02 -0.11236222358E+02 -0.37093912791E+02  0.44731963048E+02  0.47000000000E+01 0. -1.
         13    1    6    6    0    0 -0.13174384369E+02  0.59528089141E+01  0.72985178904E+01  0.16194712127E+02  0.00000000000E+00 0. -1.
        -14    1    6    6    0    0  0.70350283170E+02 -0.81921078189E+02  0.43297431287E+02  0.11633955883E+03  0.00000000000E+00 0.  1.
         -5    1    5    5    0  503 -0.71493578595E+02 -0.10899525985E+03  0.38286206017E+02  0.13593830226E+03  0.47000000000E+01 0.  1.
<mgrwt>
<rscale>  2 0.25408547E+03</rscale>
<asrwt>0</asrwt>
<pdfrwt beam="1">  1       21 0.45134299E-01 0.25433688E+03</pdfrwt>
<pdfrwt beam="2">  1       21 0.35506600E-01 0.25433688E+03</pdfrwt>
<totfact> 0.34971641E+04</totfact>
</mgrwt>
</event>
<event>
12    1  0.1441827E-001  0.2905241E+03  0.7546771E-02  0.1090544E+00
         21   -1    0    0  504  503  0.00000000000E+00  0.00000000000E+00  0.51078693792E+03  0.51078693792E+03  0.00000000000E+00 0.  1.
         21   -1    0    0  502  504 -0.00000000000E+00 -0.00000000000E+00 -0.30149965956E+03  0.30149965956E+03  0.00000000000E+00 0. -1.
          6    2    1    2  502    0  0.16864376119E+03 -0.15850269183E+03 -0.17005610680E+03  0.33663534107E+03  0.17561449794E+03 0.  0.
         24    2    3    3    0    0  0.52452250699E+02 -0.12310747135E+03 -0.14717254256E+03  0.21294606807E+03  0.76023565514E+02 0.  0.
         -6    2    1    2    0  503 -0.16864376119E+03  0.15850269183E+03  0.37934338517E+03  0.47565125641E+03  0.16964342705E+03 0.  0.
        -24    2    5    5    0    0 -0.32755252886E+02  0.11312381889E+03  0.17451629966E+03  0.22564894891E+03  0.81188695652E+02 0.  0.
          2    1    4    4  501    0  0.64768659058E+02 -0.81635916426E+02 -0.12948035867E+03  0.16620639376E+03  0.00000000000E+00 0. -1.
         -1    1    4    4    0  501 -0.12316408359E+02 -0.41471554927E+02 -0.17692183896E+02  0.46739674303E+02  0.00000000000E+00 0.  1.
          5    1    3    3  502    0  0.11619151050E+03 -0.35395220481E+02 -0.22883564241E+02  0.12368927301E+03  0.47000000000E+01 0. -1.
         11    1    6    6    0    0 -0.14151592485E+02  0.12104642723E+03  0.13970777074E+03  0.18539354444E+03  0.00000000000E+00 0. -1.
        -12    1    6    6    0    0 -0.18603660402E+02 -0.79226083327E+01  0.34808528921E+02  0.40255404467E+02  0.00000000000E+00 0.  1.
         -5    1    5    5    0  503 -0.13588850831E+03  0.45378872941E+02  0.20482708550E+03  0.25000230750E+03  0.47000000000E+01 0.  1.
<mgrwt>
<rscale>  2 0.28962751E+03</rscale>
<asrwt>0</asrwt>
<pdfrwt beam="1">  1       21 0.78582606E-01 0.29052414E+03</pdfrwt>
<pdfrwt beam="2">  1       21 0.46384563E-01 0.29052414E+03</pdfrwt>
<totfact> 0.59950340E+03</totfact>
</mgrwt>
</event>
<event>
12    1  0.1441827E-001  0.2417561E+03  0.7546771E-02  0.1120911E+00
         21   -1    0    0  504  503  0.00000000000E+00  0.00000000000E+00  0.45381340366E+03  0.45381340366E+03  0.00000000000E+00 0.  1.
         21   -1    0    0  502  504 -0.00000000000E+00 -0.00000000000E+00 -0.38365830920E+03  0.38365830920E+03  0.00000000000E+00 0.  1.
          6    2    1    2  502    0 -0.11558313561E+03  0.92157502799E+02 -0.31117529995E+03  0.38596435287E+03  0.17402858338E+03 0.  0.
         24    2    3    3    0    0 -0.12989568313E+03  0.79158588653E+02 -0.32056520328E+03  0.36396251045E+03  0.81041278406E+02 0.  0.
         -6    2    1    2    0  503  0.11558313561E+03 -0.92157502799E+02  0.38133039441E+03  0.45150735998E+03  0.19129443238E+03 0.  0.
        -24    2    5    5    0    0  0.47838452758E+02  0.19900949175E+02  0.83103620498E+02  0.12576553370E+03  0.78906225273E+02 0.  0.
          4    1    4    4  501    0 -0.55058253622E+02  0.56323355913E+02 -0.85652355512E+02  0.11636175367E+03  0.00000000000E+00 0. -1.
         -3    1    4    4    0  501 -0.74837429504E+02  0.22835232740E+02 -0.23491284777E+03  0.24760075677E+03  0.00000000000E+00 0.  1.
          5    1    3    3  502    0  0.14312547519E+02  0.12998914146E+02  0.93899033331E+01  0.22001842425E+02  0.47000000000E+01 0. -1.
         13    1    6    6    0    0  0.25922531849E+02  0.48682432456E+02  0.65208995782E+02  0.85405913250E+02  0.00000000000E+00 0. -1.
        -14    1    6    6    0    0  0.21915920909E+02 -0.28781483281E+02  0.17894624716E+02  0.40359620450E+02  0.00000000000E+00 0.  1.
         -5    1    5    5    0  503  0.67744682848E+02 -0.11205845197E+03  0.29822677391E+03  0.32574182628E+03  0.47000000000E+01 0.  1.
<mgrwt>
<rscale>  2 0.23832953E+03</rscale>
<asrwt>0</asrwt>
<pdfrwt beam="1">  1       21 0.69817446E-01 0.24175613E+03</pdfrwt>
<pdfrwt beam="2">  1       21 0.59024356E-01 0.24175613E+03</pdfrwt>
<totfact> 0.48280237E+03</totfact>
</mgrwt>
</event>
<event>
12    1  0.1441827E-001  0.2837441E+03  0.7546771E-02  0.1093834E+00
         21   -1    0    0  504  503  0.00000000000E+00  0.00000000000E+00  0.67863565826E+03  0.67863565826E+03  0.00000000000E+00 0.  1.
         21   -1    0    0  502  504 -0.00000000000E+00 -0.00000000000E+00 -0.12568754630E+03  0.12568754630E+03  0.00000000000E+00 0. -1.
          6    2    1    2  502    0  0.17151674376E+03  0.14236340685E+03  0.37469918915E+03  0.46923602254E+03  0.17348668391E+03 0.  0.
         24    2    3    3    0    0  0.40492884473E+02  0.70471157497E+02  0.24941866139E+03  0.27416411821E+03  0.79689631286E+02 0.  0.
         -6    2    1    2    0  503 -0.17151674376E+03 -0.14236340685E+03  0.17824892281E+03  0.33508718202E+03  0.17557166079E+03 0.  0.
        -24    2    5    5    0    0 -0.32084820925E+02 -0.46586017053E+02 -0.12016942839E+02  0.80454585654E+02  0.55936041323E+02 0.  0.
          4    1    4    4  501    0 -0.37475517239E+01  0.20515018048E+02  0.59069229759E+01  0.21674912882E+02  0.00000000000E+00 0. -1.
         -3    1    4    4    0  501  0.44240436197E+02  0.49956139450E+02  0.24351173841E+03  0.25248920533E+03  0.00000000000E+00 0.  1.
          5    1    3    3  502    0  0.13102385929E+03  0.71892249355E+02  0.12528052777E+03  0.19507190433E+03  0.47000000000E+01 0. -1.
         13    1    6    6    0    0 -0.25195029312E+02 -0.53102276655E+02  0.70125602371E+01  0.59193051020E+02  0.00000000000E+00 0. -1.
        -14    1    6    6    0    0 -0.68897916124E+01  0.65162596020E+01 -0.19029503076E+02  0.21261534634E+02  0.00000000000E+00 0.  1.
         -5    1    5    5    0  503 -0.13943192284E+03 -0.95777389799E+02  0.19026586564E+03  0.25463259637E+03  0.47000000000E+01 0.  1.
<mgrwt>
<rscale>  2 0.28342226E+03</rscale>
<asrwt>0</asrwt>
<pdfrwt beam="1">  1       21 0.10440548E+00 0.28374415E+03</pdfrwt>
<pdfrwt beam="2">  1       21 0.19336546E-01 0.28374415E+03</pdfrwt>
<totfact> 0.17326816E+04</totfact>
</mgrwt>
</event>
<event>
12    1  0.1441827E-001  0.1824070E+03  0.7546771E-02  0.1166206E+00
         21   -1    0    0  504  503  0.00000000000E+00  0.00000000000E+00  0.16379613510E+04  0.16379613510E+04  0.00000000000E+00 0. -1.
         21   -1    0    0  502  504 -0.00000000000E+00 -0.00000000000E+00 -0.22622525717E+02  0.22622525717E+02  0.00000000000E+00 0. -1.
          6    2    1    2  502    0  0.39810452607E+02 -0.22665057881E+02  0.51826543830E+03  0.54844973868E+03  0.17349200079E+03 0.  0.
         24    2    3    3    0    0  0.18096549703E+02 -0.76308270553E+02  0.24815476367E+03  0.27216916681E+03  0.79654449740E+02 0.  0.
         -6    2    1    2    0  503 -0.39810452607E+02  0.22665057881E+02  0.10970733870E+04  0.11121341381E+04  0.17656088914E+03 0.  0.
        -24    2    5    5    0    0 -0.73801566027E+02  0.61485647133E+02  0.64700766664E+03  0.65909586529E+03  0.81001746926E+02 0.  0.
          2    1    4    4  501    0 -0.11310903765E+02 -0.69387095894E+02  0.21967542120E+03  0.23065081032E+03  0.00000000000E+00 0. -1.
         -1    1    4    4    0  501  0.29407453468E+02 -0.69211746587E+01  0.28479342464E+02  0.41518356486E+02  0.00000000000E+00 0.  1.
          5    1    3    3  502    0  0.21713902905E+02  0.53643212671E+02  0.27011067463E+03  0.27628057187E+03  0.47000000000E+01 0. -1.
         11    1    6    6    0    0 -0.77063939854E+02  0.14331827848E+02  0.40424037084E+03  0.41176999591E+03  0.00000000000E+00 0. -1.
        -12    1    6    6    0    0  0.32623738273E+01  0.47153819285E+02  0.24276729580E+03  0.24732586938E+03  0.00000000000E+00 0.  1.
         -5    1    5    5    0  503  0.33991113419E+02 -0.38820589252E+02  0.45006572036E+03  0.45303827276E+03  0.47000000000E+01 0.  1.
<mgrwt>
<rscale>  2 0.18166024E+03</rscale>
<asrwt>0</asrwt>
<pdfrwt beam="1">  1       21 0.25199396E+00 0.18240703E+03</pdfrwt>
<pdfrwt beam="2">  1       21 0.34803899E-02 0.18240703E+03</pdfrwt>
<totfact> 0.32277966E+04</totfact>
</mgrwt>
</event>
<event>
12    1  0.1441827E-001  0.1871332E+03  0.7546771E-02  0.1161383E+00
         21   -1    0    0  504  503  0.00000000000E+00  0.00000000000E+00  0.80267941163E+03  0.80267941163E+03  0.00000000000E+00 0.  1.
         21   -1    0    0  502  504 -0.00000000000E+00 -0.00000000000E+00 -0.73134358894E+02  0.73134358894E+02  0.00000000000E+00 0.  1.
          6    2    1    2  502    0  0.25942520943E+02  0.65812651235E+02  0.84372858885E+02  0.20405043278E+03  0.17179487870E+03 0.  0.
         24    2    3    3    0    0  0.21941022766E+02  0.92239408356E+02  0.99203824356E+01  0.12480621073E+03  0.80552214835E+02 0.  0.
         -6    2    1    2    0  503 -0.25942520943E+02 -0.65812651235E+02  0.64517219386E+03  0.67176333774E+03  0.17324694155E+03 0.  0.
        -24    2    5    5    0    0 -0.78408211196E+02 -0.17733932797E+02  0.41597147718E+03  0.43172319455E+03  0.83007872694E+02 0.  0.
          2    1    4    4  501    0  0.52033124207E+02  0.63214172801E+02  0.16871751472E+00  0.81874941974E+02  0.00000000000E+00 0. -1.
         -1    1    4    4    0  501 -0.30092101441E+02  0.29025235555E+02  0.97516649209E+01  0.42931268755E+02  0.00000000000E+00 0.  1.
          5    1    3    3  502    0  0.40014981768E+01 -0.26426757122E+02  0.74452476449E+02  0.79244222055E+02  0.47000000000E+01 0. -1.
         13    1    6    6    0    0 -0.50576607475E+01  0.28269032030E+02  0.91705452823E+02  0.96096868740E+02  0.00000000000E+00 0. -1.
        -14    1    6    6    0    0 -0.73350550449E+02 -0.46002964827E+02  0.32426602435E+03  0.33562632581E+03  0.00000000000E+00 0.  1.
         -5    1    5    5    0  503  0.52465690253E+02 -0.48078718438E+02  0.22920071668E+03  0.24004014320E+03  0.47000000000E+01 0.  1.
<mgrwt>
<rscale>  2 0.18679638E+03</rscale>
<asrwt>0</asrwt>
<pdfrwt beam="1">  1       21 0.12348913E+00 0.18713317E+03</pdfrwt>
<pdfrwt beam="2">  1       21 0.11251440E-01 0.18713317E+03</pdfrwt>
<totfact> 0.32475332E+04</totfact>
</mgrwt>
</event>
<event>
12    1  0.1441827E-001  0.2492562E+03  0.7546771E-02  0.1113803E+00
         21   -1    0    0  504  503  0.00000000000E+00  0.00000000000E+00  0.22175521877E+02  0.22175521877E+02  0.00000000000E+00 0. -1.
         21   -1    0    0  502  504 -0.00000000000E+00 -0.00000000000E+00 -0.30528268294E+04  0.30528268294E+04  0.00000000000E+00 0. -1.
          6    2    1    2  502    0  0.17625478455E+03 -0.31631895641E+02 -0.19584639152E+04  0.19742617708E+04  0.17338485068E+03 0.  0.
         24    2    3    3    0    0  0.13272491014E+03  0.25710760034E+02 -0.95307559590E+03  0.96628816361E+03  0.84159245950E+02 0.  0.
         -6    2    1    2    0  503 -0.17625478455E+03  0.31631895641E+02 -0.10721873922E+04  0.11007405804E+04  0.17314068106E+03 0.  0.
        -24    2    5    5    0    0 -0.93498969926E+02  0.43524734704E+02 -0.89903692118E+03  0.90840457210E+03  0.79341168722E+02 0.  0.
          2    1    4    4  501    0  0.48464467221E+02 -0.44544840404E+01 -0.60273858904E+03  0.60470030075E+03  0.00000000000E+00 0. -1.
         -1    1    4    4    0  501  0.84260442915E+02  0.30165244074E+02 -0.35033700686E+03  0.36158786285E+03  0.00000000000E+00 0.  1.
          5    1    3    3  502    0  0.43529874413E+02 -0.57342655675E+02 -0.10053883193E+04  0.10079736072E+04  0.47000000000E+01 0. -1.
         11    1    6    6    0    0 -0.82466289811E+02  0.64383072681E+02 -0.66479579481E+03  0.67297794749E+03  0.00000000000E+00 0. -1.
        -12    1    6    6    0    0 -0.11032680116E+02 -0.20858337976E+02 -0.23424112637E+03  0.23542662461E+03  0.00000000000E+00 0.  1.
         -5    1    5    5    0  503 -0.82755814623E+02 -0.11892839063E+02 -0.17315047106E+03  0.19233600834E+03  0.47000000000E+01 0.  1.
<mgrwt>
<rscale>  2 0.24921370E+03</rscale>
<asrwt>0</asrwt>
<pdfrwt beam="1">  1       21 0.34116192E-02 0.24925616E+03</pdfrwt>
<pdfrwt beam="2">  1       21 0.46966561E+00 0.24925616E+03</pdfrwt>
<totfact> 0.14531050E+03</totfact>
</mgrwt>
</event>
<event>
12    1  0.1441827E-001  0.2560720E+03  0.7546771E-02  0.1109668E+00
         21   -1    0    0  504  503  0.00000000000E+00  0.00000000000E+00  0.31975871305E+02  0.31975871305E+02  0.00000000000E+00 0.  1.
         21   -1    0    0  502  504 -0.00000000000E+00 -0.00000000000E+00 -0.20484067500E+04  0.20484067500E+04  0.00000000000E+00 0. -1.
          6    2    1    2  502    0 -0.64457814017E+02  0.17596157921E+03 -0.10618128719E+04  0.10922542882E+04  0.17451523727E+03 0.  0.
         24    2    3    3    0    0 -0.66585477816E+02  0.20275123437E+03 -0.97114162696E+03  0.99756755612E+03  0.80518820790E+02 0.  0.
         -6    2    1    2    0  503  0.64457814017E+02 -0.17596157921E+03 -0.95461800680E+03  0.98812833310E+03  0.17316112906E+03 0.  0.
        -24    2    5    5    0    0  0.67044661025E+02 -0.20292602356E+03 -0.87521885293E+03  0.90410399929E+03  0.75644189464E+02 0.  0.
          2    1    4    4  501    0 -0.59857095436E+02  0.12533614565E+03 -0.75983794722E+03  0.77242846097E+03  0.00000000000E+00 0. -1.
         -1    1    4    4    0  501 -0.67283823794E+01  0.77415088716E+02 -0.21130367975E+03  0.22513909515E+03  0.00000000000E+00 0.  1.
          5    1    3    3  502    0  0.21276637989E+01 -0.26789655156E+02 -0.90671244898E+02  0.94686732058E+02  0.47000000000E+01 0. -1.
         13    1    6    6    0    0 -0.26627872753E+01 -0.10736601762E+03 -0.45958252361E+03  0.47196466836E+03  0.00000000000E+00 0. -1.
        -14    1    6    6    0    0  0.69707448300E+02 -0.95560005943E+02 -0.41563632932E+03  0.43213933093E+03  0.00000000000E+00 0.  1.
         -5    1    5    5    0  503 -0.25868470080E+01  0.26964444348E+02 -0.79399153876E+02  0.84024333812E+02  0.47000000000E+01 0.  1.
<mgrwt>
<rscale>  2 0.25584143E+03</rscale>
<asrwt>0</asrwt>
<pdfrwt beam="1">  1       21 0.49193641E-02 0.25607197E+03</pdfrwt>
<pdfrwt beam="2">  1       21 0.31513955E+00 0.25607197E+03</pdfrwt>
<totfact> 0.72455641E+03</totfact>
</mgrwt>
</event>
<event>
12    1  0.1441827E-001  0.2070258E+03  0.7546771E-02  0.1144046E+00
         21   -1    0    0  504  503  0.00000000000E+00  0.00000000000E+00  0.73680306836E+02  0.73680306836E+02  0.00000000000E+00 0. -1.
         21   -1    0    0  502  504 -0.00000000000E+00 -0.00000000000E+00 -0.81186815164E+03  0.81186815164E+03  0.00000000000E+00 0.  1.
          6    2    1    2  502    0 -0.11202457339E+03  0.18648298262E+02 -0.60590512781E+03  0.64029735410E+03  0.17309654441E+03 0.  0.
         24    2    3    3    0    0 -0.78148428418E+02 -0.69547427652E+01 -0.57829310657E+03  0.58942867391E+03  0.82750825980E+02 0.  0.
         -6    2    1    2    0  503  0.11202457339E+03 -0.18648298262E+02 -0.13228271700E+03  0.24525110438E+03  0.17248803702E+03 0.  0.
        -24    2    5    5    0    0  0.10759378261E+03 -0.39309525553E+02 -0.15727455234E+03  0.21218752844E+03  0.84655782766E+02 0.  0.
          4    1    4    4  501    0  0.82196617481E+01  0.20754886897E+02 -0.86051317791E+02  0.88899704516E+02  0.00000000000E+00 0. -1.
         -3    1    4    4    0  501 -0.86368090167E+02 -0.27709629662E+02 -0.49224178878E+03  0.50052896939E+03  0.00000000000E+00 0.  1.
          5    1    3    3  502    0 -0.33876144967E+02  0.25603041027E+02 -0.27612021236E+02  0.50868680191E+02  0.47000000000E+01 0. -1.
         11    1    6    6    0    0  0.60242861380E+02  0.22730824109E+02 -0.70450896899E+02  0.95442242146E+02  0.00000000000E+00 0. -1.
        -12    1    6    6    0    0  0.47350921226E+02 -0.62040349661E+02 -0.86823655443E+02  0.11674528629E+03  0.00000000000E+00 0.  1.
         -5    1    5    5    0  503  0.44307907795E+01  0.20661227291E+02  0.24991835346E+02  0.33063575942E+02  0.47000000000E+01 0.  1.
<mgrwt>
<rscale>  2 0.20689855E+03</rscale>
<asrwt>0</asrwt>
<pdfrwt beam="1">  1       21 0.11335432E-01 0.20702579E+03</pdfrwt>
<pdfrwt beam="2">  1       21 0.12490279E+00 0.20702579E+03</pdfrwt>
<totfact> 0.30788536E+04</totfact>
</mgrwt>
</event>
<event>
12    1  0.1441827E-001  0.1974753E+03  0.7546771E-02  0.1152316E+00
         21   -1    0    0  504  503  0.00000000000E+00  0.00000000000E+00  0.16140314990E+03  0.16140314990E+03  0.00000000000E+00 0.  1.
         21   -1    0    0  502  504 -0.00000000000E+00 -0.00000000000E+00 -0.42177535151E+03  0.42177535151E+03  0.00000000000E+00 0.  1.
          6    2    1    2  502    0  0.88561830757E+01 -0.82851884982E+02 -0.32166624442E+03  0.37640941806E+03  0.17683893908E+03 0.  0.
         24    2    3    3    0    0  0.61528557123E+02 -0.12638962230E+02 -0.21867870407E+03  0.24101090633E+03  0.79500783952E+02 0.  0.
         -6    2    1    2    0  503 -0.88561830757E+01  0.82851884982E+02  0.61294042815E+02  0.20676908335E+03  0.17903526837E+03 0.  0.
        -24    2    5    5    0    0 -0.25105480045E+02  0.54231333765E+02 -0.34791668177E+02  0.10509445790E+03  0.79139511096E+02 0.  0.
          4    1    4    4  501    0  0.78575710300E+02 -0.16438215494E+02 -0.19963566973E+03  0.21517146141E+03  0.00000000000E+00 0. -1.
         -3    1    4    4    0  501 -0.17047153177E+02  0.37992532641E+01 -0.19043034338E+02  0.25839444917E+02  0.00000000000E+00 0.  1.
          5    1    3    3  502    0 -0.52672374047E+02 -0.70212922753E+02 -0.10298754036E+03  0.13539851173E+03  0.47000000000E+01 0. -1.
         11    1    6    6    0    0 -0.98119997454E+01 -0.11020308809E+02 -0.35098372410E+02  0.38073853115E+02  0.00000000000E+00 0. -1.
        -12    1    6    6    0    0 -0.15293480300E+02  0.65251642574E+02  0.30670423224E+00  0.67020604785E+02  0.00000000000E+00 0.  1.
         -5    1    5    5    0  503  0.16249296969E+02  0.28620551218E+02  0.96085710992E+02  0.10167462545E+03  0.47000000000E+01 0.  1.
<mgrwt>
<rscale>  2 0.19697615E+03</rscale>
<asrwt>0</asrwt>
<pdfrwt beam="1">  1       21 0.24831254E-01 0.19747530E+03</pdfrwt>
<pdfrwt beam="2">  1       21 0.64888516E-01 0.19747530E+03</pdfrwt>
<totfact> 0.33479717E+04</totfact>
</mgrwt>
</event>
<event>
12    1  0.1441827E-001  0.1891288E+03  0.7546771E-02  0.1159581E+00
         21   -1    0    0  504  503  0.00000000000E+00  0.00000000000E+00  0.12612881162E+04  0.12612881162E+04  0.00000000000E+00 0.  1.
         21   -1    0    0  502  504 -0.00000000000E+00 -0.00000000000E+00 -0.28899302387E+02  0.28899302387E+02  0.00000000000E+00 0.  1.
          6    2    1    2  502    0  0.72252092385E+02  0.13805865032E+02  0.71833071508E+03  0.74244166114E+03  0.17265467615E+03 0.  0.
         24    2    3    3    0    0  0.83117984325E+02  0.29457631406E+02  0.28790070819E+03  0.31156450204E+03  0.80057915211E+02 0.  0.
         -6    2    1    2    0  503 -0.72252092385E+02 -0.13805865032E+02  0.51405809868E+03  0.54774575740E+03  0.17423753662E+03 0.  0.
        -24    2    5    5    0    0 -0.19718251010E+02  0.53834897121E+02  0.33980005031E+03  0.35352157091E+03  0.78907676060E+02 0.  0.
          4    1    4    4  501    0  0.46253649641E+02  0.55099606488E+02  0.20540778627E+03  0.21764127688E+03  0.00000000000E+00 0. -1.
         -3    1    4    4    0  501  0.36864334684E+02 -0.25641975083E+02  0.82492921916E+02  0.93923225158E+02  0.00000000000E+00 0.  1.
          5    1    3    3  502    0 -0.10865891940E+02 -0.15651766374E+02  0.43043000689E+03  0.43087715910E+03  0.47000000000E+01 0. -1.
         11    1    6    6    0    0 -0.11796181851E+02 -0.20027959409E+02  0.79237885373E+02  0.82576700968E+02  0.00000000000E+00 0. -1.
        -12    1    6    6    0    0 -0.79220691584E+01  0.73862856529E+02  0.26056216493E+03  0.27094486994E+03  0.00000000000E+00 0.  1.
         -5    1    5    5    0  503 -0.52533841376E+02 -0.67640762153E+02  0.17425804838E+03  0.19422418649E+03  0.47000000000E+01 0.  1.
<mgrwt>
<rscale>  2 0.18876339E+03</rscale>
<asrwt>0</asrwt>
<pdfrwt beam="1">  1       21 0.19404428E+00 0.18912875E+03</pdfrwt>
<pdfrwt beam="2">  1       21 0.44460475E-02 0.18912875E+03</pdfrwt>
<totfact> 0.48244816E+04</totfact>
</mgrwt>
</event>
<event>
12    1  0.1441827E-001  0.1744623E+03  0.7546771E-02  0.1173794E+00
         21   -1    0    0  504  503  0.00000000000E+00  0.00000000000E+00  0.59982232478E+03  0.59982232478E+03  0.00000000000E+00 0. -1.
         21   -1    0    0  502  504 -0.00000000000E+00 -0.00000000000E+00 -0.55639586470E+02  0.55639586470E+02  0.00000000000E+00 0. -1.
          6    2    1    2  502    0 -0.27512247900E+02  0.77714764809E+01  0.16767298246E+03  0.24049601927E+03  0.17001995944E+03 0.  0.
         24    2    3    3    0    0 -0.72631376146E+01  0.12744012362E+02  0.11043144374E+02  0.82414556861E+02  0.80343295463E+02 0.  0.
         -6    2    1    2    0  503  0.27512247900E+02 -0.77714764809E+01  0.37650975585E+03  0.41496589197E+03  0.17210396747E+03 0.  0.
        -24    2    5    5    0    0 -0.22518037658E+02  0.40780212129E+02  0.28158463631E+03  0.29709662431E+03  0.82500963925E+02 0.  0.
          2    1    4    4  501    0 -0.18720393973E+02  0.15169459309E+02 -0.30719077386E+02  0.39041354506E+02  0.00000000000E+00 0. -1.
         -1    1    4    4    0  501  0.11457256358E+02 -0.24254469465E+01  0.41762221760E+02  0.43373202355E+02  0.00000000000E+00 0.  1.
          5    1    3    3  502    0 -0.20249110285E+02 -0.49725358815E+01  0.15662983808E+03  0.15808146241E+03  0.47000000000E+01 0. -1.
         13    1    6    6    0    0 -0.27691397198E+02  0.43681464722E+01  0.23979524836E+03  0.24142836477E+03  0.00000000000E+00 0. -1.
        -14    1    6    6    0    0  0.51733595399E+01  0.36412065657E+02  0.41789387957E+02  0.55668259540E+02  0.00000000000E+00 0.  1.
         -5    1    5    5    0  503  0.50030285559E+02 -0.48551688610E+02  0.94925119538E+02  0.11786926766E+03  0.47000000000E+01 0.  1.
<mgrwt>
<rscale>  2 0.17394614E+03</rscale>
<asrwt>0</asrwt>
<pdfrwt beam="1">  1       21 0.92280353E-01 0.17446230E+03</pdfrwt>
<pdfrwt beam="2">  1       21 0.85599368E-02 0.17446230E+03</pdfrwt>
<totfact> 0.10649151E+05</totfact>
</mgrwt>
</event>
<event>
12    1  0.1441827E-001  0.3108178E+03  0.7546771E-02  0.1079961E+00
         21   -1    0    0  504  503  0.00000000000E+00  0.00000000000E+00  0.31942238111E+03  0.31942238111E+03  0.00000000000E+00 0.  1.
         21   -1    0    0  502  504 -0.00000000000E+00 -0.00000000000E+00 -0.30548181347E+03  0.30548181347E+03  0.00000000000E+00 0.  1.
          6    2    1    2  502    0  0.14642303219E+03  0.21362245146E+03 -0.24471367453E+02  0.31177968157E+03  0.17185303573E+03 0.  0.
         24    2    3    3    0    0  0.16433579255E+03  0.18157019665E+03 -0.55753321981E+02  0.26331459412E+03  0.79070560517E+02 0.  0.
         -6    2    1    2    0  503 -0.14642303219E+03 -0.21362245146E+03  0.38411935091E+02  0.31312451301E+03  0.17174756990E+03 0.  0.
        -24    2    5    5    0    0 -0.48661152026E+02 -0.95753992173E+02  0.79338140489E+02  0.15454518524E+03  0.77800636317E+02 0.  0.
          2    1    4    4  501    0  0.24864014950E+02  0.61621897176E+02  0.11525389979E+02  0.67441174850E+02  0.00000000000E+00 0. -1.
         -1    1    4    4    0  501  0.13947177760E+03  0.11994829947E+03 -0.67278711959E+02  0.19587341927E+03  0.00000000000E+00 0.  1.
          5    1    3    3  502    0 -0.17912760359E+02  0.32052254810E+02  0.31281954528E+02  0.48465087446E+02  0.47000000000E+01 0. -1.
         11    1    6    6    0    0  0.14414205329E+02 -0.32177452955E+02  0.54833983248E+00  0.35262706511E+02  0.00000000000E+00 0. -1.
        -12    1    6    6    0    0 -0.63075357355E+02 -0.63576539218E+02  0.78789800657E+02  0.11928247873E+03  0.00000000000E+00 0.  1.
         -5    1    5    5    0  503 -0.97761880169E+02 -0.11786845929E+03 -0.40926205399E+02  0.15857932777E+03  0.47000000000E+01 0.  1.
<mgrwt>
<rscale>  2 0.31080325E+03</rscale>
<asrwt>0</asrwt>
<pdfrwt beam="1">  1       21 0.49141905E-01 0.31081783E+03</pdfrwt>
<pdfrwt beam="2">  1       21 0.46997202E-01 0.31081783E+03</pdfrwt>
<totfact> 0.16128322E+04</totfact>
</mgrwt>
</event>
<event>
12    1  0.1441827E-001  0.2314652E+03  0.7546771E-02  0.1125763E+00
         21   -1    0    0  504  503  0.00000000000E+00  0.00000000000E+00  0.78660150730E+03  0.78660150730E+03  0.00000000000E+00 0.  1.
         21   -1    0    0  502  504 -0.00000000000E+00 -0.00000000000E+00 -0.35596561491E+03  0.35596561491E+03  0.00000000000E+00 0. -1.
          6    2    1    2  502    0 -0.10888980638E+03 -0.10875384675E+03 -0.29871338553E+03  0.37737007866E+03  0.17173846528E+03 0.  0.
         24    2    3    3    0    0 -0.26908857544E+02 -0.98487746761E+02 -0.24898073975E+03  0.28082115408E+03  0.80281934050E+02 0.  0.
         -6    2    1    2    0  503  0.10888980638E+03  0.10875384675E+03  0.72934927793E+03  0.76519704355E+03  0.17289232814E+03 0.  0.
        -24    2    5    5    0    0  0.42751411600E+02 -0.70881280871E+01  0.21616562513E+03  0.23493936855E+03  0.81185002637E+02 0.  0.
          2    1    4    4  501    0 -0.13879227286E+02 -0.51092197158E+02 -0.21409912736E+03  0.22054813964E+03  0.00000000000E+00 0. -1.
         -1    1    4    4    0  501 -0.13029630258E+02 -0.47395549603E+02 -0.34881612385E+02  0.60273014437E+02  0.00000000000E+00 0.  1.
          5    1    3    3  502    0 -0.81980948840E+02 -0.10266099992E+02 -0.49732645781E+02  0.96548924583E+02  0.47000000000E+01 0. -1.
         11    1    6    6    0    0 -0.19699073100E+02 -0.15461528207E+02  0.34307155542E+02  0.42474618973E+02  0.00000000000E+00 0. -1.
        -12    1    6    6    0    0  0.62450484700E+02  0.83734001198E+01  0.18185846959E+03  0.19246474958E+03  0.00000000000E+00 0.  1.
         -5    1    5    5    0  503  0.66138394784E+02  0.11584197484E+03  0.51318365279E+03  0.53025767500E+03  0.47000000000E+01 0.  1.
<mgrwt>
<rscale>  2 0.23124977E+03</rscale>
<asrwt>0</asrwt>
<pdfrwt beam="1">  1       21 0.12101562E+00 0.23146522E+03</pdfrwt>
<pdfrwt beam="2">  1       21 0.54763941E-01 0.23146522E+03</pdfrwt>
<totfact> 0.15722475E+03</totfact>
</mgrwt>
</event>
<event>
12    1  0.1441827E-001  0.1912538E+03  0.7546771E-02  0.1158987E+00
         21   -1    0    0  504  503  0.00000000000E+00  0.00000000000E+00  0.40619087227E+02  0.40619087227E+02  0.00000000000E+00 0.  1.
         21   -1    0    0  502  504 -0.00000000000E+00 -0.00000000000E+00 -0.87033652672E+03  0.87033652672E+03  0.00000000000E+00 0. -1.
          6    2    1    2  502    0  0.28247785160E+02  0.78991444846E+02 -0.45203054792E+03  0.49082546172E+03  0.17187330187E+03 0.  0.
         24    2    3    3    0    0  0.19489938209E+02  0.29390684266E+02 -0.90362295998E+02  0.12563653831E+03  0.79846886024E+02 0.  0.
         -6    2    1    2    0  503 -0.28247785160E+02 -0.78991444846E+02 -0.37768689157E+03  0.42013015223E+03  0.16378147337E+03 0.  0.
        -24    2    5    5    0    0  0.34171952991E+02 -0.14731837214E+02 -0.12819516906E+03  0.15500050378E+03  0.78780742585E+02 0.  0.
          4    1    4    4  501    0  0.47009616301E+02  0.27459390653E+02 -0.37811001910E+02  0.66284191368E+02  0.00000000000E+00 0. -1.
         -3    1    4    4    0  501 -0.27519678093E+02  0.19312936134E+01 -0.52551294088E+02  0.59352346943E+02  0.00000000000E+00 0.  1.
          5    1    3    3  502    0  0.87578469514E+01  0.49600760581E+02 -0.36166825192E+03  0.36518892341E+03  0.47000000000E+01 0. -1.
         13    1    6    6    0    0  0.44784695412E+02 -0.28728699474E+02 -0.12664364885E+03  0.13736673873E+03  0.00000000000E+00 0. -1.
        -14    1    6    6    0    0 -0.10612742422E+02  0.13996862259E+02 -0.15515202160E+01  0.17633765049E+02  0.00000000000E+00 0.  1.
         -5    1    5    5    0  503 -0.62419738151E+02 -0.64259607632E+02 -0.24949172251E+03  0.26512964845E+03  0.47000000000E+01 0.  1.
<mgrwt>
<rscale>  2 0.18941814E+03</rscale>
<asrwt>0</asrwt>
<pdfrwt beam="1">  1       21 0.62490907E-02 0.19125380E+03</pdfrwt>
<pdfrwt beam="2">  1       21 0.13389792E+00 0.19125380E+03</pdfrwt>
<totfact> 0.73816455E+04</totfact>
</mgrwt>
</event>
<event>
12    1  0.1441827E-001  0.1844831E+03  0.7546771E-02  0.1163782E+00
         21   -1    0    0  504  503  0.00000000000E+00  0.00000000000E+00  0.27709538386E+03  0.27709538386E+03  0.00000000000E+00 0.  1.
         21   -1    0    0  502  504 -0.00000000000E+00 -0.00000000000E+00 -0.46492309697E+03  0.46492309697E+03  0.00000000000E+00 0.  1.
          6    2    1    2  502    0  0.44526557515E+02 -0.44943231372E+02 -0.41256306470E+03  0.45193173730E+03  0.17329600242E+03 0.  0.
         24    2    3    3    0    0 -0.27591624689E+01  0.46160910598E+02 -0.21778646431E+03  0.23171384962E+03  0.64202191712E+02 0.  0.
         -6    2    1    2    0  503 -0.44526557515E+02  0.44943231372E+02  0.22473535158E+03  0.29008674353E+03  0.17216803463E+03 0.  0.
        -24    2    5    5    0    0  0.14246735180E+02  0.35372069634E+02  0.39832156872E+02  0.95774653101E+02  0.78307283711E+02 0.  0.
          4    1    4    4  501    0  0.71617344802E+01  0.55242323921E+02 -0.11212619201E+03  0.12520098932E+03  0.00000000000E+00 0. -1.
         -3    1    4    4    0  501 -0.99208969490E+01 -0.90814133233E+01 -0.10566027231E+03  0.10651286030E+03  0.00000000000E+00 0.  1.
          5    1    3    3  502    0  0.47285719984E+02 -0.91104141969E+02 -0.19477660038E+03  0.22021788768E+03  0.47000000000E+01 0. -1.
         13    1    6    6    0    0 -0.81121884815E+01  0.56049317789E+02  0.26626633818E+02  0.62580438278E+02  0.00000000000E+00 0. -1.
        -14    1    6    6    0    0  0.22358923662E+02 -0.20677248156E+02  0.13205523054E+02  0.33194214823E+02  0.00000000000E+00 0.  1.
         -5    1    5    5    0  503 -0.58773292695E+02  0.95711617379E+01  0.18490319471E+03  0.19431209043E+03  0.47000000000E+01 0.  1.
<mgrwt>
<rscale>  2 0.18421773E+03</rscale>
<asrwt>0</asrwt>
<pdfrwt beam="1">  1       21 0.42630060E-01 0.18448310E+03</pdfrwt>
<pdfrwt beam="2">  1       21 0.71526629E-01 0.18448310E+03</pdfrwt>
<totfact> 0.94050684E+03</totfact>
</mgrwt>
</event>
<event>
12    1  0.1441827E-001  0.2175995E+03  0.7546771E-02  0.1135781E+00
         21   -1    0    0  504  503  0.00000000000E+00  0.00000000000E+00  0.72030878664E+02  0.72030878664E+02  0.00000000000E+00 0.  1.
         21   -1    0    0  502  504 -0.00000000000E+00 -0.00000000000E+00 -0.96694420121E+03  0.96694420121E+03  0.00000000000E+00 0.  1.
          6    2    1    2  502    0 -0.21950672809E+02  0.12994561798E+03 -0.74247521656E+03  0.77370470733E+03  0.17315262424E+03 0.  0.
         24    2    3    3    0    0  0.34979329146E+02  0.53341992251E+02 -0.54147944011E+03  0.55115014605E+03  0.80607554413E+02 0.  0.
         -6    2    1    2    0  503  0.21950672809E+02 -0.12994561798E+03 -0.15243810599E+03  0.26527037254E+03  0.17252042986E+03 0.  0.
        -24    2    5    5    0    0 -0.23813940622E+02 -0.14922154935E+02 -0.97919873250E+02  0.12992221188E+03  0.80633151285E+02 0.  0.
          4    1    4    4  501    0  0.50755833230E+02  0.46693024487E+01 -0.30134973074E+03  0.30562986962E+03  0.00000000000E+00 0. -1.
         -3    1    4    4    0  501 -0.15776504084E+02  0.48672689803E+02 -0.24012970937E+03  0.24552027643E+03  0.00000000000E+00 0.  1.
          5    1    3    3  502    0 -0.56930001954E+02  0.76603625731E+02 -0.20099577645E+03  0.22255456128E+03  0.47000000000E+01 0. -1.
         11    1    6    6    0    0 -0.51766836638E+02  0.32740802079E+01 -0.63510979439E+02  0.82001033445E+02  0.00000000000E+00 0. -1.
        -12    1    6    6    0    0  0.27952896017E+02 -0.18196235143E+02 -0.34408893812E+02  0.47921178433E+02  0.00000000000E+00 0.  1.
         -5    1    5    5    0  503  0.45764613430E+02 -0.11502346305E+03 -0.54518232743E+02  0.13534816066E+03  0.47000000000E+01 0.  1.
<mgrwt>
<rscale>  2 0.21747367E+03</rscale>
<asrwt>0</asrwt>
<pdfrwt beam="1">  1       21 0.11081674E-01 0.21759946E+03</pdfrwt>
<pdfrwt beam="2">  1       21 0.14876064E+00 0.21759946E+03</pdfrwt>
<totfact> 0.20329114E+04</totfact>
</mgrwt>
</event>
<event>
12    1  0.1441827E-001  0.1789760E+03  0.7546771E-02  0.1169139E+00
         21   -1    0    0  504  503  0.00000000000E+00  0.00000000000E+00  0.19460460386E+03  0.19460460386E+03  0.00000000000E+00 0. -1.
         21   -1    0    0  502  504 -0.00000000000E+00 -0.00000000000E+00 -0.42218453121E+03  0.42218453121E+03  0.00000000000E+00 0. -1.
          6    2    1    2  502    0  0.34427976108E+02  0.25015973123E+02 -0.35544527546E+03  0.39796199729E+03  0.17384281115E+03 0.  0.
         24    2    3    3    0    0  0.76015566625E+01 -0.14633866242E+02 -0.33597928554E+03  0.34606998147E+03  0.81304477504E+02 0.  0.
         -6    2    1    2    0  503 -0.34427976108E+02 -0.25015973123E+02  0.12786534811E+03  0.21882713778E+03  0.17240848161E+03 0.  0.
        -24    2    5    5    0    0 -0.50285827817E+01 -0.79082287070E+02  0.65914413748E+02  0.13137715836E+03  0.81461359101E+02 0.  0.
          4    1    4    4  501    0 -0.12408984651E+02  0.30758368985E+02 -0.12343635529E+03  0.12781468605E+03  0.00000000000E+00 0. -1.
         -3    1    4    4    0  501  0.20010541314E+02 -0.45392235227E+02 -0.21254293025E+03  0.21825529542E+03  0.00000000000E+00 0.  1.
          5    1    3    3  502    0  0.26826419446E+02  0.39649839364E+02 -0.19465989924E+02  0.51892015817E+02  0.47000000000E+01 0. -1.
         11    1    6    6    0    0 -0.16243786718E+02 -0.31431704333E+02  0.73753431105E+02  0.81800863345E+02  0.00000000000E+00 0. -1.
        -12    1    6    6    0    0  0.11215203937E+02 -0.47650582736E+02 -0.78390173575E+01  0.49576295017E+02  0.00000000000E+00 0.  1.
         -5    1    5    5    0  503 -0.29399393326E+02  0.54066313947E+02  0.61950934362E+02  0.87449979417E+02  0.47000000000E+01 0.  1.
<mgrwt>
<rscale>  2 0.17862676E+03</rscale>
<asrwt>0</asrwt>
<pdfrwt beam="1">  1       21 0.29939170E-01 0.17897600E+03</pdfrwt>
<pdfrwt beam="2">  1       21 0.64951465E-01 0.17897600E+03</pdfrwt>
<totfact> 0.23540578E+04</totfact>
</mgrwt>
</event>
<event>
12    1  0.1441827E-001  0.2304298E+03  0.7546771E-02  0.1126554E+00
         21   -1    0    0  504  503  0.00000000000E+00  0.00000000000E+00  0.24984222666E+04  0.24984222666E+04  0.00000000000E+00 0. -1.
         21   -1    0    0  502  504 -0.00000000000E+00 -0.00000000000E+00 -0.21506294673E+02  0.21506294673E+02  0.00000000000E+00 0. -1.
          6    2    1    2  502    0 -0.91201598023E+02  0.11854858540E+03  0.13997886229E+04  0.14184290254E+04  0.17366983788E+03 0.  0.
         24    2    3    3    0    0 -0.79286547811E+02  0.83452195017E+02  0.54331024273E+03  0.56113617531E+03  0.80231925509E+02 0.  0.
         -6    2    1    2    0  503  0.91201598023E+02 -0.11854858540E+03  0.10771273490E+04  0.11014995359E+04  0.17528948348E+03 0.  0.
        -24    2    5    5    0    0  0.12070898431E+03 -0.66805847829E+02  0.91339712478E+03  0.92720761680E+03  0.79912307537E+02 0.  0.
          2    1    4    4  501    0 -0.89164901290E+02  0.51743144115E+02  0.46082939740E+03  0.47221972226E+03  0.00000000000E+00 0. -1.
         -1    1    4    4    0  501  0.98783534787E+01  0.31709050902E+02  0.82480845328E+02  0.88916453048E+02  0.00000000000E+00 0.  1.
          5    1    3    3  502    0 -0.11915050211E+02  0.35096390386E+02  0.85647838018E+03  0.85729285005E+03  0.47000000000E+01 0. -1.
         13    1    6    6    0    0  0.88021061669E+02 -0.84709344748E+02  0.69695343353E+03  0.70757859556E+03  0.00000000000E+00 0. -1.
        -14    1    6    6    0    0  0.32687922638E+02  0.17903496919E+02  0.21644369125E+03  0.21962902124E+03  0.00000000000E+00 0.  1.
         -5    1    5    5    0  503 -0.29507386285E+02 -0.51742737574E+02  0.16373022421E+03  0.17429191908E+03  0.47000000000E+01 0.  1.
<mgrwt>
<rscale>  2 0.23012179E+03</rscale>
<asrwt>0</asrwt>
<pdfrwt beam="1">  1       21 0.38437243E+00 0.23042982E+03</pdfrwt>
<pdfrwt beam="2">  1       21 0.33086627E-02 0.23042982E+03</pdfrwt>
<totfact> 0.55854530E+03</totfact>
</mgrwt>
</event>
<event>
12    1  0.1441827E-001  0.1810528E+03  0.7546771E-02  0.1167950E+00
         21   -1    0    0  504  503  0.00000000000E+00  0.00000000000E+00  0.15074991887E+03  0.15074991887E+03  0.00000000000E+00 0.  1.
         21   -1    0    0  502  504 -0.00000000000E+00 -0.00000000000E+00 -0.25977400182E+03  0.25977400182E+03  0.00000000000E+00 0. -1.
          6    2    1    2  502    0  0.48146728610E+02 -0.12364155825E+01 -0.14334975444E+03  0.23093127043E+03  0.17452926221E+03 0.  0.
         24    2    3    3    0    0  0.35887555552E+02 -0.54873338961E+02 -0.35411723965E+02  0.10968806322E+03  0.80489011956E+02 0.  0.
         -6    2    1    2    0  503 -0.48146728610E+02  0.12364155825E+01  0.34325671477E+02  0.17959265026E+03  0.16957485694E+03 0.  0.
        -24    2    5    5    0    0 -0.61860746717E+01  0.45275657249E+02 -0.24207107213E+02  0.95044868111E+02  0.79745785190E+02 0.  0.
          4    1    4    4  501    0  0.51410852725E+02 -0.33362027626E+02 -0.50284573455E+02  0.79275715025E+02  0.00000000000E+00 0. -1.
         -3    1    4    4    0  501 -0.15523297174E+02 -0.21511311336E+02  0.14872849489E+02  0.30412348191E+02  0.00000000000E+00 0.  1.
          5    1    3    3  502    0  0.12259173058E+02  0.53636923379E+02 -0.10793803047E+03  0.12124320721E+03  0.47000000000E+01 0. -1.
         11    1    6    6    0    0  0.25712659524E+02  0.49041144515E+02 -0.29100435497E+02  0.62554057113E+02  0.00000000000E+00 0. -1.
        -12    1    6    6    0    0 -0.31898734196E+02 -0.37654872660E+01  0.48933282844E+01  0.32490810999E+02  0.00000000000E+00 0.  1.
         -5    1    5    5    0  503 -0.41960653938E+02 -0.44039241666E+02  0.58532778690E+02  0.84547782151E+02  0.47000000000E+01 0.  1.
<mgrwt>
<rscale>  2 0.17984804E+03</rscale>
<asrwt>0</asrwt>
<pdfrwt beam="1">  1       21 0.23192295E-01 0.18105275E+03</pdfrwt>
<pdfrwt beam="2">  1       21 0.39965231E-01 0.18105275E+03</pdfrwt>
<totfact> 0.10587165E+05</totfact>
</mgrwt>
</event>
<event>
12    1  0.1441827E-001  0.1918445E+03  0.7546771E-02  0.1157196E+00
         21   -1    0    0  504  503  0.00000000000E+00  0.00000000000E+00  0.27901330082E+04  0.27901330082E+04  0.00000000000E+00 0.  1.
         21   -1    0    0  502  504 -0.00000000000E+00 -0.00000000000E+00 -0.18961899600E+02  0.18961899600E+02  0.00000000000E+00 0.  1.
          6    2    1    2  502    0 -0.14493407721E+02  0.77671547278E+02  0.59846271126E+03  0.62793326749E+03  0.17291513390E+03 0.  0.
         24    2    3    3    0    0  0.14908099861E+02  0.11471583444E+03  0.32046886680E+03  0.34590597198E+03  0.59738369133E+02 0.  0.
         -6    2    1    2    0  503  0.14493407721E+02 -0.77671547278E+02  0.21727083973E+04  0.21811616403E+04  0.17481817169E+03 0.  0.
        -24    2    5    5    0    0  0.58822232930E+02 -0.79066220826E+02  0.19208073981E+04  0.19253429676E+04  0.87937251191E+02 0.  0.
          4    1    4    4  501    0  0.36277032729E+02  0.72058089011E+02  0.22803754340E+03  0.24188739631E+03  0.00000000000E+00 0. -1.
         -3    1    4    4    0  501 -0.21368932868E+02  0.42657745430E+02  0.92431323407E+02  0.10401857567E+03  0.00000000000E+00 0.  1.
          5    1    3    3  502    0 -0.29401507582E+02 -0.37044287163E+02  0.27799384446E+03  0.28202729552E+03  0.47000000000E+01 0. -1.
         11    1    6    6    0    0 -0.59257739063E+01 -0.10517588681E+02  0.32287636944E+02  0.34470653715E+02  0.00000000000E+00 0. -1.
        -12    1    6    6    0    0  0.64748006836E+02 -0.68548632145E+02  0.18885197611E+04  0.18908723139E+04  0.00000000000E+00 0.  1.
         -5    1    5    5    0  503 -0.44328825209E+02  0.13946735475E+01  0.25190099922E+03  0.25581867264E+03  0.47000000000E+01 0.  1.
<mgrwt>
<rscale>  2 0.19140992E+03</rscale>
<asrwt>0</asrwt>
<pdfrwt beam="1">  1       21 0.42925091E+00 0.19184452E+03</pdfrwt>
<pdfrwt beam="2">  1       21 0.29172175E-02 0.19184452E+03</pdfrwt>
<totfact> 0.37726552E+03</totfact>
</mgrwt>
</event>
<event>
12    1  0.1441827E-001  0.2814495E+03  0.7546771E-02  0.1095197E+00
         21   -1    0    0  504  503  0.00000000000E+00  0.00000000000E+00  0.11752705173E+04  0.11752705173E+04  0.00000000000E+00 0.  1.
         21   -1    0    0  502  504 -0.00000000000E+00 -0.00000000000E+00 -0.72250866195E+02  0.72250866195E+02  0.00000000000E+00 0. -1.
          6    2    1    2  502    0  0.10706497916E+03 -0.19226700471E+03  0.38342426460E+03  0.47563432469E+03  0.17545464737E+03 0.  0.
         24    2    3    3    0    0  0.12940465609E+03 -0.15611469750E+03  0.37216090058E+03  0.43141889921E+03  0.80629813841E+02 0.  0.
         -6    2    1    2    0  503 -0.10706497916E+03  0.19226700471E+03  0.71959538655E+03  0.77188705884E+03  0.17193778061E+03 0.  0.
        -24    2    5    5    0    0 -0.90957395441E+02  0.68236858644E+02  0.25431568916E+03  0.29006736415E+03  0.80827528298E+02 0.  0.
          4    1    4    4  501    0  0.10317684187E+03 -0.15430624445E+03  0.28285368232E+03  0.33832245473E+03  0.00000000000E+00 0. -1.
         -3    1    4    4    0  501  0.26227814222E+02 -0.18084530568E+01  0.89307218254E+02  0.93096444473E+02  0.00000000000E+00 0.  1.
          5    1    3    3  502    0 -0.22339676930E+02 -0.36152307210E+02  0.11263364019E+02  0.44215425487E+02  0.47000000000E+01 0. -1.
         13    1    6    6    0    0 -0.38435825182E+02  0.45649583000E+02  0.49845719778E+02  0.77754696744E+02  0.00000000000E+00 0. -1.
        -14    1    6    6    0    0 -0.52521570259E+02  0.22587275644E+02  0.20446996938E+03  0.21231266741E+03  0.00000000000E+00 0.  1.
         -5    1    5    5    0  503 -0.16107583717E+02  0.12403014607E+03  0.46527969739E+03  0.48181969469E+03  0.47000000000E+01 0.  1.
<mgrwt>
<rscale>  2 0.28090324E+03</rscale>
<asrwt>0</asrwt>
<pdfrwt beam="1">  1       21 0.18081083E+00 0.28144954E+03</pdfrwt>
<pdfrwt beam="2">  1       21 0.11115519E-01 0.28144954E+03</pdfrwt>
<totfact> 0.11390076E+04</totfact>
</mgrwt>
</event>
<event>
12    1  0.1441827E-001  0.2801393E+03  0.7546771E-02  0.1095622E+00
         21   -1    0    0  504  503  0.00000000000E+00  0.00000000000E+00  0.92912373637E+03  0.92912373637E+03  0.00000000000E+00 0.  1.
         21   -1    0    0  502  504 -0.00000000000E+00 -0.00000000000E+00 -0.85767293118E+02  0.85767293118E+02  0.00000000000E+00 0. -1.
          6    2    1    2  502    0  0.15057317025E+03  0.16048000736E+03  0.35870475508E+03  0.45513418958E+03  0.17335488702E+03 0.  0.
         24    2    3    3    0    0  0.15478905320E+03  0.14858856553E+03  0.37158676966E+03  0.43650044715E+03  0.80110549722E+02 0.  0.
         -6    2    1    2    0  503 -0.15057317025E+03 -0.16048000736E+03  0.48465168817E+03  0.55975683990E+03  0.17324649667E+03 0.  0.
        -24    2    5    5    0    0 -0.93089392407E+02 -0.18543783695E+02  0.18026300106E+03  0.21898589169E+03  0.80315405223E+02 0.  0.
          2    1    4    4  501    0  0.15947268772E+03  0.15337746402E+03  0.35164847597E+03  0.41546700862E+03  0.00000000000E+00 0. -1.
         -1    1    4    4    0  501 -0.46836345234E+01 -0.47888984885E+01  0.19938293689E+02  0.21033438528E+02  0.00000000000E+00 0.  1.
          5    1    3    3  502    0 -0.42158829512E+01  0.11891441822E+02 -0.12882014579E+02  0.18633742439E+02  0.47000000000E+01 0. -1.
         11    1    6    6    0    0 -0.64574870477E+02 -0.49982308131E+02  0.11210218127E+03  0.13869046134E+03  0.00000000000E+00 0. -1.
        -12    1    6    6    0    0 -0.28514521930E+02  0.31438524436E+02  0.68160819790E+02  0.80295430343E+02  0.00000000000E+00 0.  1.
         -5    1    5    5    0  503 -0.57483777838E+02 -0.14193622366E+03  0.30438868712E+03  0.34077094821E+03  0.47000000000E+01 0.  1.
<mgrwt>
<rscale>  2 0.28012254E+03</rscale>
<asrwt>0</asrwt>
<pdfrwt beam="1">  1       21 0.14294211E+00 0.28013930E+03</pdfrwt>
<pdfrwt beam="2">  1       21 0.13194969E-01 0.28013930E+03</pdfrwt>
<totfact> 0.15935339E+04</totfact>
</mgrwt>
</event>
<event>
12    1  0.1441827E-001  0.2438171E+03  0.7546771E-02  0.1117312E+00
         21   -1    0    0  504  503  0.00000000000E+00  0.00000000000E+00  0.43892110932E+03  0.43892110932E+03  0.00000000000E+00 0.  1.
         21   -1    0    0  502  504 -0.00000000000E+00 -0.00000000000E+00 -0.22423245865E+03  0.22423245865E+03  0.00000000000E+00 0. -1.
          6    2    1    2  502    0 -0.11998858069E+03 -0.12778368888E+03 -0.10142579737E+03  0.26407190600E+03  0.16947226478E+03 0.  0.
         24    2    3    3    0    0 -0.12836056917E+03 -0.13462542191E+03 -0.46597581564E+02  0.20799051203E+03  0.80549851282E+02 0.  0.
         -6    2    1    2    0  503  0.11998858069E+03  0.12778368888E+03  0.31611444803E+03  0.39908166197E+03  0.16915051884E+03 0.  0.
        -24    2    5    5    0    0  0.24899641373E+02  0.29078872515E+02  0.56288374321E+02  0.10528543031E+03  0.80318539486E+02 0.  0.
          4    1    4    4  501    0 -0.80614665589E+02 -0.12346656653E+03 -0.56607570616E+02  0.15794661886E+03  0.00000000000E+00 0. -1.
         -3    1    4    4    0  501 -0.47745903581E+02 -0.11158855386E+02  0.10009989052E+02  0.50043893165E+02  0.00000000000E+00 0.  1.
          5    1    3    3  502    0  0.83719884820E+01  0.68417330316E+01 -0.54828215807E+02  0.56081393979E+02  0.47000000000E+01 0. -1.
         13    1    6    6    0    0 -0.25648675217E+02  0.19559818383E+02  0.49880844914E+01  0.32639271169E+02  0.00000000000E+00 0. -1.
        -14    1    6    6    0    0  0.50548316590E+02  0.95190541320E+01  0.51300289829E+02  0.72646159143E+02  0.00000000000E+00 0.  1.
         -5    1    5    5    0  503  0.95088939315E+02  0.98704816368E+02  0.25982607371E+03  0.29379623165E+03  0.47000000000E+01 0.  1.
<mgrwt>
<rscale>  2 0.24376120E+03</rscale>
<asrwt>0</asrwt>
<pdfrwt beam="1">  1       21 0.67526324E-01 0.24381710E+03</pdfrwt>
<pdfrwt beam="2">  1       21 0.34497301E-01 0.24381710E+03</pdfrwt>
<totfact> 0.15763883E+04</totfact>
</mgrwt>
</event>
<event>
12    1  0.1441827E-001  0.2178538E+03  0.7546771E-02  0.1135834E+00
         21   -1    0    0  504  503  0.00000000000E+00  0.00000000000E+00  0.60144792897E+03  0.60144792897E+03  0.00000000000E+00 0.  1.
         21   -1    0    0  502  504 -0.00000000000E+00 -0.00000000000E+00 -0.93608216103E+02  0.93608216103E+02  0.00000000000E+00 0.  1.
          6    2    1    2  502    0 -0.12018708864E+03  0.54710337378E+02  0.11407925177E+03  0.24591530069E+03  0.17326887238E+03 0.  0.
         24    2    3    3    0    0 -0.57518435433E+02  0.82287652217E+02  0.12108232133E+03  0.17692978502E+03  0.81015999442E+02 0.  0.
         -6    2    1    2    0  503  0.12018708864E+03 -0.54710337378E+02  0.39376046111E+03  0.44914084439E+03  0.17100304112E+03 0.  0.
        -24    2    5    5    0    0  0.17771934890E+02  0.24876065889E+02  0.17313784491E+03  0.19317348694E+03  0.80028884725E+02 0.  0.
          4    1    4    4  501    0 -0.39058243118E+02  0.96650242554E+02  0.10811861160E+03  0.15018804851E+03  0.00000000000E+00 0. -1.
         -3    1    4    4    0  501 -0.18460192314E+02 -0.14362590337E+02  0.12963709734E+02  0.26741736510E+02  0.00000000000E+00 0.  1.
          5    1    3    3  502    0 -0.62668653212E+02 -0.27577314838E+02 -0.70030695671E+01  0.68985515672E+02  0.47000000000E+01 0. -1.
         13    1    6    6    0    0 -0.29007623707E+02 -0.59926119615E+01  0.60638571458E+02  0.67486220666E+02  0.00000000000E+00 0. -1.
        -14    1    6    6    0    0  0.46779558597E+02  0.30868677850E+02  0.11249927345E+03  0.12568726627E+03  0.00000000000E+00 0.  1.
         -5    1    5    5    0  503  0.10241515376E+03 -0.79586403267E+02  0.22062261619E+03  0.25596735745E+03  0.47000000000E+01 0.  1.
<mgrwt>
<rscale>  2 0.21740292E+03</rscale>
<asrwt>0</asrwt>
<pdfrwt beam="1">  1       21 0.92530448E-01 0.21785376E+03</pdfrwt>
<pdfrwt beam="2">  1       21 0.14401264E-01 0.21785376E+03</pdfrwt>
<totfact> 0.41074727E+04</totfact>
</mgrwt>
</event>
<event>
12    1  0.1441827E-001  0.2948588E+03  0.7546771E-02  0.1088588E+00
         21   -1    0    0  504  503  0.00000000000E+00  0.00000000000E+00  0.86398466851E+02  0.86398466851E+02  0.00000000000E+00 0. -1.
         21   -1    0    0  502  504 -0.00000000000E+00 -0.00000000000E+00 -0.10759954727E+04  0.10759954727E+04  0.00000000000E+00 0. -1.
          6    2    1    2  502    0 -0.18751669740E+03 -0.14328954961E+03 -0.65780780965E+03  0.71851809185E+03  0.16692131993E+03 0.  0.
         24    2    3    3    0    0 -0.41632319587E+02 -0.41621645444E+02 -0.33636151617E+03  0.35113760241E+03  0.81810359149E+02 0.  0.
         -6    2    1    2    0  503  0.18751669740E+03  0.14328954961E+03 -0.33178919625E+03  0.44387584775E+03  0.17676903190E+03 0.  0.
        -24    2    5    5    0    0  0.85463122760E+02  0.61149639407E+02 -0.26642626827E+03  0.29739615872E+03  0.80114262438E+02 0.  0.
          4    1    4    4  501    0 -0.10769666449E+02 -0.27044372393E+02 -0.29945833398E+03  0.30086986819E+03  0.00000000000E+00 0. -1.
         -3    1    4    4    0  501 -0.30862653138E+02 -0.14577273051E+02 -0.36903182193E+02  0.50267734227E+02  0.00000000000E+00 0.  1.
          5    1    3    3  502    0 -0.14588437782E+03 -0.10166790416E+03 -0.32144629348E+03  0.36738048943E+03  0.47000000000E+01 0. -1.
         13    1    6    6    0    0  0.56779609418E+02  0.76227579471E+01 -0.63248379069E+02  0.85336908423E+02  0.00000000000E+00 0. -1.
        -14    1    6    6    0    0  0.28683513342E+02  0.53526881460E+02 -0.20317788920E+03  0.21205925030E+03  0.00000000000E+00 0.  1.
         -5    1    5    5    0  503  0.10205357464E+03  0.82139910199E+02 -0.65362927982E+02  0.14647968903E+03  0.47000000000E+01 0.  1.
<mgrwt>
<rscale>  2 0.29339890E+03</rscale>
<asrwt>0</asrwt>
<pdfrwt beam="1">  1       21 0.13292072E-01 0.29485878E+03</pdfrwt>
<pdfrwt beam="2">  1       21 0.16553777E+00 0.29485878E+03</pdfrwt>
<totfact> 0.10501548E+04</totfact>
</mgrwt>
</event>
<event>
12    1  0.1441827E-001  0.1850291E+03  0.7546771E-02  0.1163247E+00
         21   -1    0    0  504  503  0.00000000000E+00  0.00000000000E+00  0.93496857785E+01  0.93496857785E+01  0.00000000000E+00 0.  1.
         21   -1    0    0  502  504 -0.00000000000E+00 -0.00000000000E+00 -0.36427363819E+04  0.36427363819E+04  0.00000000000E+00 0. -1.
          6    2    1    2  502    0  0.32143840293E+02  0.56358193996E+02 -0.18110295212E+04  0.18203597115E+04  0.17225585603E+03 0.  0.
         24    2    3    3    0    0 -0.20688295891E+02  0.24306351595E+02 -0.45035746051E+03  0.45827707742E+03  0.78595376026E+02 0.  0.
         -6    2    1    2    0  503 -0.32143840293E+02 -0.56358193996E+02 -0.18223571749E+04  0.18317263562E+04  0.17328098161E+03 0.  0.
        -24    2    5    5    0    0 -0.10579214509E+02 -0.75895727749E+02 -0.17502289682E+04  0.17538077031E+04  0.81657435590E+02 0.  0.
          2    1    4    4  501    0  0.23340190841E+02  0.16844292635E+02 -0.76043304843E+02  0.81308541460E+02  0.00000000000E+00 0. -1.
         -1    1    4    4    0  501 -0.44028486732E+02  0.74620589599E+01 -0.37431415567E+03  0.37696853596E+03  0.00000000000E+00 0.  1.
          5    1    3    3  502    0  0.52832136183E+02  0.32051842401E+02 -0.13606720607E+04  0.13620826341E+04  0.47000000000E+01 0. -1.
         13    1    6    6    0    0 -0.23627762828E+02 -0.80979817470E+02 -0.16841398155E+04  0.16862511439E+04  0.00000000000E+00 0. -1.
        -14    1    6    6    0    0  0.13048548319E+02  0.50840897205E+01 -0.66089152712E+02  0.67556559176E+02  0.00000000000E+00 0.  1.
         -5    1    5    5    0  503 -0.21564625784E+02  0.19537533753E+02 -0.72128206630E+02  0.77918653107E+02  0.47000000000E+01 0.  1.
<mgrwt>
<rscale>  2 0.18478872E+03</rscale>
<asrwt>0</asrwt>
<pdfrwt beam="1">  1       21 0.14384144E-02 0.18502911E+03</pdfrwt>
<pdfrwt beam="2">  1       21 0.56042052E+00 0.18502911E+03</pdfrwt>
<totfact> 0.14572612E+03</totfact>
</mgrwt>
</event>
<event>
12    1  0.1441827E-001  0.1867749E+03  0.7546771E-02  0.1164558E+00
         21   -1    0    0  504  503  0.00000000000E+00  0.00000000000E+00  0.94039019144E+02  0.94039019144E+02  0.00000000000E+00 0.  1.
         21   -1    0    0  502  504 -0.00000000000E+00 -0.00000000000E+00 -0.37661553296E+03  0.37661553296E+03  0.00000000000E+00 0.  1.
          6    2    1    2  502    0 -0.18894405195E+02  0.20193282181E+01 -0.78180996967E+02  0.20247748157E+03  0.18580577500E+03 0.  0.
         24    2    3    3    0    0 -0.45683783857E+00 -0.34572286719E+02  0.28575023497E+02  0.88031738626E+02  0.75746969101E+02 0.  0.
         -6    2    1    2    0  503  0.18894405195E+02 -0.20193282181E+01 -0.20439551685E+03  0.26817707053E+03  0.17256980505E+03 0.  0.
        -24    2    5    5    0    0  0.16464469347E+02 -0.52525456754E+02 -0.19290375255E+03  0.21611053373E+03  0.80385960719E+02 0.  0.
          4    1    4    4  501    0 -0.27284077830E+02 -0.31270614479E+02 -0.82890854798E+01  0.42319985480E+02  0.00000000000E+00 0. -1.
         -3    1    4    4    0  501  0.26827239991E+02 -0.33016722399E+01  0.36864108977E+02  0.45711753147E+02  0.00000000000E+00 0.  1.
          5    1    3    3  502    0 -0.18437567356E+02  0.36591614937E+02 -0.10675602046E+03  0.11444574295E+03  0.47000000000E+01 0. -1.
         11    1    6    6    0    0 -0.26403945358E+02 -0.21565721984E+02 -0.32063653237E+02  0.46800924713E+02  0.00000000000E+00 0. -1.
        -12    1    6    6    0    0  0.42868414705E+02 -0.30959734770E+02 -0.16084009932E+03  0.16930960901E+03  0.00000000000E+00 0.  1.
         -5    1    5    5    0  503  0.24299358478E+01  0.50506128536E+02 -0.11491764297E+02  0.52066536802E+02  0.47000000000E+01 0.  1.
<mgrwt>
<rscale>  2 0.18339367E+03</rscale>
<asrwt>0</asrwt>
<pdfrwt beam="1">  1       21 0.14467541E-01 0.18677490E+03</pdfrwt>
<pdfrwt beam="2">  1       21 0.57940851E-01 0.18677490E+03</pdfrwt>
<totfact> 0.11722856E+05</totfact>
</mgrwt>
</event>
<event>
12    1  0.1441827E-001  0.2865964E+03  0.7546771E-02  0.1092147E+00
         21   -1    0    0  504  503  0.00000000000E+00  0.00000000000E+00  0.15550472467E+04  0.15550472467E+04  0.00000000000E+00 0. -1.
         21   -1    0    0  502  504 -0.00000000000E+00 -0.00000000000E+00 -0.57677746743E+02  0.57677746743E+02  0.00000000000E+00 0. -1.
          6    2    1    2  502    0  0.16435177762E+03 -0.15926411270E+03  0.51436104045E+03  0.58878987617E+03  0.17242295072E+03 0.  0.
         24    2    3    3    0    0  0.16119789070E+03 -0.13383012207E+03  0.51683408699E+03  0.56261659129E+03  0.74328283831E+02 0.  0.
         -6    2    1    2    0  503 -0.16435177762E+03  0.15926411270E+03  0.98300845947E+03  0.10239351172E+04  0.17251356043E+03 0.  0.
        -24    2    5    5    0    0 -0.16313716009E+03  0.68353523338E+02  0.62529427872E+03  0.65481760796E+03  0.80667388287E+02 0.  0.
          2    1    4    4  501    0  0.14872400075E+03 -0.11580602492E+03  0.38157514633E+03  0.42559306398E+03  0.00000000000E+00 0. -1.
         -1    1    4    4    0  501  0.12473889951E+02 -0.18024097147E+02  0.13525894066E+03  0.13702352731E+03  0.00000000000E+00 0.  1.
          5    1    3    3  502    0  0.31538869254E+01 -0.25433990632E+02 -0.24730465341E+01  0.26173284879E+02  0.47000000000E+01 0. -1.
         11    1    6    6    0    0 -0.62468295655E+02 -0.11844595537E+02  0.25442221403E+03  0.26224653553E+03  0.00000000000E+00 0. -1.
        -12    1    6    6    0    0 -0.10066886444E+03  0.80198118875E+02  0.37087206469E+03  0.39257107243E+03  0.00000000000E+00 0.  1.
         -5    1    5    5    0  503 -0.12146175339E+01  0.90910589365E+02  0.35771418075E+03  0.36911750929E+03  0.47000000000E+01 0.  1.
<mgrwt>
<rscale>  2 0.28658276E+03</rscale>
<asrwt>0</asrwt>
<pdfrwt beam="1">  1       21 0.23923801E+00 0.28659639E+03</pdfrwt>
<pdfrwt beam="2">  1       21 0.88735007E-02 0.28659639E+03</pdfrwt>
<totfact> 0.71507839E+03</totfact>
</mgrwt>
</event>
<event>
12    1  0.1441827E-001  0.2155766E+03  0.7546771E-02  0.1138444E+00
         21   -1    0    0  504  503  0.00000000000E+00  0.00000000000E+00  0.51742617413E+03  0.51742617413E+03  0.00000000000E+00 0.  1.
         21   -1    0    0  502  504 -0.00000000000E+00 -0.00000000000E+00 -0.14894214930E+03  0.14894214930E+03  0.00000000000E+00 0.  1.
          6    2    1    2  502    0 -0.10773753405E+03  0.58029546248E+02 -0.28631879667E+02  0.21746969222E+03  0.17747810575E+03 0.  0.
         24    2    3    3    0    0 -0.63641657620E+02  0.97898194142E+02 -0.55490143682E+02  0.15206776756E+03  0.80069550301E+02 0.  0.
         -6    2    1    2    0  503  0.10773753405E+03 -0.58029546248E+02  0.39711590449E+03  0.44889863120E+03  0.16980616895E+03 0.  0.
        -24    2    5    5    0    0  0.47718239170E+02 -0.53663610344E+02  0.11000094118E+03  0.15550730666E+03  0.83219600705E+02 0.  0.
          4    1    4    4  501    0 -0.10868558991E+02  0.86987657899E+02 -0.35851771861E+02  0.94711814188E+02  0.00000000000E+00 0. -1.
         -3    1    4    4    0  501 -0.52773098628E+02  0.10910536244E+02 -0.19638371821E+02  0.57355953377E+02  0.00000000000E+00 0.  1.
          5    1    3    3  502    0 -0.44095876430E+02 -0.39868647894E+02  0.26858264015E+02  0.65401924658E+02  0.47000000000E+01 0. -1.
         13    1    6    6    0    0 -0.87729431217E+01  0.17074954906E+02  0.22898241318E+02  0.29880563440E+02  0.00000000000E+00 0. -1.
        -14    1    6    6    0    0  0.56491182292E+02 -0.70738565249E+02  0.87102699858E+02  0.12562674322E+03  0.00000000000E+00 0.  1.
         -5    1    5    5    0  503  0.60019294879E+02 -0.43659359045E+01  0.28711496332E+03  0.29339132454E+03  0.47000000000E+01 0.  1.
<mgrwt>
<rscale>  2 0.21399154E+03</rscale>
<asrwt>0</asrwt>
<pdfrwt beam="1">  1       21 0.79604026E-01 0.21557663E+03</pdfrwt>
<pdfrwt beam="2">  1       21 0.22914177E-01 0.21557663E+03</pdfrwt>
<totfact> 0.24537149E+04</totfact>
</mgrwt>
</event>
<event>
12    1  0.1441827E-001  0.2021291E+03  0.7546771E-02  0.1148220E+00
         21   -1    0    0  504  503  0.00000000000E+00  0.00000000000E+00  0.65102671211E+03  0.65102671211E+03  0.00000000000E+00 0.  1.
         21   -1    0    0  502  504 -0.00000000000E+00 -0.00000000000E+00 -0.12357112410E+03  0.12357112410E+03  0.00000000000E+00 0.  1.
          6    2    1    2  502    0  0.10331945732E+03 -0.23091899050E+01 -0.84310869174E+01  0.20230487073E+03  0.17371221856E+03 0.  0.
         24    2    3    3    0    0  0.10133919544E+03  0.56427638574E+02  0.94355613669E+01  0.14069932246E+03  0.79079444830E+02 0.  0.
         -6    2    1    2    0  503 -0.10331945732E+03  0.23091899050E+01  0.53588667493E+03  0.57229296548E+03  0.17223375788E+03 0.  0.
        -24    2    5    5    0    0 -0.84939378478E+02 -0.43911117492E+02  0.22633367158E+03  0.25873388652E+03  0.81076561896E+02 0.  0.
          4    1    4    4  501    0  0.14583161904E+02  0.51281042483E+00  0.31891173966E+02  0.35071050207E+02  0.00000000000E+00 0. -1.
         -3    1    4    4    0  501  0.86756033534E+02  0.55914828149E+02 -0.22455612599E+02  0.10562827225E+03  0.00000000000E+00 0.  1.
          5    1    3    3  502    0  0.19802618782E+01 -0.58736828479E+02 -0.17866648284E+02  0.61605548271E+02  0.47000000000E+01 0. -1.
         11    1    6    6    0    0  0.63108848274E+01 -0.26556642741E+02  0.87778162136E+02  0.91924361782E+02  0.00000000000E+00 0. -1.
        -12    1    6    6    0    0 -0.91250263305E+02 -0.17354474751E+02  0.13855550944E+03  0.16680952474E+03  0.00000000000E+00 0.  1.
         -5    1    5    5    0  503 -0.18380078838E+02  0.46220307397E+02  0.30955300335E+03  0.31355907896E+03  0.47000000000E+01 0.  1.
<mgrwt>
<rscale>  2 0.20181106E+03</rscale>
<asrwt>0</asrwt>
<pdfrwt beam="1">  1       21 0.10015795E+00 0.20212911E+03</pdfrwt>
<pdfrwt beam="2">  1       21 0.19010943E-01 0.20212911E+03</pdfrwt>
<totfact> 0.20629687E+04</totfact>
</mgrwt>
</event>
<event>
12    1  0.1441827E-001  0.1955759E+03  0.7546771E-02  0.1155592E+00
         21   -1    0    0  504  503  0.00000000000E+00  0.00000000000E+00  0.47495304679E+03  0.47495304679E+03  0.00000000000E+00 0.  1.
         21   -1    0    0  502  504 -0.00000000000E+00 -0.00000000000E+00 -0.17855518110E+03  0.17855518110E+03  0.00000000000E+00 0.  1.
          6    2    1    2  502    0  0.13233894525E+02 -0.66386952747E+02 -0.10002964659E+03  0.21146218131E+03  0.17357407775E+03 0.  0.
         24    2    3    3    0    0  0.24708156994E+02  0.12271810320E+02 -0.13654556814E+01  0.84672701166E+02  0.80040686548E+02 0.  0.
         -6    2    1    2    0  503 -0.13233894525E+02  0.66386952747E+02  0.39642751229E+03  0.44204604659E+03  0.18348725118E+03 0.  0.
        -24    2    5    5    0    0 -0.30446267922E+02  0.13809656684E+02  0.67200404378E+02  0.10816999707E+03  0.77892053956E+02 0.  0.
          4    1    4    4  501    0  0.12628267891E+02 -0.68123050480E+01  0.37260616303E+02  0.39927862168E+02  0.00000000000E+00 0. -1.
         -3    1    4    4    0  501  0.12079889103E+02  0.19084115368E+02 -0.38626071984E+02  0.44744838999E+02  0.00000000000E+00 0.  1.
          5    1    3    3  502    0 -0.11474262469E+02 -0.78658763067E+02 -0.98664190910E+02  0.12678948014E+03  0.47000000000E+01 0. -1.
         13    1    6    6    0    0 -0.42022872098E+01  0.42506025213E+02  0.49681862749E+02  0.65518767414E+02  0.00000000000E+00 0. -1.
        -14    1    6    6    0    0 -0.26243980712E+02 -0.28696368530E+02  0.17518541629E+02  0.42651229656E+02  0.00000000000E+00 0.  1.
         -5    1    5    5    0  503  0.17212373396E+02  0.52577296064E+02  0.32922710791E+03  0.33387604952E+03  0.47000000000E+01 0.  1.
<mgrwt>
<rscale>  2 0.19321634E+03</rscale>
<asrwt>0</asrwt>
<pdfrwt beam="1">  1       21 0.73069699E-01 0.19557591E+03</pdfrwt>
<pdfrwt beam="2">  1       21 0.27470028E-01 0.19557591E+03</pdfrwt>
<totfact> 0.21264512E+04</totfact>
</mgrwt>
</event>
<event>
12    1  0.1441827E-001  0.1881834E+03  0.7546771E-02  0.1160385E+00
         21   -1    0    0  504  503  0.00000000000E+00  0.00000000000E+00  0.71538140919E+03  0.71538140919E+03  0.00000000000E+00 0. -1.
         21   -1    0    0  502  504 -0.00000000000E+00 -0.00000000000E+00 -0.69794625511E+02  0.69794625511E+02  0.00000000000E+00 0. -1.
          6    2    1    2  502    0 -0.63927768436E+02 -0.33792587634E+02  0.10874286458E+03  0.21630489764E+03  0.17243578396E+03 0.  0.
         24    2    3    3    0    0 -0.93229890383E+02 -0.45251404429E+01  0.12069027784E+03  0.17294560222E+03  0.81435550006E+02 0.  0.
         -6    2    1    2    0  503  0.63927768436E+02  0.33792587634E+02  0.53684391910E+03  0.56887113706E+03  0.17373623270E+03 0.  0.
        -24    2    5    5    0    0 -0.26280011836E+02  0.43006847392E+02  0.27684836917E+03  0.29347665239E+03  0.83326454633E+02 0.  0.
          2    1    4    4  501    0 -0.38540486099E+02 -0.82888194588E+00 -0.19649184006E+01  0.38599443238E+02  0.00000000000E+00 0. -1.
         -1    1    4    4    0  501 -0.54689404284E+02 -0.36962584970E+01  0.12265519624E+03  0.13434615898E+03  0.00000000000E+00 0.  1.
          5    1    3    3  502    0  0.29302121947E+02 -0.29267447191E+02 -0.11947413261E+02  0.43359295420E+02  0.47000000000E+01 0. -1.
         11    1    6    6    0    0  0.28239018350E+01 -0.28701812952E+01  0.19616415972E+03  0.19620547883E+03  0.00000000000E+00 0. -1.
        -12    1    6    6    0    0 -0.29103913671E+02  0.45877028688E+02  0.80684209444E+02  0.97271173560E+02  0.00000000000E+00 0.  1.
         -5    1    5    5    0  503  0.90207780272E+02 -0.92142597587E+01  0.25999554994E+03  0.27539448468E+03  0.47000000000E+01 0.  1.
<mgrwt>
<rscale>  2 0.18788265E+03</rscale>
<asrwt>0</asrwt>
<pdfrwt beam="1">  1       21 0.11005867E+00 0.18818336E+03</pdfrwt>
<pdfrwt beam="2">  1       21 0.10737635E-01 0.18818336E+03</pdfrwt>
<totfact> 0.46768158E+04</totfact>
</mgrwt>
</event>
<event>
12    1  0.1441827E-001  0.1899919E+03  0.7546771E-02  0.1158474E+00
         21   -1    0    0  504  503  0.00000000000E+00  0.00000000000E+00  0.18387876991E+04  0.18387876991E+04  0.00000000000E+00 0. -1.
         21   -1    0    0  502  504 -0.00000000000E+00 -0.00000000000E+00 -0.23788877745E+02  0.23788877745E+02  0.00000000000E+00 0. -1.
          6    2    1    2  502    0 -0.76817693957E+02 -0.15704097753E+02  0.12969251479E+04  0.13107638746E+04  0.17303039885E+03 0.  0.
         24    2    3    3    0    0 -0.79490692735E+02 -0.26338737827E+02  0.12930944868E+04  0.12982337327E+04  0.79403864366E+02 0.  0.
         -6    2    1    2    0  503  0.76817693957E+02  0.15704097753E+02  0.51807367345E+03  0.55181270223E+03  0.17305880629E+03 0.  0.
        -24    2    5    5    0    0  0.86849242975E+02  0.64249365127E+02  0.43131107534E+03  0.45177714160E+03  0.80016061127E+02 0.  0.
          2    1    4    4  501    0 -0.87989912402E+02 -0.13789520113E+02  0.80643165721E+03  0.81133494520E+03  0.00000000000E+00 0. -1.
         -1    1    4    4    0  501  0.84992196663E+01 -0.12549217715E+02  0.48666282956E+03  0.48689878751E+03  0.00000000000E+00 0.  1.
          5    1    3    3  502    0  0.26729987784E+01  0.10634640074E+02  0.38306611642E+01  0.12530141936E+02  0.47000000000E+01 0. -1.
         13    1    6    6    0    0  0.83701748358E+02  0.49888896503E+02  0.22818156444E+03  0.24811632559E+03  0.00000000000E+00 0. -1.
        -14    1    6    6    0    0  0.31474946171E+01  0.14360468625E+02  0.20312951090E+03  0.20366081601E+03  0.00000000000E+00 0.  1.
         -5    1    5    5    0  503 -0.10031549018E+02 -0.48545267374E+02  0.86762598109E+02  0.10003556063E+03  0.47000000000E+01 0.  1.
<mgrwt>
<rscale>  2 0.18998544E+03</rscale>
<asrwt>0</asrwt>
<pdfrwt beam="1">  1       21 0.28289030E+00 0.18999191E+03</pdfrwt>
<pdfrwt beam="2">  1       21 0.36598288E-02 0.18999191E+03</pdfrwt>
<totfact> 0.19522221E+04</totfact>
</mgrwt>
</event>
<event>
12    1  0.1441827E-001  0.1758294E+03  0.7546771E-02  0.1171904E+00
         21   -1    0    0  504  503  0.00000000000E+00  0.00000000000E+00  0.19038230081E+03  0.19038230081E+03  0.00000000000E+00 0.  1.
         21   -1    0    0  502  504 -0.00000000000E+00 -0.00000000000E+00 -0.37243088630E+03  0.37243088630E+03  0.00000000000E+00 0.  1.
          6    2    1    2  502    0  0.39369504725E+01 -0.33526766184E+02 -0.30235930775E+03  0.34976241233E+03  0.17254869013E+03 0.  0.
         24    2    3    3    0    0  0.90417783100E+01 -0.46251268641E+02 -0.68086783217E+02  0.11504198718E+03  0.79861850469E+02 0.  0.
         -6    2    1    2    0  503 -0.39369504725E+01  0.33526766184E+02  0.12031072226E+03  0.21305077479E+03  0.17255845131E+03 0.  0.
        -24    2    5    5    0    0 -0.61669454490E+02  0.30886920135E+02  0.39570923882E+02  0.11364747580E+03  0.81195857573E+02 0.  0.
          4    1    4    4  501    0  0.26327032018E+02 -0.38682653446E+02 -0.25702312076E+01  0.46862206317E+02  0.00000000000E+00 0. -1.
         -3    1    4    4    0  501 -0.17285253708E+02 -0.75686151949E+01 -0.65516552009E+02  0.68179780865E+02  0.00000000000E+00 0.  1.
          5    1    3    3  502    0 -0.51048278376E+01  0.12724502457E+02 -0.23427252453E+03  0.23472042514E+03  0.47000000000E+01 0. -1.
         13    1    6    6    0    0 -0.28324621363E+02  0.55530677634E+02  0.11016713150E+02  0.63303304041E+02  0.00000000000E+00 0. -1.
        -14    1    6    6    0    0 -0.33344833127E+02 -0.24643757499E+02  0.28554210732E+02  0.50344171763E+02  0.00000000000E+00 0.  1.
         -5    1    5    5    0  503  0.57732504017E+02  0.26398460493E+01  0.80739798375E+02  0.99403298984E+02  0.47000000000E+01 0.  1.
<mgrwt>
<rscale>  2 0.17582696E+03</rscale>
<asrwt>0</asrwt>
<pdfrwt beam="1">  1       21 0.29289584E-01 0.17582936E+03</pdfrwt>
<pdfrwt beam="2">  1       21 0.57297060E-01 0.17582936E+03</pdfrwt>
<totfact> 0.32218748E+04</totfact>
</mgrwt>
</event>
<event>
12    1  0.1441827E-001  0.1833287E+03  0.7546771E-02  0.1164714E+00
         21   -1    0    0  504  503  0.00000000000E+00  0.00000000000E+00  0.13792737884E+04  0.13792737884E+04  0.00000000000E+00 0. -1.
         21   -1    0    0  502  504 -0.00000000000E+00 -0.00000000000E+00 -0.11447225539E+03  0.11447225539E+03  0.00000000000E+00 0. -1.
          6    2    1    2  502    0 -0.40655021713E+02  0.41933964044E+02 -0.30276541509E+02  0.18581199661E+03  0.17377612318E+03 0.  0.
         24    2    3    3    0    0  0.15325518696E+02 -0.32749724310E+02 -0.30931413180E+02  0.92356161758E+02  0.79154862944E+02 0.  0.
         -6    2    1    2    0  503  0.40655021713E+02 -0.41933964044E+02  0.12950780745E+04  0.13079340471E+04  0.17335790887E+03 0.  0.
        -24    2    5    5    0    0  0.18559632541E+02 -0.79936882113E+01  0.12172340737E+04  0.12200595514E+04  0.80487016151E+02 0.  0.
          2    1    4    4  501    0  0.22965356088E+02 -0.37541418435E+02 -0.52779510000E+02  0.68720028770E+02  0.00000000000E+00 0. -1.
         -1    1    4    4    0  501 -0.76398373920E+01  0.47916941248E+01  0.21848096820E+02  0.23636132988E+02  0.00000000000E+00 0.  1.
          5    1    3    3  502    0 -0.55980540410E+02  0.74683688354E+02  0.65487167103E+00  0.93455834850E+02  0.47000000000E+01 0. -1.
         11    1    6    6    0    0  0.21671252444E+02 -0.36870597254E+02  0.39420755048E+03  0.39652071444E+03  0.00000000000E+00 0. -1.
        -12    1    6    6    0    0 -0.31116199036E+01  0.28876909042E+02  0.82302652323E+03  0.82353883697E+03  0.00000000000E+00 0.  1.
         -5    1    5    5    0  503  0.22095389172E+02 -0.33940275833E+02  0.77844000771E+02  0.87874495744E+02  0.47000000000E+01 0.  1.
<mgrwt>
<rscale>  2 0.18322957E+03</rscale>
<asrwt>0</asrwt>
<pdfrwt beam="1">  1       21 0.21219596E+00 0.18332875E+03</pdfrwt>
<pdfrwt beam="2">  1       21 0.17611117E-01 0.18332875E+03</pdfrwt>
<totfact> 0.33179531E+03</totfact>
</mgrwt>
</event>
<event>
12    1  0.1441827E-001  0.2079920E+03  0.7546771E-02  0.1143589E+00
         21   -1    0    0  504  503  0.00000000000E+00  0.00000000000E+00  0.13913574114E+04  0.13913574114E+04  0.00000000000E+00 0.  1.
         21   -1    0    0  502  504 -0.00000000000E+00 -0.00000000000E+00 -0.48428688832E+02  0.48428688832E+02  0.00000000000E+00 0. -1.
          6    2    1    2  502    0  0.84472033029E+02 -0.78519387302E+02  0.23471025844E+03  0.31221844204E+03  0.17055975957E+03 0.  0.
         24    2    3    3    0    0  0.12299548510E+03 -0.40967756550E+02  0.18040058843E+03  0.23562985550E+03  0.78554503787E+02 0.  0.
         -6    2    1    2    0  503 -0.84472033029E+02  0.78519387302E+02  0.11082184641E+04  0.11275676582E+04  0.17308911297E+03 0.  0.
        -24    2    5    5    0    0 -0.32694736742E+02  0.53604503728E+02  0.29658922437E+03  0.31389342814E+03  0.81372769304E+02 0.  0.
          2    1    4    4  501    0  0.29527457477E+02 -0.17805772517E+02  0.40715452810E+01  0.34720221211E+02  0.00000000000E+00 0. -1.
         -1    1    4    4    0  501  0.93468027619E+02 -0.23161984033E+02  0.17632904315E+03  0.20090963429E+03  0.00000000000E+00 0.  1.
          5    1    3    3  502    0 -0.38523452067E+02 -0.37551630753E+02  0.54309670011E+02  0.76588586539E+02  0.47000000000E+01 0. -1.
         13    1    6    6    0    0 -0.30802681278E+02 -0.11021470411E+02  0.56869916962E+02  0.65608425063E+02  0.00000000000E+00 0. -1.
        -14    1    6    6    0    0 -0.18920554642E+01  0.64625974138E+02  0.23971930741E+03  0.24828500307E+03  0.00000000000E+00 0.  1.
         -5    1    5    5    0  503 -0.51777296287E+02  0.24914883574E+02  0.81162923975E+03  0.81367423005E+03  0.47000000000E+01 0.  1.
<mgrwt>
<rscale>  2 0.20746494E+03</rscale>
<asrwt>0</asrwt>
<pdfrwt beam="1">  1       21 0.21405496E+00 0.20799197E+03</pdfrwt>
<pdfrwt beam="2">  1       21 0.74505686E-02 0.20799197E+03</pdfrwt>
<totfact> 0.14680976E+04</totfact>
</mgrwt>
</event>
<event>
12    1  0.1441827E-001  0.2023417E+03  0.7546771E-02  0.1147955E+00
         21   -1    0    0  504  503  0.00000000000E+00  0.00000000000E+00  0.17056614594E+04  0.17056614594E+04  0.00000000000E+00 0. -1.
         21   -1    0    0  502  504 -0.00000000000E+00 -0.00000000000E+00 -0.24914712357E+02  0.24914712357E+02  0.00000000000E+00 0. -1.
          6    2    1    2  502    0  0.57714138444E+02 -0.87403413158E+02  0.66429989937E+03  0.69418514660E+03  0.17212897216E+03 0.  0.
         24    2    3    3    0    0  0.52745038124E+02 -0.46957377003E+02  0.19020796546E+03  0.21832190407E+03  0.80612340062E+02 0.  0.
         -6    2    1    2    0  503 -0.57714138444E+02  0.87403413158E+02  0.10164468477E+04  0.10363910252E+04  0.17312389917E+03 0.  0.
        -24    2    5    5    0    0  0.59080371793E+00  0.90251436109E+02  0.41289764387E+03  0.43000722843E+03  0.79221723163E+02 0.  0.
          4    1    4    4  501    0  0.79890247080E+01 -0.59941501109E+02  0.10279807563E+03  0.11926547038E+03  0.00000000000E+00 0. -1.
         -3    1    4    4    0  501  0.44756013416E+02  0.12984124106E+02  0.87409889832E+02  0.99056433694E+02  0.00000000000E+00 0.  1.
          5    1    3    3  502    0  0.49691003199E+01 -0.40446036155E+02  0.47409193391E+03  0.47586324253E+03  0.47000000000E+01 0. -1.
         11    1    6    6    0    0 -0.25112805681E+02  0.86513982557E+02  0.35967411792E+03  0.37078402513E+03  0.00000000000E+00 0. -1.
        -12    1    6    6    0    0  0.25703609399E+02  0.37374535520E+01  0.53223525948E+02  0.59223203304E+02  0.00000000000E+00 0.  1.
         -5    1    5    5    0  503 -0.58304942162E+02 -0.28480229513E+01  0.60354920382E+03  0.60638379674E+03  0.47000000000E+01 0.  1.
<mgrwt>
<rscale>  2 0.20212871E+03</rscale>
<asrwt>0</asrwt>
<pdfrwt beam="1">  1       21 0.26240936E+00 0.20234170E+03</pdfrwt>
<pdfrwt beam="2">  1       21 0.38330340E-02 0.20234170E+03</pdfrwt>
<totfact> 0.23478401E+04</totfact>
</mgrwt>
</event>
<event>
12    1  0.1441827E-001  0.2135212E+03  0.7546771E-02  0.1139721E+00
         21   -1    0    0  504  503  0.00000000000E+00  0.00000000000E+00  0.41351146262E+03  0.41351146262E+03  0.00000000000E+00 0. -1.
         21   -1    0    0  502  504 -0.00000000000E+00 -0.00000000000E+00 -0.13685193538E+03  0.13685193538E+03  0.00000000000E+00 0. -1.
          6    2    1    2  502    0  0.12303582066E+02  0.12545332837E+03  0.12884119267E+02  0.21390958941E+03  0.17234093009E+03 0.  0.
         24    2    3    3    0    0  0.32091099227E+02  0.23401839510E+01  0.17077532472E+02  0.89057409304E+02  0.81266628613E+02 0.  0.
         -6    2    1    2    0  503 -0.12303582066E+02 -0.12545332837E+03  0.26377540798E+03  0.33645380858E+03  0.16653463221E+03 0.  0.
        -24    2    5    5    0    0 -0.63866538676E+02 -0.66772090003E+02  0.20094549808E+03  0.23609488368E+03  0.82609043908E+02 0.  0.
          2    1    4    4  501    0  0.48061108629E+02 -0.22069998650E+02 -0.40479943476E+01  0.53040939484E+02  0.00000000000E+00 0. -1.
         -1    1    4    4    0  501 -0.15970009402E+02  0.24410182601E+02  0.21125526819E+02  0.36016469820E+02  0.00000000000E+00 0.  1.
          5    1    3    3  502    0 -0.19787517161E+02  0.12311314442E+03 -0.41934132050E+01  0.12485218011E+03  0.47000000000E+01 0. -1.
         11    1    6    6    0    0 -0.40538018529E+02 -0.12634758887E+01  0.13231948235E+03  0.13839571065E+03  0.00000000000E+00 0. -1.
        -12    1    6    6    0    0 -0.23328520147E+02 -0.65508614114E+02  0.68626015730E+02  0.97699173028E+02  0.00000000000E+00 0.  1.
         -5    1    5    5    0  503  0.51562956609E+02 -0.58681238364E+02  0.62829909900E+02  0.10035892491E+03  0.47000000000E+01 0.  1.
<mgrwt>
<rscale>  2 0.21234698E+03</rscale>
<asrwt>0</asrwt>
<pdfrwt beam="1">  1       21 0.63617148E-01 0.21352122E+03</pdfrwt>
<pdfrwt beam="2">  1       21 0.21054144E-01 0.21352122E+03</pdfrwt>
<totfact> 0.47393807E+04</totfact>
</mgrwt>
</event>
<event>
12    1  0.1441827E-001  0.1902199E+03  0.7546771E-02  0.1158716E+00
         21   -1    0    0  504  503  0.00000000000E+00  0.00000000000E+00  0.15849908902E+03  0.15849908902E+03  0.00000000000E+00 0. -1.
         21   -1    0    0  502  504 -0.00000000000E+00 -0.00000000000E+00 -0.25824558756E+03  0.25824558756E+03  0.00000000000E+00 0. -1.
          6    2    1    2  502    0  0.10212344441E+02  0.78154483032E+02  0.24105797302E+02  0.18975785239E+03  0.17092260788E+03 0.  0.
         24    2    3    3    0    0  0.21116540067E+02  0.11872993720E+03  0.93462828884E+01  0.14497836793E+03  0.79929143068E+02 0.  0.
         -6    2    1    2    0  503 -0.10212344441E+02 -0.78154483032E+02 -0.12385229584E+03  0.22698682419E+03  0.17312195694E+03 0.  0.
        -24    2    5    5    0    0 -0.57445035751E+02 -0.13529055148E+02 -0.32048204505E+02  0.10509566683E+03  0.80839620907E+02 0.  0.
          4    1    4    4  501    0  0.26807435277E+02  0.86112890273E+02  0.41091387413E+02  0.99108882431E+02  0.00000000000E+00 0. -1.
         -3    1    4    4    0  501 -0.56908952097E+01  0.32617046926E+02 -0.31745104524E+02  0.45869485497E+02  0.00000000000E+00 0.  1.
          5    1    3    3  502    0 -0.10904195626E+02 -0.40575454167E+02  0.14759514413E+02  0.44779484464E+02  0.47000000000E+01 0. -1.
         13    1    6    6    0    0  0.28104888150E+01  0.71571336470E+01 -0.40145861280E+02  0.40875586691E+02  0.00000000000E+00 0. -1.
        -14    1    6    6    0    0 -0.60255524566E+02 -0.20686188795E+02  0.80976567751E+01  0.64220080137E+02  0.00000000000E+00 0.  1.
         -5    1    5    5    0  503  0.47232691310E+02 -0.64625427884E+02 -0.91804091338E+02  0.12189115737E+03  0.47000000000E+01 0.  1.
<mgrwt>
<rscale>  2 0.18971810E+03</rscale>
<asrwt>0</asrwt>
<pdfrwt beam="1">  1       21 0.24384475E-01 0.19021994E+03</pdfrwt>
<pdfrwt beam="2">  1       21 0.39730090E-01 0.19021994E+03</pdfrwt>
<totfact> 0.97087977E+04</totfact>
</mgrwt>
</event>
<event>
12    1  0.1441827E-001  0.2499020E+03  0.7546771E-02  0.1113407E+00
         21   -1    0    0  504  503  0.00000000000E+00  0.00000000000E+00  0.66047539256E+03  0.66047539256E+03  0.00000000000E+00 0.  1.
         21   -1    0    0  502  504 -0.00000000000E+00 -0.00000000000E+00 -0.17855596192E+03  0.17855596192E+03  0.00000000000E+00 0. -1.
          6    2    1    2  502    0 -0.17327593103E+03 -0.47989257912E+02 -0.46883218143E+02  0.25426177307E+03  0.17356121673E+03 0.  0.
         24    2    3    3    0    0 -0.63575355698E+02 -0.41217248711E+02  0.36256050436E+02  0.11636940811E+03  0.80539744885E+02 0.  0.
         -6    2    1    2    0  503  0.17327593103E+03  0.47989257912E+02  0.52880264879E+03  0.58476958141E+03  0.17319268120E+03 0.  0.
        -24    2    5    5    0    0  0.74352005108E+02 -0.44035510083E+02  0.28349006435E+03  0.30467164295E+03  0.70645924292E+02 0.  0.
          2    1    4    4  501    0  0.13447735700E+02 -0.10608945459E+01  0.25493878525E+02  0.28842762262E+02  0.00000000000E+00 0. -1.
         -1    1    4    4    0  501 -0.77023091398E+02 -0.40156354165E+02  0.10762171911E+02  0.87526645843E+02  0.00000000000E+00 0.  1.
          5    1    3    3  502    0 -0.10970057533E+03 -0.67720092010E+01 -0.83139268579E+02  0.13789236497E+03  0.47000000000E+01 0. -1.
         11    1    6    6    0    0  0.54973502177E+02 -0.54394637117E+02  0.14392026795E+03  0.16338269803E+03  0.00000000000E+00 0. -1.
        -12    1    6    6    0    0  0.19378502931E+02  0.10359127033E+02  0.13956979640E+03  0.14128894492E+03  0.00000000000E+00 0.  1.
         -5    1    5    5    0  503  0.98923925921E+02  0.92024767995E+02  0.24531258444E+03  0.28009793846E+03  0.47000000000E+01 0.  1.
<mgrwt>
<rscale>  2 0.24983803E+03</rscale>
<asrwt>0</asrwt>
<pdfrwt beam="1">  1       21 0.10161160E+00 0.24990201E+03</pdfrwt>
<pdfrwt beam="2">  1       21 0.27470148E-01 0.24990201E+03</pdfrwt>
<totfact> 0.96293909E+03</totfact>
</mgrwt>
</event>
<event>
12    1  0.1441827E-001  0.2015923E+03  0.7546771E-02  0.1148438E+00
         21   -1    0    0  504  503  0.00000000000E+00  0.00000000000E+00  0.33445945903E+02  0.33445945903E+02  0.00000000000E+00 0. -1.
         21   -1    0    0  502  504 -0.00000000000E+00 -0.00000000000E+00 -0.14257402410E+04  0.14257402410E+04  0.00000000000E+00 0. -1.
          6    2    1    2  502    0  0.16740534201E+02 -0.10226667030E+03 -0.97753652953E+03  0.99810677722E+03  0.17291834731E+03 0.  0.
         24    2    3    3    0    0 -0.81002369126E+01 -0.95058450233E+01 -0.20370580585E+03  0.21832622250E+03  0.77551977193E+02 0.  0.
         -6    2    1    2    0  503 -0.16740534201E+02  0.10226667030E+03 -0.41475776555E+03  0.46107940966E+03  0.17271797993E+03 0.  0.
        -24    2    5    5    0    0 -0.31630534877E+02 -0.12347284258E+01 -0.11716629804E+03  0.14561622133E+03  0.80461961365E+02 0.  0.
          4    1    4    4  501    0 -0.36409425308E+02 -0.16137819352E+02 -0.16600789995E+03  0.17071818389E+03  0.00000000000E+00 0. -1.
         -3    1    4    4    0  501  0.28309188396E+02  0.66319743285E+01 -0.37697905901E+02  0.47608038611E+02  0.00000000000E+00 0.  1.
          5    1    3    3  502    0  0.24840771114E+02 -0.92760825279E+02 -0.77383072367E+03  0.77978055472E+03  0.47000000000E+01 0. -1.
         11    1    6    6    0    0 -0.28854319851E+02  0.37639937071E+02 -0.61522422479E+02  0.77681047267E+02  0.00000000000E+00 0. -1.
        -12    1    6    6    0    0 -0.27762150266E+01 -0.38874665497E+02 -0.55643875561E+02  0.67935174062E+02  0.00000000000E+00 0.  1.
         -5    1    5    5    0  503  0.14890000676E+02  0.10350139873E+03 -0.29759146751E+03  0.31546318833E+03  0.47000000000E+01 0.  1.
<mgrwt>
<rscale>  2 0.20154937E+03</rscale>
<asrwt>0</asrwt>
<pdfrwt beam="1">  1       21 0.51455299E-02 0.20159234E+03</pdfrwt>
<pdfrwt beam="2">  1       21 0.21934466E+00 0.20159234E+03</pdfrwt>
<totfact> 0.25835847E+04</totfact>
</mgrwt>
</event>
<event>
12    1  0.1441827E-001  0.1853506E+03  0.7546771E-02  0.1163036E+00
         21   -1    0    0  504  503  0.00000000000E+00  0.00000000000E+00  0.22384558796E+03  0.22384558796E+03  0.00000000000E+00 0.  1.
         21   -1    0    0  502  504 -0.00000000000E+00 -0.00000000000E+00 -0.17131589396E+03  0.17131589396E+03  0.00000000000E+00 0. -1.
          6    2    1    2  502    0 -0.51384891760E+02  0.41049595210E+02 -0.39358650299E+02  0.18948338224E+03  0.17328985089E+03 0.  0.
         24    2    3    3    0    0 -0.51351608466E+02  0.54516855757E+02 -0.89520695845E+02  0.13733274439E+03  0.72368863772E+02 0.  0.
         -6    2    1    2    0  503  0.51384891760E+02 -0.41049595210E+02  0.91888344298E+02  0.20567809968E+03  0.17185615060E+03 0.  0.
        -24    2    5    5    0    0  0.98298442568E+01 -0.87988525653E+02  0.52860176929E+02  0.13168233620E+03  0.81898918658E+02 0.  0.
          4    1    4    4  501    0 -0.20272178021E+02  0.64901115965E+01 -0.75487124892E+02  0.78430789711E+02  0.00000000000E+00 0. -1.
         -3    1    4    4    0  501 -0.31079430445E+02  0.48026744160E+02 -0.14033570953E+02  0.58901954680E+02  0.00000000000E+00 0.  1.
          5    1    3    3  502    0 -0.33283293528E-01 -0.13467260547E+02  0.50162045546E+02  0.52150637847E+02  0.47000000000E+01 0. -1.
         13    1    6    6    0    0  0.16758764282E+02 -0.39848593970E+02 -0.17090658940E+02  0.46485021724E+02  0.00000000000E+00 0. -1.
        -14    1    6    6    0    0 -0.69289200254E+01 -0.48139931683E+02  0.69950835869E+02  0.85197314476E+02  0.00000000000E+00 0.  1.
         -5    1    5    5    0  503  0.41555047503E+02  0.46938930443E+02  0.39028167369E+02  0.73995763475E+02  0.47000000000E+01 0.  1.
<mgrwt>
<rscale>  2 0.18501477E+03</rscale>
<asrwt>0</asrwt>
<pdfrwt beam="1">  1       21 0.34437783E-01 0.18535061E+03</pdfrwt>
<pdfrwt beam="2">  1       21 0.26356291E-01 0.18535061E+03</pdfrwt>
<totfact> 0.11153750E+05</totfact>
</mgrwt>
</event>
<event>
12    1  0.1441827E-001  0.2316634E+03  0.7546771E-02  0.1125503E+00
         21   -1    0    0  504  503  0.00000000000E+00  0.00000000000E+00  0.13596220174E+03  0.13596220174E+03  0.00000000000E+00 0.  1.
         21   -1    0    0  502  504 -0.00000000000E+00 -0.00000000000E+00 -0.71294559443E+03  0.71294559443E+03  0.00000000000E+00 0. -1.
          6    2    1    2  502    0 -0.13352777102E+03  0.76115536763E+02 -0.57224838189E+03  0.61736223584E+03  0.17333401021E+03 0.  0.
         24    2    3    3    0    0 -0.12980469914E+03  0.10251626407E+03 -0.36859826303E+03  0.41192046653E+03  0.80342684275E+02 0.  0.
         -6    2    1    2    0  503  0.13352777102E+03 -0.76115536763E+02 -0.47350108029E+01  0.23154556034E+03  0.17311177204E+03 0.  0.
        -24    2    5    5    0    0  0.12289839661E+03 -0.48169000932E+02  0.55203771550E+02  0.16439840780E+03  0.80963643392E+02 0.  0.
          2    1    4    4  501    0 -0.11814966656E+03  0.11626967304E+03 -0.33618928053E+03  0.37483491422E+03  0.00000000000E+00 0. -1.
         -1    1    4    4    0  501 -0.11655032588E+02 -0.13753408974E+02 -0.32408982503E+02  0.37085552307E+02  0.00000000000E+00 0.  1.
          5    1    3    3  502    0 -0.37230718718E+01 -0.26400727304E+02 -0.20365011886E+03  0.20544176931E+03  0.47000000000E+01 0. -1.
         11    1    6    6    0    0  0.86713193557E+02 -0.68014779127E+02  0.24332412414E+02  0.11285944538E+03  0.00000000000E+00 0. -1.
        -12    1    6    6    0    0  0.36185203057E+02  0.19845778195E+02  0.30871359136E+02  0.51538962421E+02  0.00000000000E+00 0.  1.
         -5    1    5    5    0  503  0.10629374403E+02 -0.27946535831E+02 -0.59938782353E+02  0.67147152547E+02  0.47000000000E+01 0.  1.
<mgrwt>
<rscale>  2 0.23162181E+03</rscale>
<asrwt>0</asrwt>
<pdfrwt beam="1">  1       21 0.20917262E-01 0.23166338E+03</pdfrwt>
<pdfrwt beam="2">  1       21 0.10968394E+00 0.23166338E+03</pdfrwt>
<totfact> 0.13615398E+04</totfact>
</mgrwt>
</event>
<event>
12    1  0.1441827E-001  0.1830106E+03  0.7546771E-02  0.1165129E+00
         21   -1    0    0  504  503  0.00000000000E+00  0.00000000000E+00  0.88620109353E+02  0.88620109353E+02  0.00000000000E+00 0. -1.
         21   -1    0    0  502  504 -0.00000000000E+00 -0.00000000000E+00 -0.46814068435E+03  0.46814068435E+03  0.00000000000E+00 0. -1.
          6    2    1    2  502    0  0.37872582311E+02 -0.45842998343E+02 -0.31281182993E+03  0.36197132911E+03  0.17215135540E+03 0.  0.
         24    2    3    3    0    0 -0.43330573325E+02 -0.57425771576E+01 -0.13843493107E+03  0.16542263510E+03  0.79308904187E+02 0.  0.
         -6    2    1    2    0  503 -0.37872582311E+02  0.45842998343E+02 -0.66708745064E+02  0.19478946459E+03  0.17308080731E+03 0.  0.
        -24    2    5    5    0    0 -0.15434981165E+02  0.90069329282E+02 -0.20008433606E+02  0.12650752420E+03  0.85165095797E+02 0.  0.
          2    1    4    4  501    0  0.32591902125E+01  0.19595405123E+02 -0.94466704523E+02  0.96532691283E+02  0.00000000000E+00 0. -1.
         -1    1    4    4    0  501 -0.46589763537E+02 -0.25337982281E+02 -0.43968226551E+02  0.68889943813E+02  0.00000000000E+00 0.  1.
          5    1    3    3  502    0  0.81203155636E+02 -0.40100421186E+02 -0.17437689885E+03  0.19654869401E+03  0.47000000000E+01 0. -1.
         11    1    6    6    0    0 -0.33806425468E+02  0.17459886805E+01 -0.12095009504E+02  0.35947352257E+02  0.00000000000E+00 0. -1.
        -12    1    6    6    0    0  0.18371444303E+02  0.88323340602E+02 -0.79134241025E+01  0.90560171940E+02  0.00000000000E+00 0.  1.
         -5    1    5    5    0  503 -0.22437601146E+02 -0.44226330939E+02 -0.46700311458E+02  0.68281940393E+02  0.47000000000E+01 0.  1.
<mgrwt>
<rscale>  2 0.18279051E+03</rscale>
<asrwt>0</asrwt>
<pdfrwt beam="1">  1       21 0.13633863E-01 0.18301060E+03</pdfrwt>
<pdfrwt beam="2">  1       21 0.72021643E-01 0.18301060E+03</pdfrwt>
<totfact> 0.81486513E+04</totfact>
</mgrwt>
</event>
<event>
12    1  0.1441827E-001  0.2941023E+03  0.7546771E-02  0.1088268E+00
         21   -1    0    0  504  503  0.00000000000E+00  0.00000000000E+00  0.11293935166E+03  0.11293935166E+03  0.00000000000E+00 0. -1.
         21   -1    0    0  502  504 -0.00000000000E+00 -0.00000000000E+00 -0.91723462784E+03  0.91723462784E+03  0.00000000000E+00 0.  1.
          6    2    1    2  502    0  0.22497438600E+03  0.75508190059E+02 -0.61216416694E+03  0.67914734824E+03  0.17372735021E+03 0.  0.
         24    2    3    3    0    0  0.22947696321E+03  0.43291934409E+02 -0.58930632018E+03  0.63911321920E+03  0.81546917268E+02 0.  0.
         -6    2    1    2    0  503 -0.22497438600E+03 -0.75508190059E+02 -0.19213110923E+03  0.35102663126E+03  0.17317728374E+03 0.  0.
        -24    2    5    5    0    0 -0.20822910165E+03 -0.10958823148E+03 -0.13743069772E+03  0.28427276404E+03  0.80962142024E+02 0.  0.
          2    1    4    4  501    0  0.18237581478E+03  0.51062080947E+02 -0.38186766869E+03  0.42625249596E+03  0.00000000000E+00 0. -1.
         -1    1    4    4    0  501  0.47101148429E+02 -0.77701465383E+01 -0.20743865150E+03  0.21286072323E+03  0.00000000000E+00 0.  1.
          5    1    3    3  502    0 -0.45025772117E+01  0.32216255650E+02 -0.22857846759E+02  0.40034129042E+02  0.47000000000E+01 0. -1.
         13    1    6    6    0    0 -0.13343391779E+03 -0.34559317513E+02 -0.49043168110E+02  0.14630170602E+03  0.00000000000E+00 0. -1.
        -14    1    6    6    0    0 -0.74795183857E+02 -0.75028913968E+02 -0.88387529615E+02  0.13797105802E+03  0.00000000000E+00 0.  1.
         -5    1    5    5    0  503 -0.16745284344E+02  0.34080041422E+02 -0.54700411506E+02  0.66753867229E+02  0.47000000000E+01 0.  1.
<mgrwt>
<rscale>  2 0.29402110E+03</rscale>
<asrwt>0</asrwt>
<pdfrwt beam="1">  1       21 0.17375284E-01 0.29410228E+03</pdfrwt>
<pdfrwt beam="2">  1       21 0.14111303E+00 0.29410228E+03</pdfrwt>
<totfact> 0.98691565E+03</totfact>
</mgrwt>
</event>
<event>
12    1  0.1441827E-001  0.1760221E+03  0.7546771E-02  0.1171892E+00
         21   -1    0    0  504  503  0.00000000000E+00  0.00000000000E+00  0.40842778885E+03  0.40842778885E+03  0.00000000000E+00 0.  1.
         21   -1    0    0  502  504 -0.00000000000E+00 -0.00000000000E+00 -0.12911528272E+03  0.12911528272E+03  0.00000000000E+00 0.  1.
          6    2    1    2  502    0  0.32441409932E+01 -0.25045712338E+02  0.31294635042E+03  0.35905320241E+03  0.17420095224E+03 0.  0.
         24    2    3    3    0    0  0.59719369102E+02 -0.49991791749E+02  0.17109144558E+03  0.20427380360E+03  0.79936986425E+02 0.  0.
         -6    2    1    2    0  503 -0.32441409932E+01  0.25045712338E+02 -0.33633844294E+02  0.17848986916E+03  0.17346349978E+03 0.  0.
        -24    2    5    5    0    0 -0.37978450676E+02 -0.98902012805E+01  0.32996157026E+02  0.95492053498E+02  0.80559339034E+02 0.  0.
          4    1    4    4  501    0  0.25633360337E+02 -0.51278323971E+02  0.42848045018E+02  0.71571576993E+02  0.00000000000E+00 0. -1.
         -3    1    4    4    0  501  0.34086008765E+02  0.12865322220E+01  0.12824340057E+03  0.13270222661E+03  0.00000000000E+00 0.  1.
          5    1    3    3  502    0 -0.56475228109E+02  0.24946079411E+02  0.14185490483E+03  0.15477939880E+03  0.47000000000E+01 0. -1.
         11    1    6    6    0    0  0.25516756170E+02 -0.35748721353E+01  0.82762041721E+01  0.27062522272E+02  0.00000000000E+00 0. -1.
        -12    1    6    6    0    0 -0.63495206846E+02 -0.63153291452E+01  0.24719952854E+02  0.68429531226E+02  0.00000000000E+00 0.  1.
         -5    1    5    5    0  503  0.34734309683E+02  0.34935913618E+02 -0.66630001320E+02  0.82997815666E+02  0.47000000000E+01 0.  1.
<mgrwt>
<rscale>  2 0.17583938E+03</rscale>
<asrwt>0</asrwt>
<pdfrwt beam="1">  1       21 0.62835044E-01 0.17602211E+03</pdfrwt>
<pdfrwt beam="2">  1       21 0.19863890E-01 0.17602211E+03</pdfrwt>
<totfact> 0.55268500E+04</totfact>
</mgrwt>
</event>
<event>
12    1  0.1441827E-001  0.1808185E+03  0.7546771E-02  0.1167363E+00
         21   -1    0    0  504  503  0.00000000000E+00  0.00000000000E+00  0.18964216304E+03  0.18964216304E+03  0.00000000000E+00 0.  1.
         21   -1    0    0  502  504 -0.00000000000E+00 -0.00000000000E+00 -0.31229661582E+03  0.31229661582E+03  0.00000000000E+00 0.  1.
          6    2    1    2  502    0 -0.19214551940E+02 -0.51083079948E+02 -0.22998635176E+03  0.29166399953E+03  0.17086686794E+03 0.  0.
         24    2    3    3    0    0  0.22769923908E+02 -0.51305010626E+02 -0.22969005499E+03  0.24941564740E+03  0.79372351963E+02 0.  0.
         -6    2    1    2    0  503  0.19214551940E+02  0.51083079948E+02  0.10733189898E+03  0.21027477934E+03  0.17238522624E+03 0.  0.
        -24    2    5    5    0    0 -0.41593504357E+02  0.52774064099E+02  0.28813083358E+02  0.11083749486E+03  0.83304471957E+02 0.  0.
          2    1    4    4  501    0  0.51899272690E+02 -0.33327030027E+02 -0.12729498507E+03  0.14145048130E+03  0.00000000000E+00 0. -1.
         -1    1    4    4    0  501 -0.29129348781E+02 -0.17977980599E+02 -0.10239506992E+03  0.10796516610E+03  0.00000000000E+00 0.  1.
          5    1    3    3  502    0 -0.41984475848E+02  0.22193067778E+00 -0.29629677199E+00  0.42248352125E+02  0.47000000000E+01 0. -1.
         11    1    6    6    0    0 -0.25871651916E+02 -0.19773734940E+02  0.54491899323E+01  0.33015702889E+02  0.00000000000E+00 0. -1.
        -12    1    6    6    0    0 -0.15721852442E+02  0.72547799039E+02  0.23363893426E+02  0.77821791971E+02  0.00000000000E+00 0.  1.
         -5    1    5    5    0  503  0.60808056297E+02 -0.16909841505E+01  0.78518815620E+02  0.99437284478E+02  0.47000000000E+01 0.  1.
<mgrwt>
<rscale>  2 0.18045572E+03</rscale>
<asrwt>0</asrwt>
<pdfrwt beam="1">  1       21 0.29175718E-01 0.18081855E+03</pdfrwt>
<pdfrwt beam="2">  1       21 0.48045633E-01 0.18081855E+03</pdfrwt>
<totfact> 0.46836313E+04</totfact>
</mgrwt>
</event>
<event>
12    1  0.1441827E-001  0.2486452E+03  0.7546771E-02  0.1114173E+00
         21   -1    0    0  504  503  0.00000000000E+00  0.00000000000E+00  0.18241359361E+03  0.18241359361E+03  0.00000000000E+00 0. -1.
         21   -1    0    0  502  504 -0.00000000000E+00 -0.00000000000E+00 -0.52202777147E+03  0.52202777147E+03  0.00000000000E+00 0. -1.
          6    2    1    2  502    0 -0.17143357755E+03 -0.50393328805E+02 -0.37846183044E+03  0.45283309787E+03  0.17290314723E+03 0.  0.
         24    2    3    3    0    0 -0.70948708652E+02 -0.71758896373E+02 -0.28931254100E+03  0.31673246538E+03  0.80216268789E+02 0.  0.
         -6    2    1    2    0  503  0.17143357755E+03  0.50393328805E+02  0.38847652576E+02  0.25160826721E+03  0.17282540589E+03 0.  0.
        -24    2    5    5    0    0  0.54718986572E+02  0.17054563101E+02 -0.41883535752E+02  0.10575428607E+03  0.78388218768E+02 0.  0.
          2    1    4    4  501    0 -0.11776313950E+02 -0.19054156965E+02 -0.69370701714E+01  0.23449209165E+02  0.00000000000E+00 0. -1.
         -1    1    4    4    0  501 -0.59172394702E+02 -0.52704739408E+02 -0.28237547083E+03  0.29328325622E+03  0.00000000000E+00 0.  1.
          5    1    3    3  502    0 -0.10048486890E+03  0.21365567568E+02 -0.89149289438E+02  0.13610063248E+03  0.47000000000E+01 0. -1.
         11    1    6    6    0    0  0.57356031835E+02  0.25280795983E+02  0.31440827061E+00  0.62681192442E+02  0.00000000000E+00 0. -1.
        -12    1    6    6    0    0 -0.26370452632E+01 -0.82262328819E+01 -0.42197944023E+02  0.43073093630E+02  0.00000000000E+00 0.  1.
         -5    1    5    5    0  503  0.11671459098E+03  0.33338765705E+02  0.80731188328E+02  0.14585398114E+03  0.47000000000E+01 0.  1.
<mgrwt>
<rscale>  2 0.24863173E+03</rscale>
<asrwt>0</asrwt>
<pdfrwt beam="1">  1       21 0.28063630E-01 0.24864524E+03</pdfrwt>
<pdfrwt beam="2">  1       21 0.80311965E-01 0.24864524E+03</pdfrwt>
<totfact> 0.16010150E+04</totfact>
</mgrwt>
</event>
<event>
12    1  0.1441827E-001  0.1878890E+03  0.7546771E-02  0.1160817E+00
         21   -1    0    0  504  503  0.00000000000E+00  0.00000000000E+00  0.32817814715E+02  0.32817814715E+02  0.00000000000E+00 0. -1.
         21   -1    0    0  502  504 -0.00000000000E+00 -0.00000000000E+00 -0.10983649275E+04  0.10983649275E+04  0.00000000000E+00 0. -1.
          6    2    1    2  502    0  0.66244934675E+02 -0.32217836066E+02 -0.62897623590E+03  0.65589712290E+03  0.17077338838E+03 0.  0.
         24    2    3    3    0    0 -0.16672111692E+02  0.15162645564E+02 -0.38284990045E+03  0.39185089661E+03  0.80406553052E+02 0.  0.
         -6    2    1    2    0  503 -0.66244934675E+02  0.32217836066E+02 -0.43657087691E+03  0.47528561934E+03  0.17284648983E+03 0.  0.
        -24    2    5    5    0    0 -0.45093291957E+02  0.39574041923E+02 -0.11454778879E+03  0.15245057626E+03  0.80749442791E+02 0.  0.
          4    1    4    4  501    0  0.44345380765E+00  0.28168897360E+02 -0.43532683571E+02  0.51853427743E+02  0.00000000000E+00 0. -1.
         -3    1    4    4    0  501 -0.17115565500E+02 -0.13006251796E+02 -0.33931721688E+03  0.33999746887E+03  0.00000000000E+00 0.  1.
          5    1    3    3  502    0  0.82917046368E+02 -0.47380481631E+02 -0.24612633545E+03  0.26404622629E+03  0.47000000000E+01 0. -1.
         11    1    6    6    0    0 -0.29100174323E+02  0.25185372507E+02 -0.12334403133E+03  0.12920864212E+03  0.00000000000E+00 0. -1.
        -12    1    6    6    0    0 -0.15993117634E+02  0.14388669416E+02  0.87962425472E+01  0.23241934131E+02  0.00000000000E+00 0.  1.
         -5    1    5    5    0  503 -0.21151642719E+02 -0.73562058563E+01 -0.32202308813E+03  0.32283504308E+03  0.47000000000E+01 0.  1.
<mgrwt>
<rscale>  2 0.18741087E+03</rscale>
<asrwt>0</asrwt>
<pdfrwt beam="1">  1       21 0.50488938E-02 0.18788903E+03</pdfrwt>
<pdfrwt beam="2">  1       21 0.16897925E+00 0.18788903E+03</pdfrwt>
<totfact> 0.57557045E+04</totfact>
</mgrwt>
</event>
<event>
12    1  0.1441827E-001  0.2195365E+03  0.7546771E-02  0.1135402E+00
         21   -1    0    0  504  503  0.00000000000E+00  0.00000000000E+00  0.31672746395E+03  0.31672746395E+03  0.00000000000E+00 0. -1.
         21   -1    0    0  502  504 -0.00000000000E+00 -0.00000000000E+00 -0.22202508610E+03  0.22202508610E+03  0.00000000000E+00 0. -1.
          6    2    1    2  502    0 -0.48269457920E+01 -0.12525818191E+03 -0.10871756375E+03  0.23946014033E+03  0.17265207382E+03 0.  0.
         24    2    3    3    0    0  0.23892803728E+02 -0.13928259009E+02 -0.53732182222E+01  0.84794955172E+02  0.79977812420E+02 0.  0.
         -6    2    1    2    0  503  0.48269457920E+01  0.12525818191E+03  0.20341994160E+03  0.29929240972E+03  0.18023141328E+03 0.  0.
        -24    2    5    5    0    0 -0.55684868679E+02  0.12201003280E+03  0.12214318548E+03  0.19780235479E+03  0.78864194011E+02 0.  0.
          4    1    4    4  501    0 -0.29270205436E+02 -0.10988056194E+02  0.14930640541E+00  0.31265069928E+02  0.00000000000E+00 0. -1.
         -3    1    4    4    0  501  0.53163009164E+02 -0.29402028148E+01 -0.55225246276E+01  0.53529885244E+02  0.00000000000E+00 0.  1.
          5    1    3    3  502    0 -0.28719749520E+02 -0.11132992290E+03 -0.10334434553E+03  0.15466518516E+03  0.47000000000E+01 0. -1.
         11    1    6    6    0    0 -0.26862323885E+02  0.97150077082E+01  0.59556498491E+02  0.66052572484E+02  0.00000000000E+00 0. -1.
        -12    1    6    6    0    0 -0.28822544794E+02  0.11229502509E+03  0.62586686987E+02  0.13174978230E+03  0.00000000000E+00 0.  1.
         -5    1    5    5    0  503  0.60511814471E+02  0.32481491076E+01  0.81276756125E+02  0.10149005493E+03  0.47000000000E+01 0.  1.
<mgrwt>
<rscale>  2 0.21797531E+03</rscale>
<asrwt>0</asrwt>
<pdfrwt beam="1">  1       21 0.48727302E-01 0.21953650E+03</pdfrwt>
<pdfrwt beam="2">  1       21 0.34157706E-01 0.21953650E+03</pdfrwt>
<totfact> 0.32738878E+04</totfact>
</mgrwt>
</event>
<event>
12    1  0.1441827E-001  0.2062584E+03  0.7546771E-02  0.1144666E+00
         21   -1    0    0  504  503  0.00000000000E+00  0.00000000000E+00  0.24511618542E+02  0.24511618542E+02  0.00000000000E+00 0. -1.
         21   -1    0    0  502  504 -0.00000000000E+00 -0.00000000000E+00 -0.17313897102E+04  0.17313897102E+04  0.00000000000E+00 0.  1.
          6    2    1    2  502    0 -0.92018356427E+02 -0.63818062640E+02 -0.85674668498E+03  0.88110653095E+03  0.17260855602E+03 0.  0.
         24    2    3    3    0    0 -0.94030583971E+02 -0.10308051199E+03 -0.75064223983E+03  0.76785533992E+03  0.81674403266E+02 0.  0.
         -6    2    1    2    0  503  0.92018356427E+02  0.63818062640E+02 -0.85013140669E+03  0.87479479781E+03  0.17321202786E+03 0.  0.
        -24    2    5    5    0    0  0.11759139324E+03  0.52526578590E+02 -0.81806991554E+03  0.83199868772E+03  0.79979074963E+02 0.  0.
          2    1    4    4  501    0 -0.18150251051E+02 -0.79185062429E+02 -0.41921713175E+03  0.42701605272E+03  0.00000000000E+00 0. -1.
         -1    1    4    4    0  501 -0.75880332920E+02 -0.23895449562E+02 -0.33142510808E+03  0.34083928720E+03  0.00000000000E+00 0.  1.
          5    1    3    3  502    0  0.20122275443E+01  0.39262449351E+02 -0.10610444515E+03  0.11325119103E+03  0.47000000000E+01 0. -1.
         13    1    6    6    0    0  0.60271006848E+02  0.69121636663E+02 -0.47342395551E+03  0.48222467437E+03  0.00000000000E+00 0. -1.
        -14    1    6    6    0    0  0.57320386395E+02 -0.16595058073E+02 -0.34464596003E+03  0.34977401334E+03  0.00000000000E+00 0.  1.
         -5    1    5    5    0  503 -0.25573036815E+02  0.11291484050E+02 -0.32061491149E+02  0.42796110089E+02  0.47000000000E+01 0.  1.
<mgrwt>
<rscale>  2 0.20613166E+03</rscale>
<asrwt>0</asrwt>
<pdfrwt beam="1">  1       21 0.37710171E-02 0.20625840E+03</pdfrwt>
<pdfrwt beam="2">  1       21 0.26636772E+00 0.20625840E+03</pdfrwt>
<totfact> 0.22803431E+04</totfact>
</mgrwt>
</event>
<event>
12    1  0.1441827E-001  0.2171991E+03  0.7546771E-02  0.1136077E+00
         21   -1    0    0  504  503  0.00000000000E+00  0.00000000000E+00  0.21097224327E+03  0.21097224327E+03  0.00000000000E+00 0. -1.
         21   -1    0    0  502  504 -0.00000000000E+00 -0.00000000000E+00 -0.26668573735E+03  0.26668573735E+03  0.00000000000E+00 0.  1.
          6    2    1    2  502    0 -0.96194884497E+02  0.86907144041E+02 -0.12440277384E+03  0.25030282062E+03  0.17426745073E+03 0.  0.
         24    2    3    3    0    0 -0.11574083722E+02  0.10711188334E+02 -0.10803797307E+03  0.13516637855E+03  0.79680971972E+02 0.  0.
         -6    2    1    2    0  503  0.96194884497E+02 -0.86907144041E+02  0.68689279762E+02  0.22735516000E+03  0.17368317172E+03 0.  0.
        -24    2    5    5    0    0  0.12810199469E+03 -0.98005777748E+02  0.42613075330E+02  0.18442146940E+03  0.78613934339E+02 0.  0.
          4    1    4    4  501    0  0.11345783386E+02  0.34256245640E+02 -0.20136723068E+02  0.41324384834E+02  0.00000000000E+00 0. -1.
         -3    1    4    4    0  501 -0.22919867107E+02 -0.23545057306E+02 -0.87901250003E+02  0.93841993712E+02  0.00000000000E+00 0.  1.
          5    1    3    3  502    0 -0.84620800775E+02  0.76195955707E+02 -0.16364800771E+02  0.11513644208E+03  0.47000000000E+01 0. -1.
         13    1    6    6    0    0  0.12355550562E+03 -0.95300855381E+02  0.59291422041E+02  0.16692420056E+03  0.00000000000E+00 0. -1.
        -14    1    6    6    0    0  0.45464890687E+01 -0.27049223670E+01 -0.16678346712E+02  0.17497268841E+02  0.00000000000E+00 0.  1.
         -5    1    5    5    0  503 -0.31907110193E+02  0.11098633707E+02  0.26076204432E+02  0.42933690601E+02  0.47000000000E+01 0.  1.
<mgrwt>
<rscale>  2 0.21708188E+03</rscale>
<asrwt>0</asrwt>
<pdfrwt beam="1">  1       21 0.32457268E-01 0.21719911E+03</pdfrwt>
<pdfrwt beam="2">  1       21 0.41028575E-01 0.21719911E+03</pdfrwt>
<totfact> 0.51660784E+04</totfact>
</mgrwt>
</event>
<event>
12    1  0.1441827E-001  0.2370989E+03  0.7546771E-02  0.1121817E+00
         21   -1    0    0  504  503  0.00000000000E+00  0.00000000000E+00  0.46394114663E+03  0.46394114663E+03  0.00000000000E+00 0.  1.
         21   -1    0    0  502  504 -0.00000000000E+00 -0.00000000000E+00 -0.19499527839E+03  0.19499527839E+03  0.00000000000E+00 0.  1.
          6    2    1    2  502    0  0.10400948886E+03  0.12436266279E+03  0.33743149775E+03  0.41214466160E+03  0.17239246138E+03 0.  0.
         24    2    3    3    0    0  0.51644142110E+02  0.26397217690E+02  0.25542733376E+03  0.27399209779E+03  0.80402837677E+02 0.  0.
         -6    2    1    2    0  503 -0.10400948886E+03 -0.12436266279E+03 -0.68485629509E+02  0.24679176342E+03  0.17300822921E+03 0.  0.
        -24    2    5    5    0    0 -0.86945457842E+02 -0.15127057359E+03 -0.88742729780E+02  0.20874367635E+03  0.72500698312E+02 0.  0.
          4    1    4    4  501    0  0.35211406252E+01 -0.18084908923E+02  0.12215192878E+02  0.22105956191E+02  0.00000000000E+00 0. -1.
         -3    1    4    4    0  501  0.48123001485E+02  0.44482126613E+02  0.24321214088E+03  0.25188614160E+03  0.00000000000E+00 0.  1.
          5    1    3    3  502    0  0.52365346746E+02  0.97965445100E+02  0.82004163995E+02  0.13815256381E+03  0.47000000000E+01 0. -1.
         13    1    6    6    0    0 -0.54317430106E+02 -0.81006368050E+02 -0.96124939135E+01  0.98004157653E+02  0.00000000000E+00 0. -1.
        -14    1    6    6    0    0 -0.32628027736E+02 -0.70264205539E+02 -0.79130235866E+02  0.11073951870E+03  0.00000000000E+00 0.  1.
         -5    1    5    5    0  503 -0.17064031015E+02  0.26907910799E+02  0.20257100271E+02  0.38048087067E+02  0.47000000000E+01 0.  1.
<mgrwt>
<rscale>  2 0.23698659E+03</rscale>
<asrwt>0</asrwt>
<pdfrwt beam="1">  1       21 0.71375560E-01 0.23709891E+03</pdfrwt>
<pdfrwt beam="2">  1       21 0.29999274E-01 0.23709891E+03</pdfrwt>
<totfact> 0.18438100E+04</totfact>
</mgrwt>
</event>
<event>
12    1  0.1441827E-001  0.2182915E+03  0.7546771E-02  0.1135265E+00
         21   -1    0    0  504  503  0.00000000000E+00  0.00000000000E+00  0.15131379824E+03  0.15131379824E+03  0.00000000000E+00 0.  1.
         21   -1    0    0  502  504 -0.00000000000E+00 -0.00000000000E+00 -0.33077821653E+03  0.33077821653E+03  0.00000000000E+00 0.  1.
          6    2    1    2  502    0  0.28801689980E+02 -0.12923067990E+03 -0.14368552923E+03  0.26088774614E+03  0.17287793036E+03 0.  0.
         24    2    3    3    0    0 -0.23348683570E+02 -0.82091426670E+02 -0.14955819899E+03  0.19018874398E+03  0.80746145994E+02 0.  0.
         -6    2    1    2    0  503 -0.28801689980E+02  0.12923067990E+03 -0.35778889063E+02  0.22120426863E+03  0.17355429578E+03 0.  0.
        -24    2    5    5    0    0  0.43087540783E+02  0.54040176310E+02 -0.49636409802E+02  0.11615288020E+03  0.79062263912E+02 0.  0.
          2    1    4    4  501    0 -0.12662472562E+02  0.31511711817E+01 -0.75934469986E+02  0.77047464743E+02  0.00000000000E+00 0. -1.
         -1    1    4    4    0  501 -0.10686211008E+02 -0.85242597852E+02 -0.73623729009E+02  0.11314127924E+03  0.00000000000E+00 0.  1.
          5    1    3    3  502    0  0.52150373550E+02 -0.47139253228E+02  0.58726697681E+01  0.70699002160E+02  0.47000000000E+01 0. -1.
         13    1    6    6    0    0  0.19601067833E+02 -0.19317778668E+02 -0.83482618684E+01  0.28758857924E+02  0.00000000000E+00 0. -1.
        -14    1    6    6    0    0  0.23486472950E+02  0.73357954978E+02 -0.41288147934E+02  0.87394022278E+02  0.00000000000E+00 0.  1.
         -5    1    5    5    0  503 -0.71889230763E+02  0.75190503588E+02  0.13857520740E+02  0.10505138843E+03  0.47000000000E+01 0.  1.
<mgrwt>
<rscale>  2 0.21815708E+03</rscale>
<asrwt>0</asrwt>
<pdfrwt beam="1">  1       21 0.23279046E-01 0.21829155E+03</pdfrwt>
<pdfrwt beam="2">  1       21 0.50888956E-01 0.21829155E+03</pdfrwt>
<totfact> 0.62983741E+04</totfact>
</mgrwt>
</event>
<event>
12    1  0.1441827E-001  0.1817321E+03  0.7546771E-02  0.1166182E+00
         21   -1    0    0  504  503  0.00000000000E+00  0.00000000000E+00  0.13702997494E+03  0.13702997494E+03  0.00000000000E+00 0. -1.
         21   -1    0    0  502  504 -0.00000000000E+00 -0.00000000000E+00 -0.47560553113E+03  0.47560553113E+03  0.00000000000E+00 0. -1.
          6    2    1    2  502    0 -0.40192644563E+02  0.35846062704E+02 -0.38448850328E+03  0.42519339585E+03  0.17337135238E+03 0.  0.
         24    2    3    3    0    0  0.15501797705E+02  0.35584302679E+01 -0.33171571529E+03  0.34181822412E+03  0.80940808085E+02 0.  0.
         -6    2    1    2    0  503  0.40192644563E+02 -0.35846062704E+02  0.45912947091E+02  0.18744211022E+03  0.17356888283E+03 0.  0.
        -24    2    5    5    0    0 -0.46413179773E+01 -0.62273886910E+02 -0.19892425960E+02  0.10341264389E+03  0.79993046467E+02 0.  0.
          2    1    4    4  501    0  0.15021423302E+02  0.36796614981E+01 -0.33657681388E+03  0.33693194373E+03  0.00000000000E+00 0. -1.
         -1    1    4    4    0  501  0.48037440301E+00 -0.12123123012E+00  0.48610985874E+01  0.48862803905E+01  0.00000000000E+00 0.  1.
          5    1    3    3  502    0 -0.55694442268E+02  0.32287632436E+02 -0.52772787994E+02  0.83375171727E+02  0.47000000000E+01 0. -1.
         11    1    6    6    0    0  0.14114098326E+02 -0.72214371188E+02 -0.30537739266E+02  0.79666032267E+02  0.00000000000E+00 0. -1.
        -12    1    6    6    0    0 -0.18755416303E+02  0.99404842775E+01  0.10645313306E+02  0.23746611627E+02  0.00000000000E+00 0.  1.
         -5    1    5    5    0  503  0.44833962540E+02  0.26427824207E+02  0.65805373050E+02  0.84029466330E+02  0.47000000000E+01 0.  1.
<mgrwt>
<rscale>  2 0.18168489E+03</rscale>
<asrwt>0</asrwt>
<pdfrwt beam="1">  1       21 0.21081534E-01 0.18173207E+03</pdfrwt>
<pdfrwt beam="2">  1       21 0.73170083E-01 0.18173207E+03</pdfrwt>
<totfact> 0.35336699E+04</totfact>
</mgrwt>
</event>
<event>
12    1  0.1441827E-001  0.2099464E+03  0.7546771E-02  0.1141609E+00
         21   -1    0    0  504  503  0.00000000000E+00  0.00000000000E+00  0.81940056342E+02  0.81940056342E+02  0.00000000000E+00 0. -1.
         21   -1    0    0  502  504 -0.00000000000E+00 -0.00000000000E+00 -0.83779155881E+03  0.83779155881E+03  0.00000000000E+00 0. -1.
          6    2    1    2  502    0 -0.11435618037E+01 -0.11758898892E+03 -0.65305197611E+03  0.68596837311E+03  0.17391735786E+03 0.  0.
         24    2    3    3    0    0 -0.11535155670E+02  0.66548571045E+01 -0.31860278430E+03  0.32900497107E+03  0.80988825684E+02 0.  0.
         -6    2    1    2    0  503  0.11435618037E+01  0.11758898892E+03 -0.10279952637E+03  0.23376324204E+03  0.17392249038E+03 0.  0.
        -24    2    5    5    0    0  0.51798465756E+02  0.12620409704E+03 -0.72471106058E+02  0.17391307529E+03  0.79894564135E+02 0.  0.
          2    1    4    4  501    0  0.15056568679E+01  0.32578083816E+02 -0.27307510448E+03  0.27501565634E+03  0.00000000000E+00 0. -1.
         -1    1    4    4    0  501 -0.13040812537E+02 -0.25923226712E+02 -0.45527679821E+02  0.53989314727E+02  0.00000000000E+00 0.  1.
          5    1    3    3  502    0  0.10391593866E+02 -0.12424384602E+03 -0.33444919181E+03  0.35696340205E+03  0.47000000000E+01 0. -1.
         11    1    6    6    0    0 -0.13614797613E+02  0.70217987932E+02 -0.39558523985E+02  0.81736193716E+02  0.00000000000E+00 0. -1.
        -12    1    6    6    0    0  0.65413263369E+02  0.55986109109E+02 -0.32912582073E+02  0.92176881572E+02  0.00000000000E+00 0.  1.
         -5    1    5    5    0  503 -0.50654903952E+02 -0.86151081224E+01 -0.30328420308E+02  0.59850166756E+02  0.47000000000E+01 0.  1.
<mgrwt>
<rscale>  2 0.20994538E+03</rscale>
<asrwt>0</asrwt>
<pdfrwt beam="1">  1       21 0.12606163E-01 0.20994645E+03</pdfrwt>
<pdfrwt beam="2">  1       21 0.12889100E+00 0.20994645E+03</pdfrwt>
<totfact> 0.23474455E+04</totfact>
</mgrwt>
</event>
<event>
12    1  0.1441827E-001  0.1878532E+03  0.7546771E-02  0.1161795E+00
         21   -1    0    0  504  503  0.00000000000E+00  0.00000000000E+00  0.11984151514E+03  0.11984151514E+03  0.00000000000E+00 0. -1.
         21   -1    0    0  502  504 -0.00000000000E+00 -0.00000000000E+00 -0.34798291807E+03  0.34798291807E+03  0.00000000000E+00 0. -1.
          6    2    1    2  502    0  0.45151955648E+01 -0.68850971958E+02 -0.21490197237E+03  0.28543246264E+03  0.17472260777E+03 0.  0.
         24    2    3    3    0    0 -0.12791882653E+02  0.19303061567E+02 -0.49612486566E+02  0.97248051219E+02  0.80371289618E+02 0.  0.
         -6    2    1    2    0  503 -0.45151955648E+01  0.68850971958E+02 -0.13239430565E+02  0.18239197058E+03  0.16831727505E+03 0.  0.
        -24    2    5    5    0    0 -0.18486201964E+02  0.10935024268E+03  0.88553700657E+00  0.13703797783E+03  0.80494769740E+02 0.  0.
          4    1    4    4  501    0 -0.32138338754E+02  0.16730837891E+02 -0.63627461943E+02  0.73220541296E+02  0.00000000000E+00 0. -1.
         -3    1    4    4    0  501  0.19346456101E+02  0.25722236759E+01  0.14014975377E+02  0.24027509923E+02  0.00000000000E+00 0.  1.
          5    1    3    3  502    0  0.17307078218E+02 -0.88154033525E+02 -0.16528948580E+03  0.18818441142E+03  0.47000000000E+01 0. -1.
         11    1    6    6    0    0 -0.12322642425E+02  0.15559475102E+02  0.32319915341E+02  0.37927848732E+02  0.00000000000E+00 0. -1.
        -12    1    6    6    0    0 -0.61635595387E+01  0.93790767579E+02 -0.31434378334E+02  0.99110129101E+02  0.00000000000E+00 0.  1.
         -5    1    5    5    0  503  0.13971006399E+02 -0.40499270723E+02 -0.14124967572E+02  0.45353992744E+02  0.47000000000E+01 0.  1.
<mgrwt>
<rscale>  2 0.18634967E+03</rscale>
<asrwt>0</asrwt>
<pdfrwt beam="1">  1       21 0.18437156E-01 0.18785322E+03</pdfrwt>
<pdfrwt beam="2">  1       21 0.53535833E-01 0.18785322E+03</pdfrwt>
<totfact> 0.88847747E+04</totfact>
</mgrwt>
</event>
<event>
12    1  0.1441827E-001  0.1953496E+03  0.7546771E-02  0.1154536E+00
         21   -1    0    0  504  503  0.00000000000E+00  0.00000000000E+00  0.45987532011E+02  0.45987532011E+02  0.00000000000E+00 0. -1.
         21   -1    0    0  502  504 -0.00000000000E+00 -0.00000000000E+00 -0.11354231210E+04  0.11354231210E+04  0.00000000000E+00 0. -1.
          6    2    1    2  502    0 -0.39938689409E+02 -0.81554984973E+02 -0.86264867358E+03  0.88449091702E+03  0.17295991954E+03 0.  0.
         24    2    3    3    0    0  0.43037716821E+02 -0.30099322709E+02 -0.35058386176E+03  0.36317984800E+03  0.78945193476E+02 0.  0.
         -6    2    1    2    0  503  0.39938689409E+02  0.81554984973E+02 -0.22678691536E+03  0.29691973594E+03  0.16876821422E+03 0.  0.
        -24    2    5    5    0    0  0.53302876232E+02  0.92201770933E+02 -0.95220189621E+02  0.16416489098E+03  0.80875606586E+02 0.  0.
          4    1    4    4  501    0  0.44943778510E+02 -0.54211414039E+02 -0.27117385356E+03  0.28016794873E+03  0.00000000000E+00 0. -1.
         -3    1    4    4    0  501 -0.19060616886E+01  0.24112091329E+02 -0.79410008201E+02  0.83011899279E+02  0.00000000000E+00 0.  1.
          5    1    3    3  502    0 -0.82976406230E+02 -0.51455662263E+02 -0.51206481182E+03  0.52131106901E+03  0.47000000000E+01 0. -1.
         13    1    6    6    0    0  0.37249792616E+02  0.22614717003E+02  0.18951978827E+01  0.43618393484E+02  0.00000000000E+00 0. -1.
        -14    1    6    6    0    0  0.16053083615E+02  0.69587053929E+02 -0.97115387504E+02  0.12054649749E+03  0.00000000000E+00 0.  1.
         -5    1    5    5    0  503 -0.13364186823E+02 -0.10646785960E+02 -0.13156672573E+03  0.13275484496E+03  0.47000000000E+01 0.  1.
<mgrwt>
<rscale>  2 0.19441756E+03</rscale>
<asrwt>0</asrwt>
<pdfrwt beam="1">  1       21 0.70750061E-02 0.19534955E+03</pdfrwt>
<pdfrwt beam="2">  1       21 0.17468045E+00 0.19534955E+03</pdfrwt>
<totfact> 0.29341255E+04</totfact>
</mgrwt>
</event>
<event>
12    1  0.1441827E-001  0.3045447E+03  0.7546771E-02  0.1083015E+00
         21   -1    0    0  504  503  0.00000000000E+00  0.00000000000E+00  0.72351175989E+02  0.72351175989E+02  0.00000000000E+00 0.  1.
         21   -1    0    0  502  504 -0.00000000000E+00 -0.00000000000E+00 -0.12904862296E+04  0.12904862296E+04  0.00000000000E+00 0. -1.
          6    2    1    2  502    0  0.19261507647E+03  0.15993261467E+03 -0.66706300218E+03  0.73321223070E+03  0.17305524393E+03 0.  0.
         24    2    3    3    0    0  0.27998070128E+02  0.76320893783E+02 -0.19003817132E+03  0.22168074789E+03  0.80119140465E+02 0.  0.
         -6    2    1    2    0  503 -0.19261507647E+03 -0.15993261467E+03 -0.55107205144E+03  0.62962517490E+03  0.17340255496E+03 0.  0.
        -24    2    5    5    0    0 -0.89262214180E+02 -0.91786418769E+02 -0.43356169697E+03  0.45887245437E+03  0.78712735617E+02 0.  0.
          4    1    4    4  501    0  0.29133337653E+02  0.73460665388E+02 -0.19797672945E+03  0.21316661588E+03  0.00000000000E+00 0. -1.
         -3    1    4    4    0  501 -0.11352675250E+01  0.28602283950E+01  0.79385581273E+01  0.85141320148E+01  0.00000000000E+00 0.  1.
          5    1    3    3  502    0  0.16461700634E+03  0.83611720889E+02 -0.47702483086E+03  0.51153148281E+03  0.47000000000E+01 0. -1.
         13    1    6    6    0    0 -0.86190677357E+02 -0.43841846982E+02 -0.34282137976E+03  0.35619859465E+03  0.00000000000E+00 0. -1.
        -14    1    6    6    0    0 -0.30715368237E+01 -0.47944571788E+02 -0.90740317216E+02  0.10267385973E+03  0.00000000000E+00 0.  1.
         -5    1    5    5    0  503 -0.10335286229E+03 -0.68146195903E+02 -0.11751035447E+03  0.17075272053E+03  0.47000000000E+01 0.  1.
<mgrwt>
<rscale>  2 0.30449525E+03</rscale>
<asrwt>0</asrwt>
<pdfrwt beam="1">  1       21 0.11130949E-01 0.30454467E+03</pdfrwt>
<pdfrwt beam="2">  1       21 0.19853636E+00 0.30454467E+03</pdfrwt>
<totfact> 0.85242785E+03</totfact>
</mgrwt>
</event>
<event>
12    1  0.1441827E-001  0.1826237E+03  0.7546771E-02  0.1165961E+00
         21   -1    0    0  504  503  0.00000000000E+00  0.00000000000E+00  0.12271433805E+03  0.12271433805E+03  0.00000000000E+00 0.  1.
         21   -1    0    0  502  504 -0.00000000000E+00 -0.00000000000E+00 -0.32390625491E+03  0.32390625491E+03  0.00000000000E+00 0.  1.
          6    2    1    2  502    0  0.55727938329E+02  0.11810943695E+02 -0.19433327318E+03  0.26667741867E+03  0.17351173754E+03 0.  0.
         24    2    3    3    0    0  0.21534372615E+02 -0.58058159804E+02 -0.87067591529E+02  0.13409194428E+03  0.81027186189E+02 0.  0.
         -6    2    1    2    0  503 -0.55727938329E+02 -0.11810943695E+02 -0.68586436802E+01  0.17994317428E+03  0.17055029603E+03 0.  0.
        -24    2    5    5    0    0 -0.10588485500E+02 -0.25821812345E+02  0.55428903396E+02  0.10161244492E+03  0.80460198937E+02 0.  0.
          4    1    4    4  501    0  0.17116044589E+02 -0.51199358949E+02 -0.10294490166E+03  0.11624106898E+03  0.00000000000E+00 0. -1.
         -3    1    4    4    0  501  0.44183280255E+01 -0.68588008552E+01  0.15877310135E+02  0.17850875296E+02  0.00000000000E+00 0.  1.
          5    1    3    3  502    0  0.34193565714E+02  0.69869103499E+02 -0.10726568165E+03  0.13258547440E+03  0.47000000000E+01 0. -1.
         11    1    6    6    0    0 -0.36224753487E+02 -0.41288828055E+02  0.39856727525E+02  0.67864267596E+02  0.00000000000E+00 0. -1.
        -12    1    6    6    0    0  0.25636267988E+02  0.15467015710E+02  0.15572175870E+02  0.33748177323E+02  0.00000000000E+00 0.  1.
         -5    1    5    5    0  503 -0.45139452829E+02  0.14010868650E+02 -0.62287547076E+02  0.78330729364E+02  0.47000000000E+01 0.  1.
<mgrwt>
<rscale>  2 0.18191680E+03</rscale>
<asrwt>0</asrwt>
<pdfrwt beam="1">  1       21 0.18879129E-01 0.18262372E+03</pdfrwt>
<pdfrwt beam="2">  1       21 0.49831730E-01 0.18262372E+03</pdfrwt>
<totfact> 0.98999062E+04</totfact>
</mgrwt>
</event>
<event>
12    1  0.1441827E-001  0.3053913E+03  0.7546771E-02  0.1082713E+00
         21   -1    0    0  504  503  0.00000000000E+00  0.00000000000E+00  0.18490049624E+03  0.18490049624E+03  0.00000000000E+00 0. -1.
         21   -1    0    0  502  504 -0.00000000000E+00 -0.00000000000E+00 -0.93627893475E+03  0.93627893475E+03  0.00000000000E+00 0.  1.
          6    2    1    2  502    0  0.15189041334E+03  0.19944389536E+03 -0.75760871884E+03  0.81684441727E+03  0.17439973080E+03 0.  0.
         24    2    3    3    0    0  0.23798007285E+02  0.13483983405E+03 -0.44201096251E+03  0.47013793763E+03  0.83113557374E+02 0.  0.
         -6    2    1    2    0  503 -0.15189041334E+03 -0.19944389536E+03  0.62302803282E+01  0.30433501372E+03  0.17243091115E+03 0.  0.
        -24    2    5    5    0    0 -0.11215688608E+03 -0.12987042323E+03 -0.61759565551E+02  0.19914979444E+03  0.80005642053E+02 0.  0.
          4    1    4    4  501    0 -0.76080649992E+01 -0.95907061719E+01 -0.39096639605E+02  0.40968421086E+02  0.00000000000E+00 0. -1.
         -3    1    4    4    0  501  0.31406072285E+02  0.14443054023E+03 -0.40291432290E+03  0.42916951654E+03  0.00000000000E+00 0.  1.
          5    1    3    3  502    0  0.12809240606E+03  0.64604061307E+02 -0.31559775633E+03  0.34670647965E+03  0.47000000000E+01 0. -1.
         11    1    6    6    0    0 -0.49509703266E+02 -0.11254429824E+03 -0.51685731946E+02  0.13337482773E+03  0.00000000000E+00 0. -1.
        -12    1    6    6    0    0 -0.62647182818E+02 -0.17326124991E+02 -0.10073833605E+02  0.65774966711E+02  0.00000000000E+00 0.  1.
         -5    1    5    5    0  503 -0.39733527260E+02 -0.69573472129E+02  0.67989845879E+02  0.10518521928E+03  0.47000000000E+01 0.  1.
<mgrwt>
<rscale>  2 0.30511088E+03</rscale>
<asrwt>0</asrwt>
<pdfrwt beam="1">  1       21 0.28446230E-01 0.30539128E+03</pdfrwt>
<pdfrwt beam="2">  1       21 0.14404291E+00 0.30539128E+03</pdfrwt>
<totfact> 0.36292303E+03</totfact>
</mgrwt>
</event>
<event>
12    1  0.1441827E-001  0.2129746E+03  0.7546771E-02  0.1139585E+00
         21   -1    0    0  504  503  0.00000000000E+00  0.00000000000E+00  0.10003867049E+04  0.10003867049E+04  0.00000000000E+00 0. -1.
         21   -1    0    0  502  504 -0.00000000000E+00 -0.00000000000E+00 -0.45133691490E+02  0.45133691490E+02  0.00000000000E+00 0. -1.
          6    2    1    2  502    0 -0.57720144971E+02 -0.10139364591E+03  0.51236932510E+03  0.55486979224E+03  0.17817371994E+03 0.  0.
         24    2    3    3    0    0 -0.33030762058E+02 -0.70073328819E+02  0.50065084943E+03  0.51303750133E+03  0.80962349759E+02 0.  0.
         -6    2    1    2    0  503  0.57720144971E+02  0.10139364591E+03  0.44288368834E+03  0.49065060417E+03  0.17601070255E+03 0.  0.
        -24    2    5    5    0    0  0.11990605868E+02  0.12862311624E+03  0.37534149143E+03  0.40453049523E+03  0.77948737784E+02 0.  0.
          2    1    4    4  501    0 -0.50895163321E+01 -0.38972946010E+02  0.42321400887E+03  0.42503516443E+03  0.00000000000E+00 0. -1.
         -1    1    4    4    0  501 -0.27941245726E+02 -0.31100382809E+02  0.77436840562E+02  0.88002336900E+02  0.00000000000E+00 0.  1.
          5    1    3    3  502    0 -0.24689382913E+02 -0.31320317089E+02  0.11718475663E+02  0.41832290913E+02  0.47000000000E+01 0. -1.
         11    1    6    6    0    0 -0.31197743348E+02  0.30775837120E+02  0.10255158669E+03  0.11152255052E+03  0.00000000000E+00 0. -1.
        -12    1    6    6    0    0  0.43188349216E+02  0.97847279119E+02  0.27278990473E+03  0.29300794471E+03  0.00000000000E+00 0.  1.
         -5    1    5    5    0  503  0.45729539103E+02 -0.27229470331E+02  0.67542196912E+02  0.86120108946E+02  0.47000000000E+01 0.  1.
<mgrwt>
<rscale>  2 0.21252155E+03</rscale>
<asrwt>0</asrwt>
<pdfrwt beam="1">  1       21 0.15390563E+00 0.21297455E+03</pdfrwt>
<pdfrwt beam="2">  1       21 0.69436456E-02 0.21297455E+03</pdfrwt>
<totfact> 0.42334435E+04</totfact>
</mgrwt>
</event>
<event>
12    1  0.1441827E-001  0.3223310E+03  0.7546771E-02  0.1074682E+00
         21   -1    0    0  504  503  0.00000000000E+00  0.00000000000E+00  0.14464715956E+03  0.14464715956E+03  0.00000000000E+00 0. -1.
         21   -1    0    0  502  504 -0.00000000000E+00 -0.00000000000E+00 -0.74614960029E+03  0.74614960029E+03  0.00000000000E+00 0.  1.
          6    2    1    2  502    0  0.25503671341E+03  0.90985067729E+02 -0.39021064754E+03  0.50612411599E+03  0.17485783822E+03 0.  0.
         24    2    3    3    0    0  0.89518982271E+02  0.97824343803E+02 -0.20765903273E+03  0.25956767804E+03  0.81669181358E+02 0.  0.
         -6    2    1    2    0  503 -0.25503671341E+03 -0.90985067729E+02 -0.21129179319E+03  0.38467264387E+03  0.17322474804E+03 0.  0.
        -24    2    5    5    0    0 -0.24671890644E+03 -0.11698019854E+03 -0.16142339800E+03  0.32762985661E+03  0.82031846728E+02 0.  0.
          2    1    4    4  501    0  0.57324070629E+02  0.34674019446E+02 -0.16185614816E+03  0.17517348371E+03  0.00000000000E+00 0. -1.
         -1    1    4    4    0  501  0.32194911642E+02  0.63150324358E+02 -0.45802884564E+02  0.84394194330E+02  0.00000000000E+00 0.  1.
          5    1    3    3  502    0  0.16551773114E+03 -0.68392760743E+01 -0.18255161482E+03  0.24655643795E+03  0.47000000000E+01 0. -1.
         11    1    6    6    0    0 -0.16718629950E+03 -0.40813208867E+02 -0.75387649082E+02  0.18788367250E+03  0.00000000000E+00 0. -1.
        -12    1    6    6    0    0 -0.79532606944E+02 -0.76166989673E+02 -0.86035748914E+02  0.13974618411E+03  0.00000000000E+00 0.  1.
         -5    1    5    5    0  503 -0.83178069723E+01  0.25995130812E+02 -0.49868395189E+02  0.57042787252E+02  0.47000000000E+01 0.  1.
<mgrwt>
<rscale>  2 0.32211002E+03</rscale>
<asrwt>0</asrwt>
<pdfrwt beam="1">  1       21 0.22253409E-01 0.32233100E+03</pdfrwt>
<pdfrwt beam="2">  1       21 0.11479224E+00 0.32233100E+03</pdfrwt>
<totfact> 0.10346252E+04</totfact>
</mgrwt>
</event>
<event>
12    1  0.1441827E-001  0.2313534E+03  0.7546771E-02  0.1127004E+00
         21   -1    0    0  504  503  0.00000000000E+00  0.00000000000E+00  0.32968323966E+03  0.32968323966E+03  0.00000000000E+00 0.  1.
         21   -1    0    0  502  504 -0.00000000000E+00 -0.00000000000E+00 -0.19930760189E+03  0.19930760189E+03  0.00000000000E+00 0.  1.
          6    2    1    2  502    0  0.13920228420E+03 -0.61209925787E+02 -0.55529777985E+02  0.23792428494E+03  0.17435732901E+03 0.  0.
         24    2    3    3    0    0  0.37236704979E+02 -0.49552566453E+02  0.27921268408E+02  0.10556477256E+03  0.80760726451E+02 0.  0.
         -6    2    1    2    0  503 -0.13920228420E+03  0.61209925787E+02  0.18590541576E+03  0.29106655661E+03  0.16442319126E+03 0.  0.
        -24    2    5    5    0    0 -0.40847299608E+02 -0.21131379486E+02  0.54731610840E+02  0.10753876403E+03  0.80336787717E+02 0.  0.
          4    1    4    4  501    0 -0.36138735791E+00  0.21246884149E+02  0.21393620149E+01  0.21357377102E+02  0.00000000000E+00 0. -1.
         -3    1    4    4    0  501  0.37598092337E+02 -0.70799450602E+02  0.25781906393E+02  0.84207395460E+02  0.00000000000E+00 0.  1.
          5    1    3    3  502    0  0.10196557922E+03 -0.11657359334E+02 -0.83451046393E+02  0.13235951238E+03  0.47000000000E+01 0. -1.
         11    1    6    6    0    0  0.10139064671E+02 -0.10614333690E+02  0.53486489565E+02  0.55464126046E+02  0.00000000000E+00 0. -1.
        -12    1    6    6    0    0 -0.50986364279E+02 -0.10517045796E+02  0.12451212753E+01  0.52074637988E+02  0.00000000000E+00 0.  1.
         -5    1    5    5    0  503 -0.98354984595E+02  0.82341305273E+02  0.13117380492E+03  0.18352779257E+03  0.47000000000E+01 0.  1.
<mgrwt>
<rscale>  2 0.22948298E+03</rscale>
<asrwt>0</asrwt>
<pdfrwt beam="1">  1       21 0.50720498E-01 0.23135343E+03</pdfrwt>
<pdfrwt beam="2">  1       21 0.30662708E-01 0.23135343E+03</pdfrwt>
<totfact> 0.37044595E+04</totfact>
</mgrwt>
</event>
<event>
12    1  0.1441827E-001  0.1891330E+03  0.7546771E-02  0.1159431E+00
         21   -1    0    0  504  503  0.00000000000E+00  0.00000000000E+00  0.61393704319E+02  0.61393704319E+02  0.00000000000E+00 0.  1.
         21   -1    0    0  502  504 -0.00000000000E+00 -0.00000000000E+00 -0.12224329001E+04  0.12224329001E+04  0.00000000000E+00 0.  1.
          6    2    1    2  502    0 -0.63921296451E+02 -0.34152091414E+02 -0.10464118115E+04  0.10633668060E+04  0.17469684408E+03 0.  0.
         24    2    3    3    0    0 -0.28909607294E+02  0.40965419693E+02 -0.73959491980E+03  0.74551911623E+03  0.79272796454E+02 0.  0.
         -6    2    1    2    0  503  0.63921296451E+02  0.34152091414E+02 -0.11462738429E+03  0.22045979845E+03  0.17381250822E+03 0.  0.
        -24    2    5    5    0    0  0.26258075259E+02  0.26784252318E+02 -0.14936564540E+03  0.16848249505E+03  0.68332806358E+02 0.  0.
          2    1    4    4  501    0  0.15055497407E+02 -0.13248650023E+02 -0.27258439518E+03  0.27332114302E+03  0.00000000000E+00 0. -1.
         -1    1    4    4    0  501 -0.43965104701E+02  0.54214069716E+02 -0.46701052463E+03  0.47219797321E+03  0.00000000000E+00 0.  1.
          5    1    3    3  502    0 -0.35011689157E+02 -0.75117511106E+02 -0.30681689168E+03  0.31784768974E+03  0.47000000000E+01 0. -1.
         11    1    6    6    0    0 -0.49746365055E+01 -0.18461690578E+02 -0.18804221045E+02  0.26817527039E+02  0.00000000000E+00 0. -1.
        -12    1    6    6    0    0  0.31232711764E+02  0.45245942896E+02 -0.13056142435E+03  0.14166496801E+03  0.00000000000E+00 0.  1.
         -5    1    5    5    0  503  0.37663221192E+02  0.73678390958E+01  0.34738261107E+02  0.51977303395E+02  0.47000000000E+01 0.  1.
<mgrwt>
<rscale>  2 0.18892852E+03</rscale>
<asrwt>0</asrwt>
<pdfrwt beam="1">  1       21 0.94451859E-02 0.18913298E+03</pdfrwt>
<pdfrwt beam="2">  1       21 0.18806659E+00 0.18913298E+03</pdfrwt>
<totfact> 0.14453636E+04</totfact>
</mgrwt>
</event>
<event>
12    1  0.1441827E-001  0.2214217E+03  0.7546771E-02  0.1133794E+00
         21   -1    0    0  504  503  0.00000000000E+00  0.00000000000E+00  0.70449525779E+03  0.70449525779E+03  0.00000000000E+00 0.  1.
         21   -1    0    0  502  504 -0.00000000000E+00 -0.00000000000E+00 -0.86784266556E+02  0.86784266556E+02  0.00000000000E+00 0. -1.
          6    2    1    2  502    0  0.12413733517E+03  0.37465845390E+02  0.12755269049E+03  0.25553327341E+03  0.17948202533E+03 0.  0.
         24    2    3    3    0    0  0.15863873271E+03  0.16399259048E+02  0.11780990961E+03  0.21368641844E+03  0.79671371341E+02 0.  0.
         -6    2    1    2    0  503 -0.12413733517E+03 -0.37465845390E+02  0.49015830075E+03  0.53574625094E+03  0.17307546923E+03 0.  0.
        -24    2    5    5    0    0 -0.72475402271E+02  0.42255985901E+02  0.21905452952E+03  0.24844176007E+03  0.81854559846E+02 0.  0.
          2    1    4    4  501    0  0.16579514769E+03  0.24268988026E+02  0.11223219505E+03  0.20167568119E+03  0.00000000000E+00 0. -1.
         -1    1    4    4    0  501 -0.71564149833E+01 -0.78697289780E+01  0.55777145597E+01  0.12010737251E+02  0.00000000000E+00 0.  1.
          5    1    3    3  502    0 -0.34501397534E+02  0.21066586342E+02  0.97427808826E+01  0.41846854974E+02  0.47000000000E+01 0. -1.
         11    1    6    6    0    0 -0.85874780123E+02  0.21854862370E+02  0.13983539763E+03  0.16554773118E+03  0.00000000000E+00 0. -1.
        -12    1    6    6    0    0  0.13399377852E+02  0.20401123531E+02  0.79219131892E+02  0.82894028891E+02  0.00000000000E+00 0.  1.
         -5    1    5    5    0  503 -0.51661932901E+02 -0.79721831291E+02  0.27110377123E+03  0.28730449086E+03  0.47000000000E+01 0.  1.
<mgrwt>
<rscale>  2 0.22012012E+03</rscale>
<asrwt>0</asrwt>
<pdfrwt beam="1">  1       21 0.10838388E+00 0.22142169E+03</pdfrwt>
<pdfrwt beam="2">  1       21 0.13351426E-01 0.22142169E+03</pdfrwt>
<totfact> 0.32274440E+04</totfact>
</mgrwt>
</event>
<event>
12    1  0.1441827E-001  0.1993704E+03  0.7546771E-02  0.1150316E+00
         21   -1    0    0  504  503  0.00000000000E+00  0.00000000000E+00  0.11030969944E+03  0.11030969944E+03  0.00000000000E+00 0.  1.
         21   -1    0    0  502  504 -0.00000000000E+00 -0.00000000000E+00 -0.88075741575E+03  0.88075741575E+03  0.00000000000E+00 0. -1.
          6    2    1    2  502    0 -0.42407561462E+02  0.89756976789E+02 -0.76635832584E+03  0.79186717558E+03  0.17289830543E+03 0.  0.
         24    2    3    3    0    0 -0.43258572190E+02 -0.73218642389E+00 -0.18867832445E+03  0.20712339674E+03  0.73680059694E+02 0.  0.
         -6    2    1    2    0  503  0.42407561462E+02 -0.89756976789E+02 -0.40893904719E+01  0.19919993961E+03  0.17265334249E+03 0.  0.
        -24    2    5    5    0    0  0.13892090490E+02 -0.84355359654E+02  0.58530094807E+02  0.13002191211E+03  0.78556404892E+02 0.  0.
          4    1    4    4  501    0 -0.93480037681E+01 -0.33708447819E+02 -0.10886120966E+03  0.11434337584E+03  0.00000000000E+00 0. -1.
         -3    1    4    4    0  501 -0.33910568422E+02  0.32976261395E+02 -0.79817114783E+02  0.92780020902E+02  0.00000000000E+00 0.  1.
          5    1    3    3  502    0  0.85101072771E+00  0.90489163213E+02 -0.57768000140E+03  0.58474377884E+03  0.47000000000E+01 0. -1.
         11    1    6    6    0    0 -0.32809902853E+01  0.65327489371E+01 -0.11761037702E+02  0.13847877591E+02  0.00000000000E+00 0. -1.
        -12    1    6    6    0    0  0.17173080775E+02 -0.90888108591E+02  0.70291132509E+02  0.11617403452E+03  0.00000000000E+00 0.  1.
         -5    1    5    5    0  503  0.28515470972E+02 -0.54016171346E+01 -0.62619485279E+02  0.69178027502E+02  0.47000000000E+01 0.  1.
<mgrwt>
<rscale>  2 0.19931724E+03</rscale>
<asrwt>0</asrwt>
<pdfrwt beam="1">  1       21 0.16970723E-01 0.19937036E+03</pdfrwt>
<pdfrwt beam="2">  1       21 0.13550114E+00 0.19937036E+03</pdfrwt>
<totfact> 0.12120352E+04</totfact>
</mgrwt>
</event>
<event>
12    1  0.1441827E-001  0.1816108E+03  0.7546771E-02  0.1166304E+00
         21   -1    0    0  504  503  0.00000000000E+00  0.00000000000E+00  0.12714751176E+03  0.12714751176E+03  0.00000000000E+00 0.  1.
         21   -1    0    0  502  504 -0.00000000000E+00 -0.00000000000E+00 -0.31420245670E+03  0.31420245670E+03  0.00000000000E+00 0.  1.
          6    2    1    2  502    0 -0.52259271211E+01  0.53480717500E+02 -0.18589688083E+03  0.25973544404E+03  0.17325516769E+03 0.  0.
         24    2    3    3    0    0  0.10021533502E+02  0.64945652755E+02 -0.37417059560E+02  0.10996135710E+03  0.79831665165E+02 0.  0.
         -6    2    1    2    0  503  0.52259271211E+01 -0.53480717500E+02 -0.11580641124E+01  0.18161452442E+03  0.17347909647E+03 0.  0.
        -24    2    5    5    0    0  0.61608413012E+02  0.30478034875E+01 -0.96902156699E+01  0.10118227958E+03  0.79618262738E+02 0.  0.
          4    1    4    4  501    0 -0.17087709870E+02  0.14606008599E+02 -0.46896433018E+02  0.52005776080E+02  0.00000000000E+00 0. -1.
         -3    1    4    4    0  501  0.27109243372E+02  0.50339644156E+02  0.94793734584E+01  0.57955581018E+02  0.00000000000E+00 0.  1.
          5    1    3    3  502    0 -0.15247460623E+02 -0.11464935255E+02 -0.14847982127E+03  0.14977408694E+03  0.47000000000E+01 0. -1.
         13    1    6    6    0    0 -0.87117300461E+01 -0.80553529221E+01 -0.25616764939E+02  0.28231216712E+02  0.00000000000E+00 0. -1.
        -14    1    6    6    0    0  0.70320143058E+02  0.11103156410E+02  0.15926549269E+02  0.72951062868E+02  0.00000000000E+00 0.  1.
         -5    1    5    5    0  503 -0.56382485891E+02 -0.56528520988E+02  0.85321515576E+01  0.80432244843E+02  0.47000000000E+01 0.  1.
<mgrwt>
<rscale>  2 0.18155734E+03</rscale>
<asrwt>0</asrwt>
<pdfrwt beam="1">  1       21 0.19561156E-01 0.18161083E+03</pdfrwt>
<pdfrwt beam="2">  1       21 0.48338839E-01 0.18161083E+03</pdfrwt>
<totfact> 0.98760876E+04</totfact>
</mgrwt>
</event>
<event>
12    1  0.1441827E-001  0.1749083E+03  0.7546771E-02  0.1173701E+00
         21   -1    0    0  504  503  0.00000000000E+00  0.00000000000E+00  0.47176073355E+03  0.47176073355E+03  0.00000000000E+00 0.  1.
         21   -1    0    0  502  504 -0.00000000000E+00 -0.00000000000E+00 -0.63736272543E+02  0.63736272543E+02  0.00000000000E+00 0. -1.
          6    2    1    2  502    0  0.69672488302E+01  0.99539469267E+01  0.21549433614E+03  0.27538020766E+03  0.17102288223E+03 0.  0.
         24    2    3    3    0    0 -0.21087459766E+02 -0.75412529622E+01  0.22572383239E+03  0.24045340868E+03  0.79781211978E+02 0.  0.
         -6    2    1    2    0  503 -0.69672488302E+01 -0.99539469267E+01  0.19253012486E+03  0.26011679843E+03  0.17448574792E+03 0.  0.
        -24    2    5    5    0    0 -0.57733626120E+02 -0.47335905028E+02  0.13917199022E+03  0.17738943665E+03  0.80773200272E+02 0.  0.
          4    1    4    4  501    0 -0.27980451774E+02 -0.39064853329E+02  0.10467374703E+03  0.11517622048E+03  0.00000000000E+00 0. -1.
         -3    1    4    4    0  501  0.68929920082E+01  0.31523600367E+02  0.12105008536E+03  0.12527718820E+03  0.00000000000E+00 0.  1.
          5    1    3    3  502    0  0.28054708596E+02  0.17495199889E+02 -0.10229496243E+02  0.34926798980E+02  0.47000000000E+01 0. -1.
         11    1    6    6    0    0  0.36032484663E+01 -0.29795023006E+02  0.72856101906E+01  0.30883764526E+02  0.00000000000E+00 0. -1.
        -12    1    6    6    0    0 -0.61336874586E+02 -0.17540882022E+02  0.13188638003E+03  0.14650567212E+03  0.00000000000E+00 0.  1.
         -5    1    5    5    0  503  0.50766377290E+02  0.37381958101E+02  0.53358134638E+02  0.82727361777E+02  0.47000000000E+01 0.  1.
<mgrwt>
<rscale>  2 0.17403821E+03</rscale>
<asrwt>0</asrwt>
<pdfrwt beam="1">  1       21 0.72578572E-01 0.17490826E+03</pdfrwt>
<pdfrwt beam="2">  1       21 0.98055807E-02 0.17490826E+03</pdfrwt>
<totfact> 0.14457040E+05</totfact>
</mgrwt>
</event>
<event>
12    1  0.1441827E-001  0.1978055E+03  0.7546771E-02  0.1151839E+00
         21   -1    0    0  504  503  0.00000000000E+00  0.00000000000E+00  0.11234891650E+04  0.11234891650E+04  0.00000000000E+00 0.  1.
         21   -1    0    0  502  504 -0.00000000000E+00 -0.00000000000E+00 -0.40081168975E+02  0.40081168975E+02  0.00000000000E+00 0.  1.
          6    2    1    2  502    0  0.27279338621E+02 -0.91034901403E+02  0.32852447241E+03  0.38347794503E+03  0.17348051696E+03 0.  0.
         24    2    3    3    0    0 -0.34543391001E+02 -0.10783962589E+02  0.18379350881E+03  0.20675385244E+03  0.87507496286E+02 0.  0.
         -6    2    1    2    0  503 -0.27279338621E+02  0.91034901403E+02  0.75488352362E+03  0.78009238894E+03  0.17223090743E+03 0.  0.
        -24    2    5    5    0    0  0.50260716829E+02  0.62462240538E+02  0.40102147812E+03  0.41667899570E+03  0.79846655493E+02 0.  0.
          4    1    4    4  501    0 -0.15663449448E+02  0.19180098769E+02  0.16463689150E+03  0.16648881608E+03  0.00000000000E+00 0. -1.
         -3    1    4    4    0  501 -0.18879941554E+02 -0.29964061358E+02  0.19156617313E+02  0.40265036359E+02  0.00000000000E+00 0.  1.
          5    1    3    3  502    0  0.61822729622E+02 -0.80250938814E+02  0.14473096360E+03  0.17672409259E+03  0.47000000000E+01 0. -1.
         13    1    6    6    0    0  0.70044273954E+01 -0.67209582056E+01  0.26850247576E+01  0.10071873723E+02  0.00000000000E+00 0. -1.
        -14    1    6    6    0    0  0.43256289433E+02  0.69183198743E+02  0.39833645336E+03  0.40660712197E+03  0.00000000000E+00 0.  1.
         -5    1    5    5    0  503 -0.77540055450E+02  0.28572660865E+02  0.35386204550E+03  0.36341339325E+03  0.47000000000E+01 0.  1.
<mgrwt>
<rscale>  2 0.19753115E+03</rscale>
<asrwt>0</asrwt>
<pdfrwt beam="1">  1       21 0.17284446E+00 0.19780547E+03</pdfrwt>
<pdfrwt beam="2">  1       21 0.61663345E-02 0.19780547E+03</pdfrwt>
<totfact> 0.38226108E+04</totfact>
</mgrwt>
</event>
<event>
12    1  0.1441827E-001  0.1889251E+03  0.7546771E-02  0.1160262E+00
         21   -1    0    0  504  503  0.00000000000E+00  0.00000000000E+00  0.27646953075E+03  0.27646953075E+03  0.00000000000E+00 0. -1.
         21   -1    0    0  502  504 -0.00000000000E+00 -0.00000000000E+00 -0.15819051279E+03  0.15819051279E+03  0.00000000000E+00 0.  1.
          6    2    1    2  502    0  0.24488478892E+02  0.67738916308E+02  0.15572347256E+03  0.24206002128E+03  0.17074837515E+03 0.  0.
         24    2    3    3    0    0 -0.27844861533E+02  0.77548511989E+02  0.53499842870E+02  0.12670505973E+03  0.80017691474E+02 0.  0.
         -6    2    1    2    0  503 -0.24488478892E+02 -0.67738916308E+02 -0.37444454599E+02  0.19260002226E+03  0.17465518891E+03 0.  0.
        -24    2    5    5    0    0 -0.18576081376E+02  0.12603685700E+02 -0.68240038484E+02  0.10622671545E+03  0.78252722192E+02 0.  0.
          4    1    4    4  501    0  0.20115091955E+02  0.40034878898E+02 -0.12494282295E+01  0.44821529689E+02  0.00000000000E+00 0. -1.
         -3    1    4    4    0  501 -0.47959953488E+02  0.37513633091E+02  0.54749271099E+02  0.81883530042E+02  0.00000000000E+00 0.  1.
          5    1    3    3  502    0  0.52333340424E+02 -0.98095956810E+01  0.10222362969E+03  0.11535496155E+03  0.47000000000E+01 0. -1.
         11    1    6    6    0    0  0.27568896695E+02  0.14240594187E+02 -0.11544812137E+02  0.33107722287E+02  0.00000000000E+00 0. -1.
        -12    1    6    6    0    0 -0.46144978071E+02 -0.16369084870E+01 -0.56695226346E+02  0.73118993162E+02  0.00000000000E+00 0.  1.
         -5    1    5    5    0  503 -0.59123975156E+01 -0.80342602008E+02  0.30795583884E+02  0.86373306806E+02  0.47000000000E+01 0.  1.
<mgrwt>
<rscale>  2 0.18801711E+03</rscale>
<asrwt>0</asrwt>
<pdfrwt beam="1">  1       21 0.42533774E-01 0.18892507E+03</pdfrwt>
<pdfrwt beam="2">  1       21 0.24337002E-01 0.18892507E+03</pdfrwt>
<totfact> 0.84908462E+04</totfact>
</mgrwt>
</event>
<event>
12    1  0.1441827E-001  0.2225486E+03  0.7546771E-02  0.1132876E+00
         21   -1    0    0  504  503  0.00000000000E+00  0.00000000000E+00  0.65917896700E+03  0.65917896700E+03  0.00000000000E+00 0.  1.
         21   -1    0    0  502  504 -0.00000000000E+00 -0.00000000000E+00 -0.14164478380E+03  0.14164478380E+03  0.00000000000E+00 0.  1.
          6    2    1    2  502    0  0.17729970033E+02 -0.13219957170E+03 -0.20302783841E+02  0.21876149522E+03  0.17220136516E+03 0.  0.
         24    2    3    3    0    0  0.79339290345E+02 -0.77918272286E+02 -0.42357819211E+01  0.13496169590E+03  0.76359265073E+02 0.  0.
         -6    2    1    2    0  503 -0.17729970033E+02  0.13219957170E+03  0.53783696704E+03  0.58206225558E+03  0.17814821823E+03 0.  0.
        -24    2    5    5    0    0 -0.68782559682E+02  0.30507994282E+02  0.30708131199E+03  0.32473404848E+03  0.74104600666E+02 0.  0.
          2    1    4    4  501    0  0.74030219471E+02 -0.44368346301E+02 -0.31011263520E+02  0.91709988625E+02  0.00000000000E+00 0. -1.
         -1    1    4    4    0  501  0.53090708737E+01 -0.33549925985E+02  0.26775481599E+02  0.43251707272E+02  0.00000000000E+00 0.  1.
          5    1    3    3  502    0 -0.61609320312E+02 -0.54281299418E+02 -0.16067001919E+02  0.83799799322E+02  0.47000000000E+01 0. -1.
         11    1    6    6    0    0 -0.14404793110E+02  0.18325562599E+02  0.22076629977E+03  0.22199343103E+03  0.00000000000E+00 0. -1.
        -12    1    6    6    0    0 -0.54377766572E+02  0.12182431683E+02  0.86315012222E+02  0.10274061745E+03  0.00000000000E+00 0.  1.
         -5    1    5    5    0  503  0.51052589649E+02  0.10169157742E+03  0.23075565505E+03  0.25732820709E+03  0.47000000000E+01 0.  1.
<mgrwt>
<rscale>  2 0.22135621E+03</rscale>
<asrwt>0</asrwt>
<pdfrwt beam="1">  1       21 0.10141215E+00 0.22254857E+03</pdfrwt>
<pdfrwt beam="2">  1       21 0.21791506E-01 0.22254857E+03</pdfrwt>
<totfact> 0.15312748E+04</totfact>
</mgrwt>
</event>
<event>
12    1  0.1441827E-001  0.1969437E+03  0.7546771E-02  0.1152412E+00
         21   -1    0    0  504  503  0.00000000000E+00  0.00000000000E+00  0.16270053449E+03  0.16270053449E+03  0.00000000000E+00 0.  1.
         21   -1    0    0  502  504 -0.00000000000E+00 -0.00000000000E+00 -0.33355187679E+03  0.33355187679E+03  0.00000000000E+00 0.  1.
          6    2    1    2  502    0  0.69811777645E+02 -0.58744228454E+02 -0.21827129657E+03  0.29398837047E+03  0.17453433585E+03 0.  0.
         24    2    3    3    0    0  0.92617960092E+01 -0.35149948346E+02 -0.29038180930E+02  0.93852785465E+02  0.81509690551E+02 0.  0.
         -6    2    1    2    0  503 -0.69811777645E+02  0.58744228454E+02  0.47419954273E+02  0.20226404080E+03  0.17417669610E+03 0.  0.
        -24    2    5    5    0    0 -0.22842209330E+02 -0.10943078093E+02  0.75059509194E+02  0.11367230282E+03  0.81522665706E+02 0.  0.
          2    1    4    4  501    0 -0.15007797502E+02  0.98153178048E+01 -0.37960288717E+02  0.41982829454E+02  0.00000000000E+00 0. -1.
         -1    1    4    4    0  501  0.24269593511E+02 -0.44965266151E+02  0.89221077868E+01  0.51869956011E+02  0.00000000000E+00 0.  1.
          5    1    3    3  502    0  0.60549981636E+02 -0.23594280108E+02 -0.18923311564E+03  0.20013558501E+03  0.47000000000E+01 0. -1.
         11    1    6    6    0    0 -0.39721897840E+02  0.15060852063E+02  0.70537812351E+02  0.82342221273E+02  0.00000000000E+00 0. -1.
        -12    1    6    6    0    0  0.16879688510E+02 -0.26003930155E+02  0.45216968424E+01  0.31330081552E+02  0.00000000000E+00 0.  1.
         -5    1    5    5    0  503 -0.46969568315E+02  0.69687306546E+02 -0.27639554921E+02  0.88591737976E+02  0.47000000000E+01 0.  1.
<mgrwt>
<rscale>  2 0.19686439E+03</rscale>
<asrwt>0</asrwt>
<pdfrwt beam="1">  1       21 0.25030852E-01 0.19694365E+03</pdfrwt>
<pdfrwt beam="2">  1       21 0.51315673E-01 0.19694365E+03</pdfrwt>
<totfact> 0.54427816E+04</totfact>
</mgrwt>
</event>
<event>
12    1  0.1441827E-001  0.2674680E+03  0.7546771E-02  0.1102891E+00
         21   -1    0    0  504  503  0.00000000000E+00  0.00000000000E+00  0.40020270676E+03  0.40020270676E+03  0.00000000000E+00 0.  1.
         21   -1    0    0  502  504 -0.00000000000E+00 -0.00000000000E+00 -0.20856709212E+03  0.20856709212E+03  0.00000000000E+00 0.  1.
          6    2    1    2  502    0 -0.16894732253E+03  0.11140985223E+03 -0.20450539731E+02  0.26824872946E+03  0.17488225558E+03 0.  0.
         24    2    3    3    0    0 -0.16955067962E+03  0.85022357400E+02  0.33070405345E+02  0.20838851325E+03  0.79723814045E+02 0.  0.
         -6    2    1    2    0  503  0.16894732253E+03 -0.11140985223E+03  0.21208615438E+03  0.34052106942E+03  0.17325908021E+03 0.  0.
        -24    2    5    5    0    0  0.40752210062E+02 -0.97155723904E+02  0.75861978307E+02  0.15286104922E+03  0.80693762476E+02 0.  0.
          2    1    4    4  501    0 -0.37801645643E+02  0.23793352075E+02 -0.25857072525E+02  0.51610814912E+02  0.00000000000E+00 0. -1.
         -1    1    4    4    0  501 -0.13174903398E+03  0.61229005325E+02  0.58927477870E+02  0.15677769834E+03  0.00000000000E+00 0.  1.
          5    1    3    3  502    0  0.60335708769E+00  0.26387494829E+02 -0.53520945075E+02  0.59860216212E+02  0.47000000000E+01 0. -1.
         13    1    6    6    0    0  0.44131002237E+02 -0.62446931669E+02  0.87400093517E+02  0.11612898424E+03  0.00000000000E+00 0. -1.
        -14    1    6    6    0    0 -0.33787921751E+01 -0.34708792235E+02 -0.11538115210E+02  0.36732064978E+02  0.00000000000E+00 0.  1.
         -5    1    5    5    0  503  0.12819511247E+03 -0.14254128325E+02  0.13622417607E+03  0.18766002020E+03  0.47000000000E+01 0.  1.
<mgrwt>
<rscale>  2 0.26720304E+03</rscale>
<asrwt>0</asrwt>
<pdfrwt beam="1">  1       21 0.61569647E-01 0.26746805E+03</pdfrwt>
<pdfrwt beam="2">  1       21 0.32087245E-01 0.26746805E+03</pdfrwt>
<totfact> 0.22030396E+04</totfact>
</mgrwt>
</event>
<event>
12    1  0.1441827E-001  0.3098457E+03  0.7546771E-02  0.1080550E+00
         21   -1    0    0  504  503  0.00000000000E+00  0.00000000000E+00  0.22480696546E+03  0.22480696546E+03  0.00000000000E+00 0. -1.
         21   -1    0    0  502  504 -0.00000000000E+00 -0.00000000000E+00 -0.48393863853E+03  0.48393863853E+03  0.00000000000E+00 0. -1.
          6    2    1    2  502    0 -0.17311238740E+03  0.18842670075E+03 -0.25244800904E+03  0.39882779529E+03  0.17280362498E+03 0.  0.
         24    2    3    3    0    0 -0.72548873609E+02  0.36591603113E+02 -0.42874642631E+02  0.12114091572E+03  0.78959495951E+02 0.  0.
         -6    2    1    2    0  503  0.17311238740E+03 -0.18842670075E+03 -0.66836640211E+01  0.30991780869E+03  0.17473367322E+03 0.  0.
        -24    2    5    5    0    0  0.19931306441E+03 -0.15485015731E+03  0.56068492467E+01  0.26534195805E+03  0.81674041643E+02 0.  0.
          2    1    4    4  501    0  0.25203440824E+01  0.37454927525E+02 -0.20658705378E+02  0.42848638696E+02  0.00000000000E+00 0. -1.
         -1    1    4    4    0  501 -0.75069217691E+02 -0.86332441229E+00 -0.22215937253E+02  0.78292277026E+02  0.00000000000E+00 0.  1.
          5    1    3    3  502    0 -0.10056351379E+03  0.15183509763E+03 -0.20957336641E+03  0.27768687957E+03  0.47000000000E+01 0. -1.
         11    1    6    6    0    0  0.40168465114E+02 -0.74173525593E+02  0.18826712209E+02  0.86427209726E+02  0.00000000000E+00 0. -1.
        -12    1    6    6    0    0  0.15914459929E+03 -0.80676631721E+02 -0.13219862962E+02  0.17891474832E+03  0.00000000000E+00 0.  1.
         -5    1    5    5    0  503 -0.26200677009E+02 -0.33576543431E+02 -0.12290513268E+02  0.44575850647E+02  0.47000000000E+01 0.  1.
<mgrwt>
<rscale>  2 0.30957430E+03</rscale>
<asrwt>0</asrwt>
<pdfrwt beam="1">  1       21 0.34585687E-01 0.30984573E+03</pdfrwt>
<pdfrwt beam="2">  1       21 0.74452098E-01 0.30984573E+03</pdfrwt>
<totfact> 0.12230284E+04</totfact>
</mgrwt>
</event>
<event>
12    1  0.1441827E-001  0.1897853E+03  0.7546771E-02  0.1159758E+00
         21   -1    0    0  504  503  0.00000000000E+00  0.00000000000E+00  0.10474712598E+04  0.10474712598E+04  0.00000000000E+00 0. -1.
         21   -1    0    0  502  504 -0.00000000000E+00 -0.00000000000E+00 -0.49301010750E+02  0.49301010750E+02  0.00000000000E+00 0. -1.
          6    2    1    2  502    0 -0.11911534342E+01  0.65786527373E+02  0.18446514875E+03  0.26122785912E+03  0.17286791850E+03 0.  0.
         24    2    3    3    0    0 -0.39028399273E+02  0.34421377248E+02  0.18888404199E+03  0.21165925582E+03  0.80090024947E+02 0.  0.
         -6    2    1    2    0  503  0.11911534342E+01 -0.65786527373E+02  0.81370510028E+03  0.83554441141E+03  0.17801457016E+03 0.  0.
        -24    2    5    5    0    0  0.67839409262E+02 -0.56334615975E+02  0.46009815167E+03  0.47555650504E+03  0.81779617891E+02 0.  0.
          4    1    4    4  501    0  0.52512099060E+01  0.29686620043E+02  0.18097394797E+02  0.35162285385E+02  0.00000000000E+00 0. -1.
         -3    1    4    4    0  501 -0.44279609179E+02  0.47347572053E+01  0.17078664719E+03  0.17649697044E+03  0.00000000000E+00 0.  1.
          5    1    3    3  502    0  0.37837245839E+02  0.31365150125E+02 -0.44188932402E+01  0.49568603294E+02  0.47000000000E+01 0. -1.
         13    1    6    6    0    0 -0.75073634346E+01 -0.29908894791E+02  0.58836111521E+02  0.66427332569E+02  0.00000000000E+00 0. -1.
        -14    1    6    6    0    0  0.75346772696E+02 -0.26425721184E+02  0.40126204015E+03  0.40912917247E+03  0.00000000000E+00 0.  1.
         -5    1    5    5    0  503 -0.66648255828E+02 -0.94519113981E+01  0.35360694860E+03  0.35998790637E+03  0.47000000000E+01 0.  1.
<mgrwt>
<rscale>  2 0.18856898E+03</rscale>
<asrwt>0</asrwt>
<pdfrwt beam="1">  1       21 0.16114941E+00 0.18978533E+03</pdfrwt>
<pdfrwt beam="2">  1       21 0.75847716E-02 0.18978533E+03</pdfrwt>
<totfact> 0.32560094E+04</totfact>
</mgrwt>
</event>
<event>
12    1  0.1441827E-001  0.4445809E+03  0.7546771E-02  0.1029374E+00
         21   -1    0    0  504  503  0.00000000000E+00  0.00000000000E+00  0.25617115559E+03  0.25617115559E+03  0.00000000000E+00 0. -1.
         21   -1    0    0  502  504 -0.00000000000E+00 -0.00000000000E+00 -0.10420049508E+04  0.10420049508E+04  0.00000000000E+00 0. -1.
          6    2    1    2  502    0 -0.27814560711E+03 -0.30297423842E+03 -0.72382273223E+03  0.84929137197E+03  0.16798249582E+03 0.  0.
         24    2    3    3    0    0 -0.64756421112E+02 -0.95330920604E+02 -0.30062790082E+03  0.33182963670E+03  0.80326798394E+02 0.  0.
         -6    2    1    2    0  503  0.27814560711E+03  0.30297423842E+03 -0.62011062977E+02  0.44888473443E+03  0.16880096257E+03 0.  0.
        -24    2    5    5    0    0  0.23417932854E+03  0.22705942455E+03 -0.10431249917E+03  0.35137784174E+03  0.78672422054E+02 0.  0.
          2    1    4    4  501    0  0.86556641591E+01 -0.54106009588E+02 -0.14273698406E+03  0.15289286253E+03  0.00000000000E+00 0. -1.
         -1    1    4    4    0  501 -0.73412085271E+02 -0.41224911016E+02 -0.15789091676E+03  0.17893677417E+03  0.00000000000E+00 0.  1.
          5    1    3    3  502    0 -0.21338918600E+03 -0.20764331782E+03 -0.42319483141E+03  0.51746173527E+03  0.47000000000E+01 0. -1.
         11    1    6    6    0    0  0.22558648976E+03  0.18369836194E+03 -0.84551188995E+02  0.30295751535E+03  0.00000000000E+00 0. -1.
        -12    1    6    6    0    0  0.85928387799E+01  0.43361062607E+02 -0.19761310171E+02  0.48420326396E+02  0.00000000000E+00 0.  1.
         -5    1    5    5    0  503  0.43966278568E+02  0.75914813878E+02  0.42301436188E+02  0.97506892684E+02  0.47000000000E+01 0.  1.
<mgrwt>
<rscale>  2 0.44450330E+03</rscale>
<asrwt>0</asrwt>
<pdfrwt beam="1">  1       21 0.39410947E-01 0.44458085E+03</pdfrwt>
<pdfrwt beam="2">  1       21 0.16030845E+00 0.44458085E+03</pdfrwt>
<totfact> 0.13199959E+03</totfact>
</mgrwt>
</event>
<event>
12    1  0.1441827E-001  0.2043219E+03  0.7546771E-02  0.1146196E+00
         21   -1    0    0  504  503  0.00000000000E+00  0.00000000000E+00  0.23765182637E+03  0.23765182637E+03  0.00000000000E+00 0. -1.
         21   -1    0    0  502  504 -0.00000000000E+00 -0.00000000000E+00 -0.21096189518E+03  0.21096189518E+03  0.00000000000E+00 0.  1.
          6    2    1    2  502    0 -0.10476611836E+03 -0.26172644774E+02  0.10538671338E+03  0.22989951497E+03  0.17345454948E+03 0.  0.
         24    2    3    3    0    0 -0.18061556590E+02  0.17144593069E+02  0.31838893731E+01  0.88968427690E+02  0.85352721551E+02 0.  0.
         -6    2    1    2    0  503  0.10476611836E+03  0.26172644774E+02 -0.78696782190E+02  0.21871420658E+03  0.17315245808E+03 0.  0.
        -24    2    5    5    0    0 -0.55874708339E+01  0.42406804812E+02 -0.10166124621E+02  0.87718009578E+02  0.75904823232E+02 0.  0.
          4    1    4    4  501    0 -0.21248576466E+02  0.39042580171E+02 -0.26647331457E+02  0.51825720854E+02  0.00000000000E+00 0. -1.
         -3    1    4    4    0  501  0.31870198767E+01 -0.21897987102E+02  0.29831220830E+02  0.37142706835E+02  0.00000000000E+00 0.  1.
          5    1    3    3  502    0 -0.86704561773E+02 -0.43317237843E+02  0.10220282401E+03  0.14093108728E+03  0.47000000000E+01 0. -1.
         13    1    6    6    0    0  0.34474069414E+02  0.16078010447E+02 -0.11566814282E+02  0.39758710675E+02  0.00000000000E+00 0. -1.
        -14    1    6    6    0    0 -0.40061540248E+02  0.26328794366E+02  0.14006896608E+01  0.47959298904E+02  0.00000000000E+00 0.  1.
         -5    1    5    5    0  503  0.11035358920E+03 -0.16234160038E+02 -0.68530657569E+02  0.13099619700E+03  0.47000000000E+01 0.  1.
<mgrwt>
<rscale>  2 0.20425774E+03</rscale>
<asrwt>0</asrwt>
<pdfrwt beam="1">  1       21 0.36561819E-01 0.20432187E+03</pdfrwt>
<pdfrwt beam="2">  1       21 0.32455676E-01 0.20432187E+03</pdfrwt>
<totfact> 0.65555692E+04</totfact>
</mgrwt>
</event>
<event>
12    1  0.1441827E-001  0.2680959E+03  0.7546771E-02  0.1102395E+00
         21   -1    0    0  504  503  0.00000000000E+00  0.00000000000E+00  0.20583296122E+04  0.20583296122E+04  0.00000000000E+00 0.  1.
         21   -1    0    0  502  504 -0.00000000000E+00 -0.00000000000E+00 -0.47092609673E+02  0.47092609673E+02  0.00000000000E+00 0. -1.
          6    2    1    2  502    0 -0.20441793123E+03 -0.13184975528E+02  0.15414602357E+04  0.15646006029E+04  0.17295911138E+03 0.  0.
         24    2    3    3    0    0 -0.15556827380E+03 -0.53707492576E+02  0.13475464055E+04  0.13605098707E+04  0.89553396493E+02 0.  0.
         -6    2    1    2    0  503  0.20441793123E+03  0.13184975528E+02  0.46977676682E+03  0.54082161895E+03  0.17273470611E+03 0.  0.
        -24    2    5    5    0    0  0.69760080335E+02  0.24911620125E+02  0.32397076942E+03  0.34194545175E+03  0.80514439164E+02 0.  0.
          4    1    4    4  501    0 -0.10909289462E+03 -0.74672462484E+02  0.10880627889E+04  0.10960647193E+04  0.00000000000E+00 0. -1.
         -3    1    4    4    0  501 -0.46475379188E+02  0.20964969908E+02  0.25948361662E+03  0.26444515146E+03  0.00000000000E+00 0.  1.
          5    1    3    3  502    0 -0.48849657422E+02  0.40522517049E+02  0.19391383021E+03  0.20409073218E+03  0.47000000000E+01 0. -1.
         13    1    6    6    0    0  0.48611769368E+02  0.97845315596E+01  0.65412693781E+02  0.82083260697E+02  0.00000000000E+00 0. -1.
        -14    1    6    6    0    0  0.21148310967E+02  0.15127088565E+02  0.25855807563E+03  0.25986219106E+03  0.00000000000E+00 0.  1.
         -5    1    5    5    0  503  0.13465785089E+03 -0.11726644597E+02  0.14580599740E+03  0.19887616720E+03  0.47000000000E+01 0.  1.
<mgrwt>
<rscale>  2 0.26805967E+03</rscale>
<asrwt>0</asrwt>
<pdfrwt beam="1">  1       21 0.31666603E+00 0.26809586E+03</pdfrwt>
<pdfrwt beam="2">  1       21 0.72450184E-02 0.26809586E+03</pdfrwt>
<totfact> 0.36038668E+03</totfact>
</mgrwt>
</event>
<event>
12    1  0.1441827E-001  0.1886796E+03  0.7546771E-02  0.1160501E+00
         21   -1    0    0  504  503  0.00000000000E+00  0.00000000000E+00  0.49371756241E+02  0.49371756241E+02  0.00000000000E+00 0. -1.
         21   -1    0    0  502  504 -0.00000000000E+00 -0.00000000000E+00 -0.73147861435E+03  0.73147861435E+03  0.00000000000E+00 0. -1.
          6    2    1    2  502    0  0.64305466226E+02  0.54370137039E+01 -0.41555622085E+03  0.45638467626E+03  0.17729987571E+03 0.  0.
         24    2    3    3    0    0  0.79583973600E+02 -0.34901129510E+02 -0.38950577482E+03  0.40577524705E+03  0.73396899187E+02 0.  0.
         -6    2    1    2    0  503 -0.64305466226E+02 -0.54370137039E+01 -0.26655063725E+03  0.32446569433E+03  0.17338970694E+03 0.  0.
        -24    2    5    5    0    0 -0.97477291169E+02  0.17474548503E+02 -0.24888383712E+03  0.28019927952E+03  0.82227062023E+02 0.  0.
          4    1    4    4  501    0  0.88126277951E+02 -0.14530794903E+02 -0.27443168633E+03  0.28860030376E+03  0.00000000000E+00 0. -1.
         -3    1    4    4    0  501 -0.85423043511E+01 -0.20370334607E+02 -0.11507408849E+03  0.11717494330E+03  0.00000000000E+00 0.  1.
          5    1    3    3  502    0 -0.15278507374E+02  0.40338143213E+02 -0.26050446039E+02  0.50609429204E+02  0.47000000000E+01 0. -1.
         13    1    6    6    0    0 -0.80315771585E+02  0.27620056635E+02 -0.10551395474E+03  0.13544993665E+03  0.00000000000E+00 0. -1.
        -14    1    6    6    0    0 -0.17161519584E+02 -0.10145508132E+02 -0.14336988238E+03  0.14474934287E+03  0.00000000000E+00 0.  1.
         -5    1    5    5    0  503  0.33171824943E+02 -0.22911562207E+02 -0.17666800133E+02  0.44266414806E+02  0.47000000000E+01 0.  1.
<mgrwt>
<rscale>  2 0.18775548E+03</rscale>
<asrwt>0</asrwt>
<pdfrwt beam="1">  1       21 0.75956544E-02 0.18867962E+03</pdfrwt>
<pdfrwt beam="2">  1       21 0.11253518E+00 0.18867962E+03</pdfrwt>
<totfact> 0.81302742E+04</totfact>
</mgrwt>
</event>
<event>
12    1  0.1441827E-001  0.1908286E+03  0.7546771E-02  0.1157868E+00
         21   -1    0    0  504  503  0.00000000000E+00  0.00000000000E+00  0.35499514063E+03  0.35499514063E+03  0.00000000000E+00 0. -1.
         21   -1    0    0  502  504 -0.00000000000E+00 -0.00000000000E+00 -0.12986032572E+03  0.12986032572E+03  0.00000000000E+00 0. -1.
          6    2    1    2  502    0 -0.74061116802E+02  0.24181610093E+02  0.55995039868E+00  0.19015322476E+03  0.17345932104E+03 0.  0.
         24    2    3    3    0    0 -0.76614028307E+02  0.54839226956E+02  0.50726009853E+02  0.13111823217E+03  0.75774748997E+02 0.  0.
         -6    2    1    2    0  503  0.74061116802E+02 -0.24181610093E+02  0.22457486451E+03  0.29470224159E+03  0.17420029317E+03 0.  0.
        -24    2    5    5    0    0  0.46598752367E+02  0.37211270584E+02  0.19788228336E+03  0.22219120004E+03  0.81580689664E+02 0.  0.
          4    1    4    4  501    0 -0.10669960385E+02  0.50159642909E+02  0.37921030437E+02  0.63779639234E+02  0.00000000000E+00 0. -1.
         -3    1    4    4    0  501 -0.65944067922E+02  0.46795840467E+01  0.12804979416E+02  0.67338592937E+02  0.00000000000E+00 0.  1.
          5    1    3    3  502    0  0.25529115049E+01 -0.30657616863E+02 -0.50166059455E+02  0.59034992590E+02  0.47000000000E+01 0. -1.
         11    1    6    6    0    0  0.64697033579E+02  0.44501117624E+02  0.17686720525E+03  0.19351502246E+03  0.00000000000E+00 0. -1.
        -12    1    6    6    0    0 -0.18098281212E+02 -0.72898470401E+01  0.21015078113E+02  0.28676177583E+02  0.00000000000E+00 0.  1.
         -5    1    5    5    0  503  0.27462364435E+02 -0.61392880676E+02  0.26692581147E+02  0.72511041548E+02  0.47000000000E+01 0.  1.
<mgrwt>
<rscale>  2 0.19065930E+03</rscale>
<asrwt>0</asrwt>
<pdfrwt beam="1">  1       21 0.54614637E-01 0.19082857E+03</pdfrwt>
<pdfrwt beam="2">  1       21 0.19978512E-01 0.19082857E+03</pdfrwt>
<totfact> 0.73284326E+04</totfact>
</mgrwt>
</event>
<event>
12    1  0.1441827E-001  0.1935936E+03  0.7546771E-02  0.1155886E+00
         21   -1    0    0  504  503  0.00000000000E+00  0.00000000000E+00  0.24339599762E+03  0.24339599762E+03  0.00000000000E+00 0. -1.
         21   -1    0    0  502  504 -0.00000000000E+00 -0.00000000000E+00 -0.16217748797E+03  0.16217748797E+03  0.00000000000E+00 0.  1.
          6    2    1    2  502    0 -0.77084465893E+01  0.98127062486E+02  0.92325755966E+02  0.21448196461E+03  0.16670371138E+03 0.  0.
         24    2    3    3    0    0  0.57290087399E+02  0.61323848951E+02  0.72304549382E+02  0.13700793890E+03  0.80625423380E+02 0.  0.
         -6    2    1    2    0  503  0.77084465893E+01 -0.98127062486E+02 -0.11107246322E+02  0.19109152098E+03  0.16341437492E+03 0.  0.
        -24    2    5    5    0    0  0.28615958612E+02 -0.23765847977E+02  0.39890863285E+02  0.98411364177E+02  0.81913533730E+02 0.  0.
          2    1    4    4  501    0  0.13060185723E+02  0.68784947058E+02  0.54594732686E+02  0.88783569594E+02  0.00000000000E+00 0. -1.
         -1    1    4    4    0  501  0.44229901676E+02 -0.74610981069E+01  0.17709816696E+02  0.48224369303E+02  0.00000000000E+00 0.  1.
          5    1    3    3  502    0 -0.64998533988E+02  0.36803213535E+02  0.20021206584E+02  0.77474025713E+02  0.47000000000E+01 0. -1.
         11    1    6    6    0    0 -0.15250130890E+02 -0.32536073998E+02 -0.34842008780E+01  0.36101277804E+02  0.00000000000E+00 0. -1.
        -12    1    6    6    0    0  0.43866089502E+02  0.87702260209E+01  0.43375064163E+02  0.62310086373E+02  0.00000000000E+00 0.  1.
         -5    1    5    5    0  503 -0.20907512022E+02 -0.74361214509E+02 -0.50998109607E+02  0.92680156807E+02  0.47000000000E+01 0.  1.
<mgrwt>
<rscale>  2 0.19288339E+03</rscale>
<asrwt>0</asrwt>
<pdfrwt beam="1">  1       21 0.37445538E-01 0.19359356E+03</pdfrwt>
<pdfrwt beam="2">  1       21 0.24950383E-01 0.19359356E+03</pdfrwt>
<totfact> 0.10454708E+05</totfact>
</mgrwt>
</event>
<event>
12    1  0.1441827E-001  0.2044182E+03  0.7546771E-02  0.1146792E+00
         21   -1    0    0  504  503  0.00000000000E+00  0.00000000000E+00  0.56131638612E+02  0.56131638612E+02  0.00000000000E+00 0. -1.
         21   -1    0    0  502  504 -0.00000000000E+00 -0.00000000000E+00 -0.11066119186E+04  0.11066119186E+04  0.00000000000E+00 0. -1.
          6    2    1    2  502    0 -0.91580585234E+02 -0.59368061063E+02 -0.86061661190E+03  0.88375431557E+03  0.16866880966E+03 0.  0.
         24    2    3    3    0    0 -0.80344164786E+02  0.70389152835E+01 -0.33329810693E+03  0.35213129187E+03  0.80025542709E+02 0.  0.
         -6    2    1    2    0  503  0.91580585234E+02  0.59368061063E+02 -0.18986366810E+03  0.27898924165E+03  0.17284447988E+03 0.  0.
        -24    2    5    5    0    0  0.57988782521E+02  0.10147500221E+03 -0.97402931111E+02  0.17187957081E+03  0.79971125430E+02 0.  0.
          4    1    4    4  501    0 -0.27546293337E+02 -0.35756369232E+02 -0.14975051986E+03  0.15640503322E+03  0.00000000000E+00 0. -1.
         -3    1    4    4    0  501 -0.52797871450E+02  0.42795284515E+02 -0.18354758707E+03  0.19572625865E+03  0.00000000000E+00 0.  1.
          5    1    3    3  502    0 -0.11236420448E+02 -0.66406976346E+02 -0.52731850496E+03  0.53162302370E+03  0.47000000000E+01 0. -1.
         11    1    6    6    0    0 -0.61965596687E-01 -0.47199625318E+01  0.93665717690E+01  0.10488782233E+02  0.00000000000E+00 0. -1.
        -12    1    6    6    0    0  0.58050748118E+02  0.10619496474E+03 -0.10676950288E+03  0.16139078858E+03  0.00000000000E+00 0.  1.
         -5    1    5    5    0  503  0.33591802713E+02 -0.42106941146E+02 -0.92460736993E+02  0.10710967084E+03  0.47000000000E+01 0.  1.
<mgrwt>
<rscale>  2 0.20353284E+03</rscale>
<asrwt>0</asrwt>
<pdfrwt beam="1">  1       21 0.86356368E-02 0.20441816E+03</pdfrwt>
<pdfrwt beam="2">  1       21 0.17024798E+00 0.20441816E+03</pdfrwt>
<totfact> 0.22137813E+04</totfact>
</mgrwt>
</event>
<event>
12    1  0.1441827E-001  0.1791281E+03  0.7546771E-02  0.1168755E+00
         21   -1    0    0  504  503  0.00000000000E+00  0.00000000000E+00  0.26265221546E+03  0.26265221546E+03  0.00000000000E+00 0. -1.
         21   -1    0    0  502  504 -0.00000000000E+00 -0.00000000000E+00 -0.21448484632E+03  0.21448484632E+03  0.00000000000E+00 0. -1.
          6    2    1    2  502    0  0.31241785924E+02  0.34732534420E+02  0.18083332289E+03  0.25423093807E+03  0.17248269788E+03 0.  0.
         24    2    3    3    0    0  0.28272253194E+02 -0.45075541484E+02  0.80691514503E+02  0.12605676403E+03  0.80920099503E+02 0.  0.
         -6    2    1    2    0  503 -0.31241785924E+02 -0.34732534420E+02 -0.13266595376E+03  0.22290612371E+03  0.17292913742E+03 0.  0.
        -24    2    5    5    0    0 -0.21181744764E+02 -0.25160360929E+01 -0.16048836991E+03  0.17891426046E+03  0.76149845504E+02 0.  0.
          2    1    4    4  501    0 -0.18315737503E+02 -0.42951220604E+02  0.23538768087E+02  0.52290985788E+02  0.00000000000E+00 0. -1.
         -1    1    4    4    0  501  0.46587990697E+02 -0.21243208793E+01  0.57152746416E+02  0.73765778240E+02  0.00000000000E+00 0.  1.
          5    1    3    3  502    0  0.29695327304E+01  0.79808075904E+02  0.10014180839E+03  0.12817417404E+03  0.47000000000E+01 0. -1.
         11    1    6    6    0    0 -0.67915354605E+01 -0.75913475264E+01 -0.16311338857E+03  0.16343112018E+03  0.00000000000E+00 0. -1.
        -12    1    6    6    0    0 -0.14390209304E+02  0.50753114335E+01  0.26250186631E+01  0.15483140280E+02  0.00000000000E+00 0.  1.
         -5    1    5    5    0  503 -0.10060041160E+02 -0.32216498327E+02  0.27822416150E+02  0.43991863259E+02  0.47000000000E+01 0.  1.
<mgrwt>
<rscale>  2 0.17902029E+03</rscale>
<asrwt>0</asrwt>
<pdfrwt beam="1">  1       21 0.40408033E-01 0.17912812E+03</pdfrwt>
<pdfrwt beam="2">  1       21 0.32997669E-01 0.17912812E+03</pdfrwt>
<totfact> 0.52505457E+04</totfact>
</mgrwt>
</event>
<event>
12    1  0.1441827E-001  0.2200619E+03  0.7546771E-02  0.1135172E+00
         21   -1    0    0  504  503  0.00000000000E+00  0.00000000000E+00  0.17917924854E+03  0.17917924854E+03  0.00000000000E+00 0. -1.
         21   -1    0    0  502  504 -0.00000000000E+00 -0.00000000000E+00 -0.35138072398E+03  0.35138072398E+03  0.00000000000E+00 0.  1.
          6    2    1    2  502    0 -0.12201848976E+03 -0.53530301387E+02 -0.21907057151E+03  0.30556232572E+03  0.16619992355E+03 0.  0.
         24    2    3    3    0    0 -0.54782209986E+02  0.32778822758E+02 -0.54744094215E+02  0.10809014193E+03  0.67904500438E+02 0.  0.
         -6    2    1    2    0  503  0.12201848976E+03  0.53530301387E+02  0.46869096067E+02  0.22499764680E+03  0.17513772834E+03 0.  0.
        -24    2    5    5    0    0  0.14942118106E+03  0.34060810819E+02  0.89609589579E+01  0.17411459056E+03  0.82150859263E+02 0.  0.
          2    1    4    4  501    0 -0.44422009024E+02  0.97200498727E+01  0.24701817042E+01  0.45540048890E+02  0.00000000000E+00 0. -1.
         -1    1    4    4    0  501 -0.10360200961E+02  0.23058772886E+02 -0.57214275919E+02  0.62550093044E+02  0.00000000000E+00 0.  1.
          5    1    3    3  502    0 -0.67236279773E+02 -0.86309124145E+02 -0.16432647730E+03  0.19747218379E+03  0.47000000000E+01 0. -1.
         11    1    6    6    0    0  0.10919738025E+03  0.61299216288E+02  0.41029227279E+01  0.12529363809E+03  0.00000000000E+00 0. -1.
        -12    1    6    6    0    0  0.40223800805E+02 -0.27238405469E+02  0.48580362299E+01  0.48820952466E+02  0.00000000000E+00 0.  1.
         -5    1    5    5    0  503 -0.27402691298E+02  0.19469490568E+02  0.37908137110E+02  0.50883056241E+02  0.47000000000E+01 0.  1.
<mgrwt>
<rscale>  2 0.21827922E+03</rscale>
<asrwt>0</asrwt>
<pdfrwt beam="1">  1       21 0.27566039E-01 0.22006188E+03</pdfrwt>
<pdfrwt beam="2">  1       21 0.54058572E-01 0.22006188E+03</pdfrwt>
<totfact> 0.40068143E+04</totfact>
</mgrwt>
</event>
<event>
12    1  0.1441827E-001  0.1944207E+03  0.7546771E-02  0.1154556E+00
         21   -1    0    0  504  503  0.00000000000E+00  0.00000000000E+00  0.12922219982E+03  0.12922219982E+03  0.00000000000E+00 0.  1.
         21   -1    0    0  502  504 -0.00000000000E+00 -0.00000000000E+00 -0.38884440697E+03  0.38884440697E+03  0.00000000000E+00 0. -1.
          6    2    1    2  502    0 -0.56646268599E+02 -0.69019059902E+02 -0.25886982500E+03  0.32374834492E+03  0.17270487592E+03 0.  0.
         24    2    3    3    0    0 -0.78101306781E+02 -0.10356142407E+03 -0.20081896590E+03  0.25271676160E+03  0.81931201962E+02 0.  0.
         -6    2    1    2    0  503  0.56646268599E+02  0.69019059902E+02 -0.75238214759E+00  0.19431826187E+03  0.17258792090E+03 0.  0.
        -24    2    5    5    0    0 -0.13894726177E+01  0.96301992076E+02 -0.20450557468E+02  0.12706788078E+03  0.80324446540E+02 0.  0.
          4    1    4    4  501    0 -0.55977704882E+02 -0.66802678691E+02 -0.18913674415E+03  0.20825179306E+03  0.00000000000E+00 0. -1.
         -3    1    4    4    0  501 -0.22123601899E+02 -0.36758745379E+02 -0.11682221748E+02  0.44464968546E+02  0.00000000000E+00 0.  1.
          5    1    3    3  502    0  0.21455038182E+02  0.34542364168E+02 -0.58050859102E+02  0.71031583315E+02  0.47000000000E+01 0. -1.
         11    1    6    6    0    0  0.19478748248E+02  0.10801435383E+02 -0.31273710686E+02  0.38394499863E+02  0.00000000000E+00 0. -1.
        -12    1    6    6    0    0 -0.20868220866E+02  0.85500556693E+02  0.10823153218E+02  0.88673380913E+02  0.00000000000E+00 0.  1.
         -5    1    5    5    0  503  0.58035741217E+02 -0.27282932174E+02  0.19698175320E+02  0.67250381096E+02  0.47000000000E+01 0.  1.
<mgrwt>
<rscale>  2 0.19439471E+03</rscale>
<asrwt>0</asrwt>
<pdfrwt beam="1">  1       21 0.19880339E-01 0.19442069E+03</pdfrwt>
<pdfrwt beam="2">  1       21 0.59822216E-01 0.19442069E+03</pdfrwt>
<totfact> 0.60826514E+04</totfact>
</mgrwt>
</event>
<event>
12    1  0.1441827E-001  0.2357147E+03  0.7546771E-02  0.1123837E+00
         21   -1    0    0  504  503  0.00000000000E+00  0.00000000000E+00  0.74133495034E+02  0.74133495034E+02  0.00000000000E+00 0. -1.
         21   -1    0    0  502  504 -0.00000000000E+00 -0.00000000000E+00 -0.12224520396E+04  0.12224520396E+04  0.00000000000E+00 0. -1.
          6    2    1    2  502    0 -0.14574762864E+03 -0.37672624600E+02 -0.99118406412E+03  0.10188264241E+04  0.18138311852E+03 0.  0.
         24    2    3    3    0    0 -0.73598279538E+02 -0.12547351073E+02 -0.86024346545E+03  0.86715461291E+03  0.79775685941E+02 0.  0.
         -6    2    1    2    0  503  0.14574762864E+03  0.37672624600E+02 -0.15713448041E+03  0.27775911045E+03  0.17261888832E+03 0.  0.
        -24    2    5    5    0    0  0.16284169094E+03  0.24794366699E+02 -0.84034688778E+02  0.20144576935E+03  0.79914905638E+02 0.  0.
          4    1    4    4  501    0 -0.88885708310E+02 -0.17525269705E+02 -0.64791879988E+03  0.65422211477E+03  0.00000000000E+00 0. -1.
         -3    1    4    4    0  501  0.15287428773E+02  0.49779186311E+01 -0.21232466557E+03  0.21293249814E+03  0.00000000000E+00 0.  1.
          5    1    3    3  502    0 -0.72149349103E+02 -0.25125273526E+02 -0.13094059866E+03  0.15167181124E+03  0.47000000000E+01 0. -1.
         11    1    6    6    0    0  0.17119485200E+03  0.24377698366E+02 -0.85580878767E+02  0.19294049948E+03  0.00000000000E+00 0. -1.
        -12    1    6    6    0    0 -0.83531610569E+01  0.41666833270E+00  0.15461899893E+01  0.85052698737E+01  0.00000000000E+00 0.  1.
         -5    1    5    5    0  503 -0.17094062300E+02  0.12878257901E+02 -0.73099791635E+02  0.76313341098E+02  0.47000000000E+01 0.  1.
<mgrwt>
<rscale>  2 0.23402778E+03</rscale>
<asrwt>0</asrwt>
<pdfrwt beam="1">  1       21 0.11405153E-01 0.23571473E+03</pdfrwt>
<pdfrwt beam="2">  1       21 0.18806954E+00 0.23571473E+03</pdfrwt>
<totfact> 0.99874972E+03</totfact>
</mgrwt>
</event>
<event>
12    1  0.1441827E-001  0.1857777E+03  0.7546771E-02  0.1162373E+00
         21   -1    0    0  504  503  0.00000000000E+00  0.00000000000E+00  0.59602246393E+03  0.59602246393E+03  0.00000000000E+00 0. -1.
         21   -1    0    0  502  504 -0.00000000000E+00 -0.00000000000E+00 -0.58135883787E+02  0.58135883787E+02  0.00000000000E+00 0.  1.
          6    2    1    2  502    0  0.33426880171E+02 -0.62344185282E+02  0.29203301681E+03  0.34600685448E+03  0.17156137875E+03 0.  0.
         24    2    3    3    0    0 -0.33785235705E+02 -0.57481921715E+02  0.23381908028E+03  0.25683251661E+03  0.82740351750E+02 0.  0.
         -6    2    1    2    0  503 -0.33426880171E+02  0.62344185282E+02  0.24585356333E+03  0.30815149324E+03  0.17178246252E+03 0.  0.
        -24    2    5    5    0    0 -0.87619662370E+02  0.53744118941E+02  0.18720655235E+03  0.22770038585E+03  0.78965415975E+02 0.  0.
          4    1    4    4  501    0  0.23704440806E+02 -0.18764868211E+02  0.11841872493E+03  0.12221708231E+03  0.00000000000E+00 0. -1.
         -3    1    4    4    0  501 -0.57489676511E+02 -0.38717053503E+02  0.11540035535E+03  0.13461543430E+03  0.00000000000E+00 0.  1.
          5    1    3    3  502    0  0.67212115877E+02 -0.48622635676E+01  0.58213936533E+02  0.89174337868E+02  0.47000000000E+01 0. -1.
         13    1    6    6    0    0 -0.37911984392E+02  0.20182657326E+02  0.15244130808E+03  0.15837616812E+03  0.00000000000E+00 0. -1.
        -14    1    6    6    0    0 -0.49707677978E+02  0.33561461615E+02  0.34765244266E+02  0.69324217735E+02  0.00000000000E+00 0.  1.
         -5    1    5    5    0  503  0.54192782198E+02  0.86000663413E+01  0.58647010980E+02  0.80451107390E+02  0.47000000000E+01 0.  1.
<mgrwt>
<rscale>  2 0.18572662E+03</rscale>
<asrwt>0</asrwt>
<pdfrwt beam="1">  1       21 0.91695759E-01 0.18577774E+03</pdfrwt>
<pdfrwt beam="2">  1       21 0.89439825E-02 0.18577774E+03</pdfrwt>
<totfact> 0.99633345E+04</totfact>
</mgrwt>
</event>
<event>
12    1  0.1441827E-001  0.1752274E+03  0.7546771E-02  0.1172610E+00
         21   -1    0    0  504  503  0.00000000000E+00  0.00000000000E+00  0.23603380327E+03  0.23603380327E+03  0.00000000000E+00 0.  1.
         21   -1    0    0  502  504 -0.00000000000E+00 -0.00000000000E+00 -0.24397050343E+03  0.24397050343E+03  0.00000000000E+00 0.  1.
          6    2    1    2  502    0  0.23564295221E+02 -0.52253030089E+01 -0.16817225455E+03  0.24287143708E+03  0.17355704524E+03 0.  0.
         24    2    3    3    0    0  0.62355584274E+02 -0.36256244835E+02 -0.15883249002E+03  0.19210723061E+03  0.80465483212E+02 0.  0.
         -6    2    1    2    0  503 -0.23564295221E+02  0.52253030089E+01  0.16023555438E+03  0.23713286962E+03  0.17312996611E+03 0.  0.
        -24    2    5    5    0    0 -0.68685593034E+02  0.42630766054E+01  0.47363671531E+02  0.11548169069E+03  0.79729661935E+02 0.  0.
          2    1    4    4  501    0  0.23491201652E+02 -0.53710652251E+02 -0.57196714870E+02  0.81903204530E+02  0.00000000000E+00 0. -1.
         -1    1    4    4    0  501  0.38864382622E+02  0.17454407416E+02 -0.10163577515E+03  0.11020402608E+03  0.00000000000E+00 0.  1.
          5    1    3    3  502    0 -0.38791289053E+02  0.31030941826E+02 -0.93397645245E+01  0.50764206469E+02  0.47000000000E+01 0. -1.
         13    1    6    6    0    0 -0.21665466935E+02  0.47365647971E+00 -0.22464250512E+02  0.31213127992E+02  0.00000000000E+00 0. -1.
        -14    1    6    6    0    0 -0.47020126099E+02  0.37894201257E+01  0.69827922042E+02  0.84268562703E+02  0.00000000000E+00 0.  1.
         -5    1    5    5    0  503  0.45121297813E+02  0.96222640353E+00  0.11287188285E+03  0.12165117893E+03  0.47000000000E+01 0.  1.
<mgrwt>
<rscale>  2 0.17512151E+03</rscale>
<asrwt>0</asrwt>
<pdfrwt beam="1">  1       21 0.36312893E-01 0.17522736E+03</pdfrwt>
<pdfrwt beam="2">  1       21 0.37533923E-01 0.17522736E+03</pdfrwt>
<totfact> 0.50481310E+04</totfact>
</mgrwt>
</event>
<event>
12    1  0.1441827E-001  0.1910531E+03  0.7546771E-02  0.1157551E+00
         21   -1    0    0  504  503  0.00000000000E+00  0.00000000000E+00  0.19821944691E+03  0.19821944691E+03  0.00000000000E+00 0. -1.
         21   -1    0    0  502  504 -0.00000000000E+00 -0.00000000000E+00 -0.18448190880E+03  0.18448190880E+03  0.00000000000E+00 0. -1.
          6    2    1    2  502    0  0.52446844541E+02  0.63588287672E+02 -0.30151486567E+01  0.19091519460E+03  0.17217833364E+03 0.  0.
         24    2    3    3    0    0 -0.57535957865E+01 -0.15853542263E+02  0.30499548268E+02  0.86782488364E+02  0.79476658054E+02 0.  0.
         -6    2    1    2    0  503 -0.52446844541E+02 -0.63588287672E+02  0.16752686767E+02  0.19178616111E+03  0.17235758541E+03 0.  0.
        -24    2    5    5    0    0  0.15980155506E+02 -0.30971469814E+02 -0.40916701670E+02  0.96423907019E+02  0.80054956480E+02 0.  0.
          2    1    4    4  501    0 -0.42221976612E+02 -0.69942832222E+01  0.22725086198E+02  0.48456628540E+02  0.00000000000E+00 0. -1.
         -1    1    4    4    0  501  0.36468380825E+02 -0.88592590410E+01  0.77744620705E+01  0.38325859824E+02  0.00000000000E+00 0.  1.
          5    1    3    3  502    0  0.58200440327E+02  0.79441829936E+02 -0.33514696925E+02  0.10413270623E+03  0.47000000000E+01 0. -1.
         13    1    6    6    0    0  0.43397912804E+02  0.28901283480E+01 -0.16809080527E+02  0.46629141808E+02  0.00000000000E+00 0. -1.
        -14    1    6    6    0    0 -0.27417757298E+02 -0.33861598161E+02 -0.24107621142E+02  0.49794765211E+02  0.00000000000E+00 0.  1.
         -5    1    5    5    0  503 -0.68427000047E+02 -0.32616817859E+02  0.57669388437E+02  0.95362254091E+02  0.47000000000E+01 0.  1.
<mgrwt>
<rscale>  2 0.19101264E+03</rscale>
<asrwt>0</asrwt>
<pdfrwt beam="1">  1       21 0.30495299E-01 0.19105308E+03</pdfrwt>
<pdfrwt beam="2">  1       21 0.28381832E-01 0.19105308E+03</pdfrwt>
<totfact> 0.12256775E+05</totfact>
</mgrwt>
</event>
<event>
12    1  0.1441827E-001  0.2236333E+03  0.7546771E-02  0.1131493E+00
         21   -1    0    0  504  503  0.00000000000E+00  0.00000000000E+00  0.14747682154E+03  0.14747682154E+03  0.00000000000E+00 0. -1.
         21   -1    0    0  502  504 -0.00000000000E+00 -0.00000000000E+00 -0.37520382894E+03  0.37520382894E+03  0.00000000000E+00 0.  1.
          6    2    1    2  502    0  0.14669285523E+02 -0.14045341453E+03 -0.19792721909E+03  0.29864200015E+03  0.17340562450E+03 0.  0.
         24    2    3    3    0    0 -0.53776648303E+02 -0.11502915033E+03 -0.13144537014E+03  0.19978267937E+03  0.80694487512E+02 0.  0.
         -6    2    1    2    0  503 -0.14669285523E+02  0.14045341453E+03 -0.29799788314E+02  0.22403865033E+03  0.17135617837E+03 0.  0.
        -24    2    5    5    0    0  0.43316377294E+02  0.97732104564E+02  0.25395513127E+02  0.13317579368E+03  0.75252821416E+02 0.  0.
          4    1    4    4  501    0 -0.35245171919E+02 -0.22631392111E+01 -0.22379511754E+02  0.41811320106E+02  0.00000000000E+00 0. -1.
         -3    1    4    4    0  501 -0.18531476384E+02 -0.11276601112E+03 -0.10906585839E+03  0.15797135926E+03  0.00000000000E+00 0.  1.
          5    1    3    3  502    0  0.68445933826E+02 -0.25424264202E+02 -0.66481848945E+02  0.98859320788E+02  0.47000000000E+01 0. -1.
         13    1    6    6    0    0  0.52317593866E+01  0.23724405748E+01  0.29848022869E+02  0.30395793290E+02  0.00000000000E+00 0. -1.
        -14    1    6    6    0    0  0.38084617907E+02  0.95359663989E+02 -0.44525097416E+01  0.10278000039E+03  0.00000000000E+00 0.  1.
         -5    1    5    5    0  503 -0.57985662817E+02  0.42721309969E+02 -0.55195301441E+02  0.90862856652E+02  0.47000000000E+01 0.  1.
<mgrwt>
<rscale>  2 0.22323592E+03</rscale>
<asrwt>0</asrwt>
<pdfrwt beam="1">  1       21 0.22688742E-01 0.22363332E+03</pdfrwt>
<pdfrwt beam="2">  1       21 0.57723665E-01 0.22363332E+03</pdfrwt>
<totfact> 0.50520288E+04</totfact>
</mgrwt>
</event>
<event>
12    1  0.1441827E-001  0.1969840E+03  0.7546771E-02  0.1152442E+00
         21   -1    0    0  504  503  0.00000000000E+00  0.00000000000E+00  0.54728023022E+03  0.54728023022E+03  0.00000000000E+00 0. -1.
         21   -1    0    0  502  504 -0.00000000000E+00 -0.00000000000E+00 -0.33758518379E+03  0.33758518379E+03  0.00000000000E+00 0. -1.
          6    2    1    2  502    0  0.78549931385E+02  0.49509563021E+02 -0.28858808048E+03  0.34905874614E+03  0.17302496787E+03 0.  0.
         24    2    3    3    0    0  0.57087557521E+01  0.81882234320E+02 -0.14542917986E+03  0.18513685150E+03  0.79929451632E+02 0.  0.
         -6    2    1    2    0  503 -0.78549931385E+02 -0.49509563021E+02  0.49828312691E+03  0.53580666788E+03  0.17372801222E+03 0.  0.
        -24    2    5    5    0    0 -0.10230650482E+03 -0.84140428589E+02  0.38668793570E+03  0.41647834629E+03  0.79877535398E+02 0.  0.
          4    1    4    4  501    0  0.41139039897E+02  0.47337935997E+02 -0.99542253190E+02  0.11765186339E+03  0.00000000000E+00 0. -1.
         -3    1    4    4    0  501 -0.35430284145E+02  0.34544298323E+02 -0.45886926671E+02  0.67484988112E+02  0.00000000000E+00 0.  1.
          5    1    3    3  502    0  0.72841175633E+02 -0.32372671299E+02 -0.14315890062E+03  0.16392189464E+03  0.47000000000E+01 0. -1.
         11    1    6    6    0    0 -0.49596214392E+02 -0.30424705852E+02  0.27960471083E+03  0.28559454044E+03  0.00000000000E+00 0. -1.
        -12    1    6    6    0    0 -0.52710290433E+02 -0.53715722737E+02  0.10708322487E+03  0.13088380585E+03  0.00000000000E+00 0.  1.
         -5    1    5    5    0  503  0.23756573440E+02  0.34630865568E+02  0.11159519121E+03  0.11932832159E+03  0.47000000000E+01 0.  1.
<mgrwt>
<rscale>  2 0.19682891E+03</rscale>
<asrwt>0</asrwt>
<pdfrwt beam="1">  1       21 0.84196958E-01 0.19698404E+03</pdfrwt>
<pdfrwt beam="2">  1       21 0.51936182E-01 0.19698404E+03</pdfrwt>
<totfact> 0.42947069E+03</totfact>
</mgrwt>
</event>
<event>
12    1  0.1441827E-001  0.1896934E+03  0.7546771E-02  0.1158890E+00
         21   -1    0    0  504  503  0.00000000000E+00  0.00000000000E+00  0.33403574589E+02  0.33403574589E+02  0.00000000000E+00 0. -1.
         21   -1    0    0  502  504 -0.00000000000E+00 -0.00000000000E+00 -0.10983867743E+04  0.10983867743E+04  0.00000000000E+00 0. -1.
          6    2    1    2  502    0 -0.39962606323E+02 -0.64492509102E+02 -0.44812003857E+03  0.48661604236E+03  0.17386003014E+03 0.  0.
         24    2    3    3    0    0 -0.19872019292E+02 -0.37107808317E+02 -0.96167187935E+02  0.13299696398E+03  0.81658911356E+02 0.  0.
         -6    2    1    2    0  503  0.39962606323E+02  0.64492509102E+02 -0.61686316111E+03  0.64517430650E+03  0.17312837028E+03 0.  0.
        -24    2    5    5    0    0  0.76055033549E+01  0.70588736633E+02 -0.19009180322E+03  0.21710885821E+03  0.77205888643E+02 0.  0.
          4    1    4    4  501    0 -0.23639448835E+02 -0.58604398523E+02 -0.90622202515E+02  0.11047933135E+03  0.00000000000E+00 0. -1.
         -3    1    4    4    0  501  0.37674295429E+01  0.21496590206E+02 -0.55449854198E+01  0.22517632627E+02  0.00000000000E+00 0.  1.
          5    1    3    3  502    0 -0.20090587031E+02 -0.27384700784E+02 -0.35195285064E+03  0.35361907838E+03  0.47000000000E+01 0. -1.
         13    1    6    6    0    0 -0.23809763559E+02  0.11411826020E+02 -0.16746186383E+02  0.31266105805E+02  0.00000000000E+00 0. -1.
        -14    1    6    6    0    0  0.31415266914E+02  0.59176910613E+02 -0.17334561683E+03  0.18584275240E+03  0.00000000000E+00 0.  1.
         -5    1    5    5    0  503  0.32357102968E+02 -0.60962275318E+01 -0.42677135790E+03  0.42806544830E+03  0.47000000000E+01 0.  1.
<mgrwt>
<rscale>  2 0.18952563E+03</rscale>
<asrwt>0</asrwt>
<pdfrwt beam="1">  1       21 0.51390105E-02 0.18969345E+03</pdfrwt>
<pdfrwt beam="2">  1       21 0.16898261E+00 0.18969345E+03</pdfrwt>
<totfact> 0.55794955E+04</totfact>
</mgrwt>
</event>
<event>
12    1  0.1441827E-001  0.1848215E+03  0.7546771E-02  0.1164946E+00
         21   -1    0    0  504  503  0.00000000000E+00  0.00000000000E+00  0.24463974185E+02  0.24463974185E+02  0.00000000000E+00 0.  1.
         21   -1    0    0  502  504 -0.00000000000E+00 -0.00000000000E+00 -0.20972753057E+04  0.20972753057E+04  0.00000000000E+00 0.  1.
          6    2    1    2  502    0 -0.19757649681E+02 -0.23618327252E+02 -0.16861480554E+04  0.16962471050E+04  0.18223826887E+03 0.  0.
         24    2    3    3    0    0 -0.72009948915E+02  0.17202235352E+02 -0.12593831268E+04  0.12643362168E+04  0.83778633668E+02 0.  0.
         -6    2    1    2    0  503  0.19757649681E+02  0.23618327252E+02 -0.38666327612E+03  0.42549217481E+03  0.17489114222E+03 0.  0.
        -24    2    5    5    0    0 -0.46033958121E+01  0.15322035865E+02 -0.39010226999E+03  0.39910646529E+03  0.82766137680E+02 0.  0.
          4    1    4    4  501    0 -0.22866756764E+02 -0.31371085856E+02 -0.30603947373E+03  0.30849180390E+03  0.00000000000E+00 0. -1.
         -3    1    4    4    0  501 -0.49143192151E+02  0.48573321207E+02 -0.95334365306E+03  0.95584441291E+03  0.00000000000E+00 0.  1.
          5    1    3    3  502    0  0.52252299234E+02 -0.40820562604E+02 -0.42676492859E+03  0.43191088824E+03  0.47000000000E+01 0. -1.
         13    1    6    6    0    0 -0.20503892943E+01  0.33225741842E+02 -0.60871333055E+02  0.69379198648E+02  0.00000000000E+00 0. -1.
        -14    1    6    6    0    0 -0.25530065178E+01 -0.17903705977E+02 -0.32923093693E+03  0.32972726664E+03  0.00000000000E+00 0.  1.
         -5    1    5    5    0  503  0.24361045493E+02  0.82962913871E+01  0.34389938729E+01  0.26385709526E+02  0.47000000000E+01 0.  1.
<mgrwt>
<rscale>  2 0.18298420E+03</rscale>
<asrwt>0</asrwt>
<pdfrwt beam="1">  1       21 0.37636886E-02 0.18482147E+03</pdfrwt>
<pdfrwt beam="2">  1       21 0.32265771E+00 0.18482147E+03</pdfrwt>
<totfact> 0.11060122E+04</totfact>
</mgrwt>
</event>
<event>
12    1  0.1441827E-001  0.1763217E+03  0.7546771E-02  0.1171702E+00
         21   -1    0    0  504  503  0.00000000000E+00  0.00000000000E+00  0.88463340233E+02  0.88463340233E+02  0.00000000000E+00 0.  1.
         21   -1    0    0  502  504 -0.00000000000E+00 -0.00000000000E+00 -0.38184288858E+03  0.38184288858E+03  0.00000000000E+00 0.  1.
          6    2    1    2  502    0 -0.10676213460E+02  0.25744473514E+02 -0.21597219347E+03  0.27880695656E+03  0.17410505800E+03 0.  0.
         24    2    3    3    0    0 -0.65107728550E+02  0.39764409525E+02 -0.98421292236E+02  0.14842423983E+03  0.80763727141E+02 0.  0.
         -6    2    1    2    0  503  0.10676213460E+02 -0.25744473514E+02 -0.77407354877E+02  0.19149927225E+03  0.17292574486E+03 0.  0.
        -24    2    5    5    0    0  0.64666188882E+02  0.12076500002E+02 -0.20972854556E+02  0.10459538103E+03  0.78567011317E+02 0.  0.
          4    1    4    4  501    0 -0.27945138012E+02 -0.23979893491E+02 -0.39472663964E+02  0.53982008398E+02  0.00000000000E+00 0. -1.
         -3    1    4    4    0  501 -0.37162590539E+02  0.63744303015E+02 -0.58948628272E+02  0.94442231431E+02  0.00000000000E+00 0.  1.
          5    1    3    3  502    0  0.54431515090E+02 -0.14019936010E+02 -0.11755090124E+03  0.13038271673E+03  0.47000000000E+01 0. -1.
         11    1    6    6    0    0  0.35235205593E+02 -0.20114374335E+02  0.19570270472E+02  0.45045568644E+02  0.00000000000E+00 0. -1.
        -12    1    6    6    0    0  0.29430983289E+02  0.32190874337E+02 -0.40543125028E+02  0.59549812384E+02  0.00000000000E+00 0.  1.
         -5    1    5    5    0  503 -0.53989975422E+02 -0.37820973517E+02 -0.56434500320E+02  0.86903891226E+02  0.47000000000E+01 0.  1.
<mgrwt>
<rscale>  2 0.17602985E+03</rscale>
<asrwt>0</asrwt>
<pdfrwt beam="1">  1       21 0.13609745E-01 0.17632167E+03</pdfrwt>
<pdfrwt beam="2">  1       21 0.58745060E-01 0.17632167E+03</pdfrwt>
<totfact> 0.12761470E+05</totfact>
</mgrwt>
</event>
<event>
12    1  0.1441827E-001  0.4589344E+03  0.7546771E-02  0.1025113E+00
         21   -1    0    0  504  503  0.00000000000E+00  0.00000000000E+00  0.26287418825E+04  0.26287418825E+04  0.00000000000E+00 0. -1.
         21   -1    0    0  502  504 -0.00000000000E+00 -0.00000000000E+00 -0.26298182096E+03  0.26298182096E+03  0.00000000000E+00 0. -1.
          6    2    1    2  502    0 -0.39908193312E+03  0.14573519329E+03 -0.23074507723E+02  0.45920415126E+03  0.17271619415E+03 0.  0.
         24    2    3    3    0    0 -0.16210278527E+03  0.10174651001E+03  0.35432885492E+02  0.21113294005E+03  0.81804423513E+02 0.  0.
         -6    2    1    2    0  503  0.39908193312E+03 -0.14573519329E+03  0.23888345693E+04  0.24325195522E+04  0.17353857371E+03 0.  0.
        -24    2    5    5    0    0  0.39960726881E+03 -0.11623025533E+03  0.22942942086E+04  0.23333692262E+04  0.87353241543E+02 0.  0.
          2    1    4    4  501    0 -0.61216093425E+02 -0.46680686428E+01  0.13572697294E+02  0.62876220234E+02  0.00000000000E+00 0. -1.
         -1    1    4    4    0  501 -0.10088669185E+03  0.10641457865E+03  0.21860188198E+02  0.14825671981E+03  0.00000000000E+00 0.  1.
          5    1    3    3  502    0 -0.23697914785E+03  0.43988683280E+02 -0.58507393215E+02  0.24807121122E+03  0.47000000000E+01 0. -1.
         13    1    6    6    0    0  0.45411511582E+02 -0.42676151416E+02  0.40290541798E+03  0.40769625351E+03  0.00000000000E+00 0. -1.
        -14    1    6    6    0    0  0.35419575723E+03 -0.73554103910E+02  0.18913887906E+04  0.19256729727E+04  0.00000000000E+00 0.  1.
         -5    1    5    5    0  503 -0.52533568341E+00 -0.29504937963E+02  0.94540360696E+02  0.99150325982E+02  0.47000000000E+01 0.  1.
<mgrwt>
<rscale>  2 0.45885678E+03</rscale>
<asrwt>0</asrwt>
<pdfrwt beam="1">  1       21 0.40442181E+00 0.45893439E+03</pdfrwt>
<pdfrwt beam="2">  1       21 0.40458744E-01 0.45893439E+03</pdfrwt>
<totfact> 0.35273480E+01</totfact>
</mgrwt>
</event>
<event>
12    1  0.1441827E-001  0.1814339E+03  0.7546771E-02  0.1167502E+00
         21   -1    0    0  504  503  0.00000000000E+00  0.00000000000E+00  0.31411223840E+03  0.31411223840E+03  0.00000000000E+00 0. -1.
         21   -1    0    0  502  504 -0.00000000000E+00 -0.00000000000E+00 -0.12385319528E+03  0.12385319528E+03  0.00000000000E+00 0. -1.
          6    2    1    2  502    0 -0.49791750568E+02  0.19056802768E+02  0.26901226032E+01  0.17700494499E+03  0.16876354356E+03 0.  0.
         24    2    3    3    0    0 -0.13098311802E+02  0.70896243728E+02  0.22031615862E+02  0.11044730494E+03  0.80717853818E+02 0.  0.
         -6    2    1    2    0  503  0.49791750568E+02 -0.19056802768E+02  0.18756892052E+03  0.26096048868E+03  0.17342403683E+03 0.  0.
        -24    2    5    5    0    0  0.69024234069E+02  0.28482812498E+02  0.17863019724E+03  0.20869296325E+03  0.77899871925E+02 0.  0.
          2    1    4    4  501    0  0.20631894760E+02  0.66544489845E+02  0.29449342811E+02  0.75638006334E+02  0.00000000000E+00 0. -1.
         -1    1    4    4    0  501 -0.33730206562E+02  0.43517538821E+01 -0.74177269497E+01  0.34809298609E+02  0.00000000000E+00 0.  1.
          5    1    3    3  502    0 -0.36693438767E+02 -0.51839440960E+02 -0.19341493258E+02  0.66557640050E+02  0.47000000000E+01 0. -1.
         11    1    6    6    0    0  0.97822537297E+01 -0.69190041619E+01  0.11241308194E+03  0.11304983900E+03  0.00000000000E+00 0. -1.
        -12    1    6    6    0    0  0.59241980340E+02  0.35401816660E+02  0.66217115307E+02  0.95643124254E+02  0.00000000000E+00 0.  1.
         -5    1    5    5    0  503 -0.19232483501E+02 -0.47539615266E+02  0.89387232794E+01  0.52267525435E+02  0.47000000000E+01 0.  1.
<mgrwt>
<rscale>  2 0.18031121E+03</rscale>
<asrwt>0</asrwt>
<pdfrwt beam="1">  1       21 0.48324960E-01 0.18143395E+03</pdfrwt>
<pdfrwt beam="2">  1       21 0.19054338E-01 0.18143395E+03</pdfrwt>
<totfact> 0.10376888E+05</totfact>
</mgrwt>
</event>
<event>
12    1  0.1441827E-001  0.2284042E+03  0.7546771E-02  0.1127805E+00
         21   -1    0    0  504  503  0.00000000000E+00  0.00000000000E+00  0.45655720170E+03  0.45655720170E+03  0.00000000000E+00 0.  1.
         21   -1    0    0  502  504 -0.00000000000E+00 -0.00000000000E+00 -0.25070985596E+03  0.25070985596E+03  0.00000000000E+00 0.  1.
          6    2    1    2  502    0  0.14768030806E+03  0.21511653036E+02 -0.15807943382E+03  0.27760300377E+03  0.17263283495E+03 0.  0.
         24    2    3    3    0    0  0.60086020500E+02 -0.54533891289E+02 -0.91034393209E+02  0.14354028899E+03  0.75711813193E+02 0.  0.
         -6    2    1    2    0  503 -0.14768030806E+03 -0.21511653036E+02  0.36392677956E+03  0.42966405388E+03  0.17290538948E+03 0.  0.
        -24    2    5    5    0    0 -0.14835580147E+03 -0.65893241166E+02  0.31511372851E+03  0.36352037989E+03  0.80616633763E+02 0.  0.
          2    1    4    4  501    0  0.26509116387E+02 -0.32798472532E+02  0.20546252460E+01  0.42221967469E+02  0.00000000000E+00 0. -1.
         -1    1    4    4    0  501  0.33576904113E+02 -0.21735418758E+02 -0.93089018455E+02  0.10131832152E+03  0.00000000000E+00 0.  1.
          5    1    3    3  502    0  0.87594287564E+02  0.76045544325E+02 -0.67045040610E+02  0.13406271479E+03  0.47000000000E+01 0. -1.
         11    1    6    6    0    0  0.90274645230E+01 -0.26606286531E+01  0.67269742373E+01  0.11568329306E+02  0.00000000000E+00 0. -1.
        -12    1    6    6    0    0 -0.15738326600E+03 -0.63232612513E+02  0.30838675427E+03  0.35195205059E+03  0.00000000000E+00 0.  1.
         -5    1    5    5    0  503  0.67549341031E+00  0.44381588130E+02  0.48813051051E+02  0.66143673992E+02  0.47000000000E+01 0.  1.
<mgrwt>
<rscale>  2 0.22835266E+03</rscale>
<asrwt>0</asrwt>
<pdfrwt beam="1">  1       21 0.70239570E-01 0.22840424E+03</pdfrwt>
<pdfrwt beam="2">  1       21 0.38570747E-01 0.22840424E+03</pdfrwt>
<totfact> 0.11650726E+04</totfact>
</mgrwt>
</event>
<event>
12    1  0.1441827E-001  0.2723744E+03  0.7546771E-02  0.1100819E+00
         21   -1    0    0  504  503  0.00000000000E+00  0.00000000000E+00  0.26993922514E+03  0.26993922514E+03  0.00000000000E+00 0.  1.
         21   -1    0    0  502  504 -0.00000000000E+00 -0.00000000000E+00 -0.62759225192E+03  0.62759225192E+03  0.00000000000E+00 0.  1.
          6    2    1    2  502    0 -0.18283908414E+03  0.86962036675E+02 -0.51734535223E+03  0.58179510115E+03  0.17276226363E+03 0.  0.
         24    2    3    3    0    0 -0.13417188857E+03 -0.86829267408E+01 -0.27223429517E+03  0.31417975173E+03  0.80745997001E+02 0.  0.
         -6    2    1    2    0  503  0.18283908414E+03 -0.86962036675E+02  0.15969232544E+03  0.31573637591E+03  0.18219575668E+03 0.  0.
        -24    2    5    5    0    0  0.41544078904E+02 -0.87344626168E+02  0.45761595487E+02  0.13416896113E+03  0.80945613207E+02 0.  0.
          2    1    4    4  501    0 -0.96696924068E+01 -0.25584355102E+02 -0.79821771293E+02  0.84377587958E+02  0.00000000000E+00 0. -1.
         -1    1    4    4    0  501 -0.12450219616E+03  0.16901428361E+02 -0.19241252388E+03  0.22980216378E+03  0.00000000000E+00 0.  1.
          5    1    3    3  502    0 -0.48667195572E+02  0.95644963416E+02 -0.24511105706E+03  0.26761534942E+03  0.47000000000E+01 0. -1.
         13    1    6    6    0    0  0.16608567754E+02 -0.97092631337E+02  0.29419864480E+02  0.10280249029E+03  0.00000000000E+00 0. -1.
        -14    1    6    6    0    0  0.24935511150E+02  0.97480051692E+01  0.16341731007E+02  0.31366470847E+02  0.00000000000E+00 0.  1.
         -5    1    5    5    0  503  0.14129500524E+03  0.38258949330E+00  0.11393072996E+03  0.18156741478E+03  0.47000000000E+01 0.  1.
<mgrwt>
<rscale>  2 0.27080647E+03</rscale>
<asrwt>0</asrwt>
<pdfrwt beam="1">  1       21 0.41529112E-01 0.27237441E+03</pdfrwt>
<pdfrwt beam="2">  1       21 0.96552653E-01 0.27237441E+03</pdfrwt>
<totfact> 0.47141684E+03</totfact>
</mgrwt>
</event>
<event>
12    1  0.1441827E-001  0.1815187E+03  0.7546771E-02  0.1166586E+00
         21   -1    0    0  504  503  0.00000000000E+00  0.00000000000E+00  0.16867500251E+03  0.16867500251E+03  0.00000000000E+00 0. -1.
         21   -1    0    0  502  504 -0.00000000000E+00 -0.00000000000E+00 -0.24934059997E+03  0.24934059997E+03  0.00000000000E+00 0.  1.
          6    2    1    2  502    0  0.46330498729E+02  0.25770435028E+02 -0.13866802421E+03  0.22842471816E+03  0.17360414884E+03 0.  0.
         24    2    3    3    0    0  0.34635206937E+01  0.78963841264E+02 -0.91501157857E+02  0.14527473587E+03  0.80529515027E+02 0.  0.
         -6    2    1    2    0  503 -0.46330498729E+02 -0.25770435028E+02  0.58002426757E+02  0.18959088432E+03  0.17253924619E+03 0.  0.
        -24    2    5    5    0    0  0.24833428398E+02 -0.26999058540E+02 -0.12166719619E+02  0.89532835456E+02  0.80761694079E+02 0.  0.
          2    1    4    4  501    0 -0.37632959599E+02  0.44475299081E+02 -0.56885058993E+02  0.81426051195E+02  0.00000000000E+00 0. -1.
         -1    1    4    4    0  501  0.41096480293E+02  0.34488542182E+02 -0.34616098865E+02  0.63848684676E+02  0.00000000000E+00 0.  1.
          5    1    3    3  502    0  0.42866978035E+02 -0.53193406236E+02 -0.47166866354E+02  0.83149982288E+02  0.47000000000E+01 0. -1.
         13    1    6    6    0    0  0.52270296835E+02 -0.31894110157E+01 -0.66153039674E+01  0.52783695593E+02  0.00000000000E+00 0. -1.
        -14    1    6    6    0    0 -0.27436868438E+02 -0.23809647525E+02 -0.55514156512E+01  0.36749139863E+02  0.00000000000E+00 0.  1.
         -5    1    5    5    0  503 -0.71163927127E+02  0.12286235125E+01  0.70169146376E+02  0.10005804887E+03  0.47000000000E+01 0.  1.
<mgrwt>
<rscale>  2 0.18126359E+03</rscale>
<asrwt>0</asrwt>
<pdfrwt beam="1">  1       21 0.25950001E-01 0.18151868E+03</pdfrwt>
<pdfrwt beam="2">  1       21 0.38360092E-01 0.18151868E+03</pdfrwt>
<totfact> 0.92824739E+04</totfact>
</mgrwt>
</event>
<event>
12    1  0.1441827E-001  0.1899177E+03  0.7546771E-02  0.1159171E+00
         21   -1    0    0  504  503  0.00000000000E+00  0.00000000000E+00  0.90668289882E+02  0.90668289882E+02  0.00000000000E+00 0.  1.
         21   -1    0    0  502  504 -0.00000000000E+00 -0.00000000000E+00 -0.65146697035E+03  0.65146697035E+03  0.00000000000E+00 0.  1.
          6    2    1    2  502    0 -0.44129912069E+02 -0.62993828783E+02 -0.51333411632E+03  0.54637620977E+03  0.17058539217E+03 0.  0.
         24    2    3    3    0    0  0.16073955033E+02 -0.55108908844E+02 -0.44071085175E+03  0.45159801538E+03  0.80120838573E+02 0.  0.
         -6    2    1    2    0  503  0.44129912069E+02  0.62993828783E+02 -0.47464564154E+02  0.19575905047E+03  0.17364633421E+03 0.  0.
        -24    2    5    5    0    0 -0.39067561775E+02  0.27037558157E+02 -0.57682143046E-01  0.93366787511E+02  0.80374434672E+02 0.  0.
          2    1    4    4  501    0 -0.15028641153E+02  0.12110235728E+02 -0.16452558693E+03  0.16565381559E+03  0.00000000000E+00 0. -1.
         -1    1    4    4    0  501  0.31102596185E+02 -0.67219144571E+02 -0.27618526482E+03  0.28594419978E+03  0.00000000000E+00 0.  1.
          5    1    3    3  502    0 -0.60203867101E+02 -0.78849199396E+01 -0.72623264565E+02  0.94778194393E+02  0.47000000000E+01 0. -1.
         13    1    6    6    0    0 -0.32218195510E+02 -0.25053378622E+02 -0.84604255782E+00  0.40821559137E+02  0.00000000000E+00 0. -1.
        -14    1    6    6    0    0 -0.68493662642E+01  0.52090936780E+02  0.78836041477E+00  0.52545228375E+02  0.00000000000E+00 0.  1.
         -5    1    5    5    0  503  0.83197473843E+02  0.35956270626E+02 -0.47406882011E+02  0.10239226296E+03  0.47000000000E+01 0.  1.
<mgrwt>
<rscale>  2 0.18921513E+03</rscale>
<asrwt>0</asrwt>
<pdfrwt beam="1">  1       21 0.13948968E-01 0.18991767E+03</pdfrwt>
<pdfrwt beam="2">  1       21 0.10022569E+00 0.18991767E+03</pdfrwt>
<totfact> 0.36603822E+04</totfact>
</mgrwt>
</event>
<event>
12    1  0.1441827E-001  0.5028924E+03  0.7546771E-02  0.1013087E+00
         21   -1    0    0  504  503  0.00000000000E+00  0.00000000000E+00  0.74064821147E+03  0.74064821147E+03  0.00000000000E+00 0.  1.
         21   -1    0    0  502  504 -0.00000000000E+00 -0.00000000000E+00 -0.35538185544E+03  0.35538185544E+03  0.00000000000E+00 0. -1.
          6    2    1    2  502    0  0.11608978751E+03  0.45689107808E+03  0.30336714002E+03  0.58651236576E+03  0.17244952176E+03 0.  0.
         24    2    3    3    0    0  0.11848267786E+02  0.31712342416E+03  0.22155543805E+03  0.39385584214E+03  0.72992908254E+02 0.  0.
         -6    2    1    2    0  503 -0.11608978751E+03 -0.45689107808E+03  0.81899216009E+02  0.50951770114E+03  0.17514140059E+03 0.  0.
        -24    2    5    5    0    0 -0.12417505641E+03 -0.28563085508E+03  0.52093357376E+01  0.32163778393E+03  0.80120514622E+02 0.  0.
          2    1    4    4  501    0 -0.84447745444E+01  0.15901496677E+03  0.70148056436E+02  0.17400524043E+03  0.00000000000E+00 0. -1.
         -1    1    4    4    0  501  0.20293042330E+02  0.15810845739E+03  0.15140738162E+03  0.21985060171E+03  0.00000000000E+00 0.  1.
          5    1    3    3  502    0  0.10424151972E+03  0.13976765392E+03  0.81811701966E+02  0.19265652362E+03  0.47000000000E+01 0. -1.
         11    1    6    6    0    0 -0.40155736772E+02 -0.17544996267E+03  0.24842817943E+02  0.18169297785E+03  0.00000000000E+00 0. -1.
        -12    1    6    6    0    0 -0.84019319639E+02 -0.11018089241E+03 -0.19633482205E+02  0.13994480608E+03  0.00000000000E+00 0.  1.
         -5    1    5    5    0  503  0.80852689056E+01 -0.17126022300E+03  0.76689880271E+02  0.18787991721E+03  0.47000000000E+01 0.  1.
<mgrwt>
<rscale>  2 0.50265949E+03</rscale>
<asrwt>0</asrwt>
<pdfrwt beam="1">  1       21 0.11394588E+00 0.50289244E+03</pdfrwt>
<pdfrwt beam="2">  1       21 0.54674132E-01 0.50289244E+03</pdfrwt>
<totfact> 0.15927095E+03</totfact>
</mgrwt>
</event>
<event>
12    1  0.1441827E-001  0.2716121E+03  0.7546771E-02  0.1100400E+00
         21   -1    0    0  504  503  0.00000000000E+00  0.00000000000E+00  0.38945902764E+03  0.38945902764E+03  0.00000000000E+00 0.  1.
         21   -1    0    0  502  504 -0.00000000000E+00 -0.00000000000E+00 -0.20158875604E+03  0.20158875604E+03  0.00000000000E+00 0.  1.
          6    2    1    2  502    0 -0.20703231471E+03 -0.38563545849E+02  0.20808326799E+02  0.27240798275E+03  0.17153307611E+03 0.  0.
         24    2    3    3    0    0 -0.22239610231E+03 -0.10550808850E+02  0.54380854048E+01  0.23664356294E+03  0.79995357473E+02 0.  0.
         -6    2    1    2    0  503  0.20703231471E+03  0.38563545849E+02  0.16706194480E+03  0.31863980093E+03  0.17109092008E+03 0.  0.
        -24    2    5    5    0    0  0.56711211168E+02 -0.17044570707E+02  0.11004058970E+03  0.14845689422E+03  0.80148856500E+02 0.  0.
          4    1    4    4  501    0 -0.16303774947E+03 -0.33618114528E+02  0.28546594584E+02  0.16889758269E+03  0.00000000000E+00 0. -1.
         -3    1    4    4    0  501 -0.59358352843E+02  0.23067305678E+02 -0.23108509180E+02  0.67745980250E+02  0.00000000000E+00 0.  1.
          5    1    3    3  502    0  0.15363787602E+02 -0.28012737000E+02  0.15370241394E+02  0.35764419808E+02  0.47000000000E+01 0. -1.
         13    1    6    6    0    0  0.25199078134E+01 -0.39897957032E+02  0.35146929293E+02  0.53230663620E+02  0.00000000000E+00 0. -1.
        -14    1    6    6    0    0  0.54191303354E+02  0.22853386325E+02  0.74893660409E+02  0.95226230605E+02  0.00000000000E+00 0.  1.
         -5    1    5    5    0  503  0.15032110354E+03  0.55608116556E+02  0.57021355096E+02  0.17018290670E+03  0.47000000000E+01 0.  1.
<mgrwt>
<rscale>  2 0.27154230E+03</rscale>
<asrwt>0</asrwt>
<pdfrwt beam="1">  1       21 0.59916773E-01 0.27161208E+03</pdfrwt>
<pdfrwt beam="2">  1       21 0.31013655E-01 0.27161208E+03</pdfrwt>
<totfact> 0.24951308E+04</totfact>
</mgrwt>
</event>
<event>
12    1  0.1441827E-001  0.1825020E+03  0.7546771E-02  0.1167122E+00
         21   -1    0    0  504  503  0.00000000000E+00  0.00000000000E+00  0.69105671121E+02  0.69105671121E+02  0.00000000000E+00 0. -1.
         21   -1    0    0  502  504 -0.00000000000E+00 -0.00000000000E+00 -0.46907882844E+03  0.46907882844E+03  0.00000000000E+00 0. -1.
          6    2    1    2  502    0 -0.10772456301E+02 -0.34855578795E+02 -0.23335995895E+03  0.29624962730E+03  0.17881838285E+03 0.  0.
         24    2    3    3    0    0 -0.68691553220E+02 -0.39222386224E+00 -0.94444427135E+02  0.14177645940E+03  0.80387382720E+02 0.  0.
         -6    2    1    2    0  503  0.10772456301E+02  0.34855578795E+02 -0.16661319838E+03  0.24193487227E+03  0.17158545206E+03 0.  0.
        -24    2    5    5    0    0  0.59929148636E+02  0.48928519009E+02 -0.72806573432E+02  0.13499469773E+03  0.83290266242E+02 0.  0.
          4    1    4    4  501    0 -0.35296082586E+02  0.17587337278E+02 -0.96033809115E+02  0.10381531858E+03  0.00000000000E+00 0. -1.
         -3    1    4    4    0  501 -0.33395470633E+02 -0.17979561140E+02  0.15893819795E+01  0.37961140824E+02  0.00000000000E+00 0.  1.
          5    1    3    3  502    0  0.57919096919E+02 -0.34463354933E+02 -0.13891553181E+03  0.15447316790E+03  0.47000000000E+01 0. -1.
         13    1    6    6    0    0  0.31025606348E+02  0.21286820286E+02  0.13417648468E+02  0.39946842899E+02  0.00000000000E+00 0. -1.
        -14    1    6    6    0    0  0.28903542288E+02  0.27641698723E+02 -0.86224221900E+02  0.95047854828E+02  0.00000000000E+00 0.  1.
         -5    1    5    5    0  503 -0.49156692335E+02 -0.14072940213E+02 -0.93806624944E+02  0.10694017454E+03  0.47000000000E+01 0.  1.
<mgrwt>
<rscale>  2 0.18070537E+03</rscale>
<asrwt>0</asrwt>
<pdfrwt beam="1">  1       21 0.10631641E-01 0.18250198E+03</pdfrwt>
<pdfrwt beam="2">  1       21 0.72165975E-01 0.18250198E+03</pdfrwt>
<totfact> 0.12657396E+05</totfact>
</mgrwt>
</event>
<event>
12    1  0.1441827E-001  0.2202185E+03  0.7546771E-02  0.1134410E+00
         21   -1    0    0  504  503  0.00000000000E+00  0.00000000000E+00  0.64279963267E+03  0.64279963267E+03  0.00000000000E+00 0.  1.
         21   -1    0    0  502  504 -0.00000000000E+00 -0.00000000000E+00 -0.29312343822E+03  0.29312343822E+03  0.00000000000E+00 0.  1.
          6    2    1    2  502    0  0.99154455690E+02 -0.93787908526E+02 -0.22921165007E+03  0.31785870982E+03  0.17282476966E+03 0.  0.
         24    2    3    3    0    0  0.61173115254E+02 -0.60793520436E+02 -0.40994370902E+02  0.12297657609E+03  0.77489984287E+02 0.  0.
         -6    2    1    2    0  503 -0.99154455690E+02  0.93787908526E+02  0.57888784453E+03  0.61806436107E+03  0.16812090892E+03 0.  0.
        -24    2    5    5    0    0 -0.57885345705E+01  0.10847210657E+02  0.33120239931E+03  0.34063594803E+03  0.78655264740E+02 0.  0.
          4    1    4    4  501    0 -0.40331940157E+01 -0.47670428057E+02 -0.27251287253E+02  0.55057869756E+02  0.00000000000E+00 0. -1.
         -3    1    4    4    0  501  0.65206309269E+02 -0.13123092378E+02 -0.13743083649E+02  0.67918706336E+02  0.00000000000E+00 0.  1.
          5    1    3    3  502    0  0.37981340436E+02 -0.32994388090E+02 -0.18821727917E+03  0.19488213373E+03  0.47000000000E+01 0. -1.
         11    1    6    6    0    0 -0.50428157779E+01  0.18296561573E+02  0.14599410214E+02  0.23944455203E+02  0.00000000000E+00 0. -1.
        -12    1    6    6    0    0 -0.74571879257E+00 -0.74493509164E+01  0.31660298909E+03  0.31669149283E+03  0.00000000000E+00 0.  1.
         -5    1    5    5    0  503 -0.93365921120E+02  0.82940697869E+02  0.24768544522E+03  0.27742841304E+03  0.47000000000E+01 0.  1.
<mgrwt>
<rscale>  2 0.21929471E+03</rscale>
<asrwt>0</asrwt>
<pdfrwt beam="1">  1       21 0.98892251E-01 0.22021848E+03</pdfrwt>
<pdfrwt beam="2">  1       21 0.45095914E-01 0.22021848E+03</pdfrwt>
<totfact> 0.38907425E+03</totfact>
</mgrwt>
</event>
<event>
12    1  0.1441827E-001  0.2616787E+03  0.7546771E-02  0.1106194E+00
         21   -1    0    0  504  503  0.00000000000E+00  0.00000000000E+00  0.23137885218E+04  0.23137885218E+04  0.00000000000E+00 0.  1.
         21   -1    0    0  502  504 -0.00000000000E+00 -0.00000000000E+00 -0.87453051488E+02  0.87453051488E+02  0.00000000000E+00 0.  1.
          6    2    1    2  502    0  0.19413063024E+03 -0.24892239280E+02  0.13651496812E+03  0.29514756258E+03  0.17369347139E+03 0.  0.
         24    2    3    3    0    0  0.56335960390E+02 -0.41321563575E+02  0.91280598365E+01  0.10671505971E+03  0.80147179883E+02 0.  0.
         -6    2    1    2    0  503 -0.19413063024E+03  0.24892239280E+02  0.20898205022E+04  0.21060940107E+04  0.17313556941E+03 0.  0.
        -24    2    5    5    0    0 -0.15011016130E+03 -0.27464987708E+02  0.18022562615E+04  0.18104686338E+04  0.79885268115E+02 0.  0.
          2    1    4    4  501    0 -0.20562472024E+01 -0.17302209378E+02 -0.28360276097E+02  0.33285129746E+02  0.00000000000E+00 0. -1.
         -1    1    4    4    0  501  0.58392207593E+02 -0.24019354197E+02  0.37488335933E+02  0.73429929965E+02  0.00000000000E+00 0.  1.
          5    1    3    3  502    0  0.13779466985E+03  0.16429324295E+02  0.12738690828E+03  0.18843250287E+03  0.47000000000E+01 0. -1.
         13    1    6    6    0    0 -0.20647998550E+01 -0.22517345381E+02  0.33205454469E+03  0.33282354919E+03  0.00000000000E+00 0. -1.
        -14    1    6    6    0    0 -0.14804536144E+03 -0.49476423264E+01  0.14702017168E+04  0.14776450847E+04  0.00000000000E+00 0.  1.
         -5    1    5    5    0  503 -0.44020468940E+02  0.52357226987E+02  0.28756424073E+03  0.29562537687E+03  0.47000000000E+01 0.  1.
<mgrwt>
<rscale>  2 0.26158616E+03</rscale>
<asrwt>0</asrwt>
<pdfrwt beam="1">  1       21 0.35596742E+00 0.26167871E+03</pdfrwt>
<pdfrwt beam="2">  1       21 0.13454317E-01 0.26167871E+03</pdfrwt>
<totfact> 0.70461714E+02</totfact>
</mgrwt>
</event>
<event>
12    1  0.1441827E-001  0.2491478E+03  0.7546771E-02  0.1113925E+00
         21   -1    0    0  504  503  0.00000000000E+00  0.00000000000E+00  0.74402646305E+03  0.74402646305E+03  0.00000000000E+00 0. -1.
         21   -1    0    0  502  504 -0.00000000000E+00 -0.00000000000E+00 -0.83850843518E+02  0.83850843518E+02  0.00000000000E+00 0.  1.
          6    2    1    2  502    0 -0.11588912899E+03  0.13630333554E+03  0.29505969692E+03  0.38585439654E+03  0.17266876117E+03 0.  0.
         24    2    3    3    0    0 -0.11496988191E+02  0.10850614990E+02  0.12317664711E+03  0.14878483509E+03  0.81942200209E+02 0.  0.
         -6    2    1    2    0  503  0.11588912899E+03 -0.13630333554E+03  0.36511592261E+03  0.44202291003E+03  0.17339471315E+03 0.  0.
        -24    2    5    5    0    0  0.60869848419E+02 -0.15949053079E+03  0.29069553233E+03  0.34649672646E+03  0.80085710755E+02 0.  0.
          4    1    4    4  501    0 -0.18519486914E+02 -0.12236124981E+02 -0.10641870184E+01  0.22222210603E+02  0.00000000000E+00 0. -1.
         -3    1    4    4    0  501  0.70224987224E+01  0.23086739970E+02  0.12424083413E+03  0.12656262448E+03  0.00000000000E+00 0.  1.
          5    1    3    3  502    0 -0.10439214080E+03  0.12545272055E+03  0.17188304981E+03  0.23706956145E+03  0.47000000000E+01 0. -1.
         11    1    6    6    0    0  0.47869321042E+02 -0.10650055309E+03  0.25722701016E+03  0.28248818464E+03  0.00000000000E+00 0. -1.
        -12    1    6    6    0    0  0.13000527377E+02 -0.52989977700E+02  0.33468522172E+02  0.64008541813E+02  0.00000000000E+00 0.  1.
         -5    1    5    5    0  503  0.55019280576E+02  0.23187195252E+02  0.74420390275E+02  0.95526183570E+02  0.47000000000E+01 0.  1.
<mgrwt>
<rscale>  2 0.24902151E+03</rscale>
<asrwt>0</asrwt>
<pdfrwt beam="1">  1       21 0.11446561E+00 0.24914778E+03</pdfrwt>
<pdfrwt beam="2">  1       21 0.12900130E-01 0.24914778E+03</pdfrwt>
<totfact> 0.29652984E+04</totfact>
</mgrwt>
</event>
<event>
12    1  0.1441827E-001  0.1948553E+03  0.7546771E-02  0.1154299E+00
         21   -1    0    0  504  503  0.00000000000E+00  0.00000000000E+00  0.28646642708E+03  0.28646642708E+03  0.00000000000E+00 0.  1.
         21   -1    0    0  502  504 -0.00000000000E+00 -0.00000000000E+00 -0.36790818257E+03  0.36790818257E+03  0.00000000000E+00 0.  1.
          6    2    1    2  502    0 -0.96206607312E+01  0.86834544678E+02 -0.30264377634E+03  0.35958835220E+03  0.17342932975E+03 0.  0.
         24    2    3    3    0    0  0.59189382104E+02  0.62143439473E+02 -0.15096437203E+03  0.19114487692E+03  0.79880738151E+02 0.  0.
         -6    2    1    2    0  503  0.96206607312E+01 -0.86834544678E+02  0.22120202085E+03  0.29478625745E+03  0.17417177810E+03 0.  0.
        -24    2    5    5    0    0 -0.50465750965E+02 -0.10978152945E+02  0.87656135223E+02  0.12979788632E+03  0.80601373370E+02 0.  0.
          2    1    4    4  501    0  0.73626264745E+02  0.32215556857E+02 -0.83220118285E+02  0.11569034986E+03  0.00000000000E+00 0. -1.
         -1    1    4    4    0  501 -0.14436882641E+02  0.29927882617E+02 -0.67744253741E+02  0.75454527056E+02  0.00000000000E+00 0.  1.
          5    1    3    3  502    0 -0.68810042836E+02  0.24691105205E+02 -0.15167940431E+03  0.16844347528E+03  0.47000000000E+01 0. -1.
         13    1    6    6    0    0 -0.48287123925E+02  0.26453532762E+02  0.67896274688E+02  0.87414757616E+02  0.00000000000E+00 0. -1.
        -14    1    6    6    0    0 -0.21786270409E+01 -0.37431685707E+02  0.19759860535E+02  0.42383128708E+02  0.00000000000E+00 0.  1.
         -5    1    5    5    0  503  0.60086411697E+02 -0.75856391733E+02  0.13354588563E+03  0.16498837112E+03  0.47000000000E+01 0.  1.
<mgrwt>
<rscale>  2 0.19468929E+03</rscale>
<asrwt>0</asrwt>
<pdfrwt beam="1">  1       21 0.44071758E-01 0.19485534E+03</pdfrwt>
<pdfrwt beam="2">  1       21 0.56601259E-01 0.19485534E+03</pdfrwt>
<totfact> 0.14495510E+04</totfact>
</mgrwt>
</event>
<event>
12    1  0.1441827E-001  0.2634939E+03  0.7546771E-02  0.1105763E+00
         21   -1    0    0  504  503  0.00000000000E+00  0.00000000000E+00  0.91387789382E+03  0.91387789382E+03  0.00000000000E+00 0. -1.
         21   -1    0    0  502  504 -0.00000000000E+00 -0.00000000000E+00 -0.16125959495E+03  0.16125959495E+03  0.00000000000E+00 0. -1.
          6    2    1    2  502    0 -0.12578487586E+02  0.19348328789E+03 -0.19278401125E+02  0.25950672674E+03  0.17140036007E+03 0.  0.
         24    2    3    3    0    0 -0.54492626542E+02  0.49862064223E+02  0.62899857031E+01  0.10765257521E+03  0.78063059335E+02 0.  0.
         -6    2    1    2    0  503  0.12578487586E+02 -0.19348328789E+03  0.77189669999E+03  0.81563076202E+03  0.17842371887E+03 0.  0.
        -24    2    5    5    0    0  0.78139032096E+02 -0.12609021473E+03  0.50369254201E+03  0.53138514347E+03  0.81606024520E+02 0.  0.
          2    1    4    4  501    0 -0.11763982397E+02  0.52080153199E+02 -0.20476118789E+02  0.57183958238E+02  0.00000000000E+00 0. -1.
         -1    1    4    4    0  501 -0.42728644145E+02 -0.22180889760E+01  0.26766104493E+02  0.50468616971E+02  0.00000000000E+00 0.  1.
          5    1    3    3  502    0  0.41914138957E+02  0.14362122367E+03 -0.25568386829E+02  0.15185415153E+03  0.47000000000E+01 0. -1.
         11    1    6    6    0    0  0.10177105739E+02 -0.69766133271E+02  0.13532802438E+03  0.15259279477E+03  0.00000000000E+00 0. -1.
        -12    1    6    6    0    0  0.67961926358E+02 -0.56324081460E+02  0.36836451763E+03  0.37879234871E+03  0.00000000000E+00 0.  1.
         -5    1    5    5    0  503 -0.65560544511E+02 -0.67393073162E+02  0.26820415798E+03  0.28424561855E+03  0.47000000000E+01 0.  1.
<mgrwt>
<rscale>  2 0.26230987E+03</rscale>
<asrwt>0</asrwt>
<pdfrwt beam="1">  1       21 0.14059660E+00 0.26349388E+03</pdfrwt>
<pdfrwt beam="2">  1       21 0.24809169E-01 0.26349388E+03</pdfrwt>
<totfact> 0.51686476E+03</totfact>
</mgrwt>
</event>
<event>
12    1  0.1441827E-001  0.1747667E+03  0.7546771E-02  0.1173203E+00
         21   -1    0    0  504  503  0.00000000000E+00  0.00000000000E+00  0.25130829727E+04  0.25130829727E+04  0.00000000000E+00 0. -1.
         21   -1    0    0  502  504 -0.00000000000E+00 -0.00000000000E+00 -0.34654151473E+02  0.34654151473E+02  0.00000000000E+00 0. -1.
          6    2    1    2  502    0  0.41907666557E+00  0.96445569148E+01  0.21243410857E+03  0.27508477624E+03  0.17449982961E+03 0.  0.
         24    2    3    3    0    0  0.54378388467E+02  0.29885284988E+02  0.18642474634E+03  0.21168232104E+03  0.78772327624E+02 0.  0.
         -6    2    1    2    0  503 -0.41907666557E+00 -0.96445569148E+01  0.22659947127E+04  0.22726523479E+04  0.17356112365E+03 0.  0.
        -24    2    5    5    0    0 -0.15953168950E+02  0.35108265025E+02  0.20280417446E+04  0.20299842040E+04  0.79971598483E+02 0.  0.
          2    1    4    4  501    0  0.28218849991E+02 -0.21289399439E+01  0.92869972400E+01  0.29783958733E+02  0.00000000000E+00 0. -1.
         -1    1    4    4    0  501  0.26159538476E+02  0.32014224932E+02  0.17713774910E+03  0.18189836230E+03  0.00000000000E+00 0.  1.
          5    1    3    3  502    0 -0.53959311801E+02 -0.20240728073E+02  0.26009362226E+02  0.63402455208E+02  0.47000000000E+01 0. -1.
         13    1    6    6    0    0  0.24100551678E+02  0.20911159323E+02  0.14625393629E+04  0.14628873850E+04  0.00000000000E+00 0. -1.
        -14    1    6    6    0    0 -0.40053720628E+02  0.14197105702E+02  0.56550238179E+03  0.56709681903E+03  0.00000000000E+00 0.  1.
         -5    1    5    5    0  503  0.15534092285E+02 -0.44752821940E+02  0.23795296801E+03  0.24266814393E+03  0.47000000000E+01 0.  1.
<mgrwt>
<rscale>  2 0.17453187E+03</rscale>
<asrwt>0</asrwt>
<pdfrwt beam="1">  1       21 0.38662801E+00 0.17476665E+03</pdfrwt>
<pdfrwt beam="2">  1       21 0.53314099E-02 0.17476665E+03</pdfrwt>
<totfact> 0.26102688E+03</totfact>
</mgrwt>
</event>
<event>
12    1  0.1441827E-001  0.2298882E+03  0.7546771E-02  0.1127017E+00
         21   -1    0    0  504  503  0.00000000000E+00  0.00000000000E+00  0.59620146167E+03  0.59620146167E+03  0.00000000000E+00 0. -1.
         21   -1    0    0  502  504 -0.00000000000E+00 -0.00000000000E+00 -0.10560851650E+03  0.10560851650E+03  0.00000000000E+00 0. -1.
          6    2    1    2  502    0  0.97803800647E+02 -0.11222503814E+03  0.10273061393E+03  0.25179786148E+03  0.17518145278E+03 0.  0.
         24    2    3    3    0    0  0.10444640662E+03 -0.12600005940E+03  0.12622775118E+03  0.22337109797E+03  0.84712073601E+02 0.  0.
         -6    2    1    2    0  503 -0.97803800647E+02  0.11222503814E+03  0.38786233124E+03  0.45001211669E+03  0.17295570117E+03 0.  0.
        -24    2    5    5    0    0 -0.11241277770E+03  0.13878963537E+03  0.35235768535E+03  0.40308909551E+03  0.80160370613E+02 0.  0.
          4    1    4    4  501    0  0.10915782348E+03 -0.11395896162E+03  0.13506232263E+03  0.20771111273E+03  0.00000000000E+00 0. -1.
         -3    1    4    4    0  501 -0.47114168621E+01 -0.12041097785E+02 -0.88345714499E+01  0.15659985230E+02  0.00000000000E+00 0.  1.
          5    1    3    3  502    0 -0.66426059702E+01  0.13775021268E+02 -0.23497137245E+02  0.28426763511E+02  0.47000000000E+01 0. -1.
         11    1    6    6    0    0 -0.11256834157E+03  0.14437003910E+03  0.30738094919E+03  0.35776722550E+03  0.00000000000E+00 0. -1.
        -12    1    6    6    0    0  0.15556386851E+00 -0.55804037325E+01  0.44976736156E+02  0.45321870010E+02  0.00000000000E+00 0.  1.
         -5    1    5    5    0  503  0.14608977058E+02 -0.26564597235E+02  0.35504645894E+02  0.46923021184E+02  0.47000000000E+01 0.  1.
<mgrwt>
<rscale>  2 0.22946414E+03</rscale>
<asrwt>0</asrwt>
<pdfrwt beam="1">  1       21 0.91723300E-01 0.22988820E+03</pdfrwt>
<pdfrwt beam="2">  1       21 0.16247464E-01 0.22988820E+03</pdfrwt>
<totfact> 0.33421087E+04</totfact>
</mgrwt>
</event>
<event>
12    1  0.1441827E-001  0.1803594E+03  0.7546771E-02  0.1167585E+00
         21   -1    0    0  504  503  0.00000000000E+00  0.00000000000E+00  0.83417951729E+03  0.83417951729E+03  0.00000000000E+00 0.  1.
         21   -1    0    0  502  504 -0.00000000000E+00 -0.00000000000E+00 -0.51099098469E+02  0.51099098469E+02  0.00000000000E+00 0.  1.
          6    2    1    2  502    0  0.20602602570E+02  0.44716103624E+02  0.17553061794E+03  0.25167544015E+03  0.17350945849E+03 0.  0.
         24    2    3    3    0    0  0.34891152577E+02  0.95256658571E+02  0.11483229305E+03  0.17127091913E+03  0.76524823967E+02 0.  0.
         -6    2    1    2    0  503 -0.20602602570E+02 -0.44716103624E+02  0.60754980088E+03  0.63360317560E+03  0.17295151469E+03 0.  0.
        -24    2    5    5    0    0 -0.72758416640E+02  0.40047368695E+01  0.36159469314E+03  0.37745877441E+03  0.80091067944E+02 0.  0.
          4    1    4    4  501    0  0.40224921533E+02  0.57875934114E+02  0.11335779814E+03  0.13348280212E+03  0.00000000000E+00 0. -1.
         -3    1    4    4    0  501 -0.53337689564E+01  0.37380724457E+02  0.14744949065E+01  0.37788117014E+02  0.00000000000E+00 0.  1.
          5    1    3    3  502    0 -0.14288550008E+02 -0.50540554947E+02  0.60698324894E+02  0.80404521021E+02  0.47000000000E+01 0. -1.
         11    1    6    6    0    0 -0.53329030886E+02  0.35027479848E+02  0.29128630029E+03  0.29819225110E+03  0.00000000000E+00 0. -1.
        -12    1    6    6    0    0 -0.19429385755E+02 -0.31022742979E+02  0.70308392846E+02  0.79266523308E+02  0.00000000000E+00 0.  1.
         -5    1    5    5    0  503  0.52155814071E+02 -0.48720840494E+02  0.24595510774E+03  0.25614440119E+03  0.47000000000E+01 0.  1.
<mgrwt>
<rscale>  2 0.18022512E+03</rscale>
<asrwt>0</asrwt>
<pdfrwt beam="1">  1       21 0.12833530E+00 0.18035944E+03</pdfrwt>
<pdfrwt beam="2">  1       21 0.78614004E-02 0.18035944E+03</pdfrwt>
<totfact> 0.55589775E+04</totfact>
</mgrwt>
</event>
<event>
12    1  0.1441827E-001  0.2948832E+03  0.7546771E-02  0.1087851E+00
         21   -1    0    0  504  503  0.00000000000E+00  0.00000000000E+00  0.33130365576E+02  0.33130365576E+02  0.00000000000E+00 0.  1.
         21   -1    0    0  502  504 -0.00000000000E+00 -0.00000000000E+00 -0.32745543950E+04  0.32745543950E+04  0.00000000000E+00 0. -1.
          6    2    1    2  502    0  0.23881731931E+03 -0.70229408689E+01 -0.88338747279E+03  0.93130528019E+03  0.17283825997E+03 0.  0.
         24    2    3    3    0    0  0.19126329526E+03 -0.56092066872E+02 -0.76522654099E+03  0.79472834167E+03  0.79331645214E+02 0.  0.
         -6    2    1    2    0  503 -0.23881731931E+03  0.70229408689E+01 -0.23580365566E+04  0.23763794804E+04  0.17251086549E+03 0.  0.
        -24    2    5    5    0    0 -0.14706447196E+03  0.50660149836E+02 -0.10802017411E+04  0.10945032396E+04  0.83109146642E+02 0.  0.
          2    1    4    4  501    0  0.13241511965E+03 -0.57346180013E+02 -0.64398417887E+03  0.65995300659E+03  0.00000000000E+00 0. -1.
         -1    1    4    4    0  501  0.58848175605E+02  0.12541131405E+01 -0.12124236212E+03  0.13477533507E+03  0.00000000000E+00 0.  1.
          5    1    3    3  502    0  0.47554024057E+02  0.49069126004E+02 -0.11816093180E+03  0.13657693852E+03  0.47000000000E+01 0. -1.
         11    1    6    6    0    0 -0.10972369209E+03  0.26492527979E+02 -0.95475735209E+03  0.96140664863E+03  0.00000000000E+00 0. -1.
        -12    1    6    6    0    0 -0.37340779873E+02  0.24167621857E+02 -0.12544438903E+03  0.13309659096E+03  0.00000000000E+00 0.  1.
         -5    1    5    5    0  503 -0.91752847353E+02 -0.43637208967E+02 -0.12778348155E+04  0.12818762408E+04  0.47000000000E+01 0.  1.
<mgrwt>
<rscale>  2 0.29483524E+03</rscale>
<asrwt>0</asrwt>
<pdfrwt beam="1">  1       21 0.50969780E-02 0.29488319E+03</pdfrwt>
<pdfrwt beam="2">  1       21 0.50377773E+00 0.29488319E+03</pdfrwt>
<totfact> 0.40434412E+02</totfact>
</mgrwt>
</event>
<event>
12    1  0.1441827E-001  0.1785450E+03  0.7546771E-02  0.1170168E+00
         21   -1    0    0  504  503  0.00000000000E+00  0.00000000000E+00  0.31480877945E+03  0.31480877945E+03  0.00000000000E+00 0.  1.
         21   -1    0    0  502  504 -0.00000000000E+00 -0.00000000000E+00 -0.13232568519E+03  0.13232568519E+03  0.00000000000E+00 0.  1.
          6    2    1    2  502    0 -0.70951381233E+01  0.12561342046E+02 -0.21525423522E+02  0.17602970768E+03  0.17411199221E+03 0.  0.
         24    2    3    3    0    0  0.31921144407E+01  0.60783753009E+02  0.28987963078E+02  0.10528424345E+03  0.80867890354E+02 0.  0.
         -6    2    1    2    0  503  0.70951381233E+01 -0.12561342046E+02  0.20400851778E+03  0.27110475695E+03  0.17796119132E+03 0.  0.
        -24    2    5    5    0    0 -0.51037566163E+02 -0.36030559806E+02  0.17357603750E+03  0.20125891709E+03  0.80457917670E+02 0.  0.
          4    1    4    4  501    0  0.25573970458E+02  0.53280746837E+02  0.47065457163E+02  0.75551460651E+02  0.00000000000E+00 0. -1.
         -3    1    4    4    0  501 -0.22381856018E+02  0.75030061713E+01 -0.18077494085E+02  0.29732782796E+02  0.00000000000E+00 0.  1.
          5    1    3    3  502    0 -0.10287252564E+02 -0.48222410963E+02 -0.50513386600E+02  0.70745464238E+02  0.47000000000E+01 0. -1.
         11    1    6    6    0    0  0.65007955611E+01 -0.39619252180E+02  0.44744017300E+02  0.60116325323E+02  0.00000000000E+00 0. -1.
        -12    1    6    6    0    0 -0.57538361725E+02  0.35886923740E+01  0.12883202020E+03  0.14114259177E+03  0.00000000000E+00 0.  1.
         -5    1    5    5    0  503  0.58132704287E+02  0.23469217761E+02  0.30432480281E+02  0.69845839862E+02  0.47000000000E+01 0.  1.
<mgrwt>
<rscale>  2 0.17757808E+03</rscale>
<asrwt>0</asrwt>
<pdfrwt beam="1">  1       21 0.48432120E-01 0.17854499E+03</pdfrwt>
<pdfrwt beam="2">  1       21 0.20357798E-01 0.17854499E+03</pdfrwt>
<totfact> 0.91422156E+04</totfact>
</mgrwt>
</event>
<event>
12    1  0.1441827E-001  0.1789420E+03  0.7546771E-02  0.1169532E+00
         21   -1    0    0  504  503  0.00000000000E+00  0.00000000000E+00  0.18154594072E+04  0.18154594072E+04  0.00000000000E+00 0.  1.
         21   -1    0    0  502  504 -0.00000000000E+00 -0.00000000000E+00 -0.52598415185E+02  0.52598415185E+02  0.00000000000E+00 0.  1.
          6    2    1    2  502    0  0.41598489439E+02  0.15749839863E+02  0.11456920023E+03  0.21008132428E+03  0.17038066027E+03 0.  0.
         24    2    3    3    0    0 -0.20521094369E+02  0.48699901793E+02  0.97333660570E+02  0.13752994180E+03  0.81534334249E+02 0.  0.
         -6    2    1    2    0  503 -0.41598489439E+02 -0.15749839863E+02  0.16482917918E+04  0.16579764981E+04  0.17332554804E+03 0.  0.
        -24    2    5    5    0    0 -0.76729508127E+02 -0.42189448046E+02  0.82831259009E+03  0.83680585654E+03  0.80466935357E+02 0.  0.
          2    1    4    4  501    0 -0.11324854420E+02  0.42169450624E+02  0.11131141750E+03  0.11956900334E+03  0.00000000000E+00 0. -1.
         -1    1    4    4    0  501 -0.91962399494E+01  0.65304511692E+01 -0.13977756926E+02  0.17960938460E+02  0.00000000000E+00 0.  1.
          5    1    3    3  502    0  0.62119583808E+02 -0.32950061930E+02  0.17235539658E+02  0.72551382488E+02  0.47000000000E+01 0. -1.
         13    1    6    6    0    0 -0.83199860040E+01 -0.49070000953E+02  0.38195629185E+03  0.38518527496E+03  0.00000000000E+00 0. -1.
        -14    1    6    6    0    0 -0.68409522123E+02  0.68805529069E+01  0.44635629824E+03  0.45162058158E+03  0.00000000000E+00 0.  1.
         -5    1    5    5    0  503  0.35131018688E+02  0.26439608183E+02  0.81997920168E+03  0.82117064155E+03  0.47000000000E+01 0.  1.
<mgrwt>
<rscale>  2 0.17822496E+03</rscale>
<asrwt>0</asrwt>
<pdfrwt beam="1">  1       21 0.27930140E+00 0.17894199E+03</pdfrwt>
<pdfrwt beam="2">  1       21 0.80920653E-02 0.17894199E+03</pdfrwt>
<totfact> 0.53667764E+03</totfact>
</mgrwt>
</event>
<event>
12    1  0.1441827E-001  0.2370980E+03  0.7546771E-02  0.1121785E+00
         21   -1    0    0  504  503  0.00000000000E+00  0.00000000000E+00  0.76887595741E+02  0.76887595741E+02  0.00000000000E+00 0.  1.
         21   -1    0    0  502  504 -0.00000000000E+00 -0.00000000000E+00 -0.97585589740E+03  0.97585589740E+03  0.00000000000E+00 0.  1.
          6    2    1    2  502    0  0.11311952435E+03 -0.11574987591E+03 -0.71368487544E+03  0.75203827740E+03  0.17326687129E+03 0.  0.
         24    2    3    3    0    0  0.82376397394E+02 -0.99709311018E+02 -0.69677716128E+03  0.71317440761E+03  0.79946892596E+02 0.  0.
         -6    2    1    2    0  503 -0.11311952435E+03  0.11574987591E+03 -0.18528342622E+03  0.30070521574E+03  0.17291506059E+03 0.  0.
        -24    2    5    5    0    0 -0.14542902283E+03  0.11874449431E+03 -0.16602225914E+03  0.26267951406E+03  0.78659271335E+02 0.  0.
          4    1    4    4  501    0  0.42300065493E+02 -0.59272594458E+02 -0.56434254561E+03  0.56902112858E+03  0.00000000000E+00 0. -1.
         -3    1    4    4    0  501  0.40076331901E+02 -0.40436716560E+02 -0.13243461567E+03  0.14415327902E+03  0.00000000000E+00 0.  1.
          5    1    3    3  502    0  0.30743126959E+02 -0.16040564890E+02 -0.16907714159E+02  0.38863869793E+02  0.47000000000E+01 0. -1.
         13    1    6    6    0    0 -0.33484280483E+00 -0.75094438272E+01 -0.19479967500E+02  0.20879966478E+02  0.00000000000E+00 0. -1.
        -14    1    6    6    0    0 -0.14509418002E+03  0.12625393814E+03 -0.14654229164E+03  0.24179954758E+03  0.00000000000E+00 0.  1.
         -5    1    5    5    0  503  0.32309498474E+02 -0.29946184030E+01 -0.19261167085E+02  0.38025701684E+02  0.47000000000E+01 0.  1.
<mgrwt>
<rscale>  2 0.23703375E+03</rscale>
<asrwt>0</asrwt>
<pdfrwt beam="1">  1       21 0.11828862E-01 0.23709802E+03</pdfrwt>
<pdfrwt beam="2">  1       21 0.15013167E+00 0.23709802E+03</pdfrwt>
<totfact> 0.17447817E+04</totfact>
</mgrwt>
</event>
<event>
12    1  0.1441827E-001  0.1736192E+03  0.7546771E-02  0.1174131E+00
         21   -1    0    0  504  503  0.00000000000E+00  0.00000000000E+00  0.38794165875E+03  0.38794165875E+03  0.00000000000E+00 0. -1.
         21   -1    0    0  502  504 -0.00000000000E+00 -0.00000000000E+00 -0.95024688163E+02  0.95024688163E+02  0.00000000000E+00 0. -1.
          6    2    1    2  502    0  0.82119960336E+01 -0.11501804685E+02  0.43314205189E+02  0.17891835164E+03  0.17302002136E+03 0.  0.
         24    2    3    3    0    0 -0.76029260721E+01 -0.80517973219E+01  0.94267925590E+02  0.12524912456E+03  0.81720655187E+02 0.  0.
         -6    2    1    2    0  503 -0.82119960336E+01  0.11501804685E+02  0.24960276539E+03  0.30404799527E+03  0.17304310025E+03 0.  0.
        -24    2    5    5    0    0 -0.47413136763E+01 -0.61638219717E+02  0.15721792981E+03  0.18607106256E+03  0.77994952938E+02 0.  0.
          4    1    4    4  501    0 -0.41953949318E+02 -0.16284976594E+02  0.38447064891E+02  0.59190464813E+02  0.00000000000E+00 0. -1.
         -3    1    4    4    0  501  0.34351023246E+02  0.82331792724E+01  0.55820860699E+02  0.66058659752E+02  0.00000000000E+00 0.  1.
          5    1    3    3  502    0  0.15814922106E+02 -0.34500073636E+01 -0.50953720401E+02  0.53669227074E+02  0.47000000000E+01 0. -1.
         11    1    6    6    0    0  0.93976233616E+01  0.13868310357E+02  0.87337544292E+01  0.18892427674E+02  0.00000000000E+00 0. -1.
        -12    1    6    6    0    0 -0.14138937038E+02 -0.75506530073E+02  0.14848417538E+03  0.16717863489E+03  0.00000000000E+00 0.  1.
         -5    1    5    5    0  503 -0.34706823573E+01  0.73140024402E+02  0.92384835585E+02  0.11797693271E+03  0.47000000000E+01 0.  1.
<mgrwt>
<rscale>  2 0.17361350E+03</rscale>
<asrwt>0</asrwt>
<pdfrwt beam="1">  1       21 0.59683331E-01 0.17361925E+03</pdfrwt>
<pdfrwt beam="2">  1       21 0.14619183E-01 0.17361925E+03</pdfrwt>
<totfact> 0.10850830E+05</totfact>
</mgrwt>
</event>
<event>
12    1  0.1441827E-001  0.1818921E+03  0.7546771E-02  0.1166186E+00
         21   -1    0    0  504  503  0.00000000000E+00  0.00000000000E+00  0.23862411956E+03  0.23862411956E+03  0.00000000000E+00 0.  1.
         21   -1    0    0  502  504 -0.00000000000E+00 -0.00000000000E+00 -0.15102388453E+03  0.15102388453E+03  0.00000000000E+00 0.  1.
          6    2    1    2  502    0 -0.53682629172E+02 -0.62954581423E+00 -0.13304223320E+02  0.18237800746E+03  0.17378870575E+03 0.  0.
         24    2    3    3    0    0 -0.87184942497E+02 -0.29216780730E+02 -0.42614003756E+02  0.12926691420E+03  0.80244297718E+02 0.  0.
         -6    2    1    2    0  503  0.53682629172E+02  0.62954581423E+00  0.10090445835E+03  0.20726999662E+03  0.17290726064E+03 0.  0.
        -24    2    5    5    0    0 -0.81375414542E+01  0.48492816134E+02  0.23205898520E+02  0.96944195730E+02  0.80261388987E+02 0.  0.
          2    1    4    4  501    0 -0.65843358647E+02 -0.36446459300E+02  0.61906280887E+01  0.75511695449E+02  0.00000000000E+00 0. -1.
         -1    1    4    4    0  501 -0.21341583850E+02  0.72296785699E+01 -0.48804631845E+02  0.53755218751E+02  0.00000000000E+00 0.  1.
          5    1    3    3  502    0  0.33502313325E+02  0.28587234916E+02  0.29309780437E+02  0.53111093262E+02  0.47000000000E+01 0. -1.
         11    1    6    6    0    0  0.19913606705E+02  0.55851413385E+02  0.31006820899E+02  0.66913040966E+02  0.00000000000E+00 0. -1.
        -12    1    6    6    0    0 -0.28051148159E+02 -0.73585972506E+01 -0.78009223787E+01  0.30031154764E+02  0.00000000000E+00 0.  1.
         -5    1    5    5    0  503  0.61820170626E+02 -0.47863270320E+02  0.77698559829E+02  0.11032580089E+03  0.47000000000E+01 0.  1.
<mgrwt>
<rscale>  2 0.18168123E+03</rscale>
<asrwt>0</asrwt>
<pdfrwt beam="1">  1       21 0.36711403E-01 0.18189210E+03</pdfrwt>
<pdfrwt beam="2">  1       21 0.23234444E-01 0.18189210E+03</pdfrwt>
<totfact> 0.12505372E+05</totfact>
</mgrwt>
</event>
<event>
12    1  0.1441827E-001  0.2403910E+03  0.7546771E-02  0.1119884E+00
         21   -1    0    0  504  503  0.00000000000E+00  0.00000000000E+00  0.23362760040E+04  0.23362760040E+04  0.00000000000E+00 0.  1.
         21   -1    0    0  502  504 -0.00000000000E+00 -0.00000000000E+00 -0.35480068528E+02  0.35480068528E+02  0.00000000000E+00 0. -1.
          6    2    1    2  502    0 -0.16436925569E+03 -0.29109656631E+02  0.48778454802E+03  0.54287714426E+03  0.17005059289E+03 0.  0.
         24    2    3    3    0    0 -0.65890934550E+02  0.25081948013E+02  0.34404945750E+03  0.36034885605E+03  0.80687976047E+02 0.  0.
         -6    2    1    2    0  503  0.16436925569E+03  0.29109656631E+02  0.18130113874E+04  0.18288789282E+04  0.17298329089E+03 0.  0.
        -24    2    5    5    0    0  0.14785647533E+03 -0.60362451527E+01  0.93410101198E+03  0.94909858953E+03  0.79658386338E+02 0.  0.
          4    1    4    4  501    0 -0.51645579448E+02 -0.10248077640E+02  0.28673804271E+03  0.29153214936E+03  0.00000000000E+00 0. -1.
         -3    1    4    4    0  501 -0.14245355102E+02  0.35330025653E+02  0.57311414782E+02  0.68816706685E+02  0.00000000000E+00 0.  1.
          5    1    3    3  502    0 -0.98478321141E+02 -0.54191604644E+02  0.14373509053E+03  0.18252828821E+03  0.47000000000E+01 0. -1.
         11    1    6    6    0    0  0.20435853118E+02 -0.17968409036E+02  0.62705909674E+02  0.68355825823E+02  0.00000000000E+00 0. -1.
        -12    1    6    6    0    0  0.12742062221E+03  0.11932163883E+02  0.87139510231E+03  0.88074276371E+03  0.00000000000E+00 0.  1.
         -5    1    5    5    0  503  0.16512780361E+02  0.35145901784E+02  0.87891037544E+03  0.87978033871E+03  0.47000000000E+01 0.  1.
<mgrwt>
<rscale>  2 0.23986388E+03</rscale>
<asrwt>0</asrwt>
<pdfrwt beam="1">  1       21 0.35942696E+00 0.24039102E+03</pdfrwt>
<pdfrwt beam="2">  1       21 0.54584739E-02 0.24039102E+03</pdfrwt>
<totfact> 0.33644710E+03</totfact>
</mgrwt>
</event>
<event>
12    1  0.1441827E-001  0.2105881E+03  0.7546771E-02  0.1141158E+00
         21   -1    0    0  504  503  0.00000000000E+00  0.00000000000E+00  0.15858557543E+03  0.15858557543E+03  0.00000000000E+00 0. -1.
         21   -1    0    0  502  504 -0.00000000000E+00 -0.00000000000E+00 -0.33008931435E+03  0.33008931435E+03  0.00000000000E+00 0. -1.
          6    2    1    2  502    0 -0.93843031079E+02 -0.74231878454E+02  0.10078565534E+02  0.21082918065E+03  0.17329304565E+03 0.  0.
         24    2    3    3    0    0 -0.12925664740E+03 -0.66502712251E+02  0.30882116520E+02  0.16877276658E+03  0.80004062288E+02 0.  0.
         -6    2    1    2    0  503  0.93843031079E+02  0.74231878454E+02 -0.18158230446E+03  0.27784570913E+03  0.17294281866E+03 0.  0.
        -24    2    5    5    0    0  0.96799700448E+02  0.94300672065E+02 -0.19717800729E+03  0.25183005388E+03  0.79223801468E+02 0.  0.
          2    1    4    4  501    0 -0.92286437501E+02 -0.76431861750E+02  0.44962043654E+02  0.12798516089E+03  0.00000000000E+00 0. -1.
         -1    1    4    4    0  501 -0.36970209902E+02  0.99291494990E+01 -0.14079927134E+02  0.40787605692E+02  0.00000000000E+00 0.  1.
          5    1    3    3  502    0  0.35413616324E+02 -0.77291662021E+01 -0.20803550986E+02  0.42056414076E+02  0.47000000000E+01 0. -1.
         13    1    6    6    0    0  0.19538767519E+02  0.39032885556E+02 -0.14615493512E+02  0.46031969777E+02  0.00000000000E+00 0. -1.
        -14    1    6    6    0    0  0.77260932929E+02  0.55267786509E+02 -0.18256251378E+03  0.20579808410E+03  0.00000000000E+00 0.  1.
         -5    1    5    5    0  503 -0.29566693688E+01 -0.20068793611E+02  0.15595702838E+02  0.26015655244E+02  0.47000000000E+01 0.  1.
<mgrwt>
<rscale>  2 0.21051608E+03</rscale>
<asrwt>0</asrwt>
<pdfrwt beam="1">  1       21 0.24397781E-01 0.21058814E+03</pdfrwt>
<pdfrwt beam="2">  1       21 0.50782971E-01 0.21058814E+03</pdfrwt>
<totfact> 0.58045483E+04</totfact>
</mgrwt>
</event>
<event>
12    1  0.1441827E-001  0.1903658E+03  0.7546771E-02  0.1158270E+00
         21   -1    0    0  504  503  0.00000000000E+00  0.00000000000E+00  0.14849976305E+03  0.14849976305E+03  0.00000000000E+00 0. -1.
         21   -1    0    0  502  504 -0.00000000000E+00 -0.00000000000E+00 -0.25492341422E+03  0.25492341422E+03  0.00000000000E+00 0.  1.
          6    2    1    2  502    0 -0.71757216990E+02 -0.35588087192E+02 -0.96454478436E+02  0.21340714306E+03  0.17269491063E+03 0.  0.
         24    2    3    3    0    0  0.24209530331E+02  0.17004777262E+02 -0.51829164717E+02  0.95131470971E+02  0.74084213199E+02 0.  0.
         -6    2    1    2    0  503  0.71757216990E+02  0.35588087192E+02 -0.99691727281E+01  0.19001603421E+03  0.17202063456E+03 0.  0.
        -24    2    5    5    0    0  0.96892294480E+01  0.20111279219E+02 -0.62556131832E+02  0.10707361485E+03  0.83983002135E+02 0.  0.
          4    1    4    4  501    0  0.32081927369E+02  0.16014550505E+02  0.63490928964E+01  0.36414651889E+02  0.00000000000E+00 0. -1.
         -3    1    4    4    0  501 -0.78723970383E+01  0.99022675649E+00 -0.58178257613E+02  0.58716819082E+02  0.00000000000E+00 0.  1.
          5    1    3    3  502    0 -0.95966747321E+02 -0.52592864454E+02 -0.44625313719E+02  0.11827567209E+03  0.47000000000E+01 0. -1.
         13    1    6    6    0    0 -0.23086688731E+02  0.35576749055E+02 -0.10581601654E+02  0.43711217821E+02  0.00000000000E+00 0. -1.
        -14    1    6    6    0    0  0.32775918179E+02 -0.15465469836E+02 -0.51974530178E+02  0.63362397026E+02  0.00000000000E+00 0.  1.
         -5    1    5    5    0  503  0.62067987542E+02  0.15476807973E+02  0.52586959104E+02  0.82942419366E+02  0.47000000000E+01 0.  1.
<mgrwt>
<rscale>  2 0.19021276E+03</rscale>
<asrwt>0</asrwt>
<pdfrwt beam="1">  1       21 0.22846118E-01 0.19036581E+03</pdfrwt>
<pdfrwt beam="2">  1       21 0.39218986E-01 0.19036581E+03</pdfrwt>
<totfact> 0.11276563E+05</totfact>
</mgrwt>
</event>
<event>
12    1  0.1441827E-001  0.2329113E+03  0.7546771E-02  0.1124776E+00
         21   -1    0    0  504  503  0.00000000000E+00  0.00000000000E+00  0.34474846214E+03  0.34474846214E+03  0.00000000000E+00 0.  1.
         21   -1    0    0  502  504 -0.00000000000E+00 -0.00000000000E+00 -0.18450751167E+03  0.18450751167E+03  0.00000000000E+00 0. -1.
          6    2    1    2  502    0 -0.15545248961E+03 -0.18534637049E+02 -0.22476118680E+02  0.23399328916E+03  0.17244904803E+03 0.  0.
         24    2    3    3    0    0 -0.15462348555E+03 -0.37548447637E+02  0.26908685330E+02  0.18085986175E+03  0.81657235090E+02 0.  0.
         -6    2    1    2    0  503  0.15545248961E+03  0.18534637049E+02  0.18271706915E+03  0.29526268465E+03  0.17113011509E+03 0.  0.
        -24    2    5    5    0    0  0.81308514720E+02 -0.42383328648E+02  0.55293482170E+02  0.13567826161E+03  0.83329468918E+02 0.  0.
          4    1    4    4  501    0 -0.15448403863E+03 -0.13801782313E+02  0.23194343991E+02  0.15682405740E+03  0.00000000000E+00 0. -1.
         -3    1    4    4    0  501 -0.13944692692E+00 -0.23746665324E+02  0.37143413392E+01  0.24035804356E+02  0.00000000000E+00 0.  1.
          5    1    3    3  502    0 -0.82900405239E+00  0.19013810588E+02 -0.49384804010E+02  0.53133427406E+02  0.47000000000E+01 0. -1.
         13    1    6    6    0    0  0.63641832720E+02  0.12586367751E+02  0.19487315501E+02  0.67738135423E+02  0.00000000000E+00 0. -1.
        -14    1    6    6    0    0  0.17666682000E+02 -0.54969696398E+02  0.35806166669E+02  0.67940126188E+02  0.00000000000E+00 0.  1.
         -5    1    5    5    0  503  0.74143974887E+02  0.60917965697E+02  0.12742358698E+03  0.15958442304E+03  0.47000000000E+01 0.  1.
<mgrwt>
<rscale>  2 0.23266722E+03</rscale>
<asrwt>0</asrwt>
<pdfrwt beam="1">  1       21 0.53038225E-01 0.23291132E+03</pdfrwt>
<pdfrwt beam="2">  1       21 0.28385771E-01 0.23291132E+03</pdfrwt>
<totfact> 0.39176143E+04</totfact>
</mgrwt>
</event>
<event>
12    1  0.1441827E-001  0.1833391E+03  0.7546771E-02  0.1164885E+00
         21   -1    0    0  504  503  0.00000000000E+00  0.00000000000E+00  0.33630358899E+03  0.33630358899E+03  0.00000000000E+00 0.  1.
         21   -1    0    0  502  504 -0.00000000000E+00 -0.00000000000E+00 -0.10383022271E+03  0.10383022271E+03  0.00000000000E+00 0.  1.
          6    2    1    2  502    0 -0.57374177594E+02 -0.94384217198E+01  0.69999995268E+02  0.19516273224E+03  0.17264881308E+03 0.  0.
         24    2    3    3    0    0 -0.45707722967E+02 -0.90453420615E+01  0.11483465392E+03  0.14859560551E+03  0.81991719616E+02 0.  0.
         -6    2    1    2    0  503  0.57374177594E+02  0.94384217198E+01  0.16247337101E+03  0.24497107945E+03  0.17387453356E+03 0.  0.
        -24    2    5    5    0    0  0.75617581566E+02  0.54688371918E+02  0.15037880503E+03  0.19448594988E+03  0.80635990931E+02 0.  0.
          2    1    4    4  501    0 -0.18527865525E+02 -0.32236781559E+02  0.10983720769E+02  0.38770272222E+02  0.00000000000E+00 0. -1.
         -1    1    4    4    0  501 -0.27179857441E+02  0.23191439498E+02  0.10385093315E+03  0.10982533329E+03  0.00000000000E+00 0.  1.
          5    1    3    3  502    0 -0.11666454627E+02 -0.39307965827E+00 -0.44834658651E+02  0.46567126727E+02  0.47000000000E+01 0. -1.
         13    1    6    6    0    0  0.12372553278E+02  0.65387098545E+01  0.98673837998E+02  0.99661231712E+02  0.00000000000E+00 0. -1.
        -14    1    6    6    0    0  0.63245028288E+02  0.48149662063E+02  0.51704967036E+02  0.94824718171E+02  0.00000000000E+00 0.  1.
         -5    1    5    5    0  503 -0.18243403972E+02 -0.45249950198E+02  0.12094565978E+02  0.50485129569E+02  0.47000000000E+01 0.  1.
<mgrwt>
<rscale>  2 0.18304792E+03</rscale>
<asrwt>0</asrwt>
<pdfrwt beam="1">  1       21 0.51739013E-01 0.18333912E+03</pdfrwt>
<pdfrwt beam="2">  1       21 0.15973881E-01 0.18333912E+03</pdfrwt>
<totfact> 0.12447288E+05</totfact>
</mgrwt>
</event>
<event>
12    1  0.1441827E-001  0.1948157E+03  0.7546771E-02  0.1154245E+00
         21   -1    0    0  504  503  0.00000000000E+00  0.00000000000E+00  0.31239547480E+02  0.31239547480E+02  0.00000000000E+00 0.  1.
         21   -1    0    0  502  504 -0.00000000000E+00 -0.00000000000E+00 -0.12205733020E+04  0.12205733020E+04  0.00000000000E+00 0. -1.
          6    2    1    2  502    0 -0.42446871801E+02  0.76455198378E+02 -0.64339300239E+03  0.67224081237E+03  0.17408624301E+03 0.  0.
         24    2    3    3    0    0  0.11405916918E+02  0.90150371162E+02 -0.28076889659E+03  0.30535389148E+03  0.78438774786E+02 0.  0.
         -6    2    1    2    0  503  0.42446871801E+02 -0.76455198378E+02 -0.54594075212E+03  0.57957203710E+03  0.17379674071E+03 0.  0.
        -24    2    5    5    0    0 -0.30547225396E+02 -0.18735359692E+02 -0.37737974407E+03  0.38697239681E+03  0.77769003983E+02 0.  0.
          4    1    4    4  501    0 -0.16547070761E+02  0.82698236136E+02 -0.24638092081E+03  0.26041574828E+03  0.00000000000E+00 0. -1.
         -3    1    4    4    0  501  0.27952987679E+02  0.74521350252E+01 -0.34387975776E+02  0.44938143204E+02  0.00000000000E+00 0.  1.
          5    1    3    3  502    0 -0.53852788719E+02 -0.13695172784E+02 -0.36262410581E+03  0.36688692089E+03  0.47000000000E+01 0. -1.
         13    1    6    6    0    0 -0.32610764034E+02 -0.43132269248E+02 -0.17625652484E+03  0.18436435970E+03  0.00000000000E+00 0. -1.
        -14    1    6    6    0    0  0.20635386377E+01  0.24396909556E+02 -0.20112321923E+03  0.20260803711E+03  0.00000000000E+00 0.  1.
         -5    1    5    5    0  503  0.72994097198E+02 -0.57719838686E+02 -0.16856100806E+03  0.19259964029E+03  0.47000000000E+01 0.  1.
<mgrwt>
<rscale>  2 0.19475100E+03</rscale>
<asrwt>0</asrwt>
<pdfrwt beam="1">  1       21 0.48060839E-02 0.19481569E+03</pdfrwt>
<pdfrwt beam="2">  1       21 0.18778052E+00 0.19481569E+03</pdfrwt>
<totfact> 0.46339083E+04</totfact>
</mgrwt>
</event>
<event>
12    1  0.1441827E-001  0.2203835E+03  0.7546771E-02  0.1133911E+00
         21   -1    0    0  504  503  0.00000000000E+00  0.00000000000E+00  0.41974068786E+03  0.41974068786E+03  0.00000000000E+00 0.  1.
         21   -1    0    0  502  504 -0.00000000000E+00 -0.00000000000E+00 -0.12076574131E+03  0.12076574131E+03  0.00000000000E+00 0.  1.
          6    2    1    2  502    0 -0.29638014029E+02  0.13040357663E+03  0.20884812875E+03  0.30240620587E+03  0.17305625615E+03 0.  0.
         24    2    3    3    0    0 -0.22108589745E+02  0.15725990217E+03  0.13658036301E+03  0.22480031423E+03  0.81618130019E+02 0.  0.
         -6    2    1    2    0  503  0.29638014029E+02 -0.13040357663E+03  0.90126817801E+02  0.23810022330E+03  0.17517239615E+03 0.  0.
        -24    2    5    5    0    0 -0.26977778831E+02 -0.75130146053E+02  0.10938634463E+03  0.15653111455E+03  0.78512916348E+02 0.  0.
          4    1    4    4  501    0 -0.32990217294E+02  0.21403380435E+02  0.48858240539E+02  0.62718313113E+02  0.00000000000E+00 0. -1.
         -3    1    4    4    0  501  0.10881627548E+02  0.13585652173E+03  0.87722122474E+02  0.16208200112E+03  0.00000000000E+00 0.  1.
          5    1    3    3  502    0 -0.75294242833E+01 -0.26856325544E+02  0.72267765738E+02  0.77605891635E+02  0.47000000000E+01 0. -1.
         11    1    6    6    0    0 -0.19965906257E+02 -0.34844884439E+02  0.10843092957E+03  0.11562901829E+03  0.00000000000E+00 0. -1.
        -12    1    6    6    0    0 -0.70118725740E+01 -0.40285261614E+02  0.95541506411E+00  0.40902096258E+02  0.00000000000E+00 0.  1.
         -5    1    5    5    0  503  0.56615792859E+02 -0.55273430572E+02 -0.19259526828E+02  0.81569108748E+02  0.47000000000E+01 0.  1.
<mgrwt>
<rscale>  2 0.21996270E+03</rscale>
<asrwt>0</asrwt>
<pdfrwt beam="1">  1       21 0.64575489E-01 0.22038347E+03</pdfrwt>
<pdfrwt beam="2">  1       21 0.18579345E-01 0.22038347E+03</pdfrwt>
<totfact> 0.57788998E+04</totfact>
</mgrwt>
</event>
<event>
12    1  0.1441827E-001  0.1970565E+03  0.7546771E-02  0.1152250E+00
         21   -1    0    0  504  503  0.00000000000E+00  0.00000000000E+00  0.82250541304E+02  0.82250541304E+02  0.00000000000E+00 0.  1.
         21   -1    0    0  502  504 -0.00000000000E+00 -0.00000000000E+00 -0.48296801503E+03  0.48296801503E+03  0.00000000000E+00 0.  1.
          6    2    1    2  502    0 -0.45829233866E+02  0.82475781281E+02 -0.15790540804E+03  0.25250626104E+03  0.17298185108E+03 0.  0.
         24    2    3    3    0    0 -0.14230856016E+02 -0.24270904732E+02 -0.80180592572E+02  0.11665137745E+03  0.79918848565E+02 0.  0.
         -6    2    1    2    0  503  0.45829233866E+02 -0.82475781281E+02 -0.24281206569E+03  0.31271229529E+03  0.17299915377E+03 0.  0.
        -24    2    5    5    0    0 -0.29635272404E+02 -0.78102629214E+02 -0.10635793636E+03  0.15664873268E+03  0.79047737230E+02 0.  0.
          2    1    4    4  501    0  0.16311820249E+02 -0.43319060190E+02 -0.31019009476E+02  0.55720690990E+02  0.00000000000E+00 0. -1.
         -1    1    4    4    0  501 -0.30542676266E+02  0.19048155457E+02 -0.49161583096E+02  0.60930686458E+02  0.00000000000E+00 0.  1.
          5    1    3    3  502    0 -0.31598377850E+02  0.10674668601E+03 -0.77724815463E+02  0.13585488359E+03  0.47000000000E+01 0. -1.
         13    1    6    6    0    0 -0.33900102144E+02 -0.16595922847E+01 -0.54405178273E+02  0.64124056288E+02  0.00000000000E+00 0. -1.
        -14    1    6    6    0    0  0.42648297398E+01 -0.76443036929E+02 -0.51952758090E+02  0.92524676389E+02  0.00000000000E+00 0.  1.
         -5    1    5    5    0  503  0.75464506270E+02 -0.43731520667E+01 -0.13645412932E+03  0.15606356261E+03  0.47000000000E+01 0.  1.
<mgrwt>
<rscale>  2 0.19705274E+03</rscale>
<asrwt>0</asrwt>
<pdfrwt beam="1">  1       21 0.12653929E-01 0.19705654E+03</pdfrwt>
<pdfrwt beam="2">  1       21 0.74302772E-01 0.19705654E+03</pdfrwt>
<totfact> 0.86457879E+04</totfact>
</mgrwt>
</event>
<event>
12    1  0.1441827E-001  0.1913358E+03  0.7546771E-02  0.1157406E+00
         21   -1    0    0  504  503  0.00000000000E+00  0.00000000000E+00  0.14593175147E+03  0.14593175147E+03  0.00000000000E+00 0. -1.
         21   -1    0    0  502  504 -0.00000000000E+00 -0.00000000000E+00 -0.31838281460E+03  0.31838281460E+03  0.00000000000E+00 0.  1.
          6    2    1    2  502    0  0.23883323964E+02 -0.77058284704E+02 -0.19368624858E+03  0.27180394942E+03  0.17278492882E+03 0.  0.
         24    2    3    3    0    0  0.47570143396E+01 -0.57816924095E+02 -0.26875156778E+02  0.10273569094E+03  0.80417176296E+02 0.  0.
         -6    2    1    2    0  503 -0.23883323964E+02  0.77058284704E+02  0.21235185440E+02  0.19251061666E+03  0.17349643229E+03 0.  0.
        -24    2    5    5    0    0  0.20520596471E+02  0.86264407037E+02  0.58658521587E+02  0.13352708568E+03  0.80783770979E+02 0.  0.
          2    1    4    4  501    0 -0.29184124598E+01 -0.10482739753E+02  0.27893709031E+02  0.29941008125E+02  0.00000000000E+00 0. -1.
         -1    1    4    4    0  501  0.76754267994E+01 -0.47334184341E+02 -0.54768865809E+02  0.72794682812E+02  0.00000000000E+00 0.  1.
          5    1    3    3  502    0  0.19126309625E+02 -0.19241360610E+02 -0.16681109180E+03  0.16906825848E+03  0.47000000000E+01 0. -1.
         13    1    6    6    0    0  0.40967132117E+02  0.38772377871E+02  0.14638976493E+01  0.56424694912E+02  0.00000000000E+00 0. -1.
        -14    1    6    6    0    0 -0.20446535646E+02  0.47492029166E+02  0.57194623937E+02  0.77102390764E+02  0.00000000000E+00 0.  1.
         -5    1    5    5    0  503 -0.44403920435E+02 -0.92061223322E+01 -0.37423336146E+02  0.58983530979E+02  0.47000000000E+01 0.  1.
<mgrwt>
<rscale>  2 0.19117441E+03</rscale>
<asrwt>0</asrwt>
<pdfrwt beam="1">  1       21 0.22451039E-01 0.19133584E+03</pdfrwt>
<pdfrwt beam="2">  1       21 0.48981971E-01 0.19133584E+03</pdfrwt>
<totfact> 0.73931358E+04</totfact>
</mgrwt>
</event>
<event>
12    1  0.1441827E-001  0.3295536E+03  0.7546771E-02  0.1071389E+00
         21   -1    0    0  504  503  0.00000000000E+00  0.00000000000E+00  0.10907101784E+04  0.10907101784E+04  0.00000000000E+00 0.  1.
         21   -1    0    0  502  504 -0.00000000000E+00 -0.00000000000E+00 -0.10406887513E+03  0.10406887513E+03  0.00000000000E+00 0. -1.
          6    2    1    2  502    0  0.21482166679E+03  0.17997033996E+03  0.36679485344E+03  0.49277106178E+03  0.17247371693E+03 0.  0.
         24    2    3    3    0    0  0.62936471649E+02  0.72758015422E+02  0.23210623333E+03  0.26314808945E+03  0.78223303170E+02 0.  0.
         -6    2    1    2    0  503 -0.21482166679E+03 -0.17997033996E+03  0.61984644980E+03  0.70200799172E+03  0.17340105918E+03 0.  0.
        -24    2    5    5    0    0 -0.13245814985E+03 -0.18586593546E+03  0.40184744100E+03  0.46884674965E+03  0.79022790314E+02 0.  0.
          2    1    4    4  501    0 -0.61036770632E+01  0.20899600264E+02  0.11833040732E+03  0.12031680457E+03  0.00000000000E+00 0. -1.
         -1    1    4    4    0  501  0.69040148712E+02  0.51858415158E+02  0.11377582601E+03  0.14283128488E+03  0.00000000000E+00 0.  1.
          5    1    3    3  502    0  0.15188519514E+03  0.10721232454E+03  0.13468862011E+03  0.22962297233E+03  0.47000000000E+01 0. -1.
         13    1    6    6    0    0 -0.75274434819E+02 -0.59930167801E+02  0.11175102131E+03  0.14746578015E+03  0.00000000000E+00 0. -1.
        -14    1    6    6    0    0 -0.57183715034E+02 -0.12593576766E+03  0.29009641969E+03  0.32138096950E+03  0.00000000000E+00 0.  1.
         -5    1    5    5    0  503 -0.82363516933E+02  0.58955954969E+01  0.21799900880E+03  0.23316124207E+03  0.47000000000E+01 0.  1.
<mgrwt>
<rscale>  2 0.32943182E+03</rscale>
<asrwt>0</asrwt>
<pdfrwt beam="1">  1       21 0.16780156E+00 0.32955364E+03</pdfrwt>
<pdfrwt beam="2">  1       21 0.16010597E-01 0.32955364E+03</pdfrwt>
<totfact> 0.70599061E+03</totfact>
</mgrwt>
</event>
<event>
12    1  0.1441827E-001  0.1985877E+03  0.7546771E-02  0.1151282E+00
         21   -1    0    0  504  503  0.00000000000E+00  0.00000000000E+00  0.32982338288E+03  0.32982338288E+03  0.00000000000E+00 0. -1.
         21   -1    0    0  502  504 -0.00000000000E+00 -0.00000000000E+00 -0.13892303064E+03  0.13892303064E+03  0.00000000000E+00 0. -1.
          6    2    1    2  502    0  0.81632393997E+02  0.50152231448E+02  0.54699923423E+01  0.19704528646E+03  0.17209831502E+03 0.  0.
         24    2    3    3    0    0  0.46016939461E+02  0.37132461393E+02  0.69885836091E+02  0.12214891846E+03  0.80869956032E+02 0.  0.
         -6    2    1    2    0  503 -0.81632393997E+02 -0.50152231448E+02  0.18543035989E+03  0.27170112706E+03  0.17394823944E+03 0.  0.
        -24    2    5    5    0    0 -0.75347956646E+02  0.79951857112E+01  0.18206530035E+03  0.21293013165E+03  0.80313322730E+02 0.  0.
          4    1    4    4  501    0  0.32503537237E+02  0.60790655330E+02  0.33364702694E+02  0.76584509493E+02  0.00000000000E+00 0. -1.
         -3    1    4    4    0  501  0.13513402224E+02 -0.23658193937E+02  0.36521133398E+02  0.45564408969E+02  0.00000000000E+00 0.  1.
          5    1    3    3  502    0  0.35615454536E+02  0.13019770054E+02 -0.64415843749E+02  0.74896368002E+02  0.47000000000E+01 0. -1.
         11    1    6    6    0    0 -0.43350039668E+02 -0.35525360310E+02  0.10117239516E+03  0.11565954654E+03  0.00000000000E+00 0. -1.
        -12    1    6    6    0    0 -0.31997916977E+02  0.43520546021E+02  0.80892905196E+02  0.97270585111E+02  0.00000000000E+00 0.  1.
         -5    1    5    5    0  503 -0.62844373514E+01 -0.58147417159E+02  0.33650595405E+01  0.58770995404E+02  0.47000000000E+01 0.  1.
<mgrwt>
<rscale>  2 0.19818189E+03</rscale>
<asrwt>0</asrwt>
<pdfrwt beam="1">  1       21 0.50742059E-01 0.19858772E+03</pdfrwt>
<pdfrwt beam="2">  1       21 0.21372774E-01 0.19858772E+03</pdfrwt>
<totfact> 0.75120715E+04</totfact>
</mgrwt>
</event>
<event>
12    1  0.1441827E-001  0.2967708E+03  0.7546771E-02  0.1086920E+00
         21   -1    0    0  504  503  0.00000000000E+00  0.00000000000E+00  0.94902380762E+03  0.94902380762E+03  0.00000000000E+00 0. -1.
         21   -1    0    0  502  504 -0.00000000000E+00 -0.00000000000E+00 -0.12022588064E+03  0.12022588064E+03  0.00000000000E+00 0.  1.
          6    2    1    2  502    0  0.17799015204E+02  0.24058625784E+03  0.15867895015E+03  0.33652926264E+03  0.17284207529E+03 0.  0.
         24    2    3    3    0    0  0.74262175506E+02  0.15732109144E+03  0.12838442044E+03  0.23135785523E+03  0.82335297661E+02 0.  0.
         -6    2    1    2    0  503 -0.17799015204E+02 -0.24058625784E+03  0.67011897683E+03  0.73272042561E+03  0.17210818282E+03 0.  0.
        -24    2    5    5    0    0 -0.67285789000E+02 -0.18246879503E+03  0.39340773588E+03  0.44563545363E+03  0.77453678587E+02 0.  0.
          4    1    4    4  501    0  0.60872269092E+02  0.49509729523E+02  0.27624238472E+02  0.83185004737E+02  0.00000000000E+00 0. -1.
         -3    1    4    4    0  501  0.13389906414E+02  0.10781136192E+03  0.10076018197E+03  0.14817285050E+03  0.00000000000E+00 0.  1.
          5    1    3    3  502    0 -0.56463160302E+02  0.83265166398E+02  0.30294529705E+02  0.10517140741E+03  0.47000000000E+01 0. -1.
         13    1    6    6    0    0 -0.15253869791E+02 -0.13837147873E+03  0.23448150918E+03  0.27269199624E+03  0.00000000000E+00 0. -1.
        -14    1    6    6    0    0 -0.52031919209E+02 -0.44097316305E+02  0.15892622670E+03  0.17294345739E+03  0.00000000000E+00 0.  1.
         -5    1    5    5    0  503  0.49486773796E+02 -0.58117462812E+02  0.27671124096E+03  0.28708497198E+03  0.47000000000E+01 0.  1.
<mgrwt>
<rscale>  2 0.29666408E+03</rscale>
<asrwt>0</asrwt>
<pdfrwt beam="1">  1       21 0.14600366E+00 0.29677085E+03</pdfrwt>
<pdfrwt beam="2">  1       21 0.18496290E-01 0.29677085E+03</pdfrwt>
<totfact> 0.80151621E+03</totfact>
</mgrwt>
</event>
<event>
12    1  0.1441827E-001  0.2331905E+03  0.7546771E-02  0.1124527E+00
         21   -1    0    0  504  503  0.00000000000E+00  0.00000000000E+00  0.49256167749E+03  0.49256167749E+03  0.00000000000E+00 0.  1.
         21   -1    0    0  502  504 -0.00000000000E+00 -0.00000000000E+00 -0.12964950388E+03  0.12964950388E+03  0.00000000000E+00 0.  1.
          6    2    1    2  502    0  0.13567857262E+03  0.77024531025E+02  0.60830083386E+02  0.24099397205E+03  0.17330995953E+03 0.  0.
         24    2    3    3    0    0  0.79078808610E+02  0.39809001911E+02  0.10613750484E+03  0.15936443492E+03  0.79332456024E+02 0.  0.
         -6    2    1    2    0  503 -0.13567857262E+03 -0.77024531025E+02  0.30208209022E+03  0.38121720932E+03  0.17242829816E+03 0.  0.
        -24    2    5    5    0    0 -0.11759598244E+03 -0.24674012424E+02  0.29103878830E+03  0.32454621689E+03  0.78670506732E+02 0.  0.
          2    1    4    4  501    0 -0.45697733481E+01  0.27214248665E+02  0.52185281091E+02  0.59032209186E+02  0.00000000000E+00 0. -1.
         -1    1    4    4    0  501  0.83648581958E+02  0.12594753246E+02  0.53952223752E+02  0.10033222573E+03  0.00000000000E+00 0.  1.
          5    1    3    3  502    0  0.56599764007E+02  0.37215529114E+02 -0.45307421456E+02  0.81629537129E+02  0.47000000000E+01 0. -1.
         11    1    6    6    0    0  0.83110323003E+01 -0.11037015020E+02  0.54662523258E+02  0.56381560881E+02  0.00000000000E+00 0. -1.
        -12    1    6    6    0    0 -0.12590701474E+03 -0.13636997404E+02  0.23637626504E+03  0.26816465601E+03  0.00000000000E+00 0.  1.
         -5    1    5    5    0  503 -0.18082590177E+02 -0.52350518601E+02  0.11043301915E+02  0.56670992426E+02  0.47000000000E+01 0.  1.
<mgrwt>
<rscale>  2 0.23302667E+03</rscale>
<asrwt>0</asrwt>
<pdfrwt beam="1">  1       21 0.75778719E-01 0.23319047E+03</pdfrwt>
<pdfrwt beam="2">  1       21 0.19946078E-01 0.23319047E+03</pdfrwt>
<totfact> 0.35308194E+04</totfact>
</mgrwt>
</event>
<event>
12    1  0.1441827E-001  0.1938944E+03  0.7546771E-02  0.1155267E+00
         21   -1    0    0  504  503  0.00000000000E+00  0.00000000000E+00  0.56412310343E+02  0.56412310343E+02  0.00000000000E+00 0.  1.
         21   -1    0    0  502  504 -0.00000000000E+00 -0.00000000000E+00 -0.66775722466E+03  0.66775722466E+03  0.00000000000E+00 0. -1.
          6    2    1    2  502    0  0.25108311400E+02 -0.82665706109E+02 -0.27358487553E+03  0.33532628349E+03  0.17358279297E+03 0.  0.
         24    2    3    3    0    0 -0.38569261270E+02 -0.98876094361E+01 -0.17033902118E+03  0.19378730986E+03  0.83383371194E+02 0.  0.
         -6    2    1    2    0  503 -0.25108311400E+02  0.82665706109E+02 -0.33776003879E+03  0.38884325151E+03  0.17220099934E+03 0.  0.
        -24    2    5    5    0    0 -0.22729223124E+02 -0.12916774940E+02 -0.22842369889E+03  0.24352224144E+03  0.80263535954E+02 0.  0.
          4    1    4    4  501    0 -0.34633500222E+01  0.12028320673E+02 -0.14440766533E+03  0.14494912589E+03  0.00000000000E+00 0. -1.
         -3    1    4    4    0  501 -0.35105911248E+02 -0.21915930109E+02 -0.25931355852E+02  0.48838183970E+02  0.00000000000E+00 0.  1.
          5    1    3    3  502    0  0.63677572670E+02 -0.72778096673E+02 -0.10324585435E+03  0.14153897363E+03  0.47000000000E+01 0. -1.
         13    1    6    6    0    0 -0.48662815656E+02 -0.17908601602E+02 -0.18963373745E+03  0.19659537639E+03  0.00000000000E+00 0. -1.
        -14    1    6    6    0    0  0.25933592532E+02  0.49918266622E+01 -0.38789961441E+02  0.46926865052E+02  0.00000000000E+00 0.  1.
         -5    1    5    5    0  503 -0.23790882762E+01  0.95582481049E+02 -0.10933633990E+03  0.14532101007E+03  0.47000000000E+01 0.  1.
<mgrwt>
<rscale>  2 0.19358463E+03</rscale>
<asrwt>0</asrwt>
<pdfrwt beam="1">  1       21 0.86788165E-02 0.19389438E+03</pdfrwt>
<pdfrwt beam="2">  1       21 0.10273189E+00 0.19389438E+03</pdfrwt>
<totfact> 0.80103597E+04</totfact>
</mgrwt>
</event>
<event>
12    1  0.1441827E-001  0.1737782E+03  0.7546771E-02  0.1174158E+00
         21   -1    0    0  504  503  0.00000000000E+00  0.00000000000E+00  0.33694974428E+02  0.33694974428E+02  0.00000000000E+00 0.  1.
         21   -1    0    0  502  504 -0.00000000000E+00 -0.00000000000E+00 -0.11888380195E+04  0.11888380195E+04  0.00000000000E+00 0.  1.
          6    2    1    2  502    0 -0.20232410054E+00  0.33193264143E+01 -0.88189952152E+03  0.89871068902E+03  0.17298288250E+03 0.  0.
         24    2    3    3    0    0 -0.52715325454E+02 -0.35040750704E+02 -0.64884103905E+03  0.65670354640E+03  0.79108116847E+02 0.  0.
         -6    2    1    2    0  503  0.20232410054E+00 -0.33193264143E+01 -0.27324352356E+03  0.32382230491E+03  0.17374637588E+03 0.  0.
        -24    2    5    5    0    0 -0.73049762122E+01  0.27476273550E+02 -0.27879503574E+03  0.29130096080E+03  0.79506411848E+02 0.  0.
          2    1    4    4  501    0 -0.61323385520E+02 -0.52830836623E+02 -0.54782018103E+03  0.55376764591E+03  0.00000000000E+00 0. -1.
         -1    1    4    4    0  501  0.86080600665E+01  0.17790085919E+02 -0.10102085802E+03  0.10293590049E+03  0.00000000000E+00 0.  1.
          5    1    3    3  502    0  0.52513001353E+02  0.38360077118E+02 -0.23305848247E+03  0.24200714262E+03  0.47000000000E+01 0. -1.
         13    1    6    6    0    0  0.33664870196E+02  0.45568126990E+01 -0.15999456861E+03  0.16356145638E+03  0.00000000000E+00 0. -1.
        -14    1    6    6    0    0 -0.40969846409E+02  0.22919460851E+02 -0.11880046713E+03  0.12773950443E+03  0.00000000000E+00 0.  1.
         -5    1    5    5    0  503  0.75073003127E+01 -0.30795599964E+02  0.55515121853E+01  0.32521344110E+02  0.47000000000E+01 0.  1.
<mgrwt>
<rscale>  2 0.17358704E+03</rscale>
<asrwt>0</asrwt>
<pdfrwt beam="1">  1       21 0.51838417E-02 0.17377820E+03</pdfrwt>
<pdfrwt beam="2">  1       21 0.18289817E+00 0.17377820E+03</pdfrwt>
<totfact> 0.44541411E+04</totfact>
</mgrwt>
</event>
<event>
12    1  0.1441827E-001  0.2247595E+03  0.7546771E-02  0.1130452E+00
         21   -1    0    0  504  503  0.00000000000E+00  0.00000000000E+00  0.32014796836E+03  0.32014796836E+03  0.00000000000E+00 0.  1.
         21   -1    0    0  502  504 -0.00000000000E+00 -0.00000000000E+00 -0.41072164031E+03  0.41072164031E+03  0.00000000000E+00 0.  1.
          6    2    1    2  502    0 -0.11632817757E+03 -0.86827681247E+02 -0.33222267656E+03  0.40110938730E+03  0.17159703560E+03 0.  0.
         24    2    3    3    0    0 -0.59241545507E+02 -0.10151246103E+03 -0.30336524821E+03  0.33531145808E+03  0.81172406904E+02 0.  0.
         -6    2    1    2    0  503  0.11632817757E+03  0.86827681247E+02  0.24164900462E+03  0.32976022137E+03  0.17110310061E+03 0.  0.
        -24    2    5    5    0    0  0.12607099377E+03  0.34253800876E+02  0.22600022177E+03  0.27385038530E+03  0.82769045833E+02 0.  0.
          2    1    4    4  501    0  0.18852077980E+02 -0.25433942022E+02 -0.46373902896E+02  0.56150023337E+02  0.00000000000E+00 0. -1.
         -1    1    4    4    0  501 -0.78093623487E+02 -0.76078519004E+02 -0.25699134531E+03  0.27916143474E+03  0.00000000000E+00 0.  1.
          5    1    3    3  502    0 -0.57086632066E+02  0.14684779779E+02 -0.28857428358E+02  0.65797929216E+02  0.47000000000E+01 0. -1.
         13    1    6    6    0    0  0.15661594401E+02 -0.88498461211E+01  0.97052792102E+02  0.98705875055E+02  0.00000000000E+00 0. -1.
        -14    1    6    6    0    0  0.11040939937E+03  0.43103646997E+02  0.12894742966E+03  0.17514451025E+03  0.00000000000E+00 0.  1.
         -5    1    5    5    0  503 -0.97428161947E+01  0.52573880371E+02  0.15648782849E+02  0.55909836070E+02  0.47000000000E+01 0.  1.
<mgrwt>
<rscale>  2 0.22466522E+03</rscale>
<asrwt>0</asrwt>
<pdfrwt beam="1">  1       21 0.49253534E-01 0.22475950E+03</pdfrwt>
<pdfrwt beam="2">  1       21 0.63187945E-01 0.22475950E+03</pdfrwt>
<totfact> 0.89165763E+03</totfact>
</mgrwt>
</event>
<event>
12    1  0.1441827E-001  0.2414422E+03  0.7546771E-02  0.1120020E+00
         21   -1    0    0  504  503  0.00000000000E+00  0.00000000000E+00  0.37748568359E+03  0.37748568359E+03  0.00000000000E+00 0. -1.
         21   -1    0    0  502  504 -0.00000000000E+00 -0.00000000000E+00 -0.15166031106E+03  0.15166031106E+03  0.00000000000E+00 0.  1.
          6    2    1    2  502    0 -0.48607003579E+02 -0.14899107775E+03  0.83170143279E+02  0.24870909946E+03  0.17429274620E+03 0.  0.
         24    2    3    3    0    0  0.30016908895E+02 -0.30744371434E+02  0.25143508163E+02  0.95238634714E+02  0.81190949896E+02 0.  0.
         -6    2    1    2    0  503  0.48607003579E+02  0.14899107775E+03  0.14265522925E+03  0.28043689520E+03  0.18366642510E+03 0.  0.
        -24    2    5    5    0    0  0.66586943950E+02  0.51287405912E+02  0.14155236226E+03  0.18097538474E+03  0.75171799970E+02 0.  0.
          2    1    4    4  501    0  0.67634429624E+01 -0.39263350250E+02  0.47415366499E+02  0.61931993459E+02  0.00000000000E+00 0. -1.
         -1    1    4    4    0  501  0.23253465933E+02  0.85189788154E+01 -0.22271858337E+02  0.33306641255E+02  0.00000000000E+00 0.  1.
          5    1    3    3  502    0 -0.78623912474E+02 -0.11824670631E+03  0.58026635117E+02  0.15347046475E+03  0.47000000000E+01 0. -1.
         13    1    6    6    0    0  0.65846687431E+00  0.24074617095E+02  0.89482996880E+02  0.92667294648E+02  0.00000000000E+00 0. -1.
        -14    1    6    6    0    0  0.65928477075E+02  0.27212788817E+02  0.52069365384E+02  0.88308090094E+02  0.00000000000E+00 0.  1.
         -5    1    5    5    0  503 -0.17979940371E+02  0.97703671836E+02  0.11028669879E+01  0.99461510453E+02  0.47000000000E+01 0.  1.
<mgrwt>
<rscale>  2 0.23965965E+03</rscale>
<asrwt>0</asrwt>
<pdfrwt beam="1">  1       21 0.58074720E-01 0.24144220E+03</pdfrwt>
<pdfrwt beam="2">  1       21 0.23332356E-01 0.24144220E+03</pdfrwt>
<totfact> 0.46924606E+04</totfact>
</mgrwt>
</event>
<event>
12    1  0.1441827E-001  0.1908600E+03  0.7546771E-02  0.1159244E+00
         21   -1    0    0  504  503  0.00000000000E+00  0.00000000000E+00  0.22251106103E+03  0.22251106103E+03  0.00000000000E+00 0. -1.
         21   -1    0    0  502  504 -0.00000000000E+00 -0.00000000000E+00 -0.16049180125E+03  0.16049180125E+03  0.00000000000E+00 0. -1.
          6    2    1    2  502    0  0.62073068035E+02 -0.15211854102E+02  0.55776214359E+02  0.19884293406E+03  0.17984176394E+03 0.  0.
         24    2    3    3    0    0  0.47546595695E+02 -0.67171296341E+02 -0.61011833677E+01  0.11661335066E+03  0.82394097477E+02 0.  0.
         -6    2    1    2    0  503 -0.62073068035E+02  0.15211854102E+02  0.62430454231E+01  0.18415992823E+03  0.17260196195E+03 0.  0.
        -24    2    5    5    0    0 -0.63513898425E+02 -0.35587509204E+02 -0.39761228362E+02  0.11544941585E+03  0.80293998746E+02 0.  0.
          2    1    4    4  501    0  0.51792776372E+02 -0.65883273816E+02  0.23217635310E+02  0.86960658015E+02  0.00000000000E+00 0. -1.
         -1    1    4    4    0  501 -0.42461806770E+01 -0.12880225251E+01 -0.29318818677E+02  0.29652692643E+02  0.00000000000E+00 0.  1.
          5    1    3    3  502    0  0.14526472340E+02  0.51959442239E+02  0.61877397726E+02  0.82229583398E+02  0.47000000000E+01 0. -1.
         13    1    6    6    0    0 -0.45800174302E+02 -0.61644872758E+02 -0.26148137208E+02  0.81126268143E+02  0.00000000000E+00 0. -1.
        -14    1    6    6    0    0 -0.17713724124E+02  0.26057363554E+02 -0.13613091153E+02  0.34323147706E+02  0.00000000000E+00 0.  1.
         -5    1    5    5    0  503  0.14408303906E+01  0.50799363306E+02  0.46004273785E+02  0.68710512376E+02  0.47000000000E+01 0.  1.
<mgrwt>
<rscale>  2 0.18913526E+03</rscale>
<asrwt>0</asrwt>
<pdfrwt beam="1">  1       21 0.34232471E-01 0.19085997E+03</pdfrwt>
<pdfrwt beam="2">  1       21 0.24691046E-01 0.19085997E+03</pdfrwt>
<totfact> 0.12762492E+05</totfact>
</mgrwt>
</event>
<event>
12    1  0.1441827E-001  0.2328471E+03  0.7546771E-02  0.1124685E+00
         21   -1    0    0  504  503  0.00000000000E+00  0.00000000000E+00  0.16299351020E+03  0.16299351020E+03  0.00000000000E+00 0.  1.
         21   -1    0    0  502  504 -0.00000000000E+00 -0.00000000000E+00 -0.34567614396E+03  0.34567614396E+03  0.00000000000E+00 0.  1.
          6    2    1    2  502    0 -0.16097888817E+01 -0.15558875789E+03 -0.41385770621E+02  0.23630482952E+03  0.17296455545E+03 0.  0.
         24    2    3    3    0    0  0.63208908179E+02 -0.12178583655E+03 -0.37167964993E+02  0.16292921461E+03  0.79607256537E+02 0.  0.
         -6    2    1    2    0  503  0.16097888817E+01  0.15558875789E+03 -0.14129686314E+03  0.27236482464E+03  0.17322627157E+03 0.  0.
        -24    2    5    5    0    0 -0.45638470465E+02  0.81669659528E+02 -0.13658845001E+03  0.18438363194E+03  0.81167208741E+02 0.  0.
          2    1    4    4  501    0  0.77425507739E+02 -0.12169403605E+03 -0.36020112887E+02  0.14866605595E+03  0.00000000000E+00 0. -1.
         -1    1    4    4    0  501 -0.14216599560E+02 -0.91800495785E-01 -0.11478521065E+01  0.14263158656E+02  0.00000000000E+00 0.  1.
          5    1    3    3  502    0 -0.64818697061E+02 -0.33802921346E+02 -0.42178056274E+01  0.73375614917E+02  0.47000000000E+01 0. -1.
         13    1    6    6    0    0  0.13042601840E+02  0.26972529277E+01 -0.54935767292E+02  0.56527189600E+02  0.00000000000E+00 0. -1.
        -14    1    6    6    0    0 -0.58681072305E+02  0.78972406601E+02 -0.81652682723E+02  0.12785644234E+03  0.00000000000E+00 0.  1.
         -5    1    5    5    0  503  0.47248259347E+02  0.73919098366E+02 -0.47084131222E+01  0.87981192699E+02  0.47000000000E+01 0.  1.
<mgrwt>
<rscale>  2 0.23279847E+03</rscale>
<asrwt>0</asrwt>
<pdfrwt beam="1">  1       21 0.25075925E-01 0.23284715E+03</pdfrwt>
<pdfrwt beam="2">  1       21 0.53180945E-01 0.23284715E+03</pdfrwt>
<totfact> 0.49496241E+04</totfact>
</mgrwt>
</event>
<event>
12    1  0.1441827E-001  0.1934038E+03  0.7546771E-02  0.1155566E+00
         21   -1    0    0  504  503  0.00000000000E+00  0.00000000000E+00  0.54300427498E+03  0.54300427498E+03  0.00000000000E+00 0.  1.
         21   -1    0    0  502  504 -0.00000000000E+00 -0.00000000000E+00 -0.11135343377E+03  0.11135343377E+03  0.00000000000E+00 0.  1.
          6    2    1    2  502    0 -0.74690085746E+02  0.37151074641E+02  0.13455952436E+02  0.19387137047E+03  0.17448849353E+03 0.  0.
         24    2    3    3    0    0 -0.15701855835E+02 -0.25621934585E+02  0.50267264209E+02  0.10007784921E+03  0.81152610818E+02 0.  0.
         -6    2    1    2    0  503  0.74690085746E+02 -0.37151074641E+02  0.41819488877E+03  0.46048633829E+03  0.17378691407E+03 0.  0.
        -24    2    5    5    0    0 -0.65738921261E+01 -0.62582908527E+02  0.17217154863E+03  0.20010164947E+03  0.80235849023E+02 0.  0.
          2    1    4    4  501    0  0.25437129964E+02 -0.13765346929E+01  0.45425640721E+02  0.52081006744E+02  0.00000000000E+00 0. -1.
         -1    1    4    4    0  501 -0.41138985799E+02 -0.24245399892E+02  0.48416234876E+01  0.47996842464E+02  0.00000000000E+00 0.  1.
          5    1    3    3  502    0 -0.58988229911E+02  0.62773009227E+02 -0.36811311773E+02  0.93793521257E+02  0.47000000000E+01 0. -1.
         11    1    6    6    0    0 -0.11773283238E+02 -0.74323304848E+02  0.91751415933E+02  0.11866290982E+03  0.00000000000E+00 0. -1.
        -12    1    6    6    0    0  0.51993911116E+01  0.11740396321E+02  0.80420132694E+02  0.81438739652E+02  0.00000000000E+00 0.  1.
         -5    1    5    5    0  503  0.81263977872E+02  0.25431833886E+02  0.24602334015E+03  0.26038468882E+03  0.47000000000E+01 0.  1.
<mgrwt>
<rscale>  2 0.19324546E+03</rscale>
<asrwt>0</asrwt>
<pdfrwt beam="1">  1       21 0.83539118E-01 0.19340384E+03</pdfrwt>
<pdfrwt beam="2">  1       21 0.17131298E-01 0.19340384E+03</pdfrwt>
<totfact> 0.38332078E+04</totfact>
</mgrwt>
</event>
<event>
12    1  0.1441827E-001  0.2702355E+03  0.7546771E-02  0.1101431E+00
         21   -1    0    0  504  503  0.00000000000E+00  0.00000000000E+00  0.20240623389E+03  0.20240623389E+03  0.00000000000E+00 0.  1.
         21   -1    0    0  502  504 -0.00000000000E+00 -0.00000000000E+00 -0.47202049092E+03  0.47202049092E+03  0.00000000000E+00 0. -1.
          6    2    1    2  502    0 -0.13788779597E+03  0.15298279806E+03 -0.30006500224E+03  0.40248104771E+03  0.17185810254E+03 0.  0.
         24    2    3    3    0    0 -0.89071668959E+02  0.17705314343E+03 -0.20301955599E+03  0.29111541377E+03  0.65189463953E+02 0.  0.
         -6    2    1    2    0  503  0.13788779597E+03 -0.15298279806E+03  0.30450745219E+02  0.27194567710E+03  0.17495834541E+03 0.  0.
        -24    2    5    5    0    0  0.28494393507E+02 -0.11920665245E+03 -0.20653062710E+02  0.14648080672E+03  0.77510781752E+02 0.  0.
          2    1    4    4  501    0 -0.39939060468E+02  0.56066691774E+02 -0.11367584788E+03  0.13289394595E+03  0.00000000000E+00 0. -1.
         -1    1    4    4    0  501 -0.49132608491E+02  0.12098645166E+03 -0.89343708108E+02  0.15822146783E+03  0.00000000000E+00 0.  1.
          5    1    3    3  502    0 -0.48816127013E+02 -0.24070345372E+02 -0.97045446252E+02  0.11136563393E+03  0.47000000000E+01 0. -1.
         13    1    6    6    0    0 -0.25752861617E+02 -0.41227899994E+02 -0.16727900500E+02  0.51407900896E+02  0.00000000000E+00 0. -1.
        -14    1    6    6    0    0  0.54247255124E+02 -0.77978752457E+02 -0.39251622107E+01  0.95072905823E+02  0.00000000000E+00 0.  1.
         -5    1    5    5    0  503  0.10939340246E+03 -0.33776145610E+02  0.51103807929E+02  0.12546487038E+03  0.47000000000E+01 0.  1.
<mgrwt>
<rscale>  2 0.26973487E+03</rscale>
<asrwt>0</asrwt>
<pdfrwt beam="1">  1       21 0.31139421E-01 0.27023546E+03</pdfrwt>
<pdfrwt beam="2">  1       21 0.72618537E-01 0.27023546E+03</pdfrwt>
<totfact> 0.16220545E+04</totfact>
</mgrwt>
</event>
<event>
12    1  0.1441827E-001  0.2421074E+03  0.7546771E-02  0.1118517E+00
         21   -1    0    0  504  503  0.00000000000E+00  0.00000000000E+00  0.10509233036E+04  0.10509233036E+04  0.00000000000E+00 0.  1.
         21   -1    0    0  502  504 -0.00000000000E+00 -0.00000000000E+00 -0.62523288367E+02  0.62523288367E+02  0.00000000000E+00 0.  1.
          6    2    1    2  502    0 -0.12105311136E+03 -0.11851352585E+03  0.67868983778E+03  0.72033543880E+03  0.17194166715E+03 0.  0.
         24    2    3    3    0    0 -0.87017287084E+02 -0.24259936447E+02  0.51061692390E+03  0.52459895566E+03  0.79459854899E+02 0.  0.
         -6    2    1    2    0  503  0.12105311136E+03  0.11851352585E+03  0.30971017750E+03  0.39311115322E+03  0.17296436961E+03 0.  0.
        -24    2    5    5    0    0  0.59266209020E+02  0.91852587182E+02  0.87379710749E+02  0.16077227701E+03  0.79139938716E+02 0.  0.
          2    1    4    4  501    0 -0.29797282246E+02  0.29342532336E+02  0.16832140850E+03  0.17343863120E+03  0.00000000000E+00 0. -1.
         -1    1    4    4    0  501 -0.57220004838E+02 -0.53602468783E+02  0.34229551540E+03  0.35116032446E+03  0.00000000000E+00 0.  1.
          5    1    3    3  502    0 -0.34035824278E+02 -0.94253589408E+02  0.16807291388E+03  0.19573648314E+03  0.47000000000E+01 0. -1.
         13    1    6    6    0    0  0.38328467969E+02  0.91355846830E+01  0.58812045896E+02  0.70791151331E+02  0.00000000000E+00 0. -1.
        -14    1    6    6    0    0  0.20937741051E+02  0.82717002499E+02  0.28567664853E+02  0.89981125676E+02  0.00000000000E+00 0.  1.
         -5    1    5    5    0  503  0.61786902342E+02  0.26660938673E+02  0.22233046675E+03  0.23233887621E+03  0.47000000000E+01 0.  1.
<mgrwt>
<rscale>  2 0.24192478E+03</rscale>
<asrwt>0</asrwt>
<pdfrwt beam="1">  1       21 0.16168050E+00 0.24210738E+03</pdfrwt>
<pdfrwt beam="2">  1       21 0.96189682E-02 0.24210738E+03</pdfrwt>
<totfact> 0.20606711E+04</totfact>
</mgrwt>
</event>
<event>
12    1  0.1441827E-001  0.2482080E+03  0.7546771E-02  0.1114611E+00
         21   -1    0    0  504  503  0.00000000000E+00  0.00000000000E+00  0.87127192483E+03  0.87127192483E+03  0.00000000000E+00 0.  1.
         21   -1    0    0  502  504 -0.00000000000E+00 -0.00000000000E+00 -0.14806884848E+03  0.14806884848E+03  0.00000000000E+00 0. -1.
          6    2    1    2  502    0 -0.16862226941E+03  0.55698610018E+02 -0.78702651818E+01  0.24728156330E+03  0.17190237222E+03 0.  0.
         24    2    3    3    0    0 -0.45888641793E+02  0.76244433089E+02  0.14296492804E+02  0.12079389847E+03  0.80422603659E+02 0.  0.
         -6    2    1    2    0  503  0.16862226941E+03 -0.55698610018E+02  0.73107334153E+03  0.77205921001E+03  0.17341103816E+03 0.  0.
        -24    2    5    5    0    0  0.13140132872E+03 -0.45218969832E+02  0.30818622039E+03  0.34738188720E+03  0.79902219544E+02 0.  0.
          2    1    4    4  501    0 -0.34241964308E+01 -0.12459073185E+02 -0.13409458717E+02  0.18621686522E+02  0.00000000000E+00 0. -1.
         -1    1    4    4    0  501 -0.42464445362E+02  0.88703506275E+02  0.27705951521E+02  0.10217221195E+03  0.00000000000E+00 0.  1.
          5    1    3    3  502    0 -0.12273362762E+03 -0.20545823072E+02 -0.22166757985E+02  0.12648766483E+03  0.47000000000E+01 0. -1.
         11    1    6    6    0    0  0.17233574408E+02  0.21692822273E+02  0.46162196379E+02  0.53837932721E+02  0.00000000000E+00 0. -1.
        -12    1    6    6    0    0  0.11416775431E+03 -0.66911792105E+02  0.26202402401E+03  0.29354395447E+03  0.00000000000E+00 0.  1.
         -5    1    5    5    0  503  0.37220940691E+02 -0.10479640186E+02  0.42288712114E+03  0.42467732281E+03  0.47000000000E+01 0.  1.
<mgrwt>
<rscale>  2 0.24794463E+03</rscale>
<asrwt>0</asrwt>
<pdfrwt beam="1">  1       21 0.13404183E+00 0.24820796E+03</pdfrwt>
<pdfrwt beam="2">  1       21 0.22779823E-01 0.24820796E+03</pdfrwt>
<totfact> 0.69515295E+03</totfact>
</mgrwt>
</event>
<event>
12    1  0.1441827E-001  0.2310256E+03  0.7546771E-02  0.1126054E+00
         21   -1    0    0  504  503  0.00000000000E+00  0.00000000000E+00  0.16863685523E+03  0.16863685523E+03  0.00000000000E+00 0.  1.
         21   -1    0    0  502  504 -0.00000000000E+00 -0.00000000000E+00 -0.33270403671E+03  0.33270403671E+03  0.00000000000E+00 0.  1.
          6    2    1    2  502    0  0.10770278646E+03  0.10736380943E+03 -0.13899613236E+03  0.26895886440E+03  0.17289322757E+03 0.  0.
         24    2    3    3    0    0  0.26927614721E+02  0.45706549105E+02  0.11380146603E+01  0.95794447493E+02  0.79756479533E+02 0.  0.
         -6    2    1    2    0  503 -0.10770278646E+03 -0.10736380943E+03 -0.25071049117E+02  0.23238202755E+03  0.17391368963E+03 0.  0.
        -24    2    5    5    0    0 -0.69025931725E+02 -0.13970976365E+03 -0.39174403637E+02  0.17981631196E+03  0.80720968998E+02 0.  0.
          4    1    4    4  501    0 -0.19857347578E+02  0.44129240764E+02 -0.47063655475E+01  0.48619481897E+02  0.00000000000E+00 0. -1.
         -3    1    4    4    0  501  0.46784962299E+02  0.15773083407E+01  0.58443802077E+01  0.47174965596E+02  0.00000000000E+00 0.  1.
          5    1    3    3  502    0  0.80775171734E+02  0.61657260323E+02 -0.14013414702E+03  0.17316441690E+03  0.47000000000E+01 0. -1.
         13    1    6    6    0    0 -0.15036875944E+02 -0.70240888875E+02  0.19047647131E+02  0.74314890629E+02  0.00000000000E+00 0. -1.
        -14    1    6    6    0    0 -0.53989055781E+02 -0.69468874780E+02 -0.58222050768E+02  0.10550142133E+03  0.00000000000E+00 0.  1.
         -5    1    5    5    0  503 -0.38676854730E+02  0.32345954227E+02  0.14103354520E+02  0.52565715589E+02  0.47000000000E+01 0.  1.
<mgrwt>
<rscale>  2 0.23083360E+03</rscale>
<asrwt>0</asrwt>
<pdfrwt beam="1">  1       21 0.25944132E-01 0.23102565E+03</pdfrwt>
<pdfrwt beam="2">  1       21 0.51185236E-01 0.23102565E+03</pdfrwt>
<totfact> 0.50295159E+04</totfact>
</mgrwt>
</event>
<event>
12    1  0.1441827E-001  0.2088979E+03  0.7546771E-02  0.1142512E+00
         21   -1    0    0  504  503  0.00000000000E+00  0.00000000000E+00  0.14951874988E+04  0.14951874988E+04  0.00000000000E+00 0.  1.
         21   -1    0    0  502  504 -0.00000000000E+00 -0.00000000000E+00 -0.35499160247E+02  0.35499160247E+02  0.00000000000E+00 0.  1.
          6    2    1    2  502    0  0.11300844406E+03 -0.29843774087E+02  0.40533201268E+03  0.45583523023E+03  0.17271409128E+03 0.  0.
         24    2    3    3    0    0 -0.71863350869E+01 -0.15215133902E+02  0.11948032781E+03  0.14536130573E+03  0.81063041872E+02 0.  0.
         -6    2    1    2    0  503 -0.11300844406E+03  0.29843774087E+02  0.10543563259E+04  0.10748514288E+04  0.17313801679E+03 0.  0.
        -24    2    5    5    0    0 -0.57812924755E+02  0.34145157379E+02  0.95758576739E+03  0.96326434069E+03  0.79996638020E+02 0.  0.
          4    1    4    4  501    0 -0.24036630828E+02  0.26070141613E+02  0.34940237994E+02  0.49781845449E+02  0.00000000000E+00 0. -1.
         -3    1    4    4    0  501  0.16850295741E+02 -0.41285275515E+02  0.84540089821E+02  0.95579460282E+02  0.00000000000E+00 0.  1.
          5    1    3    3  502    0  0.12019477915E+03 -0.14628640185E+02  0.28585168487E+03  0.31047392450E+03  0.47000000000E+01 0. -1.
         11    1    6    6    0    0 -0.41538933266E+01 -0.93863836037E+01  0.15154434170E+02  0.18303439620E+02  0.00000000000E+00 0. -1.
        -12    1    6    6    0    0 -0.53659031428E+02  0.43531540983E+02  0.94243133322E+03  0.94496090107E+03  0.00000000000E+00 0.  1.
         -5    1    5    5    0  503 -0.55195519310E+02 -0.43013832922E+01  0.96770558504E+02  0.11158708816E+03  0.47000000000E+01 0.  1.
<mgrwt>
<rscale>  2 0.20881004E+03</rscale>
<asrwt>0</asrwt>
<pdfrwt beam="1">  1       21 0.23002880E+00 0.20889790E+03</pdfrwt>
<pdfrwt beam="2">  1       21 0.54614104E-02 0.20889790E+03</pdfrwt>
<totfact> 0.19975193E+04</totfact>
</mgrwt>
</event>
<event>
12    1  0.1441827E-001  0.1934058E+03  0.7546771E-02  0.1155770E+00
         21   -1    0    0  504  503  0.00000000000E+00  0.00000000000E+00  0.42395176829E+02  0.42395176829E+02  0.00000000000E+00 0.  1.
         21   -1    0    0  502  504 -0.00000000000E+00 -0.00000000000E+00 -0.95751079416E+03  0.95751079416E+03  0.00000000000E+00 0.  1.
          6    2    1    2  502    0 -0.21057284614E+02 -0.80759767849E+02 -0.60582565987E+03  0.63594854050E+03  0.17447139210E+03 0.  0.
         24    2    3    3    0    0 -0.68100593660E+02 -0.37302578649E+01 -0.31850220286E+03  0.33474515857E+03  0.77194962781E+02 0.  0.
         -6    2    1    2    0  503  0.21057284614E+02  0.80759767849E+02 -0.30928995746E+03  0.36395743049E+03  0.17274022139E+03 0.  0.
        -24    2    5    5    0    0  0.48880112006E+02  0.13202977385E+02 -0.85874297289E+02  0.12885175878E+03  0.81638207013E+02 0.  0.
          2    1    4    4  501    0 -0.70020897533E+02  0.29299231669E+01 -0.14443148355E+03  0.16053648801E+03  0.00000000000E+00 0. -1.
         -1    1    4    4    0  501  0.19203038735E+01 -0.66601810318E+01 -0.17407071931E+03  0.17420867056E+03  0.00000000000E+00 0.  1.
          5    1    3    3  502    0  0.47043309045E+02 -0.77029509984E+02 -0.28732345701E+03  0.30120338192E+03  0.47000000000E+01 0. -1.
         11    1    6    6    0    0  0.78920945785E+00 -0.25967525865E+02 -0.52122921439E+02  0.58238597085E+02  0.00000000000E+00 0. -1.
        -12    1    6    6    0    0  0.48090902549E+02  0.39170503250E+02 -0.33751375849E+02  0.70613161695E+02  0.00000000000E+00 0.  1.
         -5    1    5    5    0  503 -0.27822827392E+02  0.67556790464E+02 -0.22341566017E+03  0.23510567171E+03  0.47000000000E+01 0.  1.
<mgrwt>
<rscale>  2 0.19301459E+03</rscale>
<asrwt>0</asrwt>
<pdfrwt beam="1">  1       21 0.65223352E-02 0.19340583E+03</pdfrwt>
<pdfrwt beam="2">  1       21 0.14730935E+00 0.19340583E+03</pdfrwt>
<totfact> 0.53537437E+04</totfact>
</mgrwt>
</event>
<event>
12    1  0.1441827E-001  0.2244994E+03  0.7546771E-02  0.1131541E+00
         21   -1    0    0  504  503  0.00000000000E+00  0.00000000000E+00  0.15893951884E+03  0.15893951884E+03  0.00000000000E+00 0. -1.
         21   -1    0    0  502  504 -0.00000000000E+00 -0.00000000000E+00 -0.31237886860E+03  0.31237886860E+03  0.00000000000E+00 0. -1.
          6    2    1    2  502    0  0.40748547280E+02 -0.13664844980E+03 -0.99419873807E+02  0.24552860164E+03  0.17339763545E+03 0.  0.
         24    2    3    3    0    0  0.82548930450E+01 -0.91179437484E+00 -0.16049250555E+02  0.82884732981E+02  0.80890826982E+02 0.  0.
         -6    2    1    2    0  503 -0.40748547280E+02  0.13664844980E+03 -0.54019475951E+02  0.22578978579E+03  0.16652231276E+03 0.  0.
        -24    2    5    5    0    0 -0.52504023235E+01  0.89638150917E+02  0.29197425339E+02  0.12372495759E+03  0.79955053992E+02 0.  0.
          2    1    4    4  501    0 -0.33809505011E+02 -0.33991286016E+01  0.72350020521E+01  0.34741645888E+02  0.00000000000E+00 0. -1.
         -1    1    4    4    0  501  0.42064398056E+02  0.24873342268E+01 -0.23284252607E+02  0.48143087093E+02  0.00000000000E+00 0.  1.
          5    1    3    3  502    0  0.32493654235E+02 -0.13573665543E+03 -0.83370623252E+02  0.16264386866E+03  0.47000000000E+01 0. -1.
         11    1    6    6    0    0 -0.15488703079E+02  0.22759697528E+02 -0.24883471358E+02  0.37109175435E+02  0.00000000000E+00 0. -1.
        -12    1    6    6    0    0  0.10238300755E+02  0.66878453389E+02  0.54080896697E+02  0.86615782151E+02  0.00000000000E+00 0.  1.
         -5    1    5    5    0  503 -0.35498144956E+02  0.47010298884E+02 -0.83216901290E+02  0.10206482821E+03  0.47000000000E+01 0.  1.
<mgrwt>
<rscale>  2 0.22317095E+03</rscale>
<asrwt>0</asrwt>
<pdfrwt beam="1">  1       21 0.24452234E-01 0.22449941E+03</pdfrwt>
<pdfrwt beam="2">  1       21 0.48058287E-01 0.22449941E+03</pdfrwt>
<totfact> 0.64463180E+04</totfact>
</mgrwt>
</event>
<event>
12    1  0.1441827E-001  0.2085198E+03  0.7546771E-02  0.1143611E+00
         21   -1    0    0  504  503  0.00000000000E+00  0.00000000000E+00  0.81032615730E+03  0.81032615730E+03  0.00000000000E+00 0.  1.
         21   -1    0    0  502  504 -0.00000000000E+00 -0.00000000000E+00 -0.54874748527E+02  0.54874748527E+02  0.00000000000E+00 0.  1.
          6    2    1    2  502    0  0.10631815040E+03  0.24661732992E+02  0.28510050529E+03  0.35070069647E+03  0.17261787338E+03 0.  0.
         24    2    3    3    0    0  0.12534780276E+03 -0.20803231466E+02  0.24076696924E+03  0.28424211478E+03  0.81731268439E+02 0.  0.
         -6    2    1    2    0  503 -0.10631815040E+03 -0.24661732992E+02  0.47035090349E+03  0.51450020936E+03  0.17767594896E+03 0.  0.
        -24    2    5    5    0    0 -0.63071242238E+02  0.45236836883E+02  0.36158972040E+03  0.37809203482E+03  0.78626381588E+02 0.  0.
          4    1    4    4  501    0  0.73768426306E+02 -0.14076527815E+02  0.21176483876E+03  0.22468706303E+03  0.00000000000E+00 0. -1.
         -3    1    4    4    0  501  0.51579376452E+02 -0.67267036502E+01  0.29002130483E+02  0.59555051757E+02  0.00000000000E+00 0.  1.
          5    1    3    3  502    0 -0.19029652356E+02  0.45464964457E+02  0.44333536042E+02  0.66458581687E+02  0.47000000000E+01 0. -1.
         13    1    6    6    0    0  0.13128071119E+01  0.61001137301E+01  0.19674829253E+03  0.19684721350E+03  0.00000000000E+00 0. -1.
        -14    1    6    6    0    0 -0.64384049350E+02  0.39136723153E+02  0.16484142787E+03  0.18124482131E+03  0.00000000000E+00 0.  1.
         -5    1    5    5    0  503 -0.43246908165E+02 -0.69898569874E+02  0.10876118308E+03  0.13640817454E+03  0.47000000000E+01 0.  1.
<mgrwt>
<rscale>  2 0.20743820E+03</rscale>
<asrwt>0</asrwt>
<pdfrwt beam="1">  1       21 0.12466555E+00 0.20851977E+03</pdfrwt>
<pdfrwt beam="2">  1       21 0.84422696E-02 0.20851977E+03</pdfrwt>
<totfact> 0.52030449E+04</totfact>
</mgrwt>
</event>
<event>
12    1  0.1441827E-001  0.1982328E+03  0.7546771E-02  0.1151392E+00
         21   -1    0    0  504  503  0.00000000000E+00  0.00000000000E+00  0.81530959091E+03  0.81530959091E+03  0.00000000000E+00 0.  1.
         21   -1    0    0  502  504 -0.00000000000E+00 -0.00000000000E+00 -0.48946699003E+02  0.48946699003E+02  0.00000000000E+00 0.  1.
          6    2    1    2  502    0  0.50160282249E+02  0.82730142068E+02  0.32453220742E+03  0.38028593514E+03  0.17301996559E+03 0.  0.
         24    2    3    3    0    0  0.85906399961E+01 -0.19016858377E+02  0.11715756628E+03  0.14553751866E+03  0.83784449637E+02 0.  0.
         -6    2    1    2    0  503 -0.50160282249E+02 -0.82730142068E+02  0.44183068448E+03  0.48397035477E+03  0.17219936185E+03 0.  0.
        -24    2    5    5    0    0 -0.56039416641E+02 -0.11795943539E+03  0.40217586965E+03  0.43039553168E+03  0.80249853260E+02 0.  0.
          4    1    4    4  501    0  0.17102595296E+02 -0.74831233041E+01  0.12686120191E+03  0.12822737793E+03  0.00000000000E+00 0. -1.
         -3    1    4    4    0  501 -0.85119553000E+01 -0.11533735073E+02 -0.97036356245E+01  0.17310140730E+02  0.00000000000E+00 0.  1.
          5    1    3    3  502    0  0.41569642253E+02  0.10174700044E+03  0.20737464114E+03  0.23474841649E+03  0.47000000000E+01 0. -1.
         13    1    6    6    0    0 -0.67444157442E+02 -0.66178157049E+02  0.30974202851E+03  0.32383388808E+03  0.00000000000E+00 0. -1.
        -14    1    6    6    0    0  0.11404740801E+02 -0.51781278341E+02  0.92433841141E+02  0.10656164360E+03  0.00000000000E+00 0.  1.
         -5    1    5    5    0  503  0.58791343927E+01  0.35229293321E+02  0.39654814835E+02  0.53574823087E+02  0.47000000000E+01 0.  1.
<mgrwt>
<rscale>  2 0.19805359E+03</rscale>
<asrwt>0</asrwt>
<pdfrwt beam="1">  1       21 0.12543223E+00 0.19823279E+03</pdfrwt>
<pdfrwt beam="2">  1       21 0.75302620E-02 0.19823279E+03</pdfrwt>
<totfact> 0.62864192E+04</totfact>
</mgrwt>
</event>
<event>
12    1  0.1441827E-001  0.1982819E+03  0.7546771E-02  0.1151660E+00
         21   -1    0    0  504  503  0.00000000000E+00  0.00000000000E+00  0.26364499299E+03  0.26364499299E+03  0.00000000000E+00 0. -1.
         21   -1    0    0  502  504 -0.00000000000E+00 -0.00000000000E+00 -0.15397988070E+03  0.15397988070E+03  0.00000000000E+00 0.  1.
          6    2    1    2  502    0  0.76625769523E+02 -0.56981195770E+02  0.11724690304E+02  0.19647322997E+03  0.17130644035E+03 0.  0.
         24    2    3    3    0    0  0.57772747785E+02  0.46246809612E+01  0.59715099967E+02  0.11600031592E+03  0.80815234134E+02 0.  0.
         -6    2    1    2    0  503 -0.76625769523E+02  0.56981195770E+02  0.97940421987E+02  0.22115164372E+03  0.17377387040E+03 0.  0.
        -24    2    5    5    0    0  0.59046952867E+01  0.58649963578E+02  0.10639808540E+03  0.13803916284E+03  0.65265413851E+02 0.  0.
          4    1    4    4  501    0  0.71419414489E+02 -0.79238780495E+01  0.64817333907E+02  0.96771934899E+02  0.00000000000E+00 0. -1.
         -3    1    4    4    0  501 -0.13646666704E+02  0.12548559011E+02 -0.51022339398E+01  0.19228381018E+02  0.00000000000E+00 0.  1.
          5    1    3    3  502    0  0.18853021738E+02 -0.61605876731E+02 -0.47990409663E+02  0.80472914052E+02  0.47000000000E+01 0. -1.
         11    1    6    6    0    0  0.24198107049E+00  0.51680786819E+02  0.11470262639E+03  0.12580800762E+03  0.00000000000E+00 0. -1.
        -12    1    6    6    0    0  0.56627142162E+01  0.69691767595E+01 -0.83045409842E+01  0.12231155218E+02  0.00000000000E+00 0.  1.
         -5    1    5    5    0  503 -0.82530464810E+02 -0.16687678086E+01 -0.84576634142E+01  0.83112480881E+02  0.47000000000E+01 0.  1.
<mgrwt>
<rscale>  2 0.19774000E+03</rscale>
<asrwt>0</asrwt>
<pdfrwt beam="1">  1       21 0.40560768E-01 0.19828193E+03</pdfrwt>
<pdfrwt beam="2">  1       21 0.23689212E-01 0.19828193E+03</pdfrwt>
<totfact> 0.98058707E+04</totfact>
</mgrwt>
</event>
<event>
12    1  0.1441827E-001  0.3205988E+03  0.7546771E-02  0.1076758E+00
         21   -1    0    0  504  503  0.00000000000E+00  0.00000000000E+00  0.10713138118E+04  0.10713138118E+04  0.00000000000E+00 0.  1.
         21   -1    0    0  502  504 -0.00000000000E+00 -0.00000000000E+00 -0.23782627035E+03  0.23782627035E+03  0.00000000000E+00 0.  1.
          6    2    1    2  502    0  0.24643434677E+03 -0.69393945763E+02 -0.98053123183E+02  0.32397430140E+03  0.17262539218E+03 0.  0.
         24    2    3    3    0    0  0.19838122175E+03 -0.34578311253E+01 -0.28376958864E+02  0.21658001891E+03  0.82064529822E+02 0.  0.
         -6    2    1    2    0  503 -0.24643434677E+03  0.69393945763E+02  0.93154066459E+03  0.98516578070E+03  0.19297201536E+03 0.  0.
        -24    2    5    5    0    0 -0.30395620368E+02  0.77984038994E+01  0.44603226811E+03  0.45018238364E+03  0.52294220568E+02 0.  0.
          2    1    4    4  501    0  0.67286599048E+02 -0.40319139470E+02 -0.73096939044E+01  0.78781666928E+02  0.00000000000E+00 0. -1.
         -1    1    4    4    0  501  0.13109462271E+03  0.36861308345E+02 -0.21067264959E+02  0.13779835198E+03  0.00000000000E+00 0.  1.
          5    1    3    3  502    0  0.48053125013E+02 -0.65936114638E+02 -0.69676164320E+02  0.10739428249E+03  0.47000000000E+01 0. -1.
         11    1    6    6    0    0 -0.32354934838E+02 -0.66317599319E+01  0.40986293701E+03  0.41119149940E+03  0.00000000000E+00 0. -1.
        -12    1    6    6    0    0  0.19593144693E+01  0.14430163831E+02  0.36169331106E+02  0.38990884243E+02  0.00000000000E+00 0.  1.
         -5    1    5    5    0  503 -0.21603872640E+03  0.61595541864E+02  0.48550839648E+03  0.53498339706E+03  0.47000000000E+01 0.  1.
<mgrwt>
<rscale>  2 0.31760230E+03</rscale>
<asrwt>0</asrwt>
<pdfrwt beam="1">  1       21 0.16481751E+00 0.32059882E+03</pdfrwt>
<pdfrwt beam="2">  1       21 0.36588657E-01 0.32059882E+03</pdfrwt>
<totfact> 0.15136003E+03</totfact>
</mgrwt>
</event>
<event>
12    1  0.1441827E-001  0.1943886E+03  0.7546771E-02  0.1154613E+00
         21   -1    0    0  504  503  0.00000000000E+00  0.00000000000E+00  0.57739948926E+03  0.57739948926E+03  0.00000000000E+00 0. -1.
         21   -1    0    0  502  504 -0.00000000000E+00 -0.00000000000E+00 -0.91315459485E+02  0.91315459485E+02  0.00000000000E+00 0. -1.
          6    2    1    2  502    0 -0.81302665517E+02  0.29529615573E+02  0.64902885500E+02  0.20493732909E+03  0.17408274668E+03 0.  0.
         24    2    3    3    0    0 -0.31582850800E+01 -0.36443458448E+02  0.48366436194E+02  0.10123325566E+03  0.81060221279E+02 0.  0.
         -6    2    1    2    0  503  0.81302665517E+02 -0.29529615573E+02  0.42118114428E+03  0.46377761966E+03  0.17382175521E+03 0.  0.
        -24    2    5    5    0    0  0.36368225288E+02  0.30239275811E+02  0.11428407520E+03  0.14786730753E+03  0.81035974610E+02 0.  0.
          2    1    4    4  501    0  0.37905505951E+02 -0.26853371962E+02  0.21130200963E+02  0.51033482734E+02  0.00000000000E+00 0. -1.
         -1    1    4    4    0  501 -0.41063791031E+02 -0.95900864857E+01  0.27236235231E+02  0.50199772930E+02  0.00000000000E+00 0.  1.
          5    1    3    3  502    0 -0.78144380437E+02  0.65973074021E+02  0.16536449306E+02  0.10370407343E+03  0.47000000000E+01 0. -1.
         13    1    6    6    0    0  0.59632305068E+02  0.81806208366E+01  0.61101094113E+02  0.85768747611E+02  0.00000000000E+00 0. -1.
        -14    1    6    6    0    0 -0.23264079780E+02  0.22058654975E+02  0.53182981083E+02  0.62098559921E+02  0.00000000000E+00 0.  1.
         -5    1    5    5    0  503  0.44934440229E+02 -0.59768891384E+02  0.30689706908E+03  0.31591031213E+03  0.47000000000E+01 0.  1.
<mgrwt>
<rscale>  2 0.19433014E+03</rscale>
<asrwt>0</asrwt>
<pdfrwt beam="1">  1       21 0.88830688E-01 0.19438859E+03</pdfrwt>
<pdfrwt beam="2">  1       21 0.14048533E-01 0.19438859E+03</pdfrwt>
<totfact> 0.47805999E+04</totfact>
</mgrwt>
</event>
<event>
12    1  0.1441827E-001  0.2203529E+03  0.7546771E-02  0.1133952E+00
         21   -1    0    0  504  503  0.00000000000E+00  0.00000000000E+00  0.45719162928E+03  0.45719162928E+03  0.00000000000E+00 0.  1.
         21   -1    0    0  502  504 -0.00000000000E+00 -0.00000000000E+00 -0.16212053992E+03  0.16212053992E+03  0.00000000000E+00 0. -1.
          6    2    1    2  502    0 -0.13484060045E+03  0.33791353174E+02 -0.36095421364E+02  0.22153501533E+03  0.16867436229E+03 0.  0.
         24    2    3    3    0    0 -0.76896636012E+02 -0.31406005728E+02 -0.60011296637E+02  0.13096869867E+03  0.81559882803E+02 0.  0.
         -6    2    1    2    0  503  0.13484060045E+03 -0.33791353174E+02  0.33116651072E+03  0.39777715386E+03  0.17097240488E+03 0.  0.
        -24    2    5    5    0    0  0.81196710260E+02 -0.39300019267E+01  0.31393840386E+03  0.33383761274E+03  0.79258309269E+02 0.  0.
          4    1    4    4  501    0 -0.80776513367E+02 -0.51038859121E+02 -0.55337534289E+02  0.11041762972E+03  0.00000000000E+00 0. -1.
         -3    1    4    4    0  501  0.38798773545E+01  0.19632853393E+02 -0.46737623483E+01  0.20551068954E+02  0.00000000000E+00 0.  1.
          5    1    3    3  502    0 -0.57943964436E+02  0.65197358901E+02  0.23915875273E+02  0.90566316654E+02  0.47000000000E+01 0. -1.
         11    1    6    6    0    0  0.65209607120E+02 -0.11681458671E+02  0.10504629268E+03  0.12419127563E+03  0.00000000000E+00 0. -1.
        -12    1    6    6    0    0  0.15987103140E+02  0.77514567444E+01  0.20889211118E+03  0.20964633711E+03  0.00000000000E+00 0.  1.
         -5    1    5    5    0  503  0.53643890189E+02 -0.29861351247E+02  0.17228106864E+02  0.63939541123E+02  0.47000000000E+01 0.  1.
<mgrwt>
<rscale>  2 0.21990700E+03</rscale>
<asrwt>0</asrwt>
<pdfrwt beam="1">  1       21 0.70337173E-01 0.22035291E+03</pdfrwt>
<pdfrwt beam="2">  1       21 0.24941622E-01 0.22035291E+03</pdfrwt>
<totfact> 0.27472660E+04</totfact>
</mgrwt>
</event>
<event>
12    1  0.1441827E-001  0.2039371E+03  0.7546771E-02  0.1146587E+00
         21   -1    0    0  504  503  0.00000000000E+00  0.00000000000E+00  0.17234733525E+03  0.17234733525E+03  0.00000000000E+00 0.  1.
         21   -1    0    0  502  504 -0.00000000000E+00 -0.00000000000E+00 -0.29399212558E+03  0.29399212558E+03  0.00000000000E+00 0. -1.
          6    2    1    2  502    0 -0.95551948888E+02  0.48837750416E+02 -0.16012970030E+03  0.25880284763E+03  0.17269074157E+03 0.  0.
         24    2    3    3    0    0 -0.11454554854E+03 -0.55861413819E+01 -0.84231375677E+02  0.16338082446E+03  0.80289983716E+02 0.  0.
         -6    2    1    2    0  503  0.95551948888E+02 -0.48837750416E+02  0.38484909965E+02  0.20753661319E+03  0.17342161549E+03 0.  0.
        -24    2    5    5    0    0  0.11412767991E+03 -0.83868935556E+01 -0.11106265712E+02  0.14073313792E+03  0.81160333075E+02 0.  0.
          2    1    4    4  501    0 -0.59924626665E+02 -0.34004964039E+01 -0.90249550193E+02  0.10838591037E+03  0.00000000000E+00 0. -1.
         -1    1    4    4    0  501 -0.54620921879E+02 -0.21856449780E+01  0.60181745164E+01  0.54994914087E+02  0.00000000000E+00 0.  1.
          5    1    3    3  502    0  0.18993599657E+02  0.54423891798E+02 -0.75898324618E+02  0.95422023172E+02  0.47000000000E+01 0. -1.
         11    1    6    6    0    0  0.34051885642E+02 -0.33953697792E+02  0.18630253385E+02  0.51570057696E+02  0.00000000000E+00 0. -1.
        -12    1    6    6    0    0  0.80075794269E+02  0.25566804237E+02 -0.29736519098E+02  0.89163080222E+02  0.00000000000E+00 0.  1.
         -5    1    5    5    0  503 -0.18575731023E+02 -0.40450856861E+02  0.49591175677E+02  0.66803475275E+02  0.47000000000E+01 0.  1.
<mgrwt>
<rscale>  2 0.20378168E+03</rscale>
<asrwt>0</asrwt>
<pdfrwt beam="1">  1       21 0.26514975E-01 0.20393714E+03</pdfrwt>
<pdfrwt beam="2">  1       21 0.45229558E-01 0.20393714E+03</pdfrwt>
<totfact> 0.63132489E+04</totfact>
</mgrwt>
</event>
<event>
12    1  0.1441827E-001  0.1949376E+03  0.7546771E-02  0.1155676E+00
         21   -1    0    0  504  503  0.00000000000E+00  0.00000000000E+00  0.15944958525E+03  0.15944958525E+03  0.00000000000E+00 0.  1.
         21   -1    0    0  502  504 -0.00000000000E+00 -0.00000000000E+00 -0.25497964246E+03  0.25497964246E+03  0.00000000000E+00 0. -1.
          6    2    1    2  502    0 -0.77191935346E+02 -0.42261697610E+02 -0.11226620693E+03  0.21877452997E+03  0.16587328832E+03 0.  0.
         24    2    3    3    0    0 -0.95220700585E+01 -0.76584386746E+02 -0.75414011765E+02  0.13429120649E+03  0.79943835653E+02 0.  0.
         -6    2    1    2    0  503  0.77191935346E+02  0.42261697610E+02  0.16736149719E+02  0.19565469774E+03  0.17394256545E+03 0.  0.
        -24    2    5    5    0    0 -0.26889523890E+02  0.22563533203E+02 -0.42507233331E+01  0.87564426774E+02  0.80108056161E+02 0.  0.
          2    1    4    4  501    0 -0.35518668715E+02 -0.66525237882E+02 -0.30326364283E+02  0.81282664038E+02  0.00000000000E+00 0. -1.
         -1    1    4    4    0  501  0.25996598656E+02 -0.10059148865E+02 -0.45087647482E+02  0.53008542453E+02  0.00000000000E+00 0.  1.
          5    1    3    3  502    0 -0.67669865288E+02  0.34322689136E+02 -0.36852195162E+02  0.84483323478E+02  0.47000000000E+01 0. -1.
         13    1    6    6    0    0 -0.93042033949E+01  0.44350665642E+02 -0.25879001253E+02  0.52184982989E+02  0.00000000000E+00 0. -1.
        -14    1    6    6    0    0 -0.17585320496E+02 -0.21787132439E+02  0.21628277920E+02  0.35379443786E+02  0.00000000000E+00 0.  1.
         -5    1    5    5    0  503  0.10408145924E+03  0.19698164408E+02  0.20986873052E+02  0.10809027097E+03  0.47000000000E+01 0.  1.
<mgrwt>
<rscale>  2 0.19312114E+03</rscale>
<asrwt>0</asrwt>
<pdfrwt beam="1">  1       21 0.24530705E-01 0.19493758E+03</pdfrwt>
<pdfrwt beam="2">  1       21 0.39227637E-01 0.19493758E+03</pdfrwt>
<totfact> 0.98304195E+04</totfact>
</mgrwt>
</event>
<event>
12    1  0.1441827E-001  0.2371906E+03  0.7546771E-02  0.1121983E+00
         21   -1    0    0  504  503  0.00000000000E+00  0.00000000000E+00  0.40821209877E+03  0.40821209877E+03  0.00000000000E+00 0. -1.
         21   -1    0    0  502  504 -0.00000000000E+00 -0.00000000000E+00 -0.22007957845E+03  0.22007957845E+03  0.00000000000E+00 0. -1.
          6    2    1    2  502    0 -0.15508037568E+03  0.41893087420E+02 -0.99423043669E+02  0.25553493319E+03  0.17207035413E+03 0.  0.
         24    2    3    3    0    0 -0.29361578114E+02 -0.26627267286E+02 -0.22730924706E+02  0.93041775847E+02  0.81049142391E+02 0.  0.
         -6    2    1    2    0  503  0.15508037568E+03 -0.41893087420E+02  0.28755556400E+03  0.37275674403E+03  0.17451198852E+03 0.  0.
        -24    2    5    5    0    0  0.89442832310E+02 -0.77870881321E+02  0.10673539474E+03  0.17699997565E+03  0.76633233536E+02 0.  0.
          2    1    4    4  501    0 -0.35238362675E+02  0.72421966048E+01  0.17599488880E+02  0.40049140122E+02  0.00000000000E+00 0. -1.
         -1    1    4    4    0  501  0.58767845609E+01 -0.33869463891E+02 -0.40330413586E+02  0.52992635725E+02  0.00000000000E+00 0.  1.
          5    1    3    3  502    0 -0.12571879757E+03  0.68520354706E+02 -0.76692118963E+02  0.16249315734E+03  0.47000000000E+01 0. -1.
         11    1    6    6    0    0  0.66652726950E+02 -0.62508701790E+02  0.11629544748E+03  0.14790048991E+03  0.00000000000E+00 0. -1.
        -12    1    6    6    0    0  0.22790105360E+02 -0.15362179531E+02 -0.95600527449E+01  0.29099485747E+02  0.00000000000E+00 0.  1.
         -5    1    5    5    0  503  0.65637543375E+02  0.35977793901E+02  0.18082016926E+03  0.19575676838E+03  0.47000000000E+01 0.  1.
<mgrwt>
<rscale>  2 0.23674169E+03</rscale>
<asrwt>0</asrwt>
<pdfrwt beam="1">  1       21 0.62801861E-01 0.23719061E+03</pdfrwt>
<pdfrwt beam="2">  1       21 0.33858397E-01 0.23719061E+03</pdfrwt>
<totfact> 0.19242991E+04</totfact>
</mgrwt>
</event>
<event>
12    1  0.1441827E-001  0.1885696E+03  0.7546771E-02  0.1161676E+00
         21   -1    0    0  504  503  0.00000000000E+00  0.00000000000E+00  0.65846875703E+02  0.65846875703E+02  0.00000000000E+00 0. -1.
         21   -1    0    0  502  504 -0.00000000000E+00 -0.00000000000E+00 -0.63607437984E+03  0.63607437984E+03  0.00000000000E+00 0. -1.
          6    2    1    2  502    0 -0.66329803202E+02 -0.24881176523E+02 -0.43194880893E+03  0.46808482622E+03  0.16584605892E+03 0.  0.
         24    2    3    3    0    0 -0.10780864413E+03 -0.29410252844E+02 -0.30428915715E+03  0.33369701624E+03  0.79209473970E+02 0.  0.
         -6    2    1    2    0  503  0.66329803202E+02  0.24881176523E+02 -0.13827869521E+03  0.23383642933E+03  0.17475629429E+03 0.  0.
        -24    2    5    5    0    0  0.58947714880E+02  0.34266302841E+02 -0.16959406528E+03  0.19999387879E+03  0.81156589233E+02 0.  0.
          4    1    4    4  501    0 -0.11862717523E+03 -0.27076548480E+02 -0.24695030665E+03  0.27529983679E+03  0.00000000000E+00 0. -1.
         -3    1    4    4    0  501  0.10818531100E+02 -0.23337043633E+01 -0.57338850505E+02  0.58397179456E+02  0.00000000000E+00 0.  1.
          5    1    3    3  502    0  0.41478840932E+02  0.45290763205E+01 -0.12765965178E+03  0.13438780997E+03  0.47000000000E+01 0. -1.
         11    1    6    6    0    0  0.32402648293E+02  0.86045483502E+01 -0.83132878360E+01  0.34540999165E+02  0.00000000000E+00 0. -1.
        -12    1    6    6    0    0  0.26545066587E+02  0.25661754491E+02 -0.16128077744E+03  0.16545287963E+03  0.00000000000E+00 0.  1.
         -5    1    5    5    0  503  0.73820883222E+01 -0.93851263174E+01  0.31315370073E+02  0.33842550536E+02  0.47000000000E+01 0.  1.
<mgrwt>
<rscale>  2 0.18647841E+03</rscale>
<asrwt>0</asrwt>
<pdfrwt beam="1">  1       21 0.10130288E-01 0.18856956E+03</pdfrwt>
<pdfrwt beam="2">  1       21 0.97857601E-01 0.18856956E+03</pdfrwt>
<totfact> 0.68656209E+04</totfact>
</mgrwt>
</event>
<event>
12    1  0.1441827E-001  0.1979198E+03  0.7546771E-02  0.1151510E+00
         21   -1    0    0  504  503  0.00000000000E+00  0.00000000000E+00  0.40539976186E+03  0.40539976186E+03  0.00000000000E+00 0. -1.
         21   -1    0    0  502  504 -0.00000000000E+00 -0.00000000000E+00 -0.18592232379E+03  0.18592232379E+03  0.00000000000E+00 0. -1.
          6    2    1    2  502    0 -0.95565867613E+02 -0.37073176631E+01 -0.95175178678E+02  0.21959839035E+03  0.17325864813E+03 0.  0.
         24    2    3    3    0    0  0.15135157681E+02 -0.51770242434E+01 -0.65019792535E+02  0.10475800394E+03  0.80565447864E+02 0.  0.
         -6    2    1    2    0  503  0.95565867613E+02  0.37073176631E+01  0.31465261674E+03  0.37172369530E+03  0.17327913079E+03 0.  0.
        -24    2    5    5    0    0  0.45952171477E+02  0.67962602824E+02  0.14711144487E+03  0.18549159606E+03  0.77684216868E+02 0.  0.
          2    1    4    4  501    0 -0.19251504749E+02  0.42840275350E+01 -0.66198586933E+02  0.69074063431E+02  0.00000000000E+00 0. -1.
         -1    1    4    4    0  501  0.34386662430E+02 -0.94610517784E+01  0.11787943976E+01  0.35683940506E+02  0.00000000000E+00 0.  1.
          5    1    3    3  502    0 -0.11070102529E+03  0.14697065803E+01 -0.30155386143E+02  0.11484038641E+03  0.47000000000E+01 0. -1.
         11    1    6    6    0    0  0.67954664543E+02  0.55069711909E+02  0.11515476792E+03  0.14460681235E+03  0.00000000000E+00 0. -1.
        -12    1    6    6    0    0 -0.22002493066E+02  0.12892890915E+02  0.31956676954E+02  0.40884783712E+02  0.00000000000E+00 0.  1.
         -5    1    5    5    0  503  0.49613696135E+02 -0.64255285161E+02  0.16754117187E+03  0.18623209924E+03  0.47000000000E+01 0.  1.
<mgrwt>
<rscale>  2 0.19791529E+03</rscale>
<asrwt>0</asrwt>
<pdfrwt beam="1">  1       21 0.62369194E-01 0.19791977E+03</pdfrwt>
<pdfrwt beam="2">  1       21 0.28603434E-01 0.19791977E+03</pdfrwt>
<totfact> 0.27786113E+04</totfact>
</mgrwt>
</event>
<event>
12    1  0.1441827E-001  0.2041096E+03  0.7546771E-02  0.1147265E+00
         21   -1    0    0  504  503  0.00000000000E+00  0.00000000000E+00  0.18965884221E+03  0.18965884221E+03  0.00000000000E+00 0.  1.
         21   -1    0    0  502  504 -0.00000000000E+00 -0.00000000000E+00 -0.27138443499E+03  0.27138443499E+03  0.00000000000E+00 0. -1.
          6    2    1    2  502    0  0.72593305922E+01  0.10314371631E+03 -0.14576653151E+03  0.24712283613E+03  0.17067656644E+03 0.  0.
         24    2    3    3    0    0 -0.35009422329E+01 -0.82425309445E+01 -0.36124933221E+02  0.90387231925E+02  0.82368956421E+02 0.  0.
         -6    2    1    2    0  503 -0.72593305922E+01 -0.10314371631E+03  0.64040938729E+02  0.21392044107E+03  0.17598121825E+03 0.  0.
        -24    2    5    5    0    0  0.34516088156E+02 -0.12592835368E+02  0.52560663325E+02  0.11342897688E+03  0.93560513157E+02 0.  0.
          4    1    4    4  501    0 -0.37175524262E+02  0.16238717375E+02 -0.12165797760E+02  0.42352357446E+02  0.00000000000E+00 0. -1.
         -3    1    4    4    0  501  0.33674582029E+02 -0.24481248320E+02 -0.23959135461E+02  0.48034874478E+02  0.00000000000E+00 0.  1.
          5    1    3    3  502    0  0.10760272825E+02  0.11138624726E+03 -0.10964159829E+03  0.15673560421E+03  0.47000000000E+01 0. -1.
         13    1    6    6    0    0  0.20302476136E+02 -0.34246005162E+02 -0.13845137366E+02  0.42150530667E+02  0.00000000000E+00 0. -1.
        -14    1    6    6    0    0  0.14213612019E+02  0.21653169794E+02  0.66405800691E+02  0.71278446211E+02  0.00000000000E+00 0.  1.
         -5    1    5    5    0  503 -0.41775418748E+02 -0.90550880947E+02  0.11480275405E+02  0.10049146419E+03  0.47000000000E+01 0.  1.
<mgrwt>
<rscale>  2 0.20296102E+03</rscale>
<asrwt>0</asrwt>
<pdfrwt beam="1">  1       21 0.29178283E-01 0.20410956E+03</pdfrwt>
<pdfrwt beam="2">  1       21 0.41751452E-01 0.20410956E+03</pdfrwt>
<totfact> 0.61789064E+04</totfact>
</mgrwt>
</event>
<event>
12    1  0.1441827E-001  0.1818504E+03  0.7546771E-02  0.1166335E+00
         21   -1    0    0  504  503  0.00000000000E+00  0.00000000000E+00  0.18593001916E+02  0.18593001916E+02  0.00000000000E+00 0.  1.
         21   -1    0    0  502  504 -0.00000000000E+00 -0.00000000000E+00 -0.17692415761E+04  0.17692415761E+04  0.00000000000E+00 0.  1.
          6    2    1    2  502    0  0.51809075126E+02  0.36524419046E+01 -0.91700442338E+03  0.93486185198E+03  0.17427578487E+03 0.  0.
         24    2    3    3    0    0 -0.29817212395E+02  0.17106284194E+02 -0.30172651989E+03  0.31402947105E+03  0.79962020801E+02 0.  0.
         -6    2    1    2    0  503 -0.51809075126E+02 -0.36524419046E+01 -0.83364415083E+03  0.85297272606E+03  0.17292304819E+03 0.  0.
        -24    2    5    5    0    0  0.32327383224E+02 -0.29947192913E+02 -0.46530182783E+03  0.47420034789E+03  0.80114199026E+02 0.  0.
          4    1    4    4  501    0 -0.67495811116E+01 -0.15512502275E+02 -0.23940488299E+03  0.24000185952E+03  0.00000000000E+00 0. -1.
         -3    1    4    4    0  501 -0.23067631283E+02  0.32618786469E+02 -0.62321636900E+02  0.74027611535E+02  0.00000000000E+00 0.  1.
          5    1    3    3  502    0  0.81626287521E+02 -0.13453842289E+02 -0.61527790348E+03  0.62083238092E+03  0.47000000000E+01 0. -1.
         13    1    6    6    0    0  0.16682813063E+02  0.25856151684E+02 -0.11084331089E+03  0.11503519636E+03  0.00000000000E+00 0. -1.
        -14    1    6    6    0    0  0.15644570161E+02 -0.55803344596E+02 -0.35445851694E+03  0.35916515153E+03  0.00000000000E+00 0.  1.
         -5    1    5    5    0  503 -0.84136458350E+02  0.26294751008E+02 -0.36834232300E+03  0.37877237818E+03  0.47000000000E+01 0.  1.
<mgrwt>
<rscale>  2 0.18152554E+03</rscale>
<asrwt>0</asrwt>
<pdfrwt beam="1">  1       21 0.28604606E-02 0.18185040E+03</pdfrwt>
<pdfrwt beam="2">  1       21 0.27219113E+00 0.18185040E+03</pdfrwt>
<totfact> 0.34124111E+04</totfact>
</mgrwt>
</event>
<event>
12    1  0.1441827E-001  0.2605835E+03  0.7546771E-02  0.1107722E+00
         21   -1    0    0  504  503  0.00000000000E+00  0.00000000000E+00  0.21852713601E+03  0.21852713601E+03  0.00000000000E+00 0.  1.
         21   -1    0    0  502  504 -0.00000000000E+00 -0.00000000000E+00 -0.30599630180E+03  0.30599630180E+03  0.00000000000E+00 0.  1.
          6    2    1    2  502    0  0.63945989903E+02  0.18189295668E+03 -0.68050692275E+02  0.26932258194E+03  0.17529865689E+03 0.  0.
         24    2    3    3    0    0  0.26849024546E+02  0.10971655084E+03 -0.11130634569E+03  0.17724239975E+03  0.79165485092E+02 0.  0.
         -6    2    1    2    0  503 -0.63945989903E+02 -0.18189295668E+03 -0.19418473512E+02  0.25520085588E+03  0.16606102015E+03 0.  0.
        -24    2    5    5    0    0 -0.22199586728E+02 -0.17192399801E+03 -0.53657195385E+02  0.20009620643E+03  0.84313192734E+02 0.  0.
          4    1    4    4  501    0 -0.16758236321E+02  0.24023962232E+02 -0.63355247274E+02  0.69798829525E+02  0.00000000000E+00 0. -1.
         -3    1    4    4    0  501  0.43607260868E+02  0.85692588610E+02 -0.47951098419E+02  0.10744357022E+03  0.00000000000E+00 0.  1.
          5    1    3    3  502    0  0.37096965357E+02  0.72176405840E+02  0.43255653418E+02  0.92080182186E+02  0.47000000000E+01 0. -1.
         11    1    6    6    0    0  0.19254590801E+02 -0.47083195201E+02 -0.45585716006E+02  0.68305373441E+02  0.00000000000E+00 0. -1.
        -12    1    6    6    0    0 -0.41454177530E+02 -0.12484080281E+03 -0.80714793790E+01  0.13179083299E+03  0.00000000000E+00 0.  1.
         -5    1    5    5    0  503 -0.41746403175E+02 -0.99689586702E+01  0.34238721872E+02  0.55104649445E+02  0.47000000000E+01 0.  1.
<mgrwt>
<rscale>  2 0.25903919E+03</rscale>
<asrwt>0</asrwt>
<pdfrwt beam="1">  1       21 0.33619559E-01 0.26058349E+03</pdfrwt>
<pdfrwt beam="2">  1       21 0.47076354E-01 0.26058349E+03</pdfrwt>
<totfact> 0.35641125E+04</totfact>
</mgrwt>
</event>
<event>
12    1  0.1441827E-001  0.1742958E+03  0.7546771E-02  0.1173551E+00
         21   -1    0    0  504  503  0.00000000000E+00  0.00000000000E+00  0.13516833568E+03  0.13516833568E+03  0.00000000000E+00 0. -1.
         21   -1    0    0  502  504 -0.00000000000E+00 -0.00000000000E+00 -0.31107203710E+03  0.31107203710E+03  0.00000000000E+00 0. -1.
          6    2    1    2  502    0  0.85550026974E+01  0.22804028710E+02 -0.20595010974E+03  0.26980454094E+03  0.17258572018E+03 0.  0.
         24    2    3    3    0    0 -0.55040969989E+02  0.39859025808E+02 -0.15006539802E+03  0.18331458966E+03  0.80413710168E+02 0.  0.
         -6    2    1    2    0  503 -0.85550026974E+01 -0.22804028710E+02  0.30046408323E+02  0.17643583184E+03  0.17214413817E+03 0.  0.
        -24    2    5    5    0    0 -0.54845998468E+02 -0.59795947238E+02  0.17904670889E+02  0.11576648115E+03  0.80608076911E+02 0.  0.
          4    1    4    4  501    0  0.11524387042E+02  0.27491059548E+02 -0.82260342715E+02  0.87494764617E+02  0.00000000000E+00 0. -1.
         -3    1    4    4    0  501 -0.66565357031E+02  0.12367966260E+02 -0.67805055306E+02  0.95819825042E+02  0.00000000000E+00 0.  1.
          5    1    3    3  502    0  0.63595972686E+02 -0.17054997098E+02 -0.55884711720E+02  0.86489951278E+02  0.47000000000E+01 0. -1.
         13    1    6    6    0    0 -0.13009515179E+01 -0.60805032413E+02  0.95478396635E+01  0.61563834219E+02  0.00000000000E+00 0. -1.
        -14    1    6    6    0    0 -0.53545046950E+02  0.10090851741E+01  0.83568312259E+01  0.54202646927E+02  0.00000000000E+00 0.  1.
         -5    1    5    5    0  503  0.46290995771E+02  0.36991918528E+02  0.12141737434E+02  0.60669350695E+02  0.47000000000E+01 0.  1.
<mgrwt>
<rscale>  2 0.17418644E+03</rscale>
<asrwt>0</asrwt>
<pdfrwt beam="1">  1       21 0.20795129E-01 0.17429585E+03</pdfrwt>
<pdfrwt beam="2">  1       21 0.47857236E-01 0.17429585E+03</pdfrwt>
<totfact> 0.90215307E+04</totfact>
</mgrwt>
</event>
<event>
12    1  0.1441827E-001  0.2373234E+03  0.7546771E-02  0.1121792E+00
         21   -1    0    0  504  503  0.00000000000E+00  0.00000000000E+00  0.92509143607E+03  0.92509143607E+03  0.00000000000E+00 0. -1.
         21   -1    0    0  502  504 -0.00000000000E+00 -0.00000000000E+00 -0.11800165268E+03  0.11800165268E+03  0.00000000000E+00 0.  1.
          6    2    1    2  502    0 -0.10308487176E+03  0.12594223932E+03  0.39186706228E+02  0.23935337372E+03  0.17107454847E+03 0.  0.
         24    2    3    3    0    0  0.95691008531E+01  0.34821678545E+02  0.39694456600E+02  0.94383646013E+02  0.77643452796E+02 0.  0.
         -6    2    1    2    0  503  0.10308487176E+03 -0.12594223932E+03  0.76790307716E+03  0.80373971503E+03  0.17272653295E+03 0.  0.
        -24    2    5    5    0    0  0.10495457836E+03 -0.13130237843E+03  0.77227633027E+03  0.79516987041E+03  0.87341939569E+02 0.  0.
          2    1    4    4  501    0  0.30425592811E+02  0.38659757738E+02  0.50568826663E+02  0.70551398259E+02  0.00000000000E+00 0. -1.
         -1    1    4    4    0  501 -0.20856491958E+02 -0.38380791928E+01 -0.10874370063E+02  0.23832247753E+02  0.00000000000E+00 0.  1.
          5    1    3    3  502    0 -0.11265397261E+03  0.91120560773E+02 -0.50775037113E+00  0.14496972770E+03  0.47000000000E+01 0. -1.
         11    1    6    6    0    0  0.30979881158E+02 -0.20566954890E+02  0.60282273107E+02  0.70828702663E+02  0.00000000000E+00 0. -1.
        -12    1    6    6    0    0  0.73974697201E+02 -0.11073542354E+03  0.71199405717E+03  0.72434116775E+03  0.00000000000E+00 0.  1.
         -5    1    5    5    0  503 -0.18697066042E+01  0.53601391111E+01 -0.43732531143E+01  0.85698446239E+01  0.47000000000E+01 0.  1.
<mgrwt>
<rscale>  2 0.23702292E+03</rscale>
<asrwt>0</asrwt>
<pdfrwt beam="1">  1       21 0.14232175E+00 0.23732339E+03</pdfrwt>
<pdfrwt beam="2">  1       21 0.18154101E-01 0.23732339E+03</pdfrwt>
<totfact> 0.91832281E+03</totfact>
</mgrwt>
</event>
<event>
12    1  0.1441827E-001  0.2385695E+03  0.7546771E-02  0.1120898E+00
         21   -1    0    0  504  503  0.00000000000E+00  0.00000000000E+00  0.20137429600E+03  0.20137429600E+03  0.00000000000E+00 0. -1.
         21   -1    0    0  502  504 -0.00000000000E+00 -0.00000000000E+00 -0.42535171695E+03  0.42535171695E+03  0.00000000000E+00 0. -1.
          6    2    1    2  502    0  0.10597644869E+03 -0.12613223105E+03 -0.29430504075E+03  0.37885467241E+03  0.17255450853E+03 0.  0.
         24    2    3    3    0    0  0.75382543753E+02 -0.15002969204E+01 -0.14358201437E+03  0.18084298916E+03  0.80022578592E+02 0.  0.
         -6    2    1    2    0  503 -0.10597644869E+03  0.12613223105E+03  0.70327619796E+02  0.24787134055E+03  0.17132974048E+03 0.  0.
        -24    2    5    5    0    0 -0.22603724678E+02  0.13466981950E+01  0.39117129108E+02  0.94513507203E+02  0.83005489510E+02 0.  0.
          4    1    4    4  501    0 -0.16588671974E+02  0.56730363453E+01 -0.19445523109E+02  0.26181973726E+02  0.00000000000E+00 0. -1.
         -3    1    4    4    0  501  0.91971215727E+02 -0.71733332657E+01 -0.12413649126E+03  0.15466101543E+03  0.00000000000E+00 0.  1.
          5    1    3    3  502    0  0.30593904936E+02 -0.12463193413E+03 -0.15072302638E+03  0.19801168325E+03  0.47000000000E+01 0. -1.
         11    1    6    6    0    0  0.15340983798E+02  0.78246633111E+01 -0.18465292350E+02  0.25249518043E+02  0.00000000000E+00 0. -1.
        -12    1    6    6    0    0 -0.37944708476E+02 -0.64779651161E+01  0.57582421459E+02  0.69263989160E+02  0.00000000000E+00 0.  1.
         -5    1    5    5    0  503 -0.83372724010E+02  0.12478553286E+03  0.31210490687E+02  0.15335783334E+03  0.47000000000E+01 0.  1.
<mgrwt>
<rscale>  2 0.23834810E+03</rscale>
<asrwt>0</asrwt>
<pdfrwt beam="1">  1       21 0.30980661E-01 0.23856950E+03</pdfrwt>
<pdfrwt beam="2">  1       21 0.65438725E-01 0.23856950E+03</pdfrwt>
<totfact> 0.20951683E+04</totfact>
</mgrwt>
</event>
<event>
12    1  0.1441827E-001  0.2300228E+03  0.7546771E-02  0.1126675E+00
         21   -1    0    0  504  503  0.00000000000E+00  0.00000000000E+00  0.22609345280E+03  0.22609345280E+03  0.00000000000E+00 0. -1.
         21   -1    0    0  502  504 -0.00000000000E+00 -0.00000000000E+00 -0.24232755029E+03  0.24232755029E+03  0.00000000000E+00 0. -1.
          6    2    1    2  502    0  0.35396065149E+02  0.14753020350E+03 -0.52239572831E+02  0.23559733160E+03  0.17250822390E+03 0.  0.
         24    2    3    3    0    0  0.60230961039E+02  0.66933763069E+02  0.22561143533E+02  0.12277093649E+03  0.80347995269E+02 0.  0.
         -6    2    1    2    0  503 -0.35396065149E+02 -0.14753020350E+03  0.36005475343E+02  0.23282367149E+03  0.17289426069E+03 0.  0.
        -24    2    5    5    0    0 -0.60805287138E+02 -0.12072046215E+03  0.78786935423E+02  0.17610741174E+03  0.80843839294E+02 0.  0.
          2    1    4    4  501    0  0.67186282800E+02  0.70083568696E+02 -0.19422749039E+01  0.97105487123E+02  0.00000000000E+00 0. -1.
         -1    1    4    4    0  501 -0.69553217614E+01 -0.31498056267E+01  0.24503418437E+02  0.25665449370E+02  0.00000000000E+00 0.  1.
          5    1    3    3  502    0 -0.24834895890E+02  0.80596440435E+02 -0.74800716363E+02  0.11282639511E+03  0.47000000000E+01 0. -1.
         11    1    6    6    0    0 -0.33192878257E+02 -0.37853166221E+01  0.19011790593E+01  0.33462072122E+02  0.00000000000E+00 0. -1.
        -12    1    6    6    0    0 -0.27612408881E+02 -0.11693514553E+03  0.76885756364E+02  0.14264533962E+03  0.00000000000E+00 0.  1.
         -5    1    5    5    0  503  0.25409221989E+02 -0.26809741352E+02 -0.42781460080E+02  0.56716259750E+02  0.47000000000E+01 0.  1.
<mgrwt>
<rscale>  2 0.22995022E+03</rscale>
<asrwt>0</asrwt>
<pdfrwt beam="1">  1       21 0.34783608E-01 0.23002275E+03</pdfrwt>
<pdfrwt beam="2">  1       21 0.37281162E-01 0.23002275E+03</pdfrwt>
<totfact> 0.54353094E+04</totfact>
</mgrwt>
</event>
<event>
12    1  0.1441827E-001  0.2166889E+03  0.7546771E-02  0.1137414E+00
         21   -1    0    0  504  503  0.00000000000E+00  0.00000000000E+00  0.24437494116E+03  0.24437494116E+03  0.00000000000E+00 0. -1.
         21   -1    0    0  502  504 -0.00000000000E+00 -0.00000000000E+00 -0.30151128296E+03  0.30151128296E+03  0.00000000000E+00 0.  1.
          6    2    1    2  502    0  0.95426672409E+02 -0.87924773775E+02 -0.19670255720E+03  0.29265334392E+03  0.17354269806E+03 0.  0.
         24    2    3    3    0    0  0.55733456858E+02 -0.85314767984E+02 -0.21299777333E+03  0.24940999114E+03  0.80327233140E+02 0.  0.
         -6    2    1    2    0  503 -0.95426672409E+02  0.87924773775E+02  0.13956621540E+03  0.25323288019E+03  0.16676674573E+03 0.  0.
        -24    2    5    5    0    0 -0.31835027373E+02 -0.92626811280E+01  0.91944226362E+02  0.12761742514E+03  0.82056079653E+02 0.  0.
          2    1    4    4  501    0  0.73856006607E+02 -0.78342149886E+02 -0.19590071145E+03  0.22353811958E+03  0.00000000000E+00 0. -1.
         -1    1    4    4    0  501 -0.18122549750E+02 -0.69726180980E+01 -0.17097061887E+02  0.25871871555E+02  0.00000000000E+00 0.  1.
          5    1    3    3  502    0  0.39693215552E+02 -0.26100057910E+01  0.16295216137E+02  0.43243352784E+02  0.47000000000E+01 0. -1.
         11    1    6    6    0    0 -0.17633279023E+02  0.21172537399E+02  0.89835059215E+02  0.93965667843E+02  0.00000000000E+00 0. -1.
        -12    1    6    6    0    0 -0.14201748349E+02 -0.30435218527E+02  0.21091671466E+01  0.33651757295E+02  0.00000000000E+00 0.  1.
         -5    1    5    5    0  503 -0.63591645037E+02  0.97187454903E+02  0.47621989035E+02  0.12561545505E+03  0.47000000000E+01 0.  1.
<mgrwt>
<rscale>  2 0.21532922E+03</rscale>
<asrwt>0</asrwt>
<pdfrwt beam="1">  1       21 0.37596145E-01 0.21668891E+03</pdfrwt>
<pdfrwt beam="2">  1       21 0.46386351E-01 0.21668891E+03</pdfrwt>
<totfact> 0.29985259E+04</totfact>
</mgrwt>
</event>
<event>
12    1  0.1441827E-001  0.1918497E+03  0.7546771E-02  0.1157052E+00
         21   -1    0    0  504  503  0.00000000000E+00  0.00000000000E+00  0.16605030886E+02  0.16605030886E+02  0.00000000000E+00 0.  1.
         21   -1    0    0  502  504 -0.00000000000E+00 -0.00000000000E+00 -0.25100291993E+04  0.25100291993E+04  0.00000000000E+00 0. -1.
          6    2    1    2  502    0  0.12448696398E+01 -0.78838111066E+02 -0.80858222493E+03  0.83103040605E+03  0.17489803848E+03 0.  0.
         24    2    3    3    0    0 -0.10813892214E+02  0.26550880790E+02 -0.30927952964E+03  0.32056245911E+03  0.79275300057E+02 0.  0.
         -6    2    1    2    0  503 -0.12448696398E+01  0.78838111066E+02 -0.16848419435E+04  0.16956038241E+04  0.17367485831E+03 0.  0.
        -24    2    5    5    0    0  0.64582832868E+02  0.23495883138E+02 -0.93360194537E+03  0.93944268165E+03  0.78847707001E+02 0.  0.
          4    1    4    4  501    0  0.22868428238E+02 -0.63236045080E+01 -0.20230600614E+03  0.20369259462E+03  0.00000000000E+00 0. -1.
         -3    1    4    4    0  501 -0.33682320452E+02  0.32874485298E+02 -0.10697352350E+03  0.11686986449E+03  0.00000000000E+00 0.  1.
          5    1    3    3  502    0  0.12058761854E+02 -0.10538899186E+03 -0.49930269528E+03  0.51046794695E+03  0.47000000000E+01 0. -1.
         11    1    6    6    0    0  0.50236557938E+02  0.34221141349E+02 -0.89298539155E+03  0.89505179057E+03  0.00000000000E+00 0. -1.
        -12    1    6    6    0    0  0.14346274930E+02 -0.10725258211E+02 -0.40616553812E+02  0.44390891088E+02  0.00000000000E+00 0.  1.
         -5    1    5    5    0  503 -0.65827702508E+02  0.55342227928E+02 -0.75123999809E+03  0.75616114244E+03  0.47000000000E+01 0.  1.
<mgrwt>
<rscale>  2 0.19157052E+03</rscale>
<asrwt>0</asrwt>
<pdfrwt beam="1">  1       21 0.25546186E-02 0.19184974E+03</pdfrwt>
<pdfrwt beam="2">  1       21 0.38615857E+00 0.19184974E+03</pdfrwt>
<totfact> 0.87556539E+03</totfact>
</mgrwt>
</event>
<event>
12    1  0.1441827E-001  0.1759593E+03  0.7546771E-02  0.1171876E+00
         21   -1    0    0  504  503  0.00000000000E+00  0.00000000000E+00  0.37273512392E+02  0.37273512392E+02  0.00000000000E+00 0. -1.
         21   -1    0    0  502  504 -0.00000000000E+00 -0.00000000000E+00 -0.97219331412E+03  0.97219331412E+03  0.00000000000E+00 0. -1.
          6    2    1    2  502    0  0.27559341361E+02  0.94980249237E+00 -0.66089948275E+03  0.68381546634E+03  0.17336391287E+03 0.  0.
         24    2    3    3    0    0  0.31868879729E+02  0.64240411406E+02 -0.49413715722E+03  0.50533287191E+03  0.77764550633E+02 0.  0.
         -6    2    1    2    0  503 -0.27559341361E+02 -0.94980249237E+00 -0.27402031898E+03  0.32565136017E+03  0.17378507919E+03 0.  0.
        -24    2    5    5    0    0 -0.23077679901E+02  0.19003224680E+02 -0.28773359083E+03  0.30058440169E+03  0.81649625804E+02 0.  0.
          4    1    4    4  501    0  0.39677348779E+02  0.77941306063E+02 -0.45103832088E+03  0.45943955652E+03  0.00000000000E+00 0. -1.
         -3    1    4    4    0  501 -0.78084690499E+01 -0.13700894657E+02 -0.43098836343E+02  0.45893315389E+02  0.00000000000E+00 0.  1.
          5    1    3    3  502    0 -0.43095383681E+01 -0.63290608914E+02 -0.16676232553E+03  0.17848259442E+03  0.47000000000E+01 0. -1.
         11    1    6    6    0    0 -0.41636202372E+02  0.14799209674E+02 -0.75357660790E+02  0.87357695680E+02  0.00000000000E+00 0. -1.
        -12    1    6    6    0    0  0.18558522470E+02  0.42040150060E+01 -0.21237593004E+03  0.21322670601E+03  0.00000000000E+00 0.  1.
         -5    1    5    5    0  503 -0.44816614597E+01 -0.19953027172E+02  0.13713271846E+02  0.25066958481E+02  0.47000000000E+01 0.  1.
<mgrwt>
<rscale>  2 0.17585521E+03</rscale>
<asrwt>0</asrwt>
<pdfrwt beam="1">  1       21 0.57343860E-02 0.17595929E+03</pdfrwt>
<pdfrwt beam="2">  1       21 0.14956822E+00 0.17595929E+03</pdfrwt>
<totfact> 0.64739149E+04</totfact>
</mgrwt>
</event>
<event>
12    1  0.1441827E-001  0.1985962E+03  0.7546771E-02  0.1152904E+00
         21   -1    0    0  504  503  0.00000000000E+00  0.00000000000E+00  0.20811319726E+03  0.20811319726E+03  0.00000000000E+00 0. -1.
         21   -1    0    0  502  504 -0.00000000000E+00 -0.00000000000E+00 -0.18324333569E+03  0.18324333569E+03  0.00000000000E+00 0. -1.
          6    2    1    2  502    0  0.53745570960E+02 -0.78756011221E+02  0.34474011203E+02  0.20156613023E+03  0.17421065325E+03 0.  0.
         24    2    3    3    0    0  0.29349002121E+02 -0.45127851260E+02 -0.48491517835E+02  0.10866072284E+03  0.80980482223E+02 0.  0.
         -6    2    1    2    0  503 -0.53745570960E+02  0.78756011221E+02 -0.96041496285E+01  0.18979040273E+03  0.16382021113E+03 0.  0.
        -24    2    5    5    0    0 -0.52661088740E+02 -0.13085080401E+02  0.15036345357E+01  0.97154367183E+02  0.80574813370E+02 0.  0.
          2    1    4    4  501    0 -0.98648819284E+00 -0.59276144747E+02 -0.46107152280E+02  0.75103288785E+02  0.00000000000E+00 0. -1.
         -1    1    4    4    0  501  0.30335490314E+02  0.14148293487E+02 -0.23843655553E+01  0.33557434054E+02  0.00000000000E+00 0.  1.
          5    1    3    3  502    0  0.24396568839E+02 -0.33628159961E+02  0.82965529038E+02  0.92905407389E+02  0.47000000000E+01 0. -1.
         11    1    6    6    0    0 -0.37440028235E+02  0.57576384762E+01  0.37802446706E+02  0.53515708834E+02  0.00000000000E+00 0. -1.
        -12    1    6    6    0    0 -0.15221060505E+02 -0.18842718877E+02 -0.36298812170E+02  0.43638658349E+02  0.00000000000E+00 0.  1.
         -5    1    5    5    0  503 -0.10844822199E+01  0.91841091622E+02 -0.11107784164E+02  0.92636035543E+02  0.47000000000E+01 0.  1.
<mgrwt>
<rscale>  2 0.19629424E+03</rscale>
<asrwt>0</asrwt>
<pdfrwt beam="1">  1       21 0.32017415E-01 0.19859619E+03</pdfrwt>
<pdfrwt beam="2">  1       21 0.28191282E-01 0.19859619E+03</pdfrwt>
<totfact> 0.11255459E+05</totfact>
</mgrwt>
</event>
<event>
12    1  0.1441827E-001  0.2090328E+03  0.7546771E-02  0.1142543E+00
         21   -1    0    0  504  503  0.00000000000E+00  0.00000000000E+00  0.41887557082E+03  0.41887557082E+03  0.00000000000E+00 0. -1.
         21   -1    0    0  502  504 -0.00000000000E+00 -0.00000000000E+00 -0.28928247695E+03  0.28928247695E+03  0.00000000000E+00 0. -1.
          6    2    1    2  502    0 -0.97451201405E+02 -0.62447956105E+02 -0.21879116753E+03  0.30187452742E+03  0.17280674594E+03 0.  0.
         24    2    3    3    0    0 -0.68760505862E+02  0.16755744941E+02 -0.16298528054E+03  0.20071737596E+03  0.93351492668E+02 0.  0.
         -6    2    1    2    0  503  0.97451201405E+02  0.62447956105E+02  0.34838426140E+03  0.40628352034E+03  0.17406384299E+03 0.  0.
        -24    2    5    5    0    0  0.66459673746E+02  0.10982908320E+03  0.26278384071E+03  0.30354614636E+03  0.81274844077E+02 0.  0.
          2    1    4    4  501    0 -0.27384358915E+02 -0.25334211548E+01 -0.15104773992E+03  0.15353091242E+03  0.00000000000E+00 0. -1.
         -1    1    4    4    0  501 -0.41376146947E+02  0.19289166096E+02 -0.11937540629E+02  0.47186463537E+02  0.00000000000E+00 0.  1.
          5    1    3    3  502    0 -0.28690695543E+02 -0.79203701046E+02 -0.55805886983E+02  0.10115715146E+03  0.47000000000E+01 0. -1.
         11    1    6    6    0    0  0.39389533985E+02  0.39180294404E+02  0.40535786532E+02  0.68773402176E+02  0.00000000000E+00 0. -1.
        -12    1    6    6    0    0  0.27070139762E+02  0.70648788797E+02  0.22224805418E+03  0.23477274418E+03  0.00000000000E+00 0.  1.
         -5    1    5    5    0  503  0.30991527658E+02 -0.47381127095E+02  0.85600420688E+02  0.10273737399E+03  0.47000000000E+01 0.  1.
<mgrwt>
<rscale>  2 0.20877089E+03</rscale>
<asrwt>0</asrwt>
<pdfrwt beam="1">  1       21 0.64442395E-01 0.20903279E+03</pdfrwt>
<pdfrwt beam="2">  1       21 0.44504997E-01 0.20903279E+03</pdfrwt>
<totfact> 0.10646481E+04</totfact>
</mgrwt>
</event>
<event>
12    1  0.1441827E-001  0.2123839E+03  0.7546771E-02  0.1140015E+00
         21   -1    0    0  504  503  0.00000000000E+00  0.00000000000E+00  0.47508029557E+03  0.47508029557E+03  0.00000000000E+00 0. -1.
         21   -1    0    0  502  504 -0.00000000000E+00 -0.00000000000E+00 -0.10722075053E+03  0.10722075053E+03  0.00000000000E+00 0. -1.
          6    2    1    2  502    0  0.11865866555E+03 -0.26494763575E+02  0.83140847037E+02  0.22807748577E+03  0.17414099937E+03 0.  0.
         24    2    3    3    0    0  0.61772154013E+02  0.10922734533E+00 -0.23548514271E+02  0.10418819106E+03  0.80528477511E+02 0.  0.
         -6    2    1    2    0  503 -0.11865866555E+03  0.26494763575E+02  0.28471869800E+03  0.35422356034E+03  0.17212711088E+03 0.  0.
        -24    2    5    5    0    0 -0.97182355513E+02  0.71346206406E+02  0.14325198045E+03  0.20419754262E+03  0.81491196568E+02 0.  0.
          4    1    4    4  501    0  0.79476769955E+02  0.11252535003E+02 -0.15375086202E+02  0.81728635020E+02  0.00000000000E+00 0. -1.
         -3    1    4    4    0  501 -0.17704615942E+02 -0.11143307657E+02 -0.81734280684E+01  0.22459556041E+02  0.00000000000E+00 0.  1.
          5    1    3    3  502    0  0.56886511535E+02 -0.26603990921E+02  0.10668936131E+03  0.12388929471E+03  0.47000000000E+01 0. -1.
         11    1    6    6    0    0 -0.39374446356E+02  0.74408099352E+02  0.10598412248E+03  0.13534971922E+03  0.00000000000E+00 0. -1.
        -12    1    6    6    0    0 -0.57807909157E+02 -0.30618929458E+01  0.37267857973E+02  0.68847823404E+02  0.00000000000E+00 0.  1.
         -5    1    5    5    0  503 -0.21476310034E+02 -0.44851442831E+02  0.14146671755E+03  0.15002601771E+03  0.47000000000E+01 0.  1.
<mgrwt>
<rscale>  2 0.21197071E+03</rscale>
<asrwt>0</asrwt>
<pdfrwt beam="1">  1       21 0.73089275E-01 0.21238394E+03</pdfrwt>
<pdfrwt beam="2">  1       21 0.16495500E-01 0.21238394E+03</pdfrwt>
<totfact> 0.55004040E+04</totfact>
</mgrwt>
</event>
<event>
12    1  0.1441827E-001  0.2350573E+03  0.7546771E-02  0.1123147E+00
         21   -1    0    0  504  503  0.00000000000E+00  0.00000000000E+00  0.27013621648E+03  0.27013621648E+03  0.00000000000E+00 0. -1.
         21   -1    0    0  502  504 -0.00000000000E+00 -0.00000000000E+00 -0.21810607654E+03  0.21810607654E+03  0.00000000000E+00 0.  1.
          6    2    1    2  502    0 -0.13281122641E+03 -0.86403173989E+02 -0.35072708122E+02  0.23765952413E+03  0.17363071220E+03 0.  0.
         24    2    3    3    0    0 -0.12700301123E+03 -0.68453967207E+02 -0.84265006452E+02  0.18476451867E+03  0.78877281642E+02 0.  0.
         -6    2    1    2    0  503  0.13281122641E+03  0.86403173989E+02  0.87102848061E+02  0.25058276889E+03  0.17349492093E+03 0.  0.
        -24    2    5    5    0    0  0.25431917970E+01  0.58826939412E+02  0.29682692350E+02  0.10549874552E+03  0.82351966920E+02 0.  0.
          2    1    4    4  501    0 -0.80416172193E+02 -0.75707223901E+02 -0.33348063913E+02  0.11537087097E+03  0.00000000000E+00 0. -1.
         -1    1    4    4    0  501 -0.46586839038E+02  0.72532566933E+01 -0.50916942538E+02  0.69393647704E+02  0.00000000000E+00 0.  1.
          5    1    3    3  502    0 -0.58082151774E+01 -0.17949206782E+02  0.49192298329E+02  0.52895005459E+02  0.47000000000E+01 0. -1.
         13    1    6    6    0    0  0.11456596527E+02  0.78657012623E+02  0.22735827309E+02  0.82674645945E+02  0.00000000000E+00 0. -1.
        -14    1    6    6    0    0 -0.89134047298E+01 -0.19830073210E+02  0.69468650409E+01  0.22824099573E+02  0.00000000000E+00 0.  1.
         -5    1    5    5    0  503  0.13026803461E+03  0.27576234577E+02  0.57420155712E+02  0.14508402337E+03  0.47000000000E+01 0.  1.
<mgrwt>
<rscale>  2 0.23503227E+03</rscale>
<asrwt>0</asrwt>
<pdfrwt beam="1">  1       21 0.41559418E-01 0.23505734E+03</pdfrwt>
<pdfrwt beam="2">  1       21 0.33554781E-01 0.23505734E+03</pdfrwt>
<totfact> 0.46754018E+04</totfact>
</mgrwt>
</event>
<event>
12    1  0.1441827E-001  0.2083355E+03  0.7546771E-02  0.1142921E+00
         21   -1    0    0  504  503  0.00000000000E+00  0.00000000000E+00  0.19003641565E+04  0.19003641565E+04  0.00000000000E+00 0.  1.
         21   -1    0    0  502  504 -0.00000000000E+00 -0.00000000000E+00 -0.46761124712E+02  0.46761124712E+02  0.00000000000E+00 0.  1.
          6    2    1    2  502    0 -0.44070590298E+02  0.10736988078E+03  0.23006757774E+03  0.31027738070E+03  0.17283071029E+03 0.  0.
         24    2    3    3    0    0 -0.62738470665E+02  0.10247209565E+03  0.24602870678E+03  0.28479551074E+03  0.78369077374E+02 0.  0.
         -6    2    1    2    0  503  0.44070590298E+02 -0.10736988078E+03  0.16235354540E+04  0.16368479005E+04  0.17301205341E+03 0.  0.
        -24    2    5    5    0    0  0.34395090557E+02  0.17306174765E+02  0.51545312028E+03  0.52172177198E+03  0.70846045849E+02 0.  0.
          2    1    4    4  501    0  0.35131364863E+01  0.68185008710E+02  0.13037206639E+03  0.14716797626E+03  0.00000000000E+00 0. -1.
         -1    1    4    4    0  501 -0.66251607151E+02  0.34287086937E+02  0.11565664038E+03  0.13762753448E+03  0.00000000000E+00 0.  1.
          5    1    3    3  502    0  0.18667880367E+02  0.48977851356E+01 -0.15961129040E+02  0.25481869964E+02  0.47000000000E+01 0. -1.
         11    1    6    6    0    0 -0.10865360626E+02 -0.94503437831E+01  0.28429858905E+03  0.28466305133E+03  0.00000000000E+00 0. -1.
        -12    1    6    6    0    0  0.45260451183E+02  0.26756518549E+02  0.23115453123E+03  0.23705872065E+03  0.00000000000E+00 0.  1.
         -5    1    5    5    0  503  0.96754997408E+01 -0.12467605555E+03  0.11080823338E+04  0.11151261285E+04  0.47000000000E+01 0.  1.
<mgrwt>
<rscale>  2 0.20829784E+03</rscale>
<asrwt>0</asrwt>
<pdfrwt beam="1">  1       21 0.29236366E+00 0.20833550E+03</pdfrwt>
<pdfrwt beam="2">  1       21 0.71940207E-02 0.20833550E+03</pdfrwt>
<totfact> 0.53568126E+03</totfact>
</mgrwt>
</event>
<event>
12    1  0.1441827E-001  0.1870643E+03  0.7546771E-02  0.1161313E+00
         21   -1    0    0  504  503  0.00000000000E+00  0.00000000000E+00  0.81419595129E+02  0.81419595129E+02  0.00000000000E+00 0.  1.
         21   -1    0    0  502  504 -0.00000000000E+00 -0.00000000000E+00 -0.54960719703E+03  0.54960719703E+03  0.00000000000E+00 0.  1.
          6    2    1    2  502    0 -0.69194712095E+02 -0.90008004025E+01 -0.38211469754E+03  0.42511027527E+03  0.17273731928E+03 0.  0.
         24    2    3    3    0    0 -0.22023589752E+02 -0.11661904060E+02 -0.36423710196E+03  0.37437670966E+03  0.82874699279E+02 0.  0.
         -6    2    1    2    0  503  0.69194712095E+02  0.90008004025E+01 -0.86072904361E+02  0.20591651689E+03  0.17356308500E+03 0.  0.
        -24    2    5    5    0    0  0.48509109592E+02  0.10034804141E+02 -0.12755824638E+03  0.15931086362E+03  0.81578269402E+02 0.  0.
          2    1    4    4  501    0 -0.39364064842E+02  0.21076441448E+02 -0.25872219789E+03  0.26254698945E+03  0.00000000000E+00 0. -1.
         -1    1    4    4    0  501  0.17340475089E+02 -0.32738345508E+02 -0.10551490407E+03  0.11182972021E+03  0.00000000000E+00 0.  1.
          5    1    3    3  502    0 -0.47171122342E+02  0.26611036571E+01 -0.17877595585E+02  0.50733565611E+02  0.47000000000E+01 0. -1.
         11    1    6    6    0    0  0.23265760545E+01 -0.14284953598E+02  0.61882787511E+01  0.15740636878E+02  0.00000000000E+00 0. -1.
        -12    1    6    6    0    0  0.46182533537E+02  0.24319757739E+02 -0.13374652513E+03  0.14357022674E+03  0.00000000000E+00 0.  1.
         -5    1    5    5    0  503  0.20685602503E+02 -0.10340037389E+01  0.41485342021E+02  0.46605653275E+02  0.47000000000E+01 0.  1.
<mgrwt>
<rscale>  2 0.18687257E+03</rscale>
<asrwt>0</asrwt>
<pdfrwt beam="1">  1       21 0.12526092E-01 0.18706434E+03</pdfrwt>
<pdfrwt beam="2">  1       21 0.84554948E-01 0.18706434E+03</pdfrwt>
<totfact> 0.66064151E+04</totfact>
</mgrwt>
</event>
<event>
12    1  0.1441827E-001  0.2727129E+03  0.7546771E-02  0.1101031E+00
         21   -1    0    0  504  503  0.00000000000E+00  0.00000000000E+00  0.11688514848E+03  0.11688514848E+03  0.00000000000E+00 0.  1.
         21   -1    0    0  502  504 -0.00000000000E+00 -0.00000000000E+00 -0.63005814216E+03  0.63005814216E+03  0.00000000000E+00 0. -1.
          6    2    1    2  502    0  0.34366480521E+02 -0.19679648041E+03 -0.31762212420E+03  0.41863603472E+03  0.18564052924E+03 0.  0.
         24    2    3    3    0    0  0.31710673130E+02 -0.64648199237E+02 -0.39893232111E+02  0.11102321146E+03  0.74496490254E+02 0.  0.
         -6    2    1    2    0  503 -0.34366480521E+02  0.19679648041E+03 -0.19555086947E+03  0.32830725592E+03  0.17214994060E+03 0.  0.
        -24    2    5    5    0    0 -0.80567963488E+02  0.14554116352E+03 -0.99933890447E+02  0.21029716645E+03  0.81022766783E+02 0.  0.
          2    1    4    4  501    0 -0.18348456786E+02  0.25596470847E+01 -0.14290148504E+02  0.23397136660E+02  0.00000000000E+00 0. -1.
         -1    1    4    4    0  501  0.50059129916E+02 -0.67207846322E+02 -0.25603083608E+02  0.87626074803E+02  0.00000000000E+00 0.  1.
          5    1    3    3  502    0  0.26558073911E+01 -0.13214828118E+03 -0.27772889209E+03  0.30761282326E+03  0.47000000000E+01 0. -1.
         13    1    6    6    0    0 -0.69942141167E+02  0.64577511319E+02 -0.84300178774E+02  0.12715611751E+03  0.00000000000E+00 0. -1.
        -14    1    6    6    0    0 -0.10625822322E+02  0.80963652203E+02 -0.15633711673E+02  0.83141048939E+02  0.00000000000E+00 0.  1.
         -5    1    5    5    0  503  0.46201482967E+02  0.51255316893E+02 -0.95616979027E+02  0.11801008947E+03  0.47000000000E+01 0.  1.
<mgrwt>
<rscale>  2 0.27043499E+03</rscale>
<asrwt>0</asrwt>
<pdfrwt beam="1">  1       21 0.17982331E-01 0.27271288E+03</pdfrwt>
<pdfrwt beam="2">  1       21 0.96932021E-01 0.27271288E+03</pdfrwt>
<totfact> 0.23842549E+04</totfact>
</mgrwt>
</event>
<event>
12    1  0.1441827E-001  0.2361710E+03  0.7546771E-02  0.1122445E+00
         21   -1    0    0  504  503  0.00000000000E+00  0.00000000000E+00  0.37181824276E+03  0.37181824276E+03  0.00000000000E+00 0.  1.
         21   -1    0    0  502  504 -0.00000000000E+00 -0.00000000000E+00 -0.25720877788E+03  0.25720877788E+03  0.00000000000E+00 0. -1.
          6    2    1    2  502    0  0.11208221219E+03  0.11645935942E+03 -0.14603501153E+03  0.27729945030E+03  0.17159124644E+03 0.  0.
         24    2    3    3    0    0  0.60939010740E+02  0.24463576621E+02 -0.95320879600E+01  0.10486398628E+03  0.81200771587E+02 0.  0.
         -6    2    1    2    0  503 -0.11208221219E+03 -0.11645935942E+03  0.26064447642E+03  0.35172757034E+03  0.17219621357E+03 0.  0.
        -24    2    5    5    0    0 -0.19070715654E+01 -0.89400917455E+02  0.10939716845E+03  0.16260179457E+03  0.80470132164E+02 0.  0.
          2    1    4    4  501    0 -0.77785550818E+01  0.31337450186E+02  0.86949309137E+01  0.33438653187E+02  0.00000000000E+00 0. -1.
         -1    1    4    4    0  501  0.68717565822E+02 -0.68738735659E+01 -0.18227018874E+02  0.71425333092E+02  0.00000000000E+00 0.  1.
          5    1    3    3  502    0  0.51143201447E+02  0.91995782800E+02 -0.13650292357E+03  0.17243546402E+03  0.47000000000E+01 0. -1.
         13    1    6    6    0    0  0.26894646887E+02 -0.13059440194E+01  0.32240741300E+02  0.42005867692E+02  0.00000000000E+00 0. -1.
        -14    1    6    6    0    0 -0.28801718452E+02 -0.88094973436E+02  0.77156427148E+02  0.12059592688E+03  0.00000000000E+00 0.  1.
         -5    1    5    5    0  503 -0.11017514062E+03 -0.27058441965E+02  0.15124730797E+03  0.18912577577E+03  0.47000000000E+01 0.  1.
<mgrwt>
<rscale>  2 0.23606074E+03</rscale>
<asrwt>0</asrwt>
<pdfrwt beam="1">  1       21 0.57202807E-01 0.23617100E+03</pdfrwt>
<pdfrwt beam="2">  1       21 0.39570581E-01 0.23617100E+03</pdfrwt>
<totfact> 0.17226658E+04</totfact>
</mgrwt>
</event>
<event>
12    1  0.1441827E-001  0.2227265E+03  0.7546771E-02  0.1131880E+00
         21   -1    0    0  504  503  0.00000000000E+00  0.00000000000E+00  0.14511894208E+03  0.14511894208E+03  0.00000000000E+00 0.  1.
         21   -1    0    0  502  504 -0.00000000000E+00 -0.00000000000E+00 -0.37980389121E+03  0.37980389121E+03  0.00000000000E+00 0.  1.
          6    2    1    2  502    0 -0.12414010726E+03 -0.64513809280E+02 -0.34217605607E+02  0.22526595509E+03  0.17320827975E+03 0.  0.
         24    2    3    3    0    0 -0.22473654498E+01 -0.41855416417E+02  0.13527989303E+02  0.92326212705E+02  0.81143062075E+02 0.  0.
         -6    2    1    2    0  503  0.12414010726E+03  0.64513809280E+02 -0.20046734352E+03  0.29965687820E+03  0.17330404212E+03 0.  0.
        -24    2    5    5    0    0  0.13507058682E+03 -0.10711503444E+02 -0.12483886437E+03  0.19232524299E+03  0.55185662116E+02 0.  0.
          2    1    4    4  501    0  0.12534492515E+02  0.20747887722E+02 -0.62435907178E+01  0.25031395738E+02  0.00000000000E+00 0. -1.
         -1    1    4    4    0  501 -0.14781857965E+02 -0.62603304139E+02  0.19771580021E+02  0.67294816967E+02  0.00000000000E+00 0.  1.
          5    1    3    3  502    0 -0.12189274181E+03 -0.22658392863E+02 -0.47745594910E+02  0.13293974239E+03  0.47000000000E+01 0. -1.
         11    1    6    6    0    0  0.18821705220E+02  0.18680414334E+01  0.29179247818E+01  0.19137932261E+02  0.00000000000E+00 0. -1.
        -12    1    6    6    0    0  0.11624888160E+03 -0.12579544878E+02 -0.12775678915E+03  0.17318731073E+03  0.00000000000E+00 0.  1.
         -5    1    5    5    0  503 -0.10930479565E+02  0.75225312724E+02 -0.75628479149E+02  0.10733163521E+03  0.47000000000E+01 0.  1.
<mgrwt>
<rscale>  2 0.22270786E+03</rscale>
<asrwt>0</asrwt>
<pdfrwt beam="1">  1       21 0.22325992E-01 0.22272649E+03</pdfrwt>
<pdfrwt beam="2">  1       21 0.58431366E-01 0.22272649E+03</pdfrwt>
<totfact> 0.50764991E+04</totfact>
</mgrwt>
</event>
<event>
12    1  0.1441827E-001  0.1967851E+03  0.7546771E-02  0.1152620E+00
         21   -1    0    0  504  503  0.00000000000E+00  0.00000000000E+00  0.44686581335E+02  0.44686581335E+02  0.00000000000E+00 0.  1.
         21   -1    0    0  502  504 -0.00000000000E+00 -0.00000000000E+00 -0.16102298163E+04  0.16102298163E+04  0.00000000000E+00 0.  1.
          6    2    1    2  502    0  0.36256706322E+02  0.84083385255E+02 -0.13468666178E+04  0.13611664411E+04  0.17418332248E+03 0.  0.
         24    2    3    3    0    0  0.27491521099E+02  0.15392357028E+02 -0.11245512928E+04  0.11282684386E+04  0.85914789629E+02 0.  0.
         -6    2    1    2    0  503 -0.36256706322E+02 -0.84083385255E+02 -0.21867661712E+03  0.29374995648E+03  0.17345030882E+03 0.  0.
        -24    2    5    5    0    0 -0.39721695358E+02 -0.94267796308E+02 -0.74369796581E+02  0.14896640482E+03  0.78713992519E+02 0.  0.
          4    1    4    4  501    0 -0.31289105433E+02  0.29784059496E+01 -0.38994283438E+03  0.39120748089E+03  0.00000000000E+00 0. -1.
         -3    1    4    4    0  501  0.58780626532E+02  0.12413951079E+02 -0.73460845842E+03  0.73706095774E+03  0.00000000000E+00 0.  1.
          5    1    3    3  502    0  0.87651852222E+01  0.68691028227E+02 -0.22231532501E+03  0.23289800249E+03  0.47000000000E+01 0. -1.
         11    1    6    6    0    0 -0.53024615857E+02 -0.55960617120E+02 -0.76170665978E+02  0.10837513973E+03  0.00000000000E+00 0. -1.
        -12    1    6    6    0    0  0.13302920499E+02 -0.38307179188E+02  0.18008693974E+01  0.40591265092E+02  0.00000000000E+00 0.  1.
         -5    1    5    5    0  503  0.34649890361E+01  0.10184411053E+02 -0.14430682054E+03  0.14478355166E+03  0.47000000000E+01 0.  1.
<mgrwt>
<rscale>  2 0.19662282E+03</rscale>
<asrwt>0</asrwt>
<pdfrwt beam="1">  1       21 0.68748590E-02 0.19678515E+03</pdfrwt>
<pdfrwt beam="2">  1       21 0.24772765E+00 0.19678515E+03</pdfrwt>
<totfact> 0.10659658E+04</totfact>
</mgrwt>
</event>
<event>
12    1  0.1441827E-001  0.2189518E+03  0.7546771E-02  0.1135213E+00
         21   -1    0    0  504  503  0.00000000000E+00  0.00000000000E+00  0.25538987571E+02  0.25538987571E+02  0.00000000000E+00 0. -1.
         21   -1    0    0  502  504 -0.00000000000E+00 -0.00000000000E+00 -0.20227354181E+04  0.20227354181E+04  0.00000000000E+00 0.  1.
          6    2    1    2  502    0 -0.94704362303E+02 -0.88583284227E+02 -0.70751302297E+03  0.74061767954E+03  0.17641982625E+03 0.  0.
         24    2    3    3    0    0 -0.11658046780E+03 -0.11368975459E+03 -0.54970577140E+03  0.57926676540E+03  0.82808119252E+02 0.  0.
         -6    2    1    2    0  503  0.94704362303E+02  0.88583284227E+02 -0.12896834075E+04  0.13076567261E+04  0.17282044780E+03 0.  0.
        -24    2    5    5    0    0  0.47923916964E+02 -0.21311536617E+02 -0.45515445097E+03  0.46461108615E+03  0.77116818657E+02 0.  0.
          2    1    4    4  501    0 -0.10056543799E+03 -0.10267483681E+03 -0.34636346377E+03  0.37499757128E+03  0.00000000000E+00 0. -1.
         -1    1    4    4    0  501 -0.16015029815E+02 -0.11014917779E+02 -0.20334230762E+03  0.20426919411E+03  0.00000000000E+00 0.  1.
          5    1    3    3  502    0  0.21876105499E+02  0.25106470367E+02 -0.15780725158E+03  0.16135091415E+03  0.47000000000E+01 0. -1.
         11    1    6    6    0    0 -0.13806180265E+02 -0.68898872873E+01 -0.22171507144E+02  0.27012161879E+02  0.00000000000E+00 0. -1.
        -12    1    6    6    0    0  0.61730097229E+02 -0.14421649330E+02 -0.43298294383E+03  0.43759892427E+03  0.00000000000E+00 0.  1.
         -5    1    5    5    0  503  0.46780445339E+02  0.10989482084E+03 -0.83452895655E+03  0.84304563995E+03  0.47000000000E+01 0.  1.
<mgrwt>
<rscale>  2 0.21822573E+03</rscale>
<asrwt>0</asrwt>
<pdfrwt beam="1">  1       21 0.39290748E-02 0.21895175E+03</pdfrwt>
<pdfrwt beam="2">  1       21 0.31119008E+00 0.21895175E+03</pdfrwt>
<totfact> 0.11563533E+04</totfact>
</mgrwt>
</event>
<event>
12    1  0.1441827E-001  0.2170125E+03  0.7546771E-02  0.1136309E+00
         21   -1    0    0  504  503  0.00000000000E+00  0.00000000000E+00  0.75263757178E+02  0.75263757178E+02  0.00000000000E+00 0. -1.
         21   -1    0    0  502  504 -0.00000000000E+00 -0.00000000000E+00 -0.63997586730E+03  0.63997586730E+03  0.00000000000E+00 0.  1.
          6    2    1    2  502    0 -0.27409773456E+02 -0.12689105468E+03 -0.22473871198E+03  0.31241305758E+03  0.17390168040E+03 0.  0.
         24    2    3    3    0    0  0.42135088519E+02 -0.54210583824E+02 -0.16319992647E+03  0.19439589445E+03  0.80258299860E+02 0.  0.
         -6    2    1    2    0  503  0.27409773456E+02  0.12689105468E+03 -0.33997339814E+03  0.40282656690E+03  0.17272723038E+03 0.  0.
        -24    2    5    5    0    0  0.10969660811E+02  0.82594027245E+01 -0.67502802315E+02  0.10515886334E+03  0.79455692228E+02 0.  0.
          2    1    4    4  501    0  0.26693275004E+02 -0.73991295027E+02 -0.10657279480E+03  0.13245755268E+03  0.00000000000E+00 0. -1.
         -1    1    4    4    0  501  0.15441813514E+02  0.19780711203E+02 -0.56627131668E+02  0.61938341770E+02  0.00000000000E+00 0.  1.
          5    1    3    3  502    0 -0.69544861975E+02 -0.72680470856E+02 -0.61538785511E+02  0.11801716313E+03  0.47000000000E+01 0. -1.
         11    1    6    6    0    0 -0.13386401601E+02  0.22443817899E+02  0.56740114692E+01  0.26741636372E+02  0.00000000000E+00 0. -1.
        -12    1    6    6    0    0  0.24356062413E+02 -0.14184415175E+02 -0.73176813784E+02  0.78417226970E+02  0.00000000000E+00 0.  1.
         -5    1    5    5    0  503  0.16440112645E+02  0.11863165196E+03 -0.27247059583E+03  0.29766770356E+03  0.47000000000E+01 0.  1.
<mgrwt>
<rscale>  2 0.21677713E+03</rscale>
<asrwt>0</asrwt>
<pdfrwt beam="1">  1       21 0.11579040E-01 0.21701251E+03</pdfrwt>
<pdfrwt beam="2">  1       21 0.98457825E-01 0.21701251E+03</pdfrwt>
<totfact> 0.52633872E+04</totfact>
</mgrwt>
</event>
<event>
12    1  0.1441827E-001  0.1778507E+03  0.7546771E-02  0.1170405E+00
         21   -1    0    0  504  503  0.00000000000E+00  0.00000000000E+00  0.40726577475E+03  0.40726577475E+03  0.00000000000E+00 0.  1.
         21   -1    0    0  502  504 -0.00000000000E+00 -0.00000000000E+00 -0.77047198283E+02  0.77047198283E+02  0.00000000000E+00 0.  1.
          6    2    1    2  502    0  0.41366906900E+02  0.63220450903E+01  0.18044011581E+03  0.25335651301E+03  0.17285745009E+03 0.  0.
         24    2    3    3    0    0  0.77998178570E+02  0.23416162466E+01  0.58825058999E+02  0.12619517486E+03  0.79847577071E+02 0.  0.
         -6    2    1    2    0  503 -0.41366906900E+02 -0.63220450903E+01  0.14977846066E+03  0.23095646003E+03  0.17075160295E+03 0.  0.
        -24    2    5    5    0    0  0.18624162552E+02  0.42364254386E+02  0.10860459973E+03  0.14328285513E+03  0.81199926188E+02 0.  0.
          2    1    4    4  501    0  0.32925847030E+02 -0.38533328982E+02  0.29590601241E+02  0.58690139947E+02  0.00000000000E+00 0. -1.
         -1    1    4    4    0  501  0.45072331540E+02  0.40874945229E+02  0.29234457757E+02  0.67505034910E+02  0.00000000000E+00 0.  1.
          5    1    3    3  502    0 -0.36631271670E+02  0.39804288436E+01  0.12161505681E+03  0.12716133815E+03  0.47000000000E+01 0. -1.
         13    1    6    6    0    0  0.25513725137E+02 -0.14192432942E+02  0.12934140582E+02  0.31932230048E+02  0.00000000000E+00 0. -1.
        -14    1    6    6    0    0 -0.68895625851E+01  0.56556687328E+02  0.95670459144E+02  0.11135062509E+03  0.00000000000E+00 0.  1.
         -5    1    5    5    0  503 -0.59991069453E+02 -0.48686299476E+02  0.41173860935E+02  0.87673604893E+02  0.47000000000E+01 0.  1.
<mgrwt>
<rscale>  2 0.17733702E+03</rscale>
<asrwt>0</asrwt>
<pdfrwt beam="1">  1       21 0.62656272E-01 0.17785074E+03</pdfrwt>
<pdfrwt beam="2">  1       21 0.11853415E-01 0.17785074E+03</pdfrwt>
<totfact> 0.14229545E+05</totfact>
</mgrwt>
</event>
<event>
12    1  0.1441827E-001  0.2807566E+03  0.7546771E-02  0.1095355E+00
         21   -1    0    0  504  503  0.00000000000E+00  0.00000000000E+00  0.10104259481E+03  0.10104259481E+03  0.00000000000E+00 0.  1.
         21   -1    0    0  502  504 -0.00000000000E+00 -0.00000000000E+00 -0.87708579011E+03  0.87708579011E+03  0.00000000000E+00 0. -1.
          6    2    1    2  502    0 -0.19721240171E+03  0.98666928862E+02 -0.55233200326E+03  0.61959253859E+03  0.17377104999E+03 0.  0.
         24    2    3    3    0    0 -0.17842787665E+03  0.13301846772E+03 -0.50134937591E+03  0.55513941691E+03  0.85429242986E+02 0.  0.
         -6    2    1    2    0  503  0.19721240171E+03 -0.98666928862E+02 -0.22371119205E+03  0.35853584633E+03  0.17283912005E+03 0.  0.
        -24    2    5    5    0    0  0.10706418797E+03 -0.88107113692E+02 -0.57984224290E+02  0.16952333886E+03  0.78424411532E+02 0.  0.
          2    1    4    4  501    0 -0.15826937019E+03  0.72645577800E+02 -0.34924341885E+03  0.39025317311E+03  0.00000000000E+00 0. -1.
         -1    1    4    4    0  501 -0.20158506467E+02  0.60372889916E+02 -0.15210595706E+03  0.16488624380E+03  0.00000000000E+00 0.  1.
          5    1    3    3  502    0 -0.18784525054E+02 -0.34351538855E+02 -0.50982627344E+02  0.64453121679E+02  0.47000000000E+01 0. -1.
         11    1    6    6    0    0 -0.78563168551E+01  0.62128060622E+01 -0.20035451111E+00  0.10018024537E+02  0.00000000000E+00 0. -1.
        -12    1    6    6    0    0  0.11492050483E+03 -0.94319919754E+02 -0.57783869778E+02  0.15950531433E+03  0.00000000000E+00 0.  1.
         -5    1    5    5    0  503  0.90148213734E+02 -0.10559815170E+02 -0.16572696776E+03  0.18901250747E+03  0.47000000000E+01 0.  1.
<mgrwt>
<rscale>  2 0.28061253E+03</rscale>
<asrwt>0</asrwt>
<pdfrwt beam="1">  1       21 0.15545014E-01 0.28075661E+03</pdfrwt>
<pdfrwt beam="2">  1       21 0.13493628E+00 0.28075661E+03</pdfrwt>
<totfact> 0.13718609E+04</totfact>
</mgrwt>
</event>
<event>
12    1  0.1441827E-001  0.1960866E+03  0.7546771E-02  0.1153229E+00
         21   -1    0    0  504  503  0.00000000000E+00  0.00000000000E+00  0.15903593101E+03  0.15903593101E+03  0.00000000000E+00 0. -1.
         21   -1    0    0  502  504 -0.00000000000E+00 -0.00000000000E+00 -0.73996877752E+03  0.73996877752E+03  0.00000000000E+00 0.  1.
          6    2    1    2  502    0 -0.90397429813E+02  0.78977373227E+01 -0.65976589670E+03  0.68828844653E+03  0.17382714866E+03 0.  0.
         24    2    3    3    0    0 -0.23526741984E+02 -0.18165085145E+02 -0.14429154987E+03  0.16782053028E+03  0.80375376292E+02 0.  0.
         -6    2    1    2    0  503  0.90397429813E+02 -0.78977373227E+01  0.78833050185E+02  0.21071626200E+03  0.17306826311E+03 0.  0.
        -24    2    5    5    0    0  0.82203219248E+02 -0.63583112890E+01  0.12092186089E+03  0.16755293375E+03  0.81572616666E+02 0.  0.
          2    1    4    4  501    0  0.23037225453E+02  0.15899362522E+02 -0.45927669743E+02  0.53785261301E+02  0.00000000000E+00 0. -1.
         -1    1    4    4    0  501 -0.46563967437E+02 -0.34064447667E+02 -0.98363880127E+02  0.11403526898E+03  0.00000000000E+00 0.  1.
          5    1    3    3  502    0 -0.66870687828E+02  0.26062822467E+02 -0.51547434683E+03  0.52046791625E+03  0.47000000000E+01 0. -1.
         11    1    6    6    0    0  0.76342866050E+02  0.18386336122E+02  0.52240636519E+02  0.94315293864E+02  0.00000000000E+00 0. -1.
        -12    1    6    6    0    0  0.58603531984E+01 -0.24744647411E+02  0.68681224367E+02  0.73237639883E+02  0.00000000000E+00 0.  1.
         -5    1    5    5    0  503  0.81942105647E+01 -0.15394260336E+01 -0.42088810702E+02  0.43163328249E+02  0.47000000000E+01 0.  1.
<mgrwt>
<rscale>  2 0.19591826E+03</rscale>
<asrwt>0</asrwt>
<pdfrwt beam="1">  1       21 0.24467067E-01 0.19608658E+03</pdfrwt>
<pdfrwt beam="2">  1       21 0.11384135E+00 0.19608658E+03</pdfrwt>
<totfact> 0.94601056E+03</totfact>
</mgrwt>
</event>
<event>
12    1  0.1441827E-001  0.1800046E+03  0.7546771E-02  0.1167828E+00
         21   -1    0    0  504  503  0.00000000000E+00  0.00000000000E+00  0.27808572137E+03  0.27808572137E+03  0.00000000000E+00 0.  1.
         21   -1    0    0  502  504 -0.00000000000E+00 -0.00000000000E+00 -0.13054520446E+03  0.13054520446E+03  0.00000000000E+00 0.  1.
          6    2    1    2  502    0 -0.49185504457E+02 -0.19006553675E+01  0.66254227497E+01  0.18012653719E+03  0.17314400606E+03 0.  0.
         24    2    3    3    0    0 -0.45424473460E+02  0.57844626087E+02 -0.22460061509E+02  0.11340548051E+03  0.83348455832E+02 0.  0.
         -6    2    1    2    0  503  0.49185504457E+02  0.19006553675E+01  0.14091509416E+03  0.22850438865E+03  0.17301550662E+03 0.  0.
        -24    2    5    5    0    0  0.91873345747E+02  0.13742472005E+02  0.60714527907E+02  0.13676180725E+03  0.79924782305E+02 0.  0.
          4    1    4    4  501    0  0.16362690012E+02  0.37653069005E+02 -0.25503860140E+02  0.48331543654E+02  0.00000000000E+00 0. -1.
         -3    1    4    4    0  501 -0.61787163472E+02  0.20191557082E+02  0.30437986306E+01  0.65073936852E+02  0.00000000000E+00 0.  1.
          5    1    3    3  502    0 -0.37610309969E+01 -0.59745281455E+02  0.29085484259E+02  0.66721056682E+02  0.47000000000E+01 0. -1.
         13    1    6    6    0    0  0.90091914768E+01  0.15353422416E+02 -0.15919953946E+02  0.23881751288E+02  0.00000000000E+00 0. -1.
        -14    1    6    6    0    0  0.82864154270E+02 -0.16109504101E+01  0.76634481853E+02  0.11288005596E+03  0.00000000000E+00 0.  1.
         -5    1    5    5    0  503 -0.42687841290E+02 -0.11841816638E+02  0.80200566251E+02  0.91742581401E+02  0.47000000000E+01 0.  1.
<mgrwt>
<rscale>  2 0.17997374E+03</rscale>
<asrwt>0</asrwt>
<pdfrwt beam="1">  1       21 0.42782418E-01 0.18000465E+03</pdfrwt>
<pdfrwt beam="2">  1       21 0.20083878E-01 0.18000465E+03</pdfrwt>
<totfact> 0.12089160E+05</totfact>
</mgrwt>
</event>
<event>
12    1  0.1441827E-001  0.1875020E+03  0.7546771E-02  0.1160863E+00
         21   -1    0    0  504  503  0.00000000000E+00  0.00000000000E+00  0.99798862952E+03  0.99798862952E+03  0.00000000000E+00 0.  1.
         21   -1    0    0  502  504 -0.00000000000E+00 -0.00000000000E+00 -0.91855095257E+02  0.91855095257E+02  0.00000000000E+00 0.  1.
          6    2    1    2  502    0  0.71492612748E+02  0.36883017562E+01  0.25074457731E+02  0.18917112819E+03  0.17329798055E+03 0.  0.
         24    2    3    3    0    0 -0.12598258797E+02 -0.28410546836E+01  0.56626714798E+02  0.98996064566E+02  0.80167625974E+02 0.  0.
         -6    2    1    2    0  503 -0.71492612748E+02 -0.36883017562E+01  0.88105907653E+03  0.90067259659E+03  0.17268825283E+03 0.  0.
        -24    2    5    5    0    0 -0.32619895175E+02  0.62894537779E+02  0.44900870767E+03  0.46177172632E+03  0.81268242391E+02 0.  0.
          4    1    4    4  501    0  0.14670219783E+02 -0.42344282355E+01  0.67797199912E+02  0.69495367089E+02  0.00000000000E+00 0. -1.
         -3    1    4    4    0  501 -0.27268478581E+02  0.13933735520E+01 -0.11170485114E+02  0.29500697477E+02  0.00000000000E+00 0.  1.
          5    1    3    3  502    0  0.84090871545E+02  0.65293564398E+01 -0.31552257067E+02  0.90175063619E+02  0.47000000000E+01 0. -1.
         13    1    6    6    0    0  0.17924678057E+02 -0.81068572754E+01  0.10960485924E+03  0.11135636662E+03  0.00000000000E+00 0. -1.
        -14    1    6    6    0    0 -0.50544573232E+02  0.71001395054E+02  0.33940384843E+03  0.35041535970E+03  0.00000000000E+00 0.  1.
         -5    1    5    5    0  503 -0.38872717573E+02 -0.66582839535E+02  0.43205036886E+03  0.43890087027E+03  0.47000000000E+01 0.  1.
<mgrwt>
<rscale>  2 0.18736096E+03</rscale>
<asrwt>0</asrwt>
<pdfrwt beam="1">  1       21 0.15353670E+00 0.18750197E+03</pdfrwt>
<pdfrwt beam="2">  1       21 0.14131554E-01 0.18750197E+03</pdfrwt>
<totfact> 0.12333995E+04</totfact>
</mgrwt>
</event>
<event>
12    1  0.1441827E-001  0.2876340E+03  0.7546771E-02  0.1091750E+00
         21   -1    0    0  504  503  0.00000000000E+00  0.00000000000E+00  0.10925213251E+04  0.10925213251E+04  0.00000000000E+00 0. -1.
         21   -1    0    0  502  504 -0.00000000000E+00 -0.00000000000E+00 -0.80578709024E+02  0.80578709024E+02  0.00000000000E+00 0. -1.
          6    2    1    2  502    0  0.22942233117E+03 -0.17648208049E+02  0.65353267234E+03  0.71354483219E+03  0.17057317623E+03 0.  0.
         24    2    3    3    0    0  0.31922155434E+02  0.21385125632E+02  0.19922103383E+03  0.21660310982E+03  0.75838903319E+02 0.  0.
         -6    2    1    2    0  503 -0.22942233117E+03  0.17648208049E+02  0.35840994374E+03  0.45955520193E+03  0.17258977536E+03 0.  0.
        -24    2    5    5    0    0 -0.90665903204E+02  0.34661735739E+02  0.25947151037E+03  0.28822595742E+03  0.79542415773E+02 0.  0.
          4    1    4    4  501    0  0.37569152975E+02 -0.10032026537E+02  0.16615069523E+03  0.17064037136E+03  0.00000000000E+00 0. -1.
         -3    1    4    4    0  501 -0.56469975407E+01  0.31417152169E+02  0.33070338599E+02  0.45962738459E+02  0.00000000000E+00 0.  1.
          5    1    3    3  502    0  0.19750017574E+03 -0.39033333681E+02  0.45431163851E+03  0.49694172238E+03  0.47000000000E+01 0. -1.
         13    1    6    6    0    0 -0.10028861425E+03  0.19343979964E+02  0.18229757564E+03  0.20896028760E+03  0.00000000000E+00 0. -1.
        -14    1    6    6    0    0  0.96227110488E+01  0.15317755775E+02  0.77173934725E+02  0.79265669813E+02  0.00000000000E+00 0.  1.
         -5    1    5    5    0  503 -0.13875642797E+03 -0.17013527690E+02  0.98938433366E+02  0.17132924451E+03  0.47000000000E+01 0.  1.
<mgrwt>
<rscale>  2 0.28733212E+03</rscale>
<asrwt>0</asrwt>
<pdfrwt beam="1">  1       21 0.16808019E+00 0.28763396E+03</pdfrwt>
<pdfrwt beam="2">  1       21 0.12396725E-01 0.28763396E+03</pdfrwt>
<totfact> 0.11466741E+04</totfact>
</mgrwt>
</event>
<event>
12    1  0.1441827E-001  0.1802844E+03  0.7546771E-02  0.1169089E+00
         21   -1    0    0  504  503  0.00000000000E+00  0.00000000000E+00  0.10701766998E+03  0.10701766998E+03  0.00000000000E+00 0.  1.
         21   -1    0    0  502  504 -0.00000000000E+00 -0.00000000000E+00 -0.31235226165E+03  0.31235226165E+03  0.00000000000E+00 0.  1.
          6    2    1    2  502    0  0.15895739715E+02 -0.35011419645E+01 -0.15296055914E+03  0.23163204425E+03  0.17318065347E+03 0.  0.
         24    2    3    3    0    0 -0.86378526547E+01 -0.54527660244E+02 -0.33589007672E+02  0.99430455677E+02  0.75566631852E+02 0.  0.
         -6    2    1    2    0  503 -0.15895739715E+02  0.35011419645E+01 -0.52374032535E+02  0.18773788738E+03  0.17954816217E+03 0.  0.
        -24    2    5    5    0    0  0.40792043960E+02  0.43959314818E+02  0.39289451753E+01  0.98057990709E+02  0.77482389754E+02 0.  0.
          2    1    4    4  501    0 -0.32629640277E+02  0.14671045462E+01 -0.12187824085E+02  0.34862427860E+02  0.00000000000E+00 0. -1.
         -1    1    4    4    0  501  0.23991787622E+02 -0.55994764790E+02 -0.21401183587E+02  0.64568027817E+02  0.00000000000E+00 0.  1.
          5    1    3    3  502    0  0.24533592370E+02  0.51026518279E+02 -0.11937155147E+03  0.13220158857E+03  0.47000000000E+01 0. -1.
         13    1    6    6    0    0  0.39761135612E+02 -0.97408980214E+01 -0.10852477649E+02  0.42351024433E+02  0.00000000000E+00 0. -1.
        -14    1    6    6    0    0  0.10309083479E+01  0.53700212839E+02  0.14781422824E+02  0.55706966276E+02  0.00000000000E+00 0.  1.
         -5    1    5    5    0  503 -0.56687783675E+02 -0.40458172853E+02 -0.56302977711E+02  0.89679896675E+02  0.47000000000E+01 0.  1.
<mgrwt>
<rscale>  2 0.17867794E+03</rscale>
<asrwt>0</asrwt>
<pdfrwt beam="1">  1       21 0.16464257E-01 0.18028443E+03</pdfrwt>
<pdfrwt beam="2">  1       21 0.48054194E-01 0.18028443E+03</pdfrwt>
<totfact> 0.13749365E+05</totfact>
</mgrwt>
</event>
<event>
12    1  0.1441827E-001  0.2095673E+03  0.7546771E-02  0.1145031E+00
         21   -1    0    0  504  503  0.00000000000E+00  0.00000000000E+00  0.52045184439E+03  0.52045184439E+03  0.00000000000E+00 0. -1.
         21   -1    0    0  502  504 -0.00000000000E+00 -0.00000000000E+00 -0.10300651432E+03  0.10300651432E+03  0.00000000000E+00 0. -1.
          6    2    1    2  502    0  0.93020539815E+02 -0.11480083426E+02  0.62418857388E+02  0.21866540812E+03  0.18744021396E+03 0.  0.
         24    2    3    3    0    0 -0.12151544683E+02 -0.45572567933E+01  0.77696109203E+02  0.11206063661E+03  0.79702398106E+02 0.  0.
         -6    2    1    2    0  503 -0.93020539815E+02  0.11480083426E+02  0.35502647268E+03  0.40479295059E+03  0.17037876451E+03 0.  0.
        -24    2    5    5    0    0 -0.46717089696E+02 -0.21065083685E+02  0.33183403463E+03  0.34344821505E+03  0.72226211729E+02 0.  0.
          4    1    4    4  501    0 -0.30118624899E+02  0.29543809721E+02  0.39430512346E+02  0.57747151986E+02  0.00000000000E+00 0. -1.
         -3    1    4    4    0  501  0.17967080216E+02 -0.34101066514E+02  0.38265596858E+02  0.54313484622E+02  0.00000000000E+00 0.  1.
          5    1    3    3  502    0  0.10517208450E+03 -0.69228266323E+01 -0.15277251815E+02  0.10660477151E+03  0.47000000000E+01 0. -1.
         11    1    6    6    0    0 -0.53075875762E+02  0.61769475554E+01  0.14501364532E+03  0.15454501156E+03  0.00000000000E+00 0. -1.
        -12    1    6    6    0    0  0.63587860660E+01 -0.27242031241E+02  0.18682038931E+03  0.18890320349E+03  0.00000000000E+00 0.  1.
         -5    1    5    5    0  503 -0.46303450119E+02  0.32545167111E+02  0.23192438048E+02  0.61344735534E+02  0.47000000000E+01 0.  1.
<mgrwt>
<rscale>  2 0.20568306E+03</rscale>
<asrwt>0</asrwt>
<pdfrwt beam="1">  1       21 0.80069513E-01 0.20956729E+03</pdfrwt>
<pdfrwt beam="2">  1       21 0.15847156E-01 0.20956729E+03</pdfrwt>
<totfact> 0.48300442E+04</totfact>
</mgrwt>
</event>
<event>
12    1  0.1441827E-001  0.2079949E+03  0.7546771E-02  0.1143193E+00
         21   -1    0    0  504  503  0.00000000000E+00  0.00000000000E+00  0.49315443074E+03  0.49315443074E+03  0.00000000000E+00 0.  1.
         21   -1    0    0  502  504 -0.00000000000E+00 -0.00000000000E+00 -0.24788176300E+03  0.24788176300E+03  0.00000000000E+00 0.  1.
          6    2    1    2  502    0 -0.80242108902E+02  0.82998489531E+02 -0.17526049381E+03  0.27187733100E+03  0.17283951260E+03 0.  0.
         24    2    3    3    0    0 -0.11522999067E+03  0.94890892886E+02 -0.13060538499E+03  0.21372451617E+03  0.79612624145E+02 0.  0.
         -6    2    1    2    0  503  0.80242108902E+02 -0.82998489531E+02  0.42053316155E+03  0.46915886275E+03  0.17301547105E+03 0.  0.
        -24    2    5    5    0    0  0.10675834847E+03 -0.10491974638E+03  0.37505127023E+03  0.41193697095E+03  0.81382520125E+02 0.  0.
          2    1    4    4  501    0 -0.80158104531E+02  0.80836054009E+02 -0.49277884055E+02  0.12404877753E+03  0.00000000000E+00 0. -1.
         -1    1    4    4    0  501 -0.35071886138E+02  0.14054838877E+02 -0.81327500933E+02  0.89675738643E+02  0.00000000000E+00 0.  1.
          5    1    3    3  502    0  0.34987881768E+02 -0.11892403356E+02 -0.44655108819E+02  0.58152814823E+02  0.47000000000E+01 0. -1.
         13    1    6    6    0    0  0.43740791443E+02 -0.44980307074E+02  0.66770356738E+02  0.91622952362E+02  0.00000000000E+00 0. -1.
        -14    1    6    6    0    0  0.63017557025E+02 -0.59939439310E+02  0.30828091349E+03  0.32031401859E+03  0.00000000000E+00 0.  1.
         -5    1    5    5    0  503 -0.26516239567E+02  0.21921256853E+02  0.45481891323E+02  0.57221891799E+02  0.47000000000E+01 0.  1.
<mgrwt>
<rscale>  2 0.20795835E+03</rscale>
<asrwt>0</asrwt>
<pdfrwt beam="1">  1       21 0.75869912E-01 0.20799495E+03</pdfrwt>
<pdfrwt beam="2">  1       21 0.38135656E-01 0.20799495E+03</pdfrwt>
<totfact> 0.10167203E+04</totfact>
</mgrwt>
</event>
<event>
12    1  0.1441827E-001  0.2418318E+03  0.7546771E-02  0.1118846E+00
         21   -1    0    0  504  503  0.00000000000E+00  0.00000000000E+00  0.13163554240E+04  0.13163554240E+04  0.00000000000E+00 0.  1.
         21   -1    0    0  502  504 -0.00000000000E+00 -0.00000000000E+00 -0.46903560942E+02  0.46903560942E+02  0.00000000000E+00 0. -1.
          6    2    1    2  502    0 -0.90037029019E+02  0.14287000289E+03  0.46701813523E+03  0.52517635781E+03  0.17083841443E+03 0.  0.
         24    2    3    3    0    0 -0.55068934639E+02  0.82854579086E+02  0.42076204851E+03  0.44159206336E+03  0.89807461376E+02 0.  0.
         -6    2    1    2    0  503  0.90037029019E+02 -0.14287000289E+03  0.80243372784E+03  0.83808262715E+03  0.17310140966E+03 0.  0.
        -24    2    5    5    0    0  0.11351412636E+03 -0.13193023184E+03  0.78341421735E+03  0.80560672117E+03  0.70521700773E+02 0.  0.
          2    1    4    4  501    0 -0.52907980831E+02  0.37060715959E+02  0.11077729642E+03  0.12823556646E+03  0.00000000000E+00 0. -1.
         -1    1    4    4    0  501 -0.21609538076E+01  0.45793863126E+02  0.30998475209E+03  0.31335649690E+03  0.00000000000E+00 0.  1.
          5    1    3    3  502    0 -0.34968094380E+02  0.60015423809E+02  0.46256086717E+02  0.83584294445E+02  0.47000000000E+01 0. -1.
         13    1    6    6    0    0  0.94386583817E+02 -0.62076988824E+02  0.41262110688E+03  0.42780668249E+03  0.00000000000E+00 0. -1.
        -14    1    6    6    0    0  0.19127542539E+02 -0.69853243016E+02  0.37079311048E+03  0.37780003867E+03  0.00000000000E+00 0.  1.
         -5    1    5    5    0  503 -0.23477097336E+02 -0.10939771055E+02  0.19019510489E+02  0.32475905981E+02  0.47000000000E+01 0.  1.
<mgrwt>
<rscale>  2 0.24142709E+03</rscale>
<asrwt>0</asrwt>
<pdfrwt beam="1">  1       21 0.20251619E+00 0.24183176E+03</pdfrwt>
<pdfrwt beam="2">  1       21 0.72159335E-02 0.24183176E+03</pdfrwt>
<totfact> 0.17928282E+04</totfact>
</mgrwt>
</event>
<event>
12    1  0.1441827E-001  0.1735857E+03  0.7546771E-02  0.1174438E+00
         21   -1    0    0  504  503  0.00000000000E+00  0.00000000000E+00  0.13589082278E+03  0.13589082278E+03  0.00000000000E+00 0. -1.
         21   -1    0    0  502  504 -0.00000000000E+00 -0.00000000000E+00 -0.27802626206E+03  0.27802626206E+03  0.00000000000E+00 0. -1.
          6    2    1    2  502    0 -0.10387850442E+02  0.23392096135E+01 -0.16515890318E+03  0.23881120784E+03  0.17216256955E+03 0.  0.
         24    2    3    3    0    0  0.21454308940E+02  0.47265518758E+02 -0.15532894343E+03  0.18267731010E+03  0.80929613374E+02 0.  0.
         -6    2    1    2    0  503  0.10387850442E+02 -0.23392096135E+01  0.23023463902E+02  0.17510587700E+03  0.17325879178E+03 0.  0.
        -24    2    5    5    0    0  0.72359043884E+02 -0.10114617382E+02  0.28607863373E+02  0.11222375474E+03  0.80234808927E+02 0.  0.
          2    1    4    4  501    0 -0.22724947837E+01  0.55186065805E+02 -0.50278952252E+02  0.74690288064E+02  0.00000000000E+00 0. -1.
         -1    1    4    4    0  501  0.23726803723E+02 -0.79205470465E+01 -0.10504999118E+03  0.10798702203E+03  0.00000000000E+00 0.  1.
          5    1    3    3  502    0 -0.31842159382E+02 -0.44926309145E+02 -0.98299597485E+01  0.56133897746E+02  0.47000000000E+01 0. -1.
         13    1    6    6    0    0  0.64581277911E+02 -0.29431206169E+02  0.46434242084E+02  0.84812004994E+02  0.00000000000E+00 0. -1.
        -14    1    6    6    0    0  0.77777659721E+01  0.19316588787E+02 -0.17826378711E+02  0.27411749741E+02  0.00000000000E+00 0.  1.
         -5    1    5    5    0  503 -0.61971193441E+02  0.77754077681E+01 -0.55843994713E+01  0.62882122260E+02  0.47000000000E+01 0.  1.
<mgrwt>
<rscale>  2 0.17331149E+03</rscale>
<asrwt>0</asrwt>
<pdfrwt beam="1">  1       21 0.20906280E-01 0.17358568E+03</pdfrwt>
<pdfrwt beam="2">  1       21 0.42773271E-01 0.17358568E+03</pdfrwt>
<totfact> 0.11247458E+05</totfact>
</mgrwt>
</event>
<event>
12    1  0.1441827E-001  0.3329495E+03  0.7546771E-02  0.1069936E+00
         21   -1    0    0  504  503  0.00000000000E+00  0.00000000000E+00  0.19110797264E+03  0.19110797264E+03  0.00000000000E+00 0. -1.
         21   -1    0    0  502  504 -0.00000000000E+00 -0.00000000000E+00 -0.97673440390E+03  0.97673440390E+03  0.00000000000E+00 0. -1.
          6    2    1    2  502    0 -0.25326585440E+03 -0.12893251813E+03 -0.76534380907E+03  0.83427563371E+03  0.17174836154E+03 0.  0.
         24    2    3    3    0    0 -0.26170736334E+03 -0.13346785785E+03 -0.64299059474E+03  0.71145777086E+03  0.80192528876E+02 0.  0.
         -6    2    1    2    0  503  0.25326585440E+03  0.12893251813E+03 -0.20282622193E+02  0.33356674283E+03  0.17345950514E+03 0.  0.
        -24    2    5    5    0    0  0.24351149445E+03  0.10435044893E+03  0.28212133104E+02  0.27812977902E+03  0.79833485501E+02 0.  0.
          4    1    4    4  501    0 -0.23885341874E+03 -0.10182801786E+03 -0.59773904452E+03  0.65169921452E+03  0.00000000000E+00 0. -1.
         -3    1    4    4    0  501 -0.22853944600E+02 -0.31639839988E+02 -0.45251550222E+02  0.59758556339E+02  0.00000000000E+00 0.  1.
          5    1    3    3  502    0  0.84415089412E+01  0.45353397114E+01 -0.12235321433E+03  0.12281786285E+03  0.47000000000E+01 0. -1.
         11    1    6    6    0    0  0.43013768346E+02 -0.73111497306E+01 -0.11742874540E+02  0.45183318605E+02  0.00000000000E+00 0. -1.
        -12    1    6    6    0    0  0.20049772610E+03  0.11166159866E+03  0.39955007644E+02  0.23294646042E+03  0.00000000000E+00 0.  1.
         -5    1    5    5    0  503  0.97543599510E+01  0.24582069207E+02 -0.48494755297E+02  0.55436963804E+02  0.47000000000E+01 0.  1.
<mgrwt>
<rscale>  2 0.33272724E+03</rscale>
<asrwt>0</asrwt>
<pdfrwt beam="1">  1       21 0.29401227E-01 0.33294953E+03</pdfrwt>
<pdfrwt beam="2">  1       21 0.15026683E+00 0.33294953E+03</pdfrwt>
<totfact> 0.29932996E+03</totfact>
</mgrwt>
</event>
<event>
12    1  0.1441827E-001  0.2585939E+03  0.7546771E-02  0.1108785E+00
         21   -1    0    0  504  503  0.00000000000E+00  0.00000000000E+00  0.86196565433E+02  0.86196565433E+02  0.00000000000E+00 0. -1.
         21   -1    0    0  502  504 -0.00000000000E+00 -0.00000000000E+00 -0.13303573391E+04  0.13303573391E+04  0.00000000000E+00 0. -1.
          6    2    1    2  502    0  0.10615663633E+03 -0.15954275197E+03 -0.10820998785E+04  0.11113744042E+04  0.16580047689E+03 0.  0.
         24    2    3    3    0    0  0.10589150968E+03 -0.46694904092E+02 -0.54007912544E+03  0.55771088382E+03  0.77217499984E+02 0.  0.
         -6    2    1    2    0  503 -0.10615663633E+03  0.15954275197E+03 -0.16206089516E+03  0.30517950031E+03  0.17363085132E+03 0.  0.
        -24    2    5    5    0    0 -0.12145069348E+03  0.15366806985E+03 -0.87466526597E+02  0.22866264011E+03  0.79196357685E+02 0.  0.
          2    1    4    4  501    0  0.18195588341E+02  0.29289980488E+01 -0.17192264779E+02  0.25203817823E+02  0.00000000000E+00 0. -1.
         -1    1    4    4    0  501  0.87695921342E+02 -0.49623902141E+02 -0.52288686066E+03  0.53250706600E+03  0.00000000000E+00 0.  1.
          5    1    3    3  502    0  0.26512665087E+00 -0.11284784788E+03 -0.54202075306E+03  0.55366352039E+03  0.47000000000E+01 0. -1.
         13    1    6    6    0    0 -0.64655671767E+02  0.13744666970E+03 -0.57339062828E+02  0.16235674002E+03  0.00000000000E+00 0. -1.
        -14    1    6    6    0    0 -0.56795021716E+02  0.16221400148E+02 -0.30127463768E+02  0.66305900097E+02  0.00000000000E+00 0.  1.
         -5    1    5    5    0  503  0.15294057148E+02  0.58746821236E+01 -0.74594368560E+02  0.76516860201E+02  0.47000000000E+01 0.  1.
<mgrwt>
<rscale>  2 0.25728619E+03</rscale>
<asrwt>0</asrwt>
<pdfrwt beam="1">  1       21 0.13261010E-01 0.25859388E+03</pdfrwt>
<pdfrwt beam="2">  1       21 0.20467036E+00 0.25859388E+03</pdfrwt>
<totfact> 0.58304571E+03</totfact>
</mgrwt>
</event>
<event>
12    1  0.1441827E-001  0.1835791E+03  0.7546771E-02  0.1164386E+00
         21   -1    0    0  504  503  0.00000000000E+00  0.00000000000E+00  0.10729993845E+03  0.10729993845E+03  0.00000000000E+00 0.  1.
         21   -1    0    0  502  504 -0.00000000000E+00 -0.00000000000E+00 -0.38496828401E+03  0.38496828401E+03  0.00000000000E+00 0.  1.
          6    2    1    2  502    0 -0.25367696883E+02  0.56937849637E+02 -0.24446024722E+03  0.30570972714E+03  0.17266205729E+03 0.  0.
         24    2    3    3    0    0  0.91627123666E+00 -0.13394421706E+02 -0.20537378868E+03  0.22093168391E+03  0.80325374527E+02 0.  0.
         -6    2    1    2    0  503  0.25367696883E+02 -0.56937849637E+02 -0.33208098332E+02  0.18655849533E+03  0.17267268347E+03 0.  0.
        -24    2    5    5    0    0  0.42583325119E+02 -0.87109814750E+02 -0.59982400358E+02  0.14244864854E+03  0.85394787399E+02 0.  0.
          4    1    4    4  501    0 -0.22525284758E+02 -0.16457613566E+02 -0.20667646386E+02  0.34718771649E+02  0.00000000000E+00 0. -1.
         -3    1    4    4    0  501  0.23441555994E+02  0.30631918593E+01 -0.18470614229E+03  0.18621291226E+03  0.00000000000E+00 0.  1.
          5    1    3    3  502    0 -0.26283968120E+02  0.70332271343E+02 -0.39086458545E+02  0.84778043230E+02  0.47000000000E+01 0. -1.
         11    1    6    6    0    0 -0.23551280394E+01 -0.14820824345E+02 -0.55191589338E+02  0.57195410620E+02  0.00000000000E+00 0. -1.
        -12    1    6    6    0    0  0.44938453158E+02 -0.72288990405E+02 -0.47908110196E+01  0.85253237922E+02  0.00000000000E+00 0.  1.
         -5    1    5    5    0  503 -0.17215628236E+02  0.30171965113E+02  0.26774302026E+02  0.44109846784E+02  0.47000000000E+01 0.  1.
<mgrwt>
<rscale>  2 0.18357662E+03</rscale>
<asrwt>0</asrwt>
<pdfrwt beam="1">  1       21 0.16507683E-01 0.18357912E+03</pdfrwt>
<pdfrwt beam="2">  1       21 0.59225888E-01 0.18357912E+03</pdfrwt>
<totfact> 0.88049711E+04</totfact>
</mgrwt>
</event>
<event>
12    1  0.1441827E-001  0.2526311E+03  0.7546771E-02  0.1111810E+00
         21   -1    0    0  504  503  0.00000000000E+00  0.00000000000E+00  0.14091102919E+03  0.14091102919E+03  0.00000000000E+00 0.  1.
         21   -1    0    0  502  504 -0.00000000000E+00 -0.00000000000E+00 -0.45327480514E+03  0.45327480514E+03  0.00000000000E+00 0.  1.
          6    2    1    2  502    0  0.10267853674E+03 -0.15103689359E+03 -0.17628329180E+03  0.30723569980E+03  0.17309809684E+03 0.  0.
         24    2    3    3    0    0  0.11145142940E+03 -0.56845471333E+02 -0.14804986149E+03  0.20840147364E+03  0.76547919663E+02 0.  0.
         -6    2    1    2    0  503 -0.10267853674E+03  0.15103689359E+03 -0.13608048415E+03  0.28695013454E+03  0.17454929509E+03 0.  0.
        -24    2    5    5    0    0 -0.68722017711E+02  0.17281109754E+03 -0.14064980282E+03  0.24608291277E+03  0.78664107287E+02 0.  0.
          4    1    4    4  501    0  0.23789766656E+02 -0.41850073864E+02 -0.90392517494E+02  0.10241185917E+03  0.00000000000E+00 0. -1.
         -3    1    4    4    0  501  0.87661662740E+02 -0.14995397469E+02 -0.57657343992E+02  0.10598961447E+03  0.00000000000E+00 0.  1.
          5    1    3    3  502    0 -0.87728926565E+01 -0.94191422256E+02 -0.28233430312E+02  0.98834226154E+02  0.47000000000E+01 0. -1.
         13    1    6    6    0    0 -0.58225727031E+02  0.16560474935E+03 -0.14950069487E+03  0.23057672490E+03  0.00000000000E+00 0. -1.
        -14    1    6    6    0    0 -0.10496290679E+02  0.72063481866E+01  0.88508920576E+01  0.15506187875E+02  0.00000000000E+00 0.  1.
         -5    1    5    5    0  503 -0.33956519029E+02 -0.21774203950E+02  0.45693186627E+01  0.40867221771E+02  0.47000000000E+01 0.  1.
<mgrwt>
<rscale>  2 0.25238062E+03</rscale>
<asrwt>0</asrwt>
<pdfrwt beam="1">  1       21 0.21678619E-01 0.25263112E+03</pdfrwt>
<pdfrwt beam="2">  1       21 0.69734587E-01 0.25263112E+03</pdfrwt>
<totfact> 0.36022803E+04</totfact>
</mgrwt>
</event>
<event>
12    1  0.1441827E-001  0.2480040E+03  0.7546771E-02  0.1114591E+00
         21   -1    0    0  504  503  0.00000000000E+00  0.00000000000E+00  0.14961402423E+04  0.14961402423E+04  0.00000000000E+00 0. -1.
         21   -1    0    0  502  504 -0.00000000000E+00 -0.00000000000E+00 -0.41132360655E+02  0.41132360655E+02  0.00000000000E+00 0.  1.
          6    2    1    2  502    0  0.16843018122E+03 -0.56398372365E+02  0.70280909720E+03  0.74524420161E+03  0.17291266748E+03 0.  0.
         24    2    3    3    0    0  0.11535714720E+03  0.18437436444E+02  0.29993636433E+03  0.33203036579E+03  0.81456311535E+02 0.  0.
         -6    2    1    2    0  503 -0.16843018122E+03  0.56398372365E+02  0.75219878446E+03  0.79202840136E+03  0.17307938890E+03 0.  0.
        -24    2    5    5    0    0 -0.12041822413E+03 -0.30666811057E+02  0.40361672516E+03  0.42951352407E+03  0.78322439497E+02 0.  0.
          2    1    4    4  501    0  0.56893299258E+02  0.48263868550E+02  0.18812815849E+03  0.20238194713E+03  0.00000000000E+00 0. -1.
         -1    1    4    4    0  501  0.58463847945E+02 -0.29826432106E+02  0.11180820584E+03  0.12964841866E+03  0.00000000000E+00 0.  1.
          5    1    3    3  502    0  0.53073034022E+02 -0.74835808809E+02  0.40287273287E+03  0.41321383582E+03  0.47000000000E+01 0. -1.
         11    1    6    6    0    0 -0.15532010480E+02  0.19073906303E+02  0.12974284692E+03  0.13205401765E+03  0.00000000000E+00 0. -1.
        -12    1    6    6    0    0 -0.10488621365E+03 -0.49740717360E+02  0.27387387824E+03  0.29745950642E+03  0.00000000000E+00 0.  1.
         -5    1    5    5    0  503 -0.48011957096E+02  0.87065183422E+02  0.34858205930E+03  0.36251487729E+03  0.47000000000E+01 0.  1.
<mgrwt>
<rscale>  2 0.24797490E+03</rscale>
<asrwt>0</asrwt>
<pdfrwt beam="1">  1       21 0.23017538E+00 0.24800399E+03</pdfrwt>
<pdfrwt beam="2">  1       21 0.63280566E-02 0.24800399E+03</pdfrwt>
<totfact> 0.15043161E+04</totfact>
</mgrwt>
</event>
<event>
12    1  0.1441827E-001  0.2456247E+03  0.7546771E-02  0.1116106E+00
         21   -1    0    0  504  503  0.00000000000E+00  0.00000000000E+00  0.34948643150E+02  0.34948643150E+02  0.00000000000E+00 0. -1.
         21   -1    0    0  502  504 -0.00000000000E+00 -0.00000000000E+00 -0.20619042601E+04  0.20619042601E+04  0.00000000000E+00 0.  1.
          6    2    1    2  502    0  0.14289288184E+03 -0.98977395298E+02 -0.14365378649E+04  0.14573807778E+04  0.17350156668E+03 0.  0.
         24    2    3    3    0    0  0.16253626552E+03 -0.11323841617E+03 -0.11515181026E+04  0.11712905924E+04  0.81772457511E+02 0.  0.
         -6    2    1    2    0  503 -0.14289288184E+03  0.98977395298E+02 -0.59041775200E+03  0.63947212544E+03  0.17354128291E+03 0.  0.
        -24    2    5    5    0    0 -0.45514569053E+02  0.10875039769E+03 -0.28080897109E+03  0.31472955879E+03  0.79390124925E+02 0.  0.
          2    1    4    4  501    0  0.31120798212E+02 -0.20727577619E+02 -0.86794512099E+02  0.94506210832E+02  0.00000000000E+00 0. -1.
         -1    1    4    4    0  501  0.13141546731E+03 -0.92510838553E+02 -0.10647235905E+04  0.10767843816E+04  0.00000000000E+00 0.  1.
          5    1    3    3  502    0 -0.19643383676E+02  0.14261020874E+02 -0.28501976234E+03  0.28609018537E+03  0.47000000000E+01 0. -1.
         13    1    6    6    0    0 -0.52795665624E+02  0.77794387126E+02 -0.12900058487E+03  0.15962612529E+03  0.00000000000E+00 0. -1.
        -14    1    6    6    0    0  0.72810965707E+01  0.30956010566E+02 -0.15180838621E+03  0.15510343350E+03  0.00000000000E+00 0.  1.
         -5    1    5    5    0  503 -0.97378312791E+02 -0.97730023945E+01 -0.30960878091E+03  0.32474256665E+03  0.47000000000E+01 0.  1.
<mgrwt>
<rscale>  2 0.24561765E+03</rscale>
<asrwt>0</asrwt>
<pdfrwt beam="1">  1       21 0.53767129E-02 0.24562467E+03</pdfrwt>
<pdfrwt beam="2">  1       21 0.31721613E+00 0.24562467E+03</pdfrwt>
<totfact> 0.61094687E+03</totfact>
</mgrwt>
</event>
<event>
12    1  0.1441827E-001  0.2190953E+03  0.7546771E-02  0.1134683E+00
         21   -1    0    0  504  503  0.00000000000E+00  0.00000000000E+00  0.12603860532E+03  0.12603860532E+03  0.00000000000E+00 0.  1.
         21   -1    0    0  502  504 -0.00000000000E+00 -0.00000000000E+00 -0.57169351706E+03  0.57169351706E+03  0.00000000000E+00 0. -1.
          6    2    1    2  502    0  0.21219971633E+02  0.13548434346E+03 -0.20439712879E+02  0.21939049857E+03  0.17002386445E+03 0.  0.
         24    2    3    3    0    0 -0.37059814547E+02  0.13299628587E+03 -0.11713299171E+02  0.16022155229E+03  0.80450621711E+02 0.  0.
         -6    2    1    2    0  503 -0.21219971633E+02 -0.13548434346E+03 -0.42521519886E+03  0.47834162381E+03  0.17086968486E+03 0.  0.
        -24    2    5    5    0    0 -0.10547734514E+02 -0.13014698171E+03 -0.43341063630E+03  0.46312192373E+03  0.97916520726E+02 0.  0.
          2    1    4    4  501    0 -0.13620611722E+02  0.12715357425E+03 -0.28228063709E+02  0.13095944444E+03  0.00000000000E+00 0. -1.
         -1    1    4    4    0  501 -0.23439202825E+02  0.58427116155E+01  0.16514764538E+02  0.29262107850E+02  0.00000000000E+00 0.  1.
          5    1    3    3  502    0  0.58279786180E+02  0.24880575973E+01 -0.87264137073E+01  0.59168946281E+02  0.47000000000E+01 0. -1.
         13    1    6    6    0    0 -0.35662263700E+02 -0.10287049898E+03 -0.20890025250E+03  0.23557048226E+03  0.00000000000E+00 0. -1.
        -14    1    6    6    0    0  0.25114529187E+02 -0.27276482728E+02 -0.22451038380E+03  0.22755144148E+03  0.00000000000E+00 0.  1.
         -5    1    5    5    0  503 -0.10672237119E+02 -0.53373617512E+01  0.81954374389E+01  0.15219700076E+02  0.47000000000E+01 0.  1.
<mgrwt>
<rscale>  2 0.21893035E+03</rscale>
<asrwt>0</asrwt>
<pdfrwt beam="1">  1       21 0.19390554E-01 0.21909528E+03</pdfrwt>
<pdfrwt beam="2">  1       21 0.87952850E-01 0.21909528E+03</pdfrwt>
<totfact> 0.26693597E+04</totfact>
</mgrwt>
</event>
<event>
12    1  0.1441827E-001  0.1796684E+03  0.7546771E-02  0.1168853E+00
         21   -1    0    0  504  503  0.00000000000E+00  0.00000000000E+00  0.15388749109E+03  0.15388749109E+03  0.00000000000E+00 0. -1.
         21   -1    0    0  502  504 -0.00000000000E+00 -0.00000000000E+00 -0.23541265414E+03  0.23541265414E+03  0.00000000000E+00 0. -1.
          6    2    1    2  502    0 -0.11593008538E+02  0.35306083787E+02 -0.10950306272E+03  0.21040830345E+03  0.17578343499E+03 0.  0.
         24    2    3    3    0    0  0.56613958140E+02 -0.10909549161E+02 -0.64632889330E+02  0.11647482969E+03  0.77876935287E+02 0.  0.
         -6    2    1    2    0  503  0.11593008538E+02 -0.35306083787E+02  0.27977899668E+02  0.17889184178E+03  0.17273856195E+03 0.  0.
        -24    2    5    5    0    0 -0.36262948892E+02 -0.71443988641E+02  0.33878783334E+02  0.11845136480E+03  0.80397194530E+02 0.  0.
          4    1    4    4  501    0  0.18690644761E+02  0.32150539551E+02 -0.38157873373E+02  0.53282461424E+02  0.00000000000E+00 0. -1.
         -3    1    4    4    0  501  0.37923313379E+02 -0.43060088712E+02 -0.26475015956E+02  0.63192368269E+02  0.00000000000E+00 0.  1.
          5    1    3    3  502    0 -0.68206966678E+02  0.46215632949E+02 -0.44870173392E+02  0.93933473759E+02  0.47000000000E+01 0. -1.
         13    1    6    6    0    0  0.57859947955E+01 -0.57434804885E+02  0.44486328097E+02  0.72878446303E+02  0.00000000000E+00 0. -1.
        -14    1    6    6    0    0 -0.42048943688E+02 -0.14009183756E+02 -0.10607544763E+02  0.45572918501E+02  0.00000000000E+00 0.  1.
         -5    1    5    5    0  503  0.47855957431E+02  0.36137904854E+02 -0.59008836660E+01  0.60440476974E+02  0.47000000000E+01 0.  1.
<mgrwt>
<rscale>  2 0.17891925E+03</rscale>
<asrwt>0</asrwt>
<pdfrwt beam="1">  1       21 0.23674999E-01 0.17966840E+03</pdfrwt>
<pdfrwt beam="2">  1       21 0.36217331E-01 0.17966840E+03</pdfrwt>
<totfact> 0.12408160E+05</totfact>
</mgrwt>
</event>
<event>
12    1  0.1441827E-001  0.1735162E+03  0.7546771E-02  0.1174535E+00
         21   -1    0    0  504  503  0.00000000000E+00  0.00000000000E+00  0.93035429738E+02  0.93035429738E+02  0.00000000000E+00 0. -1.
         21   -1    0    0  502  504 -0.00000000000E+00 -0.00000000000E+00 -0.34996001294E+03  0.34996001294E+03  0.00000000000E+00 0. -1.
          6    2    1    2  502    0 -0.44882020729E+01  0.63359134961E+01 -0.19216109928E+03  0.25890878667E+03  0.17334238944E+03 0.  0.
         24    2    3    3    0    0 -0.36442867861E+02  0.56247057381E+02 -0.80942067440E+02  0.13279778004E+03  0.81190011817E+02 0.  0.
         -6    2    1    2    0  503  0.44882020729E+01 -0.63359134961E+01 -0.64763483920E+02  0.18408665601E+03  0.17214325521E+03 0.  0.
        -24    2    5    5    0    0  0.29337091726E+02 -0.27397333565E+02  0.20201599381E+02  0.92970213408E+02  0.81388433614E+02 0.  0.
          2    1    4    4  501    0 -0.53981312069E+01  0.46608333153E+02 -0.14793307133E+01  0.46943209937E+02  0.00000000000E+00 0. -1.
         -1    1    4    4    0  501 -0.31044736655E+02  0.96387242276E+01 -0.79462736726E+02  0.85854570098E+02  0.00000000000E+00 0.  1.
          5    1    3    3  502    0  0.31954665789E+02 -0.49911143885E+02 -0.11121903184E+03  0.12611100663E+03  0.47000000000E+01 0. -1.
         11    1    6    6    0    0 -0.23937092110E+02  0.43649089957E+01  0.19105791383E+02  0.30936516830E+02  0.00000000000E+00 0. -1.
        -12    1    6    6    0    0  0.53274183836E+02 -0.31762242561E+02  0.10958079982E+01  0.62033696577E+02  0.00000000000E+00 0.  1.
         -5    1    5    5    0  503 -0.24848889653E+02  0.21061420069E+02 -0.84965083301E+02  0.91116442604E+02  0.47000000000E+01 0.  1.
<mgrwt>
<rscale>  2 0.17321594E+03</rscale>
<asrwt>0</asrwt>
<pdfrwt beam="1">  1       21 0.14313143E-01 0.17351620E+03</pdfrwt>
<pdfrwt beam="2">  1       21 0.53840003E-01 0.17351620E+03</pdfrwt>
<totfact> 0.14028705E+05</totfact>
</mgrwt>
</event>
<event>
12    1  0.1441827E-001  0.1898717E+03  0.7546771E-02  0.1159897E+00
         21   -1    0    0  504  503  0.00000000000E+00  0.00000000000E+00  0.23477230637E+03  0.23477230637E+03  0.00000000000E+00 0.  1.
         21   -1    0    0  502  504 -0.00000000000E+00 -0.00000000000E+00 -0.25473668901E+03  0.25473668901E+03  0.00000000000E+00 0.  1.
          6    2    1    2  502    0 -0.73244441904E+02  0.21890649440E+02 -0.16779170485E+03  0.25338765690E+03  0.17380247308E+03 0.  0.
         24    2    3    3    0    0 -0.10458646575E+03  0.53449825258E+02 -0.11880687960E+03  0.18705586104E+03  0.84140405709E+02 0.  0.
         -6    2    1    2    0  503  0.73244441904E+02 -0.21890649440E+02  0.14782732221E+03  0.23612133847E+03  0.16750050892E+03 0.  0.
        -24    2    5    5    0    0  0.11247505116E+03 -0.29250958562E+02  0.10090203222E+03  0.17433713585E+03  0.81889932963E+02 0.  0.
          4    1    4    4  501    0 -0.41235794379E+02 -0.57076475737E+01 -0.20991386141E+01  0.41681822919E+02  0.00000000000E+00 0. -1.
         -3    1    4    4    0  501 -0.63350671366E+02  0.59157472832E+02 -0.11670774098E+03  0.14537403812E+03  0.00000000000E+00 0.  1.
          5    1    3    3  502    0  0.31342023841E+02 -0.31559175818E+02 -0.48984825254E+02  0.66331795859E+02  0.47000000000E+01 0. -1.
         11    1    6    6    0    0 -0.60735030021E+01  0.19926521230E+01 -0.80806476966E+01  0.10303153323E+02  0.00000000000E+00 0. -1.
        -12    1    6    6    0    0  0.11854855416E+03 -0.31243610685E+02  0.10898267991E+03  0.16403398253E+03  0.00000000000E+00 0.  1.
         -5    1    5    5    0  503 -0.39230609257E+02  0.73603091215E+01  0.46925289991E+02  0.61784202623E+02  0.47000000000E+01 0.  1.
<mgrwt>
<rscale>  2 0.18841725E+03</rscale>
<asrwt>0</asrwt>
<pdfrwt beam="1">  1       21 0.36118816E-01 0.18987166E+03</pdfrwt>
<pdfrwt beam="2">  1       21 0.39190260E-01 0.18987166E+03</pdfrwt>
<totfact> 0.46464293E+04</totfact>
</mgrwt>
</event>
<event>
12    1  0.1441827E-001  0.1809462E+03  0.7546771E-02  0.1167243E+00
         21   -1    0    0  504  503  0.00000000000E+00  0.00000000000E+00  0.27732739850E+02  0.27732739850E+02  0.00000000000E+00 0.  1.
         21   -1    0    0  502  504 -0.00000000000E+00 -0.00000000000E+00 -0.20630609565E+04  0.20630609565E+04  0.00000000000E+00 0.  1.
          6    2    1    2  502    0 -0.21718843853E+02  0.29105913506E+02 -0.17027024919E+04  0.17121363537E+04  0.17577330698E+03 0.  0.
         24    2    3    3    0    0  0.13661363833E+02 -0.37240937926E+02 -0.11537661714E+04  0.11580543763E+04  0.91323818257E+02 0.  0.
         -6    2    1    2    0  503  0.21718843853E+02 -0.29105913506E+02 -0.33262572471E+03  0.37865734258E+03  0.17726434491E+03 0.  0.
        -24    2    5    5    0    0  0.23421085565E+02  0.14526046149E+01 -0.33739048856E+03  0.34732822464E+03  0.79081581588E+02 0.  0.
          2    1    4    4  501    0  0.12579129611E+02 -0.66981455871E+02 -0.69864653269E+03  0.70196276793E+03  0.00000000000E+00 0. -1.
         -1    1    4    4    0  501  0.10822342220E+01  0.29740517945E+02 -0.45511963876E+03  0.45609160836E+03  0.00000000000E+00 0.  1.
          5    1    3    3  502    0 -0.35380207687E+02  0.66346851432E+02 -0.54893632047E+03  0.55408197744E+03  0.47000000000E+01 0. -1.
         13    1    6    6    0    0  0.18159735016E+02  0.26749967922E+02 -0.55308780639E+02  0.64065575588E+02  0.00000000000E+00 0. -1.
        -14    1    6    6    0    0  0.52613505490E+01 -0.25297363307E+02 -0.28208170793E+03  0.28326264905E+03  0.00000000000E+00 0.  1.
         -5    1    5    5    0  503 -0.17022417119E+01 -0.30558518121E+02  0.47647638571E+01  0.31329117945E+02  0.47000000000E+01 0.  1.
<mgrwt>
<rscale>  2 0.18057993E+03</rscale>
<asrwt>0</asrwt>
<pdfrwt beam="1">  1       21 0.42665748E-02 0.18094615E+03</pdfrwt>
<pdfrwt beam="2">  1       21 0.31739404E+00 0.18094615E+03</pdfrwt>
<totfact> 0.96581492E+03</totfact>
</mgrwt>
</event>
<event>
12    1  0.1441827E-001  0.2158403E+03  0.7546771E-02  0.1137151E+00
         21   -1    0    0  504  503  0.00000000000E+00  0.00000000000E+00  0.14682101104E+03  0.14682101104E+03  0.00000000000E+00 0.  1.
         21   -1    0    0  502  504 -0.00000000000E+00 -0.00000000000E+00 -0.31641764906E+03  0.31641764906E+03  0.00000000000E+00 0. -1.
          6    2    1    2  502    0 -0.12036135321E+03  0.45718321606E+02 -0.80957440334E+02  0.23052360923E+03  0.17323396605E+03 0.  0.
         24    2    3    3    0    0 -0.12251346089E+03  0.58165179736E+02 -0.96381455537E+01  0.15794201616E+03  0.80374438634E+02 0.  0.
         -6    2    1    2    0  503  0.12036135321E+03 -0.45718321606E+02 -0.88639197686E+02  0.23271505086E+03  0.17240176117E+03 0.  0.
        -24    2    5    5    0    0  0.10622744455E+03 -0.80781052682E+02 -0.10082762995E+03  0.19271742137E+03  0.95728496748E+02 0.  0.
          2    1    4    4  501    0 -0.10559599768E+03  0.35268201266E+02 -0.38116553066E+02  0.11767426382E+03  0.00000000000E+00 0. -1.
         -1    1    4    4    0  501 -0.16917463210E+02  0.22896978470E+02  0.28478407512E+02  0.40267752345E+02  0.00000000000E+00 0.  1.
          5    1    3    3  502    0  0.21521076852E+01 -0.12446858130E+02 -0.71319294781E+02  0.72581593072E+02  0.47000000000E+01 0. -1.
         13    1    6    6    0    0  0.28152784734E+01  0.16556915911E+02 -0.29139203813E+02  0.33632580279E+02  0.00000000000E+00 0. -1.
        -14    1    6    6    0    0  0.10341216607E+03 -0.97337968594E+02 -0.71688426134E+02  0.15908484109E+03  0.00000000000E+00 0.  1.
         -5    1    5    5    0  503  0.14133908660E+02  0.35062731076E+02  0.12188432261E+02  0.39997629499E+02  0.47000000000E+01 0.  1.
<mgrwt>
<rscale>  2 0.21567325E+03</rscale>
<asrwt>0</asrwt>
<pdfrwt beam="1">  1       21 0.22587848E-01 0.21584028E+03</pdfrwt>
<pdfrwt beam="2">  1       21 0.48679638E-01 0.21584028E+03</pdfrwt>
<totfact> 0.73249979E+04</totfact>
</mgrwt>
</event>
<event>
12    1  0.1441827E-001  0.1748124E+03  0.7546771E-02  0.1173141E+00
         21   -1    0    0  504  503  0.00000000000E+00  0.00000000000E+00  0.62246025594E+02  0.62246025594E+02  0.00000000000E+00 0. -1.
         21   -1    0    0  502  504 -0.00000000000E+00 -0.00000000000E+00 -0.55158279903E+03  0.55158279903E+03  0.00000000000E+00 0. -1.
          6    2    1    2  502    0 -0.17223578398E+02 -0.20486758528E+02 -0.34901035377E+03  0.39034295093E+03  0.17275136285E+03 0.  0.
         24    2    3    3    0    0 -0.38641452132E+02 -0.29289091352E+01 -0.34523828316E+03  0.36200001693E+03  0.10174870891E+03 0.  0.
         -6    2    1    2    0  503  0.17223578398E+02  0.20486758528E+02 -0.14032641967E+03  0.22348587370E+03  0.17186643873E+03 0.  0.
        -24    2    5    5    0    0  0.69085638616E+02  0.38497132115E+02 -0.12035477152E+03  0.16487697014E+03  0.80276332823E+02 0.  0.
          4    1    4    4  501    0 -0.12566161013E+02 -0.27451404851E+02 -0.23453016810E+02  0.38229988601E+02  0.00000000000E+00 0. -1.
         -3    1    4    4    0  501 -0.26075291119E+02  0.24522495716E+02 -0.32178526635E+03  0.32377002833E+03  0.00000000000E+00 0.  1.
          5    1    3    3  502    0  0.21417873735E+02 -0.17557849393E+02 -0.37720706089E+01  0.28342933993E+02  0.47000000000E+01 0. -1.
         11    1    6    6    0    0 -0.14731772503E+02  0.15480279031E+02 -0.45095791327E+02  0.49902851175E+02  0.00000000000E+00 0. -1.
        -12    1    6    6    0    0  0.83817411119E+02  0.23016853084E+02 -0.75258980195E+02  0.11497411897E+03  0.00000000000E+00 0.  1.
         -5    1    5    5    0  503 -0.51862060218E+02 -0.18010373587E+02 -0.19971648146E+02  0.58608903560E+02  0.47000000000E+01 0.  1.
<mgrwt>
<rscale>  2 0.17459343E+03</rscale>
<asrwt>0</asrwt>
<pdfrwt beam="1">  1       21 0.95763114E-02 0.17481245E+03</pdfrwt>
<pdfrwt beam="2">  1       21 0.84858895E-01 0.17481245E+03</pdfrwt>
<totfact> 0.10609204E+05</totfact>
</mgrwt>
</event>
<event>
12    1  0.1441827E-001  0.2080259E+03  0.7546771E-02  0.1143341E+00
         21   -1    0    0  504  503  0.00000000000E+00  0.00000000000E+00  0.24718323034E+02  0.24718323034E+02  0.00000000000E+00 0. -1.
         21   -1    0    0  502  504 -0.00000000000E+00 -0.00000000000E+00 -0.18062212549E+04  0.18062212549E+04  0.00000000000E+00 0. -1.
          6    2    1    2  502    0 -0.11124849595E+03 -0.21720652335E+02 -0.10650880788E+04  0.10852130627E+04  0.17443268386E+03 0.  0.
         24    2    3    3    0    0 -0.55672799126E+02  0.10982697773E+02 -0.27276213726E+03  0.29025353236E+03  0.81411604297E+02 0.  0.
         -6    2    1    2    0  503  0.11124849595E+03  0.21720652335E+02 -0.71641485304E+03  0.74572651523E+03  0.17323330881E+03 0.  0.
        -24    2    5    5    0    0  0.33100998086E+02  0.56793635311E+02 -0.24094732050E+03  0.26258201298E+03  0.81071013321E+02 0.  0.
          4    1    4    4  501    0 -0.15659950555E+02  0.32225274075E+02 -0.42546313650E+02  0.55622757445E+02  0.00000000000E+00 0. -1.
         -3    1    4    4    0  501 -0.40012848570E+02 -0.21242576301E+02 -0.23021582361E+03  0.23463077492E+03  0.00000000000E+00 0.  1.
          5    1    3    3  502    0 -0.55575696828E+02 -0.32703350108E+02 -0.79232594156E+03  0.79495953033E+03  0.47000000000E+01 0. -1.
         11    1    6    6    0    0  0.42936996592E+02  0.33400173827E+01 -0.61467822105E+02  0.75053544531E+02  0.00000000000E+00 0. -1.
        -12    1    6    6    0    0 -0.98359985059E+01  0.53453617928E+02 -0.17947949839E+03  0.18752846845E+03  0.00000000000E+00 0.  1.
         -5    1    5    5    0  503  0.78147497868E+02 -0.35072982976E+02 -0.47546753254E+03  0.48314450225E+03  0.47000000000E+01 0.  1.
<mgrwt>
<rscale>  2 0.20777428E+03</rscale>
<asrwt>0</asrwt>
<pdfrwt beam="1">  1       21 0.38028191E-02 0.20802590E+03</pdfrwt>
<pdfrwt beam="2">  1       21 0.27788018E+00 0.20802590E+03</pdfrwt>
<totfact> 0.19245262E+04</totfact>
</mgrwt>
</event>
<event>
12    1  0.1441827E-001  0.2170081E+03  0.7546771E-02  0.1136587E+00
         21   -1    0    0  504  503  0.00000000000E+00  0.00000000000E+00  0.16627315652E+03  0.16627315652E+03  0.00000000000E+00 0. -1.
         21   -1    0    0  502  504 -0.00000000000E+00 -0.00000000000E+00 -0.28138491531E+03  0.28138491531E+03  0.00000000000E+00 0. -1.
          6    2    1    2  502    0 -0.12602161685E+03 -0.25852166797E+02 -0.42940561218E+02  0.22121573851E+03  0.17476478113E+03 0.  0.
         24    2    3    3    0    0 -0.17991354937E+02  0.86185863300E+01  0.23882435206E+02  0.89510867066E+02  0.83927681540E+02 0.  0.
         -6    2    1    2    0  503  0.12602161685E+03  0.25852166797E+02 -0.72171197569E+02  0.22644233332E+03  0.17180706073E+03 0.  0.
        -24    2    5    5    0    0  0.52098752884E+02  0.94319077075E+01 -0.10508515574E+03  0.14374025736E+03  0.82553804833E+02 0.  0.
          2    1    4    4  501    0 -0.21835879539E+01  0.45798546397E+02  0.11876197161E+02  0.47363688280E+02  0.00000000000E+00 0. -1.
         -1    1    4    4    0  501 -0.15807766983E+02 -0.37179960067E+02  0.12006238046E+02  0.42147178786E+02  0.00000000000E+00 0.  1.
          5    1    3    3  502    0 -0.10803026192E+03 -0.34470753128E+02 -0.66822996425E+02  0.13170487144E+03  0.47000000000E+01 0. -1.
         11    1    6    6    0    0  0.45726969453E+02  0.12547390789E+01 -0.84099480507E+01  0.46510830263E+02  0.00000000000E+00 0. -1.
        -12    1    6    6    0    0  0.63717834314E+01  0.81771686286E+01 -0.96675207690E+02  0.97229427093E+02  0.00000000000E+00 0.  1.
         -5    1    5    5    0  503  0.73922863970E+02  0.16420259090E+02  0.32913958172E+02  0.82702075963E+02  0.47000000000E+01 0.  1.
<mgrwt>
<rscale>  2 0.21641194E+03</rscale>
<asrwt>0</asrwt>
<pdfrwt beam="1">  1       21 0.25580486E-01 0.21700809E+03</pdfrwt>
<pdfrwt beam="2">  1       21 0.43289986E-01 0.21700809E+03</pdfrwt>
<totfact> 0.73590360E+04</totfact>
</mgrwt>
</event>
<event>
12    1  0.1441827E-001  0.1837435E+03  0.7546771E-02  0.1164519E+00
         21   -1    0    0  504  503  0.00000000000E+00  0.00000000000E+00  0.18667678224E+02  0.18667678224E+02  0.00000000000E+00 0. -1.
         21   -1    0    0  502  504 -0.00000000000E+00 -0.00000000000E+00 -0.18104465854E+04  0.18104465854E+04  0.00000000000E+00 0. -1.
          6    2    1    2  502    0  0.57058212830E+02 -0.11023369310E+02 -0.97321828866E+03  0.99018448460E+03  0.17301538035E+03 0.  0.
         24    2    3    3    0    0  0.93639757769E+00 -0.64576056534E+02 -0.61985447949E+03  0.62837566756E+03  0.80408083680E+02 0.  0.
         -6    2    1    2    0  503 -0.57058212830E+02  0.11023369310E+02 -0.81856061853E+03  0.83892977904E+03  0.17431159923E+03 0.  0.
        -24    2    5    5    0    0 -0.33453003438E+01 -0.54877459857E+02 -0.39016611537E+03  0.40215531024E+03  0.80477135507E+02 0.  0.
          4    1    4    4  501    0  0.37449466489E+02 -0.12455084979E+02 -0.23011969706E+03  0.23347947802E+03  0.00000000000E+00 0. -1.
         -3    1    4    4    0  501 -0.36513068911E+02 -0.52120971556E+02 -0.38973478242E+03  0.39489618953E+03  0.00000000000E+00 0.  1.
          5    1    3    3  502    0  0.56121815252E+02  0.53552687224E+02 -0.35336380917E+03  0.36180881704E+03  0.47000000000E+01 0. -1.
         13    1    6    6    0    0 -0.39952293924E+02 -0.14483485216E+02 -0.19038067522E+03  0.19506603659E+03  0.00000000000E+00 0. -1.
        -14    1    6    6    0    0  0.36606993580E+02 -0.40393974641E+02 -0.19978544015E+03  0.20708927365E+03  0.00000000000E+00 0.  1.
         -5    1    5    5    0  503 -0.53712912486E+02  0.65900829167E+02 -0.42839450316E+03  0.43677446879E+03  0.47000000000E+01 0.  1.
<mgrwt>
<rscale>  2 0.18343546E+03</rscale>
<asrwt>0</asrwt>
<pdfrwt beam="1">  1       21 0.28719505E-02 0.18374354E+03</pdfrwt>
<pdfrwt beam="2">  1       21 0.27853024E+00 0.18374354E+03</pdfrwt>
<totfact> 0.31112166E+04</totfact>
</mgrwt>
</event>
<event>
12    1  0.1441827E-001  0.2574940E+03  0.7546771E-02  0.1108683E+00
         21   -1    0    0  504  503  0.00000000000E+00  0.00000000000E+00  0.20156331322E+03  0.20156331322E+03  0.00000000000E+00 0. -1.
         21   -1    0    0  502  504 -0.00000000000E+00 -0.00000000000E+00 -0.72004545508E+03  0.72004545508E+03  0.00000000000E+00 0. -1.
          6    2    1    2  502    0 -0.19085145415E+03  0.10642858911E+02 -0.59897897241E+03  0.65198081355E+03  0.17252716845E+03 0.  0.
         24    2    3    3    0    0 -0.16171249707E+02  0.20750829139E+01 -0.16531805946E+03  0.18435868188E+03  0.79951532284E+02 0.  0.
         -6    2    1    2    0  503  0.19085145415E+03 -0.10642858911E+02  0.80496830544E+02  0.26962795475E+03  0.17228449222E+03 0.  0.
        -24    2    5    5    0    0  0.15231876277E+03 -0.64361536000E+02  0.77020616261E+02  0.20326050310E+03  0.89661831247E+02 0.  0.
          4    1    4    4  501    0 -0.28728216843E+01 -0.24281469256E+02 -0.14826134167E+03  0.15026399532E+03  0.00000000000E+00 0. -1.
         -3    1    4    4    0  501 -0.13298428023E+02  0.26356552170E+02 -0.17056717787E+02  0.34094686563E+02  0.00000000000E+00 0.  1.
          5    1    3    3  502    0 -0.17468020444E+03  0.85677759969E+01 -0.43366091295E+03  0.46762213167E+03  0.47000000000E+01 0. -1.
         13    1    6    6    0    0  0.47115221880E+02 -0.12076645956E+02 -0.18307331623E+02  0.51969682523E+02  0.00000000000E+00 0. -1.
        -14    1    6    6    0    0  0.10520354089E+03 -0.52284890044E+02  0.95327947884E+02  0.15129082057E+03  0.00000000000E+00 0.  1.
         -5    1    5    5    0  503  0.38532691384E+02  0.53718677090E+02  0.34762142831E+01  0.66367451656E+02  0.47000000000E+01 0.  1.
<mgrwt>
<rscale>  2 0.25745338E+03</rscale>
<asrwt>0</asrwt>
<pdfrwt beam="1">  1       21 0.31009741E-01 0.25749402E+03</pdfrwt>
<pdfrwt beam="2">  1       21 0.11077622E+00 0.25749402E+03</pdfrwt>
<totfact> 0.61345055E+03</totfact>
</mgrwt>
</event>
<event>
12    1  0.1441827E-001  0.1744961E+03  0.7546771E-02  0.1173376E+00
         21   -1    0    0  504  503  0.00000000000E+00  0.00000000000E+00  0.19477785652E+03  0.19477785652E+03  0.00000000000E+00 0.  1.
         21   -1    0    0  502  504 -0.00000000000E+00 -0.00000000000E+00 -0.24509734683E+03  0.24509734683E+03  0.00000000000E+00 0.  1.
          6    2    1    2  502    0 -0.10999448868E+02 -0.21922392743E+01 -0.15786000886E+03  0.23490237989E+03  0.17359018374E+03 0.  0.
         24    2    3    3    0    0 -0.54730836439E+02 -0.36250149689E+02 -0.14413210850E+03  0.17760560189E+03  0.80375041608E+02 0.  0.
         -6    2    1    2    0  503  0.10999448868E+02  0.21922392743E+01  0.10754051856E+03  0.20497282346E+03  0.17413529635E+03 0.  0.
        -24    2    5    5    0    0 -0.28018311174E+02  0.47595517062E+02  0.25906027256E+02  0.10363120613E+03  0.83773179660E+02 0.  0.
          2    1    4    4  501    0  0.10907358064E+01 -0.42305245798E+02 -0.90742403396E+02  0.10012545780E+03  0.00000000000E+00 0. -1.
         -1    1    4    4    0  501 -0.55821572246E+02  0.60550961087E+01 -0.53389705103E+02  0.77480144088E+02  0.00000000000E+00 0.  1.
          5    1    3    3  502    0  0.43731387571E+02  0.34057910415E+02 -0.13727900365E+02  0.57296778000E+02  0.47000000000E+01 0. -1.
         11    1    6    6    0    0  0.11826006155E+02  0.28658054720E+02 -0.22372930907E+02  0.38232009616E+02  0.00000000000E+00 0. -1.
        -12    1    6    6    0    0 -0.39844317329E+02  0.18937462342E+02  0.48278958163E+02  0.65399196514E+02  0.00000000000E+00 0.  1.
         -5    1    5    5    0  503  0.39017760042E+02 -0.45403277788E+02  0.81634491301E+02  0.10134161733E+03  0.47000000000E+01 0.  1.
<mgrwt>
<rscale>  2 0.17435996E+03</rscale>
<asrwt>0</asrwt>
<pdfrwt beam="1">  1       21 0.29965824E-01 0.17449612E+03</pdfrwt>
<pdfrwt beam="2">  1       21 0.37707284E-01 0.17449612E+03</pdfrwt>
<totfact> 0.72999500E+04</totfact>
</mgrwt>
</event>
<event>
12    1  0.1441827E-001  0.1904574E+03  0.7546771E-02  0.1158627E+00
         21   -1    0    0  504  503  0.00000000000E+00  0.00000000000E+00  0.16805940267E+03  0.16805940267E+03  0.00000000000E+00 0.  1.
         21   -1    0    0  502  504 -0.00000000000E+00 -0.00000000000E+00 -0.28550683092E+03  0.28550683092E+03  0.00000000000E+00 0.  1.
          6    2    1    2  502    0  0.11636151727E+02  0.68713531819E+02 -0.17333297622E+03  0.25752345800E+03  0.17724858615E+03 0.  0.
         24    2    3    3    0    0  0.58614226173E+02  0.92452300040E+02 -0.13445521481E+03  0.19191828345E+03  0.82288318974E+02 0.  0.
         -6    2    1    2    0  503 -0.11636151727E+02 -0.68713531819E+02  0.55885547971E+02  0.19604277559E+03  0.17450680763E+03 0.  0.
        -24    2    5    5    0    0 -0.93830599686E+01 -0.35596528108E+02 -0.36913063912E+02  0.97374215632E+02  0.82243595221E+02 0.  0.
          2    1    4    4  501    0  0.15114045674E+02  0.40753632311E+02 -0.23402028484E+01  0.43528949822E+02  0.00000000000E+00 0. -1.
         -1    1    4    4    0  501  0.43500180499E+02  0.51698667728E+02 -0.13211501196E+03  0.14838933363E+03  0.00000000000E+00 0.  1.
          5    1    3    3  502    0 -0.46978074446E+02 -0.23738768221E+02 -0.38877761407E+02  0.65605174546E+02  0.47000000000E+01 0. -1.
         11    1    6    6    0    0 -0.31549427126E+02 -0.18038449665E+02  0.14153576248E+02  0.39000971000E+02  0.00000000000E+00 0. -1.
        -12    1    6    6    0    0  0.22166367158E+02 -0.17558078443E+02 -0.51066640161E+02  0.58373244632E+02  0.00000000000E+00 0.  1.
         -5    1    5    5    0  503 -0.22530917585E+01 -0.33117003711E+02  0.92798611884E+02  0.98668559961E+02  0.47000000000E+01 0.  1.
<mgrwt>
<rscale>  2 0.18981691E+03</rscale>
<asrwt>0</asrwt>
<pdfrwt beam="1">  1       21 0.25855293E-01 0.19045737E+03</pdfrwt>
<pdfrwt beam="2">  1       21 0.43924127E-01 0.19045737E+03</pdfrwt>
<totfact> 0.70793881E+04</totfact>
</mgrwt>
</event>
<event>
12    1  0.1441827E-001  0.1872976E+03  0.7546771E-02  0.1160930E+00
         21   -1    0    0  504  503  0.00000000000E+00  0.00000000000E+00  0.36336120741E+03  0.36336120741E+03  0.00000000000E+00 0. -1.
         21   -1    0    0  502  504 -0.00000000000E+00 -0.00000000000E+00 -0.96806475762E+02  0.96806475762E+02  0.00000000000E+00 0.  1.
          6    2    1    2  502    0  0.21374704662E+02  0.68029040156E+02  0.14568633367E+03  0.23728652909E+03  0.17319226531E+03 0.  0.
         24    2    3    3    0    0  0.76324564384E+02  0.71844108105E+02  0.91035731264E+02  0.15955095055E+03  0.78625609427E+02 0.  0.
         -6    2    1    2    0  503 -0.21374704662E+02 -0.68029040156E+02  0.12086839798E+03  0.22288115409E+03  0.17315314295E+03 0.  0.
        -24    2    5    5    0    0 -0.43196803618E+02 -0.71931853647E+02  0.14779814179E+03  0.18768545751E+03  0.79632812523E+02 0.  0.
          2    1    4    4  501    0  0.87197101981E+02  0.67566106091E+02  0.96582287128E+02  0.14661736416E+03  0.00000000000E+00 0. -1.
         -1    1    4    4    0  501 -0.10872537598E+02  0.42780020145E+01 -0.55465558637E+01  0.12933586394E+02  0.00000000000E+00 0.  1.
          5    1    3    3  502    0 -0.54949859722E+02 -0.38150679494E+01  0.54650602403E+02  0.77735578533E+02  0.47000000000E+01 0. -1.
         11    1    6    6    0    0 -0.24821752790E+02 -0.79491178886E+02  0.74484028043E+02  0.11172661888E+03  0.00000000000E+00 0. -1.
        -12    1    6    6    0    0 -0.18375050828E+02  0.75593252391E+01  0.73314113752E+02  0.75958838631E+02  0.00000000000E+00 0.  1.
         -5    1    5    5    0  503  0.21822098956E+02  0.39028134906E+01 -0.26929743812E+02  0.35195696580E+02  0.47000000000E+01 0.  1.
<mgrwt>
<rscale>  2 0.18728855E+03</rscale>
<asrwt>0</asrwt>
<pdfrwt beam="1">  1       21 0.55901724E-01 0.18729759E+03</pdfrwt>
<pdfrwt beam="2">  1       21 0.14893304E-01 0.18729759E+03</pdfrwt>
<totfact> 0.11999228E+05</totfact>
</mgrwt>
</event>
<event>
12    1  0.1441827E-001  0.1992551E+03  0.7546771E-02  0.1150375E+00
         21   -1    0    0  504  503  0.00000000000E+00  0.00000000000E+00  0.80928052026E+03  0.80928052026E+03  0.00000000000E+00 0. -1.
         21   -1    0    0  502  504 -0.00000000000E+00 -0.00000000000E+00 -0.65856161930E+02  0.65856161930E+02  0.00000000000E+00 0. -1.
          6    2    1    2  502    0  0.42309440563E+02 -0.90852527790E+02  0.15070093530E+03  0.24982665158E+03  0.17221589175E+03 0.  0.
         24    2    3    3    0    0 -0.35460911538E+02 -0.35383242076E+02  0.37652790747E+02  0.10174882640E+03  0.80160095777E+02 0.  0.
         -6    2    1    2    0  503 -0.42309440563E+02  0.90852527790E+02  0.59272342303E+03  0.62531003062E+03  0.17218393540E+03 0.  0.
        -24    2    5    5    0    0  0.22067049406E+02  0.10358288149E+03  0.42636316091E+03  0.44641279425E+03  0.79262033037E+02 0.  0.
          2    1    4    4  501    0 -0.21653133968E+02 -0.46885007159E+02 -0.83923821932E+01  0.52321068278E+02  0.00000000000E+00 0. -1.
         -1    1    4    4    0  501 -0.13807777570E+02  0.11501765083E+02  0.46045172940E+02  0.49427758118E+02  0.00000000000E+00 0.  1.
          5    1    3    3  502    0  0.77770352101E+02 -0.55469285714E+02  0.11304814455E+03  0.14807782518E+03  0.47000000000E+01 0. -1.
         13    1    6    6    0    0 -0.63936529838E+01  0.62627907150E+02  0.34711414117E+03  0.35277664400E+03  0.00000000000E+00 0. -1.
        -14    1    6    6    0    0  0.28460702390E+02  0.40954974337E+02  0.79249019741E+02  0.93636150249E+02  0.00000000000E+00 0.  1.
         -5    1    5    5    0  503 -0.64376489969E+02 -0.12730353697E+02  0.16636026213E+03  0.17889723637E+03  0.47000000000E+01 0.  1.
<mgrwt>
<rscale>  2 0.19924817E+03</rscale>
<asrwt>0</asrwt>
<pdfrwt beam="1">  1       21 0.12450469E+00 0.19925507E+03</pdfrwt>
<pdfrwt beam="2">  1       21 0.10131718E-01 0.19925507E+03</pdfrwt>
<totfact> 0.38057579E+04</totfact>
</mgrwt>
</event>
<event>
12    1  0.1441827E-001  0.2159434E+03  0.7546771E-02  0.1137092E+00
         21   -1    0    0  504  503  0.00000000000E+00  0.00000000000E+00  0.87756014818E+02  0.87756014818E+02  0.00000000000E+00 0.  1.
         21   -1    0    0  502  504 -0.00000000000E+00 -0.00000000000E+00 -0.56620878736E+03  0.56620878736E+03  0.00000000000E+00 0.  1.
          6    2    1    2  502    0  0.12162578860E+03 -0.38968120676E+02 -0.32211425693E+03  0.38736905272E+03  0.17316420417E+03 0.  0.
         24    2    3    3    0    0  0.12637924068E+03  0.22541997160E+02 -0.25042767457E+03  0.29267403705E+03  0.80400358578E+02 0.  0.
         -6    2    1    2    0  503 -0.12162578860E+03  0.38968120676E+02 -0.15633851562E+03  0.26659574946E+03  0.17412700906E+03 0.  0.
        -24    2    5    5    0    0 -0.46709307562E+02 -0.28828858975E+02 -0.24976344167E+02  0.10080365174E+03  0.80775589832E+02 0.  0.
          4    1    4    4  501    0  0.54146787432E+02  0.49542022066E+02 -0.13866843183E+03  0.15689238517E+03  0.00000000000E+00 0. -1.
         -3    1    4    4    0  501  0.72232453245E+02 -0.27000024906E+02 -0.11175924274E+03  0.13578165187E+03  0.00000000000E+00 0.  1.
          5    1    3    3  502    0 -0.47534520764E+01 -0.61510117836E+02 -0.71686582358E+02  0.94695015671E+02  0.47000000000E+01 0. -1.
         13    1    6    6    0    0 -0.10557669271E+02 -0.11103139232E+02 -0.50740125810E+02  0.53002872078E+02  0.00000000000E+00 0. -1.
        -14    1    6    6    0    0 -0.36151638291E+02 -0.17725719742E+02  0.25763781643E+02  0.47800779659E+02  0.00000000000E+00 0.  1.
         -5    1    5    5    0  503 -0.74916481038E+02  0.67796979651E+02 -0.13136217145E+03  0.16579209773E+03  0.47000000000E+01 0.  1.
<mgrwt>
<rscale>  2 0.21574926E+03</rscale>
<asrwt>0</asrwt>
<pdfrwt beam="1">  1       21 0.13500925E-01 0.21594342E+03</pdfrwt>
<pdfrwt beam="2">  1       21 0.87109045E-01 0.21594342E+03</pdfrwt>
<totfact> 0.53178625E+04</totfact>
</mgrwt>
</event>
<event>
12    1  0.1441827E-001  0.2202094E+03  0.7546771E-02  0.1136387E+00
         21   -1    0    0  504  503  0.00000000000E+00  0.00000000000E+00  0.29678373484E+03  0.29678373484E+03  0.00000000000E+00 0.  1.
         21   -1    0    0  502  504 -0.00000000000E+00 -0.00000000000E+00 -0.16012868891E+03  0.16012868891E+03  0.00000000000E+00 0. -1.
          6    2    1    2  502    0 -0.81704490308E+02  0.63660735669E+02  0.11755483028E+03  0.24962234621E+03  0.19432926852E+03 0.  0.
         24    2    3    3    0    0  0.13011394669E+02 -0.13711754119E+02  0.92821793870E+02  0.12475676195E+03  0.81185316665E+02 0.  0.
         -6    2    1    2    0  503  0.81704490308E+02 -0.63660735669E+02  0.19100215656E+02  0.20729007754E+03  0.17853863729E+03 0.  0.
        -24    2    5    5    0    0  0.68865673850E+02 -0.36497920293E+02 -0.56832197468E+02  0.12549475304E+03  0.80277363879E+02 0.  0.
          2    1    4    4  501    0 -0.30206290930E+02 -0.19002239392E+02  0.22948829202E+02  0.42428220272E+02  0.00000000000E+00 0. -1.
         -1    1    4    4    0  501  0.43217685599E+02  0.52904852732E+01  0.69872964668E+02  0.82328541676E+02  0.00000000000E+00 0.  1.
          5    1    3    3  502    0 -0.94715884976E+02  0.77372489788E+02  0.24733036407E+02  0.12486558426E+03  0.47000000000E+01 0. -1.
         13    1    6    6    0    0  0.52353686682E+02  0.17321645302E+02 -0.22515030070E+02  0.59564036837E+02  0.00000000000E+00 0. -1.
        -14    1    6    6    0    0  0.16511987168E+02 -0.53819565595E+02 -0.34317167398E+02  0.65930716205E+02  0.00000000000E+00 0.  1.
         -5    1    5    5    0  503  0.12838816457E+02 -0.27162815376E+02  0.75932413124E+02  0.81795324500E+02  0.47000000000E+01 0.  1.
<mgrwt>
<rscale>  2 0.21667492E+03</rscale>
<asrwt>0</asrwt>
<pdfrwt beam="1">  1       21 0.45659036E-01 0.22020939E+03</pdfrwt>
<pdfrwt beam="2">  1       21 0.24635183E-01 0.22020939E+03</pdfrwt>
<totfact> 0.70792969E+04</totfact>
</mgrwt>
</event>
<event>
12    1  0.1441827E-001  0.2739752E+03  0.7546771E-02  0.1100891E+00
         21   -1    0    0  504  503  0.00000000000E+00  0.00000000000E+00  0.30948184955E+03  0.30948184955E+03  0.00000000000E+00 0. -1.
         21   -1    0    0  502  504 -0.00000000000E+00 -0.00000000000E+00 -0.23203427426E+03  0.23203427426E+03  0.00000000000E+00 0.  1.
          6    2    1    2  502    0  0.73670185040E+02 -0.18064100850E+03  0.23597760018E+02  0.27498957405E+03  0.19236408563E+03 0.  0.
         24    2    3    3    0    0  0.12487975083E+03 -0.16064120258E+03  0.13566181769E+02  0.21890807596E+03  0.79599976762E+02 0.  0.
         -6    2    1    2    0  503 -0.73670185040E+02  0.18064100850E+03  0.53849815271E+02  0.26652654977E+03  0.17343047313E+03 0.  0.
        -24    2    5    5    0    0 -0.13444987332E+02  0.99268978122E+01  0.16268062474E+02  0.81580989745E+02  0.78176064410E+02 0.  0.
          4    1    4    4  501    0  0.81383229876E+02 -0.62424136735E+02  0.36868275973E+02  0.10899207643E+03  0.00000000000E+00 0. -1.
         -3    1    4    4    0  501  0.43496520955E+02 -0.98217065844E+02 -0.23302094205E+02  0.10991599953E+03  0.00000000000E+00 0.  1.
          5    1    3    3  502    0 -0.51209565791E+02 -0.19999805925E+02  0.10031578249E+02  0.56081498087E+02  0.47000000000E+01 0. -1.
         11    1    6    6    0    0  0.69950614134E+01  0.26868495158E+02  0.38145617685E+02  0.47179816287E+02  0.00000000000E+00 0. -1.
        -12    1    6    6    0    0 -0.20440048745E+02 -0.16941597346E+02 -0.21877555211E+02  0.34401173459E+02  0.00000000000E+00 0.  1.
         -5    1    5    5    0  503 -0.60225197708E+02  0.17071411069E+03  0.37581752797E+02  0.18494556002E+03  0.47000000000E+01 0.  1.
<mgrwt>
<rscale>  2 0.27067989E+03</rscale>
<asrwt>0</asrwt>
<pdfrwt beam="1">  1       21 0.47612593E-01 0.27397520E+03</pdfrwt>
<pdfrwt beam="2">  1       21 0.35697580E-01 0.27397520E+03</pdfrwt>
<totfact> 0.30711264E+04</totfact>
</mgrwt>
</event>
<event>
12    1  0.1441827E-001  0.1910152E+03  0.7546771E-02  0.1157696E+00
         21   -1    0    0  504  503  0.00000000000E+00  0.00000000000E+00  0.10798845453E+03  0.10798845453E+03  0.00000000000E+00 0. -1.
         21   -1    0    0  502  504 -0.00000000000E+00 -0.00000000000E+00 -0.57521480363E+03  0.57521480363E+03  0.00000000000E+00 0. -1.
          6    2    1    2  502    0 -0.28848554657E+02  0.74418437871E+02 -0.45380702301E+03  0.49236938885E+03  0.17354094025E+03 0.  0.
         24    2    3    3    0    0  0.21481387501E+02  0.55250891262E+02 -0.40908910687E+03  0.42221042688E+03  0.85986255962E+02 0.  0.
         -6    2    1    2    0  503  0.28848554657E+02 -0.74418437871E+02 -0.13419326092E+02  0.19083386930E+03  0.17282113401E+03 0.  0.
        -24    2    5    5    0    0  0.73452692924E+01 -0.47454458648E+02 -0.76933526440E+02  0.11840741624E+03  0.76129298592E+02 0.  0.
          4    1    4    4  501    0 -0.72818131770E+01  0.43617643538E+02 -0.77941667963E+02  0.89612651093E+02  0.00000000000E+00 0. -1.
         -3    1    4    4    0  501  0.28763200678E+02  0.11633247724E+02 -0.33114743890E+03  0.33259777579E+03  0.00000000000E+00 0.  1.
          5    1    3    3  502    0 -0.50329942157E+02  0.19167546609E+02 -0.44717916141E+02  0.70158961969E+02  0.47000000000E+01 0. -1.
         13    1    6    6    0    0 -0.19974583007E+01 -0.22047985358E+02  0.12183781319E+02  0.25269507815E+02  0.00000000000E+00 0. -1.
        -14    1    6    6    0    0  0.93427275931E+01 -0.25406473291E+02 -0.89117307759E+02  0.93137908427E+02  0.00000000000E+00 0.  1.
         -5    1    5    5    0  503  0.21503285364E+02 -0.26963979223E+02  0.63514200348E+02  0.72426453060E+02  0.47000000000E+01 0.  1.
<mgrwt>
<rscale>  2 0.19085154E+03</rscale>
<asrwt>0</asrwt>
<pdfrwt beam="1">  1       21 0.16613609E-01 0.19101519E+03</pdfrwt>
<pdfrwt beam="2">  1       21 0.88494584E-01 0.19101519E+03</pdfrwt>
<totfact> 0.35580668E+04</totfact>
</mgrwt>
</event>
<event>
12    1  0.1441827E-001  0.2052569E+03  0.7546771E-02  0.1145379E+00
         21   -1    0    0  504  503  0.00000000000E+00  0.00000000000E+00  0.17841770311E+03  0.17841770311E+03  0.00000000000E+00 0. -1.
         21   -1    0    0  502  504 -0.00000000000E+00 -0.00000000000E+00 -0.85138848268E+03  0.85138848268E+03  0.00000000000E+00 0.  1.
          6    2    1    2  502    0  0.52795488844E+02 -0.96299824438E+02 -0.77420133602E+03  0.80094826439E+03  0.17340528743E+03 0.  0.
         24    2    3    3    0    0  0.14219849020E+02 -0.73362507920E+02 -0.73242691421E+03  0.73945523394E+03  0.68997077206E+02 0.  0.
         -6    2    1    2    0  503 -0.52795488844E+02  0.96299824438E+02  0.10123055645E+03  0.22885792140E+03  0.17339925836E+03 0.  0.
        -24    2    5    5    0    0 -0.61311862064E+02  0.15348584334E+02  0.45815627881E+01  0.10241129289E+03  0.80450970920E+02 0.  0.
          4    1    4    4  501    0 -0.22960206696E+02 -0.28244687608E+02 -0.42230097586E+03  0.42386678058E+03  0.00000000000E+00 0. -1.
         -3    1    4    4    0  501  0.37180055716E+02 -0.45117820312E+02 -0.31012593835E+03  0.31558845335E+03  0.00000000000E+00 0.  1.
          5    1    3    3  502    0  0.38575639824E+02 -0.22937316518E+02 -0.41774421806E+02  0.61493030452E+02  0.47000000000E+01 0. -1.
         13    1    6    6    0    0 -0.20848755961E+02 -0.28380253456E+02  0.20495222398E+02  0.40745104645E+02  0.00000000000E+00 0. -1.
        -14    1    6    6    0    0 -0.40463106103E+02  0.43728837790E+02 -0.15913659610E+02  0.61666188241E+02  0.00000000000E+00 0.  1.
         -5    1    5    5    0  503  0.85163732204E+01  0.80951240104E+02  0.96648993661E+02  0.12644662852E+03  0.47000000000E+01 0.  1.
<mgrwt>
<rscale>  2 0.20525567E+03</rscale>
<asrwt>0</asrwt>
<pdfrwt beam="1">  1       21 0.27448878E-01 0.20525695E+03</pdfrwt>
<pdfrwt beam="2">  1       21 0.13098284E+00 0.20525695E+03</pdfrwt>
<totfact> 0.53152169E+03</totfact>
</mgrwt>
</event>
<event>
12    1  0.1441827E-001  0.1785900E+03  0.7546771E-02  0.1169200E+00
         21   -1    0    0  504  503  0.00000000000E+00  0.00000000000E+00  0.22472131018E+02  0.22472131018E+02  0.00000000000E+00 0.  1.
         21   -1    0    0  502  504 -0.00000000000E+00 -0.00000000000E+00 -0.15597924962E+04  0.15597924962E+04  0.00000000000E+00 0.  1.
          6    2    1    2  502    0 -0.36221812715E+02  0.25382809231E+02 -0.10065914462E+04  0.10222935845E+04  0.17292057888E+03 0.  0.
         24    2    3    3    0    0 -0.98078214145E+01  0.51046701232E+02 -0.94895734021E+03  0.95373620369E+03  0.79942189169E+02 0.  0.
         -6    2    1    2    0  503  0.36221812715E+02 -0.25382809231E+02 -0.53072891905E+03  0.55997104280E+03  0.17302623077E+03 0.  0.
        -24    2    5    5    0    0  0.23365011555E+01 -0.79760194409E+02 -0.29779443456E+03  0.31833975670E+03  0.79319150202E+02 0.  0.
          4    1    4    4  501    0  0.20360902517E+02  0.24433352916E+02 -0.13157485083E+03  0.13536431013E+03  0.00000000000E+00 0. -1.
         -3    1    4    4    0  501 -0.30168723932E+02  0.26613348316E+02 -0.81738248938E+03  0.81837189355E+03  0.00000000000E+00 0.  1.
          5    1    3    3  502    0 -0.26413991300E+02 -0.25663892001E+02 -0.57634105967E+02  0.68557380782E+02  0.47000000000E+01 0. -1.
         13    1    6    6    0    0  0.21931971142E+02 -0.76524582408E+02 -0.28183353318E+03  0.29286031397E+03  0.00000000000E+00 0. -1.
        -14    1    6    6    0    0 -0.19595469987E+02 -0.32356120018E+01 -0.15960901379E+02  0.25479442731E+02  0.00000000000E+00 0.  1.
         -5    1    5    5    0  503  0.33885311559E+02  0.54377385179E+02 -0.23293448449E+03  0.24163128610E+03  0.47000000000E+01 0.  1.
<mgrwt>
<rscale>  2 0.17856439E+03</rscale>
<asrwt>0</asrwt>
<pdfrwt beam="1">  1       21 0.34572496E-02 0.17858999E+03</pdfrwt>
<pdfrwt beam="2">  1       21 0.23996817E+00 0.17858999E+03</pdfrwt>
<totfact> 0.38534475E+04</totfact>
</mgrwt>
</event>
<event>
12    1  0.1441827E-001  0.2283233E+03  0.7546771E-02  0.1129276E+00
         21   -1    0    0  504  503  0.00000000000E+00  0.00000000000E+00  0.73280766362E+03  0.73280766362E+03  0.00000000000E+00 0.  1.
         21   -1    0    0  502  504 -0.00000000000E+00 -0.00000000000E+00 -0.71145182159E+02  0.71145182159E+02  0.00000000000E+00 0.  1.
          6    2    1    2  502    0  0.38502870141E+02  0.15093789287E+03  0.40017177354E+03  0.45680886862E+03  0.15579530030E+03 0.  0.
         24    2    3    3    0    0  0.49417162070E+02  0.52608040409E+02  0.28387278868E+03  0.30404949727E+03  0.81563930852E+02 0.  0.
         -6    2    1    2    0  503 -0.38502870141E+02 -0.15093789287E+03  0.26149070792E+03  0.34714397716E+03  0.16693361565E+03 0.  0.
        -24    2    5    5    0    0 -0.66958527024E+02 -0.13296579350E+03  0.25358257571E+03  0.31225344378E+03  0.10504638911E+03 0.  0.
          4    1    4    4  501    0 -0.21686450070E+02  0.25714006740E+01  0.51211324430E+02  0.55673278761E+02  0.00000000000E+00 0. -1.
         -3    1    4    4    0  501  0.71103612140E+02  0.50036639735E+02  0.23266146425E+03  0.24837621851E+03  0.00000000000E+00 0.  1.
          5    1    3    3  502    0 -0.10914291929E+02  0.98329852465E+02  0.11629898486E+03  0.15275937134E+03  0.47000000000E+01 0. -1.
         11    1    6    6    0    0 -0.68238426939E+01 -0.85266778875E+02  0.61354901892E+02  0.10526828770E+03  0.00000000000E+00 0. -1.
        -12    1    6    6    0    0 -0.60134684330E+02 -0.47699014624E+02  0.19222767382E+03  0.20698515608E+03  0.00000000000E+00 0.  1.
         -5    1    5    5    0  503  0.28455656884E+02 -0.17972099375E+02  0.79081322088E+01  0.34890533382E+02  0.47000000000E+01 0.  1.
<mgrwt>
<rscale>  2 0.22629332E+03</rscale>
<asrwt>0</asrwt>
<pdfrwt beam="1">  1       21 0.11273964E+00 0.22832335E+03</pdfrwt>
<pdfrwt beam="2">  1       21 0.10945413E-01 0.22832335E+03</pdfrwt>
<totfact> 0.41758902E+04</totfact>
</mgrwt>
</event>
<event>
12    1  0.1441827E-001  0.1843915E+03  0.7546771E-02  0.1164560E+00
         21   -1    0    0  504  503  0.00000000000E+00  0.00000000000E+00  0.18771779215E+03  0.18771779215E+03  0.00000000000E+00 0. -1.
         21   -1    0    0  502  504 -0.00000000000E+00 -0.00000000000E+00 -0.18476971088E+03  0.18476971088E+03  0.00000000000E+00 0. -1.
          6    2    1    2  502    0  0.88640200061E+01  0.59006709808E+02 -0.36084845040E+02  0.18788915604E+03  0.17447021597E+03 0.  0.
         24    2    3    3    0    0  0.33945682172E+02 -0.29963418631E+02 -0.19812686684E+02  0.93912314904E+02  0.79855272479E+02 0.  0.
         -6    2    1    2    0  503 -0.88640200061E+01 -0.59006709808E+02  0.39032926312E+02  0.18459834699E+03  0.17027218716E+03 0.  0.
        -24    2    5    5    0    0 -0.18225237608E+02 -0.18684864842E+02  0.86627807151E+02  0.12134610388E+03  0.80865422121E+02 0.  0.
          4    1    4    4  501    0  0.58573704146E+02 -0.32531291653E+02 -0.15627538943E+02  0.68799591041E+02  0.00000000000E+00 0. -1.
         -3    1    4    4    0  501 -0.24628021974E+02  0.25678730220E+01 -0.41851477412E+01  0.25112723863E+02  0.00000000000E+00 0.  1.
          5    1    3    3  502    0 -0.25081662166E+02  0.88970128439E+02 -0.16272158356E+02  0.93976841131E+02  0.47000000000E+01 0. -1.
         13    1    6    6    0    0 -0.54150591362E+01  0.32121544246E+02  0.33640199159E+02  0.46827123226E+02  0.00000000000E+00 0. -1.
        -14    1    6    6    0    0 -0.12810178471E+02 -0.50806409087E+02  0.52987607992E+02  0.74518980653E+02  0.00000000000E+00 0.  1.
         -5    1    5    5    0  503  0.93612176016E+01 -0.40321844966E+02 -0.47594880838E+02  0.63252243110E+02  0.47000000000E+01 0.  1.
<mgrwt>
<rscale>  2 0.18339162E+03</rscale>
<asrwt>0</asrwt>
<pdfrwt beam="1">  1       21 0.28879660E-01 0.18439148E+03</pdfrwt>
<pdfrwt beam="2">  1       21 0.28426109E-01 0.18439148E+03</pdfrwt>
<totfact> 0.13614970E+05</totfact>
</mgrwt>
</event>
<event>
12    1  0.1441827E-001  0.1939750E+03  0.7546771E-02  0.1155176E+00
         21   -1    0    0  504  503  0.00000000000E+00  0.00000000000E+00  0.28630040043E+03  0.28630040043E+03  0.00000000000E+00 0. -1.
         21   -1    0    0  502  504 -0.00000000000E+00 -0.00000000000E+00 -0.13855689334E+03  0.13855689334E+03  0.00000000000E+00 0. -1.
          6    2    1    2  502    0 -0.10215468638E+02 -0.86533294684E+02  0.23327426015E+02  0.19537263464E+03  0.17330300249E+03 0.  0.
         24    2    3    3    0    0  0.33501144192E+02 -0.22464441087E+02 -0.34750178400E+02  0.98362025047E+02  0.82707528659E+02 0.  0.
         -6    2    1    2    0  503  0.10215468638E+02  0.86533294684E+02  0.12441608108E+03  0.22948465913E+03  0.17202174472E+03 0.  0.
        -24    2    5    5    0    0  0.12957570387E+02  0.98299498352E+02  0.16450115098E+02  0.12074321128E+03  0.66915071374E+02 0.  0.
          2    1    4    4  501    0  0.27258964795E+02  0.16217113169E+02  0.14957749305E+02  0.35068221875E+02  0.00000000000E+00 0. -1.
         -1    1    4    4    0  501  0.62421793973E+01 -0.38681554256E+02 -0.49707927704E+02  0.63293803172E+02  0.00000000000E+00 0.  1.
          5    1    3    3  502    0 -0.43716612830E+02 -0.64068853597E+02  0.58077604414E+02  0.97010609590E+02  0.47000000000E+01 0. -1.
         13    1    6    6    0    0  0.19523513417E+02  0.24387291103E+02 -0.20983304526E+02  0.37632520675E+02  0.00000000000E+00 0. -1.
        -14    1    6    6    0    0 -0.65659430293E+01  0.73912207249E+02  0.37433419624E+02  0.83110690606E+02  0.00000000000E+00 0.  1.
         -5    1    5    5    0  503 -0.27421017493E+01 -0.11766203668E+02  0.10796596598E+03  0.10874144785E+03  0.47000000000E+01 0.  1.
<mgrwt>
<rscale>  2 0.19368839E+03</rscale>
<asrwt>0</asrwt>
<pdfrwt beam="1">  1       21 0.44046215E-01 0.19397499E+03</pdfrwt>
<pdfrwt beam="2">  1       21 0.21316445E-01 0.19397499E+03</pdfrwt>
<totfact> 0.10138107E+05</totfact>
</mgrwt>
</event>
<event>
12    1  0.1441827E-001  0.1892154E+03  0.7546771E-02  0.1159189E+00
         21   -1    0    0  504  503  0.00000000000E+00  0.00000000000E+00  0.36980752063E+03  0.36980752063E+03  0.00000000000E+00 0. -1.
         21   -1    0    0  502  504 -0.00000000000E+00 -0.00000000000E+00 -0.14199239833E+03  0.14199239833E+03  0.00000000000E+00 0. -1.
          6    2    1    2  502    0 -0.53340292465E+02  0.56244463774E+02 -0.30486925179E+02  0.19165568641E+03  0.17260887294E+03 0.  0.
         24    2    3    3    0    0 -0.22791360600E+01 -0.42874576068E+01  0.34755002609E+02  0.88942715750E+02  0.81727105202E+02 0.  0.
         -6    2    1    2    0  503  0.53340292465E+02 -0.56244463774E+02  0.25830204748E+03  0.32014423256E+03  0.17252175341E+03 0.  0.
        -24    2    5    5    0    0  0.94575362120E+02 -0.37018453371E+02  0.23585164849E+03  0.26919248224E+03  0.80769594455E+02 0.  0.
          4    1    4    4  501    0  0.18856040113E+02 -0.92728791355E+01 -0.20633482929E+02  0.29449569674E+02  0.00000000000E+00 0. -1.
         -3    1    4    4    0  501 -0.21135176173E+02  0.49854215288E+01  0.55388485538E+02  0.59493146075E+02  0.00000000000E+00 0.  1.
          5    1    3    3  502    0 -0.51061156405E+02  0.60531921381E+02 -0.65241927788E+02  0.10271297066E+03  0.47000000000E+01 0. -1.
         11    1    6    6    0    0  0.17427652126E+02  0.90293905868E+01  0.12486465900E+03  0.12639792728E+03  0.00000000000E+00 0. -1.
        -12    1    6    6    0    0  0.77147709993E+02 -0.46047843958E+02  0.11098698949E+03  0.14279455496E+03  0.00000000000E+00 0.  1.
         -5    1    5    5    0  503 -0.41235069654E+02 -0.19226010403E+02  0.22450398988E+02  0.50951750315E+02  0.47000000000E+01 0.  1.
<mgrwt>
<rscale>  2 0.18919548E+03</rscale>
<asrwt>0</asrwt>
<pdfrwt beam="1">  1       21 0.56893464E-01 0.18921535E+03</pdfrwt>
<pdfrwt beam="2">  1       21 0.21844985E-01 0.18921535E+03</pdfrwt>
<totfact> 0.56879688E+04</totfact>
</mgrwt>
</event>
<event>
12    1  0.1441827E-001  0.2322636E+03  0.7546771E-02  0.1125159E+00
         21   -1    0    0  504  503  0.00000000000E+00  0.00000000000E+00  0.15030987052E+03  0.15030987052E+03  0.00000000000E+00 0. -1.
         21   -1    0    0  502  504 -0.00000000000E+00 -0.00000000000E+00 -0.48487617724E+03  0.48487617724E+03  0.00000000000E+00 0.  1.
          6    2    1    2  502    0  0.44860351396E+02 -0.14791780530E+03 -0.32990506022E+03  0.40346466072E+03  0.17336163197E+03 0.  0.
         24    2    3    3    0    0  0.38597336599E+02 -0.12761109187E+03 -0.34391829040E+03  0.37757936404E+03  0.80697215022E+02 0.  0.
         -6    2    1    2    0  503 -0.44860351396E+02  0.14791780530E+03 -0.46612464989E+01  0.23172138704E+03  0.17257156701E+03 0.  0.
        -24    2    5    5    0    0 -0.85680340457E+02  0.14931387421E+03  0.59083645168E+01  0.18927109620E+03  0.78440329621E+02 0.  0.
          4    1    4    4  501    0 -0.15986795789E+02 -0.85168327678E+02 -0.18693865484E+03  0.20604679651E+03  0.00000000000E+00 0. -1.
         -3    1    4    4    0  501  0.54584132388E+02 -0.42442764195E+02 -0.15697963556E+03  0.17153256752E+03  0.00000000000E+00 0.  1.
          5    1    3    3  502    0  0.62630147973E+01 -0.20306713423E+02  0.14013230180E+02  0.25885296685E+02  0.47000000000E+01 0. -1.
         11    1    6    6    0    0 -0.60385711843E+02  0.10866621378E+03 -0.31810089685E+02  0.12832249225E+03  0.00000000000E+00 0. -1.
        -12    1    6    6    0    0 -0.25294628615E+02  0.40647660430E+02  0.37718454202E+02  0.60948603942E+02  0.00000000000E+00 0.  1.
         -5    1    5    5    0  503  0.40819989061E+02 -0.13960689148E+01 -0.10569611016E+02  0.42450290840E+02  0.47000000000E+01 0.  1.
<mgrwt>
<rscale>  2 0.23211619E+03</rscale>
<asrwt>0</asrwt>
<pdfrwt beam="1">  1       21 0.23124595E-01 0.23226361E+03</pdfrwt>
<pdfrwt beam="2">  1       21 0.74596336E-01 0.23226361E+03</pdfrwt>
<totfact> 0.27675270E+04</totfact>
</mgrwt>
</event>
<event>
12    1  0.1441827E-001  0.1868978E+03  0.7546771E-02  0.1165837E+00
         21   -1    0    0  504  503  0.00000000000E+00  0.00000000000E+00  0.11039459441E+03  0.11039459441E+03  0.00000000000E+00 0. -1.
         21   -1    0    0  502  504 -0.00000000000E+00 -0.00000000000E+00 -0.68394570355E+03  0.68394570355E+03  0.00000000000E+00 0. -1.
          6    2    1    2  502    0  0.20378894237E+01 -0.65577445168E+02 -0.59599833920E+03  0.62461572265E+03  0.17500350381E+03 0.  0.
         24    2    3    3    0    0  0.66620593489E+02 -0.63642848787E+02 -0.40513650280E+03  0.42305928162E+03  0.79717339296E+02 0.  0.
         -6    2    1    2    0  503 -0.20378894237E+01  0.65577445168E+02  0.22447230064E+02  0.16972457531E+03  0.15491287557E+03 0.  0.
        -24    2    5    5    0    0  0.17393380700E+02  0.24990025732E+02 -0.42802632579E+02  0.90323394902E+02  0.73479379643E+02 0.  0.
          2    1    4    4  501    0  0.64441240345E+02 -0.32594346382E+02 -0.15504086653E+03  0.17103430991E+03  0.00000000000E+00 0. -1.
         -1    1    4    4    0  501  0.21793531447E+01 -0.31048502405E+02 -0.25009563627E+03  0.25202497171E+03  0.00000000000E+00 0.  1.
          5    1    3    3  502    0 -0.64582704066E+02 -0.19345963811E+01 -0.19086183640E+03  0.20155644103E+03  0.47000000000E+01 0. -1.
         13    1    6    6    0    0  0.35195286667E+02 -0.96423078640E+01 -0.35092353817E+02  0.50627616979E+02  0.00000000000E+00 0. -1.
        -14    1    6    6    0    0 -0.17801905968E+02  0.34632333596E+02 -0.77102787617E+01  0.39695777923E+02  0.00000000000E+00 0.  1.
         -5    1    5    5    0  503 -0.19431270124E+02  0.40587419436E+02  0.65249862643E+02  0.79401180407E+02  0.47000000000E+01 0.  1.
<mgrwt>
<rscale>  2 0.18204607E+03</rscale>
<asrwt>0</asrwt>
<pdfrwt beam="1">  1       21 0.16983784E-01 0.18689778E+03</pdfrwt>
<pdfrwt beam="2">  1       21 0.10522242E+00 0.18689778E+03</pdfrwt>
<totfact> 0.22796021E+04</totfact>
</mgrwt>
</event>
<event>
12    1  0.1441827E-001  0.3546763E+03  0.7546771E-02  0.1060792E+00
         21   -1    0    0  504  503  0.00000000000E+00  0.00000000000E+00  0.76600132453E+03  0.76600132453E+03  0.00000000000E+00 0. -1.
         21   -1    0    0  502  504 -0.00000000000E+00 -0.00000000000E+00 -0.27590854993E+03  0.27590854993E+03  0.00000000000E+00 0. -1.
          6    2    1    2  502    0  0.30714903367E+03  0.19799990362E+02  0.57720452098E+03  0.67746613151E+03  0.17624622494E+03 0.  0.
         24    2    3    3    0    0  0.24778494691E+03  0.38888633022E+02  0.54688095182E+03  0.60796735510E+03  0.87383200429E+02 0.  0.
         -6    2    1    2    0  503 -0.30714903367E+03 -0.19799990362E+02 -0.87111746377E+02  0.36444374294E+03  0.17463738693E+03 0.  0.
        -24    2    5    5    0    0 -0.28794514160E+03 -0.58531081094E+02 -0.95974363012E+02  0.32006443658E+03  0.83017306514E+02 0.  0.
          4    1    4    4  501    0  0.21536800657E+03  0.76804391259E+01  0.49106780039E+03  0.53627413883E+03  0.00000000000E+00 0. -1.
         -3    1    4    4    0  501  0.32416940338E+02  0.31208193896E+02  0.55813151430E+02  0.71693216273E+02  0.00000000000E+00 0.  1.
          5    1    3    3  502    0  0.59364086759E+02 -0.19088642660E+02  0.30323569158E+02  0.69498776405E+02  0.47000000000E+01 0. -1.
         13    1    6    6    0    0 -0.24921688475E+03 -0.21417333370E+02 -0.66344156988E+02  0.25878428271E+03  0.00000000000E+00 0. -1.
        -14    1    6    6    0    0 -0.38728256857E+02 -0.37113747724E+02 -0.29630206024E+02  0.61280153870E+02  0.00000000000E+00 0.  1.
         -5    1    5    5    0  503 -0.19203892063E+02  0.38731090732E+02  0.88626166352E+01  0.44379306363E+02  0.47000000000E+01 0.  1.
<mgrwt>
<rscale>  2 0.35447699E+03</rscale>
<asrwt>0</asrwt>
<pdfrwt beam="1">  1       21 0.11784636E+00 0.35467633E+03</pdfrwt>
<pdfrwt beam="2">  1       21 0.42447469E-01 0.35467633E+03</pdfrwt>
<totfact> 0.26548146E+03</totfact>
</mgrwt>
</event>
<event>
12    1  0.1441827E-001  0.2008869E+03  0.7546771E-02  0.1149085E+00
         21   -1    0    0  504  503  0.00000000000E+00  0.00000000000E+00  0.13300694050E+03  0.13300694050E+03  0.00000000000E+00 0. -1.
         21   -1    0    0  502  504 -0.00000000000E+00 -0.00000000000E+00 -0.50707569199E+03  0.50707569199E+03  0.00000000000E+00 0. -1.
          6    2    1    2  502    0  0.35821163897E+02  0.93317852761E+02 -0.39007117967E+03  0.43855938471E+03  0.17374530579E+03 0.  0.
         24    2    3    3    0    0 -0.27641483471E+02  0.24774001198E+02 -0.11939139073E+03  0.15217606582E+03  0.86749340548E+02 0.  0.
         -6    2    1    2    0  503 -0.35821163897E+02 -0.93317852761E+02  0.16002428180E+02  0.20152324778E+03  0.17425316140E+03 0.  0.
        -24    2    5    5    0    0 -0.42145067605E+01 -0.11353161466E+03 -0.29721690740E+02  0.14219060923E+03  0.80172319782E+02 0.  0.
          2    1    4    4  501    0  0.23223536161E+02 -0.76707864323E+01 -0.84230721336E+01  0.25867387585E+02  0.00000000000E+00 0. -1.
         -1    1    4    4    0  501 -0.50865019631E+02  0.32444787630E+02 -0.11096831860E+03  0.12630867824E+03  0.00000000000E+00 0.  1.
          5    1    3    3  502    0  0.63462647368E+02  0.68543851564E+02 -0.27067978894E+03  0.28638331889E+03  0.47000000000E+01 0. -1.
         11    1    6    6    0    0  0.31555566070E+02 -0.18691433119E+02 -0.15577536292E+02  0.39846995608E+02  0.00000000000E+00 0. -1.
        -12    1    6    6    0    0 -0.35770072830E+02 -0.94840181541E+02 -0.14144154448E+02  0.10234361363E+03  0.00000000000E+00 0.  1.
         -5    1    5    5    0  503 -0.31606657136E+02  0.20213761898E+02  0.45724118920E+02  0.59332638542E+02  0.47000000000E+01 0.  1.
<mgrwt>
<rscale>  2 0.20077671E+03</rscale>
<asrwt>0</asrwt>
<pdfrwt beam="1">  1       21 0.20462606E-01 0.20088689E+03</pdfrwt>
<pdfrwt beam="2">  1       21 0.78011645E-01 0.20088689E+03</pdfrwt>
<totfact> 0.32048511E+04</totfact>
</mgrwt>
</event>
<event>
12    1  0.1441827E-001  0.1753116E+03  0.7546771E-02  0.1172695E+00
         21   -1    0    0  504  503  0.00000000000E+00  0.00000000000E+00  0.50027866239E+02  0.50027866239E+02  0.00000000000E+00 0.  1.
         21   -1    0    0  502  504 -0.00000000000E+00 -0.00000000000E+00 -0.63013518364E+03  0.63013518364E+03  0.00000000000E+00 0.  1.
          6    2    1    2  502    0 -0.99516537193E+01  0.22161141806E+02 -0.34919905685E+03  0.39024449617E+03  0.17251270639E+03 0.  0.
         24    2    3    3    0    0 -0.46423865168E+02 -0.40630929410E+02 -0.18659399250E+03  0.21209971413E+03  0.79767932245E+02 0.  0.
         -6    2    1    2    0  503  0.99516537193E+01 -0.22161141806E+02 -0.23090826055E+03  0.28991855371E+03  0.17362025048E+03 0.  0.
        -24    2    5    5    0    0 -0.34589416902E+02 -0.54033711965E+02 -0.82045289185E+02  0.13123004769E+03  0.79836245828E+02 0.  0.
          4    1    4    4  501    0  0.20363499578E+02 -0.16848301949E+02 -0.28677348854E+02  0.38999073463E+02  0.00000000000E+00 0. -1.
         -3    1    4    4    0  501 -0.66787364746E+02 -0.23782627461E+02 -0.15791664365E+03  0.17310064067E+03  0.00000000000E+00 0.  1.
          5    1    3    3  502    0  0.36472211448E+02  0.62792071217E+02 -0.16260506435E+03  0.17814478204E+03  0.47000000000E+01 0. -1.
         11    1    6    6    0    0 -0.31335293724E+02  0.13972287044E+01  0.94112366116E+00  0.31380544842E+02  0.00000000000E+00 0. -1.
        -12    1    6    6    0    0 -0.32541231778E+01 -0.55430940669E+02 -0.82986412846E+02  0.99849502844E+02  0.00000000000E+00 0.  1.
         -5    1    5    5    0  503  0.44541070621E+02  0.31872570158E+02 -0.14886297136E+03  0.15868850602E+03  0.47000000000E+01 0.  1.
<mgrwt>
<rscale>  2 0.17503672E+03</rscale>
<asrwt>0</asrwt>
<pdfrwt beam="1">  1       21 0.76965946E-02 0.17531156E+03</pdfrwt>
<pdfrwt beam="2">  1       21 0.96943876E-01 0.17531156E+03</pdfrwt>
<totfact> 0.11415491E+05</totfact>
</mgrwt>
</event>
<event>
12    1  0.1441827E-001  0.2697290E+03  0.7546771E-02  0.1101463E+00
         21   -1    0    0  504  503  0.00000000000E+00  0.00000000000E+00  0.13387182814E+04  0.13387182814E+04  0.00000000000E+00 0. -1.
         21   -1    0    0  502  504 -0.00000000000E+00 -0.00000000000E+00 -0.79336890737E+02  0.79336890737E+02  0.00000000000E+00 0.  1.
          6    2    1    2  502    0 -0.15668264277E+03  0.13538783033E+03  0.23128523257E+03  0.35516503957E+03  0.17253994141E+03 0.  0.
         24    2    3    3    0    0 -0.12019403121E+03  0.12450647702E+03  0.94796540722E+02  0.21338677740E+03  0.81234627315E+02 0.  0.
         -6    2    1    2    0  503  0.15668264277E+03 -0.13538783033E+03  0.10280961581E+04  0.10628901325E+04  0.17284214900E+03 0.  0.
        -24    2    5    5    0    0  0.92869645323E+02 -0.27129915058E+02  0.71567048913E+03  0.72610568594E+03  0.75395058369E+02 0.  0.
          2    1    4    4  501    0 -0.62328338870E+02  0.13581818520E+02  0.47910415793E+02  0.79779042123E+02  0.00000000000E+00 0. -1.
         -1    1    4    4    0  501 -0.57865692345E+02  0.11092465850E+03  0.46886124928E+02  0.13360773527E+03  0.00000000000E+00 0.  1.
          5    1    3    3  502    0 -0.36488611554E+02  0.10881353312E+02  0.13648869185E+03  0.14177826217E+03  0.47000000000E+01 0. -1.
         11    1    6    6    0    0  0.29189744992E+02  0.24997210907E+02  0.17191706651E+03  0.17616009629E+03  0.00000000000E+00 0. -1.
        -12    1    6    6    0    0  0.63679900331E+02 -0.52127125965E+02  0.54375342262E+03  0.54994558965E+03  0.00000000000E+00 0.  1.
         -5    1    5    5    0  503  0.63812997445E+02 -0.10825791527E+03  0.31242566894E+03  0.33678444660E+03  0.47000000000E+01 0.  1.
<mgrwt>
<rscale>  2 0.26968058E+03</rscale>
<asrwt>0</asrwt>
<pdfrwt beam="1">  1       21 0.20595664E+00 0.26972898E+03</pdfrwt>
<pdfrwt beam="2">  1       21 0.12205677E-01 0.26972898E+03</pdfrwt>
<totfact> 0.65968514E+03</totfact>
</mgrwt>
</event>
<event>
12    1  0.1441827E-001  0.2227062E+03  0.7546771E-02  0.1132333E+00
         21   -1    0    0  504  503  0.00000000000E+00  0.00000000000E+00  0.82026885370E+02  0.82026885370E+02  0.00000000000E+00 0. -1.
         21   -1    0    0  502  504 -0.00000000000E+00 -0.00000000000E+00 -0.60837188435E+03  0.60837188435E+03  0.00000000000E+00 0. -1.
          6    2    1    2  502    0 -0.13540090568E+03  0.21878677466E+02 -0.21673257806E+03  0.30900931750E+03  0.17234171324E+03 0.  0.
         24    2    3    3    0    0 -0.11681727421E+03  0.46753732788E+02 -0.80651296951E+02  0.16935143264E+03  0.79643511671E+02 0.  0.
         -6    2    1    2    0  503  0.13540090568E+03 -0.21878677466E+02 -0.30961242092E+03  0.38138945222E+03  0.17545934371E+03 0.  0.
        -24    2    5    5    0    0  0.29839608879E+02 -0.37094066012E+02 -0.22997887662E+03  0.24820429236E+03  0.80303891948E+02 0.  0.
          4    1    4    4  501    0 -0.10047839568E+03  0.78637540315E+01 -0.33785918498E+02  0.10629785941E+03  0.00000000000E+00 0. -1.
         -3    1    4    4    0  501 -0.16338878536E+02  0.38889978756E+02 -0.46865378453E+02  0.63053573229E+02  0.00000000000E+00 0.  1.
          5    1    3    3  502    0 -0.18583631463E+02 -0.24875055321E+02 -0.13608128111E+03  0.13965788486E+03  0.47000000000E+01 0. -1.
         11    1    6    6    0    0  0.16298315952E+02  0.10878758379E+02 -0.16573733556E+03  0.16689172204E+03  0.00000000000E+00 0. -1.
        -12    1    6    6    0    0  0.13541292928E+02 -0.47972824391E+02 -0.64241541067E+02  0.81312570325E+02  0.00000000000E+00 0.  1.
         -5    1    5    5    0  503  0.10556129680E+03  0.15215388545E+02 -0.79633544295E+02  0.13318515986E+03  0.47000000000E+01 0.  1.
<mgrwt>
<rscale>  2 0.22209172E+03</rscale>
<asrwt>0</asrwt>
<pdfrwt beam="1">  1       21 0.12619520E-01 0.22270623E+03</pdfrwt>
<pdfrwt beam="2">  1       21 0.93595679E-01 0.22270623E+03</pdfrwt>
<totfact> 0.50678367E+04</totfact>
</mgrwt>
</event>
<event>
12    1  0.1441827E-001  0.1839482E+03  0.7546771E-02  0.1164309E+00
         21   -1    0    0  504  503  0.00000000000E+00  0.00000000000E+00  0.13114976564E+03  0.13114976564E+03  0.00000000000E+00 0.  1.
         21   -1    0    0  502  504 -0.00000000000E+00 -0.00000000000E+00 -0.52547699435E+03  0.52547699435E+03  0.00000000000E+00 0.  1.
          6    2    1    2  502    0 -0.91201536659E+01 -0.57550808765E+02 -0.43241307607E+03  0.46991274818E+03  0.17447535571E+03 0.  0.
         24    2    3    3    0    0 -0.53867619225E+02 -0.37101116075E+02 -0.14683540417E+03  0.18009000529E+03  0.81200744288E+02 0.  0.
         -6    2    1    2    0  503  0.91201536659E+01  0.57550808765E+02  0.38085847359E+02  0.18671401181E+03  0.17325217934E+03 0.  0.
        -24    2    5    5    0    0 -0.55233723586E+02  0.29899224198E+02  0.53055198552E+02  0.11493516310E+03  0.80315065805E+02 0.  0.
          2    1    4    4  501    0 -0.29984443381E+02 -0.60035280833E+02 -0.72931855798E+02  0.99107806856E+02  0.00000000000E+00 0. -1.
         -1    1    4    4    0  501 -0.23883175844E+02  0.22934164758E+02 -0.73903548369E+02  0.80982198433E+02  0.00000000000E+00 0.  1.
          5    1    3    3  502    0  0.44747465559E+02 -0.20449692690E+02 -0.28557767191E+03  0.28982274289E+03  0.47000000000E+01 0. -1.
         11    1    6    6    0    0 -0.20755270424E+02  0.21534179365E+02 -0.18429465626E+02  0.35130433168E+02  0.00000000000E+00 0. -1.
        -12    1    6    6    0    0 -0.34478453162E+02  0.83650448329E+01  0.71484664177E+02  0.79804729935E+02  0.00000000000E+00 0.  1.
         -5    1    5    5    0  503  0.64353877252E+02  0.27651584567E+02 -0.14969351192E+02  0.71778848706E+02  0.47000000000E+01 0.  1.
<mgrwt>
<rscale>  2 0.18365752E+03</rscale>
<asrwt>0</asrwt>
<pdfrwt beam="1">  1       21 0.20176887E-01 0.18394815E+03</pdfrwt>
<pdfrwt beam="2">  1       21 0.80842614E-01 0.18394815E+03</pdfrwt>
<totfact> 0.30642910E+04</totfact>
</mgrwt>
</event>
<event>
12    1  0.1441827E-001  0.2021831E+03  0.7546771E-02  0.1148626E+00
         21   -1    0    0  504  503  0.00000000000E+00  0.00000000000E+00  0.35919143482E+03  0.35919143482E+03  0.00000000000E+00 0. -1.
         21   -1    0    0  502  504 -0.00000000000E+00 -0.00000000000E+00 -0.38072580991E+03  0.38072580991E+03  0.00000000000E+00 0. -1.
          6    2    1    2  502    0  0.19138206776E+01  0.96359902873E+02 -0.32161298665E+03  0.37808137880E+03  0.17384395941E+03 0.  0.
         24    2    3    3    0    0  0.17703469083E+02  0.11631510932E+03 -0.32240772175E+03  0.35219229104E+03  0.79057278916E+02 0.  0.
         -6    2    1    2    0  503 -0.19138206776E+01 -0.96359902873E+02  0.30007861156E+03  0.36183586592E+03  0.17773330346E+03 0.  0.
        -24    2    5    5    0    0  0.42305150300E+02 -0.55819768163E+02  0.79690432248E+02  0.13338048844E+03  0.80834506531E+02 0.  0.
          2    1    4    4  501    0 -0.20597358147E+02  0.96357390088E+02 -0.22721948363E+03  0.24766447369E+03  0.00000000000E+00 0. -1.
         -1    1    4    4    0  501  0.38300827230E+02  0.19957719236E+02 -0.95188238121E+02  0.10452781735E+03  0.00000000000E+00 0.  1.
          5    1    3    3  502    0 -0.15789648406E+02 -0.19955206452E+02  0.79473509878E+00  0.25889087763E+02  0.47000000000E+01 0. -1.
         13    1    6    6    0    0 -0.16478650117E+02 -0.23782907191E+02  0.54775260959E+02  0.61947572973E+02  0.00000000000E+00 0. -1.
        -14    1    6    6    0    0  0.58783800417E+02 -0.32036860972E+02  0.24915171290E+02  0.71432915472E+02  0.00000000000E+00 0.  1.
         -5    1    5    5    0  503 -0.44218970978E+02 -0.40540134709E+02  0.22038817931E+03  0.22845537748E+03  0.47000000000E+01 0.  1.
<mgrwt>
<rscale>  2 0.20132510E+03</rscale>
<asrwt>0</asrwt>
<pdfrwt beam="1">  1       21 0.55260221E-01 0.20218314E+03</pdfrwt>
<pdfrwt beam="2">  1       21 0.58573201E-01 0.20218314E+03</pdfrwt>
<totfact> 0.83686676E+03</totfact>
</mgrwt>
</event>
<event>
12    1  0.1441827E-001  0.1830995E+03  0.7546771E-02  0.1165260E+00
         21   -1    0    0  504  503  0.00000000000E+00  0.00000000000E+00  0.14611442064E+03  0.14611442064E+03  0.00000000000E+00 0.  1.
         21   -1    0    0  502  504 -0.00000000000E+00 -0.00000000000E+00 -0.23883593424E+03  0.23883593424E+03  0.00000000000E+00 0.  1.
          6    2    1    2  502    0 -0.59795940106E+02  0.17308456092E+02 -0.41310194470E+01  0.18314607732E+03  0.17219257594E+03 0.  0.
         24    2    3    3    0    0 -0.89906285454E+02  0.54339856032E+02  0.11562773694E+02  0.13268477906E+03  0.80222146201E+02 0.  0.
         -6    2    1    2    0  503  0.59795940106E+02 -0.17308456092E+02 -0.88590494156E+02  0.20180427756E+03  0.17029842537E+03 0.  0.
        -24    2    5    5    0    0  0.90257755931E+02 -0.41608486397E+02 -0.29397322290E+02  0.13078079348E+03  0.79760170127E+02 0.  0.
          2    1    4    4  501    0 -0.51882930352E+02  0.35984255351E+02 -0.33043988120E+02  0.71264368698E+02  0.00000000000E+00 0. -1.
         -1    1    4    4    0  501 -0.38023355102E+02  0.18355600680E+02  0.44606761814E+02  0.61420410362E+02  0.00000000000E+00 0.  1.
          5    1    3    3  502    0  0.30110345348E+02 -0.37031399940E+02 -0.15693793141E+02  0.50461298256E+02  0.47000000000E+01 0. -1.
         13    1    6    6    0    0  0.19902980658E+02 -0.14386016221E+02 -0.47257635441E+02  0.53257583585E+02  0.00000000000E+00 0. -1.
        -14    1    6    6    0    0  0.70354775273E+02 -0.27222470176E+02  0.17860313151E+02  0.77523209892E+02  0.00000000000E+00 0.  1.
         -5    1    5    5    0  503 -0.30461815826E+02  0.24300030305E+02 -0.59193171866E+02  0.71023484086E+02  0.47000000000E+01 0.  1.
<mgrwt>
<rscale>  2 0.18265281E+03</rscale>
<asrwt>0</asrwt>
<pdfrwt beam="1">  1       21 0.22479142E-01 0.18309948E+03</pdfrwt>
<pdfrwt beam="2">  1       21 0.36743990E-01 0.18309948E+03</pdfrwt>
<totfact> 0.13282066E+05</totfact>
</mgrwt>
</event>
<event>
12    1  0.1441827E-001  0.1928358E+03  0.7546771E-02  0.1157811E+00
         21   -1    0    0  504  503  0.00000000000E+00  0.00000000000E+00  0.46437702104E+02  0.46437702104E+02  0.00000000000E+00 0.  1.
         21   -1    0    0  502  504 -0.00000000000E+00 -0.00000000000E+00 -0.79505531830E+03  0.79505531830E+03  0.00000000000E+00 0.  1.
          6    2    1    2  502    0  0.70073742750E+02 -0.49141919012E+02 -0.30270571055E+03  0.35891000237E+03  0.17280157689E+03 0.  0.
         24    2    3    3    0    0  0.28024013556E+02 -0.78094798571E+02 -0.11199441784E+03  0.16142750662E+03  0.81436769136E+02 0.  0.
         -6    2    1    2    0  503 -0.70073742750E+02  0.49141919012E+02 -0.44591190565E+03  0.48258301803E+03  0.16347380240E+03 0.  0.
        -24    2    5    5    0    0  0.22838448342E+02  0.31505017398E+02 -0.17959181006E+03  0.19993090170E+03  0.78771735872E+02 0.  0.
          2    1    4    4  501    0 -0.13802454012E+02 -0.86140283256E+01  0.67640999026E+01  0.17619939507E+02  0.00000000000E+00 0. -1.
         -1    1    4    4    0  501  0.41826467568E+02 -0.69480770246E+02 -0.11875851774E+03  0.14380756712E+03  0.00000000000E+00 0.  1.
          5    1    3    3  502    0  0.42049729194E+02  0.28952879559E+02 -0.19071129271E+03  0.19748249575E+03  0.47000000000E+01 0. -1.
         11    1    6    6    0    0  0.38583552941E+02  0.19964958326E+01 -0.15120250186E+03  0.15606047905E+03  0.00000000000E+00 0. -1.
        -12    1    6    6    0    0 -0.15745104599E+02  0.29508521565E+02 -0.28389308201E+02  0.43870422655E+02  0.00000000000E+00 0.  1.
         -5    1    5    5    0  503 -0.92912191092E+02  0.17636901615E+02 -0.26632009559E+03  0.28265211633E+03  0.47000000000E+01 0.  1.
<mgrwt>
<rscale>  2 0.19072327E+03</rscale>
<asrwt>0</asrwt>
<pdfrwt beam="1">  1       21 0.71442617E-02 0.19283579E+03</pdfrwt>
<pdfrwt beam="2">  1       21 0.12231621E+00 0.19283579E+03</pdfrwt>
<totfact> 0.73534810E+04</totfact>
</mgrwt>
</event>
<event>
12    1  0.1441827E-001  0.2848362E+03  0.7546771E-02  0.1093444E+00
         21   -1    0    0  504  503  0.00000000000E+00  0.00000000000E+00  0.19034029503E+04  0.19034029503E+04  0.00000000000E+00 0. -1.
         21   -1    0    0  502  504 -0.00000000000E+00 -0.00000000000E+00 -0.74608051943E+02  0.74608051943E+02  0.00000000000E+00 0. -1.
          6    2    1    2  502    0  0.30586492138E+02 -0.22316067393E+03  0.26022818438E+03  0.38379232378E+03  0.16982820720E+03 0.  0.
         24    2    3    3    0    0  0.22002469786E+02 -0.90668881459E+02  0.44365168228E+02  0.13032301153E+03  0.79440949397E+02 0.  0.
         -6    2    1    2    0  503 -0.30586492138E+02  0.22316067393E+03  0.15685667140E+04  0.15942186785E+04  0.17434287673E+03 0.  0.
        -24    2    5    5    0    0  0.20587274192E+02  0.21299555975E+03  0.13766042375E+04  0.13952368544E+04  0.76522604615E+02 0.  0.
          4    1    4    4  501    0  0.14814381360E+02 -0.99433581105E+02  0.55160293884E+02  0.11466979100E+03  0.00000000000E+00 0. -1.
         -3    1    4    4    0  501  0.71880884257E+01  0.87646996457E+01 -0.10795125656E+02  0.15653220532E+02  0.00000000000E+00 0.  1.
          5    1    3    3  502    0  0.85840223526E+01 -0.13249179247E+03  0.21586301615E+03  0.25346931225E+03  0.47000000000E+01 0. -1.
         13    1    6    6    0    0 -0.20420584748E+01  0.11414442541E+03  0.94544129875E+03  0.95230896732E+03  0.00000000000E+00 0. -1.
        -14    1    6    6    0    0  0.22629332667E+02  0.98851134342E+02  0.43116293872E+03  0.44292788711E+03  0.00000000000E+00 0.  1.
         -5    1    5    5    0  503 -0.51173766331E+02  0.10165114177E+02  0.19196247653E+03  0.19898182405E+03  0.47000000000E+01 0.  1.
<mgrwt>
<rscale>  2 0.28414852E+03</rscale>
<asrwt>0</asrwt>
<pdfrwt beam="1">  1       21 0.29283119E+00 0.28483620E+03</pdfrwt>
<pdfrwt beam="2">  1       21 0.11478163E-01 0.28483620E+03</pdfrwt>
<totfact> 0.21716314E+03</totfact>
</mgrwt>
</event>
<event>
12    1  0.1441827E-001  0.1786422E+03  0.7546771E-02  0.1169327E+00
         21   -1    0    0  504  503  0.00000000000E+00  0.00000000000E+00  0.13725238752E+04  0.13725238752E+04  0.00000000000E+00 0.  1.
         21   -1    0    0  502  504 -0.00000000000E+00 -0.00000000000E+00 -0.26092460491E+02  0.26092460491E+02  0.00000000000E+00 0.  1.
          6    2    1    2  502    0 -0.40161326963E+02  0.18485163509E+02  0.43672780323E+03  0.47153829950E+03  0.17222822163E+03 0.  0.
         24    2    3    3    0    0 -0.79984447940E+02 -0.21791898507E+02  0.23336564673E+03  0.26038342888E+03  0.80421428787E+02 0.  0.
         -6    2    1    2    0  503  0.40161326963E+02 -0.18485163509E+02  0.90970361152E+03  0.92707803624E+03  0.17308492426E+03 0.  0.
        -24    2    5    5    0    0  0.27462681225E+01 -0.46550736233E+02  0.82578482434E+03  0.83089063663E+03  0.79272699617E+02 0.  0.
          4    1    4    4  501    0 -0.38315634136E+02  0.29825119268E+02  0.85647637049E+02  0.98453762197E+02  0.00000000000E+00 0. -1.
         -3    1    4    4    0  501 -0.41668813804E+02 -0.51617017775E+02  0.14771800968E+03  0.16192966668E+03  0.00000000000E+00 0.  1.
          5    1    3    3  502    0  0.39823120977E+02  0.40277062016E+02  0.20336215650E+03  0.21115487062E+03  0.47000000000E+01 0. -1.
         11    1    6    6    0    0  0.31205073658E+02 -0.51877664958E+02  0.46090793785E+03  0.46486683676E+03  0.00000000000E+00 0. -1.
        -12    1    6    6    0    0 -0.28458805536E+02  0.53269287252E+01  0.36487688648E+03  0.36602379987E+03  0.00000000000E+00 0.  1.
         -5    1    5    5    0  503  0.37415058841E+02  0.28065572724E+02  0.83918787184E+02  0.96187399605E+02  0.47000000000E+01 0.  1.
<mgrwt>
<rscale>  2 0.17843432E+03</rscale>
<asrwt>0</asrwt>
<pdfrwt beam="1">  1       21 0.21115746E+00 0.17864217E+03</pdfrwt>
<pdfrwt beam="2">  1       21 0.40142258E-02 0.17864217E+03</pdfrwt>
<totfact> 0.44891622E+04</totfact>
</mgrwt>
</event>
<event>
12    1  0.1441827E-001  0.1944429E+03  0.7546771E-02  0.1157676E+00
         21   -1    0    0  504  503  0.00000000000E+00  0.00000000000E+00  0.66724408252E+03  0.66724408252E+03  0.00000000000E+00 0. -1.
         21   -1    0    0  502  504 -0.00000000000E+00 -0.00000000000E+00 -0.68256933795E+02  0.68256933795E+02  0.00000000000E+00 0.  1.
          6    2    1    2  502    0 -0.39423543722E+02 -0.27512718004E+02  0.13251301389E+03  0.23530350571E+03  0.18840614506E+03 0.  0.
         24    2    3    3    0    0 -0.30904345532E+02  0.37317213627E+02  0.81151531506E+01  0.94689087774E+02  0.80947604209E+02 0.  0.
         -6    2    1    2    0  503  0.39423543722E+02  0.27512718004E+02  0.46647413484E+03  0.50019751061E+03  0.17403524270E+03 0.  0.
        -24    2    5    5    0    0  0.10873551975E+02  0.76270620441E+02  0.21393726598E+03  0.24137441425E+03  0.80975381475E+02 0.  0.
          2    1    4    4  501    0  0.13578568846E+02  0.21322431315E+02  0.32760067608E+02  0.41379289975E+02  0.00000000000E+00 0. -1.
         -1    1    4    4    0  501 -0.44482914378E+02  0.15994782312E+02 -0.24644914458E+02  0.53309797799E+02  0.00000000000E+00 0.  1.
          5    1    3    3  502    0 -0.85191981903E+01 -0.64829931631E+02  0.12439786074E+03  0.14061441793E+03  0.47000000000E+01 0. -1.
         13    1    6    6    0    0 -0.14196398487E+02  0.10776772106E+01  0.10869301673E+03  0.10962148970E+03  0.00000000000E+00 0. -1.
        -14    1    6    6    0    0  0.25069950462E+02  0.75192943231E+02  0.10524424925E+03  0.13175292455E+03  0.00000000000E+00 0.  1.
         -5    1    5    5    0  503  0.28549991747E+02 -0.48757902437E+02  0.25253686886E+03  0.25882309636E+03  0.47000000000E+01 0.  1.
<mgrwt>
<rscale>  2 0.19087336E+03</rscale>
<asrwt>0</asrwt>
<pdfrwt beam="1">  1       21 0.10265293E+00 0.19444290E+03</pdfrwt>
<pdfrwt beam="2">  1       21 0.10501067E-01 0.19444290E+03</pdfrwt>
<totfact> 0.57349793E+04</totfact>
</mgrwt>
</event>
<event>
12    1  0.1441827E-001  0.3724371E+03  0.7546771E-02  0.1053798E+00
         21   -1    0    0  504  503  0.00000000000E+00  0.00000000000E+00  0.21702334696E+03  0.21702334696E+03  0.00000000000E+00 0. -1.
         21   -1    0    0  502  504 -0.00000000000E+00 -0.00000000000E+00 -0.14038458081E+04  0.14038458081E+04  0.00000000000E+00 0.  1.
          6    2    1    2  502    0  0.15447306875E+03 -0.29190807403E+03 -0.11916617767E+04  0.12484006276E+04  0.17138869383E+03 0.  0.
         24    2    3    3    0    0  0.13855390437E+03 -0.26976138737E+03 -0.86115042350E+03  0.91673251020E+03  0.82765045980E+02 0.  0.
         -6    2    1    2    0  503 -0.15447306875E+03  0.29190807403E+03  0.48393156145E+01  0.37246852737E+03  0.17215438494E+03 0.  0.
        -24    2    5    5    0    0 -0.40358252556E+02  0.13132889270E+03 -0.52750327570E+02  0.16717234681E+03  0.79296468218E+02 0.  0.
          4    1    4    4  501    0  0.28693210551E+02 -0.36637101849E+02 -0.65225100850E+02  0.80124224455E+02  0.00000000000E+00 0. -1.
         -3    1    4    4    0  501  0.10986069382E+03 -0.23312428552E+03 -0.79592532265E+03  0.83660828575E+03  0.00000000000E+00 0.  1.
          5    1    3    3  502    0  0.15919164378E+02 -0.22146686657E+02 -0.33051135321E+03  0.33166811744E+03  0.47000000000E+01 0. -1.
         11    1    6    6    0    0 -0.46311310093E+02  0.44175442322E+02  0.20774251648E+01  0.64035324956E+02  0.00000000000E+00 0. -1.
        -12    1    6    6    0    0  0.59530575370E+01  0.87153450379E+02 -0.54827752735E+02  0.10313702185E+03  0.00000000000E+00 0.  1.
         -5    1    5    5    0  503 -0.11411481619E+03  0.16057918133E+03  0.57589643185E+02  0.20529618056E+03  0.47000000000E+01 0.  1.
<mgrwt>
<rscale>  2 0.37234873E+03</rscale>
<asrwt>0</asrwt>
<pdfrwt beam="1">  1       21 0.33388207E-01 0.37243709E+03</pdfrwt>
<pdfrwt beam="2">  1       21 0.21597628E+00 0.37243709E+03</pdfrwt>
<totfact> 0.79245176E+02</totfact>
</mgrwt>
</event>
<event>
12    1  0.1441827E-001  0.2208697E+03  0.7546771E-02  0.1133334E+00
         21   -1    0    0  504  503  0.00000000000E+00  0.00000000000E+00  0.76274720623E+02  0.76274720623E+02  0.00000000000E+00 0. -1.
         21   -1    0    0  502  504 -0.00000000000E+00 -0.00000000000E+00 -0.79977361922E+03  0.79977361922E+03  0.00000000000E+00 0.  1.
          6    2    1    2  502    0  0.84922543622E+02  0.10705212323E+03 -0.55837601501E+03  0.60027852903E+03  0.17285410836E+03 0.  0.
         24    2    3    3    0    0  0.91689831513E+01  0.10723302344E+03 -0.43600243707E+03  0.45627846922E+03  0.80677907585E+02 0.  0.
         -6    2    1    2    0  503 -0.84922543622E+02 -0.10705212323E+03 -0.16512288358E+03  0.27576981081E+03  0.17352644284E+03 0.  0.
        -24    2    5    5    0    0 -0.75025021268E+02 -0.29140106466E+02 -0.34626139696E+02  0.12338958417E+03  0.86879918910E+02 0.  0.
          2    1    4    4  501    0  0.18438851059E+02  0.95673416334E+02 -0.23056069921E+03  0.25030307597E+03  0.00000000000E+00 0. -1.
         -1    1    4    4    0  501 -0.92698679081E+01  0.11559607110E+02 -0.20544173786E+03  0.20597539324E+03  0.00000000000E+00 0.  1.
          5    1    3    3  502    0  0.75753560471E+02 -0.18090021203E+00 -0.12237357794E+03  0.14400005981E+03  0.47000000000E+01 0. -1.
         13    1    6    6    0    0  0.10978355941E+02 -0.15161299752E+02  0.14213217898E+02  0.23503294925E+02  0.00000000000E+00 0. -1.
        -14    1    6    6    0    0 -0.86003377209E+02 -0.13978806713E+02 -0.48839357594E+02  0.99886289242E+02  0.00000000000E+00 0.  1.
         -5    1    5    5    0  503 -0.98975223539E+01 -0.77912016766E+02 -0.13049674389E+03  0.15238022664E+03  0.47000000000E+01 0.  1.
<mgrwt>
<rscale>  2 0.22073762E+03</rscale>
<asrwt>0</asrwt>
<pdfrwt beam="1">  1       21 0.11734573E-01 0.22086969E+03</pdfrwt>
<pdfrwt beam="2">  1       21 0.12304209E+00 0.22086969E+03</pdfrwt>
<totfact> 0.29818511E+04</totfact>
</mgrwt>
</event>
<event>
12    1  0.1441827E-001  0.3303059E+03  0.7546771E-02  0.1071128E+00
         21   -1    0    0  504  503  0.00000000000E+00  0.00000000000E+00  0.80102171488E+03  0.80102171488E+03  0.00000000000E+00 0. -1.
         21   -1    0    0  502  504 -0.00000000000E+00 -0.00000000000E+00 -0.13923484567E+03  0.13923484567E+03  0.00000000000E+00 0.  1.
          6    2    1    2  502    0  0.24634247961E+03 -0.13508027738E+03  0.25575669793E+03  0.41684231387E+03  0.17150722286E+03 0.  0.
         24    2    3    3    0    0  0.17301364053E+03 -0.15740932655E+03  0.22748685106E+03  0.33500723997E+03  0.75948453125E+02 0.  0.
         -6    2    1    2    0  503 -0.24634247961E+03  0.13508027738E+03  0.40603017127E+03  0.52341424669E+03  0.17369707842E+03 0.  0.
        -24    2    5    5    0    0 -0.21400395702E+03  0.10792093981E+03  0.40910763318E+03  0.48081177690E+03  0.79789011812E+02 0.  0.
          2    1    4    4  501    0  0.17723203663E+03 -0.14235043721E+03  0.22367079393E+03  0.31890980832E+03  0.00000000000E+00 0. -1.
         -1    1    4    4    0  501 -0.42183960963E+01 -0.15058889344E+02  0.38160571250E+01  0.16097431655E+02  0.00000000000E+00 0.  1.
          5    1    3    3  502    0  0.73328839078E+02  0.22329049172E+02  0.28269846874E+02  0.81835073897E+02  0.47000000000E+01 0. -1.
         11    1    6    6    0    0 -0.59564878021E+02  0.89014168425E+01  0.52999841547E+02  0.80225888088E+02  0.00000000000E+00 0. -1.
        -12    1    6    6    0    0 -0.15443907900E+03  0.99019522972E+02  0.35610779163E+03  0.40058588881E+03  0.00000000000E+00 0.  1.
         -5    1    5    5    0  503 -0.32338522588E+02  0.27159337566E+02 -0.30774619064E+01  0.42602469787E+02  0.47000000000E+01 0.  1.
<mgrwt>
<rscale>  2 0.33001893E+03</rscale>
<asrwt>0</asrwt>
<pdfrwt beam="1">  1       21 0.12323411E+00 0.33030588E+03</pdfrwt>
<pdfrwt beam="2">  1       21 0.21420746E-01 0.33030588E+03</pdfrwt>
<totfact> 0.92798185E+03</totfact>
</mgrwt>
</event>
<event>
12    1  0.1441827E-001  0.1973348E+03  0.7546771E-02  0.1152053E+00
         21   -1    0    0  504  503  0.00000000000E+00  0.00000000000E+00  0.94621159879E+02  0.94621159879E+02  0.00000000000E+00 0.  1.
         21   -1    0    0  502  504 -0.00000000000E+00 -0.00000000000E+00 -0.41119623934E+03  0.41119623934E+03  0.00000000000E+00 0.  1.
          6    2    1    2  502    0  0.74434254883E+02 -0.60193346263E+02 -0.15453211074E+03  0.25064158529E+03  0.17256110162E+03 0.  0.
         24    2    3    3    0    0  0.25795075137E+02 -0.92886118160E+02 -0.38821580774E+02  0.12085096974E+03  0.61681641547E+02 0.  0.
         -6    2    1    2    0  503 -0.74434254883E+02  0.60193346263E+02 -0.16204296872E+03  0.25517581393E+03  0.17231678696E+03 0.  0.
        -24    2    5    5    0    0 -0.68323057487E+02  0.10601098475E+03 -0.13291102165E+03  0.20033638405E+03  0.81012085677E+02 0.  0.
          4    1    4    4  501    0 -0.49780704020E+01 -0.80195378296E+02 -0.33873282670E+02  0.87197930960E+02  0.00000000000E+00 0. -1.
         -3    1    4    4    0  501  0.30773145539E+02 -0.12690739864E+02 -0.49482981043E+01  0.33653038775E+02  0.00000000000E+00 0.  1.
          5    1    3    3  502    0  0.48639179746E+02  0.32692771897E+02 -0.11571052997E+03  0.12979061556E+03  0.47000000000E+01 0. -1.
         13    1    6    6    0    0  0.47764899712E+01 -0.10409097721E+02 -0.47663904560E+01  0.12404944570E+02  0.00000000000E+00 0. -1.
        -14    1    6    6    0    0 -0.73099547458E+02  0.11642008247E+03 -0.12814463119E+03  0.18793143948E+03  0.00000000000E+00 0.  1.
         -5    1    5    5    0  503 -0.61111973958E+01 -0.45817638483E+02 -0.29131947069E+02  0.54839429883E+02  0.47000000000E+01 0.  1.
<mgrwt>
<rscale>  2 0.19728140E+03</rscale>
<asrwt>0</asrwt>
<pdfrwt beam="1">  1       21 0.14557102E-01 0.19733482E+03</pdfrwt>
<pdfrwt beam="2">  1       21 0.63260960E-01 0.19733482E+03</pdfrwt>
<totfact> 0.95579625E+04</totfact>
</mgrwt>
</event>
<event>
12    1  0.1441827E-001  0.2408036E+03  0.7546771E-02  0.1119366E+00
         21   -1    0    0  504  503  0.00000000000E+00  0.00000000000E+00  0.12282467378E+04  0.12282467378E+04  0.00000000000E+00 0. -1.
         21   -1    0    0  502  504 -0.00000000000E+00 -0.00000000000E+00 -0.71275933681E+02  0.71275933681E+02  0.00000000000E+00 0. -1.
          6    2    1    2  502    0  0.14306008180E+03 -0.86349041172E+02  0.20045306694E+03  0.31331741138E+03  0.17338980452E+03 0.  0.
         24    2    3    3    0    0  0.50793858713E+01 -0.52292101068E+02  0.49183373864E+02  0.10570441164E+03  0.77421924412E+02 0.  0.
         -6    2    1    2    0  503 -0.14306008180E+03  0.86349041172E+02  0.95651773718E+03  0.98620526010E+03  0.17248852020E+03 0.  0.
        -24    2    5    5    0    0 -0.93810636893E+02 -0.16644830635E+02  0.45384653444E+03  0.47071163888E+03  0.80717310271E+02 0.  0.
          4    1    4    4  501    0  0.25219122310E+01  0.11352954194E+02  0.39623080996E+02  0.41294529394E+02  0.00000000000E+00 0. -1.
         -3    1    4    4    0  501  0.25574736403E+01 -0.63645055262E+02  0.95602928684E+01  0.64409882242E+02  0.00000000000E+00 0.  1.
          5    1    3    3  502    0  0.13798069593E+03 -0.34056940104E+02  0.15126969307E+03  0.20761299974E+03  0.47000000000E+01 0. -1.
         13    1    6    6    0    0 -0.82587049880E+02  0.20704867606E+02  0.33387769940E+03  0.34456295580E+03  0.00000000000E+00 0. -1.
        -14    1    6    6    0    0 -0.11223587013E+02 -0.37349698241E+02  0.11996883504E+03  0.12614868308E+03  0.00000000000E+00 0.  1.
         -5    1    5    5    0  503 -0.49249444909E+02  0.10299387181E+03  0.50267120274E+03  0.51549362122E+03  0.47000000000E+01 0.  1.
<mgrwt>
<rscale>  2 0.24064139E+03</rscale>
<asrwt>0</asrwt>
<pdfrwt beam="1">  1       21 0.18896102E+00 0.24080359E+03</pdfrwt>
<pdfrwt beam="2">  1       21 0.10965529E-01 0.24080359E+03</pdfrwt>
<totfact> 0.10533073E+04</totfact>
</mgrwt>
</event>
<event>
12    1  0.1441827E-001  0.1777259E+03  0.7546771E-02  0.1170455E+00
         21   -1    0    0  504  503  0.00000000000E+00  0.00000000000E+00  0.63889331083E+03  0.63889331083E+03  0.00000000000E+00 0. -1.
         21   -1    0    0  502  504 -0.00000000000E+00 -0.00000000000E+00 -0.52659952343E+02  0.52659952343E+02  0.00000000000E+00 0. -1.
          6    2    1    2  502    0 -0.22388758894E+02 -0.33826213228E+02  0.20003405719E+03  0.26642224115E+03  0.17123585291E+03 0.  0.
         24    2    3    3    0    0  0.34751335901E+02 -0.61233624015E+02  0.93166610115E+02  0.14208842498E+03  0.80943753419E+02 0.  0.
         -6    2    1    2    0  503  0.22388758894E+02  0.33826213228E+02  0.38619930130E+03  0.42513102202E+03  0.17303472580E+03 0.  0.
        -24    2    5    5    0    0  0.36886937486E+02 -0.15200465174E+02  0.36049146621E+03  0.36771329686E+03  0.60557998444E+02 0.  0.
          2    1    4    4  501    0  0.10745834392E+02 -0.40236221285E+02  0.10099850790E+03  0.10924799796E+03  0.00000000000E+00 0. -1.
         -1    1    4    4    0  501  0.24005501509E+02 -0.20997402730E+02 -0.78318977878E+01  0.32840427023E+02  0.00000000000E+00 0.  1.
          5    1    3    3  502    0 -0.57140094795E+02  0.27407410787E+02  0.10686744707E+03  0.12433381617E+03  0.47000000000E+01 0. -1.
         11    1    6    6    0    0  0.99443124012E+01 -0.36067972896E+02  0.15762769128E+03  0.16200702786E+03  0.00000000000E+00 0. -1.
        -12    1    6    6    0    0  0.26942625085E+02  0.20867507722E+02  0.20286377493E+03  0.20570626900E+03  0.00000000000E+00 0.  1.
         -5    1    5    5    0  503 -0.14498178592E+02  0.49026678402E+02  0.25707835086E+02  0.57417725159E+02  0.47000000000E+01 0.  1.
<mgrwt>
<rscale>  2 0.17728652E+03</rscale>
<asrwt>0</asrwt>
<pdfrwt beam="1">  1       21 0.98291273E-01 0.17772587E+03</pdfrwt>
<pdfrwt beam="2">  1       21 0.81015316E-02 0.17772587E+03</pdfrwt>
<totfact> 0.10100098E+05</totfact>
</mgrwt>
</event>
<event>
12    1  0.1441827E-001  0.2484160E+03  0.7546771E-02  0.1114315E+00
         21   -1    0    0  504  503  0.00000000000E+00  0.00000000000E+00  0.66240869256E+03  0.66240869256E+03  0.00000000000E+00 0. -1.
         21   -1    0    0  502  504 -0.00000000000E+00 -0.00000000000E+00 -0.93763727915E+02  0.93763727915E+02  0.00000000000E+00 0.  1.
          6    2    1    2  502    0 -0.15960046890E+03 -0.77877463546E+02  0.25374955219E+03  0.35510466836E+03  0.17370458040E+03 0.  0.
         24    2    3    3    0    0 -0.46624676483E+02 -0.35210388755E+02  0.12223724066E+02  0.85029077840E+02  0.60554873585E+02 0.  0.
         -6    2    1    2    0  503  0.15960046890E+03  0.77877463546E+02  0.31489541245E+03  0.40106775211E+03  0.17366350222E+03 0.  0.
        -24    2    5    5    0    0  0.12288993793E+03  0.93798956347E+02  0.31610503414E+03  0.36076005804E+03  0.79531413996E+02 0.  0.
          2    1    4    4  501    0  0.10072138035E+02 -0.19840538644E+02 -0.68261302732E+01  0.23274256010E+02  0.00000000000E+00 0. -1.
         -1    1    4    4    0  501 -0.56696814518E+02 -0.15369850111E+02  0.19049854339E+02  0.61754821830E+02  0.00000000000E+00 0.  1.
          5    1    3    3  502    0 -0.11297579241E+03 -0.42667074791E+02  0.24152582813E+03  0.27007559052E+03  0.47000000000E+01 0. -1.
         11    1    6    6    0    0 -0.53709782410E+01  0.28004643377E+02  0.69362023712E+02  0.74994651752E+02  0.00000000000E+00 0. -1.
        -12    1    6    6    0    0  0.12826091617E+03  0.65794312970E+02  0.24674301043E+03  0.28576540629E+03  0.00000000000E+00 0.  1.
         -5    1    5    5    0  503  0.36710530968E+02 -0.15921492801E+02 -0.12096216885E+01  0.40307694074E+02  0.47000000000E+01 0.  1.
<mgrwt>
<rscale>  2 0.24840878E+03</rscale>
<asrwt>0</asrwt>
<pdfrwt beam="1">  1       21 0.10190903E+00 0.24841596E+03</pdfrwt>
<pdfrwt beam="2">  1       21 0.14425189E-01 0.24841596E+03</pdfrwt>
<totfact> 0.32113512E+04</totfact>
</mgrwt>
</event>
<event>
12    1  0.1441827E-001  0.2336913E+03  0.7546771E-02  0.1124071E+00
         21   -1    0    0  504  503  0.00000000000E+00  0.00000000000E+00  0.52433238124E+03  0.52433238124E+03  0.00000000000E+00 0. -1.
         21   -1    0    0  502  504 -0.00000000000E+00 -0.00000000000E+00 -0.11795418757E+03  0.11795418757E+03  0.00000000000E+00 0.  1.
          6    2    1    2  502    0 -0.14966560053E+03 -0.48053647527E+02  0.93320645171E+02  0.25163535807E+03  0.17292387226E+03 0.  0.
         24    2    3    3    0    0 -0.15796861541E+03 -0.74899617817E+02  0.49688233102E+02  0.19952467242E+03  0.82323375727E+02 0.  0.
         -6    2    1    2    0  503  0.14966560053E+03  0.48053647527E+02  0.31305754849E+03  0.39065121074E+03  0.17289995592E+03 0.  0.
        -24    2    5    5    0    0  0.80346266374E+02  0.90163788914E+02  0.24334487064E+03  0.28359803914E+03  0.81400800886E+02 0.  0.
          4    1    4    4  501    0 -0.12662106772E+03 -0.38794127117E+02  0.26589795798E+01  0.13245734884E+03  0.00000000000E+00 0. -1.
         -3    1    4    4    0  501 -0.31347547686E+02 -0.36105490700E+02  0.47029253522E+02  0.67067323574E+02  0.00000000000E+00 0.  1.
          5    1    3    3  502    0  0.83030148786E+01  0.26845970290E+02  0.43632412069E+02  0.52110685659E+02  0.47000000000E+01 0. -1.
         11    1    6    6    0    0  0.60894981919E+02  0.45633273626E+02  0.21329781412E+03  0.22646534391E+03  0.00000000000E+00 0. -1.
        -12    1    6    6    0    0  0.19451284455E+02  0.44530515288E+02  0.30047056530E+02  0.57132695236E+02  0.00000000000E+00 0.  1.
         -5    1    5    5    0  503  0.69319334155E+02 -0.42110141387E+02  0.69712677848E+02  0.10705317159E+03  0.47000000000E+01 0.  1.
<mgrwt>
<rscale>  2 0.23368685E+03</rscale>
<asrwt>0</asrwt>
<pdfrwt beam="1">  1       21 0.80666519E-01 0.23369127E+03</pdfrwt>
<pdfrwt beam="2">  1       21 0.18146798E-01 0.23369127E+03</pdfrwt>
<totfact> 0.36562867E+04</totfact>
</mgrwt>
</event>
<event>
12    1  0.1441827E-001  0.2408599E+03  0.7546771E-02  0.1119399E+00
         21   -1    0    0  504  503  0.00000000000E+00  0.00000000000E+00  0.19247256394E+03  0.19247256394E+03  0.00000000000E+00 0.  1.
         21   -1    0    0  502  504 -0.00000000000E+00 -0.00000000000E+00 -0.49361648895E+03  0.49361648895E+03  0.00000000000E+00 0. -1.
          6    2    1    2  502    0  0.15430989616E+03  0.67394208316E+02 -0.36558178096E+03  0.43779393319E+03  0.17222068980E+03 0.  0.
         24    2    3    3    0    0  0.11108191639E+03  0.41664269724E+02 -0.12814179738E+03  0.19503783383E+03  0.86858119173E+02 0.  0.
         -6    2    1    2    0  503 -0.15430989616E+03 -0.67394208316E+02  0.64437855951E+02  0.24829511970E+03  0.17071820588E+03 0.  0.
        -24    2    5    5    0    0 -0.78489997812E+02 -0.95473612758E+02  0.67284099661E+01  0.14884875177E+03  0.82672782170E+02 0.  0.
          4    1    4    4  501    0 -0.72972973899E+01  0.25966814976E+02 -0.16857916326E+02  0.31807473525E+02  0.00000000000E+00 0. -1.
         -3    1    4    4    0  501  0.11837921378E+03  0.15697454748E+02 -0.11128388106E+03  0.16323036030E+03  0.00000000000E+00 0.  1.
          5    1    3    3  502    0  0.43227979771E+02  0.25729938592E+02 -0.23743998358E+03  0.24275609936E+03  0.47000000000E+01 0. -1.
         13    1    6    6    0    0 -0.70159173192E+02 -0.71671763372E+02 -0.29648506770E+02  0.10458577916E+03  0.00000000000E+00 0. -1.
        -14    1    6    6    0    0 -0.83308246206E+01 -0.23801849386E+02  0.36376916736E+02  0.44262972610E+02  0.00000000000E+00 0.  1.
         -5    1    5    5    0  503 -0.75819898350E+02  0.28079404441E+02  0.57709445985E+02  0.99446367935E+02  0.47000000000E+01 0.  1.
<mgrwt>
<rscale>  2 0.24059144E+03</rscale>
<asrwt>0</asrwt>
<pdfrwt beam="1">  1       21 0.29611163E-01 0.24085990E+03</pdfrwt>
<pdfrwt beam="2">  1       21 0.75941000E-01 0.24085990E+03</pdfrwt>
<totfact> 0.16431608E+04</totfact>
</mgrwt>
</event>
<event>
12    1  0.1441827E-001  0.2048097E+03  0.7546771E-02  0.1145778E+00
         21   -1    0    0  504  503  0.00000000000E+00  0.00000000000E+00  0.16211576353E+04  0.16211576353E+04  0.00000000000E+00 0.  1.
         21   -1    0    0  502  504 -0.00000000000E+00 -0.00000000000E+00 -0.22527678175E+03  0.22527678175E+03  0.00000000000E+00 0. -1.
          6    2    1    2  502    0 -0.10979113977E+03  0.13228349670E+02 -0.17065448875E+03  0.26658950129E+03  0.17238887454E+03 0.  0.
         24    2    3    3    0    0 -0.12240886581E+03 -0.12964228291E+02 -0.72841791264E+02  0.16443925930E+03  0.81131632543E+02 0.  0.
         -6    2    1    2    0  503  0.10979113977E+03 -0.13228349670E+02  0.15665353423E+04  0.15798449157E+04  0.17218564265E+03 0.  0.
        -24    2    5    5    0    0  0.14830220634E+02 -0.25125099838E+02  0.37660122976E+03  0.38605917659E+03  0.79762118128E+02 0.  0.
          4    1    4    4  501    0 -0.11328461195E+03  0.17823243118E+02 -0.63053537345E+02  0.13086947647E+03  0.00000000000E+00 0. -1.
         -3    1    4    4    0  501 -0.91242538628E+01 -0.30787471409E+02 -0.97882539193E+01  0.33569782827E+02  0.00000000000E+00 0.  1.
          5    1    3    3  502    0  0.12617726046E+02  0.26192577961E+02 -0.97812697484E+02  0.10215024200E+03  0.47000000000E+01 0. -1.
         13    1    6    6    0    0  0.19105623575E+02  0.23018969899E+02  0.22394124135E+03  0.22593047029E+03  0.00000000000E+00 0. -1.
        -14    1    6    6    0    0 -0.42754029404E+01 -0.48144069737E+02  0.15265998841E+03  0.16012870630E+03  0.00000000000E+00 0.  1.
         -5    1    5    5    0  503  0.94960919133E+02  0.11896750168E+02  0.11899341125E+04  0.11937857391E+04  0.47000000000E+01 0.  1.
<mgrwt>
<rscale>  2 0.20476692E+03</rscale>
<asrwt>0</asrwt>
<pdfrwt beam="1">  1       21 0.24940886E+00 0.20480969E+03</pdfrwt>
<pdfrwt beam="2">  1       21 0.34657967E-01 0.20480969E+03</pdfrwt>
<totfact> 0.52952632E+02</totfact>
</mgrwt>
</event>
<event>
12    1  0.1441827E-001  0.1759538E+03  0.7546771E-02  0.1171978E+00
         21   -1    0    0  504  503  0.00000000000E+00  0.00000000000E+00  0.28346572026E+03  0.28346572026E+03  0.00000000000E+00 0.  1.
         21   -1    0    0  502  504 -0.00000000000E+00 -0.00000000000E+00 -0.17431039780E+03  0.17431039780E+03  0.00000000000E+00 0.  1.
          6    2    1    2  502    0  0.28966983610E+02 -0.31821778744E+00 -0.85747798704E+02  0.19573558466E+03  0.17355272028E+03 0.  0.
         24    2    3    3    0    0  0.58708770210E+02  0.29306928929E+02 -0.10695593657E+03  0.14846933560E+03  0.79359658912E+02 0.  0.
         -6    2    1    2    0  503 -0.28966983610E+02  0.31821778744E+00  0.19490312116E+03  0.26204053340E+03  0.17273918809E+03 0.  0.
        -24    2    5    5    0    0 -0.77412934602E+02  0.33967432105E+02  0.11804031530E+03  0.16503918950E+03  0.78472091531E+02 0.  0.
          4    1    4    4  501    0 -0.35752837519E+01 -0.44550105801E+01 -0.66781064559E+02  0.67024923400E+02  0.00000000000E+00 0. -1.
         -3    1    4    4    0  501  0.62284053962E+02  0.33761939510E+02 -0.40174872015E+02  0.81444412201E+02  0.00000000000E+00 0.  1.
          5    1    3    3  502    0 -0.29741786600E+02 -0.29625146717E+02  0.21208137869E+02  0.47266249058E+02  0.47000000000E+01 0. -1.
         13    1    6    6    0    0 -0.52428295063E+02  0.17157152602E+02  0.14259051222E+02  0.56977316103E+02  0.00000000000E+00 0. -1.
        -14    1    6    6    0    0 -0.24984639539E+02  0.16810279503E+02  0.10378126407E+03  0.10806187340E+03  0.00000000000E+00 0.  1.
         -5    1    5    5    0  503  0.48445950992E+02 -0.33649214318E+02  0.76862805866E+02  0.97001343895E+02  0.47000000000E+01 0.  1.
<mgrwt>
<rscale>  2 0.17575285E+03</rscale>
<asrwt>0</asrwt>
<pdfrwt beam="1">  1       21 0.43610111E-01 0.17595378E+03</pdfrwt>
<pdfrwt beam="2">  1       21 0.26816984E-01 0.17595378E+03</pdfrwt>
<totfact> 0.67398722E+04</totfact>
</mgrwt>
</event>
<event>
12    1  0.1441827E-001  0.2156087E+03  0.7546771E-02  0.1137531E+00
         21   -1    0    0  504  503  0.00000000000E+00  0.00000000000E+00  0.34944552689E+03  0.34944552689E+03  0.00000000000E+00 0.  1.
         21   -1    0    0  502  504 -0.00000000000E+00 -0.00000000000E+00 -0.21784839977E+03  0.21784839977E+03  0.00000000000E+00 0.  1.
          6    2    1    2  502    0  0.90034586563E+01 -0.12578386160E+03 -0.11245348341E+03  0.24164412272E+03  0.17275258032E+03 0.  0.
         24    2    3    3    0    0 -0.63689475920E+02 -0.60047580053E+02 -0.42192206601E+02  0.12096165313E+03  0.72038031733E+02 0.  0.
         -6    2    1    2    0  503 -0.90034586563E+01  0.12578386160E+03  0.24405061053E+03  0.32564980394E+03  0.17488411078E+03 0.  0.
        -24    2    5    5    0    0 -0.26077464914E+02  0.47417699912E+02  0.36754656724E+02  0.10332913588E+03  0.79984580317E+02 0.  0.
          4    1    4    4  501    0 -0.26953462107E+02  0.72182732692E+01  0.83829540167E+01  0.29135313737E+02  0.00000000000E+00 0. -1.
         -3    1    4    4    0  501 -0.36736013813E+02 -0.67265853322E+02 -0.50575160618E+02  0.91826339389E+02  0.00000000000E+00 0.  1.
          5    1    3    3  502    0  0.72692934576E+02 -0.65736281549E+02 -0.70261276807E+02  0.12068246960E+03  0.47000000000E+01 0. -1.
         13    1    6    6    0    0 -0.30693658274E+02  0.54887429018E+02  0.54701944530E+02  0.83348864766E+02  0.00000000000E+00 0. -1.
        -14    1    6    6    0    0  0.46161933596E+01 -0.74697291057E+01 -0.17947287805E+02  0.19980271110E+02  0.00000000000E+00 0.  1.
         -5    1    5    5    0  503  0.17074006258E+02  0.78366161690E+02  0.20729595380E+03  0.22232066807E+03  0.47000000000E+01 0.  1.
<mgrwt>
<rscale>  2 0.21517604E+03</rscale>
<asrwt>0</asrwt>
<pdfrwt beam="1">  1       21 0.53760850E-01 0.21560866E+03</pdfrwt>
<pdfrwt beam="2">  1       21 0.33515139E-01 0.21560866E+03</pdfrwt>
<totfact> 0.27712598E+04</totfact>
</mgrwt>
</event>
<event>
12    1  0.1441827E-001  0.1779542E+03  0.7546771E-02  0.1170271E+00
         21   -1    0    0  504  503  0.00000000000E+00  0.00000000000E+00  0.11879017393E+03  0.11879017393E+03  0.00000000000E+00 0.  1.
         21   -1    0    0  502  504 -0.00000000000E+00 -0.00000000000E+00 -0.27778175089E+03  0.27778175089E+03  0.00000000000E+00 0.  1.
          6    2    1    2  502    0 -0.27920881904E+02 -0.28327349060E+02 -0.12369155186E+03  0.21515029778E+03  0.17148771467E+03 0.  0.
         24    2    3    3    0    0 -0.19588813593E+02  0.40904936448E+02 -0.36080768070E+02  0.10307767777E+03  0.85242303974E+02 0.  0.
         -6    2    1    2    0  503  0.27920881904E+02  0.28327349060E+02 -0.35300025090E+02  0.18142162704E+03  0.17345230075E+03 0.  0.
        -24    2    5    5    0    0  0.15176754201E+02 -0.34247768367E+01 -0.86776077664E+02  0.11943385180E+03  0.80574774821E+02 0.  0.
          2    1    4    4  501    0  0.16097605035E+02  0.63113071366E+01  0.21123620362E+02  0.27297853814E+02  0.00000000000E+00 0. -1.
         -1    1    4    4    0  501 -0.35686418627E+02  0.34593629312E+02 -0.57204388432E+02  0.75779823960E+02  0.00000000000E+00 0.  1.
          5    1    3    3  502    0 -0.83320683114E+01 -0.69232285508E+02 -0.87610783792E+02  0.11207262001E+03  0.47000000000E+01 0. -1.
         13    1    6    6    0    0 -0.28511772461E+02  0.10218761012E+02 -0.57824370531E+02  0.65276351559E+02  0.00000000000E+00 0. -1.
        -14    1    6    6    0    0  0.43688526661E+02 -0.13643537848E+02 -0.28951707132E+02  0.54157500244E+02  0.00000000000E+00 0.  1.
         -5    1    5    5    0  503  0.12744127703E+02  0.31752125896E+02  0.51476052573E+02  0.61987775234E+02  0.47000000000E+01 0.  1.
<mgrwt>
<rscale>  2 0.17747372E+03</rscale>
<asrwt>0</asrwt>
<pdfrwt beam="1">  1       21 0.18275411E-01 0.17795425E+03</pdfrwt>
<pdfrwt beam="2">  1       21 0.42735654E-01 0.17795425E+03</pdfrwt>
<totfact> 0.14446610E+05</totfact>
</mgrwt>
</event>
<event>
12    1  0.1441827E-001  0.1938877E+03  0.7546771E-02  0.1155822E+00
         21   -1    0    0  504  503  0.00000000000E+00  0.00000000000E+00  0.55465796788E+03  0.55465796788E+03  0.00000000000E+00 0. -1.
         21   -1    0    0  502  504 -0.00000000000E+00 -0.00000000000E+00 -0.16827782315E+03  0.16827782315E+03  0.00000000000E+00 0. -1.
          6    2    1    2  502    0  0.46969120804E+02 -0.63188447398E+02 -0.88671146958E+02  0.20984109583E+03  0.17312375632E+03 0.  0.
         24    2    3    3    0    0  0.23874973893E+02  0.29487230214E+02 -0.16782542453E+02  0.90207562491E+02  0.80101432417E+02 0.  0.
         -6    2    1    2    0  503 -0.46969120804E+02  0.63188447398E+02  0.47505129169E+03  0.51309469519E+03  0.17718227425E+03 0.  0.
        -24    2    5    5    0    0 -0.61704025853E+02  0.91437363626E+02  0.24217941256E+03  0.27800636970E+03  0.80426957253E+02 0.  0.
          4    1    4    4  501    0  0.34446008440E+02  0.32137776518E+01 -0.40502236645E+02  0.53266190379E+02  0.00000000000E+00 0. -1.
         -3    1    4    4    0  501 -0.10571034547E+02  0.26273452562E+02  0.23719694192E+02  0.36941372111E+02  0.00000000000E+00 0.  1.
          5    1    3    3  502    0  0.23094146911E+02 -0.92675677612E+02 -0.71888604505E+02  0.11963353334E+03  0.47000000000E+01 0. -1.
         11    1    6    6    0    0 -0.66203983375E+02  0.85379408723E+02  0.24662226394E+03  0.26924923755E+03  0.00000000000E+00 0. -1.
        -12    1    6    6    0    0  0.44999575217E+01  0.60579549029E+01 -0.44428513749E+01  0.87571321586E+01  0.00000000000E+00 0.  1.
         -5    1    5    5    0  503  0.14734905049E+02 -0.28248916227E+02  0.23287187912E+03  0.23508832549E+03  0.47000000000E+01 0.  1.
<mgrwt>
<rscale>  2 0.19295557E+03</rscale>
<asrwt>0</asrwt>
<pdfrwt beam="1">  1       21 0.85331994E-01 0.19388769E+03</pdfrwt>
<pdfrwt beam="2">  1       21 0.25888896E-01 0.19388769E+03</pdfrwt>
<totfact> 0.16813501E+04</totfact>
</mgrwt>
</event>
<event>
12    1  0.1441827E-001  0.1916242E+03  0.7546771E-02  0.1157439E+00
         21   -1    0    0  504  503  0.00000000000E+00  0.00000000000E+00  0.89126073292E+02  0.89126073292E+02  0.00000000000E+00 0. -1.
         21   -1    0    0  502  504 -0.00000000000E+00 -0.00000000000E+00 -0.41894250117E+03  0.41894250117E+03  0.00000000000E+00 0. -1.
          6    2    1    2  502    0  0.28167339458E+02  0.76591075216E+02 -0.12437219959E+03  0.22844753537E+03  0.17337889309E+03 0.  0.
         24    2    3    3    0    0  0.83227510314E+02  0.51705091277E+02 -0.10554528922E+03  0.16498512787E+03  0.80498754059E+02 0.  0.
         -6    2    1    2    0  503 -0.28167339458E+02 -0.76591075216E+02 -0.20544422829E+03  0.27962103909E+03  0.17123376639E+03 0.  0.
        -24    2    5    5    0    0 -0.51355004735E+02 -0.74544315351E+02 -0.63452791508E+02  0.13565744937E+03  0.78628845579E+02 0.  0.
          2    1    4    4  501    0  0.60952202668E+02  0.72588055508E+02 -0.68328412490E+02  0.11684591891E+03  0.00000000000E+00 0. -1.
         -1    1    4    4    0  501  0.22275307645E+02 -0.20882964231E+02 -0.37216876735E+02  0.48139208964E+02  0.00000000000E+00 0.  1.
          5    1    3    3  502    0 -0.55060170855E+02  0.24885983939E+02 -0.18826910365E+02  0.63462407495E+02  0.47000000000E+01 0. -1.
         13    1    6    6    0    0  0.26820709455E+01 -0.59935740383E+02 -0.15540685217E+02  0.61975796702E+02  0.00000000000E+00 0. -1.
        -14    1    6    6    0    0 -0.54037075681E+02 -0.14608574968E+02 -0.47912106291E+02  0.73681652669E+02  0.00000000000E+00 0.  1.
         -5    1    5    5    0  503  0.23187665277E+02 -0.20467598655E+01 -0.14199143678E+03  0.14396358972E+03  0.47000000000E+01 0.  1.
<mgrwt>
<rscale>  2 0.19113768E+03</rscale>
<asrwt>0</asrwt>
<pdfrwt beam="1">  1       21 0.13711703E-01 0.19162420E+03</pdfrwt>
<pdfrwt beam="2">  1       21 0.64452693E-01 0.19162420E+03</pdfrwt>
<totfact> 0.10254005E+05</totfact>
</mgrwt>
</event>
<event>
12    1  0.1441827E-001  0.2180979E+03  0.7546771E-02  0.1135984E+00
         21   -1    0    0  504  503  0.00000000000E+00  0.00000000000E+00  0.53973935018E+03  0.53973935018E+03  0.00000000000E+00 0. -1.
         21   -1    0    0  502  504 -0.00000000000E+00 -0.00000000000E+00 -0.13512461157E+03  0.13512461157E+03  0.00000000000E+00 0.  1.
          6    2    1    2  502    0  0.10964889308E+03  0.69031137372E+02  0.13788534044E+01  0.21810229101E+03  0.17543810996E+03 0.  0.
         24    2    3    3    0    0  0.10227882890E+03  0.65010131282E+02 -0.59096937517E+02  0.15686588335E+03  0.80169703278E+02 0.  0.
         -6    2    1    2    0  503 -0.10964889308E+03 -0.69031137372E+02  0.40323588521E+03  0.45676167074E+03  0.17100838300E+03 0.  0.
        -24    2    5    5    0    0 -0.91772888258E+02 -0.11023678631E+03  0.27106253278E+03  0.31708582406E+03  0.80586047606E+02 0.  0.
          4    1    4    4  501    0  0.48252246182E+02  0.48008880846E+02 -0.71677198856E+02  0.98847118003E+02  0.00000000000E+00 0. -1.
         -3    1    4    4    0  501  0.54026582718E+02  0.17001250436E+02  0.12580261339E+02  0.58018765343E+02  0.00000000000E+00 0.  1.
          5    1    3    3  502    0  0.73700641802E+01  0.40210060893E+01  0.60475790921E+02  0.61236407663E+02  0.47000000000E+01 0. -1.
         13    1    6    6    0    0 -0.59061070380E+02 -0.25003709337E+02  0.63126504593E+02  0.89990838963E+02  0.00000000000E+00 0. -1.
        -14    1    6    6    0    0 -0.32711817878E+02 -0.85233076975E+02  0.20793602819E+03  0.22709498510E+03  0.00000000000E+00 0.  1.
         -5    1    5    5    0  503 -0.17876004823E+02  0.41205648941E+02  0.13217335243E+03  0.13967584668E+03  0.47000000000E+01 0.  1.
<mgrwt>
<rscale>  2 0.21720569E+03</rscale>
<asrwt>0</asrwt>
<pdfrwt beam="1">  1       21 0.83036822E-01 0.21809793E+03</pdfrwt>
<pdfrwt beam="2">  1       21 0.20788402E-01 0.21809793E+03</pdfrwt>
<totfact> 0.26754077E+04</totfact>
</mgrwt>
</event>
<event>
12    1  0.1441827E-001  0.2767928E+03  0.7546771E-02  0.1098338E+00
         21   -1    0    0  504  503  0.00000000000E+00  0.00000000000E+00  0.21557264212E+03  0.21557264212E+03  0.00000000000E+00 0.  1.
         21   -1    0    0  502  504 -0.00000000000E+00 -0.00000000000E+00 -0.35473845572E+03  0.35473845572E+03  0.00000000000E+00 0. -1.
          6    2    1    2  502    0 -0.15910214119E+03  0.14514406596E+03 -0.27640382807E+02  0.27189499475E+03  0.16365392202E+03 0.  0.
         24    2    3    3    0    0 -0.51474311603E+02  0.20174211758E+02  0.21474805930E+02  0.99745042886E+02  0.80195403332E+02 0.  0.
         -6    2    1    2    0  503  0.15910214119E+03 -0.14514406596E+03 -0.11152543079E+03  0.29841610309E+03  0.17387914670E+03 0.  0.
        -24    2    5    5    0    0  0.98911775500E+02 -0.13926652678E+03 -0.13587130367E+03  0.23305375066E+03  0.81696601660E+02 0.  0.
          4    1    4    4  501    0  0.17819255597E+02 -0.10658849329E+02 -0.53987739883E+00  0.20770854740E+02  0.00000000000E+00 0. -1.
         -3    1    4    4    0  501 -0.69293567200E+02  0.30833061086E+02  0.22014683328E+02  0.78974188146E+02  0.00000000000E+00 0.  1.
          5    1    3    3  502    0 -0.10762782959E+03  0.12496985420E+03 -0.49115188736E+02  0.17214995186E+03  0.47000000000E+01 0. -1.
         13    1    6    6    0    0  0.49098076175E+02 -0.61363779426E+02 -0.11327182656E+03  0.13786457559E+03  0.00000000000E+00 0. -1.
        -14    1    6    6    0    0  0.49813699325E+02 -0.77902747354E+02 -0.22599477109E+02  0.95189175074E+02  0.00000000000E+00 0.  1.
         -5    1    5    5    0  503  0.60190365694E+02 -0.58775391769E+01  0.24345872875E+02  0.65362352430E+02  0.47000000000E+01 0.  1.
<mgrwt>
<rscale>  2 0.27520254E+03</rscale>
<asrwt>0</asrwt>
<pdfrwt beam="1">  1       21 0.33165022E-01 0.27679279E+03</pdfrwt>
<pdfrwt beam="2">  1       21 0.54575147E-01 0.27679279E+03</pdfrwt>
<totfact> 0.26643469E+04</totfact>
</mgrwt>
</event>
<event>
12    1  0.1441827E-001  0.4977375E+03  0.7546771E-02  0.1014386E+00
         21   -1    0    0  504  503  0.00000000000E+00  0.00000000000E+00  0.35867512700E+03  0.35867512700E+03  0.00000000000E+00 0. -1.
         21   -1    0    0  502  504 -0.00000000000E+00 -0.00000000000E+00 -0.16530884756E+04  0.16530884756E+04  0.00000000000E+00 0.  1.
          6    2    1    2  502    0  0.42250271053E+03 -0.19830845488E+03 -0.14147580028E+04  0.14996840666E+04  0.17227103521E+03 0.  0.
         24    2    3    3    0    0  0.26142709463E+03 -0.59535451095E+02 -0.90338955907E+03  0.94585821327E+03  0.81525875851E+02 0.  0.
         -6    2    1    2    0  503 -0.42250271053E+03  0.19830845488E+03  0.12034465420E+03  0.51207953596E+03  0.17293880903E+03 0.  0.
        -24    2    5    5    0    0 -0.40847811130E+03  0.16401840604E+03  0.75300673029E+02  0.45356845092E+03  0.79358322681E+02 0.  0.
          4    1    4    4  501    0  0.14937780459E+02 -0.36123853533E+00 -0.12116652188E+02  0.19237490444E+02  0.00000000000E+00 0. -1.
         -3    1    4    4    0  501  0.24648931417E+03 -0.59174212560E+02 -0.89127290688E+03  0.92662072283E+03  0.00000000000E+00 0.  1.
          5    1    3    3  502    0  0.16107561590E+03 -0.13877300379E+03 -0.51136844369E+03  0.55382585333E+03  0.47000000000E+01 0. -1.
         11    1    6    6    0    0 -0.16341102491E+03  0.10687248166E+03  0.23679047468E+02  0.19668652136E+03  0.00000000000E+00 0. -1.
        -12    1    6    6    0    0 -0.24506708639E+03  0.57145924382E+02  0.51621625561E+02  0.25688192955E+03  0.00000000000E+00 0.  1.
         -5    1    5    5    0  503 -0.14024599234E+02  0.34290048844E+02  0.45043981169E+02  0.58511085043E+02  0.47000000000E+01 0.  1.
<mgrwt>
<rscale>  2 0.49767958E+03</rscale>
<asrwt>0</asrwt>
<pdfrwt beam="1">  1       21 0.55180788E-01 0.49773750E+03</pdfrwt>
<pdfrwt beam="2">  1       21 0.25432131E+00 0.49773750E+03</pdfrwt>
<totfact> 0.14961123E+02</totfact>
</mgrwt>
</event>
<event>
12    1  0.1441827E-001  0.1805913E+03  0.7546771E-02  0.1167839E+00
         21   -1    0    0  504  503  0.00000000000E+00  0.00000000000E+00  0.28938333386E+03  0.28938333386E+03  0.00000000000E+00 0.  1.
         21   -1    0    0  502  504 -0.00000000000E+00 -0.00000000000E+00 -0.17914978310E+03  0.17914978310E+03  0.00000000000E+00 0. -1.
          6    2    1    2  502    0  0.24045707450E+02 -0.36313295260E+02 -0.89457134971E+02  0.19929421520E+03  0.17268107527E+03 0.  0.
         24    2    3    3    0    0  0.67385718663E+02 -0.29825066954E+02 -0.13197445680E+02  0.11121422945E+03  0.82243921124E+02 0.  0.
         -6    2    1    2    0  503 -0.24045707450E+02  0.36313295260E+02  0.19969068573E+03  0.26923890175E+03  0.17526084786E+03 0.  0.
        -24    2    5    5    0    0 -0.81464226898E+02  0.20796243395E+02  0.10394135417E+03  0.15642183847E+03  0.81210112919E+02 0.  0.
          4    1    4    4  501    0  0.81286299514E+02 -0.17183856796E+02 -0.27592444210E+02  0.87544790825E+02  0.00000000000E+00 0. -1.
         -3    1    4    4    0  501 -0.13900580851E+02 -0.12641210158E+02  0.14394998531E+02  0.23669438628E+02  0.00000000000E+00 0.  1.
          5    1    3    3  502    0 -0.43340011213E+02 -0.64882283057E+01 -0.76259689292E+02  0.88079985748E+02  0.47000000000E+01 0. -1.
         13    1    6    6    0    0 -0.45761163452E+02  0.86241891107E+01  0.77222277504E+00  0.46573136530E+02  0.00000000000E+00 0. -1.
        -14    1    6    6    0    0 -0.35703063446E+02  0.12172054284E+02  0.10316913140E+03  0.10984870194E+03  0.00000000000E+00 0.  1.
         -5    1    5    5    0  503  0.57418519448E+02  0.15517051865E+02  0.95749331558E+02  0.11281706328E+03  0.47000000000E+01 0.  1.
<mgrwt>
<rscale>  2 0.17996238E+03</rscale>
<asrwt>0</asrwt>
<pdfrwt beam="1">  1       21 0.44520513E-01 0.18059130E+03</pdfrwt>
<pdfrwt beam="2">  1       21 0.27561505E-01 0.18059130E+03</pdfrwt>
<totfact> 0.61169904E+04</totfact>
</mgrwt>
</event>
<event>
12    1  0.1441827E-001  0.1831623E+03  0.7546771E-02  0.1164917E+00
         21   -1    0    0  504  503  0.00000000000E+00  0.00000000000E+00  0.21599415058E+03  0.21599415058E+03  0.00000000000E+00 0. -1.
         21   -1    0    0  502  504 -0.00000000000E+00 -0.00000000000E+00 -0.45312263506E+03  0.45312263506E+03  0.00000000000E+00 0. -1.
          6    2    1    2  502    0  0.35337827161E+02  0.47475716323E+02 -0.38995043579E+03  0.43057333331E+03  0.17271174630E+03 0.  0.
         24    2    3    3    0    0  0.17491640174E+02  0.62155394460E+02 -0.39327590091E+03  0.40675888268E+03  0.81348656214E+02 0.  0.
         -6    2    1    2    0  503 -0.35337827161E+02 -0.47475716323E+02  0.15282195131E+03  0.23854345234E+03  0.17333702484E+03 0.  0.
        -24    2    5    5    0    0 -0.59676040172E+02  0.10236674419E+02  0.14457166153E+03  0.17519342519E+03  0.78267181105E+02 0.  0.
          4    1    4    4  501    0  0.19371001690E+02  0.73593515365E+02 -0.38516639579E+03  0.39261226885E+03  0.00000000000E+00 0. -1.
         -3    1    4    4    0  501 -0.18793615164E+01 -0.11438120904E+02 -0.81095051257E+01  0.14146613832E+02  0.00000000000E+00 0.  1.
          5    1    3    3  502    0  0.17846186988E+02 -0.14679678137E+02  0.33254651190E+01  0.23814450623E+02  0.47000000000E+01 0. -1.
         13    1    6    6    0    0  0.13872574117E+02 -0.11650737495E+02  0.51344618903E+02  0.54446835418E+02  0.00000000000E+00 0. -1.
        -14    1    6    6    0    0 -0.73548614289E+02  0.21887411915E+02  0.93227042629E+02  0.12074658977E+03  0.00000000000E+00 0.  1.
         -5    1    5    5    0  503  0.24338213011E+02 -0.57712390743E+02  0.82502897797E+01  0.63350027145E+02  0.47000000000E+01 0.  1.
<mgrwt>
<rscale>  2 0.18301422E+03</rscale>
<asrwt>0</asrwt>
<pdfrwt beam="1">  1       21 0.33229870E-01 0.18316230E+03</pdfrwt>
<pdfrwt beam="2">  1       21 0.69711174E-01 0.18316230E+03</pdfrwt>
<totfact> 0.16402985E+04</totfact>
</mgrwt>
</event>
<event>
12    1  0.1441827E-001  0.1757572E+03  0.7546771E-02  0.1172234E+00
         21   -1    0    0  504  503  0.00000000000E+00  0.00000000000E+00  0.22712816750E+03  0.22712816750E+03  0.00000000000E+00 0. -1.
         21   -1    0    0  502  504 -0.00000000000E+00 -0.00000000000E+00 -0.57958569817E+03  0.57958569817E+03  0.00000000000E+00 0.  1.
          6    2    1    2  502    0  0.26276963119E+02  0.11540417345E+02 -0.52929750866E+03  0.55738881769E+03  0.17234494882E+03 0.  0.
         24    2    3    3    0    0  0.39568454535E+02  0.68755971990E+02 -0.32780807771E+03  0.34745939092E+03  0.83527517908E+02 0.  0.
         -6    2    1    2    0  503 -0.26276963119E+02 -0.11540417345E+02  0.17683997800E+03  0.24932504798E+03  0.17339821715E+03 0.  0.
        -24    2    5    5    0    0 -0.83194802626E+02  0.59490358978E+01  0.11054093911E+03  0.16008843001E+03  0.80325836396E+02 0.  0.
          4    1    4    4  501    0  0.35796013749E+02  0.12925686112E+02 -0.43948543062E+02  0.58136928015E+02  0.00000000000E+00 0. -1.
         -3    1    4    4    0  501  0.37724407862E+01  0.55830285878E+02 -0.28385953465E+03  0.28932246290E+03  0.00000000000E+00 0.  1.
          5    1    3    3  502    0 -0.13291491416E+02 -0.57215554645E+02 -0.20148943095E+03  0.20992942677E+03  0.47000000000E+01 0. -1.
         13    1    6    6    0    0 -0.42738648255E+02 -0.28485223916E+02  0.20012403627E+02  0.55122557407E+02  0.00000000000E+00 0. -1.
        -14    1    6    6    0    0 -0.40456154371E+02  0.34434259814E+02  0.90528535481E+02  0.10496587260E+03  0.00000000000E+00 0.  1.
         -5    1    5    5    0  503  0.56917839507E+02 -0.17489453243E+02  0.66299038892E+02  0.89236617971E+02  0.47000000000E+01 0.  1.
<mgrwt>
<rscale>  2 0.17549688E+03</rscale>
<asrwt>0</asrwt>
<pdfrwt beam="1">  1       21 0.34942795E-01 0.17575722E+03</pdfrwt>
<pdfrwt beam="2">  1       21 0.89167030E-01 0.17575722E+03</pdfrwt>
<totfact> 0.85801023E+03</totfact>
</mgrwt>
</event>
<event>
12    1  0.1441827E-001  0.2465698E+03  0.7546771E-02  0.1115646E+00
         21   -1    0    0  504  503  0.00000000000E+00  0.00000000000E+00  0.82692990830E+03  0.82692990830E+03  0.00000000000E+00 0. -1.
         21   -1    0    0  502  504 -0.00000000000E+00 -0.00000000000E+00 -0.87163033110E+02  0.87163033110E+02  0.00000000000E+00 0. -1.
          6    2    1    2  502    0  0.17785612440E+02 -0.17255271897E+03  0.18779320324E+03  0.30994023840E+03  0.17523097718E+03 0.  0.
         24    2    3    3    0    0 -0.72149148440E+01 -0.21696873123E+02  0.93103113798E+02  0.13002132436E+03  0.87832486531E+02 0.  0.
         -6    2    1    2    0  503 -0.17785612440E+02  0.17255271897E+03  0.55197367195E+03  0.60415270301E+03  0.17388152633E+03 0.  0.
        -24    2    5    5    0    0  0.32599152027E+02  0.36906827380E+02  0.29202175198E+03  0.30660350861E+03  0.79398924682E+02 0.  0.
          2    1    4    4  501    0  0.39730751236E+02 -0.12317760086E+02  0.54273855514E+02  0.68380634683E+02  0.00000000000E+00 0. -1.
         -1    1    4    4    0  501 -0.46945666080E+02 -0.93791130368E+01  0.38829258284E+02  0.61640689678E+02  0.00000000000E+00 0.  1.
          5    1    3    3  502    0  0.25000527284E+02 -0.15085584584E+03  0.94690089446E+02  0.17991891404E+03  0.47000000000E+01 0. -1.
         11    1    6    6    0    0 -0.12505081080E+02  0.45782777375E+02  0.14827541874E+03  0.15568570763E+03  0.00000000000E+00 0. -1.
        -12    1    6    6    0    0  0.45104233107E+02 -0.88759499953E+01  0.14374633324E+03  0.15091780098E+03  0.00000000000E+00 0.  1.
         -5    1    5    5    0  503 -0.50384764467E+02  0.13564589159E+03  0.25995191997E+03  0.29754919440E+03  0.47000000000E+01 0.  1.
<mgrwt>
<rscale>  2 0.24633015E+03</rscale>
<asrwt>0</asrwt>
<pdfrwt beam="1">  1       21 0.12721998E+00 0.24656980E+03</pdfrwt>
<pdfrwt beam="2">  1       21 0.13409698E-01 0.24656980E+03</pdfrwt>
<totfact> 0.21258552E+04</totfact>
</mgrwt>
</event>
<event>
12    1  0.1441827E-001  0.2293849E+03  0.7546771E-02  0.1127223E+00
         21   -1    0    0  504  503  0.00000000000E+00  0.00000000000E+00  0.56189061533E+02  0.56189061533E+02  0.00000000000E+00 0.  1.
         21   -1    0    0  502  504 -0.00000000000E+00 -0.00000000000E+00 -0.96899408311E+03  0.96899408311E+03  0.00000000000E+00 0. -1.
          6    2    1    2  502    0  0.98103686208E+02 -0.11433813484E+03 -0.55602489994E+03  0.60148243593E+03  0.17297366578E+03 0.  0.
         24    2    3    3    0    0  0.41261245339E+02 -0.74173748112E+02 -0.15210821846E+03  0.19158608730E+03  0.79775205718E+02 0.  0.
         -6    2    1    2    0  503 -0.98103686208E+02  0.11433813484E+03 -0.35678012163E+03  0.42370070871E+03  0.17185078714E+03 0.  0.
        -24    2    5    5    0    0 -0.45794542640E+02  0.53217659072E+02 -0.31718415832E+03  0.33391268406E+03  0.77218073765E+02 0.  0.
          4    1    4    4  501    0 -0.69857985906E-01 -0.33724600976E+02 -0.57429625472E+01  0.34210162378E+02  0.00000000000E+00 0. -1.
         -3    1    4    4    0  501  0.41331103325E+02 -0.40449147136E+02 -0.14636525591E+03  0.15737592492E+03  0.00000000000E+00 0.  1.
          5    1    3    3  502    0  0.56842440869E+02 -0.40164386729E+02 -0.40391668148E+03  0.40989634863E+03  0.47000000000E+01 0. -1.
         11    1    6    6    0    0 -0.41718783691E+02  0.71846853941E+02 -0.22678577033E+03  0.24152476676E+03  0.00000000000E+00 0. -1.
        -12    1    6    6    0    0 -0.40757589491E+01 -0.18629194869E+02 -0.90398387990E+02  0.92387917303E+02  0.00000000000E+00 0.  1.
         -5    1    5    5    0  503 -0.52309143568E+02  0.61120475769E+02 -0.39595963312E+02  0.89788024645E+02  0.47000000000E+01 0.  1.
<mgrwt>
<rscale>  2 0.22917322E+03</rscale>
<asrwt>0</asrwt>
<pdfrwt beam="1">  1       21 0.86444719E-02 0.22938490E+03</pdfrwt>
<pdfrwt beam="2">  1       21 0.14907600E+00 0.22938490E+03</pdfrwt>
<totfact> 0.31161760E+04</totfact>
</mgrwt>
</event>
<event>
12    1  0.1441827E-001  0.1795472E+03  0.7546771E-02  0.1168341E+00
         21   -1    0    0  504  503  0.00000000000E+00  0.00000000000E+00  0.63992864524E+02  0.63992864524E+02  0.00000000000E+00 0. -1.
         21   -1    0    0  502  504 -0.00000000000E+00 -0.00000000000E+00 -0.54835940202E+03  0.54835940202E+03  0.00000000000E+00 0. -1.
          6    2    1    2  502    0  0.41650279461E+02  0.21314854619E+02 -0.33036149440E+03  0.37580473049E+03  0.17292024079E+03 0.  0.
         24    2    3    3    0    0  0.75565792169E+02 -0.27618255330E+02 -0.16802464574E+03  0.20283058883E+03  0.80218509188E+02 0.  0.
         -6    2    1    2    0  503 -0.41650279461E+02 -0.21314854619E+02 -0.15400504310E+03  0.23654753605E+03  0.17334392030E+03 0.  0.
        -24    2    5    5    0    0  0.12581884783E+02  0.11489393434E+02 -0.15561342377E+02  0.84212396970E+02  0.80989273615E+02 0.  0.
          4    1    4    4  501    0  0.11271737841E+02 -0.45305549759E+02 -0.75797091531E+02  0.89021592871E+02  0.00000000000E+00 0. -1.
         -3    1    4    4    0  501  0.64294054328E+02  0.17687294428E+02 -0.92227554213E+02  0.11380899596E+03  0.00000000000E+00 0.  1.
          5    1    3    3  502    0 -0.33915512707E+02  0.48933109950E+02 -0.16233684865E+03  0.17297414166E+03  0.47000000000E+01 0. -1.
         13    1    6    6    0    0 -0.41886046093E+01 -0.31121129520E+02 -0.21471346465E+02  0.38040607648E+02  0.00000000000E+00 0. -1.
        -14    1    6    6    0    0  0.16770489392E+02  0.42610522954E+02  0.59100040885E+01  0.46171789322E+02  0.00000000000E+00 0.  1.
         -5    1    5    5    0  503 -0.54232164244E+02 -0.32804248053E+02 -0.13844370072E+03  0.15233513908E+03  0.47000000000E+01 0.  1.
<mgrwt>
<rscale>  2 0.17944482E+03</rscale>
<asrwt>0</asrwt>
<pdfrwt beam="1">  1       21 0.98450553E-02 0.17954716E+03</pdfrwt>
<pdfrwt beam="2">  1       21 0.84362992E-01 0.17954716E+03</pdfrwt>
<totfact> 0.10221189E+05</totfact>
</mgrwt>
</event>
<event>
12    1  0.1441827E-001  0.2179679E+03  0.7546771E-02  0.1135659E+00
         21   -1    0    0  504  503  0.00000000000E+00  0.00000000000E+00  0.83950703959E+02  0.83950703959E+02  0.00000000000E+00 0.  1.
         21   -1    0    0  502  504 -0.00000000000E+00 -0.00000000000E+00 -0.57402697202E+03  0.57402697202E+03  0.00000000000E+00 0.  1.
          6    2    1    2  502    0  0.12525755024E+03  0.33388231541E+02 -0.29096437676E+03  0.36275647574E+03  0.17357351253E+03 0.  0.
         24    2    3    3    0    0  0.13650268696E+03  0.69502746593E+02 -0.20209895999E+03  0.26606178305E+03  0.80506319241E+02 0.  0.
         -6    2    1    2    0  503 -0.12525755024E+03 -0.33388231541E+02 -0.19911189131E+03  0.29522120024E+03  0.17523065918E+03 0.  0.
        -24    2    5    5    0    0 -0.64051012071E+02  0.62904740378E+01 -0.57525655416E+02  0.13588070889E+03  0.10493933394E+03 0.  0.
          4    1    4    4  501    0  0.58906906760E+02 -0.10745085894E+02 -0.87991907302E+02  0.10643334198E+03  0.00000000000E+00 0. -1.
         -3    1    4    4    0  501  0.77595780202E+02  0.80247832486E+02 -0.11410705269E+03  0.15962844107E+03  0.00000000000E+00 0.  1.
          5    1    3    3  502    0 -0.11245136726E+02 -0.36114515052E+02 -0.88865416765E+02  0.96694692689E+02  0.47000000000E+01 0. -1.
         13    1    6    6    0    0  0.22121632125E+02  0.18181215997E+02  0.45776520043E+01  0.28997898560E+02  0.00000000000E+00 0. -1.
        -14    1    6    6    0    0 -0.86172644196E+02 -0.11890741959E+02 -0.62103307420E+02  0.10688281033E+03  0.00000000000E+00 0.  1.
         -5    1    5    5    0  503 -0.61206538164E+02 -0.39678705578E+02 -0.14158623589E+03  0.15934049135E+03  0.47000000000E+01 0.  1.
<mgrwt>
<rscale>  2 0.21763465E+03</rscale>
<asrwt>0</asrwt>
<pdfrwt beam="1">  1       21 0.12915493E-01 0.21796791E+03</pdfrwt>
<pdfrwt beam="2">  1       21 0.88311842E-01 0.21796791E+03</pdfrwt>
<totfact> 0.55767183E+04</totfact>
</mgrwt>
</event>
<event>
12    1  0.1441827E-001  0.1784948E+03  0.7546771E-02  0.1169898E+00
         21   -1    0    0  504  503  0.00000000000E+00  0.00000000000E+00  0.53493314838E+03  0.53493314838E+03  0.00000000000E+00 0.  1.
         21   -1    0    0  502  504 -0.00000000000E+00 -0.00000000000E+00 -0.11065596902E+03  0.11065596902E+03  0.00000000000E+00 0.  1.
          6    2    1    2  502    0  0.19977288272E+02  0.30522246596E+02 -0.98344843636E+01  0.17621364064E+03  0.17211574733E+03 0.  0.
         24    2    3    3    0    0  0.14656172512E+02 -0.42593693597E+02  0.20626184375E+02  0.96688818581E+02  0.83031692924E+02 0.  0.
         -6    2    1    2    0  503 -0.19977288272E+02 -0.30522246596E+02  0.43411166372E+03  0.46937547677E+03  0.17472750794E+03 0.  0.
        -24    2    5    5    0    0  0.22003618242E+02 -0.32241075725E+02  0.10034075174E+03  0.13293757378E+03  0.77977470351E+02 0.  0.
          4    1    4    4  501    0  0.96480303408E+01 -0.63157912129E+02  0.33270514242E+02  0.72034252074E+02  0.00000000000E+00 0. -1.
         -3    1    4    4    0  501  0.50081421712E+01  0.20564218532E+02 -0.12644329867E+02  0.24654566507E+02  0.00000000000E+00 0.  1.
          5    1    3    3  502    0  0.53211157599E+01  0.73115940193E+02 -0.30460668738E+02  0.79524822057E+02  0.47000000000E+01 0. -1.
         13    1    6    6    0    0  0.34592605293E+02  0.39570654906E+01  0.84639254540E+02  0.91521091107E+02  0.00000000000E+00 0. -1.
        -14    1    6    6    0    0 -0.12588987051E+02 -0.36198141216E+02  0.15701497199E+02  0.41416482670E+02  0.00000000000E+00 0.  1.
         -5    1    5    5    0  503 -0.41980906514E+02  0.17188291294E+01  0.33377091198E+03  0.33643790299E+03  0.47000000000E+01 0.  1.
<mgrwt>
<rscale>  2 0.17785241E+03</rscale>
<asrwt>0</asrwt>
<pdfrwt beam="1">  1       21 0.82297406E-01 0.17849482E+03</pdfrwt>
<pdfrwt beam="2">  1       21 0.17023996E-01 0.17849482E+03</pdfrwt>
<totfact> 0.40429506E+04</totfact>
</mgrwt>
</event>
<event>
12    1  0.1441827E-001  0.2316027E+03  0.7546771E-02  0.1125526E+00
         21   -1    0    0  504  503  0.00000000000E+00  0.00000000000E+00  0.54168929456E+03  0.54168929456E+03  0.00000000000E+00 0.  1.
         21   -1    0    0  502  504 -0.00000000000E+00 -0.00000000000E+00 -0.99316040238E+02  0.99316040238E+02  0.00000000000E+00 0.  1.
          6    2    1    2  502    0 -0.17422971508E+02  0.15282193445E+03  0.23925364331E+03  0.33295114654E+03  0.17307818050E+03 0.  0.
         24    2    3    3    0    0  0.27968791679E+02  0.12988489885E+03  0.23419221263E+03  0.28162641715E+03  0.82553655998E+02 0.  0.
         -6    2    1    2    0  503  0.17422971508E+02 -0.15282193445E+03  0.20311961101E+03  0.30805418825E+03  0.17315225363E+03 0.  0.
        -24    2    5    5    0    0  0.50038306118E+02 -0.12219243461E+03  0.21207373605E+03  0.26218270836E+03  0.79559285362E+02 0.  0.
          4    1    4    4  501    0  0.36711605143E+01  0.89544283325E+01  0.95620936989E+02  0.96109431363E+02  0.00000000000E+00 0. -1.
         -3    1    4    4    0  501  0.24297631165E+02  0.12093047052E+03  0.13857127565E+03  0.18551698578E+03  0.00000000000E+00 0.  1.
          5    1    3    3  502    0 -0.45391763188E+02  0.22937035592E+02  0.50614306720E+01  0.51324729395E+02  0.47000000000E+01 0. -1.
         13    1    6    6    0    0  0.16558116579E+02 -0.54281107906E+02  0.16136924799E+03  0.17105742924E+03  0.00000000000E+00 0. -1.
        -14    1    6    6    0    0  0.33480189540E+02 -0.67911326705E+02  0.50704488057E+02  0.91125279125E+02  0.00000000000E+00 0.  1.
         -5    1    5    5    0  503 -0.32615334610E+02 -0.30629499834E+02 -0.89541250395E+01  0.45871479887E+02  0.47000000000E+01 0.  1.
<mgrwt>
<rscale>  2 0.23158885E+03</rscale>
<asrwt>0</asrwt>
<pdfrwt beam="1">  1       21 0.83336813E-01 0.23160269E+03</pdfrwt>
<pdfrwt beam="2">  1       21 0.15279391E-01 0.23160269E+03</pdfrwt>
<totfact> 0.46661747E+04</totfact>
</mgrwt>
</event>
<event>
12    1  0.1441827E-001  0.2543971E+03  0.7546771E-02  0.1110580E+00
         21   -1    0    0  504  503  0.00000000000E+00  0.00000000000E+00  0.43121231634E+03  0.43121231634E+03  0.00000000000E+00 0.  1.
         21   -1    0    0  502  504 -0.00000000000E+00 -0.00000000000E+00 -0.25480731866E+03  0.25480731866E+03  0.00000000000E+00 0.  1.
          6    2    1    2  502    0 -0.86982344528E+02  0.16475844559E+03 -0.13180455893E+03  0.28638102068E+03  0.17300396990E+03 0.  0.
         24    2    3    3    0    0 -0.10584440456E+03  0.64702166491E+02 -0.70491945874E+02  0.16743412995E+03  0.87610873262E+02 0.  0.
         -6    2    1    2    0  503  0.86982344528E+02 -0.16475844559E+03  0.30820955660E+03  0.39963861432E+03  0.17322418314E+03 0.  0.
        -24    2    5    5    0    0  0.70245273691E+02 -0.68963633818E+02  0.78408541357E+02  0.15006423240E+03  0.81737342897E+02 0.  0.
          4    1    4    4  501    0 -0.34305940105E+02  0.70144751433E+02 -0.50368359892E+02  0.92920155823E+02  0.00000000000E+00 0. -1.
         -3    1    4    4    0  501 -0.71538464454E+02 -0.54425849420E+01 -0.20123585982E+02  0.74513974126E+02  0.00000000000E+00 0.  1.
          5    1    3    3  502    0  0.18862060030E+02  0.10005627910E+03 -0.61312613053E+02  0.11894689073E+03  0.47000000000E+01 0. -1.
         11    1    6    6    0    0 -0.11207465637E+02  0.93166697321E+01  0.53339160353E+01  0.15519609569E+02  0.00000000000E+00 0. -1.
        -12    1    6    6    0    0  0.81452739328E+02 -0.78280303550E+02  0.73074625322E+02  0.13454462283E+03  0.00000000000E+00 0.  1.
         -5    1    5    5    0  503  0.16737070837E+02 -0.95794811768E+02  0.22980101524E+03  0.24957438192E+03  0.47000000000E+01 0.  1.
<mgrwt>
<rscale>  2 0.25435963E+03</rscale>
<asrwt>0</asrwt>
<pdfrwt beam="1">  1       21 0.66340356E-01 0.25439711E+03</pdfrwt>
<pdfrwt beam="2">  1       21 0.39201126E-01 0.25439711E+03</pdfrwt>
<totfact> 0.12608705E+04</totfact>
</mgrwt>
</event>
<event>
12    1  0.1441827E-001  0.1922301E+03  0.7546771E-02  0.1156827E+00
         21   -1    0    0  504  503  0.00000000000E+00  0.00000000000E+00  0.13758364321E+04  0.13758364321E+04  0.00000000000E+00 0. -1.
         21   -1    0    0  502  504 -0.00000000000E+00 -0.00000000000E+00 -0.58966925417E+02  0.58966925417E+02  0.00000000000E+00 0. -1.
          6    2    1    2  502    0  0.43702495965E+02  0.69476832889E+02  0.12593346752E+03  0.22845305188E+03  0.17203086993E+03 0.  0.
         24    2    3    3    0    0 -0.94055840204E+01  0.26082929282E+02 -0.23109124174E+01  0.82946316588E+02  0.78140686640E+02 0.  0.
         -6    2    1    2    0  503 -0.43702495965E+02 -0.69476832889E+02  0.11909360392E+04  0.12063503056E+04  0.17382598215E+03 0.  0.
        -24    2    5    5    0    0 -0.84719164175E+02 -0.38154981953E+01  0.65212626290E+03  0.66198660099E+03  0.75932221854E+02 0.  0.
          2    1    4    4  501    0  0.28874934047E+02 -0.56049058462E+01  0.11158005781E+02  0.31459146186E+02  0.00000000000E+00 0. -1.
         -1    1    4    4    0  501 -0.38280518067E+02  0.31687835128E+02 -0.13468918198E+02  0.51487170402E+02  0.00000000000E+00 0.  1.
          5    1    3    3  502    0  0.53108079985E+02  0.43393903607E+02  0.12824437993E+03  0.14550673529E+03  0.47000000000E+01 0. -1.
         13    1    6    6    0    0 -0.42577257249E+02 -0.35340879824E+02  0.22853067386E+03  0.23513415217E+03  0.00000000000E+00 0. -1.
        -14    1    6    6    0    0 -0.42141906926E+02  0.31525381628E+02  0.42359558905E+03  0.42685244882E+03  0.00000000000E+00 0.  1.
         -5    1    5    5    0  503  0.41016668210E+02 -0.65661334693E+02  0.53880977625E+03  0.54436370464E+03  0.47000000000E+01 0.  1.
<mgrwt>
<rscale>  2 0.19182338E+03</rscale>
<asrwt>0</asrwt>
<pdfrwt beam="1">  1       21 0.21166712E+00 0.19223010E+03</pdfrwt>
<pdfrwt beam="2">  1       21 0.90718357E-02 0.19223010E+03</pdfrwt>
<totfact> 0.10917005E+04</totfact>
</mgrwt>
</event>
<event>
12    1  0.1441827E-001  0.1775961E+03  0.7546771E-02  0.1170299E+00
         21   -1    0    0  504  503  0.00000000000E+00  0.00000000000E+00  0.25804424459E+04  0.25804424459E+04  0.00000000000E+00 0. -1.
         21   -1    0    0  502  504 -0.00000000000E+00 -0.00000000000E+00 -0.26128999561E+02  0.26128999561E+02  0.00000000000E+00 0. -1.
          6    2    1    2  502    0 -0.34540382809E+02  0.99283045779E+01  0.32596977046E+03  0.37120975578E+03  0.17392177051E+03 0.  0.
         24    2    3    3    0    0 -0.27872218666E+02  0.69832177319E+02  0.15971920939E+03  0.19430786930E+03  0.81190693204E+02 0.  0.
         -6    2    1    2    0  503  0.34540382809E+02 -0.99283045779E+01  0.22283436758E+04  0.22353616896E+04  0.17330532763E+03 0.  0.
        -24    2    5    5    0    0  0.61084339172E+02 -0.53773319152E+02  0.18544310114E+04  0.18579233006E+04  0.79635095180E+02 0.  0.
          2    1    4    4  501    0 -0.16600260768E+02  0.32767641388E+02  0.78325839123E+01  0.37558439138E+02  0.00000000000E+00 0. -1.
         -1    1    4    4    0  501 -0.11271957898E+02  0.37064535931E+02  0.15188662548E+03  0.15674943016E+03  0.00000000000E+00 0.  1.
          5    1    3    3  502    0 -0.66681641425E+01 -0.59903872741E+02  0.16625056108E+03  0.17690188648E+03  0.47000000000E+01 0. -1.
         13    1    6    6    0    0 -0.77687321502E+01 -0.42854526973E+02  0.80766783396E+03  0.80884126607E+03  0.00000000000E+00 0. -1.
        -14    1    6    6    0    0  0.68853071322E+02 -0.10918792180E+02  0.10467631775E+04  0.10490820345E+04  0.00000000000E+00 0.  1.
         -5    1    5    5    0  503 -0.26543956363E+02  0.43845014574E+02  0.37391266441E+03  0.37743838905E+03  0.47000000000E+01 0.  1.
<mgrwt>
<rscale>  2 0.17744504E+03</rscale>
<asrwt>0</asrwt>
<pdfrwt beam="1">  1       21 0.39699094E+00 0.17759615E+03</pdfrwt>
<pdfrwt beam="2">  1       21 0.40198481E-02 0.17759615E+03</pdfrwt>
<totfact> 0.36133935E+03</totfact>
</mgrwt>
</event>
<event>
12    1  0.1441827E-001  0.1857771E+03  0.7546771E-02  0.1162596E+00
         21   -1    0    0  504  503  0.00000000000E+00  0.00000000000E+00  0.41992709699E+03  0.41992709699E+03  0.00000000000E+00 0.  1.
         21   -1    0    0  502  504 -0.00000000000E+00 -0.00000000000E+00 -0.17537868518E+03  0.17537868518E+03  0.00000000000E+00 0.  1.
          6    2    1    2  502    0  0.29757527889E+02 -0.55300352453E+02 -0.95472379593E+02  0.20784317220E+03  0.17360924376E+03 0.  0.
         24    2    3    3    0    0  0.70729939844E+02 -0.33180515175E+01 -0.27875264062E+02  0.11312063961E+03  0.83698954020E+02 0.  0.
         -6    2    1    2    0  503 -0.29757527889E+02  0.55300352453E+02  0.34002079140E+03  0.38746260997E+03  0.17484134549E+03 0.  0.
        -24    2    5    5    0    0 -0.22068044144E+02 -0.26552605813E+02  0.85568640479E+02  0.12001724724E+03  0.76747038733E+02 0.  0.
          2    1    4    4  501    0 -0.57503252089E+01  0.23236082444E+02  0.70440854821E+01  0.24951972019E+02  0.00000000000E+00 0. -1.
         -1    1    4    4    0  501  0.76480265053E+02 -0.26554133962E+02 -0.34919349544E+02  0.88168667596E+02  0.00000000000E+00 0.  1.
          5    1    3    3  502    0 -0.40972411955E+02 -0.51982300936E+02 -0.67597115530E+02  0.94722532589E+02  0.47000000000E+01 0. -1.
         13    1    6    6    0    0 -0.25259930476E+02 -0.39378624390E+02  0.93536565807E+02  0.10458407761E+03  0.00000000000E+00 0. -1.
        -14    1    6    6    0    0  0.31918863324E+01  0.12826018577E+02 -0.79679253275E+01  0.15433169633E+02  0.00000000000E+00 0.  1.
         -5    1    5    5    0  503 -0.76894837456E+01  0.81852958267E+02  0.25445215092E+03  0.26744536273E+03  0.47000000000E+01 0.  1.
<mgrwt>
<rscale>  2 0.18548666E+03</rscale>
<asrwt>0</asrwt>
<pdfrwt beam="1">  1       21 0.64604168E-01 0.18577711E+03</pdfrwt>
<pdfrwt beam="2">  1       21 0.26981336E-01 0.18577711E+03</pdfrwt>
<totfact> 0.29012293E+04</totfact>
</mgrwt>
</event>
<event>
12    1  0.1441827E-001  0.2009238E+03  0.7546771E-02  0.1149368E+00
         21   -1    0    0  504  503  0.00000000000E+00  0.00000000000E+00  0.17428667333E+03  0.17428667333E+03  0.00000000000E+00 0.  1.
         21   -1    0    0  502  504 -0.00000000000E+00 -0.00000000000E+00 -0.25461527185E+03  0.25461527185E+03  0.00000000000E+00 0.  1.
          6    2    1    2  502    0  0.10009930205E+03 -0.64238966798E+01  0.27472612931E+02  0.20088555560E+03  0.17186950069E+03 0.  0.
         24    2    3    3    0    0  0.11124668956E+03 -0.50774055811E+02 -0.18472960168E+01  0.14636080962E+03  0.80400518713E+02 0.  0.
         -6    2    1    2    0  503 -0.10009930205E+03  0.64238966798E+01 -0.10780121145E+03  0.22801638959E+03  0.17409547958E+03 0.  0.
        -24    2    5    5    0    0 -0.47524568622E+02 -0.47877235391E+02 -0.11094663902E+03  0.15222259529E+03  0.79446507264E+02 0.  0.
          2    1    4    4  501    0  0.52273782196E+02 -0.66564996944E+02 -0.79312947231E+01  0.85007955858E+02  0.00000000000E+00 0. -1.
         -1    1    4    4    0  501  0.58972907362E+02  0.15790941133E+02  0.60839987063E+01  0.61352853763E+02  0.00000000000E+00 0.  1.
          5    1    3    3  502    0 -0.11147387503E+02  0.44350159131E+02  0.29319908948E+02  0.54524745977E+02  0.47000000000E+01 0. -1.
         13    1    6    6    0    0 -0.29597083359E+02 -0.60776937871E+02 -0.41439745224E+02  0.79291084017E+02  0.00000000000E+00 0. -1.
        -14    1    6    6    0    0 -0.17927485263E+02  0.12899702480E+02 -0.69506893793E+02  0.72931511274E+02  0.00000000000E+00 0.  1.
         -5    1    5    5    0  503 -0.52574733432E+02  0.54301132071E+02  0.31454275683E+01  0.75793794299E+02  0.47000000000E+01 0.  1.
<mgrwt>
<rscale>  2 0.20044065E+03</rscale>
<asrwt>0</asrwt>
<pdfrwt beam="1">  1       21 0.26813334E-01 0.20092380E+03</pdfrwt>
<pdfrwt beam="2">  1       21 0.39171580E-01 0.20092380E+03</pdfrwt>
<totfact> 0.82928718E+04</totfact>
</mgrwt>
</event>
<event>
12    1  0.1441827E-001  0.1948534E+03  0.7546771E-02  0.1154658E+00
         21   -1    0    0  504  503  0.00000000000E+00  0.00000000000E+00  0.66118401895E+03  0.66118401895E+03  0.00000000000E+00 0.  1.
         21   -1    0    0  502  504 -0.00000000000E+00 -0.00000000000E+00 -0.14023801234E+03  0.14023801234E+03  0.00000000000E+00 0. -1.
          6    2    1    2  502    0 -0.47318159106E+02  0.73074169243E+02 -0.49324125150E+02  0.19878128007E+03  0.17176229386E+03 0.  0.
         24    2    3    3    0    0 -0.63036997230E+02  0.36970703091E+02  0.27871067485E+02  0.11199574034E+03  0.80160798052E+02 0.  0.
         -6    2    1    2    0  503  0.47318159106E+02 -0.73074169243E+02  0.57027013176E+03  0.60264075123E+03  0.17432443739E+03 0.  0.
        -24    2    5    5    0    0 -0.37776821381E+02 -0.24109824973E+02  0.34624896860E+03  0.35800585131E+03  0.79192609645E+02 0.  0.
          4    1    4    4  501    0 -0.44706566827E+02  0.61184308479E+02  0.91698636648E+01  0.76330093156E+02  0.00000000000E+00 0. -1.
         -3    1    4    4    0  501 -0.18330430403E+02 -0.24213605388E+02  0.18701203820E+02  0.35665647183E+02  0.00000000000E+00 0.  1.
          5    1    3    3  502    0  0.15718838124E+02  0.36103466152E+02 -0.77195192635E+02  0.86785539729E+02  0.47000000000E+01 0. -1.
         11    1    6    6    0    0 -0.25565610316E+02 -0.73967082925E+01  0.26397031634E+02  0.37484863659E+02  0.00000000000E+00 0. -1.
        -12    1    6    6    0    0 -0.12211211065E+02 -0.16713116681E+02  0.31985193697E+03  0.32052098765E+03  0.00000000000E+00 0.  1.
         -5    1    5    5    0  503  0.85094980487E+02 -0.48964344270E+02  0.22402116316E+03  0.24463489991E+03  0.47000000000E+01 0.  1.
<mgrwt>
<rscale>  2 0.19427867E+03</rscale>
<asrwt>0</asrwt>
<pdfrwt beam="1">  1       21 0.10172062E+00 0.19485341E+03</pdfrwt>
<pdfrwt beam="2">  1       21 0.21575079E-01 0.19485341E+03</pdfrwt>
<totfact> 0.15763295E+04</totfact>
</mgrwt>
</event>
<event>
12    1  0.1441827E-001  0.3559671E+03  0.7546771E-02  0.1060348E+00
         21   -1    0    0  504  503  0.00000000000E+00  0.00000000000E+00  0.22649683934E+04  0.22649683934E+04  0.00000000000E+00 0. -1.
         21   -1    0    0  502  504 -0.00000000000E+00 -0.00000000000E+00 -0.12488657368E+03  0.12488657368E+03  0.00000000000E+00 0.  1.
          6    2    1    2  502    0  0.27585566371E+03 -0.13909458480E+03  0.18169591939E+03  0.39965736357E+03  0.17683028703E+03 0.  0.
         24    2    3    3    0    0  0.24176920922E+03 -0.49317489431E+02  0.12522962987E+03  0.28815693718E+03  0.80420115384E+02 0.  0.
         -6    2    1    2    0  503 -0.27585566371E+03  0.13909458480E+03  0.19583859003E+04  0.19901976035E+04  0.17368798374E+03 0.  0.
        -24    2    5    5    0    0 -0.11805242010E+03  0.11951568254E+03  0.83196082201E+03  0.85259453382E+03  0.80859492175E+02 0.  0.
          2    1    4    4  501    0  0.15711301240E+03 -0.70497450523E+02  0.85844563152E+02  0.19241537937E+03  0.00000000000E+00 0. -1.
         -1    1    4    4    0  501  0.84656196819E+02  0.21179961091E+02  0.39385066716E+02  0.95741557810E+02  0.00000000000E+00 0.  1.
          5    1    3    3  502    0  0.34086454489E+02 -0.89777095368E+02  0.56466289520E+02  0.11150042639E+03  0.47000000000E+01 0. -1.
         11    1    6    6    0    0 -0.12170097770E+03  0.12696413521E+03  0.81439849102E+03  0.83317220416E+03  0.00000000000E+00 0. -1.
        -12    1    6    6    0    0  0.36485575936E+01 -0.74484526742E+01  0.17562330987E+02  0.19422329661E+02  0.00000000000E+00 0.  1.
         -5    1    5    5    0  503 -0.15780324361E+03  0.19578902262E+02  0.11264250783E+04  0.11376030697E+04  0.47000000000E+01 0.  1.
<mgrwt>
<rscale>  2 0.35557888E+03</rscale>
<asrwt>0</asrwt>
<pdfrwt beam="1">  1       21 0.34845665E+00 0.35596713E+03</pdfrwt>
<pdfrwt beam="2">  1       21 0.19213321E-01 0.35596713E+03</pdfrwt>
<totfact> 0.37024530E+02</totfact>
</mgrwt>
</event>
<event>
12    1  0.1441827E-001  0.2095840E+03  0.7546771E-02  0.1143382E+00
         21   -1    0    0  504  503  0.00000000000E+00  0.00000000000E+00  0.82099212384E+03  0.82099212384E+03  0.00000000000E+00 0. -1.
         21   -1    0    0  502  504 -0.00000000000E+00 -0.00000000000E+00 -0.56427079117E+02  0.56427079117E+02  0.00000000000E+00 0.  1.
          6    2    1    2  502    0  0.84444243960E+02 -0.59197921082E+02  0.24832289715E+03  0.32025548185E+03  0.17396576734E+03 0.  0.
         24    2    3    3    0    0 -0.89198708373E+01 -0.28212951348E+02  0.64250908831E+02  0.11149362430E+03  0.86180706975E+02 0.  0.
         -6    2    1    2    0  503 -0.84444243960E+02  0.59197921082E+02  0.51624214757E+03  0.55716372111E+03  0.18245611251E+03 0.  0.
        -24    2    5    5    0    0 -0.32754139273E+02 -0.42056166362E+02  0.25464708172E+03  0.27189485561E+03  0.78994439737E+02 0.  0.
          2    1    4    4  501    0 -0.46753676819E+02 -0.12715481269E+02  0.23807596946E+02  0.53985103801E+02  0.00000000000E+00 0. -1.
         -1    1    4    4    0  501  0.37833805982E+02 -0.15497470079E+02  0.40443311884E+02  0.57508520500E+02  0.00000000000E+00 0.  1.
          5    1    3    3  502    0  0.93364114797E+02 -0.30984969734E+02  0.18407198832E+03  0.20876185755E+03  0.47000000000E+01 0. -1.
         11    1    6    6    0    0 -0.16732300043E+02 -0.71868244513E+00  0.20358291703E+03  0.20427063048E+03  0.00000000000E+00 0. -1.
        -12    1    6    6    0    0 -0.16021839231E+02 -0.41337483917E+02  0.51064164683E+02  0.67624225124E+02  0.00000000000E+00 0.  1.
         -5    1    5    5    0  503 -0.51690104687E+02  0.10125408744E+03  0.26159506586E+03  0.28526886551E+03  0.47000000000E+01 0.  1.
<mgrwt>
<rscale>  2 0.20772229E+03</rscale>
<asrwt>0</asrwt>
<pdfrwt beam="1">  1       21 0.12630647E+00 0.20958401E+03</pdfrwt>
<pdfrwt beam="2">  1       21 0.86810897E-02 0.20958401E+03</pdfrwt>
<totfact> 0.47922280E+04</totfact>
</mgrwt>
</event>
<event>
12    1  0.1441827E-001  0.2408430E+03  0.7546771E-02  0.1119351E+00
         21   -1    0    0  504  503  0.00000000000E+00  0.00000000000E+00  0.16864746293E+03  0.16864746293E+03  0.00000000000E+00 0. -1.
         21   -1    0    0  502  504 -0.00000000000E+00 -0.00000000000E+00 -0.11491918032E+04  0.11491918032E+04  0.00000000000E+00 0.  1.
          6    2    1    2  502    0 -0.16589587975E+03  0.16042874045E+02 -0.10419736785E+04  0.10692856220E+04  0.17286925120E+03 0.  0.
         24    2    3    3    0    0 -0.15740661510E+03 -0.39357527898E+02 -0.83946256242E+03  0.85910923350E+03  0.83937023384E+02 0.  0.
         -6    2    1    2    0  503  0.16589587975E+03 -0.16042874045E+02  0.61429338283E+02  0.24855364407E+03  0.17385779722E+03 0.  0.
        -24    2    5    5    0    0  0.83011703359E+02  0.83348360342E+01  0.10063655947E+03  0.15356229900E+03  0.80580706041E+02 0.  0.
          2    1    4    4  501    0 -0.98878911965E+02  0.15947391083E+02 -0.52732709116E+03  0.53675433821E+03  0.00000000000E+00 0. -1.
         -1    1    4    4    0  501 -0.58527703140E+02 -0.55304918981E+02 -0.31213547126E+03  0.32235489529E+03  0.00000000000E+00 0.  1.
          5    1    3    3  502    0 -0.84892646471E+01  0.55400401943E+02 -0.20251111610E+03  0.21017638853E+03  0.47000000000E+01 0. -1.
         13    1    6    6    0    0  0.98806054103E+02  0.29045048251E+01  0.81106137694E+02  0.12786429544E+03  0.00000000000E+00 0. -1.
        -14    1    6    6    0    0 -0.15794350744E+02  0.54303312092E+01  0.19530421780E+02  0.25698003567E+02  0.00000000000E+00 0.  1.
         -5    1    5    5    0  503  0.82884176393E+02 -0.24377710079E+02 -0.39207221191E+02  0.94991345072E+02  0.47000000000E+01 0.  1.
<mgrwt>
<rscale>  2 0.24066464E+03</rscale>
<asrwt>0</asrwt>
<pdfrwt beam="1">  1       21 0.25945764E-01 0.24084300E+03</pdfrwt>
<pdfrwt beam="2">  1       21 0.17679873E+00 0.24084300E+03</pdfrwt>
<totfact> 0.25876179E+03</totfact>
</mgrwt>
</event>
<event>
12    1  0.1441827E-001  0.1840905E+03  0.7546771E-02  0.1166216E+00
         21   -1    0    0  504  503  0.00000000000E+00  0.00000000000E+00  0.23089983289E+03  0.23089983289E+03  0.00000000000E+00 0. -1.
         21   -1    0    0  502  504 -0.00000000000E+00 -0.00000000000E+00 -0.13965668541E+03  0.13965668541E+03  0.00000000000E+00 0. -1.
          6    2    1    2  502    0 -0.21062228892E+02 -0.29024807870E+01  0.54552675854E+02  0.18284529766E+03  0.17321768545E+03 0.  0.
         24    2    3    3    0    0 -0.46938826985E+02  0.51725722621E+01 -0.27784561100E+02  0.96033343412E+02  0.78869590014E+02 0.  0.
         -6    2    1    2    0  503  0.21062228892E+02  0.29024807870E+01  0.36690471631E+02  0.18771122064E+03  0.18285860594E+03 0.  0.
        -24    2    5    5    0    0 -0.17728463503E+02  0.41504350303E+02 -0.34881447738E+02  0.97492310273E+02  0.79064060443E+02 0.  0.
          2    1    4    4  501    0 -0.64536933699E+02 -0.87796860206E+01 -0.71281541347E+01  0.65520296697E+02  0.00000000000E+00 0. -1.
         -1    1    4    4    0  501  0.17598106715E+02  0.13952258283E+02 -0.20656406965E+02  0.30513046715E+02  0.00000000000E+00 0.  1.
          5    1    3    3  502    0  0.25876598092E+02 -0.80750530491E+01  0.82337236954E+02  0.86811954244E+02  0.47000000000E+01 0. -1.
         13    1    6    6    0    0 -0.17451099513E+02 -0.20211263652E+02 -0.21642704855E+02  0.34372121350E+02  0.00000000000E+00 0. -1.
        -14    1    6    6    0    0 -0.27736398984E+00  0.61715613955E+02 -0.13238742883E+02  0.63120188923E+02  0.00000000000E+00 0.  1.
         -5    1    5    5    0  503  0.38790692395E+02 -0.38601869516E+02  0.71571919369E+02  0.90218910372E+02  0.47000000000E+01 0.  1.
<mgrwt>
<rscale>  2 0.18164915E+03</rscale>
<asrwt>0</asrwt>
<pdfrwt beam="1">  1       21 0.35523051E-01 0.18409050E+03</pdfrwt>
<pdfrwt beam="2">  1       21 0.21485644E-01 0.18409050E+03</pdfrwt>
<totfact> 0.15462840E+05</totfact>
</mgrwt>
</event>
<event>
12    1  0.1441827E-001  0.2646346E+03  0.7546771E-02  0.1104813E+00
         21   -1    0    0  504  503  0.00000000000E+00  0.00000000000E+00  0.10132623416E+04  0.10132623416E+04  0.00000000000E+00 0.  1.
         21   -1    0    0  502  504 -0.00000000000E+00 -0.00000000000E+00 -0.17180267992E+03  0.17180267992E+03  0.00000000000E+00 0. -1.
          6    2    1    2  502    0  0.15231760439E+03 -0.13004294468E+03 -0.38113191867E+02  0.26736511668E+03  0.17297303303E+03 0.  0.
         24    2    3    3    0    0  0.46101773272E+01 -0.54171197134E+02 -0.27503793340E+02  0.10090594624E+03  0.80434936470E+02 0.  0.
         -6    2    1    2    0  503 -0.15231760439E+03  0.13004294468E+03  0.87957285350E+03  0.91769990480E+03  0.16856123688E+03 0.  0.
        -24    2    5    5    0    0 -0.45429746296E+02  0.78970458747E+02  0.62645275563E+03  0.63819089426E+03  0.80897263676E+02 0.  0.
          4    1    4    4  501    0  0.92995877434E+01 -0.70999402176E+02 -0.37445574653E+02  0.80805745481E+02  0.00000000000E+00 0. -1.
         -3    1    4    4    0  501 -0.46894104162E+01  0.16828205042E+02  0.99417813131E+01  0.20100200762E+02  0.00000000000E+00 0.  1.
          5    1    3    3  502    0  0.14770742706E+03 -0.75871747542E+02 -0.10609398527E+02  0.16645917043E+03  0.47000000000E+01 0. -1.
         13    1    6    6    0    0  0.77089965519E+01 -0.12107465345E+02  0.12156218929E+03  0.12240663875E+03  0.00000000000E+00 0. -1.
        -14    1    6    6    0    0 -0.53138742848E+02  0.91077924092E+02  0.50489056634E+03  0.51578425551E+03  0.00000000000E+00 0.  1.
         -5    1    5    5    0  503 -0.10688785809E+03  0.51072485929E+02  0.25312009787E+03  0.27950901054E+03  0.47000000000E+01 0.  1.
<mgrwt>
<rscale>  2 0.26391612E+03</rscale>
<asrwt>0</asrwt>
<pdfrwt beam="1">  1       21 0.15588651E+00 0.26463464E+03</pdfrwt>
<pdfrwt beam="2">  1       21 0.26431182E-01 0.26463464E+03</pdfrwt>
<totfact> 0.34751000E+03</totfact>
</mgrwt>
</event>
<event>
12    1  0.1441827E-001  0.2565568E+03  0.7546771E-02  0.1109297E+00
         21   -1    0    0  504  503  0.00000000000E+00  0.00000000000E+00  0.82079490887E+03  0.82079490887E+03  0.00000000000E+00 0. -1.
         21   -1    0    0  502  504 -0.00000000000E+00 -0.00000000000E+00 -0.88158447674E+02  0.88158447674E+02  0.00000000000E+00 0. -1.
          6    2    1    2  502    0 -0.15834385861E+03 -0.10495466664E+03  0.50382203220E+03  0.56518390869E+03  0.17177878477E+03 0.  0.
         24    2    3    3    0    0 -0.50343451103E+02 -0.10007160462E+03  0.20096660205E+03  0.24357633122E+03  0.79956643682E+02 0.  0.
         -6    2    1    2    0  503  0.15834385861E+03  0.10495466664E+03  0.22881442899E+03  0.34376944785E+03  0.17243297467E+03 0.  0.
        -24    2    5    5    0    0  0.23200396969E+02  0.10438639644E+02  0.11865220898E+03  0.14538890621E+03  0.80077236066E+02 0.  0.
          2    1    4    4  501    0 -0.37559716791E+02 -0.30097092279E+02  0.14585802957E+03  0.15359404962E+03  0.00000000000E+00 0. -1.
         -1    1    4    4    0  501 -0.12783734313E+02 -0.69974512337E+02  0.55108572479E+02  0.89982281592E+02  0.00000000000E+00 0.  1.
          5    1    3    3  502    0 -0.10800040751E+03 -0.48830620279E+01  0.30285543015E+03  0.32160757747E+03  0.47000000000E+01 0. -1.
         13    1    6    6    0    0  0.51917474567E+02 -0.68005056919E+00  0.86364619806E+02  0.10077070104E+03  0.00000000000E+00 0. -1.
        -14    1    6    6    0    0 -0.28717077598E+02  0.11118690214E+02  0.32287589178E+02  0.44618205172E+02  0.00000000000E+00 0.  1.
         -5    1    5    5    0  503  0.13514346164E+03  0.94516027000E+02  0.11016222001E+03  0.19838054164E+03  0.47000000000E+01 0.  1.
<mgrwt>
<rscale>  2 0.25644692E+03</rscale>
<asrwt>0</asrwt>
<pdfrwt beam="1">  1       21 0.12627613E+00 0.25655680E+03</pdfrwt>
<pdfrwt beam="2">  1       21 0.13562839E-01 0.25655680E+03</pdfrwt>
<totfact> 0.21113753E+04</totfact>
</mgrwt>
</event>
<event>
12    1  0.1441827E-001  0.1865133E+03  0.7546771E-02  0.1161892E+00
         21   -1    0    0  504  503  0.00000000000E+00  0.00000000000E+00  0.13795464234E+03  0.13795464234E+03  0.00000000000E+00 0. -1.
         21   -1    0    0  502  504 -0.00000000000E+00 -0.00000000000E+00 -0.26182112561E+03  0.26182112561E+03  0.00000000000E+00 0.  1.
          6    2    1    2  502    0 -0.12640559406E+02 -0.70922293095E+02 -0.20605003289E+02  0.18658541227E+03  0.17087947363E+03 0.  0.
         24    2    3    3    0    0  0.46987862592E+01 -0.12267854338E+02 -0.69643038125E+02  0.10804997469E+03  0.81560195129E+02 0.  0.
         -6    2    1    2    0  503  0.12640559406E+02  0.70922293095E+02 -0.10326147998E+03  0.21319035568E+03  0.17203906274E+03 0.  0.
        -24    2    5    5    0    0  0.72496071853E+02  0.25711009749E+02 -0.46817683965E+02  0.11919708666E+03  0.78098101648E+02 0.  0.
          4    1    4    4  501    0 -0.37277803771E+02  0.29635869295E+01 -0.25519141432E+02  0.45272995051E+02  0.00000000000E+00 0. -1.
         -3    1    4    4    0  501  0.41976590030E+02 -0.15231441267E+02 -0.44123896693E+02  0.62776979642E+02  0.00000000000E+00 0.  1.
          5    1    3    3  502    0 -0.17339345665E+02 -0.58654438758E+02  0.49038034836E+02  0.78535437572E+02  0.47000000000E+01 0. -1.
         11    1    6    6    0    0 -0.25352630862E+01 -0.20689391479E+02 -0.13814005661E+02  0.25006103876E+02  0.00000000000E+00 0. -1.
        -12    1    6    6    0    0  0.75031334939E+02  0.46400401228E+02 -0.33003678304E+02  0.94190982787E+02  0.00000000000E+00 0.  1.
         -5    1    5    5    0  503 -0.59855512447E+02  0.45211283346E+02 -0.56443796017E+02  0.93993269019E+02  0.47000000000E+01 0.  1.
<mgrwt>
<rscale>  2 0.18624541E+03</rscale>
<asrwt>0</asrwt>
<pdfrwt beam="1">  1       21 0.21223792E-01 0.18651326E+03</pdfrwt>
<pdfrwt beam="2">  1       21 0.40280172E-01 0.18651326E+03</pdfrwt>
<totfact> 0.12292232E+05</totfact>
</mgrwt>
</event>
<event>
12    1  0.1441827E-001  0.2544588E+03  0.7546771E-02  0.1111881E+00
         21   -1    0    0  504  503  0.00000000000E+00  0.00000000000E+00  0.91564219318E+03  0.91564219318E+03  0.00000000000E+00 0.  1.
         21   -1    0    0  502  504 -0.00000000000E+00 -0.00000000000E+00 -0.41067845730E+03  0.41067845730E+03  0.00000000000E+00 0. -1.
          6    2    1    2  502    0  0.17395028301E+03  0.25278137620E+02 -0.35371338233E+03  0.43073387085E+03  0.17181625494E+03 0.  0.
         24    2    3    3    0    0  0.18534311371E+03  0.46558862993E+02 -0.25161537790E+03  0.32571597537E+03  0.79125221595E+02 0.  0.
         -6    2    1    2    0  503 -0.17395028301E+03 -0.25278137620E+02  0.85867711820E+03  0.89558677963E+03  0.18398804668E+03 0.  0.
        -24    2    5    5    0    0 -0.81156063361E+02 -0.25783185606E+02  0.21011538450E+03  0.24040326740E+03  0.79963597300E+02 0.  0.
          2    1    4    4  501    0  0.18079178566E+03  0.24924769402E+02 -0.23736079422E+03  0.29941118972E+03  0.00000000000E+00 0. -1.
         -1    1    4    4    0  501  0.45513280495E+01  0.21634093591E+02 -0.14254583672E+02  0.26304785652E+02  0.00000000000E+00 0.  1.
          5    1    3    3  502    0 -0.11392830697E+02 -0.21280725373E+02 -0.10209800443E+03  0.10501789549E+03  0.47000000000E+01 0. -1.
         11    1    6    6    0    0 -0.36330798217E+01 -0.35056967235E+02  0.40547680168E+02  0.53724338877E+02  0.00000000000E+00 0. -1.
        -12    1    6    6    0    0 -0.77522983539E+02  0.92737816293E+01  0.16956770433E+03  0.18667892852E+03  0.00000000000E+00 0.  1.
         -5    1    5    5    0  503 -0.92794219651E+02  0.50504798617E+00  0.64856173370E+03  0.65518351223E+03  0.47000000000E+01 0.  1.
<mgrwt>
<rscale>  2 0.25226638E+03</rscale>
<asrwt>0</asrwt>
<pdfrwt beam="1">  1       21 0.14086803E+00 0.25445881E+03</pdfrwt>
<pdfrwt beam="2">  1       21 0.63181301E-01 0.25445881E+03</pdfrwt>
<totfact> 0.77003218E+02</totfact>
</mgrwt>
</event>
<event>
12    1  0.1441827E-001  0.1823369E+03  0.7546771E-02  0.1165649E+00
         21   -1    0    0  504  503  0.00000000000E+00  0.00000000000E+00  0.10258345624E+03  0.10258345624E+03  0.00000000000E+00 0.  1.
         21   -1    0    0  502  504 -0.00000000000E+00 -0.00000000000E+00 -0.36587588667E+03  0.36587588667E+03  0.00000000000E+00 0.  1.
          6    2    1    2  502    0  0.54889369325E+02  0.17521721190E+02 -0.21154494867E+03  0.27928125554E+03  0.17299393286E+03 0.  0.
         24    2    3    3    0    0  0.10661501046E+03  0.15765652896E+02 -0.12434395987E+03  0.17776904851E+03  0.67268848552E+02 0.  0.
         -6    2    1    2    0  503 -0.54889369325E+02 -0.17521721190E+02 -0.51747481754E+02  0.18917808737E+03  0.17259980676E+03 0.  0.
        -24    2    5    5    0    0  0.16034054392E+02  0.26443472909E+01  0.21817917384E+02  0.84915149085E+02  0.80439278667E+02 0.  0.
          2    1    4    4  501    0  0.67136826471E+02  0.35124263503E+02 -0.10560116736E+03  0.12997181965E+03  0.00000000000E+00 0. -1.
         -1    1    4    4    0  501  0.39478183992E+02 -0.19358610607E+02 -0.18742792511E+02  0.47797228864E+02  0.00000000000E+00 0.  1.
          5    1    3    3  502    0 -0.51725641137E+02  0.17560682937E+01 -0.87200988807E+02  0.10151220703E+03  0.47000000000E+01 0. -1.
         13    1    6    6    0    0  0.42004829841E+02  0.58814525760E+01 -0.10138331437E+02  0.43609436808E+02  0.00000000000E+00 0. -1.
        -14    1    6    6    0    0 -0.25970775449E+02 -0.32371052851E+01  0.31956248821E+02  0.41305712277E+02  0.00000000000E+00 0.  1.
         -5    1    5    5    0  503 -0.70923423718E+02 -0.20166068481E+02 -0.73565399137E+02  0.10426293829E+03  0.47000000000E+01 0.  1.
<mgrwt>
<rscale>  2 0.18224338E+03</rscale>
<asrwt>0</asrwt>
<pdfrwt beam="1">  1       21 0.15782070E-01 0.18233693E+03</pdfrwt>
<pdfrwt beam="2">  1       21 0.56288598E-01 0.18233693E+03</pdfrwt>
<totfact> 0.10658925E+05</totfact>
</mgrwt>
</event>
<event>
12    1  0.1441827E-001  0.1868350E+03  0.7546771E-02  0.1161424E+00
         21   -1    0    0  504  503  0.00000000000E+00  0.00000000000E+00  0.50759698114E+02  0.50759698114E+02  0.00000000000E+00 0.  1.
         21   -1    0    0  502  504 -0.00000000000E+00 -0.00000000000E+00 -0.10556096405E+04  0.10556096405E+04  0.00000000000E+00 0.  1.
          6    2    1    2  502    0 -0.37404093626E+02 -0.60986674553E+02 -0.82925585927E+03  0.84997007747E+03  0.17223649951E+03 0.  0.
         24    2    3    3    0    0  0.91939198866E+00 -0.24953475248E+02 -0.18685852383E+03  0.20540548987E+03  0.81558482901E+02 0.  0.
         -6    2    1    2    0  503  0.37404093626E+02  0.60986674553E+02 -0.17559408313E+03  0.25639926116E+03  0.17259449122E+03 0.  0.
        -24    2    5    5    0    0  0.82819352810E+02  0.72440412794E+02 -0.10623749473E+03  0.17257706696E+03  0.79936100403E+02 0.  0.
          2    1    4    4  501    0 -0.75656249763E+01  0.21593655321E+02 -0.15503846334E+02  0.27638630258E+02  0.00000000000E+00 0. -1.
         -1    1    4    4    0  501  0.84850169649E+01 -0.46547130569E+02 -0.17135467750E+03  0.17776685962E+03  0.00000000000E+00 0.  1.
          5    1    3    3  502    0 -0.38323485615E+02 -0.36033199305E+02 -0.64239733544E+03  0.64456458760E+03  0.47000000000E+01 0. -1.
         11    1    6    6    0    0  0.40047958648E+01  0.38279693213E+02 -0.34808740620E+01  0.38645695577E+02  0.00000000000E+00 0. -1.
        -12    1    6    6    0    0  0.78814556946E+02  0.34160719581E+02 -0.10275662067E+03  0.13393137138E+03  0.00000000000E+00 0.  1.
         -5    1    5    5    0  503 -0.45415259184E+02 -0.11453738241E+02 -0.69356588400E+02  0.83822194203E+02  0.47000000000E+01 0.  1.
<mgrwt>
<rscale>  2 0.18675223E+03</rscale>
<asrwt>0</asrwt>
<pdfrwt beam="1">  1       21 0.78091851E-02 0.18683495E+03</pdfrwt>
<pdfrwt beam="2">  1       21 0.16240147E+00 0.18683495E+03</pdfrwt>
<totfact> 0.30368488E+04</totfact>
</mgrwt>
</event>
<event>
12    1  0.1441827E-001  0.3971998E+03  0.7546771E-02  0.1044829E+00
         21   -1    0    0  504  503  0.00000000000E+00  0.00000000000E+00  0.12034721538E+04  0.12034721538E+04  0.00000000000E+00 0.  1.
         21   -1    0    0  502  504 -0.00000000000E+00 -0.00000000000E+00 -0.14049968639E+03  0.14049968639E+03  0.00000000000E+00 0. -1.
          6    2    1    2  502    0  0.10300848423E+03 -0.34313953290E+03  0.35555565518E+03  0.53309239129E+03  0.17149981592E+03 0.  0.
         24    2    3    3    0    0  0.82686858449E+02 -0.22304045738E+03  0.14559810894E+03  0.29031467889E+03  0.80620352675E+02 0.  0.
         -6    2    1    2    0  503 -0.10300848423E+03  0.34313953290E+03  0.70741681228E+03  0.81087944894E+03  0.16950353257E+03 0.  0.
        -24    2    5    5    0    0 -0.11644911648E+03  0.17647062127E+03  0.45693142607E+03  0.50967487493E+03  0.79245650378E+02 0.  0.
          4    1    4    4  501    0  0.70928246443E+02 -0.15364025153E+03  0.60119653064E+02  0.17958428583E+03  0.00000000000E+00 0. -1.
         -3    1    4    4    0  501  0.11758612006E+02 -0.69400205852E+02  0.85478455877E+02  0.11073039306E+03  0.00000000000E+00 0.  1.
          5    1    3    3  502    0  0.20321625782E+02 -0.12009907552E+03  0.20995754624E+03  0.24277771240E+03  0.47000000000E+01 0. -1.
         13    1    6    6    0    0 -0.20656507305E+02  0.10165138445E+03  0.19333757038E+03  0.21940627014E+03  0.00000000000E+00 0. -1.
        -14    1    6    6    0    0 -0.95792609172E+02  0.74819236814E+02  0.26359385569E+03  0.29026860479E+03  0.00000000000E+00 0.  1.
         -5    1    5    5    0  503  0.13440632246E+02  0.16666891164E+03  0.25048538621E+03  0.30120457401E+03  0.47000000000E+01 0.  1.
<mgrwt>
<rscale>  2 0.39698515E+03</rscale>
<asrwt>0</asrwt>
<pdfrwt beam="1">  1       21 0.18514955E+00 0.39719979E+03</pdfrwt>
<pdfrwt beam="2">  1       21 0.21615337E-01 0.39719979E+03</pdfrwt>
<totfact> 0.29305616E+03</totfact>
</mgrwt>
</event>
<event>
12    1  0.1441827E-001  0.2032889E+03  0.7546771E-02  0.1147133E+00
         21   -1    0    0  504  503  0.00000000000E+00  0.00000000000E+00  0.34854076359E+03  0.34854076359E+03  0.00000000000E+00 0.  1.
         21   -1    0    0  502  504 -0.00000000000E+00 -0.00000000000E+00 -0.12000671941E+03  0.12000671941E+03  0.00000000000E+00 0.  1.
          6    2    1    2  502    0  0.82127260266E+02  0.63884879199E+02  0.85517846359E+02  0.22054405968E+03  0.17464310907E+03 0.  0.
         24    2    3    3    0    0  0.24244274051E+02  0.10721699169E+03  0.66848211193E+02  0.14571921525E+03  0.68426151599E+02 0.  0.
         -6    2    1    2    0  503 -0.82127260266E+02 -0.63884879199E+02  0.14301619782E+03  0.24800342331E+03  0.17385597622E+03 0.  0.
        -24    2    5    5    0    0 -0.19556402351E+01 -0.45441968310E+02  0.13753939593E+03  0.16542185770E+03  0.79865565536E+02 0.  0.
          2    1    4    4  501    0  0.65250082857E+01  0.70875212759E+02  0.76147671797E+02  0.10423214205E+03  0.00000000000E+00 0. -1.
         -1    1    4    4    0  501  0.17719265765E+02  0.36341778932E+02 -0.92994606039E+01  0.41487073200E+02  0.00000000000E+00 0.  1.
          5    1    3    3  502    0  0.57882986215E+02 -0.43332112493E+02  0.18669635166E+02  0.74824844427E+02  0.47000000000E+01 0. -1.
         13    1    6    6    0    0  0.10925924312E+02 -0.46505547797E+00 -0.73432952030E+01  0.13172550364E+02  0.00000000000E+00 0. -1.
        -14    1    6    6    0    0 -0.12881564547E+02 -0.44976912832E+02  0.14488269114E+03  0.15224930734E+03  0.00000000000E+00 0.  1.
         -5    1    5    5    0  503 -0.80171620031E+02 -0.18442910889E+02  0.54768018878E+01  0.82581565614E+02  0.47000000000E+01 0.  1.
<mgrwt>
<rscale>  2 0.20311974E+03</rscale>
<asrwt>0</asrwt>
<pdfrwt beam="1">  1       21 0.53621655E-01 0.20328891E+03</pdfrwt>
<pdfrwt beam="2">  1       21 0.18462572E-01 0.20328891E+03</pdfrwt>
<totfact> 0.87760223E+04</totfact>
</mgrwt>
</event>
<event>
12    1  0.1441827E-001  0.1824089E+03  0.7546771E-02  0.1166175E+00
         21   -1    0    0  504  503  0.00000000000E+00  0.00000000000E+00  0.18111819278E+03  0.18111819278E+03  0.00000000000E+00 0. -1.
         21   -1    0    0  502  504 -0.00000000000E+00 -0.00000000000E+00 -0.55659311814E+03  0.55659311814E+03  0.00000000000E+00 0. -1.
          6    2    1    2  502    0  0.10887711510E+02  0.56236874091E+02 -0.49031683144E+03  0.52216163899E+03  0.17017947518E+03 0.  0.
         24    2    3    3    0    0 -0.26854021780E+02 -0.24089181241E+02 -0.28874411547E+03  0.30186555773E+03  0.80300831790E+02 0.  0.
         -6    2    1    2    0  503 -0.10887711510E+02 -0.56236874091E+02  0.11484190608E+03  0.21554967193E+03  0.17318160817E+03 0.  0.
        -24    2    5    5    0    0 -0.17116546627E+02 -0.96478296967E+02  0.11873534173E+03  0.17437420176E+03  0.81897758886E+02 0.  0.
          2    1    4    4  501    0 -0.28180402502E+01 -0.21890263105E+02 -0.27102808315E+03  0.27192525963E+03  0.00000000000E+00 0. -1.
         -1    1    4    4    0  501 -0.24035981529E+02 -0.21989181356E+01 -0.17716032321E+02  0.29940298099E+02  0.00000000000E+00 0.  1.
          5    1    3    3  502    0  0.37741733290E+02  0.80326055331E+02 -0.20157271597E+03  0.22029608126E+03  0.47000000000E+01 0. -1.
         13    1    6    6    0    0 -0.19157968296E+02 -0.28702265134E+02  0.97333881654E+02  0.10327019072E+03  0.00000000000E+00 0. -1.
        -14    1    6    6    0    0  0.20414216684E+01 -0.67776031833E+02  0.21401460079E+02  0.71104011047E+02  0.00000000000E+00 0.  1.
         -5    1    5    5    0  503  0.62288351172E+01  0.40241422876E+02 -0.38934356573E+01  0.41175470164E+02  0.47000000000E+01 0.  1.
<mgrwt>
<rscale>  2 0.18169272E+03</rscale>
<asrwt>0</asrwt>
<pdfrwt beam="1">  1       21 0.27864337E-01 0.18240887E+03</pdfrwt>
<pdfrwt beam="2">  1       21 0.85629710E-01 0.18240887E+03</pdfrwt>
<totfact> 0.14586287E+04</totfact>
</mgrwt>
</event>
<event>
12    1  0.1441827E-001  0.2588510E+03  0.7546771E-02  0.1107982E+00
         21   -1    0    0  504  503  0.00000000000E+00  0.00000000000E+00  0.48569360997E+03  0.48569360997E+03  0.00000000000E+00 0. -1.
         21   -1    0    0  502  504 -0.00000000000E+00 -0.00000000000E+00 -0.15608821584E+03  0.15608821584E+03  0.00000000000E+00 0. -1.
          6    2    1    2  502    0 -0.18991433628E+03 -0.26315623675E+02  0.53619132468E+02  0.26340074055E+03  0.17246730583E+03 0.  0.
         24    2    3    3    0    0 -0.15353165015E+03  0.34542916043E+02  0.53461858383E+01  0.17749480895E+03  0.81918525729E+02 0.  0.
         -6    2    1    2    0  503  0.18991433628E+03  0.26315623675E+02  0.27598626166E+03  0.37838108527E+03  0.17390762458E+03 0.  0.
        -24    2    5    5    0    0  0.12782012440E+03  0.68185946741E+02  0.24711809020E+03  0.29798036123E+03  0.82083114203E+02 0.  0.
          4    1    4    4  501    0 -0.14394895499E+03  0.42593602582E+02  0.26958871176E+02  0.15251982612E+03  0.00000000000E+00 0. -1.
         -3    1    4    4    0  501 -0.95826951551E+01 -0.80506865388E+01 -0.21612685338E+02  0.24974982837E+02  0.00000000000E+00 0.  1.
          5    1    3    3  502    0 -0.36382686136E+02 -0.60858539718E+02  0.48272946630E+02  0.85905931596E+02  0.47000000000E+01 0. -1.
         13    1    6    6    0    0  0.11838204658E+03  0.56663368000E+02  0.14825465954E+03  0.19800123813E+03  0.00000000000E+00 0. -1.
        -14    1    6    6    0    0  0.94380778263E+01  0.11522578741E+02  0.98863430658E+02  0.99979123098E+02  0.00000000000E+00 0.  1.
         -5    1    5    5    0  503  0.62094211880E+02 -0.41870323066E+02  0.28868171460E+02  0.80400724040E+02  0.47000000000E+01 0.  1.
<mgrwt>
<rscale>  2 0.25860927E+03</rscale>
<asrwt>0</asrwt>
<pdfrwt beam="1">  1       21 0.74722093E-01 0.25885098E+03</pdfrwt>
<pdfrwt beam="2">  1       21 0.24013572E-01 0.25885098E+03</pdfrwt>
<totfact> 0.25338892E+04</totfact>
</mgrwt>
</event>
<event>
12    1  0.1441827E-001  0.2325609E+03  0.7546771E-02  0.1124965E+00
         21   -1    0    0  504  503  0.00000000000E+00  0.00000000000E+00  0.37931971779E+03  0.37931971779E+03  0.00000000000E+00 0. -1.
         21   -1    0    0  502  504 -0.00000000000E+00 -0.00000000000E+00 -0.18761124300E+03  0.18761124300E+03  0.00000000000E+00 0. -1.
          6    2    1    2  502    0  0.10372987350E+03  0.11444499338E+03 -0.43740593051E+02  0.23599165166E+03  0.17297767777E+03 0.  0.
         24    2    3    3    0    0 -0.10948419880E+02  0.73801342477E+02 -0.13121567238E+02  0.11044233038E+03  0.80366826268E+02 0.  0.
         -6    2    1    2    0  503 -0.10372987350E+03 -0.11444499338E+03  0.23544906784E+03  0.33093930913E+03  0.17385919480E+03 0.  0.
        -24    2    5    5    0    0 -0.12311023207E+02  0.40228397364E+01  0.10405995038E+03  0.13174788397E+03  0.79757677530E+02 0.  0.
          2    1    4    4  501    0  0.32057408484E+02  0.44350484724E+02 -0.19136824997E+02  0.57972933382E+02  0.00000000000E+00 0. -1.
         -1    1    4    4    0  501 -0.43005828365E+02  0.29450857753E+02  0.60152577587E+01  0.52469397001E+02  0.00000000000E+00 0.  1.
          5    1    3    3  502    0  0.11467829338E+03  0.40643650901E+02 -0.30619025813E+02  0.12554932128E+03  0.47000000000E+01 0. -1.
         11    1    6    6    0    0  0.10442710082E+02 -0.16582680530E+02  0.98649957129E+02  0.10057757965E+03  0.00000000000E+00 0. -1.
        -12    1    6    6    0    0 -0.22753733289E+02  0.20605520267E+02  0.54099932508E+01  0.31170304314E+02  0.00000000000E+00 0.  1.
         -5    1    5    5    0  503 -0.91418850292E+02 -0.11846783311E+03  0.13138911746E+03  0.19919142517E+03  0.47000000000E+01 0.  1.
<mgrwt>
<rscale>  2 0.23239614E+03</rscale>
<asrwt>0</asrwt>
<pdfrwt beam="1">  1       21 0.58356879E-01 0.23256088E+03</pdfrwt>
<pdfrwt beam="2">  1       21 0.28863268E-01 0.23256088E+03</pdfrwt>
<totfact> 0.30944218E+04</totfact>
</mgrwt>
</event>
<event>
12    1  0.1441827E-001  0.2189436E+03  0.7546771E-02  0.1136320E+00
         21   -1    0    0  504  503  0.00000000000E+00  0.00000000000E+00  0.28154280969E+03  0.28154280969E+03  0.00000000000E+00 0. -1.
         21   -1    0    0  502  504 -0.00000000000E+00 -0.00000000000E+00 -0.41693952188E+03  0.41693952188E+03  0.00000000000E+00 0.  1.
          6    2    1    2  502    0 -0.11869480263E+03 -0.62042559985E+01 -0.33935445268E+03  0.39925822292E+03  0.17354750085E+03 0.  0.
         24    2    3    3    0    0 -0.51563247484E+02 -0.78923943857E+02 -0.17200894011E+03  0.20478095105E+03  0.58825207421E+02 0.  0.
         -6    2    1    2    0  503  0.11869480263E+03  0.62042559985E+01  0.20395774050E+03  0.29922410865E+03  0.18387321264E+03 0.  0.
        -24    2    5    5    0    0  0.97273061976E+02 -0.65122321652E+02  0.11285663638E+03  0.18146217583E+03  0.80553929244E+02 0.  0.
          4    1    4    4  501    0 -0.53206310846E+02 -0.62059250288E+02 -0.92316124342E+02  0.12330664570E+03  0.00000000000E+00 0. -1.
         -3    1    4    4    0  501  0.16430633618E+01 -0.16864693569E+02 -0.79692815773E+02  0.81474305350E+02  0.00000000000E+00 0.  1.
          5    1    3    3  502    0 -0.67131555145E+02  0.72719687858E+02 -0.16734551257E+03  0.19447727187E+03  0.47000000000E+01 0. -1.
         11    1    6    6    0    0  0.10836431351E+03 -0.47463190529E+02  0.80957670338E+02  0.14335174671E+03  0.00000000000E+00 0. -1.
        -12    1    6    6    0    0 -0.11091251538E+02 -0.17659131123E+02  0.31898966044E+02  0.38110429115E+02  0.00000000000E+00 0.  1.
         -5    1    5    5    0  503  0.21421740654E+02  0.71326577651E+02  0.91101104116E+02  0.11776193283E+03  0.47000000000E+01 0.  1.
<mgrwt>
<rscale>  2 0.21676197E+03</rscale>
<asrwt>0</asrwt>
<pdfrwt beam="1">  1       21 0.43314279E-01 0.21894362E+03</pdfrwt>
<pdfrwt beam="2">  1       21 0.64144541E-01 0.21894362E+03</pdfrwt>
<totfact> 0.11298318E+04</totfact>
</mgrwt>
</event>
<event>
12    1  0.1441827E-001  0.2041429E+03  0.7546771E-02  0.1146312E+00
         21   -1    0    0  504  503  0.00000000000E+00  0.00000000000E+00  0.23151366786E+03  0.23151366786E+03  0.00000000000E+00 0. -1.
         21   -1    0    0  502  504 -0.00000000000E+00 -0.00000000000E+00 -0.20963401963E+03  0.20963401963E+03  0.00000000000E+00 0.  1.
          6    2    1    2  502    0 -0.10300600138E+03 -0.33970309309E+02 -0.72113043393E+02  0.21640573658E+03  0.17282052414E+03 0.  0.
         24    2    3    3    0    0 -0.25516229748E+02 -0.42311148577E+02 -0.96433971578E+02  0.13462657142E+03  0.79896755781E+02 0.  0.
         -6    2    1    2    0  503  0.10300600138E+03  0.33970309309E+02  0.93992691621E+02  0.22474195090E+03  0.17294536763E+03 0.  0.
        -24    2    5    5    0    0  0.59607490034E+01  0.60233514391E+02  0.27980820579E+02  0.10437919060E+03  0.80302442836E+02 0.  0.
          4    1    4    4  501    0 -0.49699608349E+02 -0.44488847885E+02 -0.54357958216E+02  0.86047058506E+02  0.00000000000E+00 0. -1.
         -3    1    4    4    0  501  0.24183378600E+02  0.21776993078E+01 -0.42076013362E+02  0.48579512917E+02  0.00000000000E+00 0.  1.
          5    1    3    3  502    0 -0.77489771627E+02  0.83408392673E+01  0.24320928185E+02  0.81779165160E+02  0.47000000000E+01 0. -1.
         11    1    6    6    0    0 -0.28244751875E+02 -0.25316080946E+01  0.24008933848E+01  0.28459433183E+02  0.00000000000E+00 0. -1.
        -12    1    6    6    0    0  0.34205500879E+02  0.62765122486E+02  0.25579927194E+02  0.75919757417E+02  0.00000000000E+00 0.  1.
         -5    1    5    5    0  503  0.97045252372E+02 -0.26263205082E+02  0.66011871042E+02  0.12036276030E+03  0.47000000000E+01 0.  1.
<mgrwt>
<rscale>  2 0.20411644E+03</rscale>
<asrwt>0</asrwt>
<pdfrwt beam="1">  1       21 0.35617488E-01 0.20414289E+03</pdfrwt>
<pdfrwt beam="2">  1       21 0.32251387E-01 0.20414289E+03</pdfrwt>
<totfact> 0.69938964E+04</totfact>
</mgrwt>
</event>
<event>
12    1  0.1441827E-001  0.2113537E+03  0.7546771E-02  0.1140633E+00
         21   -1    0    0  504  503  0.00000000000E+00  0.00000000000E+00  0.79585832777E+03  0.79585832777E+03  0.00000000000E+00 0.  1.
         21   -1    0    0  502  504 -0.00000000000E+00 -0.00000000000E+00 -0.72979056644E+02  0.72979056644E+02  0.00000000000E+00 0.  1.
          6    2    1    2  502    0 -0.71790370424E+02 -0.99024157651E+02  0.15202347142E+03  0.26034886552E+03  0.17236807950E+03 0.  0.
         24    2    3    3    0    0 -0.51027193903E+02 -0.88968182220E+02  0.25089665071E+02  0.13125001450E+03  0.77961291982E+02 0.  0.
         -6    2    1    2    0  503  0.71790370424E+02  0.99024157651E+02  0.57085579971E+03  0.60848851890E+03  0.17152927588E+03 0.  0.
        -24    2    5    5    0    0  0.10688688396E+03  0.79627179409E+02  0.33825341650E+03  0.37240809467E+03  0.80666731315E+02 0.  0.
          2    1    4    4  501    0 -0.44908545251E+02 -0.26911970360E+02 -0.18101295089E+02  0.55395744143E+02  0.00000000000E+00 0. -1.
         -1    1    4    4    0  501 -0.61186486520E+01 -0.62056211859E+02  0.43190960160E+02  0.75854270356E+02  0.00000000000E+00 0.  1.
          5    1    3    3  502    0 -0.20763176521E+02 -0.10055975432E+02  0.12693380635E+03  0.12909885102E+03  0.47000000000E+01 0. -1.
         13    1    6    6    0    0 -0.62825308771E+01  0.29985887215E+02  0.48021588603E+02  0.56962238354E+02  0.00000000000E+00 0. -1.
        -14    1    6    6    0    0  0.11316941483E+03  0.49641292195E+02  0.29023182790E+03  0.31544585632E+03  0.00000000000E+00 0.  1.
         -5    1    5    5    0  503 -0.35096513532E+02  0.19396978242E+02  0.23260238321E+03  0.23608042422E+03  0.47000000000E+01 0.  1.
<mgrwt>
<rscale>  2 0.21118263E+03</rscale>
<asrwt>0</asrwt>
<pdfrwt beam="1">  1       21 0.12243974E+00 0.21135372E+03</pdfrwt>
<pdfrwt beam="2">  1       21 0.11227548E-01 0.21135372E+03</pdfrwt>
<totfact> 0.32839362E+04</totfact>
</mgrwt>
</event>
<event>
12    1  0.1441827E-001  0.1757842E+03  0.7546771E-02  0.1172286E+00
         21   -1    0    0  504  503  0.00000000000E+00  0.00000000000E+00  0.35495509253E+03  0.35495509253E+03  0.00000000000E+00 0.  1.
         21   -1    0    0  502  504 -0.00000000000E+00 -0.00000000000E+00 -0.94315802474E+02  0.94315802474E+02  0.00000000000E+00 0.  1.
          6    2    1    2  502    0  0.34465666245E+02  0.69007743004E+00  0.64717476652E+02  0.18604962831E+03  0.17099050867E+03 0.  0.
         24    2    3    3    0    0  0.30458366585E+02  0.19410676835E+02 -0.26869126581E+02  0.92365503806E+02  0.80653269369E+02 0.  0.
         -6    2    1    2    0  503 -0.34465666245E+02 -0.69007743004E+00  0.19592181340E+03  0.26322126669E+03  0.17237087896E+03 0.  0.
        -24    2    5    5    0    0 -0.57161515535E+02 -0.46785426579E+02  0.73471313527E+02  0.13034501709E+03  0.78329270205E+02 0.  0.
          2    1    4    4  501    0  0.10428308054E+02 -0.31728936708E+02 -0.11670067464E+02  0.35378885060E+02  0.00000000000E+00 0. -1.
         -1    1    4    4    0  501  0.20030058531E+02  0.51139613543E+02 -0.15199059116E+02  0.56986618746E+02  0.00000000000E+00 0.  1.
          5    1    3    3  502    0  0.40072996601E+01 -0.18720599405E+02  0.91586603233E+02  0.93684124505E+02  0.47000000000E+01 0. -1.
         11    1    6    6    0    0 -0.59701740978E+02 -0.12463673855E+02  0.15500112476E+02  0.62927692859E+02  0.00000000000E+00 0. -1.
        -12    1    6    6    0    0  0.25402254436E+01 -0.34321752724E+02  0.57971201051E+02  0.67417324232E+02  0.00000000000E+00 0.  1.
         -5    1    5    5    0  503  0.22695849290E+02  0.46095349149E+02  0.12245049987E+03  0.13287624960E+03  0.47000000000E+01 0.  1.
<mgrwt>
<rscale>  2 0.17544486E+03</rscale>
<asrwt>0</asrwt>
<pdfrwt beam="1">  1       21 0.54608475E-01 0.17578418E+03</pdfrwt>
<pdfrwt beam="2">  1       21 0.14510124E-01 0.17578418E+03</pdfrwt>
<totfact> 0.13272686E+05</totfact>
</mgrwt>
</event>
<event>
12    1  0.1441827E-001  0.2278976E+03  0.7546771E-02  0.1128149E+00
         21   -1    0    0  504  503  0.00000000000E+00  0.00000000000E+00  0.33766058881E+02  0.33766058881E+02  0.00000000000E+00 0. -1.
         21   -1    0    0  502  504 -0.00000000000E+00 -0.00000000000E+00 -0.16292912967E+04  0.16292912967E+04  0.00000000000E+00 0. -1.
          6    2    1    2  502    0 -0.45061719922E+02 -0.14113950015E+03 -0.60044761423E+03  0.64224189560E+03  0.17316581048E+03 0.  0.
         24    2    3    3    0    0 -0.82533087109E+02 -0.61517288097E+02 -0.44264146614E+03  0.46149712973E+03  0.80324628894E+02 0.  0.
         -6    2    1    2    0  503  0.45061719922E+02  0.14113950015E+03 -0.99507762354E+03  0.10208154599E+04  0.17301389908E+03 0.  0.
        -24    2    5    5    0    0  0.75877297350E+00  0.14546191682E+03 -0.90667360874E+03  0.92172563086E+03  0.79758139476E+02 0.  0.
          2    1    4    4  501    0 -0.52274695629E+02 -0.90404707366E+01 -0.96737226455E+02  0.11032889421E+03  0.00000000000E+00 0. -1.
         -1    1    4    4    0  501 -0.30258391480E+02 -0.52476817360E+02 -0.34590423968E+03  0.35116823553E+03  0.00000000000E+00 0.  1.
          5    1    3    3  502    0  0.37471367187E+02 -0.79622212049E+02 -0.15780614810E+03  0.18074476586E+03  0.47000000000E+01 0. -1.
         13    1    6    6    0    0  0.36213100626E+02  0.95248049398E+02 -0.63984027799E+03  0.64790366638E+03  0.00000000000E+00 0. -1.
        -14    1    6    6    0    0 -0.35454327653E+02  0.50213867426E+02 -0.26683333075E+03  0.27382196447E+03  0.00000000000E+00 0.  1.
         -5    1    5    5    0  503  0.44302946949E+02 -0.43224166782E+01 -0.88404014805E+02  0.99089829084E+02  0.47000000000E+01 0.  1.
<mgrwt>
<rscale>  2 0.22786874E+03</rscale>
<asrwt>0</asrwt>
<pdfrwt beam="1">  1       21 0.51947796E-02 0.22789760E+03</pdfrwt>
<pdfrwt beam="2">  1       21 0.25066014E+00 0.22789760E+03</pdfrwt>
<totfact> 0.16124026E+04</totfact>
</mgrwt>
</event>
<event>
12    1  0.1441827E-001  0.2323253E+03  0.7546771E-02  0.1125044E+00
         21   -1    0    0  504  503  0.00000000000E+00  0.00000000000E+00  0.32691570133E+03  0.32691570133E+03  0.00000000000E+00 0. -1.
         21   -1    0    0  502  504 -0.00000000000E+00 -0.00000000000E+00 -0.16562291010E+03  0.16562291010E+03  0.00000000000E+00 0. -1.
          6    2    1    2  502    0 -0.15482390892E+03  0.97702315755E+01  0.65356937105E+02  0.24134323655E+03  0.17294255810E+03 0.  0.
         24    2    3    3    0    0 -0.52972025838E+02  0.63635256747E+02  0.15680625010E+02  0.11578419463E+03  0.79401613979E+02 0.  0.
         -6    2    1    2    0  503  0.15482390892E+03 -0.97702315755E+01  0.95935854133E+02  0.25119537488E+03  0.17271226955E+03 0.  0.
        -24    2    5    5    0    0  0.13153238206E+03  0.34599287401E+02  0.11718529268E+03  0.19656225236E+03  0.80040289933E+02 0.  0.
          2    1    4    4  501    0 -0.53217394624E+02  0.39823897718E+02  0.43291442007E+02  0.79323280764E+02  0.00000000000E+00 0. -1.
         -1    1    4    4    0  501  0.24536878673E+00  0.23811359029E+02 -0.27610816996E+02  0.36460913865E+02  0.00000000000E+00 0.  1.
          5    1    3    3  502    0 -0.10185188309E+03 -0.53865025171E+02  0.49676312095E+02  0.12555904192E+03  0.47000000000E+01 0. -1.
         13    1    6    6    0    0  0.12748301137E+03  0.97935519328E+01  0.77272656063E+02  0.14939509772E+03  0.00000000000E+00 0. -1.
        -14    1    6    6    0    0  0.40493706918E+01  0.24805735468E+02  0.39912636617E+02  0.47167154640E+02  0.00000000000E+00 0.  1.
         -5    1    5    5    0  503  0.23291526859E+02 -0.44369518976E+02 -0.21249438547E+02  0.54633122519E+02  0.47000000000E+01 0.  1.
<mgrwt>
<rscale>  2 0.23228241E+03</rscale>
<asrwt>0</asrwt>
<pdfrwt beam="1">  1       21 0.50294723E-01 0.23232526E+03</pdfrwt>
<pdfrwt beam="2">  1       21 0.25480448E-01 0.23232526E+03</pdfrwt>
<totfact> 0.53994798E+04</totfact>
</mgrwt>
</event>
<event>
12    1  0.1441827E-001  0.2379226E+03  0.7546771E-02  0.1121608E+00
         21   -1    0    0  504  503  0.00000000000E+00  0.00000000000E+00  0.35849683935E+03  0.35849683935E+03  0.00000000000E+00 0. -1.
         21   -1    0    0  502  504 -0.00000000000E+00 -0.00000000000E+00 -0.16870890880E+03  0.16870890880E+03  0.00000000000E+00 0. -1.
          6    2    1    2  502    0 -0.10273328180E+03 -0.12620011976E+03  0.23709695151E+02  0.23910100691E+03  0.17356999870E+03 0.  0.
         24    2    3    3    0    0 -0.14656768215E+02 -0.84623434716E+02 -0.36761383881E+02  0.12436245897E+03  0.82089434763E+02 0.  0.
         -6    2    1    2    0  503  0.10273328180E+03  0.12620011976E+03  0.16607823540E+03  0.28810474124E+03  0.17012279164E+03 0.  0.
        -24    2    5    5    0    0 -0.27020359279E+00  0.15837353281E+02  0.32148530089E+02  0.86241138299E+02  0.78441769353E+02 0.  0.
          2    1    4    4  501    0 -0.14807786850E+02 -0.53645687942E+02 -0.62788533405E+02  0.83901908878E+02  0.00000000000E+00 0. -1.
         -1    1    4    4    0  501  0.15101863488E+00 -0.30977746774E+02  0.26027149524E+02  0.40460550097E+02  0.00000000000E+00 0.  1.
          5    1    3    3  502    0 -0.88076513582E+02 -0.41576685044E+02  0.60471079032E+02  0.11473854794E+03  0.47000000000E+01 0. -1.
         11    1    6    6    0    0  0.27457847649E+02  0.22105619766E+02  0.43185834088E+02  0.55745924413E+02  0.00000000000E+00 0. -1.
        -12    1    6    6    0    0 -0.27728051242E+02 -0.62682664848E+01 -0.11037303999E+02  0.30495213886E+02  0.00000000000E+00 0.  1.
         -5    1    5    5    0  503  0.10300348539E+03  0.11036276648E+03  0.13392970531E+03  0.20186360294E+03  0.47000000000E+01 0.  1.
<mgrwt>
<rscale>  2 0.23729432E+03</rscale>
<asrwt>0</asrwt>
<pdfrwt beam="1">  1       21 0.55153360E-01 0.23792255E+03</pdfrwt>
<pdfrwt beam="2">  1       21 0.25955217E-01 0.23792255E+03</pdfrwt>
<totfact> 0.42786895E+04</totfact>
</mgrwt>
</event>
<event>
12    1  0.1441827E-001  0.1736509E+03  0.7546771E-02  0.1174096E+00
         21   -1    0    0  504  503  0.00000000000E+00  0.00000000000E+00  0.60806233094E+02  0.60806233094E+02  0.00000000000E+00 0.  1.
         21   -1    0    0  502  504 -0.00000000000E+00 -0.00000000000E+00 -0.13858465941E+04  0.13858465941E+04  0.00000000000E+00 0.  1.
          6    2    1    2  502    0  0.11405618182E+02 -0.79414025533E+01 -0.12421719012E+04  0.12542510391E+04  0.17309385521E+03 0.  0.
         24    2    3    3    0    0  0.28063882805E+01 -0.56911974037E+02 -0.46559842506E+03  0.47607334883E+03  0.81345506649E+02 0.  0.
         -6    2    1    2    0  503 -0.11405618182E+02  0.79414025533E+01 -0.82868459754E+02  0.19240178814E+03  0.17308411960E+03 0.  0.
        -24    2    5    5    0    0 -0.18928834150E+01  0.71598098445E+02 -0.61946870625E+02  0.12456028207E+03  0.80919579704E+02 0.  0.
          4    1    4    4  501    0 -0.33734389843E+02 -0.43978223535E+02 -0.19540964626E+03  0.20311824894E+03  0.00000000000E+00 0. -1.
         -3    1    4    4    0  501  0.36540778124E+02 -0.12933750502E+02 -0.27018877880E+03  0.27295509989E+03  0.00000000000E+00 0.  1.
          5    1    3    3  502    0  0.85992299015E+01  0.48970571484E+02 -0.77657347619E+03  0.77817769022E+03  0.47000000000E+01 0. -1.
         11    1    6    6    0    0  0.14909057430E+02  0.43474812325E+01 -0.52321240802E+02  0.54577402151E+02  0.00000000000E+00 0. -1.
        -12    1    6    6    0    0 -0.16801940845E+02  0.67250617212E+02 -0.96256298227E+01  0.69982879914E+02  0.00000000000E+00 0.  1.
         -5    1    5    5    0  503 -0.95127347670E+01 -0.63656695892E+02 -0.20921589129E+02  0.67841506073E+02  0.47000000000E+01 0.  1.
<mgrwt>
<rscale>  2 0.17364848E+03</rscale>
<asrwt>0</asrwt>
<pdfrwt beam="1">  1       21 0.93548058E-02 0.17365090E+03</pdfrwt>
<pdfrwt beam="2">  1       21 0.21320715E+00 0.17365090E+03</pdfrwt>
<totfact> 0.10287429E+04</totfact>
</mgrwt>
</event>
<event>
12    1  0.1441827E-001  0.1960289E+03  0.7546771E-02  0.1153239E+00
         21   -1    0    0  504  503  0.00000000000E+00  0.00000000000E+00  0.33201573113E+03  0.33201573113E+03  0.00000000000E+00 0.  1.
         21   -1    0    0  502  504 -0.00000000000E+00 -0.00000000000E+00 -0.11733515867E+03  0.11733515867E+03  0.00000000000E+00 0. -1.
          6    2    1    2  502    0  0.63441225180E+02 -0.69258357722E+02  0.79006281721E+02  0.21135115407E+03  0.17206338544E+03 0.  0.
         24    2    3    3    0    0  0.13695896915E+02  0.16438752995E+02  0.82748044601E+02  0.11208039675E+03  0.72504939545E+02 0.  0.
         -6    2    1    2    0  503 -0.63441225180E+02  0.69258357722E+02  0.13567429074E+03  0.23799973572E+03  0.17150758546E+03 0.  0.
        -24    2    5    5    0    0 -0.85174110446E+02  0.85563933677E+02  0.14520523756E+03  0.20882579090E+03  0.89150625879E+02 0.  0.
          4    1    4    4  501    0 -0.10636215432E+01  0.15562715077E+02 -0.97583479318E+01  0.18399857220E+02  0.00000000000E+00 0. -1.
         -3    1    4    4    0  501  0.14759518458E+02  0.87603791857E+00  0.92506392533E+02  0.93680539532E+02  0.00000000000E+00 0.  1.
          5    1    3    3  502    0  0.49745328265E+02 -0.85697110717E+02 -0.37417628796E+01  0.99270757320E+02  0.47000000000E+01 0. -1.
         11    1    6    6    0    0 -0.61559803653E+02  0.55184254505E+02  0.30969371979E+02  0.88283709549E+02  0.00000000000E+00 0. -1.
        -12    1    6    6    0    0 -0.23614306793E+02  0.30379679173E+02  0.11423586558E+03  0.12054208135E+03  0.00000000000E+00 0.  1.
         -5    1    5    5    0  503  0.21732885266E+02 -0.16305575956E+02 -0.95309468194E+01  0.29173944822E+02  0.47000000000E+01 0.  1.
<mgrwt>
<rscale>  2 0.19590684E+03</rscale>
<asrwt>0</asrwt>
<pdfrwt beam="1">  1       21 0.51079343E-01 0.19602887E+03</pdfrwt>
<pdfrwt beam="2">  1       21 0.18051563E-01 0.19602887E+03</pdfrwt>
<totfact> 0.10163869E+05</totfact>
</mgrwt>
</event>
<event>
12    1  0.1441827E-001  0.1839675E+03  0.7546771E-02  0.1165303E+00
         21   -1    0    0  504  503  0.00000000000E+00  0.00000000000E+00  0.72107180035E+02  0.72107180035E+02  0.00000000000E+00 0. -1.
         21   -1    0    0  502  504 -0.00000000000E+00 -0.00000000000E+00 -0.50595804274E+03  0.50595804274E+03  0.00000000000E+00 0. -1.
          6    2    1    2  502    0 -0.44669871887E+02 -0.27799915242E+02 -0.31088196715E+03  0.36123625498E+03  0.17628329946E+03 0.  0.
         24    2    3    3    0    0 -0.23769447087E+02  0.38979947554E+02 -0.90847626178E+02  0.13029561534E+03  0.81481490335E+02 0.  0.
         -6    2    1    2    0  503  0.44669871887E+02  0.27799915242E+02 -0.12296889556E+03  0.21682896780E+03  0.17066112404E+03 0.  0.
        -24    2    5    5    0    0 -0.55879766060E+01 -0.34220251476E+02 -0.10107795926E+03  0.13392145604E+03  0.80721443522E+02 0.  0.
          4    1    4    4  501    0  0.23641429790E+02  0.20984878652E+02 -0.67361235915E+02  0.74409800689E+02  0.00000000000E+00 0. -1.
         -3    1    4    4    0  501 -0.47410876877E+02  0.17995068902E+02 -0.23486390263E+02  0.55885814646E+02  0.00000000000E+00 0.  1.
          5    1    3    3  502    0 -0.20900424800E+02 -0.66779862796E+02 -0.22003434097E+03  0.23094063964E+03  0.47000000000E+01 0. -1.
         11    1    6    6    0    0 -0.24191837331E+02  0.11401984223E+02 -0.68775719137E+01  0.27614330212E+02  0.00000000000E+00 0. -1.
        -12    1    6    6    0    0  0.18603860725E+02 -0.45622235698E+02 -0.94200387350E+02  0.10630712582E+03  0.00000000000E+00 0.  1.
         -5    1    5    5    0  503  0.50257848493E+02  0.62020166718E+02 -0.21890936292E+02  0.82907511762E+02  0.47000000000E+01 0.  1.
<mgrwt>
<rscale>  2 0.18260745E+03</rscale>
<asrwt>0</asrwt>
<pdfrwt beam="1">  1       21 0.11093412E-01 0.18396748E+03</pdfrwt>
<pdfrwt beam="2">  1       21 0.77839699E-01 0.18396748E+03</pdfrwt>
<totfact> 0.99097676E+04</totfact>
</mgrwt>
</event>
<event>
12    1  0.1441827E-001  0.1757854E+03  0.7546771E-02  0.1172494E+00
         21   -1    0    0  504  503  0.00000000000E+00  0.00000000000E+00  0.16093968383E+04  0.16093968383E+04  0.00000000000E+00 0.  1.
         21   -1    0    0  502  504 -0.00000000000E+00 -0.00000000000E+00 -0.19573597974E+02  0.19573597974E+02  0.00000000000E+00 0.  1.
          6    2    1    2  502    0  0.96738037250E+01  0.12816643408E+02  0.64614938902E+03  0.66906375550E+03  0.17285666653E+03 0.  0.
         24    2    3    3    0    0 -0.56556216268E+02  0.27564665149E+02  0.29324869437E+03  0.30966855522E+03  0.77080483806E+02 0.  0.
         -6    2    1    2    0  503 -0.96738037250E+01 -0.12816643408E+02  0.94367385128E+03  0.95990668075E+03  0.17505041939E+03 0.  0.
        -24    2    5    5    0    0  0.26401572085E+02 -0.70611188487E+02  0.68267740498E+03  0.69012366208E+03  0.67373932235E+02 0.  0.
          4    1    4    4  501    0 -0.67081904912E+02  0.33445141924E+02  0.28586813715E+03  0.29553198020E+03  0.00000000000E+00 0. -1.
         -3    1    4    4    0  501  0.10525688644E+02 -0.58804767748E+01  0.73805572181E+01  0.14136575023E+02  0.00000000000E+00 0.  1.
          5    1    3    3  502    0  0.66230019993E+02 -0.14748021741E+02  0.35290069465E+03  0.35939520027E+03  0.47000000000E+01 0. -1.
         13    1    6    6    0    0  0.51735351420E+01 -0.28269630630E+02  0.70726684638E+02  0.76342657812E+02  0.00000000000E+00 0. -1.
        -14    1    6    6    0    0  0.21228036943E+02 -0.42341557856E+02  0.61195072034E+03  0.61378100427E+03  0.00000000000E+00 0.  1.
         -5    1    5    5    0  503 -0.36075375810E+02  0.57794545079E+02  0.26099644630E+03  0.26978301867E+03  0.47000000000E+01 0.  1.
<mgrwt>
<rscale>  2 0.17523670E+03</rscale>
<asrwt>0</asrwt>
<pdfrwt beam="1">  1       21 0.24759941E+00 0.17578538E+03</pdfrwt>
<pdfrwt beam="2">  1       21 0.30113240E-02 0.17578538E+03</pdfrwt>
<totfact> 0.43783461E+04</totfact>
</mgrwt>
</event>
<event>
12    1  0.1441827E-001  0.1817251E+03  0.7546771E-02  0.1166180E+00
         21   -1    0    0  504  503  0.00000000000E+00  0.00000000000E+00  0.14121429974E+03  0.14121429974E+03  0.00000000000E+00 0. -1.
         21   -1    0    0  502  504 -0.00000000000E+00 -0.00000000000E+00 -0.59179995406E+03  0.59179995406E+03  0.00000000000E+00 0. -1.
          6    2    1    2  502    0  0.48549237237E+02  0.32501733629E+02 -0.51044453665E+03  0.54182805978E+03  0.17207739609E+03 0.  0.
         24    2    3    3    0    0  0.64289307687E+02  0.16565830940E+02 -0.50960996993E+03  0.51892632810E+03  0.71935184121E+02 0.  0.
         -6    2    1    2    0  503 -0.48549237237E+02 -0.32501733629E+02  0.59858882334E+02  0.19118619401E+03  0.17191766594E+03 0.  0.
        -24    2    5    5    0    0 -0.87799723565E+02 -0.99774786573E+01  0.47736847489E+01  0.11974102810E+03  0.80664640371E+02 0.  0.
          2    1    4    4  501    0  0.22717178382E+02  0.35634825953E+02 -0.36025626081E+03  0.36272645956E+03  0.00000000000E+00 0. -1.
         -1    1    4    4    0  501  0.41572129305E+02 -0.19068995012E+02 -0.14935370912E+03  0.15619986854E+03  0.00000000000E+00 0.  1.
          5    1    3    3  502    0 -0.15740070450E+02  0.15935902688E+02 -0.83456672734E+00  0.22901731679E+02  0.47000000000E+01 0. -1.
         11    1    6    6    0    0 -0.16486532804E+02 -0.76104032673E+00  0.37324244727E+02  0.40810344163E+02  0.00000000000E+00 0. -1.
        -12    1    6    6    0    0 -0.71313190761E+02 -0.92164383305E+01 -0.32550559978E+02  0.78930683938E+02  0.00000000000E+00 0.  1.
         -5    1    5    5    0  503  0.39250486328E+02 -0.22524254972E+02  0.55085197585E+02  0.71445165910E+02  0.47000000000E+01 0.  1.
<mgrwt>
<rscale>  2 0.18168730E+03</rscale>
<asrwt>0</asrwt>
<pdfrwt beam="1">  1       21 0.21725277E-01 0.18172513E+03</pdfrwt>
<pdfrwt beam="2">  1       21 0.91046147E-01 0.18172513E+03</pdfrwt>
<totfact> 0.20351403E+04</totfact>
</mgrwt>
</event>
<event>
12    1  0.1441827E-001  0.3492789E+03  0.7546771E-02  0.1062942E+00
         21   -1    0    0  504  503  0.00000000000E+00  0.00000000000E+00  0.28810031982E+03  0.28810031982E+03  0.00000000000E+00 0. -1.
         21   -1    0    0  502  504 -0.00000000000E+00 -0.00000000000E+00 -0.66811042745E+03  0.66811042745E+03  0.00000000000E+00 0.  1.
          6    2    1    2  502    0 -0.94778996383E+02 -0.28756949820E+03 -0.47959352861E+03  0.59330066675E+03  0.17411620839E+03 0.  0.
         24    2    3    3    0    0 -0.12891304939E+03 -0.27051033934E+03 -0.41563924015E+03  0.51867902452E+03  0.80483131990E+02 0.  0.
         -6    2    1    2    0  503  0.94778996383E+02  0.28756949820E+03  0.99583420975E+02  0.36291008052E+03  0.17351540092E+03 0.  0.
        -24    2    5    5    0    0  0.84830499293E+02  0.19740309840E+03  0.13437097006E+03  0.26564129920E+03  0.79658931562E+02 0.  0.
          4    1    4    4  501    0 -0.65712201847E+01 -0.94847466120E+02 -0.14887619486E+03  0.17664468336E+03  0.00000000000E+00 0. -1.
         -3    1    4    4    0  501 -0.12234182920E+03 -0.17566287322E+03 -0.26676304529E+03  0.34203434116E+03  0.00000000000E+00 0.  1.
          5    1    3    3  502    0  0.34134053004E+02 -0.17059158859E+02 -0.63954288461E+02  0.74621642223E+02  0.47000000000E+01 0. -1.
         11    1    6    6    0    0 -0.82679184858E+01  0.74325367965E+02  0.46302187878E+02  0.87957440853E+02  0.00000000000E+00 0. -1.
        -12    1    6    6    0    0  0.93098417778E+02  0.12307773044E+03  0.88068782184E+02  0.17768385835E+03  0.00000000000E+00 0.  1.
         -5    1    5    5    0  503  0.99484970904E+01  0.90166399802E+02 -0.34787549087E+02  0.97268781318E+02  0.47000000000E+01 0.  1.
<mgrwt>
<rscale>  2 0.34920407E+03</rscale>
<asrwt>0</asrwt>
<pdfrwt beam="1">  1       21 0.44323126E-01 0.34927887E+03</pdfrwt>
<pdfrwt beam="2">  1       21 0.10278622E+00 0.34927887E+03</pdfrwt>
<totfact> 0.34084633E+03</totfact>
</mgrwt>
</event>
<event>
12    1  0.1441827E-001  0.1800230E+03  0.7546771E-02  0.1168706E+00
         21   -1    0    0  504  503  0.00000000000E+00  0.00000000000E+00  0.18304454908E+03  0.18304454908E+03  0.00000000000E+00 0. -1.
         21   -1    0    0  502  504 -0.00000000000E+00 -0.00000000000E+00 -0.17863015591E+03  0.17863015591E+03  0.00000000000E+00 0. -1.
          6    2    1    2  502    0 -0.29318484554E+02 -0.77391111694E+01 -0.28897955111E+02  0.17859553905E+03  0.17361396079E+03 0.  0.
         24    2    3    3    0    0 -0.25720328639E+01  0.53764959002E+02 -0.48525446593E+02  0.10855660882E+03  0.80824081693E+02 0.  0.
         -6    2    1    2    0  503  0.29318484554E+02  0.77391111694E+01  0.33312348286E+02  0.18307916594E+03  0.17745084130E+03 0.  0.
        -24    2    5    5    0    0  0.74918380793E+02 -0.35904779805E+02  0.19601731357E+02  0.11831643922E+03  0.81930671447E+02 0.  0.
          4    1    4    4  501    0  0.16906034563E+02  0.35837018403E+02 -0.65897139554E+02  0.76893035407E+02  0.00000000000E+00 0. -1.
         -3    1    4    4    0  501 -0.19478067427E+02  0.17927940599E+02  0.17371692961E+02  0.31663573411E+02  0.00000000000E+00 0.  1.
          5    1    3    3  502    0 -0.26746451690E+02 -0.61504070172E+02  0.19627491482E+02  0.70038930229E+02  0.47000000000E+01 0. -1.
         11    1    6    6    0    0  0.67717412082E+02 -0.28745805683E+02  0.48212735565E+02  0.87957018561E+02  0.00000000000E+00 0. -1.
        -12    1    6    6    0    0  0.72009687110E+01 -0.71589741216E+01 -0.28611004208E+02  0.30359420658E+02  0.00000000000E+00 0.  1.
         -5    1    5    5    0  503 -0.45599896239E+02  0.43643890974E+02  0.13710616929E+02  0.64762726726E+02  0.47000000000E+01 0.  1.
<mgrwt>
<rscale>  2 0.17907021E+03</rscale>
<asrwt>0</asrwt>
<pdfrwt beam="1">  1       21 0.28160700E-01 0.18002297E+03</pdfrwt>
<pdfrwt beam="2">  1       21 0.27481563E-01 0.18002297E+03</pdfrwt>
<totfact> 0.15281329E+05</totfact>
</mgrwt>
</event>
<event>
12    1  0.1441827E-001  0.2032039E+03  0.7546771E-02  0.1147245E+00
         21   -1    0    0  504  503  0.00000000000E+00  0.00000000000E+00  0.50322819325E+03  0.50322819325E+03  0.00000000000E+00 0. -1.
         21   -1    0    0  502  504 -0.00000000000E+00 -0.00000000000E+00 -0.85395018695E+02  0.85395018695E+02  0.00000000000E+00 0. -1.
          6    2    1    2  502    0 -0.65499985656E+02 -0.79752090249E+02  0.14812956674E+03  0.25146406863E+03  0.17504618034E+03 0.  0.
         24    2    3    3    0    0  0.13643318944E+02 -0.16626670146E+02  0.45371587346E+02  0.10713883295E+03  0.94644399071E+02 0.  0.
         -6    2    1    2    0  503  0.65499985656E+02  0.79752090249E+02  0.26970360782E+03  0.33715914332E+03  0.17402760652E+03 0.  0.
        -24    2    5    5    0    0  0.11581581191E+03  0.39739144053E+02  0.21409914384E+03  0.25203179959E+03  0.51856366570E+02 0.  0.
          2    1    4    4  501    0  0.41298393261E+02 -0.10224086831E+02 -0.11069286271E+02  0.43961555205E+02  0.00000000000E+00 0. -1.
         -1    1    4    4    0  501 -0.27655074318E+02 -0.64025833151E+01  0.56440873617E+02  0.63177277745E+02  0.00000000000E+00 0.  1.
          5    1    3    3  502    0 -0.79143304599E+02 -0.63125420102E+02  0.10275797939E+03  0.14432523568E+03  0.47000000000E+01 0. -1.
         11    1    6    6    0    0  0.39324443242E+02 -0.10188856008E+02  0.80820684521E+02  0.90455556322E+02  0.00000000000E+00 0. -1.
        -12    1    6    6    0    0  0.76491368668E+02  0.49928000061E+02  0.13327845932E+03  0.16157624327E+03  0.00000000000E+00 0.  1.
         -5    1    5    5    0  503 -0.50315826255E+02  0.40012946196E+02  0.55604463977E+02  0.85127343722E+02  0.47000000000E+01 0.  1.
<mgrwt>
<rscale>  2 0.20298431E+03</rscale>
<asrwt>0</asrwt>
<pdfrwt beam="1">  1       21 0.77419720E-01 0.20320386E+03</pdfrwt>
<pdfrwt beam="2">  1       21 0.13137696E-01 0.20320386E+03</pdfrwt>
<totfact> 0.73502912E+04</totfact>
</mgrwt>
</event>
<event>
12    1  0.1441827E-001  0.1985976E+03  0.7546771E-02  0.1150968E+00
         21   -1    0    0  504  503  0.00000000000E+00  0.00000000000E+00  0.64694063189E+03  0.64694063189E+03  0.00000000000E+00 0.  1.
         21   -1    0    0  502  504 -0.00000000000E+00 -0.00000000000E+00 -0.63700675179E+02  0.63700675179E+02  0.00000000000E+00 0.  1.
          6    2    1    2  502    0  0.94411328569E+02 -0.25187531409E+02  0.21734531787E+03  0.29441467638E+03  0.17289622253E+03 0.  0.
         24    2    3    3    0    0 -0.11493667755E+02 -0.35375779354E+02  0.77546256061E+02  0.11867186337E+03  0.81768203859E+02 0.  0.
         -6    2    1    2    0  503 -0.94411328569E+02  0.25187531409E+02  0.36589463884E+03  0.41622663069E+03  0.17267834451E+03 0.  0.
        -24    2    5    5    0    0 -0.14390256454E+02  0.42367532345E+02  0.80370893848E+02  0.11916700138E+03  0.75757549863E+02 0.  0.
          2    1    4    4  501    0 -0.24926696622E+02 -0.56077476293E+02  0.69497955927E+02  0.92714558888E+02  0.00000000000E+00 0. -1.
         -1    1    4    4    0  501  0.13433028866E+02  0.20701696940E+02  0.80483001341E+01  0.25957304478E+02  0.00000000000E+00 0.  1.
          5    1    3    3  502    0  0.10590499632E+03  0.10188247944E+02  0.13979906181E+03  0.17574281301E+03  0.47000000000E+01 0. -1.
         11    1    6    6    0    0  0.16820083465E+02 -0.25786676928E+01 -0.50255067408E+01  0.17743180460E+02  0.00000000000E+00 0. -1.
        -12    1    6    6    0    0 -0.31210339919E+02  0.44946200038E+02  0.85396400589E+02  0.10142382092E+03  0.00000000000E+00 0.  1.
         -5    1    5    5    0  503 -0.80021072114E+02 -0.17180000936E+02  0.28552374499E+03  0.29705962931E+03  0.47000000000E+01 0.  1.
<mgrwt>
<rscale>  2 0.19855019E+03</rscale>
<asrwt>0</asrwt>
<pdfrwt beam="1">  1       21 0.99529324E-01 0.19859762E+03</pdfrwt>
<pdfrwt beam="2">  1       21 0.98001043E-02 0.19859762E+03</pdfrwt>
<totfact> 0.69614068E+04</totfact>
</mgrwt>
</event>
<event>
12    1  0.1441827E-001  0.1739848E+03  0.7546771E-02  0.1173918E+00
         21   -1    0    0  504  503  0.00000000000E+00  0.00000000000E+00  0.19080685013E+03  0.19080685013E+03  0.00000000000E+00 0.  1.
         21   -1    0    0  502  504 -0.00000000000E+00 -0.00000000000E+00 -0.55139342689E+03  0.55139342689E+03  0.00000000000E+00 0.  1.
          6    2    1    2  502    0  0.62338517636E+01  0.29478433260E+01 -0.49381877480E+03  0.52357206510E+03  0.17384813580E+03 0.  0.
         24    2    3    3    0    0 -0.53641809625E+01 -0.73299177254E+01 -0.50053180335E+03  0.50604204834E+03  0.73918647082E+02 0.  0.
         -6    2    1    2    0  503 -0.62338517636E+01 -0.29478433260E+01  0.13323219805E+03  0.21862821192E+03  0.17320486645E+03 0.  0.
        -24    2    5    5    0    0 -0.68301334676E+02  0.16178404299E+01  0.58666898526E+02  0.12138988719E+03  0.81400307147E+02 0.  0.
          4    1    4    4  501    0 -0.82392600820E+01  0.32956717734E+02 -0.21475919098E+03  0.21742939259E+03  0.00000000000E+00 0. -1.
         -3    1    4    4    0  501  0.28750791195E+01 -0.40286635460E+02 -0.28577261237E+03  0.28861265575E+03  0.00000000000E+00 0.  1.
          5    1    3    3  502    0  0.11598032726E+02  0.10277761051E+02  0.67130285549E+01  0.17530016763E+02  0.47000000000E+01 0. -1.
         11    1    6    6    0    0 -0.33905394149E+01  0.46104774708E+01 -0.19163533339E+02  0.19999831751E+02  0.00000000000E+00 0. -1.
        -12    1    6    6    0    0 -0.64910795261E+02 -0.29926370409E+01  0.77830431866E+02  0.10139005544E+03  0.00000000000E+00 0.  1.
         -5    1    5    5    0  503  0.62067482912E+02 -0.45656837559E+01  0.74565299521E+02  0.97238324728E+02  0.47000000000E+01 0.  1.
<mgrwt>
<rscale>  2 0.17382393E+03</rscale>
<asrwt>0</asrwt>
<pdfrwt beam="1">  1       21 0.29354899E-01 0.17398484E+03</pdfrwt>
<pdfrwt beam="2">  1       21 0.84829760E-01 0.17398484E+03</pdfrwt>
<totfact> 0.13550339E+04</totfact>
</mgrwt>
</event>
<event>
12    1  0.1441827E-001  0.2496582E+03  0.7546771E-02  0.1113584E+00
         21   -1    0    0  504  503  0.00000000000E+00  0.00000000000E+00  0.16942774167E+03  0.16942774167E+03  0.00000000000E+00 0.  1.
         21   -1    0    0  502  504 -0.00000000000E+00 -0.00000000000E+00 -0.38758347306E+03  0.38758347306E+03  0.00000000000E+00 0. -1.
          6    2    1    2  502    0  0.15397881709E+03 -0.93480625015E+02 -0.17271111460E+03  0.30325060019E+03  0.17228956452E+03 0.  0.
         24    2    3    3    0    0  0.17565157006E+03 -0.10225327479E+03 -0.17350128489E+03  0.27938887405E+03  0.81524479842E+02 0.  0.
         -6    2    1    2    0  503 -0.15397881709E+03  0.93480625015E+02 -0.45444616797E+02  0.25376061454E+03  0.17286160051E+03 0.  0.
        -24    2    5    5    0    0 -0.40336352302E+02  0.99366791038E+02 -0.29324107031E+02  0.13873358472E+03  0.82983876737E+02 0.  0.
          4    1    4    4  501    0  0.14288766368E+03 -0.82835318096E+02 -0.17582494473E+03  0.24123222328E+03  0.00000000000E+00 0. -1.
         -3    1    4    4    0  501  0.32763906378E+02 -0.19417956693E+02  0.23236598382E+01  0.38156650775E+02  0.00000000000E+00 0.  1.
          5    1    3    3  502    0 -0.21672752967E+02  0.87726497739E+01  0.79017029262E+00  0.23861726139E+02  0.47000000000E+01 0. -1.
         13    1    6    6    0    0  0.25575378654E+02  0.21233846913E+02 -0.98945317320E+01  0.34682531716E+02  0.00000000000E+00 0. -1.
        -14    1    6    6    0    0 -0.65911730956E+02  0.78132944125E+02 -0.19429575299E+02  0.10405105301E+03  0.00000000000E+00 0.  1.
         -5    1    5    5    0  503 -0.11364246479E+03 -0.58861660227E+01 -0.16120509766E+02  0.11502702982E+03  0.47000000000E+01 0.  1.
<mgrwt>
<rscale>  2 0.24955925E+03</rscale>
<asrwt>0</asrwt>
<pdfrwt beam="1">  1       21 0.26065807E-01 0.24965824E+03</pdfrwt>
<pdfrwt beam="2">  1       21 0.59628226E-01 0.24965824E+03</pdfrwt>
<totfact> 0.35723265E+04</totfact>
</mgrwt>
</event>
<event>
12    1  0.1441827E-001  0.2103365E+03  0.7546771E-02  0.1141710E+00
         21   -1    0    0  504  503  0.00000000000E+00  0.00000000000E+00  0.29657708426E+03  0.29657708426E+03  0.00000000000E+00 0.  1.
         21   -1    0    0  502  504 -0.00000000000E+00 -0.00000000000E+00 -0.18671649718E+04  0.18671649718E+04  0.00000000000E+00 0.  1.
          6    2    1    2  502    0  0.58584091335E+02 -0.10094000295E+03 -0.18237947525E+04  0.18358836412E+04  0.17498704180E+03 0.  0.
         24    2    3    3    0    0  0.80167583402E+02 -0.28165141164E+02 -0.14616616735E+04  0.14658505554E+04  0.71013284187E+02 0.  0.
         -6    2    1    2    0  503 -0.58584091335E+02  0.10094000295E+03  0.25320686499E+03  0.32785841483E+03  0.17250056158E+03 0.  0.
        -24    2    5    5    0    0 -0.52487362496E+02 -0.10260264721E+02  0.12155801406E+03  0.15535861893E+03  0.80621048380E+02 0.  0.
          4    1    4    4  501    0  0.21639527088E+02  0.14343956991E+02 -0.76564707744E+03  0.76608711347E+03  0.00000000000E+00 0. -1.
         -3    1    4    4    0  501  0.58528056314E+02 -0.42509098155E+02 -0.69601459605E+03  0.69976344197E+03  0.00000000000E+00 0.  1.
          5    1    3    3  502    0 -0.21583492068E+02 -0.72774861787E+02 -0.36213307902E+03  0.37003308577E+03  0.47000000000E+01 0. -1.
         11    1    6    6    0    0 -0.38688455909E+02  0.16730803574E+02  0.15269194362E+02  0.44831514645E+02  0.00000000000E+00 0. -1.
        -12    1    6    6    0    0 -0.13798906587E+02 -0.26991068294E+02  0.10628881969E+03  0.11052710429E+03  0.00000000000E+00 0.  1.
         -5    1    5    5    0  503 -0.60967288389E+01  0.11120026767E+03  0.13164885093E+03  0.17249979590E+03  0.47000000000E+01 0.  1.
<mgrwt>
<rscale>  2 0.20981859E+03</rscale>
<asrwt>0</asrwt>
<pdfrwt beam="1">  1       21 0.45627244E-01 0.21033650E+03</pdfrwt>
<pdfrwt beam="2">  1       21 0.28725615E+00 0.21033650E+03</pdfrwt>
<totfact> 0.18134857E+02</totfact>
</mgrwt>
</event>
<event>
12    1  0.1441827E-001  0.1823315E+03  0.7546771E-02  0.1165572E+00
         21   -1    0    0  504  503  0.00000000000E+00  0.00000000000E+00  0.12811585502E+04  0.12811585502E+04  0.00000000000E+00 0.  1.
         21   -1    0    0  502  504 -0.00000000000E+00 -0.00000000000E+00 -0.53065846393E+02  0.53065846393E+02  0.00000000000E+00 0.  1.
          6    2    1    2  502    0 -0.56598805109E+02  0.14142995499E+02  0.13710498317E+03  0.22810550914E+03  0.17271623499E+03 0.  0.
         24    2    3    3    0    0 -0.74347088715E+02 -0.43796597506E+02  0.66433981112E+02  0.13489350057E+03  0.79606225243E+02 0.  0.
         -6    2    1    2    0  503  0.56598805109E+02 -0.14142995499E+02  0.10909877206E+04  0.11061188874E+04  0.17274645450E+03 0.  0.
        -24    2    5    5    0    0  0.27264048328E+02 -0.70835476011E+02  0.84880777530E+03  0.85562381520E+03  0.76527646825E+02 0.  0.
          4    1    4    4  501    0  0.10279087954E+02 -0.29417541732E+02  0.12880700567E+02  0.33718894671E+02  0.00000000000E+00 0. -1.
         -3    1    4    4    0  501 -0.84626176670E+02 -0.14379055774E+02  0.53553280544E+02  0.10117460590E+03  0.00000000000E+00 0.  1.
          5    1    3    3  502    0  0.17748283606E+02  0.57939593005E+02  0.70671002062E+02  0.93212008566E+02  0.47000000000E+01 0. -1.
         11    1    6    6    0    0 -0.16229656255E+02 -0.46344251843E+02  0.25248426166E+03  0.25721487866E+03  0.00000000000E+00 0. -1.
        -12    1    6    6    0    0  0.43493704583E+02 -0.24491224168E+02  0.59632351364E+03  0.59840893653E+03  0.00000000000E+00 0.  1.
         -5    1    5    5    0  503  0.29334756781E+02  0.56692480512E+02  0.24217994530E+03  0.25049507222E+03  0.47000000000E+01 0.  1.
<mgrwt>
<rscale>  2 0.18232437E+03</rscale>
<asrwt>0</asrwt>
<pdfrwt beam="1">  1       21 0.19710129E+00 0.18233153E+03</pdfrwt>
<pdfrwt beam="2">  1       21 0.81639774E-02 0.18233153E+03</pdfrwt>
<totfact> 0.16369183E+04</totfact>
</mgrwt>
</event>
<event>
12    1  0.1441827E-001  0.2810513E+03  0.7546771E-02  0.1095363E+00
         21   -1    0    0  504  503  0.00000000000E+00  0.00000000000E+00  0.13346530483E+03  0.13346530483E+03  0.00000000000E+00 0. -1.
         21   -1    0    0  502  504 -0.00000000000E+00 -0.00000000000E+00 -0.10613711027E+04  0.10613711027E+04  0.00000000000E+00 0.  1.
          6    2    1    2  502    0 -0.13642661746E+03  0.17139660955E+03 -0.86208417633E+03  0.90618035255E+03  0.17316086323E+03 0.  0.
         24    2    3    3    0    0 -0.29026683213E+02  0.97689374233E+02 -0.59601425945E+03  0.60989874144E+03  0.79735281812E+02 0.  0.
         -6    2    1    2    0  503  0.13642661746E+03 -0.17139660955E+03 -0.65821621581E+02  0.28865605501E+03  0.17607047598E+03 0.  0.
        -24    2    5    5    0    0  0.14997685379E+03 -0.16464909271E+03 -0.94145783987E+02  0.25619860496E+03  0.84687166314E+02 0.  0.
          4    1    4    4  501    0  0.24545807565E+01  0.97869207793E+02 -0.45491614775E+03  0.46533118129E+03  0.00000000000E+00 0. -1.
         -3    1    4    4    0  501 -0.31481263969E+02 -0.17983356011E+00 -0.14109811170E+03  0.14456756015E+03  0.00000000000E+00 0.  1.
          5    1    3    3  502    0 -0.10739993425E+03  0.73707235316E+02 -0.26606991688E+03  0.29628161111E+03  0.47000000000E+01 0. -1.
         13    1    6    6    0    0  0.29081843967E+02 -0.90305788134E+02 -0.51791791274E+02  0.10808921622E+03  0.00000000000E+00 0. -1.
        -14    1    6    6    0    0  0.12089500982E+03 -0.74343304576E+02 -0.42353992713E+02  0.14810938874E+03  0.00000000000E+00 0.  1.
         -5    1    5    5    0  503 -0.13550236327E+02 -0.67475168375E+01  0.28324162406E+02  0.32457450054E+02  0.47000000000E+01 0.  1.
<mgrwt>
<rscale>  2 0.28059680E+03</rscale>
<asrwt>0</asrwt>
<pdfrwt beam="1">  1       21 0.20533123E-01 0.28105130E+03</pdfrwt>
<pdfrwt beam="2">  1       21 0.16328787E+00 0.28105130E+03</pdfrwt>
<totfact> 0.49086850E+03</totfact>
</mgrwt>
</event>
<event>
12    1  0.1441827E-001  0.1897349E+03  0.7546771E-02  0.1159134E+00
         21   -1    0    0  504  503  0.00000000000E+00  0.00000000000E+00  0.18564651028E+03  0.18564651028E+03  0.00000000000E+00 0.  1.
         21   -1    0    0  502  504 -0.00000000000E+00 -0.00000000000E+00 -0.19520990904E+03  0.19520990904E+03  0.00000000000E+00 0.  1.
          6    2    1    2  502    0  0.51074484026E+02 -0.52899438118E+02  0.19776919969E+02  0.18886635838E+03  0.17283640037E+03 0.  0.
         24    2    3    3    0    0  0.70244315753E+01  0.25325750046E+02 -0.23154437070E+02  0.89243175328E+02  0.82082154773E+02 0.  0.
         -6    2    1    2    0  503 -0.51074484026E+02  0.52899438118E+02 -0.29340318737E+02  0.19199006094E+03  0.17490676294E+03 0.  0.
        -24    2    5    5    0    0 -0.55000176825E+02  0.83904242005E+02 -0.67149013523E+02  0.14271231414E+03  0.76110927686E+02 0.  0.
          4    1    4    4  501    0 -0.35895504666E+02  0.10102421967E+00 -0.14496344331E+02  0.38712290814E+02  0.00000000000E+00 0. -1.
         -3    1    4    4    0  501  0.42919936241E+02  0.25224725826E+02 -0.86580927395E+01  0.50530884514E+02  0.00000000000E+00 0.  1.
          5    1    3    3  502    0  0.44050052451E+02 -0.78225188164E+02  0.42931357039E+02  0.99623183052E+02  0.47000000000E+01 0. -1.
         13    1    6    6    0    0 -0.99629661587E+01  0.80093898458E+02 -0.41866984237E+02  0.90923801251E+02  0.00000000000E+00 0. -1.
        -14    1    6    6    0    0 -0.45037210667E+02  0.38103435471E+01 -0.25282029286E+02  0.51788512890E+02  0.00000000000E+00 0.  1.
         -5    1    5    5    0  503  0.39256927993E+01 -0.31004803887E+02  0.37808694786E+02  0.49277746797E+02  0.47000000000E+01 0.  1.
<mgrwt>
<rscale>  2 0.18925637E+03</rscale>
<asrwt>0</asrwt>
<pdfrwt beam="1">  1       21 0.28561002E-01 0.18973489E+03</pdfrwt>
<pdfrwt beam="2">  1       21 0.30032294E-01 0.18973489E+03</pdfrwt>
<totfact> 0.12480516E+05</totfact>
</mgrwt>
</event>
<event>
12    1  0.1441827E-001  0.2411663E+03  0.7546771E-02  0.1119031E+00
         21   -1    0    0  504  503  0.00000000000E+00  0.00000000000E+00  0.25582117552E+03  0.25582117552E+03  0.00000000000E+00 0.  1.
         21   -1    0    0  502  504 -0.00000000000E+00 -0.00000000000E+00 -0.24004847173E+03  0.24004847173E+03  0.00000000000E+00 0.  1.
          6    2    1    2  502    0  0.34023700403E+02 -0.16470580142E+03 -0.49293888788E+02  0.24608006657E+03  0.17274228921E+03 0.  0.
         24    2    3    3    0    0  0.17030688486E+02 -0.80891696963E+01 -0.15705769982E+02  0.84934841664E+02  0.81312834787E+02 0.  0.
         -6    2    1    2    0  503 -0.34023700403E+02  0.16470580142E+03  0.65066592578E+02  0.24978958068E+03  0.17284547994E+03 0.  0.
        -24    2    5    5    0    0  0.23401369895E+02  0.78984841137E+02 -0.43690101950E+01  0.12533430895E+03  0.94357678577E+02 0.  0.
          4    1    4    4  501    0  0.40112447493E+02  0.10522744058E+02  0.13205880814E+02  0.43521625365E+02  0.00000000000E+00 0. -1.
         -3    1    4    4    0  501 -0.23081759007E+02 -0.18611913755E+02 -0.28911650796E+02  0.41413216299E+02  0.00000000000E+00 0.  1.
          5    1    3    3  502    0  0.16993011917E+02 -0.15661663172E+03 -0.33588118806E+02  0.16114522491E+03  0.47000000000E+01 0. -1.
         13    1    6    6    0    0  0.10478682629E+02  0.99245329274E+02 -0.11010536155E+02  0.10040254020E+03  0.00000000000E+00 0. -1.
        -14    1    6    6    0    0  0.12922687266E+02 -0.20260488137E+02  0.66415259602E+01  0.24931768745E+02  0.00000000000E+00 0.  1.
         -5    1    5    5    0  503 -0.57425070297E+02  0.85720960281E+02  0.69435602773E+02  0.12445527174E+03  0.47000000000E+01 0.  1.
<mgrwt>
<rscale>  2 0.24114779E+03</rscale>
<asrwt>0</asrwt>
<pdfrwt beam="1">  1       21 0.39357104E-01 0.24116628E+03</pdfrwt>
<pdfrwt beam="2">  1       21 0.36930534E-01 0.24116628E+03</pdfrwt>
<totfact> 0.43020933E+04</totfact>
</mgrwt>
</event>
<event>
12    1  0.1441827E-001  0.3131401E+03  0.7546771E-02  0.1078852E+00
         21   -1    0    0  504  503  0.00000000000E+00  0.00000000000E+00  0.51762691420E+03  0.51762691420E+03  0.00000000000E+00 0. -1.
         21   -1    0    0  502  504 -0.00000000000E+00 -0.00000000000E+00 -0.22335022604E+03  0.22335022604E+03  0.00000000000E+00 0.  1.
          6    2    1    2  502    0  0.13875304705E+02  0.26014053265E+03  0.27452127070E+01  0.31313686976E+03  0.17372835750E+03 0.  0.
         24    2    3    3    0    0  0.67006032474E+02  0.18110899438E+03  0.36172904186E+02  0.21210044646E+03  0.79923989881E+02 0.  0.
         -6    2    1    2    0  503 -0.13875304705E+02 -0.26014053265E+03  0.29153147545E+03  0.42784027048E+03  0.17375579144E+03 0.  0.
        -24    2    5    5    0    0 -0.11844328287E+02 -0.37575993797E+02  0.10325818400E+03  0.13627892000E+03  0.79733606789E+02 0.  0.
          2    1    4    4  501    0  0.64741086530E+02  0.16286697601E+03  0.57021410823E+02  0.18430545693E+03  0.00000000000E+00 0. -1.
         -1    1    4    4    0  501  0.22649459440E+01  0.18242018365E+02 -0.20848506637E+02  0.27794989533E+02  0.00000000000E+00 0.  1.
          5    1    3    3  502    0 -0.53130727769E+02  0.79031538272E+02 -0.33427691479E+02  0.10103642330E+03  0.47000000000E+01 0. -1.
         11    1    6    6    0    0  0.15930762415E+02 -0.45396288263E+02  0.94636365292E+02  0.10616333555E+03  0.00000000000E+00 0. -1.
        -12    1    6    6    0    0 -0.27775090702E+02  0.78202944662E+01  0.86218187046E+01  0.30115584451E+02  0.00000000000E+00 0.  1.
         -5    1    5    5    0  503 -0.20309764189E+01 -0.22256453885E+03  0.18827329146E+03  0.29156135048E+03  0.47000000000E+01 0.  1.
<mgrwt>
<rscale>  2 0.31313625E+03</rscale>
<asrwt>0</asrwt>
<pdfrwt beam="1">  1       21 0.79634909E-01 0.31314006E+03</pdfrwt>
<pdfrwt beam="2">  1       21 0.34361574E-01 0.31314006E+03</pdfrwt>
<totfact> 0.10618697E+04</totfact>
</mgrwt>
</event>
<event>
12    1  0.1441827E-001  0.2072306E+03  0.7546771E-02  0.1144262E+00
         21   -1    0    0  504  503  0.00000000000E+00  0.00000000000E+00  0.48453805719E+03  0.48453805719E+03  0.00000000000E+00 0. -1.
         21   -1    0    0  502  504 -0.00000000000E+00 -0.00000000000E+00 -0.16712090408E+03  0.16712090408E+03  0.00000000000E+00 0.  1.
          6    2    1    2  502    0  0.58408401658E+02  0.10204891475E+03 -0.66514759203E+02  0.21536977688E+03  0.16773313690E+03 0.  0.
         24    2    3    3    0    0  0.10177218088E+03  0.54880176065E+02 -0.41017623864E+02  0.14625030663E+03  0.79607136587E+02 0.  0.
         -6    2    1    2    0  503 -0.58408401658E+02 -0.10204891475E+03  0.38393191231E+03  0.43628918440E+03  0.17064295105E+03 0.  0.
        -24    2    5    5    0    0 -0.22013987674E+02 -0.66649183468E+02  0.36772712314E+03  0.38278797379E+03  0.79854032299E+02 0.  0.
          2    1    4    4  501    0  0.91853505378E+02  0.74581865264E+02 -0.34943862781E+02  0.12337177401E+03  0.00000000000E+00 0. -1.
         -1    1    4    4    0  501  0.99186754973E+01 -0.19701689199E+02 -0.60737610828E+01  0.22878532615E+02  0.00000000000E+00 0.  1.
          5    1    3    3  502    0 -0.43363779217E+02  0.47168738687E+02 -0.25497135340E+02  0.69119470252E+02  0.47000000000E+01 0. -1.
         11    1    6    6    0    0  0.25891836319E+02 -0.47570159919E+02  0.20849186582E+03  0.21541161857E+03  0.00000000000E+00 0. -1.
        -12    1    6    6    0    0 -0.47905823993E+02 -0.19079023549E+02  0.15923525732E+03  0.16737635522E+03  0.00000000000E+00 0.  1.
         -5    1    5    5    0  503 -0.36394413985E+02 -0.35399731284E+02  0.16204789174E+02  0.53501210607E+02  0.47000000000E+01 0.  1.
<mgrwt>
<rscale>  2 0.20663069E+03</rscale>
<asrwt>0</asrwt>
<pdfrwt beam="1">  1       21 0.74544316E-01 0.20723064E+03</pdfrwt>
<pdfrwt beam="2">  1       21 0.25710909E-01 0.20723064E+03</pdfrwt>
<totfact> 0.22940591E+04</totfact>
</mgrwt>
</event>
<event>
12    1  0.1441827E-001  0.1939349E+03  0.7546771E-02  0.1154976E+00
         21   -1    0    0  504  503  0.00000000000E+00  0.00000000000E+00  0.18050121428E+03  0.18050121428E+03  0.00000000000E+00 0.  1.
         21   -1    0    0  502  504 -0.00000000000E+00 -0.00000000000E+00 -0.29627331711E+03  0.29627331711E+03  0.00000000000E+00 0.  1.
          6    2    1    2  502    0 -0.38039538163E+01 -0.87372448917E+02 -0.18778859275E+03  0.26989986487E+03  0.17301146377E+03 0.  0.
         24    2    3    3    0    0 -0.14359227131E+02 -0.52733005326E+02 -0.22674016299E+02  0.10079570110E+03  0.81600889034E+02 0.  0.
         -6    2    1    2    0  503  0.38039538163E+01  0.87372448917E+02  0.72016489925E+02  0.20687466652E+03  0.17309632559E+03 0.  0.
        -24    2    5    5    0    0 -0.17837613133E+02 -0.10653767888E+02  0.67255729813E+02  0.10626526617E+03  0.79607100124E+02 0.  0.
          4    1    4    4  501    0 -0.10418769006E+02 -0.53411609372E+02  0.19968376491E+02  0.57966255899E+02  0.00000000000E+00 0. -1.
         -3    1    4    4    0  501 -0.39404581251E+01  0.67860404518E+00 -0.42642392789E+02  0.42829445204E+02  0.00000000000E+00 0.  1.
          5    1    3    3  502    0  0.10555273315E+02 -0.34639443591E+02 -0.16511457645E+03  0.16910416377E+03  0.47000000000E+01 0. -1.
         13    1    6    6    0    0 -0.18517859628E+02  0.25097671546E+02  0.12723885819E+01  0.31215752673E+02  0.00000000000E+00 0. -1.
        -14    1    6    6    0    0  0.68024649560E+00 -0.35751439434E+02  0.65983341231E+02  0.75049513502E+02  0.00000000000E+00 0.  1.
         -5    1    5    5    0  503  0.21641566949E+02  0.98026216805E+02  0.47607601124E+01  0.10060940035E+03  0.47000000000E+01 0.  1.
<mgrwt>
<rscale>  2 0.19391598E+03</rscale>
<asrwt>0</asrwt>
<pdfrwt beam="1">  1       21 0.27769418E-01 0.19393492E+03</pdfrwt>
<pdfrwt beam="2">  1       21 0.45580510E-01 0.19393492E+03</pdfrwt>
<totfact> 0.57107435E+04</totfact>
</mgrwt>
</event>
<event>
12    1  0.1441827E-001  0.2531470E+03  0.7546771E-02  0.1111599E+00
         21   -1    0    0  504  503  0.00000000000E+00  0.00000000000E+00  0.15044116079E+04  0.15044116079E+04  0.00000000000E+00 0. -1.
         21   -1    0    0  502  504 -0.00000000000E+00 -0.00000000000E+00 -0.46863132359E+02  0.46863132359E+02  0.00000000000E+00 0.  1.
          6    2    1    2  502    0  0.13968297420E+03 -0.12204819266E+03  0.48923250471E+03  0.55084646946E+03  0.17226808944E+03 0.  0.
         24    2    3    3    0    0  0.40226901236E+02 -0.86888725399E+02  0.37469428011E+03  0.39506202389E+03  0.80686708865E+02 0.  0.
         -6    2    1    2    0  503 -0.13968297420E+03  0.12204819266E+03  0.96831597083E+03  0.10004282708E+04  0.16974631376E+03 0.  0.
        -24    2    5    5    0    0 -0.28857653501E+02  0.11854341702E+03  0.54022241439E+03  0.55818318239E+03  0.69590963517E+02 0.  0.
          2    1    4    4  501    0  0.61095716870E+02 -0.37736875951E+02  0.21344864649E+03  0.22520453618E+03  0.00000000000E+00 0. -1.
         -1    1    4    4    0  501 -0.20868815634E+02 -0.49151849448E+02  0.16124563362E+03  0.16985748772E+03  0.00000000000E+00 0.  1.
          5    1    3    3  502    0  0.99456072963E+02 -0.35159467264E+02  0.11453822460E+03  0.15578444557E+03  0.47000000000E+01 0. -1.
         11    1    6    6    0    0 -0.28258570593E+02  0.35041197501E+02  0.31066686818E+03  0.31391134946E+03  0.00000000000E+00 0. -1.
        -12    1    6    6    0    0 -0.59908290794E+00  0.83502219522E+02  0.22955554621E+03  0.24427183292E+03  0.00000000000E+00 0.  1.
         -5    1    5    5    0  503 -0.11082532070E+03  0.35047756406E+01  0.42809355644E+03  0.44224508841E+03  0.47000000000E+01 0.  1.
<mgrwt>
<rscale>  2 0.25271856E+03</rscale>
<asrwt>0</asrwt>
<pdfrwt beam="1">  1       21 0.23144790E+00 0.25314697E+03</pdfrwt>
<pdfrwt beam="2">  1       21 0.72097138E-02 0.25314697E+03</pdfrwt>
<totfact> 0.11744079E+04</totfact>
</mgrwt>
</event>
<event>
12    1  0.1441827E-001  0.2471622E+03  0.7546771E-02  0.1115159E+00
         21   -1    0    0  504  503  0.00000000000E+00  0.00000000000E+00  0.43985445921E+02  0.43985445921E+02  0.00000000000E+00 0. -1.
         21   -1    0    0  502  504 -0.00000000000E+00 -0.00000000000E+00 -0.18592494475E+04  0.18592494475E+04  0.00000000000E+00 0. -1.
          6    2    1    2  502    0  0.17639291716E+03 -0.12986847353E+02 -0.42853567667E+03  0.49470394553E+03  0.17264428201E+03 0.  0.
         24    2    3    3    0    0  0.12614723477E+03  0.38898291701E+02 -0.37216372528E+03  0.40296200769E+03  0.80289098231E+02 0.  0.
         -6    2    1    2    0  503 -0.17639291716E+03  0.12986847353E+02 -0.13867283249E+04  0.14085309479E+04  0.17222329878E+03 0.  0.
        -24    2    5    5    0    0 -0.18856427520E+03  0.26784740750E+02 -0.13605995290E+04  0.13762303629E+04  0.80653735613E+02 0.  0.
          2    1    4    4  501    0 -0.38016082450E+01  0.10815573152E+02 -0.93590581518E+02  0.94290115053E+02  0.00000000000E+00 0. -1.
         -1    1    4    4    0  501  0.12994884302E+03  0.28082718549E+02 -0.27857314376E+03  0.30867189264E+03  0.00000000000E+00 0.  1.
          5    1    3    3  502    0  0.50245682388E+02 -0.51885139054E+02 -0.56371951395E+02  0.91741937833E+02  0.47000000000E+01 0. -1.
         13    1    6    6    0    0 -0.13635233187E+03  0.38903821255E+02 -0.11584505918E+04  0.11670960712E+04  0.00000000000E+00 0. -1.
        -14    1    6    6    0    0 -0.52211943333E+02 -0.12119080505E+02 -0.20214893725E+03  0.20913429171E+03  0.00000000000E+00 0.  1.
         -5    1    5    5    0  503  0.12171358040E+02 -0.13797893397E+02 -0.26128795867E+02  0.32300585013E+02  0.47000000000E+01 0.  1.
<mgrwt>
<rscale>  2 0.24708873E+03</rscale>
<asrwt>0</asrwt>
<pdfrwt beam="1">  1       21 0.67669928E-02 0.24716223E+03</pdfrwt>
<pdfrwt beam="2">  1       21 0.28603833E+00 0.24716223E+03</pdfrwt>
<totfact> 0.62449354E+03</totfact>
</mgrwt>
</event>
<event>
12    1  0.1441827E-001  0.1976901E+03  0.7546771E-02  0.1152428E+00
         21   -1    0    0  504  503  0.00000000000E+00  0.00000000000E+00  0.18254057813E+04  0.18254057813E+04  0.00000000000E+00 0.  1.
         21   -1    0    0  502  504 -0.00000000000E+00 -0.00000000000E+00 -0.21688710568E+02  0.21688710568E+02  0.00000000000E+00 0.  1.
          6    2    1    2  502    0 -0.70010002032E+02 -0.55380194016E+02  0.10680936350E+04  0.10862345015E+04  0.17638881148E+03 0.  0.
         24    2    3    3    0    0 -0.74463309179E+02 -0.72080264879E+02  0.46772025892E+03  0.48559400584E+03  0.79365917732E+02 0.  0.
         -6    2    1    2    0  503  0.70010002032E+02  0.55380194016E+02  0.73562343574E+03  0.76085999039E+03  0.17262015958E+03 0.  0.
        -24    2    5    5    0    0  0.34806860905E+02  0.66206913012E+02  0.70166213335E+03  0.71054161353E+03  0.83335240405E+02 0.  0.
          2    1    4    4  501    0 -0.85469225019E+01  0.34134848662E+01  0.22741027482E+01  0.94801532949E+01  0.00000000000E+00 0. -1.
         -1    1    4    4    0  501 -0.65916386677E+02 -0.75493749745E+02  0.46544615618E+03  0.47611385254E+03  0.00000000000E+00 0.  1.
          5    1    3    3  502    0  0.44533071464E+01  0.16700070863E+02  0.60037337611E+03  0.60064049568E+03  0.47000000000E+01 0. -1.
         13    1    6    6    0    0 -0.13595967861E+02 -0.55471900638E+01  0.30825049690E+02  0.34143891812E+02  0.00000000000E+00 0. -1.
        -14    1    6    6    0    0  0.48402828766E+02  0.71754103076E+02  0.67083708366E+03  0.67639772172E+03  0.00000000000E+00 0.  1.
         -5    1    5    5    0  503  0.35203141127E+02 -0.10826718996E+02  0.33961302397E+02  0.50318376861E+02  0.47000000000E+01 0.  1.
<mgrwt>
<rscale>  2 0.19684594E+03</rscale>
<asrwt>0</asrwt>
<pdfrwt beam="1">  1       21 0.28083154E+00 0.19769011E+03</pdfrwt>
<pdfrwt beam="2">  1       21 0.33367261E-02 0.19769011E+03</pdfrwt>
<totfact> 0.23234318E+04</totfact>
</mgrwt>
</event>
<event>
12    1  0.1441827E-001  0.2369348E+03  0.7546771E-02  0.1122074E+00
         21   -1    0    0  504  503  0.00000000000E+00  0.00000000000E+00  0.65048888681E+03  0.65048888681E+03  0.00000000000E+00 0. -1.
         21   -1    0    0  502  504 -0.00000000000E+00 -0.00000000000E+00 -0.85878720322E+02  0.85878720322E+02  0.00000000000E+00 0. -1.
          6    2    1    2  502    0  0.14170407722E+03  0.79673812371E+02  0.27239204254E+03  0.36016352375E+03  0.17056487658E+03 0.  0.
         24    2    3    3    0    0  0.15799777159E+02  0.19866621209E+02  0.49516464758E+02  0.97248316773E+02  0.79756123505E+02 0.  0.
         -6    2    1    2    0  503 -0.14170407722E+03 -0.79673812371E+02  0.29221812395E+03  0.37620408338E+03  0.17236623367E+03 0.  0.
        -24    2    5    5    0    0 -0.16818662218E+03 -0.60016108164E+02  0.21111141146E+03  0.28852204798E+03  0.82390964311E+02 0.  0.
          2    1    4    4  501    0  0.24414250366E+02  0.31544317703E+02 -0.55762990563E+01  0.40276478390E+02  0.00000000000E+00 0. -1.
         -1    1    4    4    0  501 -0.86144732069E+01 -0.11677696494E+02  0.55092763815E+02  0.56971838383E+02  0.00000000000E+00 0.  1.
          5    1    3    3  502    0  0.12590430006E+03  0.59807191162E+02  0.22287557778E+03  0.26291520698E+03  0.47000000000E+01 0. -1.
         13    1    6    6    0    0 -0.85045944510E+02 -0.42795897244E+02  0.52769591055E+02  0.10885279619E+03  0.00000000000E+00 0. -1.
        -14    1    6    6    0    0 -0.83140677671E+02 -0.17220210921E+02  0.15834182041E+03  0.17966925179E+03  0.00000000000E+00 0.  1.
         -5    1    5    5    0  503  0.26482544959E+02 -0.19657704207E+02  0.81106712484E+02  0.87682035401E+02  0.47000000000E+01 0.  1.
<mgrwt>
<rscale>  2 0.23660728E+03</rscale>
<asrwt>0</asrwt>
<pdfrwt beam="1">  1       21 0.10007521E+00 0.23693476E+03</pdfrwt>
<pdfrwt beam="2">  1       21 0.13212111E-01 0.23693476E+03</pdfrwt>
<totfact> 0.39561592E+04</totfact>
</mgrwt>
</event>
<event>
12    1  0.1441827E-001  0.1800703E+03  0.7546771E-02  0.1167817E+00
         21   -1    0    0  504  503  0.00000000000E+00  0.00000000000E+00  0.26343046013E+02  0.26343046013E+02  0.00000000000E+00 0. -1.
         21   -1    0    0  502  504 -0.00000000000E+00 -0.00000000000E+00 -0.12352120438E+04  0.12352120438E+04  0.00000000000E+00 0. -1.
          6    2    1    2  502    0 -0.30944643459E+02 -0.38792397088E+02 -0.65129210219E+03  0.67572679443E+03  0.17309788361E+03 0.  0.
         24    2    3    3    0    0  0.17155177266E+02 -0.67355171603E+02 -0.53662770832E+03  0.54805754182E+03  0.86987082718E+02 0.  0.
         -6    2    1    2    0  503  0.30944643459E+02  0.38792397088E+02 -0.55757689556E+03  0.58582829535E+03  0.17274367175E+03 0.  0.
        -24    2    5    5    0    0 -0.42532202885E+02  0.41852535929E+02 -0.24386345801E+03  0.26357618550E+03  0.80264539891E+02 0.  0.
          2    1    4    4  501    0  0.63223206200E+01 -0.72579794918E+02 -0.52860124639E+03  0.53359823468E+03  0.00000000000E+00 0. -1.
         -1    1    4    4    0  501  0.10832856646E+02  0.52246233147E+01 -0.80264619332E+01  0.14459307143E+02  0.00000000000E+00 0.  1.
          5    1    3    3  502    0 -0.48099820724E+02  0.28562774515E+02 -0.11466439386E+03  0.12766925261E+03  0.47000000000E+01 0. -1.
         11    1    6    6    0    0  0.47427838310E+01  0.51236872976E+02 -0.13708307673E+03  0.14642226975E+03  0.00000000000E+00 0. -1.
        -12    1    6    6    0    0 -0.47274986716E+02 -0.93843370468E+01 -0.10678038127E+03  0.11715391575E+03  0.00000000000E+00 0.  1.
         -5    1    5    5    0  503  0.73476846344E+02 -0.30601388413E+01 -0.31371343756E+03  0.32225210985E+03  0.47000000000E+01 0.  1.
<mgrwt>
<rscale>  2 0.17998508E+03</rscale>
<asrwt>0</asrwt>
<pdfrwt beam="1">  1       21 0.40527753E-02 0.18007026E+03</pdfrwt>
<pdfrwt beam="2">  1       21 0.19003267E+00 0.18007026E+03</pdfrwt>
<totfact> 0.60223281E+04</totfact>
</mgrwt>
</event>
<event>
12    1  0.1441827E-001  0.1857914E+03  0.7546771E-02  0.1162729E+00
         21   -1    0    0  504  503  0.00000000000E+00  0.00000000000E+00  0.13014799497E+03  0.13014799497E+03  0.00000000000E+00 0. -1.
         21   -1    0    0  502  504 -0.00000000000E+00 -0.00000000000E+00 -0.37969469002E+03  0.37969469002E+03  0.00000000000E+00 0. -1.
          6    2    1    2  502    0 -0.66965517680E+02  0.35163250996E+01 -0.26670068424E+03  0.32503490820E+03  0.17326768733E+03 0.  0.
         24    2    3    3    0    0 -0.30627093980E+02 -0.62893088782E+02 -0.18052121812E+03  0.21023211350E+03  0.81951643389E+02 0.  0.
         -6    2    1    2    0  503  0.66965517680E+02 -0.35163250996E+01  0.17153989190E+02  0.18480777679E+03  0.17135609098E+03 0.  0.
        -24    2    5    5    0    0  0.37540719114E+02  0.18507238857E+02  0.72787784743E+02  0.11796418811E+03  0.82859305973E+02 0.  0.
          4    1    4    4  501    0 -0.46117339719E+02 -0.26865791132E+02 -0.15374767277E+03  0.16274804650E+03  0.00000000000E+00 0. -1.
         -3    1    4    4    0  501  0.15490245738E+02 -0.36027297650E+02 -0.26773545350E+02  0.47484067007E+02  0.00000000000E+00 0.  1.
          5    1    3    3  502    0 -0.36338423700E+02  0.66409413881E+02 -0.86179466118E+02  0.11480279469E+03  0.47000000000E+01 0. -1.
         13    1    6    6    0    0 -0.20969686508E+02 -0.99058681402E+01  0.44402020614E+01  0.23612906856E+02  0.00000000000E+00 0. -1.
        -14    1    6    6    0    0  0.58510405622E+02  0.28413106997E+02  0.68347582681E+02  0.94351281251E+02  0.00000000000E+00 0.  1.
         -5    1    5    5    0  503  0.29424798566E+02 -0.22023563957E+02 -0.55633795552E+02  0.66843588680E+02  0.47000000000E+01 0.  1.
<mgrwt>
<rscale>  2 0.18534441E+03</rscale>
<asrwt>0</asrwt>
<pdfrwt beam="1">  1       21 0.20022769E-01 0.18579138E+03</pdfrwt>
<pdfrwt beam="2">  1       21 0.58414567E-01 0.18579138E+03</pdfrwt>
<totfact> 0.63401465E+04</totfact>
</mgrwt>
</event>
<event>
12    1  0.1441827E-001  0.1940711E+03  0.7546771E-02  0.1154999E+00
         21   -1    0    0  504  503  0.00000000000E+00  0.00000000000E+00  0.14958109224E+03  0.14958109224E+03  0.00000000000E+00 0.  1.
         21   -1    0    0  502  504 -0.00000000000E+00 -0.00000000000E+00 -0.29580587539E+03  0.29580587539E+03  0.00000000000E+00 0.  1.
          6    2    1    2  502    0 -0.31879036625E+02  0.80931280458E+02 -0.16003591352E+03  0.25154537496E+03  0.17348612888E+03 0.  0.
         24    2    3    3    0    0 -0.23602792809E+02  0.70351021348E+02 -0.18932790224E+03  0.21897930830E+03  0.81243614293E+02 0.  0.
         -6    2    1    2    0  503  0.31879036625E+02 -0.80931280458E+02  0.13811130370E+02  0.19384159268E+03  0.17267793894E+03 0.  0.
        -24    2    5    5    0    0  0.18854506008E+01  0.15852029537E+02  0.32899165609E+02  0.90627895015E+02  0.82922967221E+02 0.  0.
          4    1    4    4  501    0 -0.22941033090E+02  0.24655354054E+01 -0.11905326002E+03  0.12126849791E+03  0.00000000000E+00 0. -1.
         -3    1    4    4    0  501 -0.66175971841E+00  0.67885485943E+02 -0.70274642220E+02  0.97710810388E+02  0.00000000000E+00 0.  1.
          5    1    3    3  502    0 -0.82762438167E+01  0.10580259110E+02  0.29291988718E+02  0.32566066658E+02  0.47000000000E+01 0. -1.
         11    1    6    6    0    0  0.11920236220E+02  0.42327197958E+02 -0.39577431860E+01  0.44151415036E+02  0.00000000000E+00 0. -1.
        -12    1    6    6    0    0 -0.10034785620E+02 -0.26475168421E+02  0.36856908795E+02  0.46476479980E+02  0.00000000000E+00 0.  1.
         -5    1    5    5    0  503  0.29993586025E+02 -0.96783309995E+02 -0.19088035239E+02  0.10321369766E+03  0.47000000000E+01 0.  1.
<mgrwt>
<rscale>  2 0.19389029E+03</rscale>
<asrwt>0</asrwt>
<pdfrwt beam="1">  1       21 0.23012476E-01 0.19407107E+03</pdfrwt>
<pdfrwt beam="2">  1       21 0.45508596E-01 0.19407107E+03</pdfrwt>
<totfact> 0.82054443E+04</totfact>
</mgrwt>
</event>
<event>
12    1  0.1441827E-001  0.1856424E+03  0.7546771E-02  0.1162563E+00
         21   -1    0    0  504  503  0.00000000000E+00  0.00000000000E+00  0.21161927917E+04  0.21161927917E+04  0.00000000000E+00 0.  1.
         21   -1    0    0  502  504 -0.00000000000E+00 -0.00000000000E+00 -0.97258815869E+02  0.97258815869E+02  0.00000000000E+00 0.  1.
          6    2    1    2  502    0 -0.51990188104E+02 -0.45230500236E+02 -0.83871028249E+00  0.18516543131E+03  0.17186260707E+03 0.  0.
         24    2    3    3    0    0 -0.16765737530E+02 -0.16449590162E+02  0.63275626591E+02  0.10641366374E+03  0.82270188641E+02 0.  0.
         -6    2    1    2    0  503  0.51990188104E+02  0.45230500236E+02  0.20197726861E+04  0.20282861762E+04  0.17237845399E+03 0.  0.
        -24    2    5    5    0    0  0.91761268028E+02  0.65875611861E+02  0.15596012729E+04  0.15659142708E+04  0.83496385872E+02 0.  0.
          4    1    4    4  501    0 -0.39602841351E+02 -0.37133154174E+02  0.34989914186E+02  0.64587539640E+02  0.00000000000E+00 0. -1.
         -3    1    4    4    0  501  0.22837103821E+02  0.20683564012E+02  0.28285712405E+02  0.41826124102E+02  0.00000000000E+00 0.  1.
          5    1    3    3  502    0 -0.35224450574E+02 -0.28780910074E+02 -0.64114336874E+02  0.78751767572E+02  0.47000000000E+01 0. -1.
         13    1    6    6    0    0  0.71178176177E+02  0.30871535336E+02  0.54434290939E+03  0.54984414834E+03  0.00000000000E+00 0. -1.
        -14    1    6    6    0    0  0.20583091851E+02  0.35004076524E+02  0.10152583635E+04  0.10160701225E+04  0.00000000000E+00 0.  1.
         -5    1    5    5    0  503 -0.39771079924E+02 -0.20645111625E+02  0.46017141317E+03  0.46237190543E+03  0.47000000000E+01 0.  1.
<mgrwt>
<rscale>  2 0.18552258E+03</rscale>
<asrwt>0</asrwt>
<pdfrwt beam="1">  1       21 0.32556809E+00 0.18564242E+03</pdfrwt>
<pdfrwt beam="2">  1       21 0.14962896E-01 0.18564242E+03</pdfrwt>
<totfact> 0.96731014E+02</totfact>
</mgrwt>
</event>
<event>
12    1  0.1441827E-001  0.1912295E+03  0.7546771E-02  0.1161024E+00
         21   -1    0    0  504  503  0.00000000000E+00  0.00000000000E+00  0.19566885347E+03  0.19566885347E+03  0.00000000000E+00 0. -1.
         21   -1    0    0  502  504 -0.00000000000E+00 -0.00000000000E+00 -0.41308466765E+03  0.41308466765E+03  0.00000000000E+00 0. -1.
          6    2    1    2  502    0  0.74007826944E+02  0.12480676754E+02 -0.34313365682E+03  0.39282239865E+03  0.17588577173E+03 0.  0.
         24    2    3    3    0    0  0.39662212317E+02 -0.53212398561E+02 -0.26402406890E+03  0.28430687769E+03  0.81957557888E+02 0.  0.
         -6    2    1    2    0  503 -0.74007826944E+02 -0.12480676754E+02  0.12571784263E+03  0.21593112247E+03  0.15870837393E+03 0.  0.
        -24    2    5    5    0    0  0.84736665289E+01  0.79385400612E+01  0.96544783212E+02  0.12596836031E+03  0.80076895482E+02 0.  0.
          2    1    4    4  501    0  0.23621934828E+02 -0.20008770225E+02 -0.23592148965E+03  0.23794389249E+03  0.00000000000E+00 0. -1.
         -1    1    4    4    0  501  0.16040277489E+02 -0.33203628336E+02 -0.28102579251E+02  0.46362985205E+02  0.00000000000E+00 0.  1.
          5    1    3    3  502    0  0.34345614627E+02  0.65693075315E+02 -0.79109587917E+02  0.10851552096E+03  0.47000000000E+01 0. -1.
         13    1    6    6    0    0 -0.27769002857E+02  0.25201087856E+02  0.29040794939E+02  0.47429738767E+02  0.00000000000E+00 0. -1.
        -14    1    6    6    0    0  0.36242669386E+02 -0.17262547795E+02  0.67503988273E+02  0.78538621539E+02  0.00000000000E+00 0.  1.
         -5    1    5    5    0  503 -0.82481493473E+02 -0.20419216815E+02  0.29173059422E+02  0.89962762168E+02  0.47000000000E+01 0.  1.
<mgrwt>
<rscale>  2 0.18718564E+03</rscale>
<asrwt>0</asrwt>
<pdfrwt beam="1">  1       21 0.30102901E-01 0.19122952E+03</pdfrwt>
<pdfrwt beam="2">  1       21 0.63551487E-01 0.19122952E+03</pdfrwt>
<totfact> 0.24248707E+04</totfact>
</mgrwt>
</event>
<event>
12    1  0.1441827E-001  0.2820976E+03  0.7546771E-02  0.1094611E+00
         21   -1    0    0  504  503  0.00000000000E+00  0.00000000000E+00  0.12694651151E+04  0.12694651151E+04  0.00000000000E+00 0.  1.
         21   -1    0    0  502  504 -0.00000000000E+00 -0.00000000000E+00 -0.72358931838E+02  0.72358931838E+02  0.00000000000E+00 0. -1.
          6    2    1    2  502    0  0.22234229164E+03  0.13811772480E+02  0.35239407318E+03  0.45139856747E+03  0.17306710891E+03 0.  0.
         24    2    3    3    0    0  0.15767874539E+03 -0.46856477204E+02  0.28890371930E+03  0.34224213949E+03  0.81278575349E+02 0.  0.
         -6    2    1    2    0  503 -0.22234229164E+03 -0.13811772480E+02  0.84471211005E+03  0.89042547944E+03  0.17231403268E+03 0.  0.
        -24    2    5    5    0    0 -0.11690572789E+03  0.45554551643E+02  0.33309302614E+03  0.36467134827E+03  0.79322517613E+02 0.  0.
          2    1    4    4  501    0  0.16677005132E+03 -0.49535552855E+02  0.27258292021E+03  0.32336893698E+03  0.00000000000E+00 0. -1.
         -1    1    4    4    0  501 -0.90913059301E+01  0.26790756509E+01  0.16320799089E+02  0.18873202504E+02  0.00000000000E+00 0.  1.
          5    1    3    3  502    0  0.64663546253E+02  0.60668249684E+02  0.63490353877E+02  0.10915642798E+03  0.47000000000E+01 0. -1.
         13    1    6    6    0    0 -0.97093708902E+02  0.26295938220E-02  0.19329367029E+03  0.21630911051E+03  0.00000000000E+00 0. -1.
        -14    1    6    6    0    0 -0.19812018991E+02  0.45551922049E+02  0.13979935585E+03  0.14836223776E+03  0.00000000000E+00 0.  1.
         -5    1    5    5    0  503 -0.10543656375E+03 -0.59366324123E+02  0.51161908391E+03  0.52575413116E+03  0.47000000000E+01 0.  1.
<mgrwt>
<rscale>  2 0.28198223E+03</rscale>
<asrwt>0</asrwt>
<pdfrwt beam="1">  1       21 0.19530231E+00 0.28209765E+03</pdfrwt>
<pdfrwt beam="2">  1       21 0.11132144E-01 0.28209765E+03</pdfrwt>
<totfact> 0.90655208E+03</totfact>
</mgrwt>
</event>
<event>
12    1  0.1441827E-001  0.1900944E+03  0.7546771E-02  0.1159262E+00
         21   -1    0    0  504  503  0.00000000000E+00  0.00000000000E+00  0.68001963994E+02  0.68001963994E+02  0.00000000000E+00 0. -1.
         21   -1    0    0  502  504 -0.00000000000E+00 -0.00000000000E+00 -0.11616153174E+04  0.11616153174E+04  0.00000000000E+00 0. -1.
          6    2    1    2  502    0  0.81287194600E+01  0.72535004303E+02 -0.10060433242E+04  0.10238452287E+04  0.17552344354E+03 0.  0.
         24    2    3    3    0    0  0.49436245994E+02 -0.63782608480E+01 -0.62710058614E+03  0.63454675208E+03  0.83125271826E+02 0.  0.
         -6    2    1    2    0  503 -0.81287194600E+01 -0.72535004303E+02 -0.87570029226E+02  0.20577205272E+03  0.17130739835E+03 0.  0.
        -24    2    5    5    0    0  0.53226195931E+02 -0.28700552720E+02 -0.15019577749E+02  0.10102692014E+03  0.79524217808E+02 0.  0.
          4    1    4    4  501    0  0.31695362217E+01 -0.26084262908E+02 -0.44067124469E+03  0.44145393942E+03  0.00000000000E+00 0. -1.
         -3    1    4    4    0  501  0.46266709772E+02  0.19706002060E+02 -0.18642934145E+03  0.19309281266E+03  0.00000000000E+00 0.  1.
          5    1    3    3  502    0 -0.41307526534E+02  0.78913265151E+02 -0.37894273806E+03  0.38929847661E+03  0.47000000000E+01 0. -1.
         11    1    6    6    0    0  0.18358821555E+02 -0.19651831709E+02  0.31996606019E+02  0.41797411585E+02  0.00000000000E+00 0. -1.
        -12    1    6    6    0    0  0.34867374376E+02 -0.90487210107E+01 -0.47016183769E+02  0.59229508557E+02  0.00000000000E+00 0.  1.
         -5    1    5    5    0  503 -0.61354915391E+02 -0.43834451583E+02 -0.72550451477E+02  0.10474513257E+03  0.47000000000E+01 0.  1.
<mgrwt>
<rscale>  2 0.18911541E+03</rscale>
<asrwt>0</asrwt>
<pdfrwt beam="1">  1       21 0.10461840E-01 0.19009440E+03</pdfrwt>
<pdfrwt beam="2">  1       21 0.17871006E+00 0.19009440E+03</pdfrwt>
<totfact> 0.13937893E+04</totfact>
</mgrwt>
</event>
<event>
12    1  0.1441827E-001  0.2133824E+03  0.7546771E-02  0.1139080E+00
         21   -1    0    0  504  503  0.00000000000E+00  0.00000000000E+00  0.13160096174E+04  0.13160096174E+04  0.00000000000E+00 0.  1.
         21   -1    0    0  502  504 -0.00000000000E+00 -0.00000000000E+00 -0.38244352428E+02  0.38244352428E+02  0.00000000000E+00 0.  1.
          6    2    1    2  502    0 -0.86711769207E+02  0.89969208477E+02  0.42706568736E+03  0.47740671061E+03  0.17297016109E+03 0.  0.
         24    2    3    3    0    0 -0.65230110198E+02 -0.97915894711E+01  0.14491898052E+03  0.17733583122E+03  0.78074602903E+02 0.  0.
         -6    2    1    2    0  503  0.86711769207E+02 -0.89969208477E+02  0.85069957758E+03  0.87684725918E+03  0.17192427183E+03 0.  0.
        -24    2    5    5    0    0  0.78460655910E+02  0.49674285215E+01  0.54319245449E+03  0.55487867893E+03  0.81557071109E+02 0.  0.
          4    1    4    4  501    0 -0.15235984578E+02  0.93490755183E+01 -0.46539697495E+01  0.18471596399E+02  0.00000000000E+00 0. -1.
         -3    1    4    4    0  501 -0.49994125620E+02 -0.19140664989E+02  0.14957295027E+03  0.15886423482E+03  0.00000000000E+00 0.  1.
          5    1    3    3  502    0 -0.21481659009E+02  0.99760797949E+02  0.28214670684E+03  0.30007087939E+03  0.47000000000E+01 0. -1.
         13    1    6    6    0    0 -0.95271459750E+00  0.77528292174E+01  0.22467831532E+01  0.81278570679E+01  0.00000000000E+00 0. -1.
        -14    1    6    6    0    0  0.79413370508E+02 -0.27854006959E+01  0.54094567133E+03  0.54675082186E+03  0.00000000000E+00 0.  1.
         -5    1    5    5    0  503  0.82511132966E+01 -0.94936636999E+02  0.30750712310E+03  0.32196858025E+03  0.47000000000E+01 0.  1.
<mgrwt>
<rscale>  2 0.21317039E+03</rscale>
<asrwt>0</asrwt>
<pdfrwt beam="1">  1       21 0.20246298E+00 0.21338244E+03</pdfrwt>
<pdfrwt beam="2">  1       21 0.58837475E-02 0.21338244E+03</pdfrwt>
<totfact> 0.26010446E+04</totfact>
</mgrwt>
</event>
<event>
12    1  0.1441827E-001  0.2240649E+03  0.7546771E-02  0.1131755E+00
         21   -1    0    0  504  503  0.00000000000E+00  0.00000000000E+00  0.15638867138E+03  0.15638867138E+03  0.00000000000E+00 0. -1.
         21   -1    0    0  502  504 -0.00000000000E+00 -0.00000000000E+00 -0.53442445428E+03  0.53442445428E+03  0.00000000000E+00 0.  1.
          6    2    1    2  502    0  0.11479631544E+03 -0.70550482963E+02  0.31461924620E+02  0.22626293880E+03  0.17902374169E+03 0.  0.
         24    2    3    3    0    0 -0.22659869720E+01 -0.60799165604E+02 -0.81477881251E+01  0.10220774874E+03  0.81721259272E+02 0.  0.
         -6    2    1    2    0  503 -0.11479631544E+03  0.70550482963E+02 -0.40949770752E+03  0.46455018686E+03  0.17309806170E+03 0.  0.
        -24    2    5    5    0    0 -0.11446979525E+02 -0.16920511894E+02 -0.17655936981E+03  0.19507918777E+03  0.80407346496E+02 0.  0.
          2    1    4    4  501    0 -0.17032387407E+02 -0.41491278628E+02  0.32124139911E+02  0.55168730164E+02  0.00000000000E+00 0. -1.
         -1    1    4    4    0  501  0.14766400435E+02 -0.19307886976E+02 -0.40271928036E+02  0.47039018580E+02  0.00000000000E+00 0.  1.
          5    1    3    3  502    0  0.11706230241E+03 -0.97513173592E+01  0.39609712745E+02  0.12405519006E+03  0.47000000000E+01 0. -1.
         13    1    6    6    0    0 -0.42673436819E+02 -0.25565674123E+02 -0.11989342561E+03  0.12980392679E+03  0.00000000000E+00 0. -1.
        -14    1    6    6    0    0  0.31226457294E+02  0.86451622296E+01 -0.56665944194E+02  0.65275260984E+02  0.00000000000E+00 0.  1.
         -5    1    5    5    0  503 -0.10334933592E+03  0.87470994857E+02 -0.23293833772E+03  0.26947099909E+03  0.47000000000E+01 0.  1.
<mgrwt>
<rscale>  2 0.22287910E+03</rscale>
<asrwt>0</asrwt>
<pdfrwt beam="1">  1       21 0.24059795E-01 0.22406487E+03</pdfrwt>
<pdfrwt beam="2">  1       21 0.82219148E-01 0.22406487E+03</pdfrwt>
<totfact> 0.20681299E+04</totfact>
</mgrwt>
</event>
<event>
12    1  0.1441827E-001  0.2357518E+03  0.7546771E-02  0.1122673E+00
         21   -1    0    0  504  503  0.00000000000E+00  0.00000000000E+00  0.62661336227E+03  0.62661336227E+03  0.00000000000E+00 0. -1.
         21   -1    0    0  502  504 -0.00000000000E+00 -0.00000000000E+00 -0.10232414846E+03  0.10232414846E+03  0.00000000000E+00 0.  1.
          6    2    1    2  502    0 -0.86250515506E+02  0.13343999564E+03  0.12900222393E+03  0.26873868222E+03  0.17416521376E+03 0.  0.
         24    2    3    3    0    0 -0.84571693640E+02  0.15108965440E+02  0.51227820960E+02  0.12704888405E+03  0.78335669366E+02 0.  0.
         -6    2    1    2    0  503  0.86250515506E+02 -0.13343999564E+03  0.39528698988E+03  0.46019882851E+03  0.17402808258E+03 0.  0.
        -24    2    5    5    0    0  0.73601538612E+02 -0.18780891586E+02  0.24774705861E+03  0.27285735398E+03  0.85455381314E+02 0.  0.
          4    1    4    4  501    0  0.11739084802E+02 -0.11396460372E+02  0.78106955690E+01  0.18129875517E+02  0.00000000000E+00 0. -1.
         -3    1    4    4    0  501 -0.96310778442E+02  0.26505425812E+02  0.43417125391E+02  0.10891900853E+03  0.00000000000E+00 0.  1.
          5    1    3    3  502    0 -0.16788218655E+01  0.11833103020E+03  0.77774402966E+02  0.14168979818E+03  0.47000000000E+01 0. -1.
         13    1    6    6    0    0 -0.77151561201E+01  0.19329951883E+02  0.79074651666E+02  0.81767788339E+02  0.00000000000E+00 0. -1.
        -14    1    6    6    0    0  0.81316694732E+02 -0.38110843469E+02  0.16867240694E+03  0.19108956564E+03  0.00000000000E+00 0.  1.
         -5    1    5    5    0  503  0.12648976894E+02 -0.11465910405E+03  0.14753993127E+03  0.18734147453E+03  0.47000000000E+01 0.  1.
<mgrwt>
<rscale>  2 0.23572646E+03</rscale>
<asrwt>0</asrwt>
<pdfrwt beam="1">  1       21 0.96402054E-01 0.23575179E+03</pdfrwt>
<pdfrwt beam="2">  1       21 0.15742177E-01 0.23575179E+03</pdfrwt>
<totfact> 0.31423907E+04</totfact>
</mgrwt>
</event>
<event>
12    1  0.1441827E-001  0.1976757E+03  0.7546771E-02  0.1152600E+00
         21   -1    0    0  504  503  0.00000000000E+00  0.00000000000E+00  0.19408558121E+04  0.19408558121E+04  0.00000000000E+00 0.  1.
         21   -1    0    0  502  504 -0.00000000000E+00 -0.00000000000E+00 -0.78289028637E+02  0.78289028637E+02  0.00000000000E+00 0.  1.
          6    2    1    2  502    0 -0.65552318001E+02 -0.66865322012E+02  0.60524328907E+02  0.20673382606E+03  0.17409078886E+03 0.  0.
         24    2    3    3    0    0 -0.40667006941E+02 -0.10165587154E+02 -0.31450795526E+02  0.95757918073E+02  0.80145378649E+02 0.  0.
         -6    2    1    2    0  503  0.65552318001E+02  0.66865322012E+02  0.18020424545E+04  0.18124110146E+04  0.16943612487E+03 0.  0.
        -24    2    5    5    0    0  0.71819995259E+01  0.95387944660E+02  0.99795121803E+03  0.10056858813E+04  0.79668169770E+02 0.  0.
          2    1    4    4  501    0  0.22966776365E+02  0.59915724645E+01 -0.20543975826E+01  0.23824195823E+02  0.00000000000E+00 0. -1.
         -1    1    4    4    0  501 -0.63633783305E+02 -0.16157159619E+02 -0.29396397944E+02  0.71933722250E+02  0.00000000000E+00 0.  1.
          5    1    3    3  502    0 -0.24885311060E+02 -0.56699734858E+02  0.91975124434E+02  0.11097590799E+03  0.47000000000E+01 0. -1.
         13    1    6    6    0    0  0.10060108221E+02 -0.78756926297E+01  0.28533878300E+03  0.28562467225E+03  0.00000000000E+00 0. -1.
        -14    1    6    6    0    0 -0.28781086947E+01  0.10326363729E+03  0.71261243503E+03  0.72006120910E+03  0.00000000000E+00 0.  1.
         -5    1    5    5    0  503  0.58370318475E+02 -0.28522622648E+02  0.80409123648E+03  0.80672513328E+03  0.47000000000E+01 0.  1.
<mgrwt>
<rscale>  2 0.19664599E+03</rscale>
<asrwt>0</asrwt>
<pdfrwt beam="1">  1       21 0.29859317E+00 0.19767570E+03</pdfrwt>
<pdfrwt beam="2">  1       21 0.12044467E-01 0.19767570E+03</pdfrwt>
<totfact> 0.20146840E+03</totfact>
</mgrwt>
</event>
<event>
12    1  0.1441827E-001  0.2319231E+03  0.7546771E-02  0.1125932E+00
         21   -1    0    0  504  503  0.00000000000E+00  0.00000000000E+00  0.64284417117E+03  0.64284417117E+03  0.00000000000E+00 0.  1.
         21   -1    0    0  502  504 -0.00000000000E+00 -0.00000000000E+00 -0.20142791564E+03  0.20142791564E+03  0.00000000000E+00 0. -1.
          6    2    1    2  502    0 -0.12112008201E+03 -0.86483641892E+02 -0.10455157843E+03  0.25108646096E+03  0.17310079071E+03 0.  0.
         24    2    3    3    0    0 -0.44988126345E+02 -0.15277790282E+02  0.12224247552E+02  0.94481762723E+02  0.80746695729E+02 0.  0.
         -6    2    1    2    0  503  0.12112008201E+03  0.86483641892E+02  0.54596783396E+03  0.59318562585E+03  0.17787303452E+03 0.  0.
        -24    2    5    5    0    0  0.10459597327E+03  0.31974761839E+02  0.50515204215E+03  0.52295541130E+03  0.79630857710E+02 0.  0.
          4    1    4    4  501    0 -0.19705912228E+02 -0.37301292649E+02 -0.21134505106E+02  0.47184496565E+02  0.00000000000E+00 0. -1.
         -3    1    4    4    0  501 -0.25282214117E+02  0.22023502367E+02  0.33358752658E+02  0.47297266158E+02  0.00000000000E+00 0.  1.
          5    1    3    3  502    0 -0.76131955666E+02 -0.71205851610E+02 -0.11677582598E+03  0.15660469824E+03  0.47000000000E+01 0. -1.
         13    1    6    6    0    0 -0.89614970009E+01 -0.94286449217E+01  0.76068747125E+02  0.77172936077E+02  0.00000000000E+00 0. -1.
        -14    1    6    6    0    0  0.11355747027E+03  0.41403406760E+02  0.42908329502E+03  0.44578247522E+03  0.00000000000E+00 0.  1.
         -5    1    5    5    0  503  0.16524108744E+02  0.54508880053E+02  0.40815791810E+02  0.70230214548E+02  0.47000000000E+01 0.  1.
<mgrwt>
<rscale>  2 0.23100779E+03</rscale>
<asrwt>0</asrwt>
<pdfrwt beam="1">  1       21 0.98899102E-01 0.23192307E+03</pdfrwt>
<pdfrwt beam="2">  1       21 0.30988910E-01 0.23192307E+03</pdfrwt>
<totfact> 0.82048692E+03</totfact>
</mgrwt>
</event>
<event>
12    1  0.1441827E-001  0.2388697E+03  0.7546771E-02  0.1121449E+00
         21   -1    0    0  504  503  0.00000000000E+00  0.00000000000E+00  0.68641539459E+02  0.68641539459E+02  0.00000000000E+00 0. -1.
         21   -1    0    0  502  504 -0.00000000000E+00 -0.00000000000E+00 -0.83890149050E+03  0.83890149050E+03  0.00000000000E+00 0.  1.
          6    2    1    2  502    0 -0.13407396498E+03 -0.10047459182E+03 -0.46086717497E+03  0.51666885233E+03  0.16271809462E+03 0.  0.
         24    2    3    3    0    0 -0.32011331924E+02 -0.10133775458E+02 -0.25579664695E+03  0.27038800527E+03  0.80934109156E+02 0.  0.
         -6    2    1    2    0  503  0.13407396498E+03  0.10047459182E+03 -0.30939277607E+03  0.39087417763E+03  0.17025792541E+03 0.  0.
        -24    2    5    5    0    0  0.97400628835E+02  0.10607436259E+03 -0.31286774297E+03  0.35331813402E+03  0.78796106096E+02 0.  0.
          2    1    4    4  501    0 -0.57613847234E+02 -0.16720373123E+02 -0.19676821292E+03  0.20571012587E+03  0.00000000000E+00 0. -1.
         -1    1    4    4    0  501  0.25602515311E+02  0.65865976650E+01 -0.59028434032E+02  0.64677879398E+02  0.00000000000E+00 0.  1.
          5    1    3    3  502    0 -0.10206263305E+03 -0.90340816366E+02 -0.20507052802E+03  0.24628084706E+03  0.47000000000E+01 0. -1.
         13    1    6    6    0    0  0.37696369424E+02  0.35621072272E+01 -0.36622252563E+02  0.52677265100E+02  0.00000000000E+00 0. -1.
        -14    1    6    6    0    0  0.59704259412E+02  0.10251225536E+03 -0.27624549041E+03  0.30064086892E+03  0.00000000000E+00 0.  1.
         -5    1    5    5    0  503  0.36673336143E+02 -0.55997707666E+01  0.34749669053E+01  0.37556043608E+02  0.47000000000E+01 0.  1.
<mgrwt>
<rscale>  2 0.23752991E+03</rscale>
<asrwt>0</asrwt>
<pdfrwt beam="1">  1       21 0.10560237E-01 0.23886970E+03</pdfrwt>
<pdfrwt beam="2">  1       21 0.12906176E+00 0.23886970E+03</pdfrwt>
<totfact> 0.31616417E+04</totfact>
</mgrwt>
</event>
<event>
12    1  0.1441827E-001  0.1796311E+03  0.7546771E-02  0.1168174E+00
         21   -1    0    0  504  503  0.00000000000E+00  0.00000000000E+00  0.23904613763E+03  0.23904613763E+03  0.00000000000E+00 0. -1.
         21   -1    0    0  502  504 -0.00000000000E+00 -0.00000000000E+00 -0.14267982565E+03  0.14267982565E+03  0.00000000000E+00 0. -1.
          6    2    1    2  502    0 -0.44455298542E+02  0.19433116115E+02  0.92621163695E+02  0.20205581705E+03  0.17289868035E+03 0.  0.
         24    2    3    3    0    0 -0.61994029915E+01 -0.31088112942E+02 -0.45979192438E+01  0.85911302681E+02  0.79716420536E+02 0.  0.
         -6    2    1    2    0  503  0.44455298542E+02 -0.19433116115E+02  0.37451482877E+01  0.17967014623E+03  0.17295495293E+03 0.  0.
        -24    2    5    5    0    0 -0.33807833468E+02 -0.31006353701E+02 -0.25958245846E+02  0.95033042767E+02  0.79076451087E+02 0.  0.
          2    1    4    4  501    0  0.22158352227E+02  0.11424734271E+02 -0.20623042499E+02  0.32354706126E+02  0.00000000000E+00 0. -1.
         -1    1    4    4    0  501 -0.28357755218E+02 -0.42512847213E+02  0.16025123255E+02  0.53556596555E+02  0.00000000000E+00 0.  1.
          5    1    3    3  502    0 -0.38255895550E+02  0.50521229057E+02  0.97219082938E+02  0.11614451437E+03  0.47000000000E+01 0. -1.
         11    1    6    6    0    0 -0.40872583460E+02 -0.53599814359E+02 -0.15562749355E+02  0.69178807055E+02  0.00000000000E+00 0. -1.
        -12    1    6    6    0    0  0.70647499921E+01  0.22593460658E+02 -0.10395496491E+02  0.25854235712E+02  0.00000000000E+00 0.  1.
         -5    1    5    5    0  503  0.78263132009E+02  0.11573237586E+02  0.29703394133E+02  0.84637103467E+02  0.47000000000E+01 0.  1.
<mgrwt>
<rscale>  2 0.17961756E+03</rscale>
<asrwt>0</asrwt>
<pdfrwt beam="1">  1       21 0.36776329E-01 0.17963111E+03</pdfrwt>
<pdfrwt beam="2">  1       21 0.21950742E-01 0.17963111E+03</pdfrwt>
<totfact> 0.13882704E+05</totfact>
</mgrwt>
</event>
<event>
12    1  0.1441827E-001  0.2236033E+03  0.7546771E-02  0.1131390E+00
         21   -1    0    0  504  503  0.00000000000E+00  0.00000000000E+00  0.12907830142E+04  0.12907830142E+04  0.00000000000E+00 0. -1.
         21   -1    0    0  502  504 -0.00000000000E+00 -0.00000000000E+00 -0.54483742421E+02  0.54483742421E+02  0.00000000000E+00 0. -1.
          6    2    1    2  502    0  0.39689871843E+02  0.13189666418E+03  0.25561296223E+03  0.33961215751E+03  0.17614316653E+03 0.  0.
         24    2    3    3    0    0 -0.41804759195E+02  0.93557710666E+02  0.12772855342E+03  0.18312649598E+03  0.81975893144E+02 0.  0.
         -6    2    1    2    0  503 -0.39689871843E+02 -0.13189666418E+03  0.98068630950E+03  0.10056545991E+04  0.17499576862E+03 0.  0.
        -24    2    5    5    0    0 -0.45227985896E+02 -0.16441487166E+03  0.80472883998E+03  0.82657018991E+03  0.80944130209E+02 0.  0.
          4    1    4    4  501    0 -0.66071850528E+01  0.62556298319E+02  0.12014147466E+03  0.13561312358E+03  0.00000000000E+00 0. -1.
         -3    1    4    4    0  501 -0.35197574143E+02  0.31001412347E+02  0.75870787569E+01  0.47513372403E+02  0.00000000000E+00 0.  1.
          5    1    3    3  502    0  0.81494631039E+02  0.38338953517E+02  0.12788440881E+03  0.15648566152E+03  0.47000000000E+01 0. -1.
         13    1    6    6    0    0 -0.57908862319E+02 -0.15306588529E+03  0.77690542604E+03  0.79395506333E+03  0.00000000000E+00 0. -1.
        -14    1    6    6    0    0  0.12680876424E+02 -0.11348986364E+02  0.27823413943E+02  0.32615126579E+02  0.00000000000E+00 0.  1.
         -5    1    5    5    0  503  0.55381140523E+01  0.32518207474E+02  0.17595746952E+03  0.17908440916E+03  0.47000000000E+01 0.  1.
<mgrwt>
<rscale>  2 0.22337726E+03</rscale>
<asrwt>0</asrwt>
<pdfrwt beam="1">  1       21 0.19858198E+00 0.22360329E+03</pdfrwt>
<pdfrwt beam="2">  1       21 0.83821152E-02 0.22360329E+03</pdfrwt>
<totfact> 0.14817314E+04</totfact>
</mgrwt>
</event>
<event>
12    1  0.1441827E-001  0.1987804E+03  0.7546771E-02  0.1150959E+00
         21   -1    0    0  504  503  0.00000000000E+00  0.00000000000E+00  0.21790137566E+03  0.21790137566E+03  0.00000000000E+00 0. -1.
         21   -1    0    0  502  504 -0.00000000000E+00 -0.00000000000E+00 -0.19706810172E+03  0.19706810172E+03  0.00000000000E+00 0. -1.
          6    2    1    2  502    0  0.14524009723E+02  0.96650717271E+02 -0.49651097828E+02  0.20488749373E+03  0.17309345905E+03 0.  0.
         24    2    3    3    0    0  0.27508173276E+02  0.82540011389E+02 -0.96781189382E+02  0.15378919578E+03  0.81944890281E+02 0.  0.
         -6    2    1    2    0  503 -0.14524009723E+02 -0.96650717271E+02  0.70484371774E+02  0.21008198365E+03  0.17208743470E+03 0.  0.
        -24    2    5    5    0    0 -0.12096107293E+02 -0.46822255549E+02  0.10924223587E+03  0.14673348456E+03  0.85195128763E+02 0.  0.
          2    1    4    4  501    0 -0.30014333435E+01  0.50094430295E+02 -0.33620666750E+01  0.50296759746E+02  0.00000000000E+00 0. -1.
         -1    1    4    4    0  501  0.30509606620E+02  0.32445581095E+02 -0.93419122707E+02  0.10349243603E+03  0.00000000000E+00 0.  1.
          5    1    3    3  502    0 -0.12984163553E+02  0.14110705882E+02  0.47130091554E+02  0.51098297952E+02  0.47000000000E+01 0. -1.
         13    1    6    6    0    0 -0.37034193720E+02  0.15470119086E+01  0.19765164582E+02  0.42006981340E+02  0.00000000000E+00 0. -1.
        -14    1    6    6    0    0  0.24938086427E+02 -0.48369267457E+02  0.89477071291E+02  0.10472650322E+03  0.00000000000E+00 0.  1.
         -5    1    5    5    0  503 -0.24279024308E+01 -0.49828461723E+02 -0.38757864099E+02  0.63348499093E+02  0.47000000000E+01 0.  1.
<mgrwt>
<rscale>  2 0.19856120E+03</rscale>
<asrwt>0</asrwt>
<pdfrwt beam="1">  1       21 0.33523288E-01 0.19878042E+03</pdfrwt>
<pdfrwt beam="2">  1       21 0.30318170E-01 0.19878042E+03</pdfrwt>
<totfact> 0.89241398E+04</totfact>
</mgrwt>
</event>
<event>
12    1  0.1441827E-001  0.2382648E+03  0.7546771E-02  0.1121556E+00
         21   -1    0    0  504  503  0.00000000000E+00  0.00000000000E+00  0.15583167083E+03  0.15583167083E+03  0.00000000000E+00 0.  1.
         21   -1    0    0  502  504 -0.00000000000E+00 -0.00000000000E+00 -0.51382998075E+03  0.51382998075E+03  0.00000000000E+00 0. -1.
          6    2    1    2  502    0  0.15867187672E+03 -0.28884448307E+02  0.39184080611E+01  0.23829702999E+03  0.17538256688E+03 0.  0.
         24    2    3    3    0    0  0.13803038956E+03 -0.59717380032E+02  0.49332473480E+02  0.17946448790E+03  0.84588743684E+02 0.  0.
         -6    2    1    2    0  503 -0.15867187672E+03  0.28884448307E+02 -0.36191671799E+03  0.43136462159E+03  0.17053049634E+03 0.  0.
        -24    2    5    5    0    0 -0.95390752034E+02  0.51486503733E+02 -0.32899113074E+03  0.35638770550E+03  0.83825872388E+02 0.  0.
          4    1    4    4  501    0 -0.50354374437E+01 -0.23207081226E+02 -0.13425540605E+00  0.23747468787E+02  0.00000000000E+00 0. -1.
         -3    1    4    4    0  501  0.14306582700E+03 -0.36510298806E+02  0.49466728886E+02  0.15571701911E+03  0.00000000000E+00 0.  1.
          5    1    3    3  502    0  0.20641487165E+02  0.30832931725E+02 -0.45414065419E+02  0.58832542092E+02  0.47000000000E+01 0. -1.
         11    1    6    6    0    0 -0.27075778450E+02  0.52618695446E+02 -0.21941991041E+03  0.22725959160E+03  0.00000000000E+00 0. -1.
        -12    1    6    6    0    0 -0.68314973584E+02 -0.11321917128E+01 -0.10957122034E+03  0.12912811390E+03  0.00000000000E+00 0.  1.
         -5    1    5    5    0  503 -0.63281124689E+02 -0.22602055426E+02 -0.32925587245E+02  0.74976916093E+02  0.47000000000E+01 0.  1.
<mgrwt>
<rscale>  2 0.23737268E+03</rscale>
<asrwt>0</asrwt>
<pdfrwt beam="1">  1       21 0.23974103E-01 0.23826481E+03</pdfrwt>
<pdfrwt beam="2">  1       21 0.79050766E-01 0.23826481E+03</pdfrwt>
<totfact> 0.22601657E+04</totfact>
</mgrwt>
</event>
<event>
12    1  0.1441827E-001  0.1961618E+03  0.7546771E-02  0.1153599E+00
         21   -1    0    0  504  503  0.00000000000E+00  0.00000000000E+00  0.56926251362E+03  0.56926251362E+03  0.00000000000E+00 0. -1.
         21   -1    0    0  502  504 -0.00000000000E+00 -0.00000000000E+00 -0.81462878310E+02  0.81462878310E+02  0.00000000000E+00 0.  1.
          6    2    1    2  502    0  0.22954181169E+02 -0.90064742387E+02  0.10393572169E+03  0.21964425275E+03  0.16971273160E+03 0.  0.
         24    2    3    3    0    0 -0.39921314998E+02 -0.77325992655E+02  0.10078940289E+03  0.15524244311E+03  0.79804084333E+02 0.  0.
         -6    2    1    2    0  503 -0.22954181169E+02  0.90064742387E+02  0.38386391362E+03  0.43108113918E+03  0.17274516527E+03 0.  0.
        -24    2    5    5    0    0  0.28733209799E+02  0.39471910097E+02  0.32708014104E+03  0.33900666990E+03  0.74568589541E+02 0.  0.
          2    1    4    4  501    0 -0.34101138545E+02 -0.54591331995E+02  0.11204301516E+03  0.12921585981E+03  0.00000000000E+00 0. -1.
         -1    1    4    4    0  501 -0.58201764532E+01 -0.22734660660E+02 -0.11253612271E+02  0.26026583302E+02  0.00000000000E+00 0.  1.
          5    1    3    3  502    0  0.62875496167E+02 -0.12738749732E+02  0.31463188021E+01  0.64401809641E+02  0.47000000000E+01 0. -1.
         13    1    6    6    0    0  0.41166819459E+01  0.11405927085E+02  0.27313300015E+03  0.27340204464E+03  0.00000000000E+00 0. -1.
        -14    1    6    6    0    0  0.24616527853E+02  0.28065983013E+02  0.53947140890E+02  0.65604625266E+02  0.00000000000E+00 0.  1.
         -5    1    5    5    0  503 -0.51687390968E+02  0.50592832290E+02  0.56783772579E+02  0.92074469276E+02  0.47000000000E+01 0.  1.
<mgrwt>
<rscale>  2 0.19549208E+03</rscale>
<asrwt>0</asrwt>
<pdfrwt beam="1">  1       21 0.87578846E-01 0.19616178E+03</pdfrwt>
<pdfrwt beam="2">  1       21 0.12532751E-01 0.19616178E+03</pdfrwt>
<totfact> 0.60637709E+04</totfact>
</mgrwt>
</event>
<event>
12    1  0.1441827E-001  0.2712017E+03  0.7546771E-02  0.1100668E+00
         21   -1    0    0  504  503  0.00000000000E+00  0.00000000000E+00  0.14445202714E+03  0.14445202714E+03  0.00000000000E+00 0.  1.
         21   -1    0    0  502  504 -0.00000000000E+00 -0.00000000000E+00 -0.96208555791E+03  0.96208555791E+03  0.00000000000E+00 0. -1.
          6    2    1    2  502    0  0.13085491293E+03  0.16280308268E+03 -0.78862995100E+03  0.83378938181E+03  0.17216178911E+03 0.  0.
         24    2    3    3    0    0  0.10710856664E+03  0.17753567853E+03 -0.76412204312E+03  0.79632385243E+03  0.85194007819E+02 0.  0.
         -6    2    1    2    0  503 -0.13085491293E+03 -0.16280308268E+03 -0.29003579763E+02  0.27274820324E+03  0.17298127866E+03 0.  0.
        -24    2    5    5    0    0 -0.39582687882E+02 -0.43676928252E+01  0.57890351911E+01  0.86562790608E+02  0.76640314906E+02 0.  0.
          4    1    4    4  501    0  0.48574977317E+02  0.12288765687E+03 -0.59079767822E+03  0.60539474826E+03  0.00000000000E+00 0. -1.
         -3    1    4    4    0  501  0.58533589326E+02  0.54648021660E+02 -0.17332436490E+03  0.19092910417E+03  0.00000000000E+00 0.  1.
          5    1    3    3  502    0  0.23746346291E+02 -0.14732595853E+02 -0.24507907879E+02  0.37465529375E+02  0.47000000000E+01 0. -1.
         11    1    6    6    0    0  0.11466075429E+02 -0.26642669337E+02  0.10065086485E+02  0.30701932856E+02  0.00000000000E+00 0. -1.
        -12    1    6    6    0    0 -0.51048763311E+02  0.22274976512E+02 -0.42760512937E+01  0.55860857752E+02  0.00000000000E+00 0.  1.
         -5    1    5    5    0  503 -0.91272225052E+02 -0.15843538985E+03 -0.34792614954E+02  0.18618541264E+03  0.47000000000E+01 0.  1.
<mgrwt>
<rscale>  2 0.27107114E+03</rscale>
<asrwt>0</asrwt>
<pdfrwt beam="1">  1       21 0.22223389E-01 0.27120172E+03</pdfrwt>
<pdfrwt beam="2">  1       21 0.14801316E+00 0.27120172E+03</pdfrwt>
<totfact> 0.55442216E+03</totfact>
</mgrwt>
</event>
<event>
12    1  0.1441827E-001  0.2186786E+03  0.7546771E-02  0.1134927E+00
         21   -1    0    0  504  503  0.00000000000E+00  0.00000000000E+00  0.24832742838E+04  0.24832742838E+04  0.00000000000E+00 0.  1.
         21   -1    0    0  502  504 -0.00000000000E+00 -0.00000000000E+00 -0.37842788386E+02  0.37842788386E+02  0.00000000000E+00 0.  1.
          6    2    1    2  502    0 -0.52957072970E+02  0.12338194082E+03  0.33911054142E+03  0.40350500437E+03  0.17260583522E+03 0.  0.
         24    2    3    3    0    0 -0.10133248658E+03  0.10229665870E+03  0.27244529679E+03  0.31835152760E+03  0.79927318027E+02 0.  0.
         -6    2    1    2    0  503  0.52957072970E+02 -0.12338194082E+03  0.21063209540E+04  0.21176120679E+04  0.17223633073E+03 0.  0.
        -24    2    5    5    0    0  0.84421170569E+02 -0.33107666177E+02  0.11024251656E+04  0.11091636169E+04  0.81729014517E+02 0.  0.
          4    1    4    4  501    0 -0.95668772377E+02  0.82682430401E+02  0.26954571613E+03  0.29773107226E+03  0.00000000000E+00 0. -1.
         -3    1    4    4    0  501 -0.56637142033E+01  0.19614228302E+02  0.28995806547E+01  0.20620455340E+02  0.00000000000E+00 0.  1.
          5    1    3    3  502    0  0.48375413611E+02  0.21085282113E+02  0.66665244631E+02  0.85153476767E+02  0.47000000000E+01 0. -1.
         11    1    6    6    0    0  0.15318590526E+02  0.25981739865E+02  0.34034106524E+03  0.34167491964E+03  0.00000000000E+00 0. -1.
        -12    1    6    6    0    0  0.69102580044E+02 -0.59089406043E+02  0.76208410035E+03  0.76748869730E+03  0.00000000000E+00 0.  1.
         -5    1    5    5    0  503 -0.31464097600E+02 -0.90274274639E+02  0.10038957884E+04  0.10084484509E+04  0.47000000000E+01 0.  1.
<mgrwt>
<rscale>  2 0.21860568E+03</rscale>
<asrwt>0</asrwt>
<pdfrwt beam="1">  1       21 0.38204207E+00 0.21867860E+03</pdfrwt>
<pdfrwt beam="2">  1       21 0.58219694E-02 0.21867860E+03</pdfrwt>
<totfact> 0.22529756E+03</totfact>
</mgrwt>
</event>
<event>
12    1  0.1441827E-001  0.2087850E+03  0.7546771E-02  0.1142564E+00
         21   -1    0    0  504  503  0.00000000000E+00  0.00000000000E+00  0.14795410799E+04  0.14795410799E+04  0.00000000000E+00 0. -1.
         21   -1    0    0  502  504 -0.00000000000E+00 -0.00000000000E+00 -0.30030820715E+02  0.30030820715E+02  0.00000000000E+00 0. -1.
          6    2    1    2  502    0  0.26308675165E+02 -0.11376365443E+03  0.83094079510E+03  0.85676938346E+03  0.17308049001E+03 0.  0.
         24    2    3    3    0    0  0.63319575423E+02 -0.12298503176E+03  0.53474990780E+03  0.55809569487E+03  0.79866476528E+02 0.  0.
         -6    2    1    2    0  503 -0.26308675165E+02  0.11376365443E+03  0.61856946404E+03  0.65280251710E+03  0.17288328155E+03 0.  0.
        -24    2    5    5    0    0  0.90651019900E+01  0.14184540216E+03  0.48082618826E+03  0.50776738795E+03  0.80197274043E+02 0.  0.
          4    1    4    4  501    0  0.27225908543E+02 -0.11677959462E+03  0.45138708298E+03  0.46704284867E+03  0.00000000000E+00 0. -1.
         -3    1    4    4    0  501  0.36093666880E+02 -0.62054371447E+01  0.83362824817E+02  0.91052846196E+02  0.00000000000E+00 0.  1.
          5    1    3    3  502    0 -0.37010900258E+02  0.92213773363E+01  0.29619088730E+03  0.29867368859E+03  0.47000000000E+01 0. -1.
         13    1    6    6    0    0 -0.17674494006E+02  0.11818335527E+03  0.42515892097E+03  0.44163310710E+03  0.00000000000E+00 0. -1.
        -14    1    6    6    0    0  0.26739595996E+02  0.23662046894E+02  0.55667267283E+02  0.66134280853E+02  0.00000000000E+00 0.  1.
         -5    1    5    5    0  503 -0.35373777155E+02 -0.28081747734E+02  0.13774327578E+03  0.14503512915E+03  0.47000000000E+01 0.  1.
<mgrwt>
<rscale>  2 0.20874411E+03</rscale>
<asrwt>0</asrwt>
<pdfrwt beam="1">  1       21 0.22762165E+00 0.20878499E+03</pdfrwt>
<pdfrwt beam="2">  1       21 0.46201274E-02 0.20878499E+03</pdfrwt>
<totfact> 0.27451330E+04</totfact>
</mgrwt>
</event>
<event>
12    1  0.1441827E-001  0.2280350E+03  0.7546771E-02  0.1128768E+00
         21   -1    0    0  504  503  0.00000000000E+00  0.00000000000E+00  0.55837041473E+03  0.55837041473E+03  0.00000000000E+00 0.  1.
         21   -1    0    0  502  504 -0.00000000000E+00 -0.00000000000E+00 -0.93264406392E+02  0.93264406392E+02  0.00000000000E+00 0.  1.
          6    2    1    2  502    0  0.52254602483E+02 -0.13262742943E+03  0.18516663041E+03  0.29057248428E+03  0.17269947621E+03 0.  0.
         24    2    3    3    0    0  0.95245172403E+00 -0.14763396856E+03  0.12396916513E+03  0.20918251779E+03  0.81192832232E+02 0.  0.
         -6    2    1    2    0  503 -0.52254602483E+02  0.13262742943E+03  0.27993937792E+03  0.36106233684E+03  0.17798701429E+03 0.  0.
        -24    2    5    5    0    0  0.29348599319E+02  0.10646090767E+03  0.20767170263E+03  0.24886395763E+03  0.81304785779E+02 0.  0.
          4    1    4    4  501    0 -0.25489920290E+02 -0.10312396218E+03  0.11515016583E+03  0.15666476408E+03  0.00000000000E+00 0. -1.
         -3    1    4    4    0  501  0.26442372014E+02 -0.44510006381E+02  0.88189992982E+01  0.52517753706E+02  0.00000000000E+00 0.  1.
          5    1    3    3  502    0  0.51302150759E+02  0.15006539132E+02  0.61197465279E+02  0.81389966494E+02  0.47000000000E+01 0. -1.
         11    1    6    6    0    0  0.37468714880E+02  0.54881414594E+02  0.17519200680E+03  0.18737159206E+03  0.00000000000E+00 0. -1.
        -12    1    6    6    0    0 -0.81201155609E+01  0.51579493073E+02  0.32479695821E+02  0.61492365567E+02  0.00000000000E+00 0.  1.
         -5    1    5    5    0  503 -0.81603201802E+02  0.26166521763E+02  0.72267675298E+02  0.11219837922E+03  0.47000000000E+01 0.  1.
<mgrwt>
<rscale>  2 0.22700233E+03</rscale>
<asrwt>0</asrwt>
<pdfrwt beam="1">  1       21 0.85903138E-01 0.22803499E+03</pdfrwt>
<pdfrwt beam="2">  1       21 0.14348371E-01 0.22803499E+03</pdfrwt>
<totfact> 0.48895734E+04</totfact>
</mgrwt>
</event>
<event>
12    1  0.1441827E-001  0.1756059E+03  0.7546771E-02  0.1172165E+00
         21   -1    0    0  504  503  0.00000000000E+00  0.00000000000E+00  0.58660349539E+02  0.58660349539E+02  0.00000000000E+00 0.  1.
         21   -1    0    0  502  504 -0.00000000000E+00 -0.00000000000E+00 -0.67940846948E+03  0.67940846948E+03  0.00000000000E+00 0.  1.
          6    2    1    2  502    0  0.15916612098E+02  0.22387423212E+02 -0.48628943398E+03  0.51702500786E+03  0.17344425587E+03 0.  0.
         24    2    3    3    0    0 -0.36602788591E+02  0.52565173755E+02 -0.38993238567E+03  0.40311383705E+03  0.79690894097E+02 0.  0.
         -6    2    1    2    0  503 -0.15916612098E+02 -0.22387423212E+02 -0.13445868596E+03  0.22104381116E+03  0.17328211957E+03 0.  0.
        -24    2    5    5    0    0 -0.32738532680E+02  0.27322549269E+02 -0.14097975255E+03  0.16795263783E+03  0.80712233913E+02 0.  0.
          2    1    4    4  501    0  0.10327652565E+02  0.46383678686E+02 -0.12006975645E+03  0.12913114446E+03  0.00000000000E+00 0. -1.
         -1    1    4    4    0  501 -0.46930441156E+02  0.61814950688E+01 -0.26986262922E+03  0.27398269259E+03  0.00000000000E+00 0.  1.
          5    1    3    3  502    0  0.52519400689E+02 -0.30177750543E+02 -0.96357048306E+02  0.11391117081E+03  0.47000000000E+01 0. -1.
         11    1    6    6    0    0 -0.55042418296E+01  0.93269602516E+01 -0.13417098951E+03  0.13460736715E+03  0.00000000000E+00 0. -1.
        -12    1    6    6    0    0 -0.27234290851E+02  0.17995589018E+02 -0.68087630404E+01  0.33345270675E+02  0.00000000000E+00 0.  1.
         -5    1    5    5    0  503  0.16821920582E+02 -0.49709972481E+02  0.65210665886E+01  0.53091173330E+02  0.47000000000E+01 0.  1.
<mgrwt>
<rscale>  2 0.17556589E+03</rscale>
<asrwt>0</asrwt>
<pdfrwt beam="1">  1       21 0.90246690E-02 0.17560594E+03</pdfrwt>
<pdfrwt beam="2">  1       21 0.10452438E+00 0.17560594E+03</pdfrwt>
<totfact> 0.72370253E+04</totfact>
</mgrwt>
</event>
<event>
12    1  0.1441827E-001  0.1947651E+03  0.7546771E-02  0.1154629E+00
         21   -1    0    0  504  503  0.00000000000E+00  0.00000000000E+00  0.74574459199E+03  0.74574459199E+03  0.00000000000E+00 0.  1.
         21   -1    0    0  502  504 -0.00000000000E+00 -0.00000000000E+00 -0.50489093311E+02  0.50489093311E+02  0.00000000000E+00 0.  1.
          6    2    1    2  502    0 -0.87285521436E+02 -0.95020819538E-01  0.32892829244E+03  0.38134930668E+03  0.17208922354E+03 0.  0.
         24    2    3    3    0    0 -0.11529094960E+03 -0.34776797393E+02  0.21224037531E+03  0.25634814814E+03  0.78530041681E+02 0.  0.
         -6    2    1    2    0  503  0.87285521436E+02  0.95020819538E-01  0.36632720623E+03  0.41488437862E+03  0.17411104017E+03 0.  0.
        -24    2    5    5    0    0  0.13804221029E+02 -0.14302616617E+01  0.64724605743E+02  0.10442013491E+03  0.80756967623E+02 0.  0.
          4    1    4    4  501    0 -0.72863922411E+02  0.12812574496E+02  0.14998343382E+03  0.16723738719E+03  0.00000000000E+00 0. -1.
         -3    1    4    4    0  501 -0.42427027186E+02 -0.47589371889E+02  0.62256941485E+02  0.89110760942E+02  0.00000000000E+00 0.  1.
          5    1    3    3  502    0  0.28005428160E+02  0.34681776574E+02  0.11668791714E+03  0.12500115855E+03  0.47000000000E+01 0. -1.
         11    1    6    6    0    0 -0.28929647884E+02 -0.76675140311E+01  0.44299823508E+01  0.30254587119E+02  0.00000000000E+00 0. -1.
        -12    1    6    6    0    0  0.42733868912E+02  0.62372523694E+01  0.60294623392E+02  0.74165547792E+02  0.00000000000E+00 0.  1.
         -5    1    5    5    0  503  0.73481300407E+02  0.15252824813E+01  0.30160260049E+03  0.31046424370E+03  0.47000000000E+01 0.  1.
<mgrwt>
<rscale>  2 0.19431215E+03</rscale>
<asrwt>0</asrwt>
<pdfrwt beam="1">  1       21 0.11472993E+00 0.19476505E+03</pdfrwt>
<pdfrwt beam="2">  1       21 0.77675533E-02 0.19476505E+03</pdfrwt>
<totfact> 0.74407541E+04</totfact>
</mgrwt>
</event>
<event>
12    1  0.1441827E-001  0.2239262E+03  0.7546771E-02  0.1131065E+00
         21   -1    0    0  504  503  0.00000000000E+00  0.00000000000E+00  0.28488404396E+03  0.28488404396E+03  0.00000000000E+00 0. -1.
         21   -1    0    0  502  504 -0.00000000000E+00 -0.00000000000E+00 -0.18566222585E+03  0.18566222585E+03  0.00000000000E+00 0. -1.
          6    2    1    2  502    0 -0.85115042942E+02 -0.11290533893E+03 -0.48815005375E+01  0.22397940980E+03  0.17363974451E+03 0.  0.
         24    2    3    3    0    0 -0.63076843358E+02 -0.36363464807E+02  0.50636667376E+02  0.12677499784E+03  0.90591601459E+02 0.  0.
         -6    2    1    2    0  503  0.85115042942E+02  0.11290533893E+03  0.10410331865E+03  0.24656686001E+03  0.17310554414E+03 0.  0.
        -24    2    5    5    0    0  0.88930091627E+01  0.82420123428E+02  0.11491063047E+03  0.16363294183E+03  0.81848178346E+02 0.  0.
          4    1    4    4  501    0 -0.24125777463E+02 -0.26630226096E+02  0.72603858467E+02  0.81009520085E+02  0.00000000000E+00 0. -1.
         -3    1    4    4    0  501 -0.38951065895E+02 -0.97332387105E+01 -0.21967191091E+02  0.45765477760E+02  0.00000000000E+00 0.  1.
          5    1    3    3  502    0 -0.22038199584E+02 -0.76541874118E+02 -0.55518167913E+02  0.97204411952E+02  0.47000000000E+01 0. -1.
         11    1    6    6    0    0  0.17368886960E+02  0.56405517852E+02  0.16202217339E+02  0.61202716648E+02  0.00000000000E+00 0. -1.
        -12    1    6    6    0    0 -0.84758777973E+01  0.26014605575E+02  0.98708413129E+02  0.10243022518E+03  0.00000000000E+00 0.  1.
         -5    1    5    5    0  503  0.76222033779E+02  0.30485215497E+02 -0.10807311816E+02  0.82933918188E+02  0.47000000000E+01 0.  1.
<mgrwt>
<rscale>  2 0.22382264E+03</rscale>
<asrwt>0</asrwt>
<pdfrwt beam="1">  1       21 0.43828314E-01 0.22392621E+03</pdfrwt>
<pdfrwt beam="2">  1       21 0.28563419E-01 0.22392621E+03</pdfrwt>
<totfact> 0.57811470E+04</totfact>
</mgrwt>
</event>
<event>
12    1  0.1441827E-001  0.2232040E+03  0.7546771E-02  0.1131903E+00
         21   -1    0    0  504  503  0.00000000000E+00  0.00000000000E+00  0.13450328449E+03  0.13450328449E+03  0.00000000000E+00 0.  1.
         21   -1    0    0  502  504 -0.00000000000E+00 -0.00000000000E+00 -0.36697645042E+03  0.36697645042E+03  0.00000000000E+00 0.  1.
          6    2    1    2  502    0 -0.18362537809E+02  0.13630212387E+03 -0.11254737289E+03  0.24809814987E+03  0.17311940694E+03 0.  0.
         24    2    3    3    0    0 -0.65474409295E+02  0.10392960922E+03 -0.35114311912E+02  0.15173696955E+03  0.81870819484E+02 0.  0.
         -6    2    1    2    0  503  0.18362537809E+02 -0.13630212387E+03 -0.11992579304E+03  0.25338158504E+03  0.17579698529E+03 0.  0.
        -24    2    5    5    0    0  0.26960772931E+02 -0.14357024952E+02 -0.11444577232E+02  0.89873784067E+02  0.83745514937E+02 0.  0.
          2    1    4    4  501    0 -0.72162009182E+02  0.64206117717E+02 -0.50033816877E+02  0.10878034727E+03  0.00000000000E+00 0. -1.
         -1    1    4    4    0  501  0.66875998873E+01  0.39723491500E+02  0.14919504965E+02  0.42956622279E+02  0.00000000000E+00 0.  1.
          5    1    3    3  502    0  0.47111871485E+02  0.32372514649E+02 -0.77433060980E+02  0.96361180318E+02  0.47000000000E+01 0. -1.
         11    1    6    6    0    0  0.52792801624E+02 -0.26964841410E+02 -0.99543906076E+00  0.59288898408E+02  0.00000000000E+00 0. -1.
        -12    1    6    6    0    0 -0.25832028693E+02  0.12607816458E+02 -0.10449138171E+02  0.30584885659E+02  0.00000000000E+00 0.  1.
         -5    1    5    5    0  503 -0.85982351214E+01 -0.12194509891E+03 -0.10848121581E+03  0.16350780098E+03  0.47000000000E+01 0.  1.
<mgrwt>
<rscale>  2 0.22267647E+03</rscale>
<asrwt>0</asrwt>
<pdfrwt beam="1">  1       21 0.20692813E-01 0.22320401E+03</pdfrwt>
<pdfrwt beam="2">  1       21 0.56457915E-01 0.22320401E+03</pdfrwt>
<totfact> 0.63045852E+04</totfact>
</mgrwt>
</event>
<event>
12    1  0.1441827E-001  0.2042543E+03  0.7546771E-02  0.1146578E+00
         21   -1    0    0  504  503  0.00000000000E+00  0.00000000000E+00  0.10772823720E+04  0.10772823720E+04  0.00000000000E+00 0.  1.
         21   -1    0    0  502  504 -0.00000000000E+00 -0.00000000000E+00 -0.46710674280E+02  0.46710674280E+02  0.00000000000E+00 0.  1.
          6    2    1    2  502    0 -0.81473753703E+02 -0.72504043148E+02  0.75455505264E+03  0.78171168500E+03  0.17269922461E+03 0.  0.
         24    2    3    3    0    0 -0.92993313287E+02 -0.39433259682E+02  0.72240463529E+03  0.73394018399E+03  0.81221907840E+02 0.  0.
         -6    2    1    2    0  503  0.81473753703E+02  0.72504043148E+02  0.27601664507E+03  0.34228136128E+03  0.17051842453E+03 0.  0.
        -24    2    5    5    0    0  0.13532694217E+02 -0.31344954343E+02  0.57983069436E+02  0.91360393742E+02  0.61798424154E+02 0.  0.
          2    1    4    4  501    0 -0.51849429028E+02 -0.19155320329E+02  0.61053214383E+03  0.61302919036E+03  0.00000000000E+00 0. -1.
         -1    1    4    4    0  501 -0.41143884259E+02 -0.20277939353E+02  0.11187249146E+03  0.12091099363E+03  0.00000000000E+00 0.  1.
          5    1    3    3  502    0  0.11519559583E+02 -0.33070783466E+02  0.32150417358E+02  0.47771501006E+02  0.47000000000E+01 0. -1.
         13    1    6    6    0    0 -0.24168393148E+02 -0.10122851007E+02  0.30017528627E+02  0.39845142298E+02  0.00000000000E+00 0. -1.
        -14    1    6    6    0    0  0.37701087365E+02 -0.21222103336E+02  0.27965540809E+02  0.51515251443E+02  0.00000000000E+00 0.  1.
         -5    1    5    5    0  503  0.67941059486E+02  0.10384899749E+03  0.21803357564E+03  0.25092096754E+03  0.47000000000E+01 0.  1.
<mgrwt>
<rscale>  2 0.20379263E+03</rscale>
<asrwt>0</asrwt>
<pdfrwt beam="1">  1       21 0.16573573E+00 0.20425433E+03</pdfrwt>
<pdfrwt beam="2">  1       21 0.71862584E-02 0.20425433E+03</pdfrwt>
<totfact> 0.32823902E+04</totfact>
</mgrwt>
</event>
<event>
12    1  0.1441827E-001  0.2269823E+03  0.7546771E-02  0.1128790E+00
         21   -1    0    0  504  503  0.00000000000E+00  0.00000000000E+00  0.64426107511E+02  0.64426107511E+02  0.00000000000E+00 0. -1.
         21   -1    0    0  502  504 -0.00000000000E+00 -0.00000000000E+00 -0.81401174504E+03  0.81401174504E+03  0.00000000000E+00 0.  1.
          6    2    1    2  502    0  0.37370357964E+02  0.14162337689E+03 -0.31615706902E+03  0.38917178368E+03  0.17333684082E+03 0.  0.
         24    2    3    3    0    0  0.36028415016E+02  0.77777209641E+02 -0.79270943767E+02  0.14378380472E+03  0.83919955583E+02 0.  0.
         -6    2    1    2    0  503 -0.37370357964E+02 -0.14162337689E+03 -0.43342856850E+03  0.48926606887E+03  0.17339907038E+03 0.  0.
        -24    2    5    5    0    0 -0.55743185853E+02 -0.16188348486E+03 -0.41361186330E+03  0.45516585501E+03  0.82386993335E+02 0.  0.
          2    1    4    4  501    0  0.58615060901E+01  0.68744300232E+00  0.16305809655E+02  0.17340970562E+02  0.00000000000E+00 0. -1.
         -1    1    4    4    0  501  0.30166908926E+02  0.77089766639E+02 -0.95576753421E+02  0.12644283415E+03  0.00000000000E+00 0.  1.
          5    1    3    3  502    0  0.13419429481E+01  0.63846167252E+02 -0.23688612526E+03  0.24538797897E+03  0.47000000000E+01 0. -1.
         11    1    6    6    0    0 -0.13112394128E+02 -0.92145474456E+02 -0.30717517812E+03  0.32096621847E+03  0.00000000000E+00 0. -1.
        -12    1    6    6    0    0 -0.42630791725E+02 -0.69738010403E+02 -0.10643668517E+03  0.13419963654E+03  0.00000000000E+00 0.  1.
         -5    1    5    5    0  503  0.18372827890E+02  0.20260107966E+02 -0.19816705209E+02  0.34100213853E+02  0.47000000000E+01 0.  1.
<mgrwt>
<rscale>  2 0.22697041E+03</rscale>
<asrwt>0</asrwt>
<pdfrwt beam="1">  1       21 0.99117091E-02 0.22698229E+03</pdfrwt>
<pdfrwt beam="2">  1       21 0.12523257E+00 0.22698229E+03</pdfrwt>
<totfact> 0.38413549E+04</totfact>
</mgrwt>
</event>
<event>
12    1  0.1441827E-001  0.3028622E+03  0.7546771E-02  0.1083843E+00
         21   -1    0    0  504  503  0.00000000000E+00  0.00000000000E+00  0.99709135545E+02  0.99709135545E+02  0.00000000000E+00 0.  1.
         21   -1    0    0  502  504 -0.00000000000E+00 -0.00000000000E+00 -0.20732074468E+04  0.20732074468E+04  0.00000000000E+00 0.  1.
          6    2    1    2  502    0 -0.16403860119E+03  0.18684136631E+03 -0.17974232779E+04  0.18227605309E+04  0.17293685038E+03 0.  0.
         24    2    3    3    0    0 -0.87081386461E+02  0.79897247607E+02 -0.13106592610E+04  0.13184582847E+04  0.80856736674E+02 0.  0.
         -6    2    1    2    0  503  0.16403860119E+03 -0.18684136631E+03 -0.17607503341E+03  0.35015605150E+03  0.17259340708E+03 0.  0.
        -24    2    5    5    0    0  0.27134764019E+02 -0.73375887757E+02 -0.22425727481E+02  0.11510866337E+03  0.81405004803E+02 0.  0.
          4    1    4    4  501    0 -0.16447088289E+02 -0.56277268597E+01 -0.49337848222E+03  0.49368462073E+03  0.00000000000E+00 0. -1.
         -3    1    4    4    0  501 -0.70634298171E+02  0.85524974467E+02 -0.81728077882E+03  0.82477366396E+03  0.00000000000E+00 0.  1.
          5    1    3    3  502    0 -0.76957214731E+02  0.10694411870E+03 -0.48676401684E+03  0.50430224619E+03  0.47000000000E+01 0. -1.
         11    1    6    6    0    0 -0.28052741548E+02 -0.24798512656E+02  0.23731431720E+01  0.37517387260E+02  0.00000000000E+00 0. -1.
        -12    1    6    6    0    0  0.55187505568E+02 -0.48577375102E+02 -0.24798870653E+02  0.77591276109E+02  0.00000000000E+00 0.  1.
         -5    1    5    5    0  503  0.13690383717E+03 -0.11346547855E+03 -0.15364930593E+03  0.23504738813E+03  0.47000000000E+01 0.  1.
<mgrwt>
<rscale>  2 0.30281320E+03</rscale>
<asrwt>0</asrwt>
<pdfrwt beam="1">  1       21 0.15339867E-01 0.30286220E+03</pdfrwt>
<pdfrwt beam="2">  1       21 0.31895500E+00 0.30286220E+03</pdfrwt>
<totfact> 0.88491834E+02</totfact>
</mgrwt>
</event>
<event>
12    1  0.1441827E-001  0.2386973E+03  0.7546771E-02  0.1120895E+00
         21   -1    0    0  504  503  0.00000000000E+00  0.00000000000E+00  0.20095550948E+03  0.20095550948E+03  0.00000000000E+00 0.  1.
         21   -1    0    0  502  504 -0.00000000000E+00 -0.00000000000E+00 -0.45703649099E+03  0.45703649099E+03  0.00000000000E+00 0.  1.
          6    2    1    2  502    0  0.60141081347E+02  0.15154993385E+03 -0.33147382188E+03  0.40767126803E+03  0.17244313865E+03 0.  0.
         24    2    3    3    0    0  0.55455343745E+02  0.15523697370E+03 -0.34583933185E+03  0.39142293652E+03  0.80207597044E+02 0.  0.
         -6    2    1    2    0  503 -0.60141081347E+02 -0.15154993385E+03  0.75392840358E+02  0.25032073244E+03  0.17433317698E+03 0.  0.
        -24    2    5    5    0    0 -0.65660602779E+02 -0.71565625506E+02 -0.17272441861E+02  0.12769569737E+03  0.81085759335E+02 0.  0.
          2    1    4    4  501    0  0.38318375539E+00  0.14818299421E+01 -0.75945668186E+02  0.75961089816E+02  0.00000000000E+00 0. -1.
         -1    1    4    4    0  501  0.55072159989E+02  0.15375514376E+03 -0.26989366367E+03  0.31546184670E+03  0.00000000000E+00 0.  1.
          5    1    3    3  502    0  0.46857376025E+01 -0.36870398510E+01  0.14365509978E+02  0.16248331504E+02  0.47000000000E+01 0. -1.
         13    1    6    6    0    0  0.14687377966E+02 -0.73133609245E+01 -0.18606973728E+02  0.24807736512E+02  0.00000000000E+00 0. -1.
        -14    1    6    6    0    0 -0.80347980746E+02 -0.64252264581E+02  0.13345318663E+01  0.10288796086E+03  0.00000000000E+00 0.  1.
         -5    1    5    5    0  503  0.55195214318E+01 -0.79984308346E+02  0.92665282220E+02  0.12262503508E+03  0.47000000000E+01 0.  1.
<mgrwt>
<rscale>  2 0.23835231E+03</rscale>
<asrwt>0</asrwt>
<pdfrwt beam="1">  1       21 0.30916232E-01 0.23869727E+03</pdfrwt>
<pdfrwt beam="2">  1       21 0.70313306E-01 0.23869727E+03</pdfrwt>
<totfact> 0.17954282E+04</totfact>
</mgrwt>
</event>
<event>
12    1  0.1441827E-001  0.1968095E+03  0.7546771E-02  0.1152626E+00
         21   -1    0    0  504  503  0.00000000000E+00  0.00000000000E+00  0.17693106161E+03  0.17693106161E+03  0.00000000000E+00 0.  1.
         21   -1    0    0  502  504 -0.00000000000E+00 -0.00000000000E+00 -0.44532371538E+03  0.44532371538E+03  0.00000000000E+00 0.  1.
          6    2    1    2  502    0  0.55234232381E+01 -0.94120343760E+02 -0.35658712503E+03  0.40729394949E+03  0.17275658089E+03 0.  0.
         24    2    3    3    0    0  0.23165878461E+02 -0.44106243235E+02 -0.77075576924E+02  0.12275667249E+03  0.81526299227E+02 0.  0.
         -6    2    1    2    0  503 -0.55234232381E+01  0.94120343760E+02  0.88194471255E+02  0.21496082750E+03  0.17187421355E+03 0.  0.
        -24    2    5    5    0    0 -0.28356073777E+01 -0.19797315954E+02  0.29443939429E+02  0.86671418195E+02  0.79025405881E+02 0.  0.
          2    1    4    4  501    0  0.53589055860E+02 -0.25231456842E+02 -0.41803720992E+02  0.72498030395E+02  0.00000000000E+00 0. -1.
         -1    1    4    4    0  501 -0.30423177399E+02 -0.18874786393E+02 -0.35271855932E+02  0.50258642096E+02  0.00000000000E+00 0.  1.
          5    1    3    3  502    0 -0.17642455223E+02 -0.50014100525E+02 -0.27951154811E+03  0.28453727700E+03  0.47000000000E+01 0. -1.
         11    1    6    6    0    0 -0.43252406639E+01 -0.31893429399E+02  0.51929831055E+02  0.61095056257E+02  0.00000000000E+00 0. -1.
        -12    1    6    6    0    0  0.14896332862E+01  0.12096113445E+02 -0.22485891626E+02  0.25576361939E+02  0.00000000000E+00 0.  1.
         -5    1    5    5    0  503 -0.26878158603E+01  0.11391765971E+03  0.58750531826E+02  0.12828940930E+03  0.47000000000E+01 0.  1.
<mgrwt>
<rscale>  2 0.19661571E+03</rscale>
<asrwt>0</asrwt>
<pdfrwt beam="1">  1       21 0.27220163E-01 0.19680951E+03</pdfrwt>
<pdfrwt beam="2">  1       21 0.68511340E-01 0.19680951E+03</pdfrwt>
<totfact> 0.24935646E+04</totfact>
</mgrwt>
</event>
<event>
12    1  0.1441827E-001  0.1764021E+03  0.7546771E-02  0.1172581E+00
         21   -1    0    0  504  503  0.00000000000E+00  0.00000000000E+00  0.54283276096E+03  0.54283276096E+03  0.00000000000E+00 0. -1.
         21   -1    0    0  502  504 -0.00000000000E+00 -0.00000000000E+00 -0.55728778664E+02  0.55728778664E+02  0.00000000000E+00 0. -1.
          6    2    1    2  502    0  0.30561935118E+01  0.31973429987E+02  0.24894709076E+03  0.30511038875E+03  0.17345332163E+03 0.  0.
         24    2    3    3    0    0 -0.11458941932E+02 -0.48678700285E+02  0.89751659362E+02  0.12599944366E+03  0.72935425096E+02 0.  0.
         -6    2    1    2    0  503 -0.30561935118E+01 -0.31973429987E+02  0.23815689154E+03  0.29345115087E+03  0.16841387240E+03 0.  0.
        -24    2    5    5    0    0  0.11334480989E+02 -0.58305862169E+02  0.24285225953E+03  0.26271639892E+03  0.80713333944E+02 0.  0.
          4    1    4    4  501    0 -0.46741180738E+01 -0.38380670278E+02  0.34463718897E+01  0.38817530962E+02  0.00000000000E+00 0. -1.
         -3    1    4    4    0  501 -0.67848238578E+01 -0.10298030006E+02  0.86305287472E+02  0.87181912702E+02  0.00000000000E+00 0.  1.
          5    1    3    3  502    0  0.14515135443E+02  0.80652130271E+02  0.15919543139E+03  0.17911094509E+03  0.47000000000E+01 0. -1.
         13    1    6    6    0    0 -0.43087854981E+01  0.12881292528E+02  0.11294903363E+03  0.11376281259E+03  0.00000000000E+00 0. -1.
        -14    1    6    6    0    0  0.15643266487E+02 -0.71187154697E+02  0.12990322590E+03  0.14895358633E+03  0.00000000000E+00 0.  1.
         -5    1    5    5    0  503 -0.14390674501E+02  0.26332432182E+02 -0.46953679918E+01  0.30734751956E+02  0.47000000000E+01 0.  1.
<mgrwt>
<rscale>  2 0.17515064E+03</rscale>
<asrwt>0</asrwt>
<pdfrwt beam="1">  1       21 0.83512729E-01 0.17640208E+03</pdfrwt>
<pdfrwt beam="2">  1       21 0.85736586E-02 0.17640208E+03</pdfrwt>
<totfact> 0.13345534E+05</totfact>
</mgrwt>
</event>
<event>
12    1  0.1441827E-001  0.2012979E+03  0.7546771E-02  0.1149606E+00
         21   -1    0    0  504  503  0.00000000000E+00  0.00000000000E+00  0.52369272989E+03  0.52369272989E+03  0.00000000000E+00 0. -1.
         21   -1    0    0  502  504 -0.00000000000E+00 -0.00000000000E+00 -0.75647251910E+02  0.75647251910E+02  0.00000000000E+00 0.  1.
          6    2    1    2  502    0  0.45643369220E+02 -0.85057694389E+02  0.22139204008E+03  0.29620202333E+03  0.17147324773E+03 0.  0.
         24    2    3    3    0    0 -0.15794830615E+02 -0.16010990426E+02  0.33706021022E+02  0.86940867176E+02  0.76920673707E+02 0.  0.
         -6    2    1    2    0  503 -0.45643369220E+02  0.85057694389E+02  0.22665343790E+03  0.30313795847E+03  0.17664289519E+03 0.  0.
        -24    2    5    5    0    0 -0.97592317742E+02  0.70926540002E+02  0.15520191924E+03  0.21355117207E+03  0.83436399733E+02 0.  0.
          4    1    4    4  501    0  0.18000370870E+02 -0.97248311773E+01 -0.16369599117E+02  0.26202089004E+02  0.00000000000E+00 0. -1.
         -3    1    4    4    0  501 -0.33795201485E+02 -0.62861592485E+01  0.50075620140E+02  0.60738778173E+02  0.00000000000E+00 0.  1.
          5    1    3    3  502    0  0.61438199835E+02 -0.69046703963E+02  0.18768601906E+03  0.20926115616E+03  0.47000000000E+01 0. -1.
         11    1    6    6    0    0 -0.11787492904E+02  0.57422351301E+01  0.82563390728E+02  0.83598036710E+02  0.00000000000E+00 0. -1.
        -12    1    6    6    0    0 -0.85804824837E+02  0.65184304871E+02  0.72638528510E+02  0.12995313536E+03  0.00000000000E+00 0.  1.
         -5    1    5    5    0  503  0.51948948522E+02  0.14131154387E+02  0.71451518665E+02  0.89586786394E+02  0.47000000000E+01 0.  1.
<mgrwt>
<rscale>  2 0.20015803E+03</rscale>
<asrwt>0</asrwt>
<pdfrwt beam="1">  1       21 0.80568110E-01 0.20129789E+03</pdfrwt>
<pdfrwt beam="2">  1       21 0.11638039E-01 0.20129789E+03</pdfrwt>
<totfact> 0.83577115E+04</totfact>
</mgrwt>
</event>
<event>
12    1  0.1441827E-001  0.1781846E+03  0.7546771E-02  0.1169738E+00
         21   -1    0    0  504  503  0.00000000000E+00  0.00000000000E+00  0.20901317046E+02  0.20901317046E+02  0.00000000000E+00 0.  1.
         21   -1    0    0  502  504 -0.00000000000E+00 -0.00000000000E+00 -0.15287282183E+04  0.15287282183E+04  0.00000000000E+00 0.  1.
          6    2    1    2  502    0  0.62719216599E+01  0.42339257330E+02 -0.83042464678E+03  0.84918426228E+03  0.17226975245E+03 0.  0.
         24    2    3    3    0    0  0.66369816645E+02  0.11430425169E+02 -0.59788537208E+03  0.60697832270E+03  0.80125894094E+02 0.  0.
         -6    2    1    2    0  503 -0.62719216599E+01 -0.42339257330E+02 -0.67740225452E+03  0.70044527311E+03  0.17296767469E+03 0.  0.
        -24    2    5    5    0    0  0.33007766466E+02  0.99715600672E+01 -0.55501193534E+03  0.56158996805E+03  0.78460813053E+02 0.  0.
          2    1    4    4  501    0  0.82773843293E+02  0.16687104278E+02 -0.43005102624E+03  0.43826231158E+03  0.00000000000E+00 0. -1.
         -1    1    4    4    0  501 -0.16404026648E+02 -0.52566791092E+01 -0.16783434584E+03  0.16871601112E+03  0.00000000000E+00 0.  1.
          5    1    3    3  502    0 -0.60097894985E+02  0.30908832161E+02 -0.23253927471E+03  0.24220593958E+03  0.47000000000E+01 0. -1.
         13    1    6    6    0    0 -0.16075040472E+01  0.37568432965E+02 -0.17412347827E+03  0.17813746633E+03  0.00000000000E+00 0. -1.
        -14    1    6    6    0    0  0.34615270513E+02 -0.27596872898E+02 -0.38088845707E+03  0.38345250172E+03  0.00000000000E+00 0.  1.
         -5    1    5    5    0  503 -0.39279688126E+02 -0.52310817397E+02 -0.12239031918E+03  0.13885530507E+03  0.47000000000E+01 0.  1.
<mgrwt>
<rscale>  2 0.17801505E+03</rscale>
<asrwt>0</asrwt>
<pdfrwt beam="1">  1       21 0.32155867E-02 0.17818464E+03</pdfrwt>
<pdfrwt beam="2">  1       21 0.23518900E+00 0.17818464E+03</pdfrwt>
<totfact> 0.46410493E+04</totfact>
</mgrwt>
</event>
<event>
12    1  0.1441827E-001  0.2178528E+03  0.7546771E-02  0.1135767E+00
         21   -1    0    0  504  503  0.00000000000E+00  0.00000000000E+00  0.10685771583E+03  0.10685771583E+03  0.00000000000E+00 0. -1.
         21   -1    0    0  502  504 -0.00000000000E+00 -0.00000000000E+00 -0.93339389343E+03  0.93339389343E+03  0.00000000000E+00 0.  1.
          6    2    1    2  502    0 -0.12997858507E+03 -0.96959399976E+01 -0.79160723164E+03  0.82103704644E+03  0.17456052994E+03 0.  0.
         24    2    3    3    0    0 -0.10796426231E+02  0.13298780210E+02 -0.47942239862E+03  0.48605256305E+03  0.78152654315E+02 0.  0.
         -6    2    1    2    0  503  0.12997858507E+03  0.96959399976E+01 -0.34928945955E+02  0.21921456282E+03  0.17276153929E+03 0.  0.
        -24    2    5    5    0    0  0.24693707887E+02 -0.35018022061E+02 -0.47776012091E+02  0.10401308334E+03  0.81854340730E+02 0.  0.
          4    1    4    4  501    0 -0.23320097652E+02 -0.18489634766E+02 -0.37507844317E+03  0.37625726848E+03  0.00000000000E+00 0. -1.
         -3    1    4    4    0  501  0.12523671420E+02  0.31788414977E+02 -0.10434395544E+03  0.10979529457E+03  0.00000000000E+00 0.  1.
          5    1    3    3  502    0 -0.11918215884E+03 -0.22994720208E+02 -0.31218483303E+03  0.33498448340E+03  0.47000000000E+01 0. -1.
         11    1    6    6    0    0  0.25729817909E+02 -0.42946612178E+02  0.52945866346E+01  0.50343496847E+02  0.00000000000E+00 0. -1.
        -12    1    6    6    0    0 -0.10361100222E+01  0.79285901164E+01 -0.53070598726E+02  0.53669586493E+02  0.00000000000E+00 0.  1.
         -5    1    5    5    0  503  0.10528487718E+03  0.44713962059E+02  0.12847066137E+02  0.11520147948E+03  0.47000000000E+01 0.  1.
<mgrwt>
<rscale>  2 0.21749216E+03</rscale>
<asrwt>0</asrwt>
<pdfrwt beam="1">  1       21 0.16439650E-01 0.21785275E+03</pdfrwt>
<pdfrwt beam="2">  1       21 0.14359905E+00 0.21785275E+03</pdfrwt>
<totfact> 0.10917129E+04</totfact>
</mgrwt>
</event>
<event>
12    1  0.1441827E-001  0.2388508E+03  0.7546771E-02  0.1120585E+00
         21   -1    0    0  504  503  0.00000000000E+00  0.00000000000E+00  0.19032018083E+03  0.19032018083E+03  0.00000000000E+00 0. -1.
         21   -1    0    0  502  504 -0.00000000000E+00 -0.00000000000E+00 -0.68580615508E+03  0.68580615508E+03  0.00000000000E+00 0.  1.
          6    2    1    2  502    0  0.38170884554E+02  0.16076480583E+03 -0.57652312895E+03  0.62404217122E+03  0.17247427060E+03 0.  0.
         24    2    3    3    0    0 -0.26527646321E+02  0.31020242125E+02 -0.16916801528E+03  0.19163052667E+03  0.80240076745E+02 0.  0.
         -6    2    1    2    0  503 -0.38170884554E+02 -0.16076480583E+03  0.81037154707E+02  0.25208416468E+03  0.17227032949E+03 0.  0.
        -24    2    5    5    0    0 -0.24141963841E+02 -0.15759851564E+03  0.86326331314E+01  0.17811565277E+03  0.78933749807E+02 0.  0.
          4    1    4    4  501    0  0.17207587421E+01  0.49456983192E+02 -0.62286671279E+02  0.79552395414E+02  0.00000000000E+00 0. -1.
         -3    1    4    4    0  501 -0.28248405063E+02 -0.18436741067E+02 -0.10688134400E+03  0.11207813125E+03  0.00000000000E+00 0.  1.
          5    1    3    3  502    0  0.64698530875E+02  0.12974456370E+03 -0.40735511367E+03  0.43241164455E+03  0.47000000000E+01 0. -1.
         11    1    6    6    0    0 -0.46172761008E+02 -0.14176389084E+03  0.16141033704E+02  0.14996485446E+03  0.00000000000E+00 0. -1.
        -12    1    6    6    0    0  0.22030797166E+02 -0.15834624796E+02 -0.75084005726E+01  0.28150798308E+02  0.00000000000E+00 0.  1.
         -5    1    5    5    0  503 -0.14028920712E+02 -0.31662901913E+01  0.72404521576E+02  0.73968511912E+02  0.47000000000E+01 0.  1.
<mgrwt>
<rscale>  2 0.23881400E+03</rscale>
<asrwt>0</asrwt>
<pdfrwt beam="1">  1       21 0.29280027E-01 0.23885082E+03</pdfrwt>
<pdfrwt beam="2">  1       21 0.10550864E+00 0.23885082E+03</pdfrwt>
<totfact> 0.78166525E+03</totfact>
</mgrwt>
</event>
<event>
12    1  0.1441827E-001  0.2451628E+03  0.7546771E-02  0.1116440E+00
         21   -1    0    0  504  503  0.00000000000E+00  0.00000000000E+00  0.10689960612E+04  0.10689960612E+04  0.00000000000E+00 0. -1.
         21   -1    0    0  502  504 -0.00000000000E+00 -0.00000000000E+00 -0.81735377418E+02  0.81735377418E+02  0.00000000000E+00 0. -1.
          6    2    1    2  502    0 -0.12301216388E+03 -0.12280453009E+03  0.17167363918E+03  0.29909359904E+03  0.17254621853E+03 0.  0.
         24    2    3    3    0    0 -0.50006875028E+02  0.62137625476E+01  0.87065655216E+02  0.12834204565E+03  0.79699146603E+02 0.  0.
         -6    2    1    2    0  503  0.12301216388E+03  0.12280453009E+03  0.81558704458E+03  0.85163783955E+03  0.17289256026E+03 0.  0.
        -24    2    5    5    0    0  0.15522791916E+03  0.10148795098E+03  0.70690568301E+03  0.73619963190E+03  0.88762279465E+02 0.  0.
          4    1    4    4  501    0 -0.18329570291E+02 -0.15060491418E+02 -0.86890001596E+01  0.25264407228E+02  0.00000000000E+00 0. -1.
         -3    1    4    4    0  501 -0.31677304737E+02  0.21274253966E+02  0.95754655376E+02  0.10307763843E+03  0.00000000000E+00 0.  1.
          5    1    3    3  502    0 -0.73005288851E+02 -0.12901829264E+03  0.84607983962E+02  0.17075155339E+03  0.47000000000E+01 0. -1.
         11    1    6    6    0    0  0.92994392858E+02  0.90691627587E+02  0.34139929319E+03  0.36527579417E+03  0.00000000000E+00 0. -1.
        -12    1    6    6    0    0  0.62233526298E+02  0.10796323394E+02  0.36550638982E+03  0.37092383773E+03  0.00000000000E+00 0.  1.
         -5    1    5    5    0  503 -0.32215755277E+02  0.21316579108E+02  0.10868136156E+03  0.11543820764E+03  0.47000000000E+01 0.  1.
<mgrwt>
<rscale>  2 0.24510171E+03</rscale>
<asrwt>0</asrwt>
<pdfrwt beam="1">  1       21 0.16446092E+00 0.24516277E+03</pdfrwt>
<pdfrwt beam="2">  1       21 0.12574674E-01 0.24516277E+03</pdfrwt>
<totfact> 0.12158977E+04</totfact>
</mgrwt>
</event>
<event>
12    1  0.1441827E-001  0.2519240E+03  0.7546771E-02  0.1112438E+00
         21   -1    0    0  504  503  0.00000000000E+00  0.00000000000E+00  0.76560321391E+02  0.76560321391E+02  0.00000000000E+00 0.  1.
         21   -1    0    0  502  504 -0.00000000000E+00 -0.00000000000E+00 -0.16039910741E+04  0.16039910741E+04  0.00000000000E+00 0.  1.
          6    2    1    2  502    0 -0.15957273910E+03  0.85553442851E+02 -0.13487940848E+04  0.13717201287E+04  0.17201098172E+03 0.  0.
         24    2    3    3    0    0 -0.17739743715E+03  0.10348971387E+03 -0.11207127277E+04  0.11421931693E+04  0.80176345131E+02 0.  0.
         -6    2    1    2    0  503  0.15957273910E+03 -0.85553442851E+02 -0.17863666792E+03  0.30883126673E+03  0.17516518358E+03 0.  0.
        -24    2    5    5    0    0  0.15661443137E+03 -0.32588298769E+02 -0.18290080349E+03  0.25540532805E+03  0.78670835431E+02 0.  0.
          2    1    4    4  501    0 -0.48212968245E+02  0.41423381887E+02 -0.18611680835E+03  0.19667194315E+03  0.00000000000E+00 0. -1.
         -1    1    4    4    0  501 -0.12918446891E+03  0.62066331987E+02 -0.93459591938E+03  0.94552122614E+03  0.00000000000E+00 0.  1.
          5    1    3    3  502    0  0.17824698059E+02 -0.17936271023E+02 -0.22808135706E+03  0.22952695945E+03  0.47000000000E+01 0. -1.
         11    1    6    6    0    0  0.49970722056E+02  0.17226535427E+02 -0.94217180032E+02  0.10803103072E+03  0.00000000000E+00 0. -1.
        -12    1    6    6    0    0  0.10664370932E+03 -0.49814834196E+02 -0.88683623454E+02  0.14737429732E+03  0.00000000000E+00 0.  1.
         -5    1    5    5    0  503  0.29583077224E+01 -0.52965144082E+02  0.42641355683E+01  0.53425938685E+02  0.47000000000E+01 0.  1.
<mgrwt>
<rscale>  2 0.25137648E+03</rscale>
<asrwt>0</asrwt>
<pdfrwt beam="1">  1       21 0.11778512E-01 0.25192398E+03</pdfrwt>
<pdfrwt beam="2">  1       21 0.24676783E+00 0.25192398E+03</pdfrwt>
<totfact> 0.39879382E+03</totfact>
</mgrwt>
</event>
<event>
12    1  0.1441827E-001  0.1812490E+03  0.7546771E-02  0.1166609E+00
         21   -1    0    0  504  503  0.00000000000E+00  0.00000000000E+00  0.15533831259E+03  0.15533831259E+03  0.00000000000E+00 0. -1.
         21   -1    0    0  502  504 -0.00000000000E+00 -0.00000000000E+00 -0.23075447924E+03  0.23075447924E+03  0.00000000000E+00 0. -1.
          6    2    1    2  502    0  0.50426266736E+01 -0.38820265959E+02 -0.93567722078E+02  0.20397576969E+03  0.17697105660E+03 0.  0.
         24    2    3    3    0    0  0.33734111009E+02 -0.38077360045E+01 -0.12218157716E+03  0.15021778210E+03  0.80526735705E+02 0.  0.
         -6    2    1    2    0  503 -0.50426266736E+01  0.38820265959E+02  0.18151555428E+02  0.18211702214E+03  0.17693131338E+03 0.  0.
        -24    2    5    5    0    0  0.50239145836E+02 -0.27100375030E+00  0.50178550908E+02  0.10707023554E+03  0.80138025618E+02 0.  0.
          2    1    4    4  501    0  0.47875019075E+01 -0.39530671676E+02 -0.42627814753E+02  0.58332878965E+02  0.00000000000E+00 0. -1.
         -1    1    4    4    0  501  0.28946609102E+02  0.35722935672E+02 -0.79553762404E+02  0.91884903135E+02  0.00000000000E+00 0.  1.
          5    1    3    3  502    0 -0.28691484336E+02 -0.35012529955E+02  0.28613855079E+02  0.53757987590E+02  0.47000000000E+01 0. -1.
         13    1    6    6    0    0  0.26400621613E+02  0.29537088839E+02 -0.50494480075E+01  0.39936566750E+02  0.00000000000E+00 0. -1.
        -14    1    6    6    0    0  0.23838524223E+02 -0.29808092589E+02  0.55227998915E+02  0.67133668789E+02  0.00000000000E+00 0.  1.
         -5    1    5    5    0  503 -0.55281772509E+02  0.39091269709E+02 -0.32026995479E+02  0.75046786598E+02  0.47000000000E+01 0.  1.
<mgrwt>
<rscale>  2 0.18123929E+03</rscale>
<asrwt>0</asrwt>
<pdfrwt beam="1">  1       21 0.23898202E-01 0.18124899E+03</pdfrwt>
<pdfrwt beam="2">  1       21 0.35500689E-01 0.18124899E+03</pdfrwt>
<totfact> 0.12676212E+05</totfact>
</mgrwt>
</event>
<event>
12    1  0.1441827E-001  0.2286195E+03  0.7546771E-02  0.1127822E+00
         21   -1    0    0  504  503  0.00000000000E+00  0.00000000000E+00  0.49329758872E+02  0.49329758872E+02  0.00000000000E+00 0.  1.
         21   -1    0    0  502  504 -0.00000000000E+00 -0.00000000000E+00 -0.10663787315E+04  0.10663787315E+04  0.00000000000E+00 0. -1.
          6    2    1    2  502    0 -0.72697691754E+02 -0.13117599367E+03 -0.56949339049E+03  0.61366897788E+03  0.17255375074E+03 0.  0.
         24    2    3    3    0    0 -0.38470706846E+02 -0.71068106961E+02 -0.15951383079E+03  0.19786881685E+03  0.84715614591E+02 0.  0.
         -6    2    1    2    0  503  0.72697691754E+02  0.13117599367E+03 -0.44755558217E+03  0.50203951253E+03  0.17101338340E+03 0.  0.
        -24    2    5    5    0    0  0.37907302936E+01  0.33078848274E+01 -0.19747681080E+03  0.21279929318E+03  0.79127344426E+02 0.  0.
          2    1    4    4  501    0  0.19031447337E+02 -0.30214137039E+02 -0.18544492057E+02  0.40236653071E+02  0.00000000000E+00 0. -1.
         -1    1    4    4    0  501 -0.57502154184E+02 -0.40853969922E+02 -0.14096933874E+03  0.15763216378E+03  0.00000000000E+00 0.  1.
          5    1    3    3  502    0 -0.34226984907E+02 -0.60107886713E+02 -0.40997955970E+03  0.41580016103E+03  0.47000000000E+01 0. -1.
         13    1    6    6    0    0 -0.33237651288E+02  0.19237752339E+02 -0.10915806121E+03  0.11571652823E+03  0.00000000000E+00 0. -1.
        -14    1    6    6    0    0  0.37028381581E+02 -0.15929867511E+02 -0.88318749590E+02  0.97082764951E+02  0.00000000000E+00 0.  1.
         -5    1    5    5    0  503  0.68906961460E+02  0.12786810885E+03 -0.25007877137E+03  0.28924021935E+03  0.47000000000E+01 0.  1.
<mgrwt>
<rscale>  2 0.22832889E+03</rscale>
<asrwt>0</asrwt>
<pdfrwt beam="1">  1       21 0.75891942E-02 0.22861954E+03</pdfrwt>
<pdfrwt beam="2">  1       21 0.16405825E+00 0.22861954E+03</pdfrwt>
<totfact> 0.30252020E+04</totfact>
</mgrwt>
</event>
<event>
12    1  0.1441827E-001  0.2725237E+03  0.7546771E-02  0.1100067E+00
         21   -1    0    0  504  503  0.00000000000E+00  0.00000000000E+00  0.10046762745E+03  0.10046762745E+03  0.00000000000E+00 0.  1.
         21   -1    0    0  502  504 -0.00000000000E+00 -0.00000000000E+00 -0.73499634411E+03  0.73499634411E+03  0.00000000000E+00 0. -1.
          6    2    1    2  502    0  0.89978995678E+02 -0.18960012467E+03 -0.31886281060E+03  0.41843383677E+03  0.17137373436E+03 0.  0.
         24    2    3    3    0    0  0.11763253764E+03 -0.17519478323E+03 -0.31373150511E+03  0.38648618363E+03  0.80084248506E+02 0.  0.
         -6    2    1    2    0  503 -0.89978995678E+02  0.18960012467E+03 -0.31566590605E+03  0.41703013479E+03  0.17385264491E+03 0.  0.
        -24    2    5    5    0    0 -0.37822487934E+02  0.17643298621E+03 -0.16832086322E+03  0.26010236006E+03  0.82232508749E+02 0.  0.
          4    1    4    4  501    0  0.19109905789E+02 -0.80036532301E+02 -0.16443760759E+03  0.18387702900E+03  0.00000000000E+00 0. -1.
         -3    1    4    4    0  501  0.98522631851E+02 -0.95158250929E+02 -0.14929389751E+03  0.20260915463E+03  0.00000000000E+00 0.  1.
          5    1    3    3  502    0 -0.27653541962E+02 -0.14405341443E+02 -0.51313054988E+01  0.31947653142E+02  0.47000000000E+01 0. -1.
         11    1    6    6    0    0 -0.13586560771E+02  0.12592057040E+03 -0.15904760974E+03  0.20331435475E+03  0.00000000000E+00 0. -1.
        -12    1    6    6    0    0 -0.24235927163E+02  0.50512415814E+02 -0.92732534795E+01  0.56788005308E+02  0.00000000000E+00 0.  1.
         -5    1    5    5    0  503 -0.52156507744E+02  0.13167138459E+02 -0.14734504283E+03  0.15692777473E+03  0.47000000000E+01 0.  1.
<mgrwt>
<rscale>  2 0.27212918E+03</rscale>
<asrwt>0</asrwt>
<pdfrwt beam="1">  1       21 0.15456558E-01 0.27252370E+03</pdfrwt>
<pdfrwt beam="2">  1       21 0.11307636E+00 0.27252370E+03</pdfrwt>
<totfact> 0.21731066E+04</totfact>
</mgrwt>
</event>
<event>
12    1  0.1441827E-001  0.2355785E+03  0.7546771E-02  0.1124132E+00
         21   -1    0    0  504  503  0.00000000000E+00  0.00000000000E+00  0.20230772966E+03  0.20230772966E+03  0.00000000000E+00 0.  1.
         21   -1    0    0  502  504 -0.00000000000E+00 -0.00000000000E+00 -0.41219648890E+03  0.41219648890E+03  0.00000000000E+00 0.  1.
          6    2    1    2  502    0  0.95219306968E+02 -0.11935785797E+03 -0.28721513162E+03  0.36655948276E+03  0.16899795231E+03 0.  0.
         24    2    3    3    0    0  0.74536042400E+02 -0.63410669832E+02 -0.77711980810E+02  0.14867982447E+03  0.80560558455E+02 0.  0.
         -6    2    1    2    0  503 -0.95219306968E+02  0.11935785797E+03  0.77326372380E+02  0.24794473581E+03  0.17939958046E+03 0.  0.
        -24    2    5    5    0    0 -0.10312025212E+03  0.11765442050E+03  0.11412925186E+03  0.20997279128E+03  0.81158720351E+02 0.  0.
          2    1    4    4  501    0  0.68447547362E+02 -0.79594949401E+02 -0.50633272579E+02  0.11655106607E+03  0.00000000000E+00 0. -1.
         -1    1    4    4    0  501  0.60884950380E+01  0.16184279569E+02 -0.27078708232E+02  0.32128758403E+02  0.00000000000E+00 0.  1.
          5    1    3    3  502    0  0.20683264568E+02 -0.55947188143E+02 -0.20950315081E+03  0.21787965828E+03  0.47000000000E+01 0. -1.
         13    1    6    6    0    0 -0.72827006435E+01  0.32612098752E+02 -0.64458102043E+01  0.34031385262E+02  0.00000000000E+00 0. -1.
        -14    1    6    6    0    0 -0.95837551478E+02  0.85042321744E+02  0.12057506206E+03  0.17594140602E+03  0.00000000000E+00 0.  1.
         -5    1    5    5    0  503  0.79009451535E+01  0.17034374788E+01 -0.36802879476E+02  0.37971944528E+02  0.47000000000E+01 0.  1.
<mgrwt>
<rscale>  2 0.23359833E+03</rscale>
<asrwt>0</asrwt>
<pdfrwt beam="1">  1       21 0.31124266E-01 0.23557849E+03</pdfrwt>
<pdfrwt beam="2">  1       21 0.63414844E-01 0.23557849E+03</pdfrwt>
<totfact> 0.22270344E+04</totfact>
</mgrwt>
</event>
<event>
12    1  0.1441827E-001  0.1885730E+03  0.7546771E-02  0.1159815E+00
         21   -1    0    0  504  503  0.00000000000E+00  0.00000000000E+00  0.12868659865E+03  0.12868659865E+03  0.00000000000E+00 0.  1.
         21   -1    0    0  502  504 -0.00000000000E+00 -0.00000000000E+00 -0.34683373834E+03  0.34683373834E+03  0.00000000000E+00 0.  1.
          6    2    1    2  502    0  0.18551811991E+01 -0.77833459906E+02 -0.21650661868E+03  0.28694015486E+03  0.17145858788E+03 0.  0.
         24    2    3    3    0    0  0.26881405756E+02  0.21681822421E+02 -0.76240569483E+02  0.11308315071E+03  0.76042508778E+02 0.  0.
         -6    2    1    2    0  503 -0.18551811991E+01  0.77833459906E+02 -0.16405210056E+01  0.18858018213E+03  0.17175070482E+03 0.  0.
        -24    2    5    5    0    0  0.34666428034E+02  0.69826277654E+02  0.50451671874E+02  0.12428687402E+03  0.82609839459E+02 0.  0.
          4    1    4    4  501    0  0.36424446083E+02  0.75381082503E+01 -0.23743488764E+01  0.37271985204E+02  0.00000000000E+00 0. -1.
         -3    1    4    4    0  501 -0.95430403266E+01  0.14143714171E+02 -0.73866220607E+02  0.75811165510E+02  0.00000000000E+00 0.  1.
          5    1    3    3  502    0 -0.25026224557E+02 -0.99515282328E+02 -0.14026604920E+03  0.17385700414E+03  0.47000000000E+01 0. -1.
         11    1    6    6    0    0  0.12576296379E+02  0.33804933996E+02 -0.20661257837E+02  0.41567106810E+02  0.00000000000E+00 0. -1.
        -12    1    6    6    0    0  0.22090131656E+02  0.36021343657E+02  0.71112929711E+02  0.82719767212E+02  0.00000000000E+00 0.  1.
         -5    1    5    5    0  503 -0.36521609234E+02  0.80071822528E+01 -0.52092192880E+02  0.64293308110E+02  0.47000000000E+01 0.  1.
<mgrwt>
<rscale>  2 0.18850651E+03</rscale>
<asrwt>0</asrwt>
<pdfrwt beam="1">  1       21 0.19797938E-01 0.18857305E+03</pdfrwt>
<pdfrwt beam="2">  1       21 0.53359037E-01 0.18857305E+03</pdfrwt>
<totfact> 0.78354734E+04</totfact>
</mgrwt>
</event>
<event>
12    1  0.1441827E-001  0.2431162E+03  0.7546771E-02  0.1118170E+00
         21   -1    0    0  504  503  0.00000000000E+00  0.00000000000E+00  0.14461695616E+03  0.14461695616E+03  0.00000000000E+00 0.  1.
         21   -1    0    0  502  504 -0.00000000000E+00 -0.00000000000E+00 -0.41606847588E+03  0.41606847588E+03  0.00000000000E+00 0. -1.
          6    2    1    2  502    0 -0.13819657407E+03  0.99683380290E+02 -0.18366233329E+03  0.30469220977E+03  0.17340824846E+03 0.  0.
         24    2    3    3    0    0  0.18662617970E+02  0.19119090230E+02 -0.20257529033E+02  0.64237159886E+02  0.54792447536E+02 0.  0.
         -6    2    1    2    0  503  0.13819657407E+03 -0.99683380290E+02 -0.87789186439E+02  0.25599322227E+03  0.16967769212E+03 0.  0.
        -24    2    5    5    0    0  0.46293412291E+02 -0.11241701766E+03 -0.38059045919E+02  0.15062001153E+03  0.80356897750E+02 0.  0.
          4    1    4    4  501    0  0.20567362088E+02 -0.69553234530E+01 -0.29393701505E+02  0.36542887075E+02  0.00000000000E+00 0. -1.
         -3    1    4    4    0  501 -0.19047441182E+01  0.26074413683E+02  0.91361724725E+01  0.27694272811E+02  0.00000000000E+00 0.  1.
          5    1    3    3  502    0 -0.15685919204E+03  0.80564290059E+02 -0.16340480426E+03  0.24045504988E+03  0.47000000000E+01 0. -1.
         13    1    6    6    0    0  0.29432983428E+02 -0.34814322250E+02 -0.52898156341E+02  0.69832316956E+02  0.00000000000E+00 0. -1.
        -14    1    6    6    0    0  0.16860428863E+02 -0.77602695415E+02  0.14839110422E+02  0.80787694578E+02  0.00000000000E+00 0.  1.
         -5    1    5    5    0  503  0.91903161778E+02  0.12733637375E+02 -0.49730140520E+02  0.10537321074E+03  0.47000000000E+01 0.  1.
<mgrwt>
<rscale>  2 0.24245182E+03</rscale>
<asrwt>0</asrwt>
<pdfrwt beam="1">  1       21 0.22248762E-01 0.24311621E+03</pdfrwt>
<pdfrwt beam="2">  1       21 0.64010535E-01 0.24311621E+03</pdfrwt>
<totfact> 0.41575406E+04</totfact>
</mgrwt>
</event>
<event>
12    1  0.1441827E-001  0.2189226E+03  0.7546771E-02  0.1136833E+00
         21   -1    0    0  504  503  0.00000000000E+00  0.00000000000E+00  0.27641955728E+03  0.27641955728E+03  0.00000000000E+00 0. -1.
         21   -1    0    0  502  504 -0.00000000000E+00 -0.00000000000E+00 -0.17767091668E+03  0.17767091668E+03  0.00000000000E+00 0. -1.
          6    2    1    2  502    0  0.42918411118E+02 -0.10556683595E+03 -0.13163727421E+02  0.20822161488E+03  0.17377171898E+03 0.  0.
         24    2    3    3    0    0  0.58317065774E+02 -0.91604951038E+02 -0.67476571439E+02  0.14987756788E+03  0.78216689039E+02 0.  0.
         -6    2    1    2    0  503 -0.42918411118E+02  0.10556683595E+03  0.11191236802E+03  0.24586885908E+03  0.18692450584E+03 0.  0.
        -24    2    5    5    0    0 -0.54754031860E+02  0.13442300497E+03  0.45946422530E+02  0.17275007645E+03  0.81633123801E+02 0.  0.
          2    1    4    4  501    0  0.63753991621E+02 -0.27889781447E+02 -0.30190032600E+02  0.75854132552E+02  0.00000000000E+00 0. -1.
         -1    1    4    4    0  501 -0.54369258471E+01 -0.63715169591E+02 -0.37286538839E+02  0.74023435324E+02  0.00000000000E+00 0.  1.
          5    1    3    3  502    0 -0.15398654656E+02 -0.13961884915E+02  0.54312844017E+02  0.58344047004E+02  0.47000000000E+01 0. -1.
         13    1    6    6    0    0 -0.22194445476E+02  0.96608577488E+02  0.65874107148E+02  0.11901768208E+03  0.00000000000E+00 0. -1.
        -14    1    6    6    0    0 -0.32559586383E+02  0.37814427477E+02 -0.19927684618E+02  0.53732394374E+02  0.00000000000E+00 0.  1.
         -5    1    5    5    0  503  0.11835620742E+02 -0.28856169012E+02  0.65965945490E+02  0.73118782627E+02  0.47000000000E+01 0.  1.
<mgrwt>
<rscale>  2 0.21608869E+03</rscale>
<asrwt>0</asrwt>
<pdfrwt beam="1">  1       21 0.42526086E-01 0.21892263E+03</pdfrwt>
<pdfrwt beam="2">  1       21 0.27333987E-01 0.21892263E+03</pdfrwt>
<totfact> 0.67117261E+04</totfact>
</mgrwt>
</event>
<event>
12    1  0.1441827E-001  0.3018038E+03  0.7546771E-02  0.1084633E+00
         21   -1    0    0  504  503  0.00000000000E+00  0.00000000000E+00  0.41928910305E+03  0.41928910305E+03  0.00000000000E+00 0.  1.
         21   -1    0    0  502  504 -0.00000000000E+00 -0.00000000000E+00 -0.25792554318E+03  0.25792554318E+03  0.00000000000E+00 0. -1.
          6    2    1    2  502    0  0.23355151673E+03  0.70989127435E+02 -0.56813594288E+02  0.30480785097E+03  0.17347701386E+03 0.  0.
         24    2    3    3    0    0  0.17207289593E+03  0.73315130757E+02  0.20801884715E+02  0.20565502102E+03  0.82928157770E+02 0.  0.
         -6    2    1    2    0  503 -0.23355151673E+03 -0.70989127435E+02  0.21817715416E+03  0.37240679526E+03  0.17748178321E+03 0.  0.
        -24    2    5    5    0    0 -0.91445464938E+02 -0.33010958759E+02  0.23578601909E+02  0.12842491521E+03  0.80529571726E+02 0.  0.
          2    1    4    4  501    0  0.13885987579E+03  0.25616804724E+02 -0.66839824828E+01  0.14136110289E+03  0.00000000000E+00 0. -1.
         -1    1    4    4    0  501  0.33213020148E+02  0.47698326033E+02  0.27485867197E+02  0.64293918136E+02  0.00000000000E+00 0.  1.
          5    1    3    3  502    0  0.61478620797E+02 -0.23260033218E+01 -0.77615479002E+02  0.99152829951E+02  0.47000000000E+01 0. -1.
         11    1    6    6    0    0 -0.75811606160E+02 -0.58896247088E+02  0.18132535982E+02  0.97698292773E+02  0.00000000000E+00 0. -1.
        -12    1    6    6    0    0 -0.15633858778E+02  0.25885288330E+02  0.54460659269E+01  0.30726622435E+02  0.00000000000E+00 0.  1.
         -5    1    5    5    0  503 -0.14210605179E+03 -0.37978168677E+02  0.19459855225E+03  0.24398188005E+03  0.47000000000E+01 0.  1.
<mgrwt>
<rscale>  2 0.30121773E+03</rscale>
<asrwt>0</asrwt>
<pdfrwt beam="1">  1       21 0.64506016E-01 0.30180383E+03</pdfrwt>
<pdfrwt beam="2">  1       21 0.39680853E-01 0.30180383E+03</pdfrwt>
<totfact> 0.12793981E+04</totfact>
</mgrwt>
</event>
<event>
12    1  0.1441827E-001  0.1914960E+03  0.7546771E-02  0.1157557E+00
         21   -1    0    0  504  503  0.00000000000E+00  0.00000000000E+00  0.57663362995E+02  0.57663362995E+02  0.00000000000E+00 0.  1.
         21   -1    0    0  502  504 -0.00000000000E+00 -0.00000000000E+00 -0.68352404925E+03  0.68352404925E+03  0.00000000000E+00 0. -1.
          6    2    1    2  502    0  0.40974914998E+02  0.69877358499E+02 -0.41565729276E+03  0.45683518392E+03  0.17136397333E+03 0.  0.
         24    2    3    3    0    0 -0.53730488831E+01  0.10172158343E+03 -0.32466045250E+03  0.34976182890E+03  0.80949227006E+02 0.  0.
         -6    2    1    2    0  503 -0.40974914998E+02 -0.69877358499E+02 -0.21020339350E+03  0.28435222833E+03  0.17351926183E+03 0.  0.
        -24    2    5    5    0    0 -0.93956400108E+02 -0.54822034070E+02 -0.12117635332E+03  0.17955907760E+03  0.75660380658E+02 0.  0.
          4    1    4    4  501    0 -0.25714033885E+02  0.75521039113E+02 -0.29386097929E+03  0.30449780629E+03  0.00000000000E+00 0. -1.
         -3    1    4    4    0  501  0.20340985002E+02  0.26200544312E+02 -0.30799473209E+02  0.45264022612E+02  0.00000000000E+00 0.  1.
          5    1    3    3  502    0  0.46347963881E+02 -0.31844224926E+02 -0.90996840259E+02  0.10707335502E+03  0.47000000000E+01 0. -1.
         13    1    6    6    0    0  0.10625960382E+02  0.52927931670E+01 -0.10377540131E+02  0.15767626097E+02  0.00000000000E+00 0. -1.
        -14    1    6    6    0    0 -0.10458236049E+03 -0.60114827237E+02 -0.11079881319E+03  0.16379145150E+03  0.00000000000E+00 0.  1.
         -5    1    5    5    0  503  0.52981485109E+02 -0.15055324429E+02 -0.89027040175E+02  0.10479315073E+03  0.47000000000E+01 0.  1.
<mgrwt>
<rscale>  2 0.19100645E+03</rscale>
<asrwt>0</asrwt>
<pdfrwt beam="1">  1       21 0.88712866E-02 0.19149601E+03</pdfrwt>
<pdfrwt beam="2">  1       21 0.10515755E+00 0.19149601E+03</pdfrwt>
<totfact> 0.72971567E+04</totfact>
</mgrwt>
</event>
<event>
12    1  0.1441827E-001  0.2017678E+03  0.7546771E-02  0.1148515E+00
         21   -1    0    0  504  503  0.00000000000E+00  0.00000000000E+00  0.14131782212E+03  0.14131782212E+03  0.00000000000E+00 0.  1.
         21   -1    0    0  502  504 -0.00000000000E+00 -0.00000000000E+00 -0.37943832572E+03  0.37943832572E+03  0.00000000000E+00 0.  1.
          6    2    1    2  502    0 -0.36712579737E+02  0.94984775198E+02 -0.24777807615E+03  0.31875733496E+03  0.17274936336E+03 0.  0.
         24    2    3    3    0    0 -0.11002961996E+02  0.11783784527E+03 -0.12250898500E+03  0.18876624891E+03  0.81347540648E+02 0.  0.
         -6    2    1    2    0  503  0.36712579737E+02 -0.94984775198E+02  0.96575725434E+01  0.20199881288E+03  0.17418476015E+03 0.  0.
        -24    2    5    5    0    0 -0.32689446376E+02 -0.35826911068E+02 -0.34559368515E+02  0.10054181710E+03  0.81007034089E+02 0.  0.
          2    1    4    4  501    0  0.30054357398E+01  0.12651222486E+03 -0.10253631476E+03  0.16287440416E+03  0.00000000000E+00 0. -1.
         -1    1    4    4    0  501 -0.14008397736E+02 -0.86743795874E+01 -0.19972670237E+02  0.25891844753E+02  0.00000000000E+00 0.  1.
          5    1    3    3  502    0 -0.25709617741E+02 -0.22853070076E+02 -0.12526909114E+03  0.12999108605E+03  0.47000000000E+01 0. -1.
         11    1    6    6    0    0  0.10630184557E+02 -0.27176932673E+02 -0.46394496303E+02  0.54809084834E+02  0.00000000000E+00 0. -1.
        -12    1    6    6    0    0 -0.43319630933E+02 -0.86499783949E+01  0.11835127787E+02  0.45732732262E+02  0.00000000000E+00 0.  1.
         -5    1    5    5    0  503  0.69402026114E+02 -0.59157864130E+02  0.44216941059E+02  0.10145699578E+03  0.47000000000E+01 0.  1.
<mgrwt>
<rscale>  2 0.20145764E+03</rscale>
<asrwt>0</asrwt>
<pdfrwt beam="1">  1       21 0.21741203E-01 0.20176782E+03</pdfrwt>
<pdfrwt beam="2">  1       21 0.58375127E-01 0.20176782E+03</pdfrwt>
<totfact> 0.54006577E+04</totfact>
</mgrwt>
</event>
<event>
12    1  0.1441827E-001  0.2358270E+03  0.7546771E-02  0.1122706E+00
         21   -1    0    0  504  503  0.00000000000E+00  0.00000000000E+00  0.43036401965E+02  0.43036401965E+02  0.00000000000E+00 0.  1.
         21   -1    0    0  502  504 -0.00000000000E+00 -0.00000000000E+00 -0.28082767682E+04  0.28082767682E+04  0.00000000000E+00 0. -1.
          6    2    1    2  502    0 -0.12305537652E+03 -0.10103898408E+03 -0.24320248327E+04  0.24434318451E+04  0.17396233124E+03 0.  0.
         24    2    3    3    0    0 -0.93969188757E+01 -0.83041862354E+02 -0.99618130030E+03  0.10029767500E+04  0.81246076844E+02 0.  0.
         -6    2    1    2    0  503  0.12305537652E+03  0.10103898408E+03 -0.33321553346E+03  0.40788132501E+03  0.17315623453E+03 0.  0.
        -24    2    5    5    0    0  0.40885872398E+02  0.57025154185E+01 -0.65986493093E+02  0.11245905151E+03  0.81170485717E+02 0.  0.
          2    1    4    4  501    0  0.19122591831E+01 -0.63723768435E+02 -0.94458351397E+03  0.94673248083E+03  0.00000000000E+00 0. -1.
         -1    1    4    4    0  501 -0.11309178059E+02 -0.19318093919E+02 -0.51597786332E+02  0.56244269179E+02  0.00000000000E+00 0.  1.
          5    1    3    3  502    0 -0.11365845765E+03 -0.17997121728E+02 -0.14358435324E+04  0.14404550951E+04  0.47000000000E+01 0. -1.
         11    1    6    6    0    0 -0.88774032229E+01  0.15104467367E+02 -0.58742968022E+02  0.61299996040E+02  0.00000000000E+00 0. -1.
        -12    1    6    6    0    0  0.49763275621E+02 -0.94019519489E+01 -0.72435250709E+01  0.51159055469E+02  0.00000000000E+00 0.  1.
         -5    1    5    5    0  503  0.82169504123E+02  0.95336468664E+02 -0.26722904037E+03  0.29542227350E+03  0.47000000000E+01 0.  1.
<mgrwt>
<rscale>  2 0.23567840E+03</rscale>
<asrwt>0</asrwt>
<pdfrwt beam="1">  1       21 0.66209843E-02 0.23582704E+03</pdfrwt>
<pdfrwt beam="2">  1       21 0.43204262E+00 0.23582704E+03</pdfrwt>
<totfact> 0.85308307E+02</totfact>
</mgrwt>
</event>
<event>
12    1  0.1441827E-001  0.2379170E+03  0.7546771E-02  0.1121821E+00
         21   -1    0    0  504  503  0.00000000000E+00  0.00000000000E+00  0.11772914392E+04  0.11772914392E+04  0.00000000000E+00 0.  1.
         21   -1    0    0  502  504 -0.00000000000E+00 -0.00000000000E+00 -0.20157537411E+03  0.20157537411E+03  0.00000000000E+00 0.  1.
          6    2    1    2  502    0  0.12514263792E+03 -0.10447137568E+03 -0.11431962821E+03  0.26395733279E+03  0.17329035743E+03 0.  0.
         24    2    3    3    0    0  0.40448933347E+02  0.83506564608E+01 -0.74068440022E+02  0.11717830608E+03  0.80862673320E+02 0.  0.
         -6    2    1    2    0  503 -0.12514263792E+03  0.10447137568E+03  0.10900356933E+04  0.11149094806E+04  0.16813800565E+03 0.  0.
        -24    2    5    5    0    0 -0.12939525266E+03  0.58160423774E+02  0.59898066685E+03  0.62163479235E+03  0.86753728978E+02 0.  0.
          4    1    4    4  501    0  0.11576879849E+02  0.19570838860E+02  0.11996319584E+02  0.25709017178E+02  0.00000000000E+00 0. -1.
         -3    1    4    4    0  501  0.28872053499E+02 -0.11220182399E+02 -0.86064759606E+02  0.91469288903E+02  0.00000000000E+00 0.  1.
          5    1    3    3  502    0  0.84693704576E+02 -0.11282203214E+03 -0.40251188185E+02  0.14677902671E+03  0.47000000000E+01 0. -1.
         11    1    6    6    0    0  0.28937739791E+01 -0.27045089860E+01 -0.11223010923E+01  0.41167774338E+01  0.00000000000E+00 0. -1.
        -12    1    6    6    0    0 -0.13228902664E+03  0.60864932760E+02  0.60010296794E+03  0.61751801491E+03  0.00000000000E+00 0.  1.
         -5    1    5    5    0  503  0.42526147387E+01  0.46310951910E+02  0.49105502648E+03  0.49327468821E+03  0.47000000000E+01 0.  1.
<mgrwt>
<rscale>  2 0.23697993E+03</rscale>
<asrwt>0</asrwt>
<pdfrwt beam="1">  1       21 0.18112176E+00 0.23791699E+03</pdfrwt>
<pdfrwt beam="2">  1       21 0.31011597E-01 0.23791699E+03</pdfrwt>
<totfact> 0.17113341E+03</totfact>
</mgrwt>
</event>
<event>
12    1  0.1441827E-001  0.1831324E+03  0.7546771E-02  0.1165186E+00
         21   -1    0    0  504  503  0.00000000000E+00  0.00000000000E+00  0.77350586037E+03  0.77350586037E+03  0.00000000000E+00 0. -1.
         21   -1    0    0  502  504 -0.00000000000E+00 -0.00000000000E+00 -0.64076632280E+02  0.64076632280E+02  0.00000000000E+00 0.  1.
          6    2    1    2  502    0  0.21915179720E+01  0.57327729420E+02  0.11545716359E+03  0.21648978997E+03  0.17391435026E+03 0.  0.
         24    2    3    3    0    0 -0.65703583306E+00  0.99963005835E+01 -0.84241790600E+01  0.83760533695E+02  0.82731508452E+02 0.  0.
         -6    2    1    2    0  503 -0.21915179720E+01 -0.57327729420E+02  0.59397206451E+03  0.62109270269E+03  0.17222677087E+03 0.  0.
        -24    2    5    5    0    0  0.33096550921E+01 -0.72020492480E+02  0.59481991910E+03  0.60469303657E+03  0.81517036042E+02 0.  0.
          4    1    4    4  501    0 -0.32179841845E+02 -0.19673905419E+02 -0.13747328436E+02  0.40144661099E+02  0.00000000000E+00 0. -1.
         -3    1    4    4    0  501  0.31522806012E+02  0.29670206003E+02  0.53231493760E+01  0.43615872597E+02  0.00000000000E+00 0.  1.
          5    1    3    3  502    0  0.28485538051E+01  0.47331428836E+02  0.12388134265E+03  0.13272925627E+03  0.47000000000E+01 0. -1.
         13    1    6    6    0    0 -0.27207169441E+02 -0.52570269137E+01  0.28279781676E+03  0.28415219789E+03  0.00000000000E+00 0. -1.
        -14    1    6    6    0    0  0.30516824533E+02 -0.66763465567E+02  0.31202210234E+03  0.32054083868E+03  0.00000000000E+00 0.  1.
         -5    1    5    5    0  503 -0.55011730642E+01  0.14692763061E+02 -0.84785458908E+00  0.16399666120E+02  0.47000000000E+01 0.  1.
<mgrwt>
<rscale>  2 0.18273060E+03</rscale>
<asrwt>0</asrwt>
<pdfrwt beam="1">  1       21 0.11900090E+00 0.18313239E+03</pdfrwt>
<pdfrwt beam="2">  1       21 0.98579440E-02 0.18313239E+03</pdfrwt>
<totfact> 0.45095736E+04</totfact>
</mgrwt>
</event>
<event>
12    1  0.1441827E-001  0.1801132E+03  0.7546771E-02  0.1168479E+00
         21   -1    0    0  504  503  0.00000000000E+00  0.00000000000E+00  0.17943531745E+03  0.17943531745E+03  0.00000000000E+00 0. -1.
         21   -1    0    0  502  504 -0.00000000000E+00 -0.00000000000E+00 -0.22796166852E+03  0.22796166852E+03  0.00000000000E+00 0. -1.
          6    2    1    2  502    0  0.37799360598E+02  0.31767695448E+02 -0.12019567259E+03  0.21653583674E+03  0.17321313676E+03 0.  0.
         24    2    3    3    0    0 -0.42403728055E+02  0.37398485251E+02 -0.80102484687E+02  0.12657031590E+03  0.80043200604E+02 0.  0.
         -6    2    1    2    0  503 -0.37799360598E+02 -0.31767695448E+02  0.71669321525E+02  0.19086114922E+03  0.16986320525E+03 0.  0.
        -24    2    5    5    0    0 -0.17593149525E+02  0.86835078950E+01  0.10083347423E+03  0.13684977430E+03  0.90418742433E+02 0.  0.
          2    1    4    4  501    0 -0.40027299267E+01  0.25033862088E+02  0.10462804322E+02  0.27426016338E+02  0.00000000000E+00 0. -1.
         -1    1    4    4    0  501 -0.38400998128E+02  0.12364623163E+02 -0.90565289009E+02  0.99144299566E+02  0.00000000000E+00 0.  1.
          5    1    3    3  502    0  0.80203088653E+02 -0.56307898023E+01 -0.40093187904E+02  0.89965520838E+02  0.47000000000E+01 0. -1.
         13    1    6    6    0    0 -0.36590862360E+02  0.41041595355E+02  0.61158548932E+02  0.82241545858E+02  0.00000000000E+00 0. -1.
        -14    1    6    6    0    0  0.18997712835E+02 -0.32358087460E+02  0.39674925294E+02  0.54608228447E+02  0.00000000000E+00 0.  1.
         -5    1    5    5    0  503 -0.20206211073E+02 -0.40451203343E+02 -0.29164152701E+02  0.54011374919E+02  0.47000000000E+01 0.  1.
<mgrwt>
<rscale>  2 0.17930296E+03</rscale>
<asrwt>0</asrwt>
<pdfrwt beam="1">  1       21 0.27605433E-01 0.18011321E+03</pdfrwt>
<pdfrwt beam="2">  1       21 0.35071026E-01 0.18011321E+03</pdfrwt>
<totfact> 0.98612129E+04</totfact>
</mgrwt>
</event>
<event>
12    1  0.1441827E-001  0.1829301E+03  0.7546771E-02  0.1165184E+00
         21   -1    0    0  504  503  0.00000000000E+00  0.00000000000E+00  0.57936554942E+02  0.57936554942E+02  0.00000000000E+00 0.  1.
         21   -1    0    0  502  504 -0.00000000000E+00 -0.00000000000E+00 -0.57647850081E+03  0.57647850081E+03  0.00000000000E+00 0.  1.
          6    2    1    2  502    0  0.59889434010E+01  0.60961910490E+02 -0.24434708756E+03  0.30523586117E+03  0.17236939917E+03 0.  0.
         24    2    3    3    0    0  0.23418845331E+02 -0.26608777206E+02 -0.94219796158E+02  0.13049971594E+03  0.83044184214E+02 0.  0.
         -6    2    1    2    0  503 -0.59889434010E+01 -0.60961910490E+02 -0.27419485831E+03  0.32917919458E+03  0.17153396122E+03 0.  0.
        -24    2    5    5    0    0 -0.61895938119E+02 -0.58690144151E+02 -0.13287846158E+03  0.17711615842E+03  0.80235951095E+02 0.  0.
          4    1    4    4  501    0  0.41816077777E+02 -0.70453764839E+01 -0.12096451918E+02  0.44097004880E+02  0.00000000000E+00 0. -1.
         -3    1    4    4    0  501 -0.18397232446E+02 -0.19563400723E+02 -0.82123344241E+02  0.86402711061E+02  0.00000000000E+00 0.  1.
          5    1    3    3  502    0 -0.17429901930E+02  0.87570687696E+02 -0.15012729140E+03  0.17473614523E+03  0.47000000000E+01 0. -1.
         13    1    6    6    0    0 -0.42002385315E+02  0.11774492652E+02 -0.55434164461E+02  0.70539248924E+02  0.00000000000E+00 0. -1.
        -14    1    6    6    0    0 -0.19893552805E+02 -0.70464636803E+02 -0.77444297115E+02  0.10657690950E+03  0.00000000000E+00 0.  1.
         -5    1    5    5    0  503  0.55906994718E+02 -0.22717663385E+01 -0.14131639673E+03  0.15206303616E+03  0.47000000000E+01 0.  1.
<mgrwt>
<rscale>  2 0.18273306E+03</rscale>
<asrwt>0</asrwt>
<pdfrwt beam="1">  1       21 0.89133160E-02 0.18293013E+03</pdfrwt>
<pdfrwt beam="2">  1       21 0.88689002E-01 0.18293013E+03</pdfrwt>
<totfact> 0.10839027E+05</totfact>
</mgrwt>
</event>
<event>
12    1  0.1441827E-001  0.2798267E+03  0.7546771E-02  0.1095784E+00
         21   -1    0    0  504  503  0.00000000000E+00  0.00000000000E+00  0.94397301827E+02  0.94397301827E+02  0.00000000000E+00 0.  1.
         21   -1    0    0  502  504 -0.00000000000E+00 -0.00000000000E+00 -0.89158852076E+03  0.89158852076E+03  0.00000000000E+00 0. -1.
          6    2    1    2  502    0  0.22013019392E+03  0.11018458888E+02 -0.52870045020E+03  0.59818398843E+03  0.17239840272E+03 0.  0.
         24    2    3    3    0    0  0.19807221541E+03  0.82726548824E+00 -0.30275290505E+03  0.37088507071E+03  0.81627980927E+02 0.  0.
         -6    2    1    2    0  503 -0.22013019392E+03 -0.11018458888E+02 -0.26849076873E+03  0.38780183416E+03  0.17240725325E+03 0.  0.
        -24    2    5    5    0    0 -0.20254218788E+03 -0.24293982455E+02 -0.28487284437E+03  0.35994434173E+03  0.82424852014E+02 0.  0.
          4    1    4    4  501    0  0.10399946732E+03 -0.40334263255E+02 -0.15655153505E+03  0.19222675444E+03  0.00000000000E+00 0. -1.
         -3    1    4    4    0  501  0.94072748084E+02  0.41161528743E+02 -0.14620137001E+03  0.17865831627E+03  0.00000000000E+00 0.  1.
          5    1    3    3  502    0  0.22057978507E+02  0.10191193400E+02 -0.22594754515E+03  0.22729891772E+03  0.47000000000E+01 0. -1.
         13    1    6    6    0    0 -0.54127627809E+02  0.83479698629E+01 -0.28053856422E+02  0.61534604519E+02  0.00000000000E+00 0. -1.
        -14    1    6    6    0    0 -0.14841456007E+03 -0.32641952318E+02 -0.25681898795E+03  0.29840973721E+03  0.00000000000E+00 0.  1.
         -5    1    5    5    0  503 -0.17588006038E+02  0.13275523567E+02  0.16382075638E+02  0.27857492432E+02  0.47000000000E+01 0.  1.
<mgrwt>
<rscale>  2 0.27982531E+03</rscale>
<asrwt>0</asrwt>
<pdfrwt beam="1">  1       21 0.14522661E-01 0.27982668E+03</pdfrwt>
<pdfrwt beam="2">  1       21 0.13716747E+00 0.27982668E+03</pdfrwt>
<totfact> 0.14906088E+04</totfact>
</mgrwt>
</event>
<event>
12    1  0.1441827E-001  0.2119560E+03  0.7546771E-02  0.1140640E+00
         21   -1    0    0  504  503  0.00000000000E+00  0.00000000000E+00  0.27390740018E+03  0.27390740018E+03  0.00000000000E+00 0. -1.
         21   -1    0    0  502  504 -0.00000000000E+00 -0.00000000000E+00 -0.26634944054E+03  0.26634944054E+03  0.00000000000E+00 0.  1.
          6    2    1    2  502    0  0.12013838377E+03  0.21708699702E+02 -0.16558938891E+03  0.26897065288E+03  0.17326530955E+03 0.  0.
         24    2    3    3    0    0 -0.40979583512E+01  0.26834464990E+02 -0.46548619448E+02  0.96768048461E+02  0.80376610133E+02 0.  0.
         -6    2    1    2    0  503 -0.12013838377E+03 -0.21708699702E+02  0.17314734855E+03  0.27128618783E+03  0.16944524927E+03 0.  0.
        -24    2    5    5    0    0 -0.72740425378E+02 -0.65904595668E+02  0.16584138644E+03  0.20590032726E+03  0.72505131515E+02 0.  0.
          4    1    4    4  501    0 -0.23389904724E+02  0.32387105447E+02  0.61080689878E+01  0.40414363152E+02  0.00000000000E+00 0. -1.
         -3    1    4    4    0  501  0.19291946373E+02 -0.55526404562E+01 -0.52656688436E+02  0.56353685309E+02  0.00000000000E+00 0.  1.
          5    1    3    3  502    0  0.12423634213E+03 -0.51257652884E+01 -0.11904076946E+03  0.17220260442E+03  0.47000000000E+01 0. -1.
         13    1    6    6    0    0 -0.25164286027E+02 -0.68965237656E+02  0.87783452516E+02  0.11443504634E+03  0.00000000000E+00 0. -1.
        -14    1    6    6    0    0 -0.47576139351E+02  0.30606419877E+01  0.78057933924E+02  0.91465280918E+02  0.00000000000E+00 0.  1.
         -5    1    5    5    0  503 -0.47397958396E+02  0.44195895966E+02  0.73059621090E+01  0.65385860572E+02  0.47000000000E+01 0.  1.
<mgrwt>
<rscale>  2 0.21117394E+03</rscale>
<asrwt>0</asrwt>
<pdfrwt beam="1">  1       21 0.42139600E-01 0.21195605E+03</pdfrwt>
<pdfrwt beam="2">  1       21 0.40976837E-01 0.21195605E+03</pdfrwt>
<totfact> 0.30766783E+04</totfact>
</mgrwt>
</event>
<event>
12    1  0.1441827E-001  0.2024200E+03  0.7546771E-02  0.1152345E+00
         21   -1    0    0  504  503  0.00000000000E+00  0.00000000000E+00  0.73969627257E+03  0.73969627257E+03  0.00000000000E+00 0.  1.
         21   -1    0    0  502  504 -0.00000000000E+00 -0.00000000000E+00 -0.12592158232E+03  0.12592158232E+03  0.00000000000E+00 0.  1.
          6    2    1    2  502    0  0.44777022398E+02  0.34905369077E+02 -0.22805677200E+02  0.20370064346E+03  0.19429484478E+03 0.  0.
         24    2    3    3    0    0  0.67620870338E+02 -0.43285990323E+02 -0.41048550673E+02  0.12009070083E+03  0.79312885777E+02 0.  0.
         -6    2    1    2    0  503 -0.44777022398E+02 -0.34905369077E+02  0.63658036745E+03  0.66191721143E+03  0.17226858109E+03 0.  0.
        -24    2    5    5    0    0 -0.39681249935E+02 -0.14199141361E+02  0.15287772757E+03  0.17772195268E+03  0.80232634668E+02 0.  0.
          2    1    4    4  501    0  0.79077221522E-01 -0.77599377437E+01  0.20582563361E+02  0.21996927092E+02  0.00000000000E+00 0. -1.
         -1    1    4    4    0  501  0.67541793116E+02 -0.35526052580E+02 -0.61631114034E+02  0.98093773739E+02  0.00000000000E+00 0.  1.
          5    1    3    3  502    0 -0.22843847940E+02  0.78191359400E+02  0.18242873473E+02  0.83609942627E+02  0.47000000000E+01 0. -1.
         13    1    6    6    0    0 -0.60257740820E+01 -0.38632332703E+02  0.34123957866E+02  0.51896161552E+02  0.00000000000E+00 0. -1.
        -14    1    6    6    0    0 -0.33655475853E+02  0.24433191343E+02  0.11875376971E+03  0.12582579113E+03  0.00000000000E+00 0.  1.
         -5    1    5    5    0  503 -0.50957724632E+01 -0.20706227716E+02  0.48370263988E+03  0.48419525874E+03  0.47000000000E+01 0.  1.
<mgrwt>
<rscale>  2 0.19694242E+03</rscale>
<asrwt>0</asrwt>
<pdfrwt beam="1">  1       21 0.11379942E+00 0.20241999E+03</pdfrwt>
<pdfrwt beam="2">  1       21 0.19372552E-01 0.20241999E+03</pdfrwt>
<totfact> 0.14637343E+04</totfact>
</mgrwt>
</event>
<event>
12    1  0.1441827E-001  0.1877578E+03  0.7546771E-02  0.1160648E+00
         21   -1    0    0  504  503  0.00000000000E+00  0.00000000000E+00  0.53808836112E+02  0.53808836112E+02  0.00000000000E+00 0. -1.
         21   -1    0    0  502  504 -0.00000000000E+00 -0.00000000000E+00 -0.78003855683E+03  0.78003855683E+03  0.00000000000E+00 0. -1.
          6    2    1    2  502    0  0.36017957969E+02 -0.63085699262E+02 -0.53196772950E+03  0.56413001074E+03  0.17313551064E+03 0.  0.
         24    2    3    3    0    0  0.45736594460E+02  0.27730507414E+02 -0.24824084491E+03  0.26602756136E+03  0.79286374655E+02 0.  0.
         -6    2    1    2    0  503 -0.36017957969E+02  0.63085699262E+02 -0.19426199122E+03  0.26971738220E+03  0.17243156985E+03 0.  0.
        -24    2    5    5    0    0  0.25758381098E+02  0.67241368251E+02 -0.17748897208E+03  0.20539779090E+03  0.74168871484E+02 0.  0.
          4    1    4    4  501    0  0.67775219301E+02  0.12868508178E+02 -0.17445058594E+03  0.18759553777E+03  0.00000000000E+00 0. -1.
         -3    1    4    4    0  501 -0.22038624841E+02  0.14861999237E+02 -0.73790258967E+02  0.78432023591E+02  0.00000000000E+00 0.  1.
          5    1    3    3  502    0 -0.97186364906E+01 -0.90816206676E+02 -0.28372688459E+03  0.29810244938E+03  0.47000000000E+01 0. -1.
         13    1    6    6    0    0 -0.22130028339E+02  0.45313073606E+02 -0.79351241030E+02  0.94019318477E+02  0.00000000000E+00 0. -1.
        -14    1    6    6    0    0  0.47888409437E+02  0.21928294644E+02 -0.98137731049E+02  0.11137847243E+03  0.00000000000E+00 0.  1.
         -5    1    5    5    0  503 -0.61776339068E+02 -0.41556689888E+01 -0.16773019138E+02  0.64319591295E+02  0.47000000000E+01 0.  1.
<mgrwt>
<rscale>  2 0.18759539E+03</rscale>
<asrwt>0</asrwt>
<pdfrwt beam="1">  1       21 0.82782824E-02 0.18775783E+03</pdfrwt>
<pdfrwt beam="2">  1       21 0.12000593E+00 0.18775783E+03</pdfrwt>
<totfact> 0.59844629E+04</totfact>
</mgrwt>
</event>
<event>
12    1  0.1441827E-001  0.2199006E+03  0.7546771E-02  0.1134530E+00
         21   -1    0    0  504  503  0.00000000000E+00  0.00000000000E+00  0.40632672659E+02  0.40632672659E+02  0.00000000000E+00 0.  1.
         21   -1    0    0  502  504 -0.00000000000E+00 -0.00000000000E+00 -0.21926035023E+04  0.21926035023E+04  0.00000000000E+00 0. -1.
          6    2    1    2  502    0  0.48119486205E+02 -0.12553414071E+03 -0.18411958239E+04  0.18542810870E+04  0.17401718965E+03 0.  0.
         24    2    3    3    0    0  0.53115922146E+01 -0.87317779676E+02 -0.59292417148E+03  0.60468226569E+03  0.80180806007E+02 0.  0.
         -6    2    1    2    0  503 -0.48119486205E+02  0.12553414071E+03 -0.31077500574E+03  0.37895508793E+03  0.17015154729E+03 0.  0.
        -24    2    5    5    0    0  0.23918613805E+02  0.69581038362E+02 -0.90649904199E+02  0.14063306243E+03  0.78400460014E+02 0.  0.
          4    1    4    4  501    0 -0.31966779578E+02 -0.12189664822E+02 -0.20025850402E+03  0.20315986650E+03  0.00000000000E+00 0. -1.
         -3    1    4    4    0  501  0.37278371793E+02 -0.75128114854E+02 -0.39266566746E+03  0.40152239918E+03  0.00000000000E+00 0.  1.
          5    1    3    3  502    0  0.42807893990E+02 -0.38216361033E+02 -0.12482716524E+04  0.12495988213E+04  0.47000000000E+01 0. -1.
         11    1    6    6    0    0  0.11784371495E+02  0.16894920811E+02 -0.83611427946E+02  0.86111443164E+02  0.00000000000E+00 0. -1.
        -12    1    6    6    0    0  0.12134242310E+02  0.52686117551E+02 -0.70384762530E+01  0.54521619262E+02  0.00000000000E+00 0.  1.
         -5    1    5    5    0  503 -0.72038100010E+02  0.55953102347E+02 -0.22012510154E+03  0.23832202551E+03  0.47000000000E+01 0.  1.
<mgrwt>
<rscale>  2 0.21913510E+03</rscale>
<asrwt>0</asrwt>
<pdfrwt beam="1">  1       21 0.62511799E-02 0.21990063E+03</pdfrwt>
<pdfrwt beam="2">  1       21 0.33732365E+00 0.21990063E+03</pdfrwt>
<totfact> 0.36915654E+03</totfact>
</mgrwt>
</event>
<event>
12    1  0.1441827E-001  0.2034990E+03  0.7546771E-02  0.1146884E+00
         21   -1    0    0  504  503  0.00000000000E+00  0.00000000000E+00  0.17746873705E+03  0.17746873705E+03  0.00000000000E+00 0. -1.
         21   -1    0    0  502  504 -0.00000000000E+00 -0.00000000000E+00 -0.23363835766E+03  0.23363835766E+03  0.00000000000E+00 0. -1.
          6    2    1    2  502    0  0.10281254856E+03  0.24398001807E+02 -0.17266692109E+02  0.20392295764E+03  0.17355330985E+03 0.  0.
         24    2    3    3    0    0  0.54903437904E+02 -0.42686447850E+02  0.25433924205E+02  0.11096576909E+03  0.82643796408E+02 0.  0.
         -6    2    1    2    0  503 -0.10281254856E+03 -0.24398001807E+02 -0.38902928505E+02  0.20718413707E+03  0.17391419199E+03 0.  0.
        -24    2    5    5    0    0 -0.12865905979E+02 -0.58374776713E+02 -0.46660451160E+02  0.11060728217E+03  0.80520972882E+02 0.  0.
          4    1    4    4  501    0  0.41898223363E+01 -0.44417414409E+02  0.38096117197E+02  0.58666646908E+02  0.00000000000E+00 0. -1.
         -3    1    4    4    0  501  0.50713615568E+02  0.17309665591E+01 -0.12662192992E+02  0.52299122177E+02  0.00000000000E+00 0.  1.
          5    1    3    3  502    0  0.47909110657E+02  0.67084449656E+02 -0.42700616314E+02  0.92957188551E+02  0.47000000000E+01 0. -1.
         11    1    6    6    0    0 -0.32143644548E+02 -0.58083679498E+02 -0.58074589296E+02  0.88201959337E+02  0.00000000000E+00 0. -1.
        -12    1    6    6    0    0  0.19277738569E+02 -0.29109721458E+00  0.11414138136E+02  0.22405322834E+02  0.00000000000E+00 0.  1.
         -5    1    5    5    0  503 -0.89946642582E+02  0.33976774906E+02  0.77575226551E+01  0.96576854900E+02  0.47000000000E+01 0.  1.
<mgrwt>
<rscale>  2 0.20342184E+03</rscale>
<asrwt>0</asrwt>
<pdfrwt beam="1">  1       21 0.27302883E-01 0.20349897E+03</pdfrwt>
<pdfrwt beam="2">  1       21 0.35944363E-01 0.20349897E+03</pdfrwt>
<totfact> 0.95048601E+04</totfact>
</mgrwt>
</event>
<event>
12    1  0.1441827E-001  0.2332013E+03  0.7546771E-02  0.1125052E+00
         21   -1    0    0  504  503  0.00000000000E+00  0.00000000000E+00  0.15648508164E+03  0.15648508164E+03  0.00000000000E+00 0.  1.
         21   -1    0    0  502  504 -0.00000000000E+00 -0.00000000000E+00 -0.34452499067E+03  0.34452499067E+03  0.00000000000E+00 0.  1.
          6    2    1    2  502    0  0.11385842494E+03 -0.98217827529E+02 -0.11456525875E+03  0.25650781120E+03  0.17337986076E+03 0.  0.
         24    2    3    3    0    0  0.40073526206E+02  0.81807278273E+01 -0.11419388633E+02  0.90899766752E+02  0.80371346563E+02 0.  0.
         -6    2    1    2    0  503 -0.11385842494E+03  0.98217827529E+02 -0.73474650281E+02  0.24450226111E+03  0.17824799825E+03 0.  0.
        -24    2    5    5    0    0 -0.58938588418E+02 -0.13704159573E+02 -0.52655606582E+02  0.11801810313E+03  0.86568461733E+02 0.  0.
          2    1    4    4  501    0  0.54624061793E+01  0.39461372817E+02  0.75355007790E+01  0.40544069824E+02  0.00000000000E+00 0. -1.
         -1    1    4    4    0  501  0.34611120027E+02 -0.31280644990E+02 -0.18954889412E+02  0.50355696928E+02  0.00000000000E+00 0.  1.
          5    1    3    3  502    0  0.73784898733E+02 -0.10639855536E+03 -0.10314587012E+03  0.16560804444E+03  0.47000000000E+01 0. -1.
         13    1    6    6    0    0 -0.81716416194E+01  0.12360415820E+02  0.20463922757E+02  0.25265148735E+02  0.00000000000E+00 0. -1.
        -14    1    6    6    0    0 -0.50766946799E+02 -0.26064575394E+02 -0.73119529339E+02  0.92752954392E+02  0.00000000000E+00 0.  1.
         -5    1    5    5    0  503 -0.54919836521E+02  0.11192198710E+03 -0.20819043699E+02  0.12648415798E+03  0.47000000000E+01 0.  1.
<mgrwt>
<rscale>  2 0.23227084E+03</rscale>
<asrwt>0</asrwt>
<pdfrwt beam="1">  1       21 0.24074628E-01 0.23320127E+03</pdfrwt>
<pdfrwt beam="2">  1       21 0.53003844E-01 0.23320127E+03</pdfrwt>
<totfact> 0.53882829E+04</totfact>
</mgrwt>
</event>
<event>
12    1  0.1441827E-001  0.2578431E+03  0.7546771E-02  0.1108497E+00
         21   -1    0    0  504  503  0.00000000000E+00  0.00000000000E+00  0.23518088328E+03  0.23518088328E+03  0.00000000000E+00 0. -1.
         21   -1    0    0  502  504 -0.00000000000E+00 -0.00000000000E+00 -0.53040177191E+03  0.53040177191E+03  0.00000000000E+00 0.  1.
          6    2    1    2  502    0  0.54399342720E+02  0.18422534713E+03 -0.40945270168E+03  0.48387453671E+03  0.17200228298E+03 0.  0.
         24    2    3    3    0    0 -0.21789670249E+01  0.18253188843E+03 -0.33862624879E+03  0.39308660048E+03  0.80787999829E+02 0.  0.
         -6    2    1    2    0  503 -0.54399342720E+02 -0.18422534713E+03  0.11423181304E+03  0.28170811848E+03  0.17150011631E+03 0.  0.
        -24    2    5    5    0    0 -0.70702498492E+02 -0.18864948536E+03  0.13423137934E+03  0.25511040167E+03  0.80472245032E+02 0.  0.
          4    1    4    4  501    0 -0.16807227510E+02  0.18119352512E+03 -0.29068234235E+03  0.34294285325E+03  0.00000000000E+00 0. -1.
         -3    1    4    4    0  501  0.14628260485E+02  0.13383633053E+01 -0.47943906443E+02  0.50143747229E+02  0.00000000000E+00 0.  1.
          5    1    3    3  502    0  0.56578309745E+02  0.16934586990E+01 -0.70826452890E+02  0.90787936230E+02  0.47000000000E+01 0. -1.
         13    1    6    6    0    0 -0.34512996735E-01 -0.31520906252E+02  0.59456019393E+02  0.67294776649E+02  0.00000000000E+00 0. -1.
        -14    1    6    6    0    0 -0.70667985495E+02 -0.15712857911E+03  0.74775359947E+02  0.18781562502E+03  0.00000000000E+00 0.  1.
         -5    1    5    5    0  503  0.16303155771E+02  0.44241382338E+01 -0.19999566300E+02  0.26597716808E+02  0.47000000000E+01 0.  1.
<mgrwt>
<rscale>  2 0.25775936E+03</rscale>
<asrwt>0</asrwt>
<pdfrwt beam="1">  1       21 0.36181675E-01 0.25784308E+03</pdfrwt>
<pdfrwt beam="2">  1       21 0.81600271E-01 0.25784308E+03</pdfrwt>
<totfact> 0.93001433E+03</totfact>
</mgrwt>
</event>
<event>
12    1  0.1441827E-001  0.1826692E+03  0.7546771E-02  0.1165416E+00
         21   -1    0    0  504  503  0.00000000000E+00  0.00000000000E+00  0.23412882878E+03  0.23412882878E+03  0.00000000000E+00 0.  1.
         21   -1    0    0  502  504 -0.00000000000E+00 -0.00000000000E+00 -0.14297147436E+03  0.14297147436E+03  0.00000000000E+00 0. -1.
          6    2    1    2  502    0 -0.17814351522E+02 -0.48822483544E+02  0.61536242648E+02  0.19275567295E+03  0.17512011386E+03 0.  0.
         24    2    3    3    0    0 -0.49518237637E+02 -0.42059100304E+02  0.99730187392E+02  0.14243920286E+03  0.78241884285E+02 0.  0.
         -6    2    1    2    0  503  0.17814351522E+02  0.48822483544E+02  0.29621111777E+02  0.18434463019E+03  0.17436899494E+03 0.  0.
        -24    2    5    5    0    0 -0.51221208056E+02  0.29025649347E+02  0.49371900970E+02  0.10971215198E+03  0.78313927312E+02 0.  0.
          4    1    4    4  501    0 -0.39420705989E+00  0.17653326643E+02  0.43160196662E+02  0.46632584280E+02  0.00000000000E+00 0. -1.
         -3    1    4    4    0  501 -0.49124030578E+02 -0.59712426947E+02  0.56569990731E+02  0.95806618578E+02  0.00000000000E+00 0.  1.
          5    1    3    3  502    0  0.31703886115E+02 -0.67633832398E+01 -0.38193944745E+02  0.50316470095E+02  0.47000000000E+01 0. -1.
         11    1    6    6    0    0 -0.23227212808E+02  0.43626132984E+02 -0.19428966196E+01  0.49462286050E+02  0.00000000000E+00 0. -1.
        -12    1    6    6    0    0 -0.27993995248E+02 -0.14600483637E+02  0.51314797590E+02  0.60249865925E+02  0.00000000000E+00 0.  1.
         -5    1    5    5    0  503  0.69035559578E+02  0.19796834197E+02 -0.19750789193E+02  0.74632478213E+02  0.47000000000E+01 0.  1.
<mgrwt>
<rscale>  2 0.18248896E+03</rscale>
<asrwt>0</asrwt>
<pdfrwt beam="1">  1       21 0.36019820E-01 0.18266921E+03</pdfrwt>
<pdfrwt beam="2">  1       21 0.21995611E-01 0.18266921E+03</pdfrwt>
<totfact> 0.14399327E+05</totfact>
</mgrwt>
</event>
<event>
12    1  0.1441827E-001  0.1784499E+03  0.7546771E-02  0.1170796E+00
         21   -1    0    0  504  503  0.00000000000E+00  0.00000000000E+00  0.81341362595E+03  0.81341362595E+03  0.00000000000E+00 0.  1.
         21   -1    0    0  502  504 -0.00000000000E+00 -0.00000000000E+00 -0.12375175677E+03  0.12375175677E+03  0.00000000000E+00 0.  1.
          6    2    1    2  502    0  0.41988024931E+02 -0.14967979322E+02 -0.47335872301E+02  0.17887120872E+03  0.16663489989E+03 0.  0.
         24    2    3    3    0    0  0.12250484537E+02 -0.70451991465E+02 -0.41251960072E+02  0.11545275005E+03  0.80709700855E+02 0.  0.
         -6    2    1    2    0  503 -0.41988024931E+02  0.14967979322E+02  0.73699774147E+03  0.75829417400E+03  0.17279279133E+03 0.  0.
        -24    2    5    5    0    0 -0.36572217414E+02  0.64642625337E+01  0.26766156454E+03  0.28882619730E+03  0.10197325794E+03 0.  0.
          2    1    4    4  501    0 -0.12222344806E+02 -0.13863084449E+02 -0.49883763098E+02  0.53197374407E+02  0.00000000000E+00 0. -1.
         -1    1    4    4    0  501  0.24472829343E+02 -0.56588907016E+02  0.86318030257E+01  0.62255375646E+02  0.00000000000E+00 0.  1.
          5    1    3    3  502    0  0.29737540394E+02  0.55484012143E+02 -0.60839122285E+01  0.63418458670E+02  0.47000000000E+01 0. -1.
         11    1    6    6    0    0 -0.81845979374E+00 -0.98926131401E+01  0.24126585993E+03  0.24146997503E+03  0.00000000000E+00 0. -1.
        -12    1    6    6    0    0 -0.35753757620E+02  0.16356875674E+02  0.26395704614E+02  0.47356222272E+02  0.00000000000E+00 0.  1.
         -5    1    5    5    0  503 -0.54158075169E+01  0.85037167888E+01  0.46933617693E+03  0.46946797670E+03  0.47000000000E+01 0.  1.
<mgrwt>
<rscale>  2 0.17694199E+03</rscale>
<asrwt>0</asrwt>
<pdfrwt beam="1">  1       21 0.12514055E+00 0.17844995E+03</pdfrwt>
<pdfrwt beam="2">  1       21 0.19038732E-01 0.17844995E+03</pdfrwt>
<totfact> 0.12158217E+04</totfact>
</mgrwt>
</event>
<event>
12    1  0.1441827E-001  0.2002810E+03  0.7546771E-02  0.1150735E+00
         21   -1    0    0  504  503  0.00000000000E+00  0.00000000000E+00  0.77877785313E+02  0.77877785313E+02  0.00000000000E+00 0.  1.
         21   -1    0    0  502  504 -0.00000000000E+00 -0.00000000000E+00 -0.60716444126E+03  0.60716444126E+03  0.00000000000E+00 0.  1.
          6    2    1    2  502    0  0.10358412055E+03  0.48747861380E+01 -0.41147691933E+03  0.45763054890E+03  0.17134477106E+03 0.  0.
         24    2    3    3    0    0  0.96597518510E+02 -0.53027657367E+02 -0.23762414587E+03  0.27419559472E+03  0.81086228409E+02 0.  0.
         -6    2    1    2    0  503 -0.10358412055E+03 -0.48747861380E+01 -0.11780973662E+03  0.22741167768E+03  0.16457066425E+03 0.  0.
        -24    2    5    5    0    0 -0.10388887958E+03  0.47954218965E+02 -0.97565575868E+02  0.17064097482E+03  0.80664702800E+02 0.  0.
          2    1    4    4  501    0  0.17850073978E+02 -0.53746154192E+01  0.76185584955E+00  0.18657225310E+02  0.00000000000E+00 0. -1.
         -1    1    4    4    0  501  0.78747444532E+02 -0.47653041948E+02 -0.23838600172E+03  0.25553836941E+03  0.00000000000E+00 0.  1.
          5    1    3    3  502    0  0.69866020412E+01  0.57902443505E+02 -0.17385277346E+03  0.18343495417E+03  0.47000000000E+01 0. -1.
         11    1    6    6    0    0  0.53040190441E+00  0.33767653418E+02 -0.32035083406E+02  0.46548709030E+02  0.00000000000E+00 0. -1.
        -12    1    6    6    0    0 -0.10441928148E+03  0.14186565547E+02 -0.65530492462E+02  0.12409226579E+03  0.00000000000E+00 0.  1.
         -5    1    5    5    0  503  0.30475902908E+00 -0.52829005103E+02 -0.20244160752E+02  0.56770702856E+02  0.47000000000E+01 0.  1.
<mgrwt>
<rscale>  2 0.19882420E+03</rscale>
<asrwt>0</asrwt>
<pdfrwt beam="1">  1       21 0.11981197E-01 0.20028096E+03</pdfrwt>
<pdfrwt beam="2">  1       21 0.93409917E-01 0.20028096E+03</pdfrwt>
<totfact> 0.56492300E+04</totfact>
</mgrwt>
</event>
<event>
12    1  0.1441827E-001  0.3226334E+03  0.7546771E-02  0.1074507E+00
         21   -1    0    0  504  503  0.00000000000E+00  0.00000000000E+00  0.21842424270E+03  0.21842424270E+03  0.00000000000E+00 0. -1.
         21   -1    0    0  502  504 -0.00000000000E+00 -0.00000000000E+00 -0.47604456446E+03  0.47604456446E+03  0.00000000000E+00 0. -1.
          6    2    1    2  502    0 -0.15614770456E+03 -0.22239396767E+03 -0.12018085195E+03  0.34429016286E+03  0.17392842369E+03 0.  0.
         24    2    3    3    0    0 -0.30979789089E+02 -0.12072849589E+03 -0.14800096201E+02  0.15159852085E+03  0.85017360727E+02 0.  0.
         -6    2    1    2    0  503  0.15614770456E+03  0.22239396767E+03 -0.13743946981E+03  0.35017864430E+03  0.17289966039E+03 0.  0.
        -24    2    5    5    0    0  0.14442637755E+02  0.84611361317E+02 -0.17157766899E+02  0.11876094699E+03  0.80262701890E+02 0.  0.
          4    1    4    4  501    0 -0.97145761708E+01 -0.10370115978E+03 -0.42733048985E+02  0.11258071329E+03  0.00000000000E+00 0. -1.
         -3    1    4    4    0  501 -0.21265212918E+02 -0.17027336109E+02  0.27932952784E+02  0.39017807558E+02  0.00000000000E+00 0.  1.
          5    1    3    3  502    0 -0.12516791547E+03 -0.10166547178E+03 -0.10538075575E+03  0.19269164200E+03  0.47000000000E+01 0. -1.
         11    1    6    6    0    0  0.36879284562E+02  0.84416910039E+02 -0.28803676257E+01  0.92166115509E+02  0.00000000000E+00 0. -1.
        -12    1    6    6    0    0 -0.22436646807E+02  0.19445127777E+00 -0.14277399274E+02  0.26594831476E+02  0.00000000000E+00 0.  1.
         -5    1    5    5    0  503  0.14170506681E+03  0.13778260636E+03 -0.12028170291E+03  0.23141769731E+03  0.47000000000E+01 0.  1.
<mgrwt>
<rscale>  2 0.32249490E+03</rscale>
<asrwt>0</asrwt>
<pdfrwt beam="1">  1       21 0.33603730E-01 0.32263335E+03</pdfrwt>
<pdfrwt beam="2">  1       21 0.73237624E-01 0.32263335E+03</pdfrwt>
<totfact> 0.13374962E+04</totfact>
</mgrwt>
</event>
<event>
12    1  0.1441827E-001  0.1805369E+03  0.7546771E-02  0.1167341E+00
         21   -1    0    0  504  503  0.00000000000E+00  0.00000000000E+00  0.20818299661E+03  0.20818299661E+03  0.00000000000E+00 0. -1.
         21   -1    0    0  502  504 -0.00000000000E+00 -0.00000000000E+00 -0.16033998455E+03  0.16033998455E+03  0.00000000000E+00 0. -1.
          6    2    1    2  502    0  0.11316350495E+02  0.50293625705E+02 -0.50938626587E+01  0.18060869779E+03  0.17302036212E+03 0.  0.
         24    2    3    3    0    0  0.55694694573E+02 -0.14953674158E+02  0.42468291691E+01  0.10100979022E+03  0.82821680667E+02 0.  0.
         -6    2    1    2    0  503 -0.11316350495E+02 -0.50293625705E+02  0.52936874718E+02  0.18791428336E+03  0.17277718776E+03 0.  0.
        -24    2    5    5    0    0  0.76196441929E+01 -0.50463433098E+02  0.99272522783E+02  0.13763821539E+03  0.80527184834E+02 0.  0.
          4    1    4    4  501    0 -0.19962276359E+02  0.70400593369E+01 -0.47952459469E+01  0.21703670118E+02  0.00000000000E+00 0. -1.
         -3    1    4    4    0  501  0.75656970933E+02 -0.21993733495E+02  0.90420751160E+01  0.79306120105E+02  0.00000000000E+00 0.  1.
          5    1    3    3  502    0 -0.44378344079E+02  0.65247299862E+02 -0.93406918278E+01  0.79598907570E+02  0.47000000000E+01 0. -1.
         11    1    6    6    0    0  0.83828796535E+01 -0.72402555306E+02  0.70071837111E+02  0.10110620674E+03  0.00000000000E+00 0. -1.
        -12    1    6    6    0    0 -0.76323546057E+00  0.21939122208E+02  0.29200685672E+02  0.36532008641E+02  0.00000000000E+00 0.  1.
         -5    1    5    5    0  503 -0.18935994688E+02  0.16980739307E+00 -0.46335648064E+02  0.50276067974E+02  0.47000000000E+01 0.  1.
<mgrwt>
<rscale>  2 0.18047856E+03</rscale>
<asrwt>0</asrwt>
<pdfrwt beam="1">  1       21 0.32028153E-01 0.18053685E+03</pdfrwt>
<pdfrwt beam="2">  1       21 0.24667690E-01 0.18053685E+03</pdfrwt>
<totfact> 0.14626216E+05</totfact>
</mgrwt>
</event>
<event>
12    1  0.1441827E-001  0.2042655E+03  0.7546771E-02  0.1146359E+00
         21   -1    0    0  504  503  0.00000000000E+00  0.00000000000E+00  0.19565349528E+03  0.19565349528E+03  0.00000000000E+00 0.  1.
         21   -1    0    0  502  504 -0.00000000000E+00 -0.00000000000E+00 -0.23387962431E+03  0.23387962431E+03  0.00000000000E+00 0.  1.
          6    2    1    2  502    0 -0.38552472219E+02  0.10098002031E+03 -0.84168022121E+02  0.22016492143E+03  0.17235161463E+03 0.  0.
         24    2    3    3    0    0 -0.87877845148E+02  0.91682183904E+02 -0.45536539000E+02  0.15665174434E+03  0.79611896765E+02 0.  0.
         -6    2    1    2    0  503  0.38552472219E+02 -0.10098002031E+03  0.45941893084E+02  0.20936819816E+03  0.17332376422E+03 0.  0.
        -24    2    5    5    0    0  0.20823882336E+02  0.12750119770E+02  0.40499949807E+02  0.94040177241E+02  0.81284127426E+02 0.  0.
          2    1    4    4  501    0 -0.79924372630E+02  0.58398965162E+02  0.87247448502E+00  0.98990432285E+02  0.00000000000E+00 0. -1.
         -1    1    4    4    0  501 -0.79534725182E+01  0.33283218742E+02 -0.46409013485E+02  0.57661312052E+02  0.00000000000E+00 0.  1.
          5    1    3    3  502    0  0.49325372929E+02  0.92978364075E+01 -0.38631483121E+02  0.63513177094E+02  0.47000000000E+01 0. -1.
         11    1    6    6    0    0 -0.46957636149E+01  0.38203608906E+02 -0.17174926118E+01  0.38529413572E+02  0.00000000000E+00 0. -1.
        -12    1    6    6    0    0  0.25519645951E+02 -0.25453489136E+02  0.42217442419E+02  0.55510763668E+02  0.00000000000E+00 0.  1.
         -5    1    5    5    0  503  0.17728589883E+02 -0.11373014008E+03  0.54419432766E+01  0.11532802092E+03  0.47000000000E+01 0.  1.
<mgrwt>
<rscale>  2 0.20405910E+03</rscale>
<asrwt>0</asrwt>
<pdfrwt beam="1">  1       21 0.30100538E-01 0.20426548E+03</pdfrwt>
<pdfrwt beam="2">  1       21 0.35981481E-01 0.20426548E+03</pdfrwt>
<totfact> 0.78460729E+04</totfact>
</mgrwt>
</event>
<event>
12    1  0.1441827E-001  0.2386094E+03  0.7546771E-02  0.1121351E+00
         21   -1    0    0  504  503  0.00000000000E+00  0.00000000000E+00  0.13613505001E+03  0.13613505001E+03  0.00000000000E+00 0. -1.
         21   -1    0    0  502  504 -0.00000000000E+00 -0.00000000000E+00 -0.69708813196E+03  0.69708813196E+03  0.00000000000E+00 0. -1.
          6    2    1    2  502    0 -0.11349120522E+03  0.11126996491E+03 -0.54832322490E+03  0.59799065639E+03  0.17796968115E+03 0.  0.
         24    2    3    3    0    0  0.81585745136E+00  0.10951688882E+01 -0.16135669535E+03  0.17969677017E+03  0.79076425417E+02 0.  0.
         -6    2    1    2    0  503  0.11349120522E+03 -0.11126996491E+03 -0.12629857048E+02  0.23523252558E+03  0.17295539612E+03 0.  0.
        -24    2    5    5    0    0 -0.34221169221E+01 -0.63813632736E+02  0.27407259052E+02  0.10277162937E+03  0.75676676381E+02 0.  0.
          4    1    4    4  501    0 -0.12906303477E+02  0.11450286771E+01  0.41629129977E+01  0.13609320510E+02  0.00000000000E+00 0. -1.
         -3    1    4    4    0  501  0.13722160929E+02 -0.49859788914E-01 -0.16551960835E+03  0.16608744966E+03  0.00000000000E+00 0.  1.
          5    1    3    3  502    0 -0.11430706268E+03  0.11017479602E+03 -0.38696652955E+03  0.41829388622E+03  0.47000000000E+01 0. -1.
         13    1    6    6    0    0 -0.18469923295E+02  0.80801348564E+01 -0.74191267471E+01  0.21481854844E+02  0.00000000000E+00 0. -1.
        -14    1    6    6    0    0  0.15047806373E+02 -0.71893767593E+02  0.34826385799E+02  0.81289774530E+02  0.00000000000E+00 0.  1.
         -5    1    5    5    0  503  0.11691332215E+03 -0.47456332170E+02 -0.40037116099E+02  0.13246089621E+03  0.47000000000E+01 0.  1.
<mgrwt>
<rscale>  2 0.23767491E+03</rscale>
<asrwt>0</asrwt>
<pdfrwt beam="1">  1       21 0.20943854E-01 0.23860944E+03</pdfrwt>
<pdfrwt beam="2">  1       21 0.10724433E+00 0.23860944E+03</pdfrwt>
<totfact> 0.14289209E+04</totfact>
</mgrwt>
</event>
<event>
12    1  0.1441827E-001  0.1811195E+03  0.7546771E-02  0.1167050E+00
         21   -1    0    0  504  503  0.00000000000E+00  0.00000000000E+00  0.69614338703E+03  0.69614338703E+03  0.00000000000E+00 0. -1.
         21   -1    0    0  502  504 -0.00000000000E+00 -0.00000000000E+00 -0.53497409960E+02  0.53497409960E+02  0.00000000000E+00 0. -1.
          6    2    1    2  502    0  0.51887138040E+02  0.42565534989E+01  0.45528331295E+03  0.48998689527E+03  0.17347584600E+03 0.  0.
         24    2    3    3    0    0 -0.10812505857E+02 -0.14614161904E+02  0.38602626580E+03  0.39456164796E+03  0.79574695358E+02 0.  0.
         -6    2    1    2    0  503 -0.51887138040E+02 -0.42565534989E+01  0.18736266411E+03  0.25965390171E+03  0.17206099915E+03 0.  0.
        -24    2    5    5    0    0 -0.89931521931E+01  0.58104507473E+02  0.12909117343E+03  0.16401681385E+03  0.82340595061E+02 0.  0.
          4    1    4    4  501    0  0.32740225432E+02 -0.16890055791E+02  0.21043371633E+03  0.21363413892E+03  0.00000000000E+00 0. -1.
         -3    1    4    4    0  501 -0.43552731288E+02  0.22758938870E+01  0.17559254948E+03  0.18092750904E+03  0.00000000000E+00 0.  1.
          5    1    3    3  502    0  0.62699643896E+02  0.18870715403E+02  0.69257047149E+02  0.95425247311E+02  0.47000000000E+01 0. -1.
         11    1    6    6    0    0 -0.33353326142E+02  0.57180191809E+02  0.55147555149E+02  0.86158409566E+02  0.00000000000E+00 0. -1.
        -12    1    6    6    0    0  0.24360173948E+02  0.92431566385E+00  0.73943618278E+02  0.77858404288E+02  0.00000000000E+00 0.  1.
         -5    1    5    5    0  503 -0.42893985846E+02 -0.62361060972E+02  0.58271490688E+02  0.95637087860E+02  0.47000000000E+01 0.  1.
<mgrwt>
<rscale>  2 0.18077985E+03</rscale>
<asrwt>0</asrwt>
<pdfrwt beam="1">  1       21 0.10709898E+00 0.18111947E+03</pdfrwt>
<pdfrwt beam="2">  1       21 0.82303713E-02 0.18111947E+03</pdfrwt>
<totfact> 0.79974775E+04</totfact>
</mgrwt>
</event>
<event>
12    1  0.1441827E-001  0.2332242E+03  0.7546771E-02  0.1124789E+00
         21   -1    0    0  504  503  0.00000000000E+00  0.00000000000E+00  0.11336859033E+03  0.11336859033E+03  0.00000000000E+00 0. -1.
         21   -1    0    0  502  504 -0.00000000000E+00 -0.00000000000E+00 -0.60264113465E+03  0.60264113465E+03  0.00000000000E+00 0. -1.
          6    2    1    2  502    0 -0.51234894644E+02  0.14431833701E+03 -0.41028809865E+03  0.47194264143E+03  0.17589978986E+03 0.  0.
         24    2    3    3    0    0 -0.96924617326E+02  0.41115764113E+02 -0.18833500382E+03  0.22289728789E+03  0.55930669426E+02 0.  0.
         -6    2    1    2    0  503  0.51234894644E+02 -0.14431833701E+03 -0.78984445666E+02  0.24406708356E+03  0.17285080790E+03 0.  0.
        -24    2    5    5    0    0 -0.20475756408E+02 -0.13032768234E+03 -0.41791847818E+02  0.16194805271E+03  0.84119271575E+02 0.  0.
          4    1    4    4  501    0 -0.77230618435E+02  0.34016869548E+02 -0.18265232484E+03  0.20120533692E+03  0.00000000000E+00 0. -1.
         -3    1    4    4    0  501 -0.19693998891E+02  0.70988945649E+01 -0.56826789834E+01  0.21691950968E+02  0.00000000000E+00 0.  1.
          5    1    3    3  502    0  0.45689722682E+02  0.10320257290E+03 -0.22195309483E+03  0.24904535354E+03  0.47000000000E+01 0. -1.
         11    1    6    6    0    0 -0.22188248109E+02 -0.29915769459E+02 -0.48669685640E+02  0.61286294690E+02  0.00000000000E+00 0. -1.
        -12    1    6    6    0    0  0.17124917011E+01 -0.10041191288E+03  0.68778378219E+01  0.10066175802E+03  0.00000000000E+00 0.  1.
         -5    1    5    5    0  503  0.71710651052E+02 -0.13990654679E+02 -0.37192597847E+02  0.82119030847E+02  0.47000000000E+01 0.  1.
<mgrwt>
<rscale>  2 0.23264937E+03</rscale>
<asrwt>0</asrwt>
<pdfrwt beam="1">  1       21 0.17441322E-01 0.23322421E+03</pdfrwt>
<pdfrwt beam="2">  1       21 0.92714021E-01 0.23322421E+03</pdfrwt>
<totfact> 0.28545731E+04</totfact>
</mgrwt>
</event>
<event>
12    1  0.1441827E-001  0.2390697E+03  0.7546771E-02  0.1120544E+00
         21   -1    0    0  504  503  0.00000000000E+00  0.00000000000E+00  0.18409919648E+03  0.18409919648E+03  0.00000000000E+00 0. -1.
         21   -1    0    0  502  504 -0.00000000000E+00 -0.00000000000E+00 -0.31280436776E+03  0.31280436776E+03  0.00000000000E+00 0. -1.
          6    2    1    2  502    0  0.11511493224E+03 -0.11755517557E+03 -0.89991485039E+02  0.25471958894E+03  0.17237440263E+03 0.  0.
         24    2    3    3    0    0  0.84256335455E+02 -0.45498586203E+02  0.90096051930E+01  0.12835618073E+03  0.84999321974E+02 0.  0.
         -6    2    1    2    0  503 -0.11511493224E+03  0.11755517557E+03 -0.38713686235E+02  0.24218397530E+03  0.17344642245E+03 0.  0.
        -24    2    5    5    0    0 -0.76001993135E+02  0.14493097855E+03 -0.60505577396E+02  0.18949400363E+03  0.73930785276E+02 0.  0.
          4    1    4    4  501    0  0.51497332033E+02  0.19171970521E+02  0.10011456516E+02  0.55854891654E+02  0.00000000000E+00 0. -1.
         -3    1    4    4    0  501  0.32759003422E+02 -0.64670556723E+02 -0.10018513226E+01  0.72501289079E+02  0.00000000000E+00 0.  1.
          5    1    3    3  502    0  0.30858596788E+02 -0.72056589370E+02 -0.99001090232E+02  0.12636340821E+03  0.47000000000E+01 0. -1.
         11    1    6    6    0    0  0.60349622459E+00  0.77548165678E+02 -0.25935512445E+02  0.81772446542E+02  0.00000000000E+00 0. -1.
        -12    1    6    6    0    0 -0.76605489360E+02  0.67382812872E+02 -0.34570064951E+02  0.10772155709E+03  0.00000000000E+00 0.  1.
         -5    1    5    5    0  503 -0.39112939108E+02 -0.27375802977E+02  0.21791891160E+02  0.52689971671E+02  0.47000000000E+01 0.  1.
<mgrwt>
<rscale>  2 0.23887532E+03</rscale>
<asrwt>0</asrwt>
<pdfrwt beam="1">  1       21 0.28322953E-01 0.23906971E+03</pdfrwt>
<pdfrwt beam="2">  1       21 0.48123749E-01 0.23906971E+03</pdfrwt>
<totfact> 0.48126515E+04</totfact>
</mgrwt>
</event>
<event>
12    1  0.1441827E-001  0.1995209E+03  0.7546771E-02  0.1150244E+00
         21   -1    0    0  504  503  0.00000000000E+00  0.00000000000E+00  0.11278463632E+03  0.11278463632E+03  0.00000000000E+00 0.  1.
         21   -1    0    0  502  504 -0.00000000000E+00 -0.00000000000E+00 -0.36227168167E+03  0.36227168167E+03  0.00000000000E+00 0. -1.
          6    2    1    2  502    0  0.65990973417E+02 -0.73086827821E+02 -0.85137851028E+02  0.21692638974E+03  0.17352841818E+03 0.  0.
         24    2    3    3    0    0 -0.18034824957E+02  0.45198855956E+01 -0.18289497320E+02  0.84359692742E+02  0.80226976575E+02 0.  0.
         -6    2    1    2    0  503 -0.65990973417E+02  0.73086827821E+02 -0.16434919432E+03  0.25812992825E+03  0.17298528611E+03 0.  0.
        -24    2    5    5    0    0 -0.64047850050E+02  0.17537020699E+02 -0.18644697775E+02  0.10211247053E+03  0.75297129368E+02 0.  0.
          2    1    4    4  501    0 -0.46814454401E+02  0.12656173609E+02 -0.23683965452E+02  0.53969455165E+02  0.00000000000E+00 0. -1.
         -1    1    4    4    0  501  0.28779629444E+02 -0.81362880133E+01  0.53944681319E+01  0.30390237577E+02  0.00000000000E+00 0.  1.
          5    1    3    3  502    0  0.84025798373E+02 -0.77606713417E+02 -0.66848353708E+02  0.13256669700E+03  0.47000000000E+01 0. -1.
         13    1    6    6    0    0 -0.47121093544E+02 -0.16326512438E+02 -0.34944883949E+02  0.60894148975E+02  0.00000000000E+00 0. -1.
        -14    1    6    6    0    0 -0.16926756507E+02  0.33863533137E+02  0.16300186174E+02  0.41218321553E+02  0.00000000000E+00 0.  1.
         -5    1    5    5    0  503 -0.19431233664E+01  0.55549807122E+02 -0.14570449655E+03  0.15601745772E+03  0.47000000000E+01 0.  1.
<mgrwt>
<rscale>  2 0.19940278E+03</rscale>
<asrwt>0</asrwt>
<pdfrwt beam="1">  1       21 0.17351482E-01 0.19952094E+03</pdfrwt>
<pdfrwt beam="2">  1       21 0.55734105E-01 0.19952094E+03</pdfrwt>
<totfact> 0.90854356E+04</totfact>
</mgrwt>
</event>
<event>
12    1  0.1441827E-001  0.2912443E+03  0.7546771E-02  0.1089772E+00
         21   -1    0    0  504  503  0.00000000000E+00  0.00000000000E+00  0.33142110737E+03  0.33142110737E+03  0.00000000000E+00 0. -1.
         21   -1    0    0  502  504 -0.00000000000E+00 -0.00000000000E+00 -0.48108274908E+03  0.48108274908E+03  0.00000000000E+00 0.  1.
          6    2    1    2  502    0  0.15527288872E+03  0.17491263466E+03 -0.35300531841E+03  0.45729704083E+03  0.17263756541E+03 0.  0.
         24    2    3    3    0    0  0.96297091623E+02  0.93191425839E+02 -0.31075343062E+03  0.34791782600E+03  0.80754859318E+02 0.  0.
         -6    2    1    2    0  503 -0.15527288872E+03 -0.17491263466E+03  0.20334367669E+03  0.35520681562E+03  0.17354864240E+03 0.  0.
        -24    2    5    5    0    0 -0.86457541522E+02 -0.13602187512E+03  0.56105562788E+02  0.18802668710E+03  0.78926192667E+02 0.  0.
          2    1    4    4  501    0  0.83931556820E+02  0.26108896284E+02 -0.16340177061E+03  0.18554330852E+03  0.00000000000E+00 0. -1.
         -1    1    4    4    0  501  0.12365534803E+02  0.67082529555E+02 -0.14735166000E+03  0.16237451749E+03  0.00000000000E+00 0.  1.
          5    1    3    3  502    0  0.58975797096E+02  0.81721208820E+02 -0.42251887791E+02  0.10937921483E+03  0.47000000000E+01 0. -1.
         11    1    6    6    0    0 -0.10662717544E+02 -0.84229045754E+02  0.43400438869E+02  0.95351055516E+02  0.00000000000E+00 0. -1.
        -12    1    6    6    0    0 -0.75794823979E+02 -0.51792829365E+02  0.12705123919E+02  0.92675631583E+02  0.00000000000E+00 0.  1.
         -5    1    5    5    0  503 -0.68815347197E+02 -0.38890759540E+02  0.14723811391E+03  0.16718012853E+03  0.47000000000E+01 0.  1.
<mgrwt>
<rscale>  2 0.29110869E+03</rscale>
<asrwt>0</asrwt>
<pdfrwt beam="1">  1       21 0.50987863E-01 0.29124428E+03</pdfrwt>
<pdfrwt beam="2">  1       21 0.74012730E-01 0.29124428E+03</pdfrwt>
<totfact> 0.56278750E+03</totfact>
</mgrwt>
</event>
<event>
12    1  0.1441827E-001  0.2177753E+03  0.7546771E-02  0.1135754E+00
         21   -1    0    0  504  503  0.00000000000E+00  0.00000000000E+00  0.78772461423E+02  0.78772461423E+02  0.00000000000E+00 0.  1.
         21   -1    0    0  502  504 -0.00000000000E+00 -0.00000000000E+00 -0.87619693403E+03  0.87619693403E+03  0.00000000000E+00 0. -1.
          6    2    1    2  502    0  0.74348821759E+02 -0.10933523071E+03 -0.12953722709E+03  0.25247424155E+03  0.17170151273E+03 0.  0.
         24    2    3    3    0    0  0.11195506593E+03 -0.11113004925E+03 -0.91676959915E+02  0.19887442061E+03  0.79136246808E+02 0.  0.
         -6    2    1    2    0  503 -0.74348821759E+02  0.10933523071E+03 -0.66788724551E+03  0.70249515390E+03  0.17304371864E+03 0.  0.
        -24    2    5    5    0    0 -0.52185837144E+02  0.12674569295E+03 -0.64870194113E+03  0.66807876265E+03  0.82019463539E+02 0.  0.
          4    1    4    4  501    0  0.11670184109E+03 -0.79197482617E+02 -0.88338304509E+02  0.16641880005E+03  0.00000000000E+00 0. -1.
         -3    1    4    4    0  501 -0.47467751531E+01 -0.31932566632E+02 -0.33386554061E+01  0.32455620561E+02  0.00000000000E+00 0.  1.
          5    1    3    3  502    0 -0.37606244174E+02  0.17948185401E+01 -0.37860267175E+02  0.53599820942E+02  0.47000000000E+01 0. -1.
         13    1    6    6    0    0 -0.73979044064E+02  0.10643365787E+03 -0.54325051787E+03  0.55849990838E+03  0.00000000000E+00 0. -1.
        -14    1    6    6    0    0  0.21793206920E+02  0.20312035076E+02 -0.10545142325E+03  0.10957885427E+03  0.00000000000E+00 0.  1.
         -5    1    5    5    0  503 -0.22162984615E+02 -0.17410462241E+02 -0.19185304388E+02  0.34416391254E+02  0.47000000000E+01 0.  1.
<mgrwt>
<rscale>  2 0.21750854E+03</rscale>
<asrwt>0</asrwt>
<pdfrwt beam="1">  1       21 0.12118841E-01 0.21777527E+03</pdfrwt>
<pdfrwt beam="2">  1       21 0.13479952E+00 0.21777527E+03</pdfrwt>
<totfact> 0.22381489E+04</totfact>
</mgrwt>
</event>
<event>
12    1  0.1441827E-001  0.1784984E+03  0.7546771E-02  0.1169401E+00
         21   -1    0    0  504  503  0.00000000000E+00  0.00000000000E+00  0.31818061474E+03  0.31818061474E+03  0.00000000000E+00 0.  1.
         21   -1    0    0  502  504 -0.00000000000E+00 -0.00000000000E+00 -0.11742218718E+03  0.11742218718E+03  0.00000000000E+00 0.  1.
          6    2    1    2  502    0  0.33989621826E+02 -0.20735390419E+02  0.15929072007E+02  0.17865229778E+03  0.17342911335E+03 0.  0.
         24    2    3    3    0    0  0.41054997399E+02  0.43809354664E+02 -0.14169932888E+02  0.10693072679E+03  0.87341977110E+02 0.  0.
         -6    2    1    2    0  503 -0.33989621826E+02  0.20735390419E+02  0.18482935556E+03  0.25695050414E+03  0.17400120716E+03 0.  0.
        -24    2    5    5    0    0  0.32634396299E+02 -0.21509836625E+01  0.47198743134E+02  0.10226753356E+03  0.84624443958E+02 0.  0.
          4    1    4    4  501    0  0.39676296189E+02  0.69132943615E+02 -0.16712520987E+02  0.81442499531E+02  0.00000000000E+00 0. -1.
         -3    1    4    4    0  501  0.13787012102E+01 -0.25323588951E+02  0.25425880988E+01  0.25488227255E+02  0.00000000000E+00 0.  1.
          5    1    3    3  502    0 -0.70653755729E+01 -0.64544745083E+02  0.30099004895E+02  0.71721570991E+02  0.47000000000E+01 0. -1.
         11    1    6    6    0    0  0.41226108433E+02 -0.95901036662E+01  0.67108948208E+02  0.79342126480E+02  0.00000000000E+00 0. -1.
        -12    1    6    6    0    0 -0.85917121340E+01  0.74391200036E+01 -0.19910205074E+02  0.22925407083E+02  0.00000000000E+00 0.  1.
         -5    1    5    5    0  503 -0.66624018125E+02  0.22886374081E+02  0.13763061242E+03  0.15468297057E+03  0.47000000000E+01 0.  1.
<mgrwt>
<rscale>  2 0.17835881E+03</rscale>
<asrwt>0</asrwt>
<pdfrwt beam="1">  1       21 0.48950864E-01 0.17849838E+03</pdfrwt>
<pdfrwt beam="2">  1       21 0.18064952E-01 0.17849838E+03</pdfrwt>
<totfact> 0.11164204E+05</totfact>
</mgrwt>
</event>
<event>
12    1  0.1441827E-001  0.3994247E+03  0.7546771E-02  0.1043992E+00
         21   -1    0    0  504  503  0.00000000000E+00  0.00000000000E+00  0.11295933383E+04  0.11295933383E+04  0.00000000000E+00 0. -1.
         21   -1    0    0  502  504 -0.00000000000E+00 -0.00000000000E+00 -0.17906460388E+03  0.17906460388E+03  0.00000000000E+00 0.  1.
          6    2    1    2  502    0  0.32103428413E+03 -0.16265317048E+03  0.77627990989E+03  0.87301237427E+03  0.17326581223E+03 0.  0.
         24    2    3    3    0    0  0.82559148983E+02 -0.79975138828E+02  0.35476727924E+03  0.38168658134E+03  0.81319050958E+02 0.  0.
         -6    2    1    2    0  503 -0.32103428413E+03  0.16265317048E+03  0.17424882455E+03  0.43564556793E+03  0.17293161233E+03 0.  0.
        -24    2    5    5    0    0 -0.17696390937E+03  0.14823248986E+03  0.60776994152E+02  0.25162878824E+03  0.79587108134E+02 0.  0.
          2    1    4    4  501    0  0.90408621669E+02 -0.50534363054E+02  0.31498593694E+03  0.33157741358E+03  0.00000000000E+00 0. -1.
         -1    1    4    4    0  501 -0.78494726863E+01 -0.29440775774E+02  0.39781342293E+02  0.50109167766E+02  0.00000000000E+00 0.  1.
          5    1    3    3  502    0  0.23847513515E+03 -0.82678031647E+02  0.42151263065E+03  0.49132579293E+03  0.47000000000E+01 0. -1.
         13    1    6    6    0    0 -0.16911638962E+02  0.86662428147E+01  0.32156760033E+02  0.37351901059E+02  0.00000000000E+00 0. -1.
        -14    1    6    6    0    0 -0.16005227041E+03  0.13956624705E+03  0.28620234120E+02  0.21427688718E+03  0.00000000000E+00 0.  1.
         -5    1    5    5    0  503 -0.14407037476E+03  0.14420680614E+02  0.11347183040E+03  0.18401677969E+03  0.47000000000E+01 0.  1.
<mgrwt>
<rscale>  2 0.39938850E+03</rscale>
<asrwt>0</asrwt>
<pdfrwt beam="1">  1       21 0.17378359E+00 0.39942472E+03</pdfrwt>
<pdfrwt beam="2">  1       21 0.27548401E-01 0.39942472E+03</pdfrwt>
<totfact> 0.22001496E+03</totfact>
</mgrwt>
</event>
<event>
12    1  0.1441827E-001  0.1897800E+03  0.7546771E-02  0.1158800E+00
         21   -1    0    0  504  503  0.00000000000E+00  0.00000000000E+00  0.12169779513E+04  0.12169779513E+04  0.00000000000E+00 0.  1.
         21   -1    0    0  502  504 -0.00000000000E+00 -0.00000000000E+00 -0.31075532153E+02  0.31075532153E+02  0.00000000000E+00 0.  1.
          6    2    1    2  502    0 -0.76008691573E+02 -0.15656554944E+02  0.45328471269E+03  0.49140967359E+03  0.17318772368E+03 0.  0.
         24    2    3    3    0    0 -0.11762474299E+03 -0.20349532990E+02  0.38026208777E+03  0.40709885858E+03  0.82949030152E+02 0.  0.
         -6    2    1    2    0  503  0.76008691573E+02  0.15656554944E+02  0.73261770649E+03  0.75664380990E+03  0.17250710792E+03 0.  0.
        -24    2    5    5    0    0  0.12370315517E+02  0.65924159103E+02  0.34830668581E+03  0.36384140976E+03  0.81018544895E+02 0.  0.
          2    1    4    4  501    0 -0.68218178384E+02 -0.18386684158E+02  0.32649711245E+03  0.33405411905E+03  0.00000000000E+00 0. -1.
         -1    1    4    4    0  501 -0.49406564604E+02 -0.19628488328E+01  0.53764975328E+02  0.73044739534E+02  0.00000000000E+00 0.  1.
          5    1    3    3  502    0  0.41616051415E+02  0.46929780467E+01  0.73022624913E+02  0.84310815009E+02  0.47000000000E+01 0. -1.
         13    1    6    6    0    0 -0.20216196266E+02  0.20804103109E+02  0.34217708961E+02  0.44859301201E+02  0.00000000000E+00 0. -1.
        -14    1    6    6    0    0  0.32586511783E+02  0.45120055994E+02  0.31408897685E+03  0.31898210856E+03  0.00000000000E+00 0.  1.
         -5    1    5    5    0  503  0.63638376056E+02 -0.50267604160E+02  0.38431102068E+03  0.39280240013E+03  0.47000000000E+01 0.  1.
<mgrwt>
<rscale>  2 0.18962455E+03</rscale>
<asrwt>0</asrwt>
<pdfrwt beam="1">  1       21 0.18722734E+00 0.18977997E+03</pdfrwt>
<pdfrwt beam="2">  1       21 0.47808521E-02 0.18977997E+03</pdfrwt>
<totfact> 0.47301339E+04</totfact>
</mgrwt>
</event>
<event>
12    1  0.1441827E-001  0.2052398E+03  0.7546771E-02  0.1145508E+00
         21   -1    0    0  504  503  0.00000000000E+00  0.00000000000E+00  0.16765090687E+03  0.16765090687E+03  0.00000000000E+00 0. -1.
         21   -1    0    0  502  504 -0.00000000000E+00 -0.00000000000E+00 -0.25686892744E+03  0.25686892744E+03  0.00000000000E+00 0. -1.
          6    2    1    2  502    0 -0.54096983731E+02  0.94635057314E+02 -0.77804240330E+02  0.21896293275E+03  0.17323102604E+03 0.  0.
         24    2    3    3    0    0 -0.36697911184E+01  0.34088892882E+02 -0.10438026621E+03  0.13567358809E+03  0.79602528512E+02 0.  0.
         -6    2    1    2    0  503  0.54096983731E+02 -0.94635057314E+02 -0.11413780237E+02  0.20555690157E+03  0.17389964830E+03 0.  0.
        -24    2    5    5    0    0  0.51331797132E+02 -0.98141247824E+02 -0.67464650727E+02  0.14913235273E+03  0.73636414979E+02 0.  0.
          4    1    4    4  501    0 -0.20074796181E+02  0.55214936704E+02 -0.60860741655E+02  0.84591468551E+02  0.00000000000E+00 0. -1.
         -3    1    4    4    0  501  0.16405005063E+02 -0.21126043822E+02 -0.43519524556E+02  0.51082119535E+02  0.00000000000E+00 0.  1.
          5    1    3    3  502    0 -0.50427192613E+02  0.60546164432E+02  0.26576025880E+02  0.83289344660E+02  0.47000000000E+01 0. -1.
         11    1    6    6    0    0  0.14401485803E+02 -0.58567351513E+02  0.28702134350E+01  0.60380258211E+02  0.00000000000E+00 0. -1.
        -12    1    6    6    0    0  0.36930311329E+02 -0.39573896311E+02 -0.70334864162E+02  0.88752094515E+02  0.00000000000E+00 0.  1.
         -5    1    5    5    0  503  0.27651865996E+01  0.35061905099E+01  0.56050870491E+02  0.56424548838E+02  0.47000000000E+01 0.  1.
<mgrwt>
<rscale>  2 0.20509807E+03</rscale>
<asrwt>0</asrwt>
<pdfrwt beam="1">  1       21 0.25792447E-01 0.20523978E+03</pdfrwt>
<pdfrwt beam="2">  1       21 0.39518297E-01 0.20523978E+03</pdfrwt>
<totfact> 0.87617745E+04</totfact>
</mgrwt>
</event>
<event>
12    1  0.1441827E-001  0.2477547E+03  0.7546771E-02  0.1114745E+00
         21   -1    0    0  504  503  0.00000000000E+00  0.00000000000E+00  0.27933502980E+03  0.27933502980E+03  0.00000000000E+00 0.  1.
         21   -1    0    0  502  504 -0.00000000000E+00 -0.00000000000E+00 -0.22297431003E+03  0.22297431003E+03  0.00000000000E+00 0. -1.
          6    2    1    2  502    0  0.16345508637E+03  0.72730846418E+02 -0.23854845423E+01  0.24776614459E+03  0.17139145424E+03 0.  0.
         24    2    3    3    0    0  0.27494491243E+02  0.19149632149E+02  0.39647142912E+02  0.95631133099E+02  0.80316637234E+02 0.  0.
         -6    2    1    2    0  503 -0.16345508637E+03 -0.72730846418E+02  0.58746204317E+02  0.25454319524E+03  0.17127107298E+03 0.  0.
        -24    2    5    5    0    0 -0.11226427564E+03 -0.11169476777E+03  0.17297394390E+02  0.17786999187E+03  0.79117289034E+02 0.  0.
          2    1    4    4  501    0  0.41930346881E+02  0.38815827391E+02  0.42298969420E+02  0.71091668004E+02  0.00000000000E+00 0. -1.
         -1    1    4    4    0  501 -0.14435855638E+02 -0.19666195242E+02 -0.26518265079E+01  0.24539465095E+02  0.00000000000E+00 0.  1.
          5    1    3    3  502    0  0.13596059513E+03  0.53581214269E+02 -0.42032627454E+02  0.15213501149E+03  0.47000000000E+01 0. -1.
         11    1    6    6    0    0 -0.99825736554E+01 -0.58200124123E+02  0.20193488372E+02  0.62407396976E+02  0.00000000000E+00 0. -1.
        -12    1    6    6    0    0 -0.10228170199E+03 -0.53494643646E+02 -0.28960939826E+01  0.11546259490E+03  0.00000000000E+00 0.  1.
         -5    1    5    5    0  503 -0.51190810726E+02  0.38963921351E+02  0.41448809927E+02  0.76673203365E+02  0.47000000000E+01 0.  1.
<mgrwt>
<rscale>  2 0.24773384E+03</rscale>
<asrwt>0</asrwt>
<pdfrwt beam="1">  1       21 0.42974620E-01 0.24775466E+03</pdfrwt>
<pdfrwt beam="2">  1       21 0.34303740E-01 0.24775466E+03</pdfrwt>
<totfact> 0.41560360E+04</totfact>
</mgrwt>
</event>
<event>
12    1  0.1441827E-001  0.1778236E+03  0.7546771E-02  0.1170182E+00
         21   -1    0    0  504  503  0.00000000000E+00  0.00000000000E+00  0.39008083668E+03  0.39008083668E+03  0.00000000000E+00 0. -1.
         21   -1    0    0  502  504 -0.00000000000E+00 -0.00000000000E+00 -0.10036331942E+03  0.10036331942E+03  0.00000000000E+00 0. -1.
          6    2    1    2  502    0 -0.32505007280E+02  0.22271053766E+02  0.25404478621E+03  0.31009672191E+03  0.17340313781E+03 0.  0.
         24    2    3    3    0    0 -0.85629654093E+01  0.79675990516E+02  0.16734086378E+03  0.20328750742E+03  0.83073811424E+02 0.  0.
         -6    2    1    2    0  503  0.32505007280E+02 -0.22271053766E+02  0.35672731047E+02  0.18034743419E+03  0.17233710554E+03 0.  0.
        -24    2    5    5    0    0  0.65734544340E+02  0.11474292344E+01 -0.25611776214E+02  0.10665545153E+03  0.79981718822E+02 0.  0.
          2    1    4    4  501    0  0.27832214501E+02  0.62715629407E+02  0.13608250353E+03  0.15240187041E+03  0.00000000000E+00 0. -1.
         -1    1    4    4    0  501 -0.36395179910E+02  0.16960361109E+02  0.31258360244E+02  0.50885637018E+02  0.00000000000E+00 0.  1.
          5    1    3    3  502    0 -0.23942041871E+02 -0.57404936750E+02  0.86703922436E+02  0.10680921448E+03  0.47000000000E+01 0. -1.
         11    1    6    6    0    0  0.47891703842E+02 -0.23143344783E+02  0.15753601773E+02  0.55474369519E+02  0.00000000000E+00 0. -1.
        -12    1    6    6    0    0  0.17842840498E+02  0.24290774018E+02 -0.41365377986E+02  0.51181082007E+02  0.00000000000E+00 0.  1.
         -5    1    5    5    0  503 -0.33229537060E+02 -0.23418483000E+02  0.61284507260E+02  0.73691982667E+02  0.47000000000E+01 0.  1.
<mgrwt>
<rscale>  2 0.17756316E+03</rscale>
<asrwt>0</asrwt>
<pdfrwt beam="1">  1       21 0.60012435E-01 0.17782357E+03</pdfrwt>
<pdfrwt beam="2">  1       21 0.15440511E-01 0.17782357E+03</pdfrwt>
<totfact> 0.96937748E+04</totfact>
</mgrwt>
</event>
<event>
12    1  0.1441827E-001  0.2516655E+03  0.7546771E-02  0.1112455E+00
         21   -1    0    0  504  503  0.00000000000E+00  0.00000000000E+00  0.19454001586E+03  0.19454001586E+03  0.00000000000E+00 0.  1.
         21   -1    0    0  502  504 -0.00000000000E+00 -0.00000000000E+00 -0.53152384991E+03  0.53152384991E+03  0.00000000000E+00 0.  1.
          6    2    1    2  502    0 -0.14526361219E+03 -0.11058249022E+03 -0.39510644880E+03  0.46777377519E+03  0.17138609832E+03 0.  0.
         24    2    3    3    0    0 -0.77426137250E+02 -0.11581758770E+03 -0.35226973070E+03  0.38723556271E+03  0.80305027906E+02 0.  0.
         -6    2    1    2    0  503  0.14526361219E+03  0.11058249022E+03  0.58122614750E+02  0.25829009058E+03  0.17322103906E+03 0.  0.
        -24    2    5    5    0    0  0.16601190957E+03  0.10233441258E+03  0.18495452675E+02  0.21256346154E+03  0.82515800273E+02 0.  0.
          2    1    4    4  501    0 -0.88155811153E+01 -0.36193539722E+02 -0.19196275124E+03  0.19554381772E+03  0.00000000000E+00 0. -1.
         -1    1    4    4    0  501 -0.68610556135E+02 -0.79624047979E+02 -0.16030697947E+03  0.19169174499E+03  0.00000000000E+00 0.  1.
          5    1    3    3  502    0 -0.67837474937E+02  0.52350974792E+01 -0.42836718098E+02  0.80538212476E+02  0.47000000000E+01 0. -1.
         11    1    6    6    0    0 -0.74676646704E+01 -0.20479941266E+01  0.58540434158E+01  0.97072199875E+01  0.00000000000E+00 0. -1.
        -12    1    6    6    0    0  0.17347957424E+03  0.10438240670E+03  0.12641409259E+02  0.20285624155E+03  0.00000000000E+00 0.  1.
         -5    1    5    5    0  503 -0.20748297382E+02  0.82480776450E+01  0.39627162075E+02  0.45726629038E+02  0.47000000000E+01 0.  1.
<mgrwt>
<rscale>  2 0.25135006E+03</rscale>
<asrwt>0</asrwt>
<pdfrwt beam="1">  1       21 0.29929233E-01 0.25166552E+03</pdfrwt>
<pdfrwt beam="2">  1       21 0.81772901E-01 0.25166552E+03</pdfrwt>
<totfact> 0.13528492E+04</totfact>
</mgrwt>
</event>
<event>
12    1  0.1441827E-001  0.3841402E+03  0.7546771E-02  0.1049685E+00
         21   -1    0    0  504  503  0.00000000000E+00  0.00000000000E+00  0.51368674002E+03  0.51368674002E+03  0.00000000000E+00 0.  1.
         21   -1    0    0  502  504 -0.00000000000E+00 -0.00000000000E+00 -0.29370508225E+03  0.29370508225E+03  0.00000000000E+00 0.  1.
          6    2    1    2  502    0  0.19783964342E+02  0.33958747803E+03  0.41124661163E+02  0.38633521879E+03  0.17847297566E+03 0.  0.
         24    2    3    3    0    0  0.65155871901E+02  0.11704767359E+03  0.26647441214E+01  0.15593593542E+03  0.79771358017E+02 0.  0.
         -6    2    1    2    0  503 -0.19783964342E+02 -0.33958747803E+03  0.17885699661E+03  0.42105660348E+03  0.17201098110E+03 0.  0.
        -24    2    5    5    0    0  0.50839405836E+02 -0.14083761492E+03  0.92192842831E+02  0.19297342994E+03  0.79494310688E+02 0.  0.
          2    1    4    4  501    0  0.68015570698E+02  0.47318183065E+02 -0.14384518507E+02  0.84095437918E+02  0.00000000000E+00 0. -1.
         -1    1    4    4    0  501 -0.28596987966E+01  0.69729490522E+02  0.17049262629E+02  0.71840497506E+02  0.00000000000E+00 0.  1.
          5    1    3    3  502    0 -0.45371907560E+02  0.22253980444E+03  0.38459917041E+02  0.23039928336E+03  0.47000000000E+01 0. -1.
         11    1    6    6    0    0  0.23484552891E+02 -0.32103500736E+02 -0.10274778381E+02  0.41081991855E+02  0.00000000000E+00 0. -1.
        -12    1    6    6    0    0  0.27354852945E+02 -0.10873411419E+03  0.10246762121E+03  0.15189143809E+03  0.00000000000E+00 0.  1.
         -5    1    5    5    0  503 -0.70623370178E+02 -0.19874986310E+03  0.86664153778E+02  0.22808317353E+03  0.47000000000E+01 0.  1.
<mgrwt>
<rscale>  2 0.38339819E+03</rscale>
<asrwt>0</asrwt>
<pdfrwt beam="1">  1       21 0.79028729E-01 0.38414016E+03</pdfrwt>
<pdfrwt beam="2">  1       21 0.45185397E-01 0.38414016E+03</pdfrwt>
<totfact> 0.59987149E+03</totfact>
</mgrwt>
</event>
<event>
12    1  0.1441827E-001  0.1904844E+03  0.7546771E-02  0.1158397E+00
         21   -1    0    0  504  503  0.00000000000E+00  0.00000000000E+00  0.67062653094E+02  0.67062653094E+02  0.00000000000E+00 0.  1.
         21   -1    0    0  502  504 -0.00000000000E+00 -0.00000000000E+00 -0.75997208194E+03  0.75997208194E+03  0.00000000000E+00 0.  1.
          6    2    1    2  502    0 -0.24899153425E+02  0.74661745559E+02 -0.57181182195E+03  0.60270479980E+03  0.17346461280E+03 0.  0.
         24    2    3    3    0    0  0.34333243746E+02  0.58721667995E+01 -0.38569882164E+03  0.39558014674E+03  0.80664846834E+02 0.  0.
         -6    2    1    2    0  503  0.24899153425E+02 -0.74661745559E+02 -0.12109760690E+03  0.22432993523E+03  0.17165356202E+03 0.  0.
        -24    2    5    5    0    0 -0.47414606372E+02 -0.47276051759E+02 -0.40100537513E+02  0.11225018091E+03  0.80677630340E+02 0.  0.
          2    1    4    4  501    0  0.38190412412E+02 -0.76299594078E+01 -0.74505538639E+02  0.84070203810E+02  0.00000000000E+00 0. -1.
         -1    1    4    4    0  501 -0.38571686653E+01  0.13502126207E+02 -0.31119328300E+03  0.31150994293E+03  0.00000000000E+00 0.  1.
          5    1    3    3  502    0 -0.59232397172E+02  0.68789578760E+02 -0.18611300031E+03  0.20712465306E+03  0.47000000000E+01 0. -1.
         13    1    6    6    0    0 -0.37282294898E+02  0.12841881757E+01  0.13074430600E+02  0.39529221946E+02  0.00000000000E+00 0. -1.
        -14    1    6    6    0    0 -0.10132311474E+02 -0.48560239935E+02 -0.53174968112E+02  0.72720958960E+02  0.00000000000E+00 0.  1.
         -5    1    5    5    0  503  0.72313759797E+02 -0.27385693800E+02 -0.80997069388E+02  0.11207975433E+03  0.47000000000E+01 0.  1.
<mgrwt>
<rscale>  2 0.19007114E+03</rscale>
<asrwt>0</asrwt>
<pdfrwt beam="1">  1       21 0.10317331E-01 0.19048442E+03</pdfrwt>
<pdfrwt beam="2">  1       21 0.11691878E+00 0.19048442E+03</pdfrwt>
<totfact> 0.43283417E+04</totfact>
</mgrwt>
</event>
<event>
12    1  0.1441827E-001  0.2376590E+03  0.7546771E-02  0.1121571E+00
         21   -1    0    0  504  503  0.00000000000E+00  0.00000000000E+00  0.30047884815E+03  0.30047884815E+03  0.00000000000E+00 0.  1.
         21   -1    0    0  502  504 -0.00000000000E+00 -0.00000000000E+00 -0.51546254166E+03  0.51546254166E+03  0.00000000000E+00 0.  1.
          6    2    1    2  502    0 -0.16002313354E+03 -0.14253774536E+02 -0.43326008741E+03  0.49416204176E+03  0.17513208392E+03 0.  0.
         24    2    3    3    0    0 -0.15128279250E+03 -0.65303502567E+02 -0.28113917718E+03  0.33339721469E+03  0.70451650539E+02 0.  0.
         -6    2    1    2    0  503  0.16002313354E+03  0.14253774536E+02  0.21827639390E+03  0.32177934805E+03  0.17345544483E+03 0.  0.
        -24    2    5    5    0    0  0.16961272604E+03 -0.17561186462E+02  0.13518998826E+03  0.23217135271E+03  0.80934121294E+02 0.  0.
          2    1    4    4  501    0 -0.61683983582E+01 -0.24587154691E+02 -0.21758917289E+02  0.33407002196E+02  0.00000000000E+00 0. -1.
         -1    1    4    4    0  501 -0.14511439414E+03 -0.40716347876E+02 -0.25938025989E+03  0.29999021250E+03  0.00000000000E+00 0.  1.
          5    1    3    3  502    0 -0.87403410406E+01  0.51049728031E+02 -0.15212091023E+03  0.16076482707E+03  0.47000000000E+01 0. -1.
         13    1    6    6    0    0  0.30749874321E+02 -0.33795076956E+02  0.15871938013E+02  0.48369209354E+02  0.00000000000E+00 0. -1.
        -14    1    6    6    0    0  0.13886285171E+03  0.16233890494E+02  0.11931805025E+03  0.18380214336E+03  0.00000000000E+00 0.  1.
         -5    1    5    5    0  503 -0.95895924955E+01  0.31814960998E+02  0.83086405635E+02  0.89607995340E+02  0.47000000000E+01 0.  1.
<mgrwt>
<rscale>  2 0.23735024E+03</rscale>
<asrwt>0</asrwt>
<pdfrwt beam="1">  1       21 0.46227515E-01 0.23765904E+03</pdfrwt>
<pdfrwt beam="2">  1       21 0.79301929E-01 0.23765904E+03</pdfrwt>
<totfact> 0.60938347E+03</totfact>
</mgrwt>
</event>
<event>
12    1  0.1441827E-001  0.1829061E+03  0.7546771E-02  0.1165132E+00
         21   -1    0    0  504  503  0.00000000000E+00  0.00000000000E+00  0.78193477762E+02  0.78193477762E+02  0.00000000000E+00 0. -1.
         21   -1    0    0  502  504 -0.00000000000E+00 -0.00000000000E+00 -0.49672664164E+03  0.49672664164E+03  0.00000000000E+00 0. -1.
          6    2    1    2  502    0  0.23390891864E+01  0.54960983683E+02 -0.31693478942E+03  0.36569091218E+03  0.17394252339E+03 0.  0.
         24    2    3    3    0    0 -0.57063740695E+02  0.15482008953E+02 -0.11975704507E+03  0.15595670298E+03  0.80528133323E+02 0.  0.
         -6    2    1    2    0  503 -0.23390891864E+01 -0.54960983683E+02 -0.10159837446E+03  0.20922920722E+03  0.17443752577E+03 0.  0.
        -24    2    5    5    0    0  0.26663319176E+02 -0.43426101359E+02 -0.13395903861E+03  0.16402416563E+03  0.79763049176E+02 0.  0.
          2    1    4    4  501    0  0.25168013096E+01  0.24551620704E+02 -0.33934390135E+01  0.24912482742E+02  0.00000000000E+00 0. -1.
         -1    1    4    4    0  501 -0.59580542005E+02 -0.90696117507E+01 -0.11636360605E+03  0.13104422023E+03  0.00000000000E+00 0.  1.
          5    1    3    3  502    0  0.59402829882E+02  0.39478974730E+02 -0.19717774435E+03  0.20973420920E+03  0.47000000000E+01 0. -1.
         13    1    6    6    0    0 -0.20326935519E+02 -0.33204470757E+02 -0.28913717462E+02  0.48494579526E+02  0.00000000000E+00 0. -1.
        -14    1    6    6    0    0  0.46990254695E+02 -0.10221630601E+02 -0.10504532115E+03  0.11552958610E+03  0.00000000000E+00 0.  1.
         -5    1    5    5    0  503 -0.29002408362E+02 -0.11534882325E+02  0.32360664155E+02  0.45205041595E+02  0.47000000000E+01 0.  1.
<mgrwt>
<rscale>  2 0.18278795E+03</rscale>
<asrwt>0</asrwt>
<pdfrwt beam="1">  1       21 0.12029765E-01 0.18290607E+03</pdfrwt>
<pdfrwt beam="2">  1       21 0.76419485E-01 0.18290607E+03</pdfrwt>
<totfact> 0.89424406E+04</totfact>
</mgrwt>
</event>
<event>
12    1  0.1441827E-001  0.2759235E+03  0.7546771E-02  0.1098166E+00
         21   -1    0    0  504  503  0.00000000000E+00  0.00000000000E+00  0.26832848844E+03  0.26832848844E+03  0.00000000000E+00 0.  1.
         21   -1    0    0  502  504 -0.00000000000E+00 -0.00000000000E+00 -0.33779710409E+03  0.33779710409E+03  0.00000000000E+00 0. -1.
          6    2    1    2  502    0 -0.21287213840E+03  0.31558642958E+01  0.88471317231E+02  0.28819663448E+03  0.17293241271E+03 0.  0.
         24    2    3    3    0    0 -0.21987260720E+03  0.87688861488E+01  0.39174812370E+02  0.23787022025E+03  0.81404662017E+02 0.  0.
         -6    2    1    2    0  503  0.21287213840E+03 -0.31558642958E+01 -0.15793993288E+03  0.31792895805E+03  0.17552576215E+03 0.  0.
        -24    2    5    5    0    0  0.19059190474E+03  0.30811054405E+02 -0.17687798455E+03  0.27286344819E+03  0.76772682080E+02 0.  0.
          2    1    4    4  501    0 -0.10988881528E+03  0.16418196458E+02  0.59078214713E+02  0.12583856465E+03  0.00000000000E+00 0. -1.
         -1    1    4    4    0  501 -0.10998379192E+03 -0.76493103091E+01 -0.19903402343E+02  0.11203165561E+03  0.00000000000E+00 0.  1.
          5    1    3    3  502    0  0.70004687953E+01 -0.56130218530E+01  0.49296504861E+02  0.50326414230E+02  0.47000000000E+01 0. -1.
         11    1    6    6    0    0  0.15331357125E+02  0.18211862603E+02 -0.52318323541E+02  0.57479817579E+02  0.00000000000E+00 0. -1.
        -12    1    6    6    0    0  0.17526054762E+03  0.12599191801E+02 -0.12455966101E+03  0.21538363061E+03  0.00000000000E+00 0.  1.
         -5    1    5    5    0  503  0.22280233660E+02 -0.33966918701E+02  0.18938051663E+02  0.45065509858E+02  0.47000000000E+01 0.  1.
<mgrwt>
<rscale>  2 0.27551201E+03</rscale>
<asrwt>0</asrwt>
<pdfrwt beam="1">  1       21 0.41281306E-01 0.27592354E+03</pdfrwt>
<pdfrwt beam="2">  1       21 0.51968785E-01 0.27592354E+03</pdfrwt>
<totfact> 0.19017269E+04</totfact>
</mgrwt>
</event>
<event>
12    1  0.1441827E-001  0.2158631E+03  0.7546771E-02  0.1138876E+00
         21   -1    0    0  504  503  0.00000000000E+00  0.00000000000E+00  0.87718730174E+02  0.87718730174E+02  0.00000000000E+00 0.  1.
         21   -1    0    0  502  504 -0.00000000000E+00 -0.00000000000E+00 -0.56390367956E+03  0.56390367956E+03  0.00000000000E+00 0.  1.
          6    2    1    2  502    0  0.11336777898E+03  0.65056532626E+02 -0.33584814614E+03  0.39415144245E+03  0.15961446228E+03 0.  0.
         24    2    3    3    0    0  0.11286418774E+03  0.12142322514E+02 -0.29815533778E+03  0.32901308940E+03  0.80419193471E+02 0.  0.
         -6    2    1    2    0  503 -0.11336777898E+03 -0.65056532626E+02 -0.14033680324E+03  0.25747096728E+03  0.17179137027E+03 0.  0.
        -24    2    5    5    0    0 -0.31051580387E+02 -0.45830019413E+02 -0.14203879646E+03  0.17279155926E+03  0.81346861820E+02 0.  0.
          4    1    4    4  501    0 -0.10354332179E+02 -0.72944336993E+01 -0.15227962911E+02  0.19806862757E+02  0.00000000000E+00 0. -1.
         -3    1    4    4    0  501  0.12321851992E+03  0.19436756213E+02 -0.28292737487E+03  0.30920622664E+03  0.00000000000E+00 0.  1.
          5    1    3    3  502    0  0.50359124234E+00  0.52914210112E+02 -0.37692808363E+02  0.65138353051E+02  0.47000000000E+01 0. -1.
         13    1    6    6    0    0 -0.30177953205E+01 -0.61361126487E+02 -0.11689878732E+03  0.13205915874E+03  0.00000000000E+00 0. -1.
        -14    1    6    6    0    0 -0.28033785067E+02  0.15531107074E+02 -0.25140009148E+02  0.40732400519E+02  0.00000000000E+00 0.  1.
         -5    1    5    5    0  503 -0.82316198597E+02 -0.19226513213E+02  0.17019932191E+01  0.84679408021E+02  0.47000000000E+01 0.  1.
<mgrwt>
<rscale>  2 0.21343261E+03</rscale>
<asrwt>0</asrwt>
<pdfrwt beam="1">  1       21 0.13495189E-01 0.21586311E+03</pdfrwt>
<pdfrwt beam="2">  1       21 0.86754415E-01 0.21586311E+03</pdfrwt>
<totfact> 0.53724454E+04</totfact>
</mgrwt>
</event>
<event>
12    1  0.1441827E-001  0.1729875E+03  0.7546771E-02  0.1174822E+00
         21   -1    0    0  504  503  0.00000000000E+00  0.00000000000E+00  0.59553487281E+03  0.59553487281E+03  0.00000000000E+00 0. -1.
         21   -1    0    0  502  504 -0.00000000000E+00 -0.00000000000E+00 -0.99090594870E+02  0.99090594870E+02  0.00000000000E+00 0. -1.
          6    2    1    2  502    0  0.65699226307E+01  0.32556111853E+01  0.43067874040E+01  0.17304105688E+03  0.17283198796E+03 0.  0.
         24    2    3    3    0    0  0.21908972879E+02  0.21938251022E+02  0.64521008503E+02  0.10798592706E+03  0.80849922412E+02 0.  0.
         -6    2    1    2    0  503 -0.65699226307E+01 -0.32556111853E+01  0.49213749053E+03  0.52158441079E+03  0.17261872757E+03 0.  0.
        -24    2    5    5    0    0  0.15326646978E+02 -0.58267140279E+02  0.39348524168E+03  0.40643197140E+03  0.82014304949E+02 0.  0.
          4    1    4    4  501    0  0.29714541160E+02  0.13051273708E+01 -0.91213427714E+01  0.31110387457E+02  0.00000000000E+00 0. -1.
         -3    1    4    4    0  501 -0.78055682813E+01  0.20633123651E+02  0.73642351274E+02  0.76875539601E+02  0.00000000000E+00 0.  1.
          5    1    3    3  502    0 -0.15339050248E+02 -0.18682639836E+02 -0.60214221099E+02  0.65055129823E+02  0.47000000000E+01 0. -1.
         11    1    6    6    0    0  0.21545472104E+01 -0.87742803814E+01  0.29750378499E+03  0.29764094502E+03  0.00000000000E+00 0. -1.
        -12    1    6    6    0    0  0.13172099768E+02 -0.49492859898E+02  0.95981456686E+02  0.10879102638E+03  0.00000000000E+00 0.  1.
         -5    1    5    5    0  503 -0.21896569609E+02  0.55011529094E+02  0.98652248854E+02  0.11515243939E+03  0.47000000000E+01 0.  1.
<mgrwt>
<rscale>  2 0.17293416E+03</rscale>
<asrwt>0</asrwt>
<pdfrwt beam="1">  1       21 0.91620748E-01 0.17298745E+03</pdfrwt>
<pdfrwt beam="2">  1       21 0.15244707E-01 0.17298745E+03</pdfrwt>
<totfact> 0.38797921E+04</totfact>
</mgrwt>
</event>
<event>
12    1  0.1441827E-001  0.1845597E+03  0.7546771E-02  0.1163587E+00
         21   -1    0    0  504  503  0.00000000000E+00  0.00000000000E+00  0.11016901437E+03  0.11016901437E+03  0.00000000000E+00 0. -1.
         21   -1    0    0  502  504 -0.00000000000E+00 -0.00000000000E+00 -0.59207435232E+03  0.59207435232E+03  0.00000000000E+00 0. -1.
          6    2    1    2  502    0  0.17909624303E+01 -0.66555993496E+02 -0.48422220762E+03  0.51820210245E+03  0.17213182394E+03 0.  0.
         24    2    3    3    0    0 -0.47678403638E+02 -0.87717358511E+02 -0.29909492305E+03  0.32535702721E+03  0.80198859142E+02 0.  0.
         -6    2    1    2    0  503 -0.17909624303E+01  0.66555993496E+02  0.23168696647E+01  0.18404126425E+03  0.17156022629E+03 0.  0.
        -24    2    5    5    0    0 -0.12116877704E+02  0.69095879714E+02 -0.57976484062E+02  0.12263724116E+03  0.82204384893E+02 0.  0.
          4    1    4    4  501    0 -0.29275745697E+02 -0.86334619121E+01 -0.17094868412E+03  0.17365211934E+03  0.00000000000E+00 0. -1.
         -3    1    4    4    0  501 -0.18402657941E+02 -0.79083896599E+02 -0.12814623893E+03  0.15170490787E+03  0.00000000000E+00 0.  1.
          5    1    3    3  502    0  0.49469366069E+02  0.21161365015E+02 -0.18512728457E+03  0.19284507523E+03  0.47000000000E+01 0. -1.
         11    1    6    6    0    0  0.10077615744E+02  0.45048855176E+01  0.17598337405E+02  0.20773873303E+02  0.00000000000E+00 0. -1.
        -12    1    6    6    0    0 -0.22194493448E+02  0.64590994196E+02 -0.75574821467E+02  0.10186336785E+03  0.00000000000E+00 0.  1.
         -5    1    5    5    0  503  0.10325915274E+02 -0.25398862179E+01  0.60293353726E+02  0.61404023091E+02  0.47000000000E+01 0.  1.
<mgrwt>
<rscale>  2 0.18442628E+03</rscale>
<asrwt>0</asrwt>
<pdfrwt beam="1">  1       21 0.16949079E-01 0.18455967E+03</pdfrwt>
<pdfrwt beam="2">  1       21 0.91088361E-01 0.18455967E+03</pdfrwt>
<totfact> 0.32192943E+04</totfact>
</mgrwt>
</event>
<event>
12    1  0.1441827E-001  0.1977794E+03  0.7546771E-02  0.1152053E+00
         21   -1    0    0  504  503  0.00000000000E+00  0.00000000000E+00  0.29929259258E+04  0.29929259258E+04  0.00000000000E+00 0. -1.
         21   -1    0    0  502  504 -0.00000000000E+00 -0.00000000000E+00 -0.12939744614E+02  0.12939744614E+02  0.00000000000E+00 0. -1.
          6    2    1    2  502    0  0.10274586300E+02 -0.96058621362E+02  0.14853129495E+04  0.14984229185E+04  0.17258000748E+03 0.  0.
         24    2    3    3    0    0  0.80513110292E+01  0.16435085445E+02  0.75056229411E+03  0.75509231065E+03  0.80533872513E+02 0.  0.
         -6    2    1    2    0  503 -0.10274586300E+02  0.96058621362E+02  0.14946732317E+04  0.15074427519E+04  0.17030195185E+03 0.  0.
        -24    2    5    5    0    0  0.53544479280E+02  0.72305911798E+02  0.11162317237E+04  0.11228947973E+04  0.82609375011E+02 0.  0.
          2    1    4    4  501    0  0.19767059956E+01 -0.28243316109E+02  0.47695773822E+03  0.47779731719E+03  0.00000000000E+00 0. -1.
         -1    1    4    4    0  501  0.60746050336E+01  0.44678401554E+02  0.27360455590E+03  0.27729499346E+03  0.00000000000E+00 0.  1.
          5    1    3    3  502    0  0.22232752704E+01 -0.11249370681E+03  0.73475065539E+03  0.74333060788E+03  0.47000000000E+01 0. -1.
         13    1    6    6    0    0  0.18127272993E+02  0.78915229863E+02  0.60487517558E+03  0.61027058717E+03  0.00000000000E+00 0. -1.
        -14    1    6    6    0    0  0.35417206288E+02 -0.66093180644E+01  0.51135654809E+03  0.51262421018E+03  0.00000000000E+00 0.  1.
         -5    1    5    5    0  503 -0.63819065580E+02  0.23752709564E+02  0.37844150804E+03  0.38454795456E+03  0.47000000000E+01 0.  1.
<mgrwt>
<rscale>  2 0.19728135E+03</rscale>
<asrwt>0</asrwt>
<pdfrwt beam="1">  1       21 0.46044959E+00 0.19777938E+03</pdfrwt>
<pdfrwt beam="2">  1       21 0.19907323E-02 0.19777938E+03</pdfrwt>
<totfact> 0.43630320E+03</totfact>
</mgrwt>
</event>
<event>
12    1  0.1441827E-001  0.2543136E+03  0.7546771E-02  0.1110942E+00
         21   -1    0    0  504  503  0.00000000000E+00  0.00000000000E+00  0.21298129842E+03  0.21298129842E+03  0.00000000000E+00 0. -1.
         21   -1    0    0  502  504 -0.00000000000E+00 -0.00000000000E+00 -0.42261295165E+03  0.42261295165E+03  0.00000000000E+00 0.  1.
          6    2    1    2  502    0 -0.81004848382E+01  0.18542432134E+03  0.65903371440E+02  0.26063430387E+03  0.17070204799E+03 0.  0.
         24    2    3    3    0    0  0.54556297704E+02  0.10882301146E+03  0.22541590819E+00  0.14176750061E+03  0.72657662877E+02 0.  0.
         -6    2    1    2    0  503  0.81004848382E+01 -0.18542432134E+03 -0.27553502468E+03  0.37495994620E+03  0.17386090598E+03 0.  0.
        -24    2    5    5    0    0  0.26653474304E+02 -0.11188423455E+03 -0.71488934568E+02  0.15722328260E+03  0.79874922185E+02 0.  0.
          2    1    4    4  501    0  0.45460718872E+02  0.21242140712E+02 -0.15079027552E+02  0.52395444213E+02  0.00000000000E+00 0. -1.
         -1    1    4    4    0  501  0.90955788323E+01  0.87580870746E+02  0.15304443460E+02  0.89372056397E+02  0.00000000000E+00 0.  1.
          5    1    3    3  502    0 -0.62656782542E+02  0.76601309886E+02  0.65677955532E+02  0.11886680326E+03  0.47000000000E+01 0. -1.
         11    1    6    6    0    0 -0.20239821763E+02 -0.11921023773E+02 -0.32554473617E+02  0.40144176978E+02  0.00000000000E+00 0. -1.
        -12    1    6    6    0    0  0.46893296067E+02 -0.99963210773E+02 -0.38934460951E+02  0.11707910562E+03  0.00000000000E+00 0.  1.
         -5    1    5    5    0  503 -0.18552989466E+02 -0.73540086798E+02 -0.20404609011E+03  0.21773666360E+03  0.47000000000E+01 0.  1.
<mgrwt>
<rscale>  2 0.25377465E+03</rscale>
<asrwt>0</asrwt>
<pdfrwt beam="1">  1       21 0.32766354E-01 0.25431361E+03</pdfrwt>
<pdfrwt beam="2">  1       21 0.65017377E-01 0.25431361E+03</pdfrwt>
<totfact> 0.18878733E+04</totfact>
</mgrwt>
</event>
<event>
12    1  0.1441827E-001  0.1982362E+03  0.7546771E-02  0.1152926E+00
         21   -1    0    0  504  503  0.00000000000E+00  0.00000000000E+00  0.98008135353E+03  0.98008135353E+03  0.00000000000E+00 0. -1.
         21   -1    0    0  502  504 -0.00000000000E+00 -0.00000000000E+00 -0.48132075201E+02  0.48132075201E+02  0.00000000000E+00 0. -1.
          6    2    1    2  502    0 -0.35116331631E+02 -0.73282755512E+02  0.24399016615E+03  0.31437045598E+03  0.18081499775E+03 0.  0.
         24    2    3    3    0    0  0.39050597360E+02 -0.41356444207E+02  0.19971711553E+03  0.22216299576E+03  0.78956733830E+02 0.  0.
         -6    2    1    2    0  503  0.35116331631E+02  0.73282755512E+02  0.68795911217E+03  0.71384297275E+03  0.17228038401E+03 0.  0.
        -24    2    5    5    0    0 -0.41104133910E+02  0.67863083296E+02  0.37852665374E+03  0.39508057135E+03  0.80692517401E+02 0.  0.
          2    1    4    4  501    0  0.34485507459E+02 -0.64236598002E+02  0.13602424910E+03  0.15433141965E+03  0.00000000000E+00 0. -1.
         -1    1    4    4    0  501  0.45650899016E+01  0.22880153795E+02  0.63692866426E+02  0.67831576106E+02  0.00000000000E+00 0.  1.
          5    1    3    3  502    0 -0.74166928991E+02 -0.31926311304E+02  0.44273050622E+02  0.92207460223E+02  0.47000000000E+01 0. -1.
         11    1    6    6    0    0 -0.28257129366E+01  0.52507813971E+02  0.31487124157E+03  0.31923181851E+03  0.00000000000E+00 0. -1.
        -12    1    6    6    0    0 -0.38278420973E+02  0.15355269325E+02  0.63655412174E+02  0.75848752839E+02  0.00000000000E+00 0.  1.
         -5    1    5    5    0  503  0.76220465541E+02  0.54196722153E+01  0.30943245843E+03  0.31876240140E+03  0.47000000000E+01 0.  1.
<mgrwt>
<rscale>  2 0.19626898E+03</rscale>
<asrwt>0</asrwt>
<pdfrwt beam="1">  1       21 0.15078173E+00 0.19823618E+03</pdfrwt>
<pdfrwt beam="2">  1       21 0.74049354E-02 0.19823618E+03</pdfrwt>
<totfact> 0.40330025E+04</totfact>
</mgrwt>
</event>
<event>
12    1  0.1441827E-001  0.1826067E+03  0.7546771E-02  0.1165808E+00
         21   -1    0    0  504  503  0.00000000000E+00  0.00000000000E+00  0.11318796324E+03  0.11318796324E+03  0.00000000000E+00 0.  1.
         21   -1    0    0  502  504 -0.00000000000E+00 -0.00000000000E+00 -0.59730438029E+03  0.59730438029E+03  0.00000000000E+00 0.  1.
          6    2    1    2  502    0  0.54225671411E+02 -0.12293038315E+02 -0.49704911747E+03  0.52953094906E+03  0.17393578874E+03 0.  0.
         24    2    3    3    0    0  0.88090607050E+02 -0.15320633258E+02 -0.47227230371E+03  0.48719915608E+03  0.79543773974E+02 0.  0.
         -6    2    1    2    0  503 -0.54225671411E+02  0.12293038315E+02  0.12932700424E+02  0.18096139447E+03  0.17172137118E+03 0.  0.
        -24    2    5    5    0    0  0.18003986696E+02  0.53435502048E+02  0.14177102089E+02  0.97693967661E+02  0.78508755421E+02 0.  0.
          2    1    4    4  501    0  0.33256879675E+02 -0.43127007424E+02 -0.28297424093E+03  0.28816727754E+03  0.00000000000E+00 0. -1.
         -1    1    4    4    0  501  0.54833727375E+02  0.27806374166E+02 -0.18929806278E+03  0.19903187853E+03  0.00000000000E+00 0.  1.
          5    1    3    3  502    0 -0.33864935638E+02  0.30275949435E+01 -0.24776813756E+02  0.42331792979E+02  0.47000000000E+01 0. -1.
         11    1    6    6    0    0 -0.82457453019E+01  0.46772462178E+02 -0.22131903465E+02  0.52397296541E+02  0.00000000000E+00 0. -1.
        -12    1    6    6    0    0  0.26249731997E+02  0.66630398693E+01  0.36309005554E+02  0.45296671120E+02  0.00000000000E+00 0.  1.
         -5    1    5    5    0  503 -0.72229658107E+02 -0.41142463733E+02 -0.12444016651E+01  0.83267426811E+02  0.47000000000E+01 0.  1.
<mgrwt>
<rscale>  2 0.18207738E+03</rscale>
<asrwt>0</asrwt>
<pdfrwt beam="1">  1       21 0.17413533E-01 0.18260668E+03</pdfrwt>
<pdfrwt beam="2">  1       21 0.91892981E-01 0.18260668E+03</pdfrwt>
<totfact> 0.30045594E+04</totfact>
</mgrwt>
</event>
<event>
12    1  0.1441827E-001  0.3353719E+03  0.7546771E-02  0.1069000E+00
         21   -1    0    0  504  503  0.00000000000E+00  0.00000000000E+00  0.17873259109E+03  0.17873259109E+03  0.00000000000E+00 0. -1.
         21   -1    0    0  502  504 -0.00000000000E+00 -0.00000000000E+00 -0.97214042451E+03  0.97214042451E+03  0.00000000000E+00 0. -1.
          6    2    1    2  502    0 -0.23427190901E+01  0.28451567053E+03 -0.73952707347E+03  0.81120047556E+03  0.17375633525E+03 0.  0.
         24    2    3    3    0    0  0.21820591557E+02  0.20553176634E+03 -0.35935012349E+03  0.42212602767E+03  0.79614237376E+02 0.  0.
         -6    2    1    2    0  503  0.23427190901E+01 -0.28451567053E+03 -0.53880759946E+02  0.33967254004E+03  0.17753772290E+03 0.  0.
        -24    2    5    5    0    0  0.53321238909E+02 -0.20515413991E+03  0.82919780238E+01  0.22660352849E+03  0.79680779263E+02 0.  0.
          2    1    4    4  501    0 -0.24568702715E+00 -0.69675541529E+00  0.38271421799E+01  0.38978003398E+01  0.00000000000E+00 0. -1.
         -1    1    4    4    0  501  0.22066278584E+02  0.20622852176E+03 -0.36317726567E+03  0.41822822733E+03  0.00000000000E+00 0.  1.
          5    1    3    3  502    0 -0.24163310647E+02  0.78983904193E+02 -0.38017694999E+03  0.38907444789E+03  0.47000000000E+01 0. -1.
         11    1    6    6    0    0  0.10323688434E+02 -0.97089791884E+02 -0.33188272062E+02  0.10312355518E+03  0.00000000000E+00 0. -1.
        -12    1    6    6    0    0  0.42997550474E+02 -0.10806434802E+03  0.41480250086E+02  0.12347997331E+03  0.00000000000E+00 0.  1.
         -5    1    5    5    0  503 -0.50978519819E+02 -0.79361530627E+02 -0.62172737970E+02  0.11306901155E+03  0.47000000000E+01 0.  1.
<mgrwt>
<rscale>  2 0.33487419E+03</rscale>
<asrwt>0</asrwt>
<pdfrwt beam="1">  1       21 0.27497323E-01 0.33537188E+03</pdfrwt>
<pdfrwt beam="2">  1       21 0.14956006E+00 0.33537188E+03</pdfrwt>
<totfact> 0.34526615E+03</totfact>
</mgrwt>
</event>
<event>
12    1  0.1441827E-001  0.1914604E+03  0.7546771E-02  0.1157461E+00
         21   -1    0    0  504  503  0.00000000000E+00  0.00000000000E+00  0.18871421658E+03  0.18871421658E+03  0.00000000000E+00 0.  1.
         21   -1    0    0  502  504 -0.00000000000E+00 -0.00000000000E+00 -0.72160578314E+03  0.72160578314E+03  0.00000000000E+00 0.  1.
          6    2    1    2  502    0  0.74780609501E+02 -0.29892639387E+02 -0.65580941077E+03  0.68279884906E+03  0.17217019363E+03 0.  0.
         24    2    3    3    0    0  0.10287702957E+03 -0.34981583730E+01 -0.33866759463E+03  0.36328813094E+03  0.81771670553E+02 0.  0.
         -6    2    1    2    0  503 -0.74780609501E+02  0.29892639387E+02  0.12291784421E+03  0.22752115066E+03  0.17369907347E+03 0.  0.
        -24    2    5    5    0    0  0.17142912641E+02 -0.19894797188E+02  0.52029971703E+02  0.10112533098E+03  0.82640983784E+02 0.  0.
          4    1    4    4  501    0  0.64491217786E+02 -0.38139422418E+02 -0.15011300876E+03  0.16777260835E+03  0.00000000000E+00 0. -1.
         -3    1    4    4    0  501  0.38385811779E+02  0.34641264045E+02 -0.18855458587E+03  0.19551552259E+03  0.00000000000E+00 0.  1.
          5    1    3    3  502    0 -0.28096420065E+02 -0.26394481014E+02 -0.31714181614E+03  0.31951071812E+03  0.47000000000E+01 0. -1.
         13    1    6    6    0    0  0.29321033193E+02 -0.17087058438E+02  0.70835774188E+02  0.78545512020E+02  0.00000000000E+00 0. -1.
        -14    1    6    6    0    0 -0.12178120551E+02 -0.28077387500E+01 -0.18805802485E+02  0.22579818958E+02  0.00000000000E+00 0.  1.
         -5    1    5    5    0  503 -0.91923522142E+02  0.49787436575E+02  0.70887872506E+02  0.12639581968E+03  0.47000000000E+01 0.  1.
<mgrwt>
<rscale>  2 0.19111295E+03</rscale>
<asrwt>0</asrwt>
<pdfrwt beam="1">  1       21 0.29032956E-01 0.19146038E+03</pdfrwt>
<pdfrwt beam="2">  1       21 0.11101628E+00 0.19146038E+03</pdfrwt>
<totfact> 0.72610947E+03</totfact>
</mgrwt>
</event>
<event>
12    1  0.1441827E-001  0.1999905E+03  0.7546771E-02  0.1150018E+00
         21   -1    0    0  504  503  0.00000000000E+00  0.00000000000E+00  0.85833627590E+03  0.85833627590E+03  0.00000000000E+00 0.  1.
         21   -1    0    0  502  504 -0.00000000000E+00 -0.00000000000E+00 -0.50945153026E+02  0.50945153026E+02  0.00000000000E+00 0.  1.
          6    2    1    2  502    0 -0.96731438250E+02  0.18080520383E+02  0.26522368525E+03  0.33140451609E+03  0.17263103343E+03 0.  0.
         24    2    3    3    0    0 -0.36539332510E+02  0.51739457100E+02  0.23170589885E+03  0.25458299814E+03  0.84337329471E+02 0.  0.
         -6    2    1    2    0  503  0.96731438250E+02 -0.18080520383E+02  0.54216743762E+03  0.57787691283E+03  0.17410433540E+03 0.  0.
        -24    2    5    5    0    0  0.18621772823E+02  0.78089287595E+01  0.43500674426E+03  0.44268487308E+03  0.79569337775E+02 0.  0.
          4    1    4    4  501    0  0.19859396549E+02  0.25134317169E+02  0.14044315267E+03  0.14405002139E+03  0.00000000000E+00 0. -1.
         -3    1    4    4    0  501 -0.56398729058E+02  0.26605139931E+02  0.91262746176E+02  0.11053297675E+03  0.00000000000E+00 0.  1.
          5    1    3    3  502    0 -0.60192105741E+02 -0.33658936717E+02  0.33517786406E+02  0.76821517949E+02  0.47000000000E+01 0. -1.
         11    1    6    6    0    0  0.26244465180E+01 -0.88808034617E+01  0.40350013932E+03  0.40360639096E+03  0.00000000000E+00 0. -1.
        -12    1    6    6    0    0  0.15997326305E+02  0.16689732221E+02  0.31506604940E+02  0.39078482127E+02  0.00000000000E+00 0.  1.
         -5    1    5    5    0  503  0.78109665428E+02 -0.25889449143E+02  0.10716069336E+03  0.13519203975E+03  0.47000000000E+01 0.  1.
<mgrwt>
<rscale>  2 0.19966940E+03</rscale>
<asrwt>0</asrwt>
<pdfrwt beam="1">  1       21 0.13205172E+00 0.19999049E+03</pdfrwt>
<pdfrwt beam="2">  1       21 0.78377165E-02 0.19999049E+03</pdfrwt>
<totfact> 0.51462805E+04</totfact>
</mgrwt>
</event>
<event>
12    1  0.1441827E-001  0.1851678E+03  0.7546771E-02  0.1163520E+00
         21   -1    0    0  504  503  0.00000000000E+00  0.00000000000E+00  0.55146945220E+03  0.55146945220E+03  0.00000000000E+00 0. -1.
         21   -1    0    0  502  504 -0.00000000000E+00 -0.00000000000E+00 -0.24339834337E+03  0.24339834337E+03  0.00000000000E+00 0. -1.
          6    2    1    2  502    0  0.32022244467E+02 -0.58274232173E+02 -0.19002261010E+03  0.26346921734E+03  0.16995918881E+03 0.  0.
         24    2    3    3    0    0  0.22215314473E+01  0.17718214046E+01 -0.29682544411E+02  0.89616872774E+02  0.84510685065E+02 0.  0.
         -6    2    1    2    0  503 -0.32022244467E+02  0.58274232173E+02  0.49809371893E+03  0.53139857824E+03  0.17281720355E+03 0.  0.
        -24    2    5    5    0    0  0.22627574571E+01  0.72706698473E+01  0.43704524479E+03  0.44464703116E+03  0.81513517947E+02 0.  0.
          2    1    4    4  501    0  0.14713682989E+02  0.34799098470E+02 -0.37736092319E+02  0.53399273262E+02  0.00000000000E+00 0. -1.
         -1    1    4    4    0  501 -0.12492151542E+02 -0.33027277065E+02  0.80535479089E+01  0.36217599512E+02  0.00000000000E+00 0.  1.
          5    1    3    3  502    0  0.29800713020E+02 -0.60046053578E+02 -0.16034006569E+03  0.17385234457E+03  0.47000000000E+01 0. -1.
         13    1    6    6    0    0 -0.25146011715E+02  0.28964121970E+02  0.32552395463E+03  0.32777597121E+03  0.00000000000E+00 0. -1.
        -14    1    6    6    0    0  0.27408769172E+02 -0.21693452123E+02  0.11152129016E+03  0.11687105994E+03  0.00000000000E+00 0.  1.
         -5    1    5    5    0  503 -0.34285001924E+02  0.51003562326E+02  0.61048474134E+02  0.86751547081E+02  0.47000000000E+01 0.  1.
<mgrwt>
<rscale>  2 0.18449800E+03</rscale>
<asrwt>0</asrwt>
<pdfrwt beam="1">  1       21 0.84841454E-01 0.18516775E+03</pdfrwt>
<pdfrwt beam="2">  1       21 0.37445899E-01 0.18516775E+03</pdfrwt>
<totfact> 0.83217166E+03</totfact>
</mgrwt>
</event>
<event>
12    1  0.1441827E-001  0.2335989E+03  0.7546771E-02  0.1124160E+00
         21   -1    0    0  504  503  0.00000000000E+00  0.00000000000E+00  0.19695408860E+03  0.19695408860E+03  0.00000000000E+00 0. -1.
         21   -1    0    0  502  504 -0.00000000000E+00 -0.00000000000E+00 -0.32054946372E+03  0.32054946372E+03  0.00000000000E+00 0.  1.
          6    2    1    2  502    0 -0.15425955133E+03 -0.27891737147E+02 -0.15733491055E+03  0.28164293620E+03  0.17318923539E+03 0.  0.
         24    2    3    3    0    0 -0.11898333745E+03 -0.70236861813E+02 -0.62475166166E+02  0.17183409342E+03  0.80830426977E+02 0.  0.
         -6    2    1    2    0  503  0.15425955133E+03  0.27891737147E+02  0.33739535426E+02  0.23586061613E+03  0.17296796180E+03 0.  0.
        -24    2    5    5    0    0  0.76339668649E+02 -0.22539337725E+02  0.73175018174E+02  0.13490493907E+03  0.80678327615E+02 0.  0.
          2    1    4    4  501    0  0.46537879263E+01  0.11039736296E+02 -0.65809311367E+01  0.13669022429E+02  0.00000000000E+00 0. -1.
         -1    1    4    4    0  501 -0.12363712538E+03 -0.81276598108E+02 -0.55894235029E+02  0.15816507099E+03  0.00000000000E+00 0.  1.
          5    1    3    3  502    0 -0.35276213878E+02  0.42345124665E+02 -0.94859744383E+02  0.10980884278E+03  0.47000000000E+01 0. -1.
         13    1    6    6    0    0  0.72180805873E+02  0.16522592608E+02  0.48369569622E+02  0.88445916065E+02  0.00000000000E+00 0. -1.
        -14    1    6    6    0    0  0.41588627758E+01 -0.39061930333E+02  0.24805448552E+02  0.46459023008E+02  0.00000000000E+00 0.  1.
         -5    1    5    5    0  503  0.77919882681E+02  0.50431074872E+02 -0.39435482748E+02  0.10095567705E+03  0.47000000000E+01 0.  1.
<mgrwt>
<rscale>  2 0.23355794E+03</rscale>
<asrwt>0</asrwt>
<pdfrwt beam="1">  1       21 0.30300629E-01 0.23359895E+03</pdfrwt>
<pdfrwt beam="2">  1       21 0.49315302E-01 0.23359895E+03</pdfrwt>
<totfact> 0.40176001E+04</totfact>
</mgrwt>
</event>
<event>
12    1  0.1441827E-001  0.1780098E+03  0.7546771E-02  0.1170235E+00
         21   -1    0    0  504  503  0.00000000000E+00  0.00000000000E+00  0.47037224029E+03  0.47037224029E+03  0.00000000000E+00 0. -1.
         21   -1    0    0  502  504 -0.00000000000E+00 -0.00000000000E+00 -0.19039055036E+03  0.19039055036E+03  0.00000000000E+00 0.  1.
          6    2    1    2  502    0  0.32679850400E+01  0.44052063715E+02 -0.12666850474E+03  0.21685756037E+03  0.17038493875E+03 0.  0.
         24    2    3    3    0    0 -0.35189235696E+02  0.76103942951E+02 -0.50620286751E+02  0.12568902276E+03  0.78773247814E+02 0.  0.
         -6    2    1    2    0  503 -0.32679850400E+01 -0.44052063715E+02  0.40665019466E+03  0.44390523028E+03  0.17244189922E+03 0.  0.
        -24    2    5    5    0    0 -0.12631220510E+02 -0.51242154165E+02  0.10047418566E+03  0.13746566680E+03  0.77565723540E+02 0.  0.
          4    1    4    4  501    0 -0.15478562248E+02  0.22155915809E+02  0.20752777249E+02  0.34075625573E+02  0.00000000000E+00 0. -1.
         -3    1    4    4    0  501 -0.19710673448E+02  0.53948027141E+02 -0.71373064000E+02  0.91613397191E+02  0.00000000000E+00 0.  1.
          5    1    3    3  502    0  0.38457220736E+02 -0.32051879236E+02 -0.76048217991E+02  0.91168537604E+02  0.47000000000E+01 0. -1.
         11    1    6    6    0    0 -0.25648614705E+02 -0.21707488311E+02  0.99667704597E+02  0.10517945534E+03  0.00000000000E+00 0. -1.
        -12    1    6    6    0    0  0.13017394194E+02 -0.29534665854E+02  0.80648106373E+00  0.32286211460E+02  0.00000000000E+00 0.  1.
         -5    1    5    5    0  503  0.93632354703E+01  0.71900904503E+01  0.30617600900E+03  0.30643956348E+03  0.47000000000E+01 0.  1.
<mgrwt>
<rscale>  2 0.17750968E+03</rscale>
<asrwt>0</asrwt>
<pdfrwt beam="1">  1       21 0.72364960E-01 0.17800975E+03</pdfrwt>
<pdfrwt beam="2">  1       21 0.29290854E-01 0.17800975E+03</pdfrwt>
<totfact> 0.19392636E+04</totfact>
</mgrwt>
</event>
<event>
12    1  0.1441827E-001  0.1773883E+03  0.7546771E-02  0.1170367E+00
         21   -1    0    0  504  503  0.00000000000E+00  0.00000000000E+00  0.32575989684E+03  0.32575989684E+03  0.00000000000E+00 0. -1.
         21   -1    0    0  502  504 -0.00000000000E+00 -0.00000000000E+00 -0.98500747962E+02  0.98500747962E+02  0.00000000000E+00 0.  1.
          6    2    1    2  502    0  0.12572616596E+02 -0.38912545097E+02  0.14332584993E+03  0.22801741829E+03  0.17256125559E+03 0.  0.
         24    2    3    3    0    0  0.65500766368E+02 -0.76830844859E+00  0.52332700908E+02  0.11595397645E+03  0.80097892468E+02 0.  0.
         -6    2    1    2    0  503 -0.12572616596E+02  0.38912545097E+02  0.83933298954E+02  0.19624322652E+03  0.17261039490E+03 0.  0.
        -24    2    5    5    0    0  0.57832255308E+01  0.89299983896E+02  0.75168401310E+02  0.14170200945E+03  0.80132628210E+02 0.  0.
          2    1    4    4  501    0  0.37982486895E+02 -0.36355930591E+02  0.87166673678E+01  0.53295434043E+02  0.00000000000E+00 0. -1.
         -1    1    4    4    0  501  0.27518279473E+02  0.35587622142E+02  0.43616033540E+02  0.62658542407E+02  0.00000000000E+00 0.  1.
          5    1    3    3  502    0 -0.52928149772E+02 -0.38144236648E+02  0.90993149018E+02  0.11206344184E+03  0.47000000000E+01 0. -1.
         13    1    6    6    0    0 -0.34180360289E+02  0.31750823695E+02  0.46895689031E+02  0.66148450356E+02  0.00000000000E+00 0. -1.
        -14    1    6    6    0    0  0.39963585820E+02  0.57549160201E+02  0.28272712278E+02  0.75553559089E+02  0.00000000000E+00 0.  1.
         -5    1    5    5    0  503 -0.18355842127E+02 -0.50387438799E+02  0.87648976444E+01  0.54541217072E+02  0.47000000000E+01 0.  1.
<mgrwt>
<rscale>  2 0.17737633E+03</rscale>
<asrwt>0</asrwt>
<pdfrwt beam="1">  1       21 0.50116907E-01 0.17738829E+03</pdfrwt>
<pdfrwt beam="2">  1       21 0.15153961E-01 0.17738829E+03</pdfrwt>
<totfact> 0.14674613E+05</totfact>
</mgrwt>
</event>
<event>
12    1  0.1441827E-001  0.2109040E+03  0.7546771E-02  0.1140922E+00
         21   -1    0    0  504  503  0.00000000000E+00  0.00000000000E+00  0.11122285224E+04  0.11122285224E+04  0.00000000000E+00 0. -1.
         21   -1    0    0  502  504 -0.00000000000E+00 -0.00000000000E+00 -0.46957077014E+02  0.46957077014E+02  0.00000000000E+00 0.  1.
          6    2    1    2  502    0 -0.10537862186E+03  0.58297292222E+02  0.30872450362E+03  0.37388677104E+03  0.17313945305E+03 0.  0.
         24    2    3    3    0    0 -0.99170048741E+02 -0.23313536377E+02  0.17439862202E+03  0.21651966460E+03  0.78023498053E+02 0.  0.
         -6    2    1    2    0  503  0.10537862186E+03 -0.58297292222E+02  0.75654694178E+03  0.78529882838E+03  0.17270711194E+03 0.  0.
        -24    2    5    5    0    0  0.10027481524E+03 -0.67736653980E+01  0.68765906723E+03  0.69899493378E+03  0.74953342762E+02 0.  0.
          4    1    4    4  501    0  0.67723178301E+01 -0.20390686923E+02  0.39527559573E+02  0.44989691794E+02  0.00000000000E+00 0. -1.
         -3    1    4    4    0  501 -0.10594236657E+03 -0.29228494549E+01  0.13487106245E+03  0.17152997280E+03  0.00000000000E+00 0.  1.
          5    1    3    3  502    0 -0.62085731202E+01  0.81610828599E+02  0.13432588159E+03  0.15736710644E+03  0.47000000000E+01 0. -1.
         13    1    6    6    0    0 -0.87495562566E+01 -0.10976099105E+02  0.13056877901E+03  0.13132111612E+03  0.00000000000E+00 0. -1.
        -14    1    6    6    0    0  0.10902437150E+03  0.42024337065E+01  0.55709028822E+03  0.56767381766E+03  0.00000000000E+00 0.  1.
         -5    1    5    5    0  503  0.51038066188E+01 -0.51523626824E+02  0.68887874546E+02  0.86303894597E+02  0.47000000000E+01 0.  1.
<mgrwt>
<rscale>  2 0.21081525E+03</rscale>
<asrwt>0</asrwt>
<pdfrwt beam="1">  1       21 0.17111206E+00 0.21090400E+03</pdfrwt>
<pdfrwt beam="2">  1       21 0.72241665E-02 0.21090400E+03</pdfrwt>
<totfact> 0.29666419E+04</totfact>
</mgrwt>
</event>
<event>
12    1  0.1441827E-001  0.2470113E+03  0.7546771E-02  0.1115314E+00
         21   -1    0    0  504  503  0.00000000000E+00  0.00000000000E+00  0.78936772843E+03  0.78936772843E+03  0.00000000000E+00 0. -1.
         21   -1    0    0  502  504 -0.00000000000E+00 -0.00000000000E+00 -0.94793853287E+02  0.94793853287E+02  0.00000000000E+00 0.  1.
          6    2    1    2  502    0 -0.17331272369E+03  0.33461110755E+02  0.15585484568E+03  0.29151262215E+03  0.17184856656E+03 0.  0.
         24    2    3    3    0    0 -0.36336704100E+02  0.31288048160E+02  0.14341729796E+02  0.94496876309E+02  0.80154079098E+02 0.  0.
         -6    2    1    2    0  503  0.17331272369E+03 -0.33461110755E+02  0.53871902946E+03  0.59264895956E+03  0.17279366435E+03 0.  0.
        -24    2    5    5    0    0  0.19230000648E+03 -0.53604135879E+02  0.50325883471E+03  0.54741872874E+03  0.80901878711E+02 0.  0.
          4    1    4    4  501    0 -0.23770446484E+02 -0.21653686009E+02  0.22817773338E+02  0.39427997970E+02  0.00000000000E+00 0. -1.
         -3    1    4    4    0  501 -0.12566257616E+02  0.52941734170E+02 -0.84760435421E+01  0.55068878339E+02  0.00000000000E+00 0.  1.
          5    1    3    3  502    0 -0.13697601959E+03  0.21730625942E+01  0.14151311588E+03  0.19701574584E+03  0.47000000000E+01 0. -1.
         13    1    6    6    0    0  0.10887926730E+03 -0.65723598408E+02  0.35179380151E+03  0.37407641601E+03  0.00000000000E+00 0. -1.
        -14    1    6    6    0    0  0.83420739181E+02  0.12119462529E+02  0.15146503321E+03  0.17334231273E+03  0.00000000000E+00 0.  1.
         -5    1    5    5    0  503 -0.18987282789E+02  0.20143025124E+02  0.35460194748E+02  0.45230230825E+02  0.47000000000E+01 0.  1.
<mgrwt>
<rscale>  2 0.24684611E+03</rscale>
<asrwt>0</asrwt>
<pdfrwt beam="1">  1       21 0.12144118E+00 0.24701133E+03</pdfrwt>
<pdfrwt beam="2">  1       21 0.14583670E-01 0.24701133E+03</pdfrwt>
<totfact> 0.20508845E+04</totfact>
</mgrwt>
</event>
<event>
12    1  0.1441827E-001  0.2081368E+03  0.7546771E-02  0.1143129E+00
         21   -1    0    0  504  503  0.00000000000E+00  0.00000000000E+00  0.24735607240E+02  0.24735607240E+02  0.00000000000E+00 0. -1.
         21   -1    0    0  502  504 -0.00000000000E+00 -0.00000000000E+00 -0.17786579433E+04  0.17786579433E+04  0.00000000000E+00 0. -1.
          6    2    1    2  502    0  0.11938758776E+01 -0.11419952606E+03 -0.75950082672E+03  0.78750392724E+03  0.17400566812E+03 0.  0.
         24    2    3    3    0    0 -0.30219681265E+02 -0.26435023023E+01 -0.43140216569E+03  0.43950625573E+03  0.78343493799E+02 0.  0.
         -6    2    1    2    0  503 -0.11938758776E+01  0.11419952606E+03 -0.99442150930E+03  0.10158896233E+04  0.17353567759E+03 0.  0.
        -24    2    5    5    0    0 -0.55939366774E+02  0.70199175506E+02 -0.42733599718E+03  0.44445181590E+03  0.82850619644E+02 0.  0.
          4    1    4    4  501    0 -0.33082855932E+02 -0.29169215224E+02 -0.36918085086E+03  0.37180615798E+03  0.00000000000E+00 0. -1.
         -3    1    4    4    0  501  0.28631746670E+01  0.26525712922E+02 -0.62221314837E+02  0.67700097749E+02  0.00000000000E+00 0.  1.
          5    1    3    3  502    0  0.31413557142E+02 -0.11155602376E+03 -0.32809866102E+03  0.34799767151E+03  0.47000000000E+01 0. -1.
         11    1    6    6    0    0  0.71367918515E+01  0.34558046671E+02 -0.56568707121E+02  0.66672415683E+02  0.00000000000E+00 0. -1.
        -12    1    6    6    0    0 -0.63076158626E+02  0.35641128834E+02 -0.37076729006E+03  0.37777940022E+03  0.00000000000E+00 0.  1.
         -5    1    5    5    0  503  0.54745490897E+02  0.44000350553E+02 -0.56708551212E+03  0.57143780736E+03  0.47000000000E+01 0.  1.
<mgrwt>
<rscale>  2 0.20803855E+03</rscale>
<asrwt>0</asrwt>
<pdfrwt beam="1">  1       21 0.38054781E-02 0.20813681E+03</pdfrwt>
<pdfrwt beam="2">  1       21 0.27363968E+00 0.20813681E+03</pdfrwt>
<totfact> 0.20340930E+04</totfact>
</mgrwt>
</event>
<event>
12    1  0.1441827E-001  0.1996704E+03  0.7546771E-02  0.1150387E+00
         21   -1    0    0  504  503  0.00000000000E+00  0.00000000000E+00  0.20453381266E+03  0.20453381266E+03  0.00000000000E+00 0. -1.
         21   -1    0    0  502  504 -0.00000000000E+00 -0.00000000000E+00 -0.21313547425E+03  0.21313547425E+03  0.00000000000E+00 0. -1.
          6    2    1    2  502    0 -0.39909927617E+02 -0.88684649047E+02 -0.68143185161E+02  0.21097807476E+03  0.17438602308E+03 0.  0.
         24    2    3    3    0    0 -0.35260162375E+01  0.48959619926E+01 -0.76424341718E+02  0.11012279565E+03  0.79056605551E+02 0.  0.
         -6    2    1    2    0  503  0.39909927617E+02  0.88684649047E+02  0.59541523575E+02  0.20669121215E+03  0.17238994997E+03 0.  0.
        -24    2    5    5    0    0  0.79618199345E+02  0.24332346129E+02  0.61314650416E+02  0.13090731074E+03  0.80287713341E+02 0.  0.
          4    1    4    4  501    0  0.32202133815E+02 -0.17037710428E+02 -0.27201964887E+02  0.45466557958E+02  0.00000000000E+00 0. -1.
         -3    1    4    4    0  501 -0.35728150053E+02  0.21933672420E+02 -0.49222376832E+02  0.64656237696E+02  0.00000000000E+00 0.  1.
          5    1    3    3  502    0 -0.36383911379E+02 -0.93580611039E+02  0.82811565578E+01  0.10085527911E+03  0.47000000000E+01 0. -1.
         11    1    6    6    0    0 -0.38983456447E+01  0.30525920812E+02  0.24904994835E+02  0.39588984679E+02  0.00000000000E+00 0. -1.
        -12    1    6    6    0    0  0.83516544989E+02 -0.61935746837E+01  0.36409655582E+02  0.91318326057E+02  0.00000000000E+00 0.  1.
         -5    1    5    5    0  503 -0.39708271728E+02  0.64352302918E+02 -0.17731268418E+01  0.75783901412E+02  0.47000000000E+01 0.  1.
<mgrwt>
<rscale>  2 0.19923370E+03</rscale>
<asrwt>0</asrwt>
<pdfrwt beam="1">  1       21 0.31466740E-01 0.19967036E+03</pdfrwt>
<pdfrwt beam="2">  1       21 0.32790073E-01 0.19967036E+03</pdfrwt>
<totfact> 0.86646520E+04</totfact>
</mgrwt>
</event>
<event>
12    1  0.1441827E-001  0.1766470E+03  0.7546771E-02  0.1171352E+00
         21   -1    0    0  504  503  0.00000000000E+00  0.00000000000E+00  0.64836122104E+03  0.64836122104E+03  0.00000000000E+00 0. -1.
         21   -1    0    0  502  504 -0.00000000000E+00 -0.00000000000E+00 -0.57279249949E+02  0.57279249949E+02  0.00000000000E+00 0. -1.
          6    2    1    2  502    0  0.15521097686E+02 -0.31732709819E+02  0.15305206167E+03  0.23372871411E+03  0.17307890938E+03 0.  0.
         24    2    3    3    0    0 -0.56735367361E+02 -0.35545958385E+02  0.89357225714E+02  0.13721622925E+03  0.79756897611E+02 0.  0.
         -6    2    1    2    0  503 -0.15521097686E+02  0.31732709819E+02  0.43802990941E+03  0.47191175687E+03  0.17199603306E+03 0.  0.
        -24    2    5    5    0    0  0.17698653570E+02  0.52121437245E+02  0.41909295612E+03  0.42832333777E+03  0.69224917865E+02 0.  0.
          2    1    4    4  501    0 -0.21086221739E+01  0.18446936132E+01 -0.14109532135E+02  0.14384994928E+02  0.00000000000E+00 0. -1.
         -1    1    4    4    0  501 -0.54626745187E+02 -0.37390651999E+02  0.10346675785E+03  0.12283123433E+03  0.00000000000E+00 0.  1.
          5    1    3    3  502    0  0.72256465047E+02  0.38132485661E+01  0.63694835961E+02  0.96512484860E+02  0.47000000000E+01 0. -1.
         11    1    6    6    0    0 -0.68040411472E+01 -0.86794607277E+01  0.18203750403E+03  0.18237127211E+03  0.00000000000E+00 0. -1.
        -12    1    6    6    0    0  0.24502694717E+02  0.60800897973E+02  0.23705545208E+03  0.24595206567E+03  0.00000000000E+00 0.  1.
         -5    1    5    5    0  503 -0.33219751256E+02 -0.20388727425E+02  0.18936953296E+02  0.43588419100E+02  0.47000000000E+01 0.  1.
<mgrwt>
<rscale>  2 0.17638123E+03</rscale>
<asrwt>0</asrwt>
<pdfrwt beam="1">  1       21 0.99747875E-01 0.17664704E+03</pdfrwt>
<pdfrwt beam="2">  1       21 0.88121928E-02 0.17664704E+03</pdfrwt>
<totfact> 0.84298379E+04</totfact>
</mgrwt>
</event>
<event>
12    1  0.1441827E-001  0.2303005E+03  0.7546771E-02  0.1126443E+00
         21   -1    0    0  504  503  0.00000000000E+00  0.00000000000E+00  0.28618088131E+03  0.28618088131E+03  0.00000000000E+00 0.  1.
         21   -1    0    0  502  504 -0.00000000000E+00 -0.00000000000E+00 -0.61611234592E+03  0.61611234592E+03  0.00000000000E+00 0.  1.
          6    2    1    2  502    0 -0.94582011595E+01  0.15087454799E+03 -0.54224284492E+03  0.58912274930E+03  0.17374039276E+03 0.  0.
         24    2    3    3    0    0 -0.70097112820E+02  0.91868626723E+02 -0.39670049266E+03  0.42070825274E+03  0.79187772035E+02 0.  0.
         -6    2    1    2    0  503  0.94582011595E+01 -0.15087454799E+03  0.21231138031E+03  0.31317047793E+03  0.17362902764E+03 0.  0.
        -24    2    5    5    0    0  0.10339177991E+02 -0.65364528167E+01  0.10082538496E+03  0.13072739366E+03  0.82305949871E+02 0.  0.
          2    1    4    4  501    0 -0.20176689074E+01  0.66907170530E+02 -0.21052177638E+03  0.22090735340E+03  0.00000000000E+00 0. -1.
         -1    1    4    4    0  501 -0.68079443913E+02  0.24961456193E+02 -0.18617871628E+03  0.19980089934E+03  0.00000000000E+00 0.  1.
          5    1    3    3  502    0  0.60638911661E+02  0.59005921268E+02 -0.14554235226E+03  0.16841449656E+03  0.47000000000E+01 0. -1.
         11    1    6    6    0    0  0.16276890252E+02  0.27745982948E+02  0.10348901576E+02  0.33791663023E+02  0.00000000000E+00 0. -1.
        -12    1    6    6    0    0 -0.59377122607E+01 -0.34282435764E+02  0.90476483387E+02  0.96935730641E+02  0.00000000000E+00 0.  1.
         -5    1    5    5    0  503 -0.88097683150E+00 -0.14433809517E+03  0.11148599535E+03  0.18244308427E+03  0.47000000000E+01 0.  1.
<mgrwt>
<rscale>  2 0.23027948E+03</rscale>
<asrwt>0</asrwt>
<pdfrwt beam="1">  1       21 0.44027828E-01 0.23030048E+03</pdfrwt>
<pdfrwt beam="2">  1       21 0.94786515E-01 0.23030048E+03</pdfrwt>
<totfact> 0.44852083E+03</totfact>
</mgrwt>
</event>
<event>
12    1  0.1441827E-001  0.2177145E+03  0.7546771E-02  0.1136032E+00
         21   -1    0    0  504  503  0.00000000000E+00  0.00000000000E+00  0.21825874294E+04  0.21825874294E+04  0.00000000000E+00 0.  1.
         21   -1    0    0  502  504 -0.00000000000E+00 -0.00000000000E+00 -0.24666092581E+02  0.24666092581E+02  0.00000000000E+00 0.  1.
          6    2    1    2  502    0  0.19917369884E+01 -0.13380400402E+03  0.67800468396E+03  0.71140830853E+03  0.16883113296E+03 0.  0.
         24    2    3    3    0    0  0.22920833890E+02 -0.71828366523E+02  0.19571312119E+03  0.22467814893E+03  0.80572736931E+02 0.  0.
         -6    2    1    2    0  503 -0.19917369884E+01  0.13380400402E+03  0.14799166528E+04  0.14958452134E+04  0.17173271298E+03 0.  0.
        -24    2    5    5    0    0 -0.38743800587E+02  0.60024894422E+02  0.11682825187E+04  0.11734603584E+04  0.83791999762E+02 0.  0.
          4    1    4    4  501    0  0.14760108941E+02  0.16093014481E+02  0.44583268036E+02  0.49643868904E+02  0.00000000000E+00 0. -1.
         -3    1    4    4    0  501  0.81607249491E+01 -0.87921381003E+02  0.15112985316E+03  0.17503428003E+03  0.00000000000E+00 0.  1.
          5    1    3    3  502    0 -0.20929096902E+02 -0.61975637494E+02  0.48229156277E+03  0.48673015960E+03  0.47000000000E+01 0. -1.
         11    1    6    6    0    0 -0.32880082457E+02 -0.13966160704E+02  0.41057208045E+03  0.41212326640E+03  0.00000000000E+00 0. -1.
        -12    1    6    6    0    0 -0.58637181297E+01  0.73991055126E+02  0.75771043826E+03  0.76133709202E+03  0.00000000000E+00 0.  1.
         -5    1    5    5    0  503  0.36752063598E+02  0.73779109594E+02  0.31163413413E+03  0.32238485502E+03  0.47000000000E+01 0.  1.
<mgrwt>
<rscale>  2 0.21714190E+03</rscale>
<asrwt>0</asrwt>
<pdfrwt beam="1">  1       21 0.33578253E+00 0.21771450E+03</pdfrwt>
<pdfrwt beam="2">  1       21 0.37947852E-02 0.21771450E+03</pdfrwt>
<totfact> 0.88193737E+03</totfact>
</mgrwt>
</event>
<event>
12    1  0.1441827E-001  0.1923459E+03  0.7546771E-02  0.1156462E+00
         21   -1    0    0  504  503  0.00000000000E+00  0.00000000000E+00  0.60273990992E+03  0.60273990992E+03  0.00000000000E+00 0. -1.
         21   -1    0    0  502  504 -0.00000000000E+00 -0.00000000000E+00 -0.22498677470E+03  0.22498677470E+03  0.00000000000E+00 0.  1.
          6    2    1    2  502    0  0.72020983750E+02  0.41847285810E+02 -0.16425944260E+03  0.25259662301E+03  0.17287472934E+03 0.  0.
         24    2    3    3    0    0  0.25603386860E+02 -0.28288134116E+01 -0.16831681545E+03  0.18787337049E+03  0.79387136050E+02 0.  0.
         -6    2    1    2    0  503 -0.72020983750E+02 -0.41847285810E+02  0.54201257783E+03  0.57513006161E+03  0.17337455352E+03 0.  0.
        -24    2    5    5    0    0 -0.77917580261E+02  0.29214436655E+02  0.39788159930E+03  0.41425629985E+03  0.79836597380E+02 0.  0.
          4    1    4    4  501    0  0.28973387344E+02  0.24992750514E+02 -0.14900365763E+03  0.15383817712E+03  0.00000000000E+00 0. -1.
         -3    1    4    4    0  501 -0.33700004833E+01 -0.27821563925E+02 -0.19313157823E+02  0.34035193368E+02  0.00000000000E+00 0.  1.
          5    1    3    3  502    0  0.46417596890E+02  0.44676099222E+02  0.40573728523E+01  0.64723252523E+02  0.47000000000E+01 0. -1.
         11    1    6    6    0    0 -0.35771202843E+02  0.13254188145E+02  0.47189647975E+02  0.60680436157E+02  0.00000000000E+00 0. -1.
        -12    1    6    6    0    0 -0.42146377417E+02  0.15960248510E+02  0.35069195132E+03  0.35357586369E+03  0.00000000000E+00 0.  1.
         -5    1    5    5    0  503  0.58965965101E+01 -0.71061722465E+02  0.14413097853E+03  0.16087376176E+03  0.47000000000E+01 0.  1.
<mgrwt>
<rscale>  2 0.19223322E+03</rscale>
<asrwt>0</asrwt>
<pdfrwt beam="1">  1       21 0.92729217E-01 0.19234592E+03</pdfrwt>
<pdfrwt beam="2">  1       21 0.34613350E-01 0.19234592E+03</pdfrwt>
<totfact> 0.78875212E+03</totfact>
</mgrwt>
</event>
<event>
12    1  0.1441827E-001  0.1780893E+03  0.7546771E-02  0.1169707E+00
         21   -1    0    0  504  503  0.00000000000E+00  0.00000000000E+00  0.49214366431E+03  0.49214366431E+03  0.00000000000E+00 0.  1.
         21   -1    0    0  502  504 -0.00000000000E+00 -0.00000000000E+00 -0.15915468464E+03  0.15915468464E+03  0.00000000000E+00 0.  1.
          6    2    1    2  502    0 -0.43302590594E+02 -0.57002124128E+01 -0.84830804559E+02  0.19710766239E+03  0.17247480510E+03 0.  0.
         24    2    3    3    0    0 -0.62135730291E+01 -0.27026398978E+02 -0.11641578835E+03  0.14372130965E+03  0.79587337819E+02 0.  0.
         -6    2    1    2    0  503  0.43302590594E+02  0.57002124128E+01  0.41781978423E+03  0.45419068656E+03  0.17265051663E+03 0.  0.
        -24    2    5    5    0    0  0.70416913014E+02  0.24465276442E+02  0.15338701351E+03  0.18766846547E+03  0.78324872339E+02 0.  0.
          2    1    4    4  501    0  0.26420889139E+02 -0.27951365350E+02 -0.23115508513E+02  0.44873922735E+02  0.00000000000E+00 0. -1.
         -1    1    4    4    0  501 -0.32634462168E+02  0.92496637238E+00 -0.93300279833E+02  0.98847386919E+02  0.00000000000E+00 0.  1.
          5    1    3    3  502    0 -0.37089017565E+02  0.21326186565E+02  0.31584983786E+02  0.53386352733E+02  0.47000000000E+01 0. -1.
         13    1    6    6    0    0 -0.12886378062E+02 -0.11378541345E+02  0.20002442650E+02  0.26374754115E+02  0.00000000000E+00 0. -1.
        -14    1    6    6    0    0  0.83303291076E+02  0.35843817786E+02  0.13338457086E+03  0.16129371135E+03  0.00000000000E+00 0.  1.
         -5    1    5    5    0  503 -0.27114322420E+02 -0.18765064029E+02  0.26443277072E+03  0.26652222109E+03  0.47000000000E+01 0.  1.
<mgrwt>
<rscale>  2 0.17804672E+03</rscale>
<asrwt>0</asrwt>
<pdfrwt beam="1">  1       21 0.75714409E-01 0.17808932E+03</pdfrwt>
<pdfrwt beam="2">  1       21 0.24485336E-01 0.17808932E+03</pdfrwt>
<totfact> 0.24738542E+04</totfact>
</mgrwt>
</event>
<event>
12    1  0.1441827E-001  0.1964456E+03  0.7546771E-02  0.1154235E+00
         21   -1    0    0  504  503  0.00000000000E+00  0.00000000000E+00  0.50494101437E+02  0.50494101437E+02  0.00000000000E+00 0. -1.
         21   -1    0    0  502  504 -0.00000000000E+00 -0.00000000000E+00 -0.10026948259E+04  0.10026948259E+04  0.00000000000E+00 0. -1.
          6    2    1    2  502    0 -0.73506188009E+02 -0.17370588511E+02 -0.74027886430E+03  0.76422226067E+03  0.17412056097E+03 0.  0.
         24    2    3    3    0    0  0.44577157722E+01  0.43712750374E+01 -0.18944376799E+03  0.20745258455E+03  0.84312836088E+02 0.  0.
         -6    2    1    2    0  503  0.73506188009E+02  0.17370588511E+02 -0.21192186019E+03  0.28896666670E+03  0.18134487204E+03 0.  0.
        -24    2    5    5    0    0  0.74865033053E+02  0.34690818089E+02 -0.23368547981E+03  0.26072517326E+03  0.80996829959E+02 0.  0.
          2    1    4    4  501    0  0.22851899068E+02  0.37348811201E+02 -0.12853979376E+03  0.13579256817E+03  0.00000000000E+00 0. -1.
         -1    1    4    4    0  501 -0.18394183296E+02 -0.32977536164E+02 -0.60903974228E+02  0.71660016379E+02  0.00000000000E+00 0.  1.
          5    1    3    3  502    0 -0.77963903781E+02 -0.21741863549E+02 -0.55083509631E+03  0.55676967612E+03  0.47000000000E+01 0. -1.
         11    1    6    6    0    0 -0.61122866964E+01 -0.17913297741E+02 -0.33859056944E+02  0.38790231009E+02  0.00000000000E+00 0. -1.
        -12    1    6    6    0    0  0.80977319749E+02  0.52604115831E+02 -0.19982642287E+03  0.22193494225E+03  0.00000000000E+00 0.  1.
         -5    1    5    5    0  503 -0.13588450441E+01 -0.17320229578E+02  0.21763619620E+02  0.28241493435E+02  0.47000000000E+01 0.  1.
<mgrwt>
<rscale>  2 0.19476188E+03</rscale>
<asrwt>0</asrwt>
<pdfrwt beam="1">  1       21 0.77683231E-02 0.19644556E+03</pdfrwt>
<pdfrwt beam="2">  1       21 0.15426075E+00 0.19644556E+03</pdfrwt>
<totfact> 0.34975107E+04</totfact>
</mgrwt>
</event>
<event>
12    1  0.1441827E-001  0.2349076E+03  0.7546771E-02  0.1123666E+00
         21   -1    0    0  504  503  0.00000000000E+00  0.00000000000E+00  0.79448871655E+03  0.79448871655E+03  0.00000000000E+00 0.  1.
         21   -1    0    0  502  504 -0.00000000000E+00 -0.00000000000E+00 -0.29537224032E+03  0.29537224032E+03  0.00000000000E+00 0.  1.
          6    2    1    2  502    0 -0.15328383556E+03 -0.29029777337E+02 -0.22748345667E+03  0.32700202273E+03  0.17562157497E+03 0.  0.
         24    2    3    3    0    0 -0.12069406565E+03 -0.61184851814E+02 -0.23266883809E+03  0.28068766105E+03  0.79624941264E+02 0.  0.
         -6    2    1    2    0  503  0.15328383556E+03  0.29029777337E+02  0.72659993290E+03  0.76285893414E+03  0.17224293511E+03 0.  0.
        -24    2    5    5    0    0  0.15784803270E+03  0.41919973743E+02  0.44577920363E+03  0.48166618700E+03  0.81301486347E+02 0.  0.
          2    1    4    4  501    0 -0.86549678722E+02 -0.57452403758E+02 -0.10202741896E+03  0.14560638655E+03  0.00000000000E+00 0. -1.
         -1    1    4    4    0  501 -0.34144386924E+02 -0.37324480568E+01 -0.13064141913E+03  0.13508127450E+03  0.00000000000E+00 0.  1.
          5    1    3    3  502    0 -0.32589769914E+02  0.32155074477E+02  0.51853814238E+01  0.46314361684E+02  0.47000000000E+01 0. -1.
         13    1    6    6    0    0  0.41544278438E+02 -0.51751037492E+01  0.43936852995E+02  0.60689009061E+02  0.00000000000E+00 0. -1.
        -14    1    6    6    0    0  0.11630375426E+03  0.47095077492E+02  0.40184235064E+03  0.42097717794E+03  0.00000000000E+00 0.  1.
         -5    1    5    5    0  503 -0.45641971391E+01 -0.12890196406E+02  0.28082072927E+03  0.28119274715E+03  0.47000000000E+01 0.  1.
<mgrwt>
<rscale>  2 0.23427632E+03</rscale>
<asrwt>0</asrwt>
<pdfrwt beam="1">  1       21 0.12222903E+00 0.23490764E+03</pdfrwt>
<pdfrwt beam="2">  1       21 0.45441883E-01 0.23490764E+03</pdfrwt>
<totfact> 0.22606980E+03</totfact>
</mgrwt>
</event>
<event>
12    1  0.1441827E-001  0.1983560E+03  0.7546771E-02  0.1151216E+00
         21   -1    0    0  504  503  0.00000000000E+00  0.00000000000E+00  0.72274766052E+03  0.72274766052E+03  0.00000000000E+00 0. -1.
         21   -1    0    0  502  504 -0.00000000000E+00 -0.00000000000E+00 -0.67078862421E+02  0.67078862421E+02  0.00000000000E+00 0. -1.
          6    2    1    2  502    0  0.49157957386E+00 -0.95542528420E+02  0.15542815366E+03  0.25169476639E+03  0.17338895030E+03 0.  0.
         24    2    3    3    0    0  0.44559812339E+01 -0.86216344460E+01  0.14190944714E+03  0.16351424861E+03  0.80650046248E+02 0.  0.
         -6    2    1    2    0  503 -0.49157957386E+00  0.95542528420E+02  0.50024064444E+03  0.53813175656E+03  0.17382884882E+03 0.  0.
        -24    2    5    5    0    0  0.13079609514E+02 -0.12443688155E+02  0.28856972915E+03  0.30007322064E+03  0.80284043278E+02 0.  0.
          4    1    4    4  501    0  0.23555834515E+02 -0.35907619123E+02  0.50868348358E+02  0.66571940902E+02  0.00000000000E+00 0. -1.
         -3    1    4    4    0  501 -0.19099853282E+02  0.27285984677E+02  0.91041098784E+02  0.96942307704E+02  0.00000000000E+00 0.  1.
          5    1    3    3  502    0 -0.39644016600E+01 -0.86920893974E+02  0.13518706521E+02  0.88180517779E+02  0.47000000000E+01 0. -1.
         13    1    6    6    0    0  0.46796756195E+02 -0.32773313742E+01  0.18043182632E+03  0.18643047294E+03  0.00000000000E+00 0. -1.
        -14    1    6    6    0    0 -0.33717146681E+02 -0.91663567804E+01  0.10813790283E+03  0.11364274770E+03  0.00000000000E+00 0.  1.
         -5    1    5    5    0  503 -0.13571189088E+02  0.10798621657E+03  0.21167091529E+03  0.23805853592E+03  0.47000000000E+01 0.  1.
<mgrwt>
<rscale>  2 0.19825954E+03</rscale>
<asrwt>0</asrwt>
<pdfrwt beam="1">  1       21 0.11119194E+00 0.19835596E+03</pdfrwt>
<pdfrwt beam="2">  1       21 0.10319826E-01 0.19835596E+03</pdfrwt>
<totfact> 0.48688326E+04</totfact>
</mgrwt>
</event>
<event>
12    1  0.1441827E-001  0.3385963E+03  0.7546771E-02  0.1067620E+00
         21   -1    0    0  504  503  0.00000000000E+00  0.00000000000E+00  0.63640646940E+03  0.63640646940E+03  0.00000000000E+00 0. -1.
         21   -1    0    0  502  504 -0.00000000000E+00 -0.00000000000E+00 -0.19315399521E+03  0.19315399521E+03  0.00000000000E+00 0.  1.
          6    2    1    2  502    0  0.28472510986E+03  0.45398038499E+02  0.11013122410E+03  0.35605662666E+03  0.17753327796E+03 0.  0.
         24    2    3    3    0    0  0.24922249262E+03  0.54075953545E+02  0.29523108980E+02  0.26742536658E+03  0.74890941693E+02 0.  0.
         -6    2    1    2    0  503 -0.28472510986E+03 -0.45398038499E+02  0.33312125010E+03  0.47350383795E+03  0.17351295977E+03 0.  0.
        -24    2    5    5    0    0 -0.21941835986E+03  0.19900455225E+02  0.28679979822E+03  0.37007931581E+03  0.78511979770E+02 0.  0.
          4    1    4    4  501    0  0.16491632048E+03  0.39903013429E+01  0.37054020237E+02  0.16907488188E+03  0.00000000000E+00 0. -1.
         -3    1    4    4    0  501  0.84306172139E+02  0.50085652202E+02 -0.75309112575E+01  0.98350484705E+02  0.00000000000E+00 0.  1.
          5    1    3    3  502    0  0.35502617238E+02 -0.86779150464E+01  0.80608115117E+02  0.88631260078E+02  0.47000000000E+01 0. -1.
         11    1    6    6    0    0 -0.58262883853E+02  0.36017872914E+02  0.11589666963E+03  0.13462499335E+03  0.00000000000E+00 0. -1.
        -12    1    6    6    0    0 -0.16115547601E+03 -0.16117417689E+02  0.17090312859E+03  0.23545432245E+03  0.00000000000E+00 0.  1.
         -5    1    5    5    0  503 -0.65306749994E+02 -0.65298493724E+02  0.46321451880E+02  0.10342452215E+03  0.47000000000E+01 0.  1.
<mgrwt>
<rscale>  2 0.33807243E+03</rscale>
<asrwt>0</asrwt>
<pdfrwt beam="1">  1       21 0.97908687E-01 0.33859627E+03</pdfrwt>
<pdfrwt beam="2">  1       21 0.29715999E-01 0.33859627E+03</pdfrwt>
<totfact> 0.86464013E+03</totfact>
</mgrwt>
</event>
<event>
12    1  0.1441827E-001  0.1966310E+03  0.7546771E-02  0.1152940E+00
         21   -1    0    0  504  503  0.00000000000E+00  0.00000000000E+00  0.14728226999E+03  0.14728226999E+03  0.00000000000E+00 0. -1.
         21   -1    0    0  502  504 -0.00000000000E+00 -0.00000000000E+00 -0.83240751023E+03  0.83240751023E+03  0.00000000000E+00 0. -1.
          6    2    1    2  502    0  0.70296887178E+02 -0.59153680725E+02 -0.74817366845E+03  0.77319797929E+03  0.17213502473E+03 0.  0.
         24    2    3    3    0    0  0.66763150015E+02 -0.91416383977E+02 -0.70717473467E+03  0.72069681844E+03  0.80582413131E+02 0.  0.
         -6    2    1    2    0  503 -0.70296887178E+02  0.59153680725E+02  0.63048428211E+02  0.20649180092E+03  0.17384748850E+03 0.  0.
        -24    2    5    5    0    0 -0.47952398484E+02  0.60746323601E+02  0.10853803165E+03  0.15556826307E+03  0.80196208202E+02 0.  0.
          2    1    4    4  501    0  0.83245961704E+02 -0.66551256161E+02 -0.48811227059E+03  0.49961239831E+03  0.00000000000E+00 0. -1.
         -1    1    4    4    0  501 -0.16482811689E+02 -0.24865127816E+02 -0.21906246407E+03  0.22108442014E+03  0.00000000000E+00 0.  1.
          5    1    3    3  502    0  0.35337371629E+01  0.32262703252E+02 -0.40998933781E+02  0.52501160851E+02  0.47000000000E+01 0. -1.
         13    1    6    6    0    0 -0.61952941715E+02  0.27294745416E+02  0.95438703866E+02  0.11701160759E+03  0.00000000000E+00 0. -1.
        -14    1    6    6    0    0  0.14000543231E+02  0.33451578185E+02  0.13099327781E+02  0.38556655485E+02  0.00000000000E+00 0.  1.
         -5    1    5    5    0  503 -0.22344488694E+02 -0.15926428766E+01 -0.45489603435E+02  0.50923537849E+02  0.47000000000E+01 0.  1.
<mgrwt>
<rscale>  2 0.19625183E+03</rscale>
<asrwt>0</asrwt>
<pdfrwt beam="1">  1       21 0.22658811E-01 0.19663102E+03</pdfrwt>
<pdfrwt beam="2">  1       21 0.12806269E+00 0.19663102E+03</pdfrwt>
<totfact> 0.81715057E+03</totfact>
</mgrwt>
</event>
<event>
12    1  0.1441827E-001  0.2071804E+03  0.7546771E-02  0.1143877E+00
         21   -1    0    0  504  503  0.00000000000E+00  0.00000000000E+00  0.48486280023E+03  0.48486280023E+03  0.00000000000E+00 0.  1.
         21   -1    0    0  502  504 -0.00000000000E+00 -0.00000000000E+00 -0.95908759782E+02  0.95908759782E+02  0.00000000000E+00 0. -1.
          6    2    1    2  502    0 -0.11302103233E+03 -0.87052400534E+01  0.11312550963E+03  0.23580041374E+03  0.17307489488E+03 0.  0.
         24    2    3    3    0    0 -0.17871255709E+02  0.47545696696E+02  0.36784020365E+02  0.10138404249E+03  0.79659807077E+02 0.  0.
         -6    2    1    2    0  503  0.11302103233E+03  0.87052400534E+01  0.27582853082E+03  0.34497114627E+03  0.17341908311E+03 0.  0.
        -24    2    5    5    0    0  0.38271717701E+02  0.18504230378E+02  0.42463783181E+02  0.99686259471E+02  0.79542733971E+02 0.  0.
          4    1    4    4  501    0 -0.10852485447E+02  0.42247657598E+01  0.53251705244E+02  0.54510266900E+02  0.00000000000E+00 0. -1.
         -3    1    4    4    0  501 -0.70187702619E+01  0.43320930936E+02 -0.16467684880E+02  0.46873775595E+02  0.00000000000E+00 0.  1.
          5    1    3    3  502    0 -0.95149776625E+02 -0.56250936750E+02  0.76341489261E+02  0.13441637125E+03  0.47000000000E+01 0. -1.
         13    1    6    6    0    0  0.37925434691E+02 -0.24445732062E+02  0.32463557415E+02  0.55586104132E+02  0.00000000000E+00 0. -1.
        -14    1    6    6    0    0  0.34628300988E+00  0.42949962440E+02  0.10000225766E+02  0.44100155339E+02  0.00000000000E+00 0.  1.
         -5    1    5    5    0  503  0.74749314633E+02 -0.97989903249E+01  0.23336474764E+03  0.24528488680E+03  0.47000000000E+01 0.  1.
<mgrwt>
<rscale>  2 0.20710835E+03</rscale>
<asrwt>0</asrwt>
<pdfrwt beam="1">  1       21 0.74594275E-01 0.20718039E+03</pdfrwt>
<pdfrwt beam="2">  1       21 0.14755194E-01 0.20718039E+03</pdfrwt>
<totfact> 0.64610959E+04</totfact>
</mgrwt>
</event>
<event>
12    1  0.1441827E-001  0.2322664E+03  0.7546771E-02  0.1125290E+00
         21   -1    0    0  504  503  0.00000000000E+00  0.00000000000E+00  0.15364013956E+03  0.15364013956E+03  0.00000000000E+00 0.  1.
         21   -1    0    0  502  504 -0.00000000000E+00 -0.00000000000E+00 -0.71453741388E+03  0.71453741388E+03  0.00000000000E+00 0. -1.
          6    2    1    2  502    0 -0.55514253758E+02  0.14284377630E+03 -0.59128765873E+03  0.63527063222E+03  0.17453224346E+03 0.  0.
         24    2    3    3    0    0 -0.89817941537E+02  0.70039979068E+02 -0.48273117251E+03  0.50005326431E+03  0.63647631079E+02 0.  0.
         -6    2    1    2    0  503  0.55514253758E+02 -0.14284377630E+03  0.30390384409E+02  0.23290692122E+03  0.17273066227E+03 0.  0.
        -24    2    5    5    0    0 -0.15884788620E+02 -0.23618234892E+02  0.40682169002E+02  0.93477498903E+02  0.79201366134E+02 0.  0.
          4    1    4    4  501    0 -0.38714800407E+02  0.63861398502E+02 -0.34565983745E+03  0.35363517531E+03  0.00000000000E+00 0. -1.
         -3    1    4    4    0  501 -0.51103141130E+02  0.61785805655E+01 -0.13707133506E+03  0.14641808900E+03  0.00000000000E+00 0.  1.
          5    1    3    3  502    0  0.34303687779E+02  0.72803797233E+02 -0.10855648621E+03  0.13521736791E+03  0.47000000000E+01 0. -1.
         11    1    6    6    0    0  0.10185735648E+02 -0.30659785700E+02 -0.11848862671E+02  0.34411730797E+02  0.00000000000E+00 0. -1.
        -12    1    6    6    0    0 -0.26070524268E+02  0.70415508072E+01  0.52531031673E+02  0.59065768106E+02  0.00000000000E+00 0.  1.
         -5    1    5    5    0  503  0.71399042378E+02 -0.11922554141E+03 -0.10291784593E+02  0.13942942231E+03  0.47000000000E+01 0.  1.
<mgrwt>
<rscale>  2 0.23192799E+03</rscale>
<asrwt>0</asrwt>
<pdfrwt beam="1">  1       21 0.23636945E-01 0.23226640E+03</pdfrwt>
<pdfrwt beam="2">  1       21 0.10992883E+00 0.23226640E+03</pdfrwt>
<totfact> 0.10737486E+04</totfact>
</mgrwt>
</event>
<event>
12    1  0.1441827E-001  0.1873086E+03  0.7546771E-02  0.1161328E+00
         21   -1    0    0  504  503  0.00000000000E+00  0.00000000000E+00  0.52947400481E+02  0.52947400481E+02  0.00000000000E+00 0.  1.
         21   -1    0    0  502  504 -0.00000000000E+00 -0.00000000000E+00 -0.16819295358E+04  0.16819295358E+04  0.00000000000E+00 0.  1.
          6    2    1    2  502    0 -0.54624422761E+02  0.39078336220E+02 -0.14934142850E+04  0.15051148581E+04  0.17485298213E+03 0.  0.
         24    2    3    3    0    0  0.30068142094E+00 -0.17774960556E+02 -0.11303342248E+04  0.11334990826E+04  0.82756697298E+02 0.  0.
         -6    2    1    2    0  503  0.54624422761E+02 -0.39078336220E+02 -0.13556785031E+03  0.22976207822E+03  0.17291913320E+03 0.  0.
        -24    2    5    5    0    0  0.46320473705E+02 -0.25919129569E+02 -0.41232329919E+01  0.97316248874E+02  0.81462038292E+02 0.  0.
          2    1    4    4  501    0  0.29850233507E+02 -0.38304172564E+02 -0.67656628904E+03  0.67830685500E+03  0.00000000000E+00 0. -1.
         -1    1    4    4    0  501 -0.29549552086E+02  0.20529212008E+02 -0.45376793576E+03  0.45519222763E+03  0.00000000000E+00 0.  1.
          5    1    3    3  502    0 -0.54925104182E+02  0.56853296776E+02 -0.36308006024E+03  0.37161577545E+03  0.47000000000E+01 0. -1.
         13    1    6    6    0    0  0.17900590723E+02 -0.14692647360E+02 -0.42415783133E+02  0.48326014666E+02  0.00000000000E+00 0. -1.
        -14    1    6    6    0    0  0.28419882982E+02 -0.11226482209E+02  0.38292550141E+02  0.48990234208E+02  0.00000000000E+00 0.  1.
         -5    1    5    5    0  503  0.83039490557E+01 -0.13159206651E+02 -0.13144461732E+03  0.13244582935E+03  0.47000000000E+01 0.  1.
<mgrwt>
<rscale>  2 0.18685597E+03</rscale>
<asrwt>0</asrwt>
<pdfrwt beam="1">  1       21 0.81457563E-02 0.18730859E+03</pdfrwt>
<pdfrwt beam="2">  1       21 0.25875831E+00 0.18730859E+03</pdfrwt>
<totfact> 0.69089224E+03</totfact>
</mgrwt>
</event>
<event>
12    1  0.1441827E-001  0.1940472E+03  0.7546771E-02  0.1155030E+00
         21   -1    0    0  504  503  0.00000000000E+00  0.00000000000E+00  0.42720778669E+03  0.42720778669E+03  0.00000000000E+00 0. -1.
         21   -1    0    0  502  504 -0.00000000000E+00 -0.00000000000E+00 -0.38073136036E+03  0.38073136036E+03  0.00000000000E+00 0. -1.
          6    2    1    2  502    0  0.82307177096E+02 -0.32397338571E+02 -0.33111857599E+03  0.38340137580E+03  0.17185181015E+03 0.  0.
         24    2    3    3    0    0  0.15929760889E+02 -0.77360445512E+02 -0.20448194221E+03  0.23344615121E+03  0.80286020023E+02 0.  0.
         -6    2    1    2    0  503 -0.82307177096E+02  0.32397338571E+02  0.37759500233E+03  0.42453777124E+03  0.17271443044E+03 0.  0.
        -24    2    5    5    0    0 -0.50153150521E+02  0.86707084222E+02  0.21414270093E+03  0.24926034905E+03  0.78994735818E+02 0.  0.
          4    1    4    4  501    0  0.16462328621E+02 -0.93107369393E+02 -0.18912984490E+03  0.21144760280E+03  0.00000000000E+00 0. -1.
         -3    1    4    4    0  501 -0.53256773131E+00  0.15746923881E+02 -0.15352097314E+02  0.21998548407E+02  0.00000000000E+00 0.  1.
          5    1    3    3  502    0  0.66377416207E+02  0.44963106940E+02 -0.12663663378E+03  0.14995522460E+03  0.47000000000E+01 0. -1.
         13    1    6    6    0    0 -0.67970320875E+02  0.66824131641E+02  0.13149898824E+03  0.16241124652E+03  0.00000000000E+00 0. -1.
        -14    1    6    6    0    0  0.17817170354E+02  0.19882952581E+02  0.82643712695E+02  0.86849102533E+02  0.00000000000E+00 0.  1.
         -5    1    5    5    0  503 -0.32154026575E+02 -0.54309745651E+02  0.16345230140E+03  0.17527742219E+03  0.47000000000E+01 0.  1.
<mgrwt>
<rscale>  2 0.19385511E+03</rscale>
<asrwt>0</asrwt>
<pdfrwt beam="1">  1       21 0.65724275E-01 0.19404725E+03</pdfrwt>
<pdfrwt beam="2">  1       21 0.58574056E-01 0.19404725E+03</pdfrwt>
<totfact> 0.57985573E+03</totfact>
</mgrwt>
</event>
<event>
12    1  0.1441827E-001  0.2096948E+03  0.7546771E-02  0.1142341E+00
         21   -1    0    0  504  503  0.00000000000E+00  0.00000000000E+00  0.86297549260E+03  0.86297549260E+03  0.00000000000E+00 0.  1.
         21   -1    0    0  502  504 -0.00000000000E+00 -0.00000000000E+00 -0.70538090163E+02  0.70538090163E+02  0.00000000000E+00 0.  1.
          6    2    1    2  502    0 -0.98123100402E+02 -0.57852693850E+02  0.14443894585E+03  0.25243067898E+03  0.17286862524E+03 0.  0.
         24    2    3    3    0    0 -0.13338157690E+03 -0.61482748276E+02  0.98412004731E+02  0.19414769031E+03  0.80234840218E+02 0.  0.
         -6    2    1    2    0  503  0.98123100402E+02  0.57852693850E+02  0.64799845658E+03  0.68108290378E+03  0.17605920899E+03 0.  0.
        -24    2    5    5    0    0 -0.57342003960E+01 -0.58744318075E+01  0.34248453873E+03  0.35213255878E+03  0.81451149046E+02 0.  0.
          2    1    4    4  501    0 -0.84417323286E+02 -0.64474501623E+02  0.98832960670E+02  0.14509031651E+03  0.00000000000E+00 0. -1.
         -1    1    4    4    0  501 -0.48964253611E+02  0.29917533479E+01 -0.42095593837E+00  0.49057373795E+02  0.00000000000E+00 0.  1.
          5    1    3    3  502    0  0.35258476496E+02  0.36300544254E+01  0.46026941122E+02  0.58282988676E+02  0.47000000000E+01 0. -1.
         13    1    6    6    0    0 -0.13787538394E+02  0.21407982042E+02  0.34722467934E+02  0.43058654061E+02  0.00000000000E+00 0. -1.
        -14    1    6    6    0    0  0.80533379975E+01 -0.27282413849E+02  0.30776207079E+03  0.30907390472E+03  0.00000000000E+00 0.  1.
         -5    1    5    5    0  503  0.10385730080E+03  0.63727125658E+02  0.30551391786E+03  0.32895034501E+03  0.47000000000E+01 0.  1.
<mgrwt>
<rscale>  2 0.20902373E+03</rscale>
<asrwt>0</asrwt>
<pdfrwt beam="1">  1       21 0.13276545E+00 0.20969483E+03</pdfrwt>
<pdfrwt beam="2">  1       21 0.10852014E-01 0.20969483E+03</pdfrwt>
<totfact> 0.28477621E+04</totfact>
</mgrwt>
</event>
<event>
12    1  0.1441827E-001  0.2809375E+03  0.7546771E-02  0.1095304E+00
         21   -1    0    0  504  503  0.00000000000E+00  0.00000000000E+00  0.10438928019E+03  0.10438928019E+03  0.00000000000E+00 0. -1.
         21   -1    0    0  502  504 -0.00000000000E+00 -0.00000000000E+00 -0.80144057977E+03  0.80144057977E+03  0.00000000000E+00 0. -1.
          6    2    1    2  502    0 -0.11587184227E+03 -0.18859511408E+03 -0.45973119943E+03  0.53877512935E+03  0.17300711947E+03 0.  0.
         24    2    3    3    0    0 -0.12293998138E+03 -0.21059199341E+03 -0.41678684542E+03  0.48978401962E+03  0.81938297814E+02 0.  0.
         -6    2    1    2    0  503  0.11587184227E+03  0.18859511408E+03 -0.23732010015E+03  0.36705473061E+03  0.17150494000E+03 0.  0.
        -24    2    5    5    0    0  0.70231584717E+02  0.17685282117E+03 -0.11489841820E+03  0.23579135887E+03  0.78654450358E+02 0.  0.
          2    1    4    4  501    0 -0.82396316084E+02 -0.19718254628E+03 -0.36123839604E+03  0.41971810568E+03  0.00000000000E+00 0. -1.
         -1    1    4    4    0  501 -0.40543665294E+02 -0.13409447137E+02 -0.55548449381E+02  0.70065913943E+02  0.00000000000E+00 0.  1.
          5    1    3    3  502    0  0.70681391127E+01  0.21996879334E+02 -0.42944354013E+02  0.48991109730E+02  0.47000000000E+01 0. -1.
         13    1    6    6    0    0  0.50022490105E+02  0.11632696298E+03 -0.11635076649E+03  0.17196427739E+03  0.00000000000E+00 0. -1.
        -14    1    6    6    0    0  0.20209094611E+02  0.60525858189E+02  0.14523482894E+01  0.63827081479E+02  0.00000000000E+00 0.  1.
         -5    1    5    5    0  503  0.45640257549E+02  0.11742292906E+02 -0.12242168194E+03  0.13126337174E+03  0.47000000000E+01 0.  1.
<mgrwt>
<rscale>  2 0.28070655E+03</rscale>
<asrwt>0</asrwt>
<pdfrwt beam="1">  1       21 0.16059889E-01 0.28093747E+03</pdfrwt>
<pdfrwt beam="2">  1       21 0.12329855E+00 0.28093747E+03</pdfrwt>
<totfact> 0.16260169E+04</totfact>
</mgrwt>
</event>
<event>
12    1  0.1441827E-001  0.2179448E+03  0.7546771E-02  0.1136036E+00
         21   -1    0    0  504  503  0.00000000000E+00  0.00000000000E+00  0.10374242966E+04  0.10374242966E+04  0.00000000000E+00 0. -1.
         21   -1    0    0  502  504 -0.00000000000E+00 -0.00000000000E+00 -0.46050317783E+02  0.46050317783E+02  0.00000000000E+00 0. -1.
          6    2    1    2  502    0  0.12437805710E+03 -0.39287226763E+02  0.41480964375E+03  0.46709293501E+03  0.17057368529E+03 0.  0.
         24    2    3    3    0    0  0.52179300796E+02 -0.35913897055E+01  0.82353771896E+02  0.12498790739E+03  0.78129736564E+02 0.  0.
         -6    2    1    2    0  503 -0.12437805710E+03  0.39287226763E+02  0.57656433509E+03  0.61638167940E+03  0.17460399458E+03 0.  0.
        -24    2    5    5    0    0 -0.15465537211E+03  0.40124834951E+02  0.40783614463E+03  0.44489200143E+03  0.77912037382E+02 0.  0.
          4    1    4    4  501    0  0.69115589388E+02  0.99251368290E+01  0.74060876274E+02  0.10178647470E+03  0.00000000000E+00 0. -1.
         -3    1    4    4    0  501 -0.16936288592E+02 -0.13516526535E+02  0.82928956221E+01  0.23201432685E+02  0.00000000000E+00 0.  1.
          5    1    3    3  502    0  0.72198756305E+02 -0.35695837058E+02  0.33245587185E+03  0.34210502762E+03  0.47000000000E+01 0. -1.
         13    1    6    6    0    0 -0.61776074391E+02  0.23438324326E+00  0.24954997766E+03  0.25708272920E+03  0.00000000000E+00 0. -1.
        -14    1    6    6    0    0 -0.92879297723E+02  0.39890451707E+02  0.15828616697E+03  0.18780927224E+03  0.00000000000E+00 0.  1.
         -5    1    5    5    0  503  0.30277315014E+02 -0.83760818740E+00  0.16872819046E+03  0.17148967797E+03  0.47000000000E+01 0.  1.
<mgrwt>
<rscale>  2 0.21713651E+03</rscale>
<asrwt>0</asrwt>
<pdfrwt beam="1">  1       21 0.15960372E+00 0.21794481E+03</pdfrwt>
<pdfrwt beam="2">  1       21 0.70846650E-02 0.21794481E+03</pdfrwt>
<totfact> 0.36973929E+04</totfact>
</mgrwt>
</event>
<event>
12    1  0.1441827E-001  0.1964184E+03  0.7546771E-02  0.1152912E+00
         21   -1    0    0  504  503  0.00000000000E+00  0.00000000000E+00  0.30893313608E+03  0.30893313608E+03  0.00000000000E+00 0.  1.
         21   -1    0    0  502  504 -0.00000000000E+00 -0.00000000000E+00 -0.15544238148E+03  0.15544238148E+03  0.00000000000E+00 0.  1.
          6    2    1    2  502    0 -0.78572172126E+02 -0.48379431832E+02 -0.26693853350E+02  0.19822396141E+03  0.17339556341E+03 0.  0.
         24    2    3    3    0    0 -0.71593404531E+01  0.18952203450E+02 -0.55632713833E+02  0.95789156367E+02  0.75300208883E+02 0.  0.
         -6    2    1    2    0  503  0.78572172126E+02  0.48379431832E+02  0.18018460795E+03  0.26615155616E+03  0.17278889503E+03 0.  0.
        -24    2    5    5    0    0 -0.83048777885E+00  0.17550685438E+02  0.16320853073E+03  0.17917183897E+03  0.71810912176E+02 0.  0.
          4    1    4    4  501    0 -0.52415747258E+01  0.41649210847E+02 -0.76426429884E+01  0.42667796541E+02  0.00000000000E+00 0. -1.
         -3    1    4    4    0  501 -0.19177657273E+01 -0.22697007397E+02 -0.47990070844E+02  0.53121359826E+02  0.00000000000E+00 0.  1.
          5    1    3    3  502    0 -0.71412831673E+02 -0.67331635282E+02  0.28938860482E+02  0.10243480504E+03  0.47000000000E+01 0. -1.
         11    1    6    6    0    0 -0.46656452511E+01  0.30823374066E+02  0.16236471615E+03  0.16533042577E+03  0.00000000000E+00 0. -1.
        -12    1    6    6    0    0  0.38351574723E+01 -0.13272688628E+02  0.84381457511E+00  0.13841413197E+02  0.00000000000E+00 0.  1.
         -5    1    5    5    0  503  0.79402659904E+02  0.30828746394E+02  0.16976077223E+02  0.86979717187E+02  0.47000000000E+01 0.  1.
<mgrwt>
<rscale>  2 0.19628440E+03</rscale>
<asrwt>0</asrwt>
<pdfrwt beam="1">  1       21 0.47528175E-01 0.19641837E+03</pdfrwt>
<pdfrwt beam="2">  1       21 0.23914213E-01 0.19641837E+03</pdfrwt>
<totfact> 0.69669945E+04</totfact>
</mgrwt>
</event>
<event>
12    1  0.1441827E-001  0.2116381E+03  0.7546771E-02  0.1140988E+00
         21   -1    0    0  504  503  0.00000000000E+00  0.00000000000E+00  0.15266767936E+04  0.15266767936E+04  0.00000000000E+00 0.  1.
         21   -1    0    0  502  504 -0.00000000000E+00 -0.00000000000E+00 -0.46019805233E+02  0.46019805233E+02  0.00000000000E+00 0.  1.
          6    2    1    2  502    0  0.94458807743E+01  0.12001807843E+03  0.26388768266E+03  0.33827115481E+03  0.17406062537E+03 0.  0.
         24    2    3    3    0    0  0.44931390831E+02  0.11827070028E+03  0.26289593779E+03  0.30241940015E+03  0.79601702590E+02 0.  0.
         -6    2    1    2    0  503 -0.94458807743E+01 -0.12001807843E+03  0.12167693057E+04  0.12344254440E+04  0.16966163301E+03 0.  0.
        -24    2    5    5    0    0 -0.30913996070E+02 -0.30167954119E+02  0.89052512320E+03  0.89532179993E+03  0.81855664276E+02 0.  0.
          2    1    4    4  501    0  0.46861669586E+02  0.21339858702E+02  0.10866811174E+03  0.12025042268E+03  0.00000000000E+00 0. -1.
         -1    1    4    4    0  501 -0.19302787557E+01  0.96930841573E+02  0.15422782605E+03  0.18216897747E+03  0.00000000000E+00 0.  1.
          5    1    3    3  502    0 -0.35485510056E+02  0.17473781531E+01  0.99174486700E+00  0.35851754661E+02  0.47000000000E+01 0. -1.
         13    1    6    6    0    0 -0.23424070134E+02 -0.31122373567E+02  0.15707345012E+03  0.16183126376E+03  0.00000000000E+00 0. -1.
        -14    1    6    6    0    0 -0.74899259353E+01  0.95441944868E+00  0.73345167308E+03  0.73349053617E+03  0.00000000000E+00 0.  1.
         -5    1    5    5    0  503  0.21468115295E+02 -0.89850124310E+02  0.32624418249E+03  0.33910364407E+03  0.47000000000E+01 0.  1.
<mgrwt>
<rscale>  2 0.21073152E+03</rscale>
<asrwt>0</asrwt>
<pdfrwt beam="1">  1       21 0.23487331E+00 0.21163805E+03</pdfrwt>
<pdfrwt beam="2">  1       21 0.70799712E-02 0.21163805E+03</pdfrwt>
<totfact> 0.11926066E+04</totfact>
</mgrwt>
</event>
<event>
12    1  0.1441827E-001  0.2759889E+03  0.7546771E-02  0.1098062E+00
         21   -1    0    0  504  503  0.00000000000E+00  0.00000000000E+00  0.96199453359E+03  0.96199453359E+03  0.00000000000E+00 0. -1.
         21   -1    0    0  502  504 -0.00000000000E+00 -0.00000000000E+00 -0.79095283520E+02  0.79095283520E+02  0.00000000000E+00 0. -1.
          6    2    1    2  502    0  0.15290182890E+03  0.14969032394E+03  0.41135020840E+03  0.49471233310E+03  0.17246778311E+03 0.  0.
         24    2    3    3    0    0  0.16054564884E+02  0.84283403887E+02  0.13254392930E+03  0.17728475061E+03  0.80625978330E+02 0.  0.
         -6    2    1    2    0  503 -0.15290182890E+03 -0.14969032394E+03  0.47154904168E+03  0.54637748401E+03  0.17430919072E+03 0.  0.
        -24    2    5    5    0    0 -0.95255362198E+02 -0.66661510346E+02  0.39527438574E+03  0.41966200687E+03  0.79730916210E+02 0.  0.
          4    1    4    4  501    0  0.13470481812E+02  0.74242457961E+02  0.42409820141E+02  0.86556278159E+02  0.00000000000E+00 0. -1.
         -3    1    4    4    0  501  0.25840830719E+01  0.10040945926E+02  0.90134109156E+02  0.90728472453E+02  0.00000000000E+00 0.  1.
          5    1    3    3  502    0  0.13684726401E+03  0.65406920051E+02  0.27880627910E+03  0.31742758249E+03  0.47000000000E+01 0. -1.
         11    1    6    6    0    0 -0.70098104071E+01 -0.43361978383E+02  0.77963620682E+02  0.89485891408E+02  0.00000000000E+00 0. -1.
        -12    1    6    6    0    0 -0.88245551791E+02 -0.23299531963E+02  0.31731076505E+03  0.33017611546E+03  0.00000000000E+00 0.  1.
         -5    1    5    5    0  503 -0.57646466700E+02 -0.83028813593E+02  0.76274655943E+02  0.12671547715E+03  0.47000000000E+01 0.  1.
<mgrwt>
<rscale>  2 0.27569859E+03</rscale>
<asrwt>0</asrwt>
<pdfrwt beam="1">  1       21 0.14799915E+00 0.27598887E+03</pdfrwt>
<pdfrwt beam="2">  1       21 0.12168506E-01 0.27598887E+03</pdfrwt>
<totfact> 0.16866120E+04</totfact>
</mgrwt>
</event>
<event>
12    1  0.1441827E-001  0.1872665E+03  0.7546771E-02  0.1161171E+00
         21   -1    0    0  504  503  0.00000000000E+00  0.00000000000E+00  0.80995722873E+03  0.80995722873E+03  0.00000000000E+00 0. -1.
         21   -1    0    0  502  504 -0.00000000000E+00 -0.00000000000E+00 -0.74037231226E+02  0.74037231226E+02  0.00000000000E+00 0. -1.
          6    2    1    2  502    0  0.63855294343E+02  0.31577578563E+02  0.82681090735E+02  0.20470683262E+03  0.17318799749E+03 0.  0.
         24    2    3    3    0    0  0.92319388828E+02 -0.19844696359E+02  0.38496936457E+02  0.13102654678E+03  0.82275514685E+02 0.  0.
         -6    2    1    2    0  503 -0.63855294343E+02 -0.31577578563E+02  0.65323890676E+03  0.67928762733E+03  0.17215100710E+03 0.  0.
        -24    2    5    5    0    0 -0.52725124926E+02  0.36111926939E+02  0.51169798444E+03  0.52192920678E+03  0.80568353210E+02 0.  0.
          2    1    4    4  501    0  0.97597527348E+02 -0.23162230831E+02  0.54282760226E+02  0.11405430434E+03  0.00000000000E+00 0. -1.
         -1    1    4    4    0  501 -0.52781385197E+01  0.33175344722E+01 -0.15785823768E+02  0.16972242434E+02  0.00000000000E+00 0.  1.
          5    1    3    3  502    0 -0.28464094486E+02  0.51422274923E+02  0.44184154278E+02  0.73680285846E+02  0.47000000000E+01 0. -1.
         13    1    6    6    0    0 -0.60014331786E+02  0.24929387225E+02  0.49992385227E+03  0.50412999557E+03  0.00000000000E+00 0. -1.
        -14    1    6    6    0    0  0.72892068600E+01  0.11182539714E+02  0.11774132172E+02  0.17799211205E+02  0.00000000000E+00 0.  1.
         -5    1    5    5    0  503 -0.11130169417E+02 -0.67689505502E+02  0.14154092232E+03  0.15735842055E+03  0.47000000000E+01 0.  1.
<mgrwt>
<rscale>  2 0.18702634E+03</rscale>
<asrwt>0</asrwt>
<pdfrwt beam="1">  1       21 0.12460880E+00 0.18726645E+03</pdfrwt>
<pdfrwt beam="2">  1       21 0.11390344E-01 0.18726645E+03</pdfrwt>
<totfact> 0.31063351E+04</totfact>
</mgrwt>
</event>
<event>
12    1  0.1441827E-001  0.2334085E+03  0.7546771E-02  0.1125439E+00
         21   -1    0    0  504  503  0.00000000000E+00  0.00000000000E+00  0.21143409973E+03  0.21143409973E+03  0.00000000000E+00 0. -1.
         21   -1    0    0  502  504 -0.00000000000E+00 -0.00000000000E+00 -0.31543254631E+03  0.31543254631E+03  0.00000000000E+00 0.  1.
          6    2    1    2  502    0 -0.15061397660E+03  0.14319730311E+02 -0.17227610709E+03  0.29010097898E+03  0.17773546722E+03 0.  0.
         24    2    3    3    0    0 -0.46738009827E+02 -0.67194758049E+00 -0.15947434687E+03  0.18426647636E+03  0.79606368634E+02 0.  0.
         -6    2    1    2    0  503  0.15061397660E+03 -0.14319730311E+02  0.68277660514E+02  0.23676566707E+03  0.16883873238E+03 0.  0.
        -24    2    5    5    0    0  0.12338391992E+03  0.93080300269E+01  0.10831626900E+03  0.18268307084E+03  0.79564182422E+02 0.  0.
          2    1    4    4  501    0 -0.41090714287E+02 -0.37135350223E+02 -0.98078736306E+02  0.11263622664E+03  0.00000000000E+00 0. -1.
         -1    1    4    4    0  501 -0.56472955397E+01  0.36463402642E+02 -0.61395610561E+02  0.71630249722E+02  0.00000000000E+00 0.  1.
          5    1    3    3  502    0 -0.10387596677E+03  0.14991677892E+02 -0.12801760223E+02  0.10583450261E+03  0.47000000000E+01 0. -1.
         13    1    6    6    0    0  0.34141552151E+02 -0.30168310919E+02  0.15822770104E+02  0.48229997105E+02  0.00000000000E+00 0. -1.
        -14    1    6    6    0    0  0.89242367774E+02  0.39476340946E+02  0.92493498892E+02  0.13445307374E+03  0.00000000000E+00 0.  1.
         -5    1    5    5    0  503  0.27230056674E+02 -0.23627760338E+02 -0.40038608481E+02  0.54082596223E+02  0.47000000000E+01 0.  1.
<mgrwt>
<rscale>  2 0.23171481E+03</rscale>
<asrwt>0</asrwt>
<pdfrwt beam="1">  1       21 0.32528323E-01 0.23340849E+03</pdfrwt>
<pdfrwt beam="2">  1       21 0.48528084E-01 0.23340849E+03</pdfrwt>
<totfact> 0.36136993E+04</totfact>
</mgrwt>
</event>
<event>
12    1  0.1441827E-001  0.1872851E+03  0.7546771E-02  0.1161714E+00
         21   -1    0    0  504  503  0.00000000000E+00  0.00000000000E+00  0.29344962552E+03  0.29344962552E+03  0.00000000000E+00 0.  1.
         21   -1    0    0  502  504 -0.00000000000E+00 -0.00000000000E+00 -0.40541565338E+03  0.40541565338E+03  0.00000000000E+00 0.  1.
          6    2    1    2  502    0 -0.24666916665E+02 -0.68707826363E+02 -0.35036172701E+03  0.39570157762E+03  0.16881106775E+03 0.  0.
         24    2    3    3    0    0 -0.79738236132E+02 -0.55307321524E+02 -0.23067495882E+03  0.26318955463E+03  0.81490606337E+02 0.  0.
         -6    2    1    2    0  503  0.24666916665E+02  0.68707826363E+02  0.23839569916E+03  0.30316370127E+03  0.17247173163E+03 0.  0.
        -24    2    5    5    0    0  0.64948762989E+02  0.11175057365E+02  0.19335213002E+03  0.21959540721E+03  0.80584570264E+02 0.  0.
          4    1    4    4  501    0 -0.73003792393E+02 -0.79498827443E+01 -0.17502816206E+03  0.18980940929E+03  0.00000000000E+00 0. -1.
         -3    1    4    4    0  501 -0.67344437394E+01 -0.47357438780E+02 -0.55646796761E+02  0.73380145339E+02  0.00000000000E+00 0.  1.
          5    1    3    3  502    0  0.55071319467E+02 -0.13400504839E+02 -0.11968676819E+03  0.13251202300E+03  0.47000000000E+01 0. -1.
         11    1    6    6    0    0 -0.33550142221E+01 -0.15251819691E+02  0.33567886411E+01  0.15973169827E+02  0.00000000000E+00 0. -1.
        -12    1    6    6    0    0  0.68303777211E+02  0.26426877057E+02  0.18999534138E+03  0.20362223739E+03  0.00000000000E+00 0.  1.
         -5    1    5    5    0  503 -0.40281846324E+02  0.57532768998E+02  0.45043569136E+02  0.83568294062E+02  0.47000000000E+01 0.  1.
<mgrwt>
<rscale>  2 0.18643800E+03</rscale>
<asrwt>0</asrwt>
<pdfrwt beam="1">  1       21 0.45146097E-01 0.18728513E+03</pdfrwt>
<pdfrwt beam="2">  1       21 0.62371639E-01 0.18728513E+03</pdfrwt>
<totfact> 0.11260609E+04</totfact>
</mgrwt>
</event>
<event>
12    1  0.1441827E-001  0.2415297E+03  0.7546771E-02  0.1119934E+00
         21   -1    0    0  504  503  0.00000000000E+00  0.00000000000E+00  0.16549251217E+04  0.16549251217E+04  0.00000000000E+00 0.  1.
         21   -1    0    0  502  504 -0.00000000000E+00 -0.00000000000E+00 -0.43668434653E+02  0.43668434653E+02  0.00000000000E+00 0.  1.
          6    2    1    2  502    0 -0.89774818959E+01 -0.16250394687E+03  0.42041303497E+03  0.48485433385E+03  0.17846141642E+03 0.  0.
         24    2    3    3    0    0 -0.20201466980E+02 -0.18684495773E+02  0.23486170333E+03  0.24977690186E+03  0.80444212747E+02 0.  0.
         -6    2    1    2    0  503  0.89774818959E+01  0.16250394687E+03  0.11908436521E+04  0.12137392225E+04  0.16901529109E+03 0.  0.
        -24    2    5    5    0    0  0.49739254817E+01  0.33739451543E+02  0.25427547450E+03  0.26834070073E+03  0.78661453145E+02 0.  0.
          2    1    4    4  501    0  0.98188810790E+01  0.26372842483E+02  0.11260062943E+03  0.11606394356E+03  0.00000000000E+00 0. -1.
         -1    1    4    4    0  501 -0.30020348059E+02 -0.45057338256E+02  0.12226107389E+03  0.13371295830E+03  0.00000000000E+00 0.  1.
          5    1    3    3  502    0  0.11223985084E+02 -0.14381945110E+03  0.18555133164E+03  0.23507743198E+03  0.47000000000E+01 0. -1.
         13    1    6    6    0    0 -0.28672720967E+02 -0.45654840430E+01  0.50185406621E+02  0.57978820356E+02  0.00000000000E+00 0. -1.
        -14    1    6    6    0    0  0.33646646449E+02  0.38304935586E+02  0.20409006788E+03  0.21036188037E+03  0.00000000000E+00 0.  1.
         -5    1    5    5    0  503  0.40035564141E+01  0.12876449533E+03  0.93656817758E+03  0.94539852178E+03  0.47000000000E+01 0.  1.
<mgrwt>
<rscale>  2 0.23978766E+03</rscale>
<asrwt>0</asrwt>
<pdfrwt beam="1">  1       21 0.25460382E+00 0.24152972E+03</pdfrwt>
<pdfrwt beam="2">  1       21 0.67182220E-02 0.24152972E+03</pdfrwt>
<totfact> 0.97179797E+03</totfact>
</mgrwt>
</event>
<event>
12    1  0.1441827E-001  0.2028844E+03  0.7546771E-02  0.1147439E+00
         21   -1    0    0  504  503  0.00000000000E+00  0.00000000000E+00  0.13140116051E+03  0.13140116051E+03  0.00000000000E+00 0.  1.
         21   -1    0    0  502  504 -0.00000000000E+00 -0.00000000000E+00 -0.31761031445E+03  0.31761031445E+03  0.00000000000E+00 0. -1.
          6    2    1    2  502    0  0.61541116147E+02 -0.86281777133E+02 -0.12191022629E+03  0.23669424418E+03  0.17300349104E+03 0.  0.
         24    2    3    3    0    0  0.73143182890E+01 -0.11580099223E+03 -0.78810391269E+02  0.16125144834E+03  0.79546104655E+02 0.  0.
         -6    2    1    2    0  503 -0.61541116147E+02  0.86281777133E+02 -0.64298927648E+02  0.21231723078E+03  0.17237285270E+03 0.  0.
        -24    2    5    5    0    0 -0.84728783694E+02  0.44114677832E+01 -0.36800625162E+02  0.12277024803E+03  0.80745402071E+02 0.  0.
          2    1    4    4  501    0 -0.34860095076E+02 -0.53257983811E+02 -0.48201522587E+02  0.79843758980E+02  0.00000000000E+00 0. -1.
         -1    1    4    4    0  501  0.42174413365E+02 -0.62543008418E+02 -0.30608868681E+02  0.81407689358E+02  0.00000000000E+00 0.  1.
          5    1    3    3  502    0  0.54226797858E+02  0.29519215095E+02 -0.43099835019E+02  0.75442795842E+02  0.47000000000E+01 0. -1.
         11    1    6    6    0    0 -0.67793498385E+01 -0.30524927952E+02 -0.52341340927E+01  0.31703737483E+02  0.00000000000E+00 0. -1.
        -12    1    6    6    0    0 -0.77949433855E+02  0.34936395735E+02 -0.31566491069E+02  0.91066510550E+02  0.00000000000E+00 0.  1.
         -5    1    5    5    0  503  0.23187667547E+02  0.81870309350E+02 -0.27498302485E+02  0.89546982746E+02  0.47000000000E+01 0.  1.
<mgrwt>
<rscale>  2 0.20274985E+03</rscale>
<asrwt>0</asrwt>
<pdfrwt beam="1">  1       21 0.20215563E-01 0.20288436E+03</pdfrwt>
<pdfrwt beam="2">  1       21 0.48863125E-01 0.20288436E+03</pdfrwt>
<totfact> 0.90053775E+04</totfact>
</mgrwt>
</event>
<event>
12    1  0.1441827E-001  0.1731472E+03  0.7546771E-02  0.1174694E+00
         21   -1    0    0  504  503  0.00000000000E+00  0.00000000000E+00  0.15906791473E+03  0.15906791473E+03  0.00000000000E+00 0.  1.
         21   -1    0    0  502  504 -0.00000000000E+00 -0.00000000000E+00 -0.27776210189E+03  0.27776210189E+03  0.00000000000E+00 0.  1.
          6    2    1    2  502    0 -0.70541570858E+01 -0.41515490168E+01 -0.18348822031E+03  0.25228534257E+03  0.17295366602E+03 0.  0.
         24    2    3    3    0    0 -0.28108426214E+02  0.77062301300E+01 -0.20455398239E+03  0.21988556623E+03  0.75218753746E+02 0.  0.
         -6    2    1    2    0  503  0.70541570858E+01  0.41515490168E+01  0.64794033140E+02  0.18454467406E+03  0.17260206691E+03 0.  0.
        -24    2    5    5    0    0  0.31763737447E+02 -0.49956727890E+02  0.75895699533E+02  0.12385195630E+03  0.77939336629E+02 0.  0.
          2    1    4    4  501    0  0.20483912944E+02  0.24948021489E+01 -0.12370060049E+03  0.12540994095E+03  0.00000000000E+00 0. -1.
         -1    1    4    4    0  501 -0.48592339158E+02  0.52114279811E+01 -0.80853381898E+02  0.94475625273E+02  0.00000000000E+00 0.  1.
          5    1    3    3  502    0  0.21054269128E+02 -0.11857779147E+02  0.21065762082E+02  0.32399776340E+02  0.47000000000E+01 0. -1.
         11    1    6    6    0    0  0.18539016633E+02  0.12832421403E+02 -0.23398983050E+01  0.22668067868E+02  0.00000000000E+00 0. -1.
        -12    1    6    6    0    0  0.13224720814E+02 -0.62789149294E+02  0.78235597838E+02  0.10118388843E+03  0.00000000000E+00 0.  1.
         -5    1    5    5    0  503 -0.24709580361E+02  0.54108276907E+02 -0.11101666393E+02  0.60692717753E+02  0.47000000000E+01 0.  1.
<mgrwt>
<rscale>  2 0.17305937E+03</rscale>
<asrwt>0</asrwt>
<pdfrwt beam="1">  1       21 0.24471987E-01 0.17314724E+03</pdfrwt>
<pdfrwt beam="2">  1       21 0.42732630E-01 0.17314724E+03</pdfrwt>
<totfact> 0.83760591E+04</totfact>
</mgrwt>
</event>
<event>
12    1  0.1441827E-001  0.1780905E+03  0.7546771E-02  0.1170421E+00
         21   -1    0    0  504  503  0.00000000000E+00  0.00000000000E+00  0.95766260103E+03  0.95766260103E+03  0.00000000000E+00 0. -1.
         21   -1    0    0  502  504 -0.00000000000E+00 -0.00000000000E+00 -0.33394929812E+02  0.33394929812E+02  0.00000000000E+00 0. -1.
          6    2    1    2  502    0 -0.36585404378E+02  0.12753843459E+02  0.38732668189E+03  0.42630759680E+03  0.17382478607E+03 0.  0.
         24    2    3    3    0    0 -0.20421495954E+02 -0.33124983285E+02  0.35862415722E+03  0.36963252643E+03  0.80638802330E+02 0.  0.
         -6    2    1    2    0  503  0.36585404378E+02 -0.12753843459E+02  0.53694098933E+03  0.56474993404E+03  0.17069185580E+03 0.  0.
        -24    2    5    5    0    0  0.53685099009E+02  0.50238550016E+02  0.30360408820E+03  0.32241000621E+03  0.79792029475E+02 0.  0.
          4    1    4    4  501    0  0.27047052855E+02 -0.29035985382E+02  0.12310070965E+03  0.12933837881E+03  0.00000000000E+00 0. -1.
         -3    1    4    4    0  501 -0.47468548809E+02 -0.40889979032E+01  0.23552344757E+03  0.24029414763E+03  0.00000000000E+00 0.  1.
          5    1    3    3  502    0 -0.16163908425E+02  0.45878826745E+02  0.28702524668E+02  0.56675070369E+02  0.47000000000E+01 0. -1.
         11    1    6    6    0    0  0.28233076244E+02  0.43764720895E+02  0.28620929677E+03  0.29090929677E+03  0.00000000000E+00 0. -1.
        -12    1    6    6    0    0  0.25452022764E+02  0.64738291217E+01  0.17394791433E+02  0.31500709441E+02  0.00000000000E+00 0.  1.
         -5    1    5    5    0  503 -0.17099694631E+02 -0.62992393476E+02  0.23333690113E+03  0.24233992783E+03  0.47000000000E+01 0.  1.
<mgrwt>
<rscale>  2 0.17732134E+03</rscale>
<asrwt>0</asrwt>
<pdfrwt beam="1">  1       21 0.14733269E+00 0.17809045E+03</pdfrwt>
<pdfrwt beam="2">  1       21 0.51376822E-02 0.17809045E+03</pdfrwt>
<totfact> 0.81071975E+04</totfact>
</mgrwt>
</event>
<event>
12    1  0.1441827E-001  0.2033255E+03  0.7546771E-02  0.1147161E+00
         21   -1    0    0  504  503  0.00000000000E+00  0.00000000000E+00  0.51305080078E+03  0.51305080078E+03  0.00000000000E+00 0.  1.
         21   -1    0    0  502  504 -0.00000000000E+00 -0.00000000000E+00 -0.85691198487E+02  0.85691198487E+02  0.00000000000E+00 0. -1.
          6    2    1    2  502    0 -0.35357631370E+02  0.98708505376E+02  0.13837697182E+03  0.24594605910E+03  0.17420604619E+03 0.  0.
         24    2    3    3    0    0  0.38630440920E+02  0.28760156332E+02  0.10005459506E+03  0.13705298800E+03  0.80331450677E+02 0.  0.
         -6    2    1    2    0  503  0.35357631370E+02 -0.98708505376E+02  0.28898263047E+03  0.35279594016E+03  0.17309096900E+03 0.  0.
        -24    2    5    5    0    0 -0.35414820259E+02 -0.22244940085E+02  0.90894694417E+02  0.12892915581E+03  0.81313190138E+02 0.  0.
          4    1    4    4  501    0  0.43481458055E+02  0.53195595104E+02  0.75276600466E+02  0.10191651049E+03  0.00000000000E+00 0. -1.
         -3    1    4    4    0  501 -0.48510171356E+01 -0.24435438772E+02  0.24777994594E+02  0.35136477503E+02  0.00000000000E+00 0.  1.
          5    1    3    3  502    0 -0.73988072290E+02  0.69948349043E+02  0.38322376759E+02  0.10889307111E+03  0.47000000000E+01 0. -1.
         11    1    6    6    0    0 -0.61546726381E+02 -0.92871310370E+01  0.60442766434E+02  0.86761617927E+02  0.00000000000E+00 0. -1.
        -12    1    6    6    0    0  0.26131906122E+02 -0.12957809048E+02  0.30451927983E+02  0.42167537880E+02  0.00000000000E+00 0.  1.
         -5    1    5    5    0  503  0.70772451629E+02 -0.76463565291E+02  0.19808793605E+03  0.22386678435E+03  0.47000000000E+01 0.  1.
<mgrwt>
<rscale>  2 0.20308648E+03</rscale>
<asrwt>0</asrwt>
<pdfrwt beam="1">  1       21 0.78930891E-01 0.20332555E+03</pdfrwt>
<pdfrwt beam="2">  1       21 0.13183262E-01 0.20332555E+03</pdfrwt>
<totfact> 0.69927620E+04</totfact>
</mgrwt>
</event>
<event>
12    1  0.1441827E-001  0.1908269E+03  0.7546771E-02  0.1158353E+00
         21   -1    0    0  504  503  0.00000000000E+00  0.00000000000E+00  0.56065603200E+03  0.56065603200E+03  0.00000000000E+00 0. -1.
         21   -1    0    0  502  504 -0.00000000000E+00 -0.00000000000E+00 -0.77303994953E+02  0.77303994953E+02  0.00000000000E+00 0. -1.
          6    2    1    2  502    0 -0.52564980478E+02  0.51169340671E+02  0.10784811592E+03  0.21674975616E+03  0.17311228175E+03 0.  0.
         24    2    3    3    0    0 -0.14708624292E+01 -0.11931908238E+02  0.10767368421E+03  0.13542019856E+03  0.81243301482E+02 0.  0.
         -6    2    1    2    0  503  0.52564980478E+02 -0.51169340671E+02  0.37550392113E+03  0.42121027079E+03  0.17616333001E+03 0.  0.
        -24    2    5    5    0    0  0.89709324234E+02 -0.27897125462E+02  0.35028114920E+03  0.37042073941E+03  0.75422995421E+02 0.  0.
          4    1    4    4  501    0  0.22335779205E+02 -0.32749493176E+02  0.24904450405E+02  0.46815040168E+02  0.00000000000E+00 0. -1.
         -3    1    4    4    0  501 -0.23806641634E+02  0.20817584938E+02  0.82769233809E+02  0.88605158393E+02  0.00000000000E+00 0.  1.
          5    1    3    3  502    0 -0.51094118048E+02  0.63101248909E+02  0.17443170289E+00  0.81329557600E+02  0.47000000000E+01 0. -1.
         13    1    6    6    0    0  0.39795205953E+02  0.21330068918E+02  0.19319560765E+03  0.19840154503E+03  0.00000000000E+00 0. -1.
        -14    1    6    6    0    0  0.49914118281E+02 -0.49227194380E+02  0.15708554155E+03  0.17201919438E+03  0.00000000000E+00 0.  1.
         -5    1    5    5    0  503 -0.37144343757E+02 -0.23272215209E+02  0.25222771929E+02  0.50789531378E+02  0.47000000000E+01 0.  1.
<mgrwt>
<rscale>  2 0.19011972E+03</rscale>
<asrwt>0</asrwt>
<pdfrwt beam="1">  1       21 0.86254772E-01 0.19082688E+03</pdfrwt>
<pdfrwt beam="2">  1       21 0.11892923E-01 0.19082688E+03</pdfrwt>
<totfact> 0.69151423E+04</totfact>
</mgrwt>
</event>
<event>
12    1  0.1441827E-001  0.2142418E+03  0.7546771E-02  0.1138844E+00
         21   -1    0    0  504  503  0.00000000000E+00  0.00000000000E+00  0.99812351673E+03  0.99812351673E+03  0.00000000000E+00 0.  1.
         21   -1    0    0  502  504 -0.00000000000E+00 -0.00000000000E+00 -0.49510943283E+02  0.49510943283E+02  0.00000000000E+00 0. -1.
          6    2    1    2  502    0  0.46670861356E+02  0.11475621133E+03  0.32525334352E+03  0.38947309692E+03  0.17479244381E+03 0.  0.
         24    2    3    3    0    0 -0.42245604911E+02  0.76860027336E+02  0.19224030048E+03  0.22498352779E+03  0.77259948937E+02 0.  0.
         -6    2    1    2    0  503 -0.46670861356E+02 -0.11475621133E+03  0.62335922993E+03  0.65816136310E+03  0.17103360196E+03 0.  0.
        -24    2    5    5    0    0 -0.70809616107E+02 -0.59009195423E+02  0.23429619804E+03  0.26435615484E+03  0.80581519665E+02 0.  0.
          2    1    4    4  501    0  0.14423780973E+02  0.10643216554E+02  0.84621521615E+02  0.86499279978E+02  0.00000000000E+00 0. -1.
         -1    1    4    4    0  501 -0.56669385884E+02  0.66216810781E+02  0.10761877887E+03  0.13848424781E+03  0.00000000000E+00 0.  1.
          5    1    3    3  502    0  0.88916466267E+02  0.37896183992E+02  0.13301304304E+03  0.16448956913E+03  0.47000000000E+01 0. -1.
         13    1    6    6    0    0 -0.19600642046E+02  0.19504264112E+02  0.39962641083E+02  0.48596441943E+02  0.00000000000E+00 0. -1.
        -14    1    6    6    0    0 -0.51208974061E+02 -0.78513459536E+02  0.19433355695E+03  0.21575971290E+03  0.00000000000E+00 0.  1.
         -5    1    5    5    0  503  0.24138754751E+02 -0.55747015904E+02  0.38906303189E+03  0.39380520825E+03  0.47000000000E+01 0.  1.
<mgrwt>
<rscale>  2 0.21347382E+03</rscale>
<asrwt>0</asrwt>
<pdfrwt beam="1">  1       21 0.15355745E+00 0.21424182E+03</pdfrwt>
<pdfrwt beam="2">  1       21 0.76170690E-02 0.21424182E+03</pdfrwt>
<totfact> 0.36245132E+04</totfact>
</mgrwt>
</event>
<event>
12    1  0.1441827E-001  0.2118318E+03  0.7546771E-02  0.1140146E+00
         21   -1    0    0  504  503  0.00000000000E+00  0.00000000000E+00  0.15286581381E+04  0.15286581381E+04  0.00000000000E+00 0.  1.
         21   -1    0    0  502  504 -0.00000000000E+00 -0.00000000000E+00 -0.29353691435E+02  0.29353691435E+02  0.00000000000E+00 0. -1.
          6    2    1    2  502    0  0.95755757035E+02 -0.75167735545E+02  0.73183410163E+03  0.76184386254E+03  0.17322114511E+03 0.  0.
         24    2    3    3    0    0 -0.43295050462E+01 -0.46599471420E+02  0.20770937257E+03  0.22746382267E+03  0.80039689032E+02 0.  0.
         -6    2    1    2    0  503 -0.95755757035E+02  0.75167735545E+02  0.76747034501E+03  0.79616796696E+03  0.17335901385E+03 0.  0.
        -24    2    5    5    0    0 -0.41974959586E+02  0.10016967693E+02  0.17531267494E+03  0.19799592403E+03  0.81274935034E+02 0.  0.
          2    1    4    4  501    0 -0.72183986966E+01 -0.14594821472E+02 -0.98289831236E+00  0.16311964402E+02  0.00000000000E+00 0. -1.
         -1    1    4    4    0  501  0.28888936504E+01 -0.32004649947E+02  0.20869227088E+03  0.21115185827E+03  0.00000000000E+00 0.  1.
          5    1    3    3  502    0  0.10008526208E+03 -0.28568264125E+02  0.52412472906E+03  0.53438003987E+03  0.47000000000E+01 0. -1.
         13    1    6    6    0    0  0.23127821609E+02  0.13439741572E+02  0.54793453167E+02  0.60974136286E+02  0.00000000000E+00 0. -1.
        -14    1    6    6    0    0 -0.65102781195E+02 -0.34227738787E+01  0.12051922177E+03  0.13702178774E+03  0.00000000000E+00 0.  1.
         -5    1    5    5    0  503 -0.53780797448E+02  0.65150767852E+02  0.59215767007E+03  0.59817204294E+03  0.47000000000E+01 0.  1.
<mgrwt>
<rscale>  2 0.21180357E+03</rscale>
<asrwt>0</asrwt>
<pdfrwt beam="1">  1       21 0.23517811E+00 0.21183178E+03</pdfrwt>
<pdfrwt beam="2">  1       21 0.45159537E-02 0.21183178E+03</pdfrwt>
<totfact> 0.25620952E+04</totfact>
</mgrwt>
</event>
<event>
12    1  0.1441827E-001  0.2093125E+03  0.7546771E-02  0.1143130E+00
         21   -1    0    0  504  503  0.00000000000E+00  0.00000000000E+00  0.29757053139E+03  0.29757053139E+03  0.00000000000E+00 0.  1.
         21   -1    0    0  502  504 -0.00000000000E+00 -0.00000000000E+00 -0.18084173782E+03  0.18084173782E+03  0.00000000000E+00 0.  1.
          6    2    1    2  502    0 -0.28690171051E+02 -0.11129312664E+03 -0.49473731888E+02  0.21507993901E+03  0.17493554261E+03 0.  0.
         24    2    3    3    0    0  0.52293321322E+02 -0.73117932605E+02 -0.27025287552E+02  0.12265865288E+03  0.78955401568E+02 0.  0.
         -6    2    1    2    0  503  0.28690171051E+02  0.11129312664E+03  0.16620252546E+03  0.26333233020E+03  0.16885304471E+03 0.  0.
        -24    2    5    5    0    0  0.79797514945E+02  0.72567796190E+02  0.13224663675E+03  0.19062260461E+03  0.84935716991E+02 0.  0.
          4    1    4    4  501    0  0.38025235544E+02  0.62459843137E+01 -0.36753022271E+01  0.38709671979E+02  0.00000000000E+00 0. -1.
         -3    1    4    4    0  501  0.14268085778E+02 -0.79363916918E+02 -0.23349985325E+02  0.83948980905E+02  0.00000000000E+00 0.  1.
          5    1    3    3  502    0 -0.80983492373E+02 -0.38175194031E+02 -0.22448444336E+02  0.92421286127E+02  0.47000000000E+01 0. -1.
         11    1    6    6    0    0  0.42295265426E+02  0.43839443624E+02  0.12972322373E+03  0.14331399468E+03  0.00000000000E+00 0. -1.
        -12    1    6    6    0    0  0.37502249518E+02  0.28728352566E+02  0.25234130133E+01  0.47308609928E+02  0.00000000000E+00 0.  1.
         -5    1    5    5    0  503 -0.51107343893E+02  0.38725330445E+02  0.33955888715E+02  0.72709725597E+02  0.47000000000E+01 0.  1.
<mgrwt>
<rscale>  2 0.20803685E+03</rscale>
<asrwt>0</asrwt>
<pdfrwt beam="1">  1       21 0.45780082E-01 0.20931252E+03</pdfrwt>
<pdfrwt beam="2">  1       21 0.27821806E-01 0.20931252E+03</pdfrwt>
<totfact> 0.55980692E+04</totfact>
</mgrwt>
</event>
<event>
12    1  0.1441827E-001  0.1975634E+03  0.7546771E-02  0.1152196E+00
         21   -1    0    0  504  503  0.00000000000E+00  0.00000000000E+00  0.15772743050E+04  0.15772743050E+04  0.00000000000E+00 0.  1.
         21   -1    0    0  502  504 -0.00000000000E+00 -0.00000000000E+00 -0.68492669257E+02  0.68492669257E+02  0.00000000000E+00 0.  1.
          6    2    1    2  502    0  0.38927236785E+02 -0.86197622395E+02  0.93850825024E+02  0.21711008850E+03  0.17141602405E+03 0.  0.
         24    2    3    3    0    0 -0.38473010212E+02 -0.23068914037E+02  0.69008710095E+02  0.11407973992E+03  0.78991377262E+02 0.  0.
         -6    2    1    2    0  503 -0.38927236785E+02  0.86197622395E+02  0.14149308108E+04  0.14286568858E+04  0.17345298563E+03 0.  0.
        -24    2    5    5    0    0  0.19929349350E+02  0.10493469636E+03  0.10473656541E+04  0.10559084317E+04  0.80989710414E+02 0.  0.
          2    1    4    4  501    0  0.70688184703E+01  0.13954458982E+02 -0.77466833804E+01  0.17455836372E+02  0.00000000000E+00 0. -1.
         -1    1    4    4    0  501 -0.45541828683E+02 -0.37023373019E+02  0.76755393475E+02  0.96623903548E+02  0.00000000000E+00 0.  1.
          5    1    3    3  502    0  0.77400246998E+02 -0.63128708359E+02  0.24842114929E+02  0.10303034858E+03  0.47000000000E+01 0. -1.
         11    1    6    6    0    0 -0.10264153768E+02 -0.41561391794E+01  0.25603592873E+02  0.27895704212E+02  0.00000000000E+00 0. -1.
        -12    1    6    6    0    0  0.30193503118E+02  0.10909083554E+03  0.10217620612E+04  0.10280127275E+04  0.00000000000E+00 0.  1.
         -5    1    5    5    0  503 -0.58856586135E+02 -0.18737073962E+02  0.36756515663E+03  0.37274845411E+03  0.47000000000E+01 0.  1.
<mgrwt>
<rscale>  2 0.19711540E+03</rscale>
<asrwt>0</asrwt>
<pdfrwt beam="1">  1       21 0.24265756E+00 0.19756340E+03</pdfrwt>
<pdfrwt beam="2">  1       21 0.10537335E-01 0.19756340E+03</pdfrwt>
<totfact> 0.54075896E+03</totfact>
</mgrwt>
</event>
<event>
12    1  0.1441827E-001  0.2497666E+03  0.7546771E-02  0.1113786E+00
         21   -1    0    0  504  503  0.00000000000E+00  0.00000000000E+00  0.10835805465E+03  0.10835805465E+03  0.00000000000E+00 0. -1.
         21   -1    0    0  502  504 -0.00000000000E+00 -0.00000000000E+00 -0.64499962681E+03  0.64499962681E+03  0.00000000000E+00 0. -1.
          6    2    1    2  502    0  0.17622814551E+03  0.22040139795E+02 -0.39701099892E+03  0.46904272407E+03  0.17561667548E+03 0.  0.
         24    2    3    3    0    0  0.13515374923E+03 -0.43209054057E+02 -0.32316565344E+03  0.36217931416E+03  0.81266584514E+02 0.  0.
         -6    2    1    2    0  503 -0.17622814551E+03 -0.22040139795E+02 -0.13963057324E+03  0.28431495739E+03  0.17261567421E+03 0.  0.
        -24    2    5    5    0    0 -0.16571738012E+03 -0.14388843606E+02 -0.17133043300E+03  0.24973187437E+03  0.73093111263E+02 0.  0.
          4    1    4    4  501    0  0.14581313603E+03 -0.40304709450E+02 -0.28794354660E+03  0.32526516301E+03  0.00000000000E+00 0. -1.
         -3    1    4    4    0  501 -0.10659386799E+02 -0.29043446072E+01 -0.35222106840E+02  0.36914151145E+02  0.00000000000E+00 0.  1.
          5    1    3    3  502    0  0.41074396285E+02  0.65249193851E+02 -0.73845345481E+02  0.10686340991E+03  0.47000000000E+01 0. -1.
         11    1    6    6    0    0 -0.97910824188E+02 -0.15756742926E+02 -0.50785100916E+02  0.11141782136E+03  0.00000000000E+00 0. -1.
        -12    1    6    6    0    0 -0.67806555929E+02  0.13678993204E+01 -0.12054533208E+03  0.13831405302E+03  0.00000000000E+00 0.  1.
         -5    1    5    5    0  503 -0.10510765395E+02 -0.76512961891E+01  0.31699859758E+02  0.34583083021E+02  0.47000000000E+01 0.  1.
<mgrwt>
<rscale>  2 0.24923969E+03</rscale>
<asrwt>0</asrwt>
<pdfrwt beam="1">  1       21 0.16670470E-01 0.24976658E+03</pdfrwt>
<pdfrwt beam="2">  1       21 0.99230711E-01 0.24976658E+03</pdfrwt>
<totfact> 0.26226180E+04</totfact>
</mgrwt>
</event>
<event>
12    1  0.1441827E-001  0.1835202E+03  0.7546771E-02  0.1165051E+00
         21   -1    0    0  504  503  0.00000000000E+00  0.00000000000E+00  0.20335334091E+03  0.20335334091E+03  0.00000000000E+00 0.  1.
         21   -1    0    0  502  504 -0.00000000000E+00 -0.00000000000E+00 -0.16551838110E+03  0.16551838110E+03  0.00000000000E+00 0.  1.
          6    2    1    2  502    0 -0.55020610635E+02 -0.26894958760E+01  0.40368788534E+02  0.18790768907E+03  0.17505758922E+03 0.  0.
         24    2    3    3    0    0 -0.95946198046E+02  0.63572513839E+01 -0.42696273861E+01  0.12649575606E+03  0.82078371193E+02 0.  0.
         -6    2    1    2    0  503  0.55020610635E+02  0.26894958760E+01 -0.25338287173E+01  0.18096403294E+03  0.17235736116E+03 0.  0.
        -24    2    5    5    0    0  0.92436411838E+02  0.24922105415E+02 -0.29276110590E+02  0.12966616996E+03  0.82405238959E+02 0.  0.
          2    1    4    4  501    0 -0.40013272332E+02 -0.36578505500E+02 -0.12109719646E+02  0.55549026429E+02  0.00000000000E+00 0. -1.
         -1    1    4    4    0  501 -0.55932925714E+02  0.42935756884E+02  0.78400922595E+01  0.70946729627E+02  0.00000000000E+00 0.  1.
          5    1    3    3  502    0  0.40925587411E+02 -0.90467472599E+01  0.44638415920E+02  0.61411933016E+02  0.47000000000E+01 0. -1.
         11    1    6    6    0    0 -0.11366304725E+02 -0.96921172838E+01  0.36893144592E+01  0.15386392096E+02  0.00000000000E+00 0. -1.
        -12    1    6    6    0    0  0.10380271656E+03  0.34614222698E+02 -0.32965425049E+02  0.11427977786E+03  0.00000000000E+00 0.  1.
         -5    1    5    5    0  503 -0.37415801203E+02 -0.22232609539E+02  0.26742281872E+02  0.51297862980E+02  0.47000000000E+01 0.  1.
<mgrwt>
<rscale>  2 0.18287330E+03</rscale>
<asrwt>0</asrwt>
<pdfrwt beam="1">  1       21 0.31285130E-01 0.18352019E+03</pdfrwt>
<pdfrwt beam="2">  1       21 0.25464366E-01 0.18352019E+03</pdfrwt>
<totfact> 0.14399489E+05</totfact>
</mgrwt>
</event>
<event>
12    1  0.1441827E-001  0.1875258E+03  0.7546771E-02  0.1160996E+00
         21   -1    0    0  504  503  0.00000000000E+00  0.00000000000E+00  0.14946889424E+03  0.14946889424E+03  0.00000000000E+00 0.  1.
         21   -1    0    0  502  504 -0.00000000000E+00 -0.00000000000E+00 -0.23708428056E+03  0.23708428056E+03  0.00000000000E+00 0. -1.
          6    2    1    2  502    0 -0.12390845921E+02  0.72947679977E+02 -0.66668903215E+02  0.19786117401E+03  0.17096609152E+03 0.  0.
         24    2    3    3    0    0 -0.78148750836E+01  0.11270827581E+03 -0.18426374280E+02  0.13500199737E+03  0.71566614535E+02 0.  0.
         -6    2    1    2    0  503  0.12390845921E+02 -0.72947679977E+02 -0.20946483113E+02  0.18869200079E+03  0.17231082070E+03 0.  0.
        -24    2    5    5    0    0  0.28524049469E+02 -0.16193768841E+02 -0.69165850691E+02  0.11234749152E+03  0.82232502100E+02 0.  0.
          4    1    4    4  501    0 -0.16462610945E+02  0.63148612085E+02 -0.43861244193E+02  0.78629342549E+02  0.00000000000E+00 0. -1.
         -3    1    4    4    0  501  0.86477358619E+01  0.49559663725E+02  0.25434869914E+02  0.56372654822E+02  0.00000000000E+00 0.  1.
          5    1    3    3  502    0 -0.45759708371E+01 -0.39760595834E+02 -0.48242528935E+02  0.62859176643E+02  0.47000000000E+01 0. -1.
         11    1    6    6    0    0  0.45283519806E+02 -0.26678750578E+02 -0.14954719050E+02  0.54644272530E+02  0.00000000000E+00 0. -1.
        -12    1    6    6    0    0 -0.16759470338E+02  0.10484981736E+02 -0.54211131641E+02  0.57703218990E+02  0.00000000000E+00 0.  1.
         -5    1    5    5    0  503 -0.16133203548E+02 -0.56753911135E+02  0.48219367578E+02  0.76344509268E+02  0.47000000000E+01 0.  1.
<mgrwt>
<rscale>  2 0.18721629E+03</rscale>
<asrwt>0</asrwt>
<pdfrwt beam="1">  1       21 0.22995215E-01 0.18752577E+03</pdfrwt>
<pdfrwt beam="2">  1       21 0.36474504E-01 0.18752577E+03</pdfrwt>
<totfact> 0.12893537E+05</totfact>
</mgrwt>
</event>
<event>
12    1  0.1441827E-001  0.1724826E+03  0.7546771E-02  0.1175388E+00
         21   -1    0    0  504  503  0.00000000000E+00  0.00000000000E+00  0.27569662114E+03  0.27569662114E+03  0.00000000000E+00 0.  1.
         21   -1    0    0  502  504 -0.00000000000E+00 -0.00000000000E+00 -0.33333920177E+03  0.33333920177E+03  0.00000000000E+00 0.  1.
          6    2    1    2  502    0  0.18031709656E+02  0.13679632097E+01 -0.27937530796E+03  0.32811652499E+03  0.17112240472E+03 0.  0.
         24    2    3    3    0    0 -0.48151587706E+01 -0.68451364090E+02 -0.19770084430E+03  0.21816414496E+03  0.61653834485E+02 0.  0.
         -6    2    1    2    0  503 -0.18031709656E+02 -0.13679632097E+01  0.22173272732E+03  0.28091929792E+03  0.17153202529E+03 0.  0.
        -24    2    5    5    0    0 -0.49029757960E+02  0.52416995858E+02  0.16641841992E+03  0.19763986814E+03  0.78835070690E+02 0.  0.
          2    1    4    4  501    0  0.16775247322E+02 -0.50345958294E+02 -0.72586896470E+02  0.89916527838E+02  0.00000000000E+00 0. -1.
         -1    1    4    4    0  501 -0.21590406093E+02 -0.18105405796E+02 -0.12511394783E+03  0.12824761712E+03  0.00000000000E+00 0.  1.
          5    1    3    3  502    0  0.22846868427E+02  0.69819327299E+02 -0.81674463657E+02  0.10995238003E+03  0.47000000000E+01 0. -1.
         11    1    6    6    0    0 -0.22470249182E+02  0.68952715938E+02  0.93777701789E+02  0.11854807669E+03  0.00000000000E+00 0. -1.
        -12    1    6    6    0    0 -0.26559508778E+02 -0.16535720080E+02  0.72640718130E+02  0.79091791455E+02  0.00000000000E+00 0.  1.
         -5    1    5    5    0  503  0.30998048304E+02 -0.53784959068E+02  0.55314307404E+02  0.83279429778E+02  0.47000000000E+01 0.  1.
<mgrwt>
<rscale>  2 0.17238068E+03</rscale>
<asrwt>0</asrwt>
<pdfrwt beam="1">  1       21 0.42414865E-01 0.17248261E+03</pdfrwt>
<pdfrwt beam="2">  1       21 0.51282954E-01 0.17248261E+03</pdfrwt>
<totfact> 0.19567451E+04</totfact>
</mgrwt>
</event>
<event>
12    1  0.1441827E-001  0.1811429E+03  0.7546771E-02  0.1166747E+00
         21   -1    0    0  504  503  0.00000000000E+00  0.00000000000E+00  0.18491080813E+04  0.18491080813E+04  0.00000000000E+00 0.  1.
         21   -1    0    0  502  504 -0.00000000000E+00 -0.00000000000E+00 -0.57550834567E+02  0.57550834567E+02  0.00000000000E+00 0.  1.
          6    2    1    2  502    0  0.41072514915E+02 -0.34626752595E+02  0.10260226585E+03  0.20801778505E+03  0.17279528484E+03 0.  0.
         24    2    3    3    0    0  0.35432371262E+02  0.12377845926E+02  0.12640850352E+03  0.15481937854E+03  0.81125003589E+02 0.  0.
         -6    2    1    2    0  503 -0.41072514915E+02  0.34626752595E+02  0.16889549809E+04  0.16986411309E+04  0.17299364258E+03 0.  0.
        -24    2    5    5    0    0  0.36745460924E+02  0.45541224454E+02  0.10813357802E+04  0.10859438596E+04  0.81010892725E+02 0.  0.
          4    1    4    4  501    0  0.16625375285E+02  0.38230595565E+02  0.11246134001E+03  0.11993971209E+03  0.00000000000E+00 0. -1.
         -3    1    4    4    0  501  0.18806995977E+02 -0.25852749639E+02  0.13947163511E+02  0.34879666449E+02  0.00000000000E+00 0.  1.
          5    1    3    3  502    0  0.56401436534E+01 -0.47004598521E+02 -0.23806237673E+02  0.53198406505E+02  0.47000000000E+01 0. -1.
         11    1    6    6    0    0 -0.17512658941E+02  0.17455055510E+02  0.11257495573E+03  0.11525837429E+03  0.00000000000E+00 0. -1.
        -12    1    6    6    0    0  0.54258119865E+02  0.28086168944E+02  0.96876082446E+03  0.97068548535E+03  0.00000000000E+00 0.  1.
         -5    1    5    5    0  503 -0.77817975839E+02 -0.10914471859E+02  0.60761920073E+03  0.61269727121E+03  0.47000000000E+01 0.  1.
<mgrwt>
<rscale>  2 0.18109556E+03</rscale>
<asrwt>0</asrwt>
<pdfrwt beam="1">  1       21 0.28447812E+00 0.18114294E+03</pdfrwt>
<pdfrwt beam="2">  1       21 0.88539760E-02 0.18114294E+03</pdfrwt>
<totfact> 0.42727988E+03</totfact>
</mgrwt>
</event>
<event>
12    1  0.1441827E-001  0.2163390E+03  0.7546771E-02  0.1137058E+00
         21   -1    0    0  504  503  0.00000000000E+00  0.00000000000E+00  0.14434063184E+04  0.14434063184E+04  0.00000000000E+00 0.  1.
         21   -1    0    0  502  504 -0.00000000000E+00 -0.00000000000E+00 -0.49506802262E+02  0.49506802262E+02  0.00000000000E+00 0. -1.
          6    2    1    2  502    0  0.12295924355E+03  0.29172163376E+02  0.25206612277E+03  0.33076593832E+03  0.17291265140E+03 0.  0.
         24    2    3    3    0    0  0.13281648650E+03 -0.31962320651E+01  0.12263676684E+03  0.19690434398E+03  0.77981466479E+02 0.  0.
         -6    2    1    2    0  503 -0.12295924355E+03 -0.29172163376E+02  0.11418333934E+04  0.11621471824E+04  0.17559209698E+03 0.  0.
        -24    2    5    5    0    0 -0.90725279507E+02  0.16948954776E+02  0.39871033096E+03  0.41688202023E+03  0.79387324967E+02 0.  0.
          4    1    4    4  501    0  0.53571781516E+02  0.36969505442E+02  0.48063386109E+02  0.80912107819E+02  0.00000000000E+00 0. -1.
         -3    1    4    4    0  501  0.79244704980E+02 -0.40165737508E+02  0.74573380730E+02  0.11599223616E+03  0.00000000000E+00 0.  1.
          5    1    3    3  502    0 -0.98572429425E+01  0.32368395441E+02  0.12942935593E+03  0.13386159434E+03  0.47000000000E+01 0. -1.
         11    1    6    6    0    0 -0.62476419122E+02 -0.27335315573E+02  0.25147855498E+03  0.26056090658E+03  0.00000000000E+00 0. -1.
        -12    1    6    6    0    0 -0.28248860385E+02  0.44284270349E+02  0.14723177598E+03  0.15632111364E+03  0.00000000000E+00 0.  1.
         -5    1    5    5    0  503 -0.32233964047E+02 -0.46121118152E+02  0.74312306242E+03  0.74526516212E+03  0.47000000000E+01 0.  1.
<mgrwt>
<rscale>  2 0.21579471E+03</rscale>
<asrwt>0</asrwt>
<pdfrwt beam="1">  1       21 0.22206248E+00 0.21633903E+03</pdfrwt>
<pdfrwt beam="2">  1       21 0.76164322E-02 0.21633903E+03</pdfrwt>
<totfact> 0.12521732E+04</totfact>
</mgrwt>
</event>
<event>
12    1  0.1441827E-001  0.1739634E+03  0.7546771E-02  0.1174634E+00
         21   -1    0    0  504  503  0.00000000000E+00  0.00000000000E+00  0.43628843841E+03  0.43628843841E+03  0.00000000000E+00 0. -1.
         21   -1    0    0  502  504 -0.00000000000E+00 -0.00000000000E+00 -0.68199958166E+02  0.68199958166E+02  0.00000000000E+00 0. -1.
          6    2    1    2  502    0  0.12477884436E+02  0.55478919892E+01  0.19469028054E+03  0.25886636303E+03  0.17006178838E+03 0.  0.
         24    2    3    3    0    0  0.65902951655E+02  0.17131737687E+02  0.16550507386E+03  0.19671904146E+03  0.81668576141E+02 0.  0.
         -6    2    1    2    0  503 -0.12477884436E+02 -0.55478919892E+01  0.17339819971E+03  0.24562203355E+03  0.17342655794E+03 0.  0.
        -24    2    5    5    0    0 -0.23649962701E+02  0.38744834119E+02  0.34097081053E+02  0.98947043940E+02  0.81039642530E+02 0.  0.
          2    1    4    4  501    0  0.71552941047E+02  0.43306246633E+01  0.16786389836E+03  0.18252908277E+03  0.00000000000E+00 0. -1.
         -1    1    4    4    0  501 -0.56499893918E+01  0.12801113024E+02 -0.23588245048E+01  0.14189958697E+02  0.00000000000E+00 0.  1.
          5    1    3    3  502    0 -0.53425067219E+02 -0.11583845698E+02  0.29185206683E+02  0.62147321565E+02  0.47000000000E+01 0. -1.
         11    1    6    6    0    0  0.13206413034E+02  0.36196183644E+02 -0.11548751955E+02  0.40223708523E+02  0.00000000000E+00 0. -1.
        -12    1    6    6    0    0 -0.36856375735E+02  0.25486504754E+01  0.45645833007E+02  0.58723335417E+02  0.00000000000E+00 0.  1.
         -5    1    5    5    0  503  0.11172078265E+02 -0.44292726109E+02  0.13930111865E+03  0.14667498961E+03  0.47000000000E+01 0.  1.
<mgrwt>
<rscale>  2 0.17311867E+03</rscale>
<asrwt>0</asrwt>
<pdfrwt beam="1">  1       21 0.67121297E-01 0.17396335E+03</pdfrwt>
<pdfrwt beam="2">  1       21 0.10492302E-01 0.17396335E+03</pdfrwt>
<totfact> 0.15239630E+05</totfact>
</mgrwt>
</event>
<event>
12    1  0.1441827E-001  0.1755690E+03  0.7546771E-02  0.1172866E+00
         21   -1    0    0  504  503  0.00000000000E+00  0.00000000000E+00  0.11035990370E+04  0.11035990370E+04  0.00000000000E+00 0.  1.
         21   -1    0    0  502  504 -0.00000000000E+00 -0.00000000000E+00 -0.62566970006E+02  0.62566970006E+02  0.00000000000E+00 0.  1.
          6    2    1    2  502    0  0.84808298576E+01 -0.35155258767E+02  0.82089038344E+02  0.19128333899E+03  0.16894640826E+03 0.  0.
         24    2    3    3    0    0  0.34971462894E+02 -0.74931391158E+02  0.25739716049E+02  0.11724800641E+03  0.79036987715E+02 0.  0.
         -6    2    1    2    0  503 -0.84808298576E+01  0.35155258767E+02  0.95894302869E+03  0.97488266805E+03  0.17180415454E+03 0.  0.
        -24    2    5    5    0    0 -0.65798403209E+02  0.48977182991E+02  0.56770342544E+03  0.57919735502E+03  0.80338051303E+02 0.  0.
          2    1    4    4  501    0 -0.21761751529E+01 -0.29038156622E+02  0.46326565524E+02  0.54718378553E+02  0.00000000000E+00 0. -1.
         -1    1    4    4    0  501  0.37147638047E+02 -0.45893234536E+02 -0.20586849475E+02  0.62529627857E+02  0.00000000000E+00 0.  1.
          5    1    3    3  502    0 -0.26490633037E+02  0.39776132391E+02  0.56349322295E+02  0.74035332577E+02  0.47000000000E+01 0. -1.
         11    1    6    6    0    0 -0.25665717426E+02 -0.16597709566E+02  0.83292681806E+02  0.88723637528E+02  0.00000000000E+00 0. -1.
        -12    1    6    6    0    0 -0.40132685782E+02  0.65574892556E+02  0.48441074363E+03  0.49047371749E+03  0.00000000000E+00 0.  1.
         -5    1    5    5    0  503  0.57317573351E+02 -0.13821924223E+02  0.39123960325E+03  0.39568531304E+03  0.47000000000E+01 0.  1.
<mgrwt>
<rscale>  2 0.17486595E+03</rscale>
<asrwt>0</asrwt>
<pdfrwt beam="1">  1       21 0.16978445E+00 0.17556903E+03</pdfrwt>
<pdfrwt beam="2">  1       21 0.96256885E-02 0.17556903E+03</pdfrwt>
<totfact> 0.18817102E+04</totfact>
</mgrwt>
</event>
<event>
12    1  0.1441827E-001  0.1853383E+03  0.7546771E-02  0.1162801E+00
         21   -1    0    0  504  503  0.00000000000E+00  0.00000000000E+00  0.94605609969E+02  0.94605609969E+02  0.00000000000E+00 0. -1.
         21   -1    0    0  502  504 -0.00000000000E+00 -0.00000000000E+00 -0.45126968185E+03  0.45126968185E+03  0.00000000000E+00 0.  1.
          6    2    1    2  502    0  0.64918795978E+02 -0.86671728473E+01 -0.57411141786E+02  0.19402659363E+03  0.17338024650E+03 0.  0.
         24    2    3    3    0    0  0.17330605983E+02 -0.68656642960E+02 -0.36802234328E+02  0.11458989293E+03  0.82233536854E+02 0.  0.
         -6    2    1    2    0  503 -0.64918795978E+02  0.86671728473E+01 -0.29925293009E+03  0.35184869819E+03  0.17307692016E+03 0.  0.
        -24    2    5    5    0    0 -0.53086493784E+02  0.16581276042E+02 -0.64559168441E+02  0.11667665869E+03  0.79702207719E+02 0.  0.
          2    1    4    4  501    0  0.27763485250E+02 -0.51221935157E+02  0.13960912943E+02  0.59911641979E+02  0.00000000000E+00 0. -1.
         -1    1    4    4    0  501 -0.10432879267E+02 -0.17434707804E+02 -0.50763147271E+02  0.54678250949E+02  0.00000000000E+00 0.  1.
          5    1    3    3  502    0  0.47588189995E+02  0.59989470113E+02 -0.20608907458E+02  0.79436700700E+02  0.47000000000E+01 0. -1.
         11    1    6    6    0    0 -0.37216980928E+02  0.34505119015E+02 -0.75001256594E+02  0.90558795257E+02  0.00000000000E+00 0. -1.
        -12    1    6    6    0    0 -0.15869512855E+02 -0.17923842973E+02  0.10442088153E+02  0.26117863431E+02  0.00000000000E+00 0.  1.
         -5    1    5    5    0  503 -0.11832302194E+02 -0.79141031951E+01 -0.23469376165E+03  0.23517203950E+03  0.47000000000E+01 0.  1.
<mgrwt>
<rscale>  2 0.18526731E+03</rscale>
<asrwt>0</asrwt>
<pdfrwt beam="1">  1       21 0.14554709E-01 0.18533828E+03</pdfrwt>
<pdfrwt beam="2">  1       21 0.69426104E-01 0.18533828E+03</pdfrwt>
<totfact> 0.78425648E+04</totfact>
</mgrwt>
</event>
<event>
12    1  0.1441827E-001  0.1853930E+03  0.7546771E-02  0.1162716E+00
         21   -1    0    0  504  503  0.00000000000E+00  0.00000000000E+00  0.85936480833E+02  0.85936480833E+02  0.00000000000E+00 0. -1.
         21   -1    0    0  502  504 -0.00000000000E+00 -0.00000000000E+00 -0.42028702191E+03  0.42028702191E+03  0.00000000000E+00 0. -1.
          6    2    1    2  502    0 -0.58776105818E+02 -0.33406373972E+02 -0.22331505735E+03  0.29024159134E+03  0.17262662039E+03 0.  0.
         24    2    3    3    0    0 -0.68076245122E+02 -0.69860852439E+02 -0.99291098130E+02  0.16055175345E+03  0.80020181917E+02 0.  0.
         -6    2    1    2    0  503  0.58776105818E+02  0.33406373972E+02 -0.11103548373E+03  0.21598191141E+03  0.17247808838E+03 0.  0.
        -24    2    5    5    0    0  0.10302711132E+03  0.20925866165E+02 -0.51405067393E+02  0.14053795131E+03  0.77820031245E+02 0.  0.
          2    1    4    4  501    0 -0.25498021457E+02 -0.14165681702E+02 -0.83831872748E+02  0.88761469820E+02  0.00000000000E+00 0. -1.
         -1    1    4    4    0  501 -0.42578223665E+02 -0.55695170737E+02 -0.15459225383E+02  0.71790283628E+02  0.00000000000E+00 0.  1.
          5    1    3    3  502    0  0.93001393043E+01  0.36454478467E+02 -0.12402395922E+03  0.12968983789E+03  0.47000000000E+01 0. -1.
         13    1    6    6    0    0  0.76931727309E+02  0.49716496475E+02 -0.40699866893E+02  0.10023322729E+03  0.00000000000E+00 0. -1.
        -14    1    6    6    0    0  0.26095384009E+02 -0.28790630309E+02 -0.10705200500E+02  0.40304724015E+02  0.00000000000E+00 0.  1.
         -5    1    5    5    0  503 -0.44251005501E+02  0.12480507807E+02 -0.59630416337E+02  0.75443960099E+02  0.47000000000E+01 0.  1.
<mgrwt>
<rscale>  2 0.18535842E+03</rscale>
<asrwt>0</asrwt>
<pdfrwt beam="1">  1       21 0.13220997E-01 0.18539301E+03</pdfrwt>
<pdfrwt beam="2">  1       21 0.64659543E-01 0.18539301E+03</pdfrwt>
<totfact> 0.10900043E+05</totfact>
</mgrwt>
</event>
<event>
12    1  0.1441827E-001  0.1889921E+03  0.7546771E-02  0.1159513E+00
         21   -1    0    0  504  503  0.00000000000E+00  0.00000000000E+00  0.37618321712E+03  0.37618321712E+03  0.00000000000E+00 0. -1.
         21   -1    0    0  502  504 -0.00000000000E+00 -0.00000000000E+00 -0.23265807282E+03  0.23265807282E+03  0.00000000000E+00 0. -1.
          6    2    1    2  502    0 -0.84524627278E+01 -0.73512175632E+02 -0.16265723731E+03  0.24934996848E+03  0.17390384079E+03 0.  0.
         24    2    3    3    0    0 -0.39329262075E+02 -0.48159783292E+02 -0.26523617329E+02  0.10739725444E+03  0.83453654224E+02 0.  0.
         -6    2    1    2    0  503  0.84524627278E+01  0.73512175632E+02  0.30618238161E+03  0.35949132146E+03  0.17323647220E+03 0.  0.
        -24    2    5    5    0    0  0.16444430945E+02  0.10292680793E+03  0.30082664555E+03  0.32818850916E+03  0.79666051550E+02 0.  0.
          4    1    4    4  501    0 -0.50189142212E+02 -0.65748603046E+02 -0.16182069864E+02  0.84283380234E+02  0.00000000000E+00 0. -1.
         -3    1    4    4    0  501  0.10859880137E+02  0.17588819754E+02 -0.10341547465E+02  0.23113874208E+02  0.00000000000E+00 0.  1.
          5    1    3    3  502    0  0.30876799347E+02 -0.25352392340E+02 -0.13613361998E+03  0.14195271404E+03  0.47000000000E+01 0. -1.
         13    1    6    6    0    0 -0.24908428759E+02  0.71367668762E+02  0.13923692675E+03  0.15843199089E+03  0.00000000000E+00 0. -1.
        -14    1    6    6    0    0  0.41352859704E+02  0.31559139167E+02  0.16158971880E+03  0.16975651826E+03  0.00000000000E+00 0.  1.
         -5    1    5    5    0  503 -0.79919682169E+01 -0.29414632296E+02  0.53557360585E+01  0.31302812299E+02  0.47000000000E+01 0.  1.
<mgrwt>
<rscale>  2 0.18883848E+03</rscale>
<asrwt>0</asrwt>
<pdfrwt beam="1">  1       21 0.57874341E-01 0.18899214E+03</pdfrwt>
<pdfrwt beam="2">  1       21 0.35793550E-01 0.18899214E+03</pdfrwt>
<totfact> 0.21113608E+04</totfact>
</mgrwt>
</event>
<event>
12    1  0.1441827E-001  0.1808632E+03  0.7546771E-02  0.1167055E+00
         21   -1    0    0  504  503  0.00000000000E+00  0.00000000000E+00  0.45553341565E+03  0.45553341565E+03  0.00000000000E+00 0. -1.
         21   -1    0    0  502  504 -0.00000000000E+00 -0.00000000000E+00 -0.24945680914E+03  0.24945680914E+03  0.00000000000E+00 0. -1.
          6    2    1    2  502    0 -0.10688733702E+02 -0.48986542697E+02 -0.19457162371E+03  0.26541032441E+03  0.17340874590E+03 0.  0.
         24    2    3    3    0    0 -0.65059915730E+02 -0.45258614541E+02 -0.96149300253E+02  0.15280851874E+03  0.88456885747E+02 0.  0.
         -6    2    1    2    0  503  0.10688733702E+02  0.48986542697E+02  0.40064823022E+03  0.43957990038E+03  0.17377443440E+03 0.  0.
        -24    2    5    5    0    0  0.42015195836E+02  0.59213446057E+02  0.39032674417E+03  0.40472936443E+03  0.78609047428E+02 0.  0.
          4    1    4    4  501    0 -0.72662119500E+02 -0.24046743947E+02 -0.10384006058E+03  0.12899917707E+03  0.00000000000E+00 0. -1.
         -3    1    4    4    0  501  0.76022037699E+01 -0.21211870594E+02  0.76907603262E+01  0.23809341668E+02  0.00000000000E+00 0.  1.
          5    1    3    3  502    0  0.54371182028E+02 -0.37279281563E+01 -0.98422323459E+02  0.11260180566E+03  0.47000000000E+01 0. -1.
         11    1    6    6    0    0  0.27793913246E+02 -0.12087923154E+02  0.70434630713E+02  0.76678919551E+02  0.00000000000E+00 0. -1.
        -12    1    6    6    0    0  0.14221282589E+02  0.71301369211E+02  0.31989211346E+03  0.32805044488E+03  0.00000000000E+00 0.  1.
         -5    1    5    5    0  503 -0.31326462134E+02 -0.10226903360E+02  0.10321486041E+02  0.34850535953E+02  0.47000000000E+01 0.  1.
<mgrwt>
<rscale>  2 0.18077527E+03</rscale>
<asrwt>0</asrwt>
<pdfrwt beam="1">  1       21 0.70082064E-01 0.18086316E+03</pdfrwt>
<pdfrwt beam="2">  1       21 0.38377971E-01 0.18086316E+03</pdfrwt>
<totfact> 0.12195734E+04</totfact>
</mgrwt>
</event>
<event>
12    1  0.1441827E-001  0.2190161E+03  0.7546771E-02  0.1134975E+00
         21   -1    0    0  504  503  0.00000000000E+00  0.00000000000E+00  0.19504241487E+03  0.19504241487E+03  0.00000000000E+00 0. -1.
         21   -1    0    0  502  504 -0.00000000000E+00 -0.00000000000E+00 -0.28012689764E+03  0.28012689764E+03  0.00000000000E+00 0.  1.
          6    2    1    2  502    0  0.13014387793E+03 -0.33105676143E+02 -0.12823559947E+03  0.25379601429E+03  0.17301627999E+03 0.  0.
         24    2    3    3    0    0  0.37429421523E+02 -0.31631242712E+02 -0.13071905712E+03  0.16091758868E+03  0.80034376002E+02 0.  0.
         -6    2    1    2    0  503 -0.13014387793E+03  0.33105676143E+02  0.43151116701E+02  0.22137329822E+03  0.17061859083E+03 0.  0.
        -24    2    5    5    0    0 -0.13507203030E+03  0.74971559288E+02  0.27416232901E+02  0.17613265913E+03  0.80036714786E+02 0.  0.
          4    1    4    4  501    0  0.62413431854E+02 -0.22129613107E+02 -0.10265869858E+03  0.12216367974E+03  0.00000000000E+00 0. -1.
         -3    1    4    4    0  501 -0.24984010331E+02 -0.95016296053E+01 -0.28060358541E+02  0.38753908949E+02  0.00000000000E+00 0.  1.
          5    1    3    3  502    0  0.92714456409E+02 -0.14744334303E+01  0.24834576519E+01  0.92878425606E+02  0.47000000000E+01 0. -1.
         11    1    6    6    0    0 -0.24397053940E+02  0.56539746873E+02  0.13839652968E+02  0.63114936518E+02  0.00000000000E+00 0. -1.
        -12    1    6    6    0    0 -0.11067497636E+03  0.18431812415E+02  0.13576579933E+02  0.11301772261E+03  0.00000000000E+00 0.  1.
         -5    1    5    5    0  503  0.49281523710E+01 -0.41865883145E+02  0.15734883800E+02  0.45240639093E+02  0.47000000000E+01 0.  1.
<mgrwt>
<rscale>  2 0.21854227E+03</rscale>
<asrwt>0</asrwt>
<pdfrwt beam="1">  1       21 0.30006526E-01 0.21901609E+03</pdfrwt>
<pdfrwt beam="2">  1       21 0.43096445E-01 0.21901609E+03</pdfrwt>
<totfact> 0.54474069E+04</totfact>
</mgrwt>
</event>
<event>
12    1  0.1441827E-001  0.2027639E+03  0.7546771E-02  0.1147780E+00
         21   -1    0    0  504  503  0.00000000000E+00  0.00000000000E+00  0.79676547323E+02  0.79676547323E+02  0.00000000000E+00 0. -1.
         21   -1    0    0  502  504 -0.00000000000E+00 -0.00000000000E+00 -0.55590861982E+03  0.55590861982E+03  0.00000000000E+00 0. -1.
          6    2    1    2  502    0 -0.10189318676E+03 -0.22339093959E+02 -0.32681433563E+03  0.38371444233E+03  0.17189504545E+03 0.  0.
         24    2    3    3    0    0 -0.80062291728E+02  0.39421559199E+02 -0.13242861429E+03  0.17853436309E+03  0.79832017597E+02 0.  0.
         -6    2    1    2    0  503  0.10189318676E+03  0.22339093959E+02 -0.14941773687E+03  0.25187072481E+03  0.17387335995E+03 0.  0.
        -24    2    5    5    0    0  0.11386774227E+03  0.19334080218E+02 -0.17444414539E+03  0.22357176351E+03  0.78828321000E+02 0.  0.
          4    1    4    4  501    0 -0.95222459039E+02  0.41453809443E+02 -0.12089209285E+03  0.15937576082E+03  0.00000000000E+00 0. -1.
         -3    1    4    4    0  501  0.15160167311E+02 -0.20322502440E+01 -0.11536521445E+02  0.19158602272E+02  0.00000000000E+00 0.  1.
          5    1    3    3  502    0 -0.21830895031E+02 -0.61760653158E+02 -0.19438572134E+03  0.20518007924E+03  0.47000000000E+01 0. -1.
         11    1    6    6    0    0  0.11900621576E+03 -0.66469573276E+00 -0.15250035106E+03  0.19344063245E+03  0.00000000000E+00 0. -1.
        -12    1    6    6    0    0 -0.51384734915E+01  0.19998775951E+02 -0.21943794326E+02  0.30131131057E+02  0.00000000000E+00 0.  1.
         -5    1    5    5    0  503 -0.11974555509E+02  0.30050137409E+01  0.25026408524E+02  0.28298961303E+02  0.47000000000E+01 0.  1.
<mgrwt>
<rscale>  2 0.20233911E+03</rscale>
<asrwt>0</asrwt>
<pdfrwt beam="1">  1       21 0.12257931E-01 0.20276391E+03</pdfrwt>
<pdfrwt beam="2">  1       21 0.85524402E-01 0.20276391E+03</pdfrwt>
<totfact> 0.66426333E+04</totfact>
</mgrwt>
</event>
<event>
12    1  0.1441827E-001  0.1864815E+03  0.7546771E-02  0.1161809E+00
         21   -1    0    0  504  503  0.00000000000E+00  0.00000000000E+00  0.13203030518E+03  0.13203030518E+03  0.00000000000E+00 0. -1.
         21   -1    0    0  502  504 -0.00000000000E+00 -0.00000000000E+00 -0.60374774151E+03  0.60374774151E+03  0.00000000000E+00 0. -1.
          6    2    1    2  502    0  0.38955128107E+01 -0.69925333318E+02 -0.51257760830E+03  0.54544584518E+03  0.17283124208E+03 0.  0.
         24    2    3    3    0    0  0.51942513896E+02 -0.27717809824E+02 -0.17668300879E+03  0.20348493904E+03  0.81993494183E+02 0.  0.
         -6    2    1    2    0  503 -0.38955128107E+01  0.69925333318E+02  0.40860171964E+02  0.19033220151E+03  0.17219775266E+03 0.  0.
        -24    2    5    5    0    0  0.57521707764E+02  0.16193915223E+02  0.42095560582E+02  0.10858407335E+03  0.80296170580E+02 0.  0.
          4    1    4    4  501    0  0.19844100044E+02 -0.44501354300E+02 -0.43013571112E+02  0.64994816262E+02  0.00000000000E+00 0. -1.
         -3    1    4    4    0  501  0.32098413852E+02  0.16783544477E+02 -0.13366943768E+03  0.13849012277E+03  0.00000000000E+00 0.  1.
          5    1    3    3  502    0 -0.48047001085E+02 -0.42207523494E+02 -0.33589459951E+03  0.34196090614E+03  0.47000000000E+01 0. -1.
         13    1    6    6    0    0  0.21237631431E+02  0.45665211657E+02  0.34937599525E+02  0.61294244469E+02  0.00000000000E+00 0. -1.
        -14    1    6    6    0    0  0.36284076333E+02 -0.29471296435E+02  0.71579610576E+01  0.47289828879E+02  0.00000000000E+00 0.  1.
         -5    1    5    5    0  503 -0.61417220574E+02  0.53731418095E+02 -0.12353886184E+01  0.81748128166E+02  0.47000000000E+01 0.  1.
<mgrwt>
<rscale>  2 0.18633463E+03</rscale>
<asrwt>0</asrwt>
<pdfrwt beam="1">  1       21 0.20312355E-01 0.18648154E+03</pdfrwt>
<pdfrwt beam="2">  1       21 0.92884268E-01 0.18648154E+03</pdfrwt>
<totfact> 0.21975032E+04</totfact>
</mgrwt>
</event>
<event>
12    1  0.1441827E-001  0.1801439E+03  0.7546771E-02  0.1167983E+00
         21   -1    0    0  504  503  0.00000000000E+00  0.00000000000E+00  0.10173705025E+03  0.10173705025E+03  0.00000000000E+00 0. -1.
         21   -1    0    0  502  504 -0.00000000000E+00 -0.00000000000E+00 -0.67766986944E+03  0.67766986944E+03  0.00000000000E+00 0. -1.
          6    2    1    2  502    0  0.39297539283E+02 -0.23311195027E+02 -0.57191158858E+03  0.59921814373E+03  0.17289248168E+03 0.  0.
         24    2    3    3    0    0 -0.32108904513E+02 -0.45181340340E+02 -0.38698527490E+03  0.39972625176E+03  0.83373485563E+02 0.  0.
         -6    2    1    2    0  503 -0.39297539283E+02  0.23311195027E+02 -0.40212306115E+01  0.18018877596E+03  0.17425302373E+03 0.  0.
        -24    2    5    5    0    0 -0.77563161483E+02  0.23308799298E+02  0.41565847101E+02  0.12048509515E+03  0.78927779414E+02 0.  0.
          4    1    4    4  501    0 -0.27435639160E+02  0.62863628640E+01 -0.27447724439E+03  0.27591663658E+03  0.00000000000E+00 0. -1.
         -3    1    4    4    0  501 -0.46732653528E+01 -0.51467703204E+02 -0.11250803050E+03  0.12380961518E+03  0.00000000000E+00 0.  1.
          5    1    3    3  502    0  0.71406443795E+02  0.21870145312E+02 -0.18492631368E+03  0.19949189197E+03  0.47000000000E+01 0. -1.
         11    1    6    6    0    0 -0.67549414264E+02  0.44831215984E+02  0.11047686286E+02  0.81821834899E+02  0.00000000000E+00 0. -1.
        -12    1    6    6    0    0 -0.10013747219E+02 -0.21522416686E+02  0.30518160814E+02  0.38663260246E+02  0.00000000000E+00 0.  1.
         -5    1    5    5    0  503  0.38265622200E+02  0.23957297525E-02 -0.45587077712E+02  0.59703680811E+02  0.47000000000E+01 0.  1.
<mgrwt>
<rscale>  2 0.17981407E+03</rscale>
<asrwt>0</asrwt>
<pdfrwt beam="1">  1       21 0.15651854E-01 0.18014390E+03</pdfrwt>
<pdfrwt beam="2">  1       21 0.10425690E+00 0.18014390E+03</pdfrwt>
<totfact> 0.27174072E+04</totfact>
</mgrwt>
</event>
<event>
12    1  0.1441827E-001  0.1847487E+03  0.7546771E-02  0.1163433E+00
         21   -1    0    0  504  503  0.00000000000E+00  0.00000000000E+00  0.80942837193E+02  0.80942837193E+02  0.00000000000E+00 0. -1.
         21   -1    0    0  502  504 -0.00000000000E+00 -0.00000000000E+00 -0.51335188363E+03  0.51335188363E+03  0.00000000000E+00 0.  1.
          6    2    1    2  502    0  0.52899377230E+02  0.34870806335E+02 -0.34245524914E+03  0.38881051414E+03  0.17286902845E+03 0.  0.
         24    2    3    3    0    0 -0.13165852678E+02 -0.27445600743E+02 -0.22114162976E+03  0.23719576076E+03  0.80197305662E+02 0.  0.
         -6    2    1    2    0  503 -0.52899377230E+02 -0.34870806335E+02 -0.89953797297E+02  0.20548420668E+03  0.17354468100E+03 0.  0.
        -24    2    5    5    0    0 -0.50764545154E+02  0.35066599002E+02 -0.13011501101E+02  0.10137846660E+03  0.79382547955E+02 0.  0.
          2    1    4    4  501    0 -0.13097502199E+00  0.23764850608E+02 -0.26899080039E+02  0.35893534039E+02  0.00000000000E+00 0. -1.
         -1    1    4    4    0  501 -0.13034877656E+02 -0.51210451351E+02 -0.19424254972E+03  0.20130222673E+03  0.00000000000E+00 0.  1.
          5    1    3    3  502    0  0.66065229908E+02  0.62316407078E+02 -0.12131361938E+03  0.15161475338E+03  0.47000000000E+01 0. -1.
         11    1    6    6    0    0 -0.11251453787E+02 -0.12217278442E+02  0.24231939298E+02  0.29377610302E+02  0.00000000000E+00 0. -1.
        -12    1    6    6    0    0 -0.39513091366E+02  0.47283877445E+02 -0.37243440400E+02  0.72000856303E+02  0.00000000000E+00 0.  1.
         -5    1    5    5    0  503 -0.21348320759E+01 -0.69937405337E+02 -0.76942296196E+02  0.10410574008E+03  0.47000000000E+01 0.  1.
<mgrwt>
<rscale>  2 0.18458984E+03</rscale>
<asrwt>0</asrwt>
<pdfrwt beam="1">  1       21 0.12452744E-01 0.18474868E+03</pdfrwt>
<pdfrwt beam="2">  1       21 0.78977214E-01 0.18474868E+03</pdfrwt>
<totfact> 0.78014105E+04</totfact>
</mgrwt>
</event>
<event>
12    1  0.1441827E-001  0.2003936E+03  0.7546771E-02  0.1149717E+00
         21   -1    0    0  504  503  0.00000000000E+00  0.00000000000E+00  0.21054588264E+03  0.21054588264E+03  0.00000000000E+00 0.  1.
         21   -1    0    0  502  504 -0.00000000000E+00 -0.00000000000E+00 -0.27413284162E+03  0.27413284162E+03  0.00000000000E+00 0. -1.
          6    2    1    2  502    0  0.56638730542E+02  0.81229582010E+02 -0.16665259784E+03  0.26063515258E+03  0.17421654227E+03 0.  0.
         24    2    3    3    0    0  0.86288318134E+02  0.76871038737E+02 -0.68095869967E+02  0.15751573853E+03  0.82579234282E+02 0.  0.
         -6    2    1    2    0  503 -0.56638730542E+02 -0.81229582010E+02  0.10306563887E+03  0.22404357168E+03  0.17253059237E+03 0.  0.
        -24    2    5    5    0    0  0.25910071679E+02 -0.38413356135E+02  0.97861297480E+01  0.92245655276E+02  0.79161700575E+02 0.  0.
          2    1    4    4  501    0  0.37047296426E+02  0.84219478268E+02 -0.48536983919E+02  0.10402529260E+03  0.00000000000E+00 0. -1.
         -1    1    4    4    0  501  0.49241021708E+02 -0.73484395303E+01 -0.19558886047E+02  0.53490445930E+02  0.00000000000E+00 0.  1.
          5    1    3    3  502    0 -0.29649587593E+02  0.43585432731E+01 -0.98556727878E+02  0.10311941405E+03  0.47000000000E+01 0. -1.
         13    1    6    6    0    0 -0.25420860100E+02 -0.28447887933E+02  0.11749902789E+02  0.39919452296E+02  0.00000000000E+00 0. -1.
        -14    1    6    6    0    0  0.51330931779E+02 -0.99654682015E+01 -0.19637730408E+01  0.52326202980E+02  0.00000000000E+00 0.  1.
         -5    1    5    5    0  503 -0.82548802221E+02 -0.42816225876E+02  0.93279509123E+02  0.13179791640E+03  0.47000000000E+01 0.  1.
<mgrwt>
<rscale>  2 0.20002660E+03</rscale>
<asrwt>0</asrwt>
<pdfrwt beam="1">  1       21 0.32391675E-01 0.20039360E+03</pdfrwt>
<pdfrwt beam="2">  1       21 0.42174283E-01 0.20039360E+03</pdfrwt>
<totfact> 0.49428521E+04</totfact>
</mgrwt>
</event>
<event>
12    1  0.1441827E-001  0.1788742E+03  0.7546771E-02  0.1169180E+00
         21   -1    0    0  504  503  0.00000000000E+00  0.00000000000E+00  0.22882904132E+03  0.22882904132E+03  0.00000000000E+00 0.  1.
         21   -1    0    0  502  504 -0.00000000000E+00 -0.00000000000E+00 -0.21238383675E+03  0.21238383675E+03  0.00000000000E+00 0.  1.
          6    2    1    2  502    0 -0.36409999535E+02  0.30994823767E+02 -0.12153943892E+03  0.21530193617E+03  0.17116285035E+03 0.  0.
         24    2    3    3    0    0  0.87278280893E+01 -0.28373189080E+02 -0.11376857761E+03  0.14017231007E+03  0.76313658144E+02 0.  0.
         -6    2    1    2    0  503  0.36409999535E+02 -0.30994823767E+02  0.13798464349E+03  0.22591094189E+03  0.17236480111E+03 0.  0.
        -24    2    5    5    0    0  0.29022952581E+02  0.48180886010E+02  0.61632405054E+02  0.11557003472E+03  0.79963429268E+02 0.  0.
          2    1    4    4  501    0  0.46263491562E+00 -0.23355746526E+02  0.25078583487E+01  0.23494558527E+02  0.00000000000E+00 0. -1.
         -1    1    4    4    0  501  0.82651931737E+01 -0.50174425542E+01 -0.11627643595E+03  0.11667775155E+03  0.00000000000E+00 0.  1.
          5    1    3    3  502    0 -0.45137827624E+02  0.59368012848E+02 -0.77708613168E+01  0.75129626098E+02  0.47000000000E+01 0. -1.
         13    1    6    6    0    0 -0.10970592360E+02  0.28950006124E+01 -0.14478162961E+02  0.18394350437E+02  0.00000000000E+00 0. -1.
        -14    1    6    6    0    0  0.39993544941E+02  0.45285885397E+02  0.76110568015E+02  0.97175684288E+02  0.00000000000E+00 0.  1.
         -5    1    5    5    0  503  0.73870469538E+01 -0.79175709777E+02  0.76352238432E+02  0.11034090717E+03  0.47000000000E+01 0.  1.
<mgrwt>
<rscale>  2 0.17858405E+03</rscale>
<asrwt>0</asrwt>
<pdfrwt beam="1">  1       21 0.35204468E-01 0.17887423E+03</pdfrwt>
<pdfrwt beam="2">  1       21 0.32674436E-01 0.17887423E+03</pdfrwt>
<totfact> 0.70536699E+04</totfact>
</mgrwt>
</event>
<event>
12    1  0.1441827E-001  0.1788194E+03  0.7546771E-02  0.1169011E+00
         21   -1    0    0  504  503  0.00000000000E+00  0.00000000000E+00  0.43645862103E+02  0.43645862103E+02  0.00000000000E+00 0. -1.
         21   -1    0    0  502  504 -0.00000000000E+00 -0.00000000000E+00 -0.76845964870E+03  0.76845964870E+03  0.00000000000E+00 0. -1.
          6    2    1    2  502    0  0.30390578991E+02 -0.28079062505E+02 -0.27373332804E+03  0.32696528191E+03  0.17396649004E+03 0.  0.
         24    2    3    3    0    0 -0.43819109295E+02 -0.13189418793E+02 -0.18974074001E+03  0.21380334410E+03  0.87271108752E+02 0.  0.
         -6    2    1    2    0  503 -0.30390578991E+02  0.28079062505E+02 -0.45108045856E+03  0.48514022889E+03  0.17371079572E+03 0.  0.
        -24    2    5    5    0    0 -0.50620345404E+02  0.23095404500E+02 -0.12746506234E+03  0.16082079535E+03  0.80747563579E+02 0.  0.
          4    1    4    4  501    0 -0.28796863608E+01 -0.28455555667E+02 -0.12424260417E+02  0.31182903789E+02  0.00000000000E+00 0. -1.
         -3    1    4    4    0  501 -0.40939422934E+02  0.15266136873E+02 -0.17731647959E+03  0.18262044031E+03  0.00000000000E+00 0.  1.
          5    1    3    3  502    0  0.74209688286E+02 -0.14889643712E+02 -0.83992588031E+02  0.11316193781E+03  0.47000000000E+01 0. -1.
         11    1    6    6    0    0 -0.69671470042E+02  0.39327644067E+01 -0.10271885400E+03  0.12418028564E+03  0.00000000000E+00 0. -1.
        -12    1    6    6    0    0  0.19051124637E+02  0.19162640093E+02 -0.24746208333E+02  0.36640509714E+02  0.00000000000E+00 0.  1.
         -5    1    5    5    0  503  0.20229766413E+02  0.49836580052E+01 -0.32361539622E+03  0.32431943354E+03  0.47000000000E+01 0.  1.
<mgrwt>
<rscale>  2 0.17875713E+03</rscale>
<asrwt>0</asrwt>
<pdfrwt beam="1">  1       21 0.67147481E-02 0.17881935E+03</pdfrwt>
<pdfrwt beam="2">  1       21 0.11822456E+00 0.17881935E+03</pdfrwt>
<totfact> 0.89602805E+04</totfact>
</mgrwt>
</event>
<event>
12    1  0.1441827E-001  0.1790645E+03  0.7546771E-02  0.1169164E+00
         21   -1    0    0  504  503  0.00000000000E+00  0.00000000000E+00  0.43069868046E+03  0.43069868046E+03  0.00000000000E+00 0.  1.
         21   -1    0    0  502  504 -0.00000000000E+00 -0.00000000000E+00 -0.23047172277E+03  0.23047172277E+03  0.00000000000E+00 0.  1.
          6    2    1    2  502    0  0.29452762490E+02  0.16859218019E+02 -0.17272073800E+03  0.24746267977E+03  0.17393569528E+03 0.  0.
         24    2    3    3    0    0  0.29181103883E+02 -0.38260595566E+02 -0.37264718084E+02  0.10114558925E+03  0.80785896128E+02 0.  0.
         -6    2    1    2    0  503 -0.29452762490E+02 -0.16859218019E+02  0.37294769568E+03  0.41370772346E+03  0.17581922047E+03 0.  0.
        -24    2    5    5    0    0 -0.41302841833E+02 -0.68305651204E+02  0.17330620682E+03  0.20715028849E+03  0.80651187029E+02 0.  0.
          2    1    4    4  501    0 -0.59669903503E+01 -0.47787644947E+02  0.12042077490E+01  0.48173790589E+02  0.00000000000E+00 0. -1.
         -1    1    4    4    0  501  0.35148094234E+02  0.95270493815E+01 -0.38468925833E+02  0.52971798657E+02  0.00000000000E+00 0.  1.
          5    1    3    3  502    0  0.27165860682E+00  0.55119813585E+02 -0.13545601991E+03  0.14631709052E+03  0.47000000000E+01 0. -1.
         13    1    6    6    0    0 -0.53037326091E+02 -0.25705659543E+02  0.54043691818E+02  0.79965364482E+02  0.00000000000E+00 0. -1.
        -14    1    6    6    0    0  0.11734484258E+02 -0.42599991661E+02  0.11926251500E+03  0.12718492401E+03  0.00000000000E+00 0.  1.
         -5    1    5    5    0  503  0.11850079343E+02  0.51446433185E+02  0.19964148886E+03  0.20655743497E+03  0.47000000000E+01 0.  1.
<mgrwt>
<rscale>  2 0.17860045E+03</rscale>
<asrwt>0</asrwt>
<pdfrwt beam="1">  1       21 0.66261336E-01 0.17906450E+03</pdfrwt>
<pdfrwt beam="2">  1       21 0.35457188E-01 0.17906450E+03</pdfrwt>
<totfact> 0.16166691E+04</totfact>
</mgrwt>
</event>
<event>
12    1  0.1441827E-001  0.2149785E+03  0.7546771E-02  0.1137762E+00
         21   -1    0    0  504  503  0.00000000000E+00  0.00000000000E+00  0.19308938078E+03  0.19308938078E+03  0.00000000000E+00 0.  1.
         21   -1    0    0  502  504 -0.00000000000E+00 -0.00000000000E+00 -0.65411327953E+03  0.65411327953E+03  0.00000000000E+00 0.  1.
          6    2    1    2  502    0 -0.12171866223E+03 -0.34135842350E+02 -0.56808857996E+03  0.60740464987E+03  0.17388238993E+03 0.  0.
         24    2    3    3    0    0 -0.15028717640E+03 -0.30348635739E+02 -0.43739009943E+03  0.47348420427E+03  0.96798334346E+02 0.  0.
         -6    2    1    2    0  503  0.12171866223E+03  0.34135842350E+02  0.10706468122E+03  0.23979801044E+03  0.17337690555E+03 0.  0.
        -24    2    5    5    0    0  0.92045990826E+02 -0.33628992177E+02  0.21655398133E+02  0.12670788769E+03  0.77347003765E+02 0.  0.
          2    1    4    4  501    0  0.53887124573E+01  0.17417578540E+02 -0.37032561928E+02  0.41277365554E+02  0.00000000000E+00 0. -1.
         -1    1    4    4    0  501 -0.15567588886E+03 -0.47766214279E+02 -0.40035753750E+03  0.43220683872E+03  0.00000000000E+00 0.  1.
          5    1    3    3  502    0  0.28568514168E+02 -0.37872066115E+01 -0.13069848053E+03  0.13392044560E+03  0.47000000000E+01 0. -1.
         11    1    6    6    0    0 -0.13066171696E+02 -0.64730408869E+01  0.96433420762E+01  0.17481966351E+02  0.00000000000E+00 0. -1.
        -12    1    6    6    0    0  0.10511216252E+03 -0.27155951290E+02  0.12012056057E+02  0.10922592133E+03  0.00000000000E+00 0.  1.
         -5    1    5    5    0  503  0.29672671405E+02  0.67764834528E+02  0.85409283083E+02  0.11309012275E+03  0.47000000000E+01 0.  1.
<mgrwt>
<rscale>  2 0.21487631E+03</rscale>
<asrwt>0</asrwt>
<pdfrwt beam="1">  1       21 0.29706058E-01 0.21497854E+03</pdfrwt>
<pdfrwt beam="2">  1       21 0.10063281E+00 0.21497854E+03</pdfrwt>
<totfact> 0.86473714E+03</totfact>
</mgrwt>
</event>
<event>
12    1  0.1441827E-001  0.2369654E+03  0.7546771E-02  0.1121907E+00
         21   -1    0    0  504  503  0.00000000000E+00  0.00000000000E+00  0.26252377759E+03  0.26252377759E+03  0.00000000000E+00 0.  1.
         21   -1    0    0  502  504 -0.00000000000E+00 -0.00000000000E+00 -0.74662517215E+03  0.74662517215E+03  0.00000000000E+00 0. -1.
          6    2    1    2  502    0 -0.10254509422E+03  0.12533709889E+03 -0.66836028347E+03  0.70897574149E+03  0.17238401548E+03 0.  0.
         24    2    3    3    0    0 -0.14921787825E+02  0.12222791753E+03 -0.46782561201E+03  0.49006079159E+03  0.78335513187E+02 0.  0.
         -6    2    1    2    0  503  0.10254509422E+03 -0.12533709889E+03  0.18425888891E+03  0.30017320825E+03  0.17299633552E+03 0.  0.
        -24    2    5    5    0    0  0.12890100904E+03 -0.59566540074E+02  0.14983912441E+03  0.22126052967E+03  0.79629240584E+02 0.  0.
          4    1    4    4  501    0 -0.40154762047E+02  0.97469207103E+02 -0.39895502552E+03  0.41264726297E+03  0.00000000000E+00 0. -1.
         -3    1    4    4    0  501  0.25232974222E+02  0.24758710425E+02 -0.68870586483E+02  0.77413528614E+02  0.00000000000E+00 0.  1.
          5    1    3    3  502    0 -0.87623306392E+02  0.31091813580E+01 -0.20053467147E+03  0.21891494991E+03  0.47000000000E+01 0. -1.
         11    1    6    6    0    0 -0.67871617821E+01 -0.20468799159E+02  0.21272176206E+02  0.30290968697E+02  0.00000000000E+00 0. -1.
        -12    1    6    6    0    0  0.13568817083E+03 -0.39097740915E+02  0.12856694821E+03  0.19096956097E+03  0.00000000000E+00 0.  1.
         -5    1    5    5    0  503 -0.26355914828E+02 -0.65770558812E+02  0.34419764502E+02  0.78912678584E+02  0.47000000000E+01 0.  1.
<mgrwt>
<rscale>  2 0.23685369E+03</rscale>
<asrwt>0</asrwt>
<pdfrwt beam="1">  1       21 0.40388274E-01 0.23696543E+03</pdfrwt>
<pdfrwt beam="2">  1       21 0.11486541E+00 0.23696543E+03</pdfrwt>
<totfact> 0.33532841E+03</totfact>
</mgrwt>
</event>
<event>
12    1  0.1441827E-001  0.1916469E+03  0.7546771E-02  0.1157414E+00
         21   -1    0    0  504  503  0.00000000000E+00  0.00000000000E+00  0.16543698270E+04  0.16543698270E+04  0.00000000000E+00 0. -1.
         21   -1    0    0  502  504 -0.00000000000E+00 -0.00000000000E+00 -0.22947185706E+02  0.22947185706E+02  0.00000000000E+00 0. -1.
          6    2    1    2  502    0 -0.43721576343E+02 -0.68832295412E+02  0.63955695604E+03  0.66710610020E+03  0.17131254414E+03 0.  0.
         24    2    3    3    0    0  0.23702127152E+02 -0.87019057451E+02  0.36018529341E+03  0.37910031904E+03  0.76482018227E+02 0.  0.
         -6    2    1    2    0  503  0.43721576343E+02  0.68832295412E+02  0.99186568522E+03  0.10102109125E+04  0.17343324083E+03 0.  0.
        -24    2    5    5    0    0  0.15131659485E+02  0.45440565777E+02  0.94820723087E+03  0.95282879855E+03  0.80572666206E+02 0.  0.
          2    1    4    4  501    0  0.23327012782E+02 -0.87514132615E+02  0.36406992581E+03  0.37516634152E+03  0.00000000000E+00 0. -1.
         -1    1    4    4    0  501  0.37511437031E+00  0.49507516460E+00 -0.38846323978E+01  0.39339775133E+01  0.00000000000E+00 0.  1.
          5    1    3    3  502    0 -0.67423703495E+02  0.18186762039E+02  0.27937166263E+03  0.28800578117E+03  0.47000000000E+01 0. -1.
         13    1    6    6    0    0  0.10839591718E+02  0.64299857121E+02  0.86272401495E+03  0.86518477468E+03  0.00000000000E+00 0. -1.
        -14    1    6    6    0    0  0.42920677666E+01 -0.18859291344E+02  0.85483215920E+02  0.87644023868E+02  0.00000000000E+00 0.  1.
         -5    1    5    5    0  503  0.28589916858E+02  0.23391729635E+02  0.43658454349E+02  0.57382113915E+02  0.47000000000E+01 0.  1.
<mgrwt>
<rscale>  2 0.19116588E+03</rscale>
<asrwt>0</asrwt>
<pdfrwt beam="1">  1       21 0.25451834E+00 0.19164694E+03</pdfrwt>
<pdfrwt beam="2">  1       21 0.35303376E-02 0.19164694E+03</pdfrwt>
<totfact> 0.30229128E+04</totfact>
</mgrwt>
</event>
<event>
12    1  0.1441827E-001  0.3310479E+03  0.7546771E-02  0.1070701E+00
         21   -1    0    0  504  503  0.00000000000E+00  0.00000000000E+00  0.11500438888E+04  0.11500438888E+04  0.00000000000E+00 0.  1.
         21   -1    0    0  502  504 -0.00000000000E+00 -0.00000000000E+00 -0.17171105984E+03  0.17171105984E+03  0.00000000000E+00 0. -1.
          6    2    1    2  502    0  0.13072015097E+03 -0.25010785484E+03  0.47987635142E+02  0.33426576854E+03  0.17259517366E+03 0.  0.
         24    2    3    3    0    0  0.16237346671E+03 -0.22259223847E+03  0.52073227289E+02  0.29186501849E+03  0.81000745056E+02 0.  0.
         -6    2    1    2    0  503 -0.13072015097E+03  0.25010785484E+03  0.93034519386E+03  0.98748918015E+03  0.17306358437E+03 0.  0.
        -24    2    5    5    0    0 -0.25777017897E+02  0.16151381472E+03  0.62268290146E+03  0.65053199994E+03  0.93309807521E+02 0.  0.
          4    1    4    4  501    0  0.11563279748E+03 -0.20782251634E+03  0.37804513998E+02  0.24081180085E+03  0.00000000000E+00 0. -1.
         -3    1    4    4    0  501  0.46740669233E+02 -0.14769722125E+02  0.14268713291E+02  0.51053217636E+02  0.00000000000E+00 0.  1.
          5    1    3    3  502    0 -0.31653315744E+02 -0.27515616371E+02 -0.40855921473E+01  0.42400750054E+02  0.47000000000E+01 0. -1.
         11    1    6    6    0    0  0.15738895009E+02  0.15027241352E+02  0.22355354779E+02  0.31197639110E+02  0.00000000000E+00 0. -1.
        -12    1    6    6    0    0 -0.41515912906E+02  0.14648657337E+03  0.60032754669E+03  0.61933436083E+03  0.00000000000E+00 0.  1.
         -5    1    5    5    0  503 -0.10494313307E+03  0.88594040123E+02  0.30766229240E+03  0.33695718020E+03  0.47000000000E+01 0.  1.
<mgrwt>
<rscale>  2 0.33098671E+03</rscale>
<asrwt>0</asrwt>
<pdfrwt beam="1">  1       21 0.17692982E+00 0.33104788E+03</pdfrwt>
<pdfrwt beam="2">  1       21 0.26417087E-01 0.33104788E+03</pdfrwt>
<totfact> 0.23486486E+03</totfact>
</mgrwt>
</event>
<event>
12    1  0.1441827E-001  0.1778554E+03  0.7546771E-02  0.1170375E+00
         21   -1    0    0  504  503  0.00000000000E+00  0.00000000000E+00  0.20476614974E+02  0.20476614974E+02  0.00000000000E+00 0.  1.
         21   -1    0    0  502  504 -0.00000000000E+00 -0.00000000000E+00 -0.16116737625E+04  0.16116737625E+04  0.00000000000E+00 0.  1.
          6    2    1    2  502    0  0.28873161666E+02  0.19841627712E+02 -0.61379700326E+03  0.63904562131E+03  0.17437085553E+03 0.  0.
         24    2    3    3    0    0  0.76227593892E+02  0.26134746367E+02 -0.28078387095E+03  0.30259074784E+03  0.78917092289E+02 0.  0.
         -6    2    1    2    0  503 -0.28873161666E+02 -0.19841627712E+02 -0.97740014431E+03  0.99310475620E+03  0.17239102366E+03 0.  0.
        -24    2    5    5    0    0  0.53374766065E+00 -0.64924465060E+02 -0.82392747473E+03  0.83039895161E+03  0.80563417087E+02 0.  0.
          2    1    4    4  501    0  0.46517985558E+01  0.23026790631E+01  0.48856337724E+01  0.71281819582E+01  0.00000000000E+00 0. -1.
         -1    1    4    4    0  501  0.71575795336E+02  0.23832067304E+02 -0.28566950472E+03  0.29546256589E+03  0.00000000000E+00 0.  1.
          5    1    3    3  502    0 -0.47354432226E+02 -0.62931186555E+01 -0.33301313231E+03  0.33645487347E+03  0.47000000000E+01 0. -1.
         13    1    6    6    0    0  0.38869611324E+02 -0.28611713472E+02 -0.30547148758E+03  0.30926090370E+03  0.00000000000E+00 0. -1.
        -14    1    6    6    0    0 -0.38335863663E+02 -0.36312751588E+02 -0.51845598714E+03  0.52113804791E+03  0.00000000000E+00 0.  1.
         -5    1    5    5    0  503 -0.29406909326E+02  0.45082837348E+02 -0.15347266959E+03  0.16270580460E+03  0.47000000000E+01 0.  1.
<mgrwt>
<rscale>  2 0.17736825E+03</rscale>
<asrwt>0</asrwt>
<pdfrwt beam="1">  1       21 0.31502473E-02 0.17785540E+03</pdfrwt>
<pdfrwt beam="2">  1       21 0.24794990E+00 0.17785540E+03</pdfrwt>
<totfact> 0.40374988E+04</totfact>
</mgrwt>
</event>
<event>
12    1  0.1441827E-001  0.2132636E+03  0.7546771E-02  0.1139835E+00
         21   -1    0    0  504  503  0.00000000000E+00  0.00000000000E+00  0.25452683361E+04  0.25452683361E+04  0.00000000000E+00 0. -1.
         21   -1    0    0  502  504 -0.00000000000E+00 -0.00000000000E+00 -0.21281855686E+02  0.21281855686E+02  0.00000000000E+00 0.  1.
          6    2    1    2  502    0  0.73013545948E+02  0.92690569438E+02  0.17913294207E+04  0.18034855000E+04  0.17255820910E+03 0.  0.
         24    2    3    3    0    0 -0.20133627774E+02  0.78166156868E+02  0.89987719976E+03  0.90705005512E+03  0.80283976003E+02 0.  0.
         -6    2    1    2    0  503 -0.73013545948E+02 -0.92690569438E+02  0.73265705974E+03  0.76306469186E+03  0.17764807125E+03 0.  0.
        -24    2    5    5    0    0  0.56062263358E+01 -0.50397025857E+02  0.19123639219E+03  0.21431316186E+03  0.82386186101E+02 0.  0.
          4    1    4    4  501    0 -0.20448385221E+02  0.55377397510E+00  0.56139974027E+02  0.59750646921E+02  0.00000000000E+00 0. -1.
         -3    1    4    4    0  501  0.31475744667E+00  0.77612382893E+02  0.84373722574E+03  0.84729940820E+03  0.00000000000E+00 0.  1.
          5    1    3    3  502    0  0.93147173722E+02  0.14524412570E+02  0.89145222094E+03  0.89643544483E+03  0.47000000000E+01 0. -1.
         11    1    6    6    0    0  0.16680824037E+02  0.57730215850E+01  0.12718672241E+03  0.12840576321E+03  0.00000000000E+00 0. -1.
        -12    1    6    6    0    0 -0.11074597701E+02 -0.56170047442E+02  0.64049669784E+02  0.85907398653E+02  0.00000000000E+00 0.  1.
         -5    1    5    5    0  503 -0.78619772284E+02 -0.42293543581E+02  0.54142066755E+03  0.54875152999E+03  0.47000000000E+01 0.  1.
<mgrwt>
<rscale>  2 0.21220044E+03</rscale>
<asrwt>0</asrwt>
<pdfrwt beam="1">  1       21 0.39157950E+00 0.21326359E+03</pdfrwt>
<pdfrwt beam="2">  1       21 0.32741337E-02 0.21326359E+03</pdfrwt>
<totfact> 0.52369257E+03</totfact>
</mgrwt>
</event>
<event>
12    1  0.1441827E-001  0.3079939E+03  0.7546771E-02  0.1081354E+00
         21   -1    0    0  504  503  0.00000000000E+00  0.00000000000E+00  0.61513861872E+02  0.61513861872E+02  0.00000000000E+00 0.  1.
         21   -1    0    0  502  504 -0.00000000000E+00 -0.00000000000E+00 -0.17886300374E+04  0.17886300374E+04  0.00000000000E+00 0. -1.
          6    2    1    2  502    0 -0.25148794393E+03 -0.40189702982E+02 -0.12077966646E+04  0.12463616376E+04  0.17257795487E+03 0.  0.
         24    2    3    3    0    0 -0.47526993706E+02 -0.43541827487E+02 -0.41595474908E+03  0.42865324513E+03  0.81058900833E+02 0.  0.
         -6    2    1    2    0  503  0.25148794393E+03  0.40189702982E+02 -0.51931951094E+03  0.60378226168E+03  0.17320180976E+03 0.  0.
        -24    2    5    5    0    0  0.61696038442E+02  0.10466333476E+02 -0.27451283119E+03  0.29256393553E+03  0.79501047694E+02 0.  0.
          4    1    4    4  501    0 -0.30796994369E+02 -0.66360934368E+02 -0.25745471658E+03  0.26764745387E+03  0.00000000000E+00 0. -1.
         -3    1    4    4    0  501 -0.16729999336E+02  0.22819106882E+02 -0.15850003250E+03  0.16100579126E+03  0.00000000000E+00 0.  1.
          5    1    3    3  502    0 -0.20396095023E+03  0.33521245042E+01 -0.79184191552E+03  0.81770839248E+03  0.47000000000E+01 0. -1.
         11    1    6    6    0    0  0.31801508716E+02  0.43340132993E+02 -0.18465095437E+03  0.19231660884E+03  0.00000000000E+00 0. -1.
        -12    1    6    6    0    0  0.29894529725E+02 -0.32873799517E+02 -0.89861876824E+02  0.10024732669E+03  0.00000000000E+00 0.  1.
         -5    1    5    5    0  503  0.18979190549E+03  0.29723369506E+02 -0.24480667974E+03  0.31121832615E+03  0.47000000000E+01 0.  1.
<mgrwt>
<rscale>  2 0.30790630E+03</rscale>
<asrwt>0</asrwt>
<pdfrwt beam="1">  1       21 0.94636725E-02 0.30799394E+03</pdfrwt>
<pdfrwt beam="2">  1       21 0.27517381E+00 0.30799394E+03</pdfrwt>
<totfact> 0.38314231E+03</totfact>
</mgrwt>
</event>
<event>
12    1  0.1441827E-001  0.2384045E+03  0.7546771E-02  0.1120942E+00
         21   -1    0    0  504  503  0.00000000000E+00  0.00000000000E+00  0.43136570137E+02  0.43136570137E+02  0.00000000000E+00 0. -1.
         21   -1    0    0  502  504 -0.00000000000E+00 -0.00000000000E+00 -0.17792602127E+04  0.17792602127E+04  0.00000000000E+00 0.  1.
          6    2    1    2  502    0  0.15841450297E+03  0.38399602388E+02 -0.13329004175E+04  0.13539678205E+04  0.17330796808E+03 0.  0.
         24    2    3    3    0    0  0.15900589208E+03  0.58341516279E+02 -0.84525793554E+03  0.86589476257E+03  0.81401204098E+02 0.  0.
         -6    2    1    2    0  503 -0.15841450297E+03 -0.38399602388E+02 -0.40322322508E+03  0.46842896234E+03  0.17397424896E+03 0.  0.
        -24    2    5    5    0    0 -0.12730713637E+03  0.13715301309E+02 -0.16860200142E+03  0.22603911100E+03  0.79194875819E+02 0.  0.
          2    1    4    4  501    0  0.12129114563E+03  0.22659249038E+02 -0.42838698181E+03  0.44580308406E+03  0.00000000000E+00 0. -1.
         -1    1    4    4    0  501  0.37714746457E+02  0.35682267241E+02 -0.41687095373E+03  0.42009167851E+03  0.00000000000E+00 0.  1.
          5    1    3    3  502    0 -0.59138911325E+00 -0.19941913891E+02 -0.48764248195E+03  0.48807305792E+03  0.47000000000E+01 0. -1.
         11    1    6    6    0    0 -0.10172746847E+03  0.30456141123E+01 -0.17016725514E+03  0.19827921810E+03  0.00000000000E+00 0. -1.
        -12    1    6    6    0    0 -0.25579667895E+02  0.10669687197E+02  0.15652537193E+01  0.27759892898E+02  0.00000000000E+00 0.  1.
         -5    1    5    5    0  503 -0.31107366601E+02 -0.52114903697E+02 -0.23462122366E+03  0.24238985135E+03  0.47000000000E+01 0.  1.
<mgrwt>
<rscale>  2 0.23828300E+03</rscale>
<asrwt>0</asrwt>
<pdfrwt beam="1">  1       21 0.66363955E-02 0.23840454E+03</pdfrwt>
<pdfrwt beam="2">  1       21 0.27373234E+00 0.23840454E+03</pdfrwt>
<totfact> 0.76789200E+03</totfact>
</mgrwt>
</event>
<event>
12    1  0.1441827E-001  0.1981873E+03  0.7546771E-02  0.1151609E+00
         21   -1    0    0  504  503  0.00000000000E+00  0.00000000000E+00  0.36030573366E+03  0.36030573366E+03  0.00000000000E+00 0. -1.
         21   -1    0    0  502  504 -0.00000000000E+00 -0.00000000000E+00 -0.15360856749E+03  0.15360856749E+03  0.00000000000E+00 0.  1.
          6    2    1    2  502    0 -0.70831101808E+02 -0.71152139221E+02 -0.36697994670E+02  0.20003625352E+03  0.16908012305E+03 0.  0.
         24    2    3    3    0    0 -0.70687740078E+02 -0.88088001367E+02 -0.74624994602E+02  0.15823444372E+03  0.81932879708E+02 0.  0.
         -6    2    1    2    0  503  0.70831101808E+02  0.71152139221E+02  0.24339516084E+03  0.31387804763E+03  0.17087583962E+03 0.  0.
        -24    2    5    5    0    0  0.10150634987E+03  0.70039863250E+02  0.13169752121E+03  0.19794418416E+03  0.81415854972E+02 0.  0.
          4    1    4    4  501    0 -0.38344070489E+02 -0.76820980808E+02 -0.11780941807E+02  0.86663264558E+02  0.00000000000E+00 0. -1.
         -3    1    4    4    0  501 -0.32343669589E+02 -0.11267020560E+02 -0.62844052795E+02  0.71571179161E+02  0.00000000000E+00 0.  1.
          5    1    3    3  502    0 -0.14336173073E+00  0.16935862146E+02  0.37926999932E+02  0.41801809806E+02  0.47000000000E+01 0. -1.
         13    1    6    6    0    0 -0.69804389903E+01 -0.43645217747E+01  0.31563847431E+02  0.32619810598E+02  0.00000000000E+00 0. -1.
        -14    1    6    6    0    0  0.10848678886E+03  0.74404385024E+02  0.10013367378E+03  0.16532437356E+03  0.00000000000E+00 0.  1.
         -5    1    5    5    0  503 -0.30675248062E+02  0.11122759715E+01  0.11169763963E+03  0.11593386348E+03  0.47000000000E+01 0.  1.
<mgrwt>
<rscale>  2 0.19779967E+03</rscale>
<asrwt>0</asrwt>
<pdfrwt beam="1">  1       21 0.55431651E-01 0.19818735E+03</pdfrwt>
<pdfrwt beam="2">  1       21 0.23632087E-01 0.19818735E+03</pdfrwt>
<totfact> 0.51585627E+04</totfact>
</mgrwt>
</event>
<event>
12    1  0.1441827E-001  0.2034997E+03  0.7546771E-02  0.1147055E+00
         21   -1    0    0  504  503  0.00000000000E+00  0.00000000000E+00  0.19552232047E+03  0.19552232047E+03  0.00000000000E+00 0.  1.
         21   -1    0    0  502  504 -0.00000000000E+00 -0.00000000000E+00 -0.21468120938E+03  0.21468120938E+03  0.00000000000E+00 0. -1.
          6    2    1    2  502    0 -0.96967267617E+02  0.41801639382E+02 -0.37763099782E+02  0.20585517862E+03  0.17262756099E+03 0.  0.
         24    2    3    3    0    0 -0.41045111419E+02 -0.42275701367E+02 -0.29964668000E+02  0.10446882688E+03  0.80894489078E+02 0.  0.
         -6    2    1    2    0  503  0.96967267617E+02 -0.41801639382E+02  0.18604210865E+02  0.20434835123E+03  0.17396006423E+03 0.  0.
        -24    2    5    5    0    0  0.26498170843E+02 -0.84287834596E+02  0.44263580944E+01  0.12071778330E+03  0.82137679778E+02 0.  0.
          4    1    4    4  501    0 -0.62854472113E+02 -0.20226419481E+02 -0.81014534890E+01  0.66523877354E+02  0.00000000000E+00 0. -1.
         -3    1    4    4    0  501  0.21809360693E+02 -0.22049281886E+02 -0.21863214511E+02  0.37944949523E+02  0.00000000000E+00 0.  1.
          5    1    3    3  502    0 -0.55922156198E+02  0.84077340749E+02 -0.77984317819E+01  0.10138635174E+03  0.47000000000E+01 0. -1.
         11    1    6    6    0    0  0.51539108282E+02 -0.80053719941E+02  0.23855229016E+01  0.95239532120E+02  0.00000000000E+00 0. -1.
        -12    1    6    6    0    0 -0.25040937439E+02 -0.42341146551E+01  0.20408351928E+01  0.25478251177E+02  0.00000000000E+00 0.  1.
         -5    1    5    5    0  503  0.70469096774E+02  0.42486195215E+02  0.14177852771E+02  0.83630567935E+02  0.47000000000E+01 0.  1.
<mgrwt>
<rscale>  2 0.20321464E+03</rscale>
<asrwt>0</asrwt>
<pdfrwt beam="1">  1       21 0.30080357E-01 0.20349971E+03</pdfrwt>
<pdfrwt beam="2">  1       21 0.33027878E-01 0.20349971E+03</pdfrwt>
<totfact> 0.93145110E+04</totfact>
</mgrwt>
</event>
<event>
12    1  0.1441827E-001  0.1767443E+03  0.7546771E-02  0.1171252E+00
         21   -1    0    0  504  503  0.00000000000E+00  0.00000000000E+00  0.10052736676E+04  0.10052736676E+04  0.00000000000E+00 0.  1.
         21   -1    0    0  502  504 -0.00000000000E+00 -0.00000000000E+00 -0.38674198060E+02  0.38674198060E+02  0.00000000000E+00 0.  1.
          6    2    1    2  502    0 -0.30829233879E+02 -0.17729815896E+02  0.25027939761E+03  0.30639569003E+03  0.17312929840E+03 0.  0.
         24    2    3    3    0    0 -0.26913184485E+02 -0.74952597801E+02  0.19163840842E+03  0.22423342481E+03  0.84930193715E+02 0.  0.
         -6    2    1    2    0  503  0.30829233879E+02  0.17729815896E+02  0.71632007193E+03  0.73755217563E+03  0.17205806666E+03 0.  0.
        -24    2    5    5    0    0 -0.35111162528E+02 -0.52582376826E+01  0.46411401845E+03  0.47581457823E+03  0.98677494569E+02 0.  0.
          4    1    4    4  501    0  0.17272377658E+02 -0.36738794193E+02  0.14163238606E+03  0.14733569428E+03  0.00000000000E+00 0. -1.
         -3    1    4    4    0  501 -0.44185562143E+02 -0.38213803608E+02  0.50006022358E+02  0.76897730526E+02  0.00000000000E+00 0.  1.
          5    1    3    3  502    0 -0.39160493940E+01  0.57222781906E+02  0.58640989195E+02  0.82162265218E+02  0.47000000000E+01 0. -1.
         13    1    6    6    0    0  0.24136809157E+02 -0.14578322873E+02  0.50196295427E+02  0.57574135935E+02  0.00000000000E+00 0. -1.
        -14    1    6    6    0    0 -0.59247971684E+02  0.93200851901E+01  0.41391772302E+03  0.41824044229E+03  0.00000000000E+00 0.  1.
         -5    1    5    5    0  503  0.65940396407E+02  0.22988053578E+02  0.25220605347E+03  0.26173759740E+03  0.47000000000E+01 0.  1.
<mgrwt>
<rscale>  2 0.17648140E+03</rscale>
<asrwt>0</asrwt>
<pdfrwt beam="1">  1       21 0.15465747E+00 0.17674428E+03</pdfrwt>
<pdfrwt beam="2">  1       21 0.59498774E-02 0.17674428E+03</pdfrwt>
<totfact> 0.55640114E+04</totfact>
</mgrwt>
</event>
<event>
12    1  0.1441827E-001  0.1848474E+03  0.7546771E-02  0.1165317E+00
         21   -1    0    0  504  503  0.00000000000E+00  0.00000000000E+00  0.23703695106E+03  0.23703695106E+03  0.00000000000E+00 0. -1.
         21   -1    0    0  502  504 -0.00000000000E+00 -0.00000000000E+00 -0.45253169874E+03  0.45253169874E+03  0.00000000000E+00 0. -1.
          6    2    1    2  502    0 -0.12902390695E+02 -0.20027505383E+02 -0.39467136838E+03  0.43213359757E+03  0.17437426552E+03 0.  0.
         24    2    3    3    0    0 -0.10963676465E+02 -0.27174576155E+02 -0.40795052757E+03  0.41621928633E+03  0.77176431507E+02 0.  0.
         -6    2    1    2    0  503  0.12902390695E+02  0.20027505383E+02  0.17917662071E+03  0.25743505223E+03  0.18330567927E+03 0.  0.
        -24    2    5    5    0    0 -0.96132639565E+01 -0.58268056930E+02  0.12347966484E+03  0.15863530185E+03  0.80189463535E+02 0.  0.
          2    1    4    4  501    0  0.52141246280E+00 -0.23852777676E+02 -0.40228000580E+03  0.40298688557E+03  0.00000000000E+00 0. -1.
         -1    1    4    4    0  501 -0.11485088927E+02 -0.33217984787E+01 -0.56705217670E+01  0.13232400762E+02  0.00000000000E+00 0.  1.
          5    1    3    3  502    0 -0.19387142308E+01  0.71470707711E+01  0.13279159190E+02  0.15914311240E+02  0.47000000000E+01 0. -1.
         11    1    6    6    0    0  0.23270852413E+02 -0.12219195163E+02  0.88013270429E+02  0.91854107551E+02  0.00000000000E+00 0. -1.
        -12    1    6    6    0    0 -0.32884116369E+02 -0.46048861767E+02  0.35466394407E+02  0.66781194297E+02  0.00000000000E+00 0.  1.
         -5    1    5    5    0  503  0.22515654652E+02  0.78295562313E+02  0.55696955870E+02  0.98799750382E+02  0.47000000000E+01 0.  1.
<mgrwt>
<rscale>  2 0.18259317E+03</rscale>
<asrwt>0</asrwt>
<pdfrwt beam="1">  1       21 0.36467223E-01 0.18484736E+03</pdfrwt>
<pdfrwt beam="2">  1       21 0.69620261E-01 0.18484736E+03</pdfrwt>
<totfact> 0.13668059E+04</totfact>
</mgrwt>
</event>
<event>
12    1  0.1441827E-001  0.5034383E+03  0.7546771E-02  0.1012909E+00
         21   -1    0    0  504  503  0.00000000000E+00  0.00000000000E+00  0.64788540106E+03  0.64788540106E+03  0.00000000000E+00 0.  1.
         21   -1    0    0  502  504 -0.00000000000E+00 -0.00000000000E+00 -0.71879813886E+03  0.71879813886E+03  0.00000000000E+00 0. -1.
          6    2    1    2  502    0  0.16334150021E+03  0.44329432812E+03 -0.49697195377E+03  0.70715599554E+03  0.17291087924E+03 0.  0.
         24    2    3    3    0    0  0.48401392423E+02  0.21620550674E+03 -0.16002407930E+03  0.28485690570E+03  0.80300901820E+02 0.  0.
         -6    2    1    2    0  503 -0.16334150021E+03 -0.44329432812E+03  0.42605921598E+03  0.65952754438E+03  0.17395349734E+03 0.  0.
        -24    2    5    5    0    0 -0.13962327515E+02 -0.21210005520E+03  0.17497028793E+03  0.28692498285E+03  0.80808193401E+02 0.  0.
          2    1    4    4  501    0  0.51798819185E+02  0.21597163010E+03 -0.16647503664E+03  0.27756224618E+03  0.00000000000E+00 0. -1.
         -1    1    4    4    0  501 -0.33974267615E+01  0.23387663814E+00  0.64509573408E+01  0.72946595187E+01  0.00000000000E+00 0.  1.
          5    1    3    3  502    0  0.11494010779E+03  0.22708882138E+03 -0.33694787447E+03  0.42229908985E+03  0.47000000000E+01 0. -1.
         13    1    6    6    0    0 -0.89495312615E+01 -0.13890855077E+03  0.62363047191E+02  0.15252812607E+03  0.00000000000E+00 0. -1.
        -14    1    6    6    0    0 -0.50127962536E+01 -0.73191504436E+02  0.11260724074E+03  0.13439685679E+03  0.00000000000E+00 0.  1.
         -5    1    5    5    0  503 -0.14937917270E+03 -0.23119427292E+03  0.25108892805E+03  0.37260256152E+03  0.47000000000E+01 0.  1.
<mgrwt>
<rscale>  2 0.50334845E+03</rscale>
<asrwt>0</asrwt>
<pdfrwt beam="1">  1       21 0.99674677E-01 0.50343830E+03</pdfrwt>
<pdfrwt beam="2">  1       21 0.11058433E+00 0.50343830E+03</pdfrwt>
<totfact> 0.43486231E+02</totfact>
</mgrwt>
</event>
<event>
12    1  0.1441827E-001  0.1838790E+03  0.7546771E-02  0.1164300E+00
         21   -1    0    0  504  503  0.00000000000E+00  0.00000000000E+00  0.94135206129E+02  0.94135206129E+02  0.00000000000E+00 0.  1.
         21   -1    0    0  502  504 -0.00000000000E+00 -0.00000000000E+00 -0.43136830943E+03  0.43136830943E+03  0.00000000000E+00 0.  1.
          6    2    1    2  502    0  0.17262649615E+00  0.61776976797E+02 -0.27699910171E+03  0.33201028639E+03  0.17229597575E+03 0.  0.
         24    2    3    3    0    0 -0.62477899258E+02  0.28213043428E+02 -0.21398206675E+03  0.23690580335E+03  0.75077100726E+02 0.  0.
         -6    2    1    2    0  503 -0.17262649615E+00 -0.61776976797E+02 -0.60234001594E+02  0.19349322917E+03  0.17319084885E+03 0.  0.
        -24    2    5    5    0    0 -0.75674360984E+00  0.30845384601E+02 -0.51121939121E+01  0.85605571367E+02  0.79687947083E+02 0.  0.
          4    1    4    4  501    0 -0.32552012989E+02 -0.20216553279E+02 -0.12936084715E+03  0.13491690536E+03  0.00000000000E+00 0. -1.
         -3    1    4    4    0  501 -0.29925886269E+02  0.48429596707E+02 -0.84621219597E+02  0.10198889799E+03  0.00000000000E+00 0.  1.
          5    1    3    3  502    0  0.62650525755E+02  0.33563933369E+02 -0.63017034961E+02  0.95104483048E+02  0.47000000000E+01 0. -1.
         13    1    6    6    0    0  0.60859778243E+01  0.24390064908E+02 -0.41226592820E+02  0.48286088554E+02  0.00000000000E+00 0. -1.
        -14    1    6    6    0    0 -0.68427214341E+01  0.64553196929E+01  0.36114398908E+02  0.37319482813E+02  0.00000000000E+00 0.  1.
         -5    1    5    5    0  503  0.58411711368E+00 -0.92622361398E+02 -0.55121807682E+02  0.10788765780E+03  0.47000000000E+01 0.  1.
<mgrwt>
<rscale>  2 0.18366801E+03</rscale>
<asrwt>0</asrwt>
<pdfrwt beam="1">  1       21 0.14482339E-01 0.18387902E+03</pdfrwt>
<pdfrwt beam="2">  1       21 0.66364355E-01 0.18387902E+03</pdfrwt>
<totfact> 0.87407643E+04</totfact>
</mgrwt>
</event>
<event>
12    1  0.1441827E-001  0.1908840E+03  0.7546771E-02  0.1158638E+00
         21   -1    0    0  504  503  0.00000000000E+00  0.00000000000E+00  0.42637582772E+02  0.42637582772E+02  0.00000000000E+00 0.  1.
         21   -1    0    0  502  504 -0.00000000000E+00 -0.00000000000E+00 -0.11725147287E+04  0.11725147287E+04  0.00000000000E+00 0. -1.
          6    2    1    2  502    0  0.76202827194E+02  0.25866669242E+02 -0.89521829528E+03  0.91534282528E+03  0.17309169862E+03 0.  0.
         24    2    3    3    0    0  0.23471588153E+02 -0.21298728657E+01 -0.78933227516E+03  0.79369444182E+03  0.79686727615E+02 0.  0.
         -6    2    1    2    0  503 -0.76202827194E+02 -0.25866669242E+02 -0.23465885060E+03  0.29980948614E+03  0.16835972312E+03 0.  0.
        -24    2    5    5    0    0 -0.20365009097E+01  0.35084120735E+02 -0.90097056494E+02  0.12621269738E+03  0.81099460717E+02 0.  0.
          4    1    4    4  501    0  0.49228646870E+02  0.12393728390E+02 -0.59013298899E+03  0.59231242505E+03  0.00000000000E+00 0. -1.
         -3    1    4    4    0  501 -0.25757058716E+02 -0.14523601256E+02 -0.19919928617E+03  0.20138201677E+03  0.00000000000E+00 0.  1.
          5    1    3    3  502    0  0.52731239040E+02  0.27996542107E+02 -0.10588602013E+03  0.12164838346E+03  0.47000000000E+01 0. -1.
         13    1    6    6    0    0  0.57200266100E+01  0.15840925514E+02 -0.10126108869E+03  0.10265213932E+03  0.00000000000E+00 0. -1.
        -14    1    6    6    0    0 -0.77565275197E+01  0.19243195220E+02  0.11164032192E+02  0.23560558063E+02  0.00000000000E+00 0.  1.
         -5    1    5    5    0  503 -0.74166326284E+02 -0.60950789977E+02 -0.14456179410E+03  0.17359678876E+03  0.47000000000E+01 0.  1.
<mgrwt>
<rscale>  2 0.18980480E+03</rscale>
<asrwt>0</asrwt>
<pdfrwt beam="1">  1       21 0.65596288E-02 0.19088397E+03</pdfrwt>
<pdfrwt beam="2">  1       21 0.18038686E+00 0.19088397E+03</pdfrwt>
<totfact> 0.30637721E+04</totfact>
</mgrwt>
</event>
<event>
12    1  0.1441827E-001  0.2795743E+03  0.7546771E-02  0.1095985E+00
         21   -1    0    0  504  503  0.00000000000E+00  0.00000000000E+00  0.14238232584E+03  0.14238232584E+03  0.00000000000E+00 0.  1.
         21   -1    0    0  502  504 -0.00000000000E+00 -0.00000000000E+00 -0.54827538209E+03  0.54827538209E+03  0.00000000000E+00 0. -1.
          6    2    1    2  502    0  0.13247402359E+03 -0.17542803566E+03 -0.20972158298E+03  0.34912438736E+03  0.17198933938E+03 0.  0.
         24    2    3    3    0    0  0.16434087389E+03 -0.16106610439E+03 -0.18343252593E+03  0.30513614191E+03  0.80686806320E+02 0.  0.
         -6    2    1    2    0  503 -0.13247402359E+03  0.17542803566E+03 -0.19617147326E+03  0.34153332057E+03  0.17273505584E+03 0.  0.
        -24    2    5    5    0    0 -0.12801343872E+03  0.65580241742E+02 -0.90803060378E+02  0.18918166459E+03  0.82802764705E+02 0.  0.
          2    1    4    4  501    0  0.17086469855E+02 -0.37426455403E+02 -0.26658474626E+01  0.41228555139E+02  0.00000000000E+00 0. -1.
         -1    1    4    4    0  501  0.14725440403E+03 -0.12363964899E+03 -0.18076667847E+03  0.26390758677E+03  0.00000000000E+00 0.  1.
          5    1    3    3  502    0 -0.31866850299E+02 -0.14361931269E+02 -0.26289057047E+02  0.43988245454E+02  0.47000000000E+01 0. -1.
         11    1    6    6    0    0 -0.47283145114E+02 -0.65949456001E+01 -0.59843308140E+02  0.76553318991E+02  0.00000000000E+00 0. -1.
        -12    1    6    6    0    0 -0.80730293606E+02  0.72175187342E+02 -0.30959752238E+02  0.11262834560E+03  0.00000000000E+00 0.  1.
         -5    1    5    5    0  503 -0.44605848681E+01  0.10984779392E+03 -0.10536841288E+03  0.15235165598E+03  0.47000000000E+01 0.  1.
<mgrwt>
<rscale>  2 0.27945915E+03</rscale>
<asrwt>0</asrwt>
<pdfrwt beam="1">  1       21 0.21904974E-01 0.27957425E+03</pdfrwt>
<pdfrwt beam="2">  1       21 0.84350056E-01 0.27957425E+03</pdfrwt>
<totfact> 0.22704148E+04</totfact>
</mgrwt>
</event>
<event>
12    1  0.1441827E-001  0.2129620E+03  0.7546771E-02  0.1142326E+00
         21   -1    0    0  504  503  0.00000000000E+00  0.00000000000E+00  0.24961232902E+03  0.24961232902E+03  0.00000000000E+00 0. -1.
         21   -1    0    0  502  504 -0.00000000000E+00 -0.00000000000E+00 -0.34318265561E+03  0.34318265561E+03  0.00000000000E+00 0. -1.
          6    2    1    2  502    0  0.89328975482E+02 -0.26382914454E+02 -0.25878155147E+03  0.33514283880E+03  0.19151268099E+03 0.  0.
         24    2    3    3    0    0  0.12119730189E+03 -0.67491114641E+02 -0.17507325578E+03  0.23647854375E+03  0.77637749991E+02 0.  0.
         -6    2    1    2    0  503 -0.89328975482E+02  0.26382914454E+02  0.16521122488E+03  0.25765214583E+03  0.17439654638E+03 0.  0.
        -24    2    5    5    0    0 -0.12652810990E+03  0.36553194203E+02  0.11382857456E+03  0.19323571202E+03  0.83890389259E+02 0.  0.
          4    1    4    4  501    0  0.13115185300E+03 -0.61804980038E+02 -0.17127648773E+03  0.22440209302E+03  0.00000000000E+00 0. -1.
         -3    1    4    4    0  501 -0.99545511110E+01 -0.56861346031E+01 -0.37967680469E+01  0.12076450726E+02  0.00000000000E+00 0.  1.
          5    1    3    3  502    0 -0.31868326406E+02  0.41108200187E+02 -0.83708295688E+02  0.98664295049E+02  0.47000000000E+01 0. -1.
         13    1    6    6    0    0 -0.11854804626E+03  0.58920066890E+02  0.95387386929E+02  0.16316852374E+03  0.00000000000E+00 0. -1.
        -14    1    6    6    0    0 -0.79800636413E+01 -0.22366872687E+02  0.18441187633E+02  0.30067188276E+02  0.00000000000E+00 0.  1.
         -5    1    5    5    0  503  0.37199134422E+02 -0.10170279748E+02  0.51382650314E+02  0.64416433813E+02  0.47000000000E+01 0.  1.
<mgrwt>
<rscale>  2 0.20904255E+03</rscale>
<asrwt>0</asrwt>
<pdfrwt beam="1">  1       21 0.38401897E-01 0.21296204E+03</pdfrwt>
<pdfrwt beam="2">  1       21 0.52797331E-01 0.21296204E+03</pdfrwt>
<totfact> 0.21972403E+04</totfact>
</mgrwt>
</event>
<event>
12    1  0.1441827E-001  0.2984653E+03  0.7546771E-02  0.1086175E+00
         21   -1    0    0  504  503  0.00000000000E+00  0.00000000000E+00  0.38012634467E+03  0.38012634467E+03  0.00000000000E+00 0.  1.
         21   -1    0    0  502  504 -0.00000000000E+00 -0.00000000000E+00 -0.24288579962E+03  0.24288579962E+03  0.00000000000E+00 0. -1.
          6    2    1    2  502    0  0.24382856368E+03 -0.66484352103E+01  0.69495259237E+01  0.29854622670E+03  0.17200285872E+03 0.  0.
         24    2    3    3    0    0  0.49096740245E+02 -0.27151220859E+02  0.78332460805E+01  0.10267964395E+03  0.85639189862E+02 0.  0.
         -6    2    1    2    0  503 -0.24382856368E+03  0.66484352103E+01  0.13029101912E+03  0.32446591760E+03  0.16972274998E+03 0.  0.
        -24    2    5    5    0    0 -0.24507741907E+03 -0.18740611605E+02  0.14289376669E+03  0.29570687407E+03  0.81300522458E+02 0.  0.
          4    1    4    4  501    0  0.41723587209E+01  0.89812973476E+01 -0.31413016685E+02  0.32937059623E+02  0.00000000000E+00 0. -1.
         -3    1    4    4    0  501  0.44924381524E+02 -0.36132518207E+02  0.39246262766E+02  0.69742584326E+02  0.00000000000E+00 0.  1.
          5    1    3    3  502    0  0.19473182343E+03  0.20502785649E+02 -0.88372015681E+00  0.19586658275E+03  0.47000000000E+01 0. -1.
         11    1    6    6    0    0 -0.21281081329E+03 -0.40835909441E+02  0.10329959706E+03  0.24005586955E+03  0.00000000000E+00 0. -1.
        -12    1    6    6    0    0 -0.32266605780E+02  0.22095297836E+02  0.39594169639E+02  0.55651004523E+02  0.00000000000E+00 0.  1.
         -5    1    5    5    0  503  0.12488553955E+01  0.25389046815E+02 -0.12602747572E+02  0.28759043523E+02  0.47000000000E+01 0.  1.
<mgrwt>
<rscale>  2 0.29813775E+03</rscale>
<asrwt>0</asrwt>
<pdfrwt beam="1">  1       21 0.58480976E-01 0.29846533E+03</pdfrwt>
<pdfrwt beam="2">  1       21 0.37367046E-01 0.29846533E+03</pdfrwt>
<totfact> 0.17923489E+04</totfact>
</mgrwt>
</event>
<event>
12    1  0.1441827E-001  0.1890326E+03  0.7546771E-02  0.1160371E+00
         21   -1    0    0  504  503  0.00000000000E+00  0.00000000000E+00  0.29061938936E+04  0.29061938936E+04  0.00000000000E+00 0. -1.
         21   -1    0    0  502  504 -0.00000000000E+00 -0.00000000000E+00 -0.13666870955E+02  0.13666870955E+02  0.00000000000E+00 0. -1.
          6    2    1    2  502    0 -0.60624333714E+02 -0.47161142458E+02  0.95247128547E+03  0.97104833485E+03  0.17272473991E+03 0.  0.
         24    2    3    3    0    0 -0.85754792783E+02  0.10341160923E+02  0.52222524972E+03  0.53622446689E+03  0.85770877089E+02 0.  0.
         -6    2    1    2    0  503  0.60624333714E+02  0.47161142458E+02  0.19400557372E+04  0.19488124298E+04  0.16779195339E+03 0.  0.
        -24    2    5    5    0    0  0.57083566794E+02  0.39324907089E+02  0.63532719461E+03  0.64404708552E+03  0.79693301043E+02 0.  0.
          4    1    4    4  501    0 -0.10284435867E+03  0.15117673107E+02  0.45038247689E+03  0.46222276192E+03  0.00000000000E+00 0. -1.
         -3    1    4    4    0  501  0.17089565886E+02 -0.47765121836E+01  0.71842772835E+02  0.74001704976E+02  0.00000000000E+00 0.  1.
          5    1    3    3  502    0  0.25130459068E+02 -0.57502303381E+02  0.43024603575E+03  0.43482386795E+03  0.47000000000E+01 0. -1.
         13    1    6    6    0    0 -0.13438908475E+02  0.84415992352E+01  0.30907424325E+02  0.34743830201E+02  0.00000000000E+00 0. -1.
        -14    1    6    6    0    0  0.70522475269E+02  0.30883307854E+02  0.60441977029E+03  0.60930325532E+03  0.00000000000E+00 0.  1.
         -5    1    5    5    0  503  0.35407669202E+01  0.78362353692E+01  0.13047285426E+04  0.13047653442E+04  0.47000000000E+01 0.  1.
<mgrwt>
<rscale>  2 0.18789833E+03</rscale>
<asrwt>0</asrwt>
<pdfrwt beam="1">  1       21 0.44710626E+00 0.18903259E+03</pdfrwt>
<pdfrwt beam="2">  1       21 0.21025978E-02 0.18903259E+03</pdfrwt>
<totfact> 0.49588489E+03</totfact>
</mgrwt>
</event>
<event>
12    1  0.1441827E-001  0.2450873E+03  0.7546771E-02  0.1116816E+00
         21   -1    0    0  504  503  0.00000000000E+00  0.00000000000E+00  0.81782820291E+02  0.81782820291E+02  0.00000000000E+00 0. -1.
         21   -1    0    0  502  504 -0.00000000000E+00 -0.00000000000E+00 -0.10510835347E+04  0.10510835347E+04  0.00000000000E+00 0.  1.
          6    2    1    2  502    0  0.10532329126E+03  0.13354136321E+03 -0.80036003129E+03  0.83704479430E+03  0.17646959116E+03 0.  0.
         24    2    3    3    0    0  0.21833301876E+01  0.14141984089E+02 -0.19096669443E+03  0.20753991559E+03  0.79998597097E+02 0.  0.
         -6    2    1    2    0  503 -0.10532329126E+03 -0.13354136321E+03 -0.16894068312E+03  0.29582156070E+03  0.17332959930E+03 0.  0.
        -24    2    5    5    0    0 -0.18836831307E+02 -0.98629242716E+02 -0.15542163257E+03  0.20146257258E+03  0.79678921600E+02 0.  0.
          4    1    4    4  501    0 -0.27924285042E+02  0.31890877947E+02 -0.72055810551E+02  0.83599244168E+02  0.00000000000E+00 0. -1.
         -3    1    4    4    0  501  0.30107615229E+02 -0.17748893859E+02 -0.11891088387E+03  0.12394067142E+03  0.00000000000E+00 0.  1.
          5    1    3    3  502    0  0.10313996107E+03  0.11939937912E+03 -0.60939333686E+03  0.62950487871E+03  0.47000000000E+01 0. -1.
         13    1    6    6    0    0 -0.37138745428E+02 -0.72856583101E+02 -0.61375647555E+02  0.10224645826E+03  0.00000000000E+00 0. -1.
        -14    1    6    6    0    0  0.18301914121E+02 -0.25772659614E+02 -0.94045985013E+02  0.99216114322E+02  0.00000000000E+00 0.  1.
         -5    1    5    5    0  503 -0.86486459948E+02 -0.34912120491E+02 -0.13519050557E+02  0.94358988123E+02  0.47000000000E+01 0.  1.
<mgrwt>
<rscale>  2 0.24452262E+03</rscale>
<asrwt>0</asrwt>
<pdfrwt beam="1">  1       21 0.12581973E-01 0.24508735E+03</pdfrwt>
<pdfrwt beam="2">  1       21 0.16170515E+00 0.24508735E+03</pdfrwt>
<totfact> 0.12722624E+04</totfact>
</mgrwt>
</event>
<event>
12    1  0.1441827E-001  0.1807003E+03  0.7546771E-02  0.1167391E+00
         21   -1    0    0  504  503  0.00000000000E+00  0.00000000000E+00  0.68799832660E+02  0.68799832660E+02  0.00000000000E+00 0.  1.
         21   -1    0    0  502  504 -0.00000000000E+00 -0.00000000000E+00 -0.28708924866E+04  0.28708924866E+04  0.00000000000E+00 0.  1.
          6    2    1    2  502    0  0.34544975966E+02  0.35889937074E+02 -0.27440169158E+04  0.27498887821E+04  0.17256313745E+03 0.  0.
         24    2    3    3    0    0  0.36484811446E+02 -0.43423562583E+02 -0.17298885461E+04  0.17326509365E+04  0.79675206388E+02 0.  0.
         -6    2    1    2    0  503 -0.34544975966E+02 -0.35889937074E+02 -0.58075738119E+02  0.18980353721E+03  0.17369844107E+03 0.  0.
        -24    2    5    5    0    0  0.14170634263E+02 -0.80579873010E+02 -0.36597491652E+02  0.12013427479E+03  0.79993404572E+02 0.  0.
          4    1    4    4  501    0  0.27970458429E+02 -0.11869091123E+02 -0.18988648893E+03  0.19230210749E+03  0.00000000000E+00 0. -1.
         -3    1    4    4    0  501  0.85143530171E+01 -0.31554471461E+02 -0.15400020572E+04  0.15403488290E+04  0.00000000000E+00 0.  1.
          5    1    3    3  502    0 -0.19398354799E+01  0.79313499658E+02 -0.10141283697E+04  0.10172378456E+04  0.47000000000E+01 0. -1.
         11    1    6    6    0    0  0.96933953934E+01 -0.18650020144E+02 -0.52063011331E+02  0.56145723920E+02  0.00000000000E+00 0. -1.
        -12    1    6    6    0    0  0.44772388698E+01 -0.61929852865E+02  0.15465519679E+02  0.63988550873E+02  0.00000000000E+00 0.  1.
         -5    1    5    5    0  503 -0.48715610229E+02  0.44689935935E+02 -0.21478246467E+02  0.69669262413E+02  0.47000000000E+01 0.  1.
<mgrwt>
<rscale>  2 0.18042690E+03</rscale>
<asrwt>0</asrwt>
<pdfrwt beam="1">  1       21 0.10584592E-01 0.18070028E+03</pdfrwt>
<pdfrwt beam="2">  1       21 0.44167568E+00 0.18070028E+03</pdfrwt>
<totfact> 0.35396876E+02</totfact>
</mgrwt>
</event>
<event>
12    1  0.1441827E-001  0.2071902E+03  0.7546771E-02  0.1143999E+00
         21   -1    0    0  504  503  0.00000000000E+00  0.00000000000E+00  0.47126596992E+03  0.47126596992E+03  0.00000000000E+00 0.  1.
         21   -1    0    0  502  504 -0.00000000000E+00 -0.00000000000E+00 -0.91195258450E+02  0.91195258450E+02  0.00000000000E+00 0. -1.
          6    2    1    2  502    0 -0.90461703018E+02  0.67855158418E+02  0.16847163714E+03  0.26631610617E+03  0.17249328580E+03 0.  0.
         24    2    3    3    0    0 -0.12127889131E+03  0.59689597544E+02  0.91118481404E+02  0.18251887363E+03  0.82092289802E+02 0.  0.
         -6    2    1    2    0  503  0.90461703018E+02 -0.67855158418E+02  0.21159907434E+03  0.29614512221E+03  0.17360910952E+03 0.  0.
        -24    2    5    5    0    0 -0.17773089236E+02  0.15060037879E+02  0.76976118117E+02  0.10448101400E+03  0.66695367794E+02 0.  0.
          4    1    4    4  501    0  0.25489546243E+01 -0.10471322054E+02 -0.38226353265E+01  0.11434959382E+02  0.00000000000E+00 0. -1.
         -3    1    4    4    0  501 -0.12382784594E+03  0.70160919599E+02  0.94941116731E+02  0.17108391425E+03  0.00000000000E+00 0.  1.
          5    1    3    3  502    0  0.30817188295E+02  0.81655608733E+01  0.77353155732E+02  0.83797232535E+02  0.47000000000E+01 0. -1.
         11    1    6    6    0    0  0.17744745064E+02  0.19644567945E+02  0.95646094266E+01  0.28147233978E+02  0.00000000000E+00 0. -1.
        -12    1    6    6    0    0 -0.35517834300E+02 -0.45845300659E+01  0.67411508690E+02  0.76333780027E+02  0.00000000000E+00 0.  1.
         -5    1    5    5    0  503  0.10823479225E+03 -0.82915196297E+02  0.13462295622E+03  0.19166410820E+03  0.47000000000E+01 0.  1.
<mgrwt>
<rscale>  2 0.20695625E+03</rscale>
<asrwt>0</asrwt>
<pdfrwt beam="1">  1       21 0.72502455E-01 0.20719017E+03</pdfrwt>
<pdfrwt beam="2">  1       21 0.14030040E-01 0.20719017E+03</pdfrwt>
<totfact> 0.75444159E+04</totfact>
</mgrwt>
</event>
<event>
12    1  0.1441827E-001  0.2088779E+03  0.7546771E-02  0.1142816E+00
         21   -1    0    0  504  503  0.00000000000E+00  0.00000000000E+00  0.78502516526E+03  0.78502516526E+03  0.00000000000E+00 0. -1.
         21   -1    0    0  502  504 -0.00000000000E+00 -0.00000000000E+00 -0.55235149552E+02  0.55235149552E+02  0.00000000000E+00 0. -1.
          6    2    1    2  502    0 -0.11364443993E+03 -0.25213055206E+02  0.38388875950E+03  0.43618403748E+03  0.17127515289E+03 0.  0.
         24    2    3    3    0    0 -0.21737103793E+02 -0.67541860459E+02  0.20893602851E+03  0.23402263099E+03  0.77961036499E+02 0.  0.
         -6    2    1    2    0  503  0.11364443993E+03  0.25213055206E+02  0.34590125621E+03  0.40407627733E+03  0.17343356647E+03 0.  0.
        -24    2    5    5    0    0  0.79738845869E+02 -0.48268532303E+02  0.24762747781E+03  0.27668334766E+03  0.80908419533E+02 0.  0.
          2    1    4    4  501    0 -0.47107934219E+02 -0.57838355737E+02  0.17712778615E+03  0.19219439505E+03  0.00000000000E+00 0. -1.
         -1    1    4    4    0  501  0.25370830426E+02 -0.97035047214E+01  0.31808242356E+02  0.41828235944E+02  0.00000000000E+00 0.  1.
          5    1    3    3  502    0 -0.91907336141E+02  0.42328805253E+02  0.17495273099E+03  0.20216140649E+03  0.47000000000E+01 0. -1.
         11    1    6    6    0    0  0.24883826127E+02  0.11777982174E+02  0.13489221430E+03  0.13767292815E+03  0.00000000000E+00 0. -1.
        -12    1    6    6    0    0  0.54855019742E+02 -0.60046514477E+02  0.11273526351E+03  0.13901041950E+03  0.00000000000E+00 0.  1.
         -5    1    5    5    0  503  0.33905594065E+02  0.73481587509E+02  0.98273778396E+02  0.12739292968E+03  0.47000000000E+01 0.  1.
<mgrwt>
<rscale>  2 0.20842925E+03</rscale>
<asrwt>0</asrwt>
<pdfrwt beam="1">  1       21 0.12077309E+00 0.20887786E+03</pdfrwt>
<pdfrwt beam="2">  1       21 0.84977159E-02 0.20887786E+03</pdfrwt>
<totfact> 0.55671860E+04</totfact>
</mgrwt>
</event>
<event>
12    1  0.1441827E-001  0.1760161E+03  0.7546771E-02  0.1172890E+00
         21   -1    0    0  504  503  0.00000000000E+00  0.00000000000E+00  0.16810661546E+03  0.16810661546E+03  0.00000000000E+00 0.  1.
         21   -1    0    0  502  504 -0.00000000000E+00 -0.00000000000E+00 -0.36295200360E+03  0.36295200360E+03  0.00000000000E+00 0.  1.
          6    2    1    2  502    0 -0.22696260705E+02 -0.16699021648E+02 -0.28685572591E+03  0.33655294475E+03  0.17374607781E+03 0.  0.
         24    2    3    3    0    0 -0.14108741839E+02 -0.41611216031E+02 -0.29479218543E+03  0.30863448671E+03  0.80139028590E+02 0.  0.
         -6    2    1    2    0  503  0.22696260705E+02  0.16699021648E+02  0.92010337773E+02  0.19450567431E+03  0.16903424951E+03 0.  0.
        -24    2    5    5    0    0  0.15585548789E+02 -0.42699093842E+02  0.11126746979E+02  0.93793492291E+02  0.81285255440E+02 0.  0.
          2    1    4    4  501    0 -0.18231406535E+02  0.64132181632E+01 -0.21165001558E+03  0.21253056873E+03  0.00000000000E+00 0. -1.
         -1    1    4    4    0  501  0.41226646962E+01 -0.48024434194E+02 -0.83142169848E+02  0.96103917979E+02  0.00000000000E+00 0.  1.
          5    1    3    3  502    0 -0.85875188660E+01  0.24912194383E+02  0.79364595155E+01  0.27918458032E+02  0.47000000000E+01 0. -1.
         11    1    6    6    0    0 -0.31281601729E+02 -0.72205947618E+01 -0.57992206591E+01  0.32623711556E+02  0.00000000000E+00 0. -1.
        -12    1    6    6    0    0  0.46867150518E+02 -0.35478499080E+02  0.16925967638E+02  0.61169780735E+02  0.00000000000E+00 0.  1.
         -5    1    5    5    0  503  0.71107119155E+01  0.59398115490E+02  0.80883590794E+02  0.10071218202E+03  0.47000000000E+01 0.  1.
<mgrwt>
<rscale>  2 0.17484208E+03</rscale>
<asrwt>0</asrwt>
<pdfrwt beam="1">  1       21 0.25862556E-01 0.17601613E+03</pdfrwt>
<pdfrwt beam="2">  1       21 0.55838769E-01 0.17601613E+03</pdfrwt>
<totfact> 0.43236521E+04</totfact>
</mgrwt>
</event>
<event>
12    1  0.1441827E-001  0.1736696E+03  0.7546771E-02  0.1174085E+00
         21   -1    0    0  504  503  0.00000000000E+00  0.00000000000E+00  0.36215356333E+03  0.36215356333E+03  0.00000000000E+00 0. -1.
         21   -1    0    0  502  504 -0.00000000000E+00 -0.00000000000E+00 -0.19550327342E+03  0.19550327342E+03  0.00000000000E+00 0. -1.
          6    2    1    2  502    0  0.78803931737E+01  0.28305775514E+01 -0.12793993519E+03  0.21570756618E+03  0.17346761751E+03 0.  0.
         24    2    3    3    0    0  0.57734097947E+02  0.29205077276E+02 -0.43106998394E+02  0.11372853265E+03  0.83004838553E+02 0.  0.
         -6    2    1    2    0  503 -0.78803931737E+01 -0.28305775514E+01  0.29459022509E+03  0.34194927058E+03  0.17342373010E+03 0.  0.
        -24    2    5    5    0    0  0.39485705627E+02  0.49684333447E+02  0.18280982930E+03  0.20959251753E+03  0.80510469988E+02 0.  0.
          2    1    4    4  501    0  0.12764079003E+02 -0.23165888260E+02  0.82321390301E+01  0.27701050606E+02  0.00000000000E+00 0. -1.
         -1    1    4    4    0  501  0.44970018944E+02  0.52370965536E+02 -0.51339137424E+02  0.86027482042E+02  0.00000000000E+00 0.  1.
          5    1    3    3  502    0 -0.49853704773E+02 -0.26374499725E+02 -0.84832936793E+02  0.10197903353E+03  0.47000000000E+01 0. -1.
         13    1    6    6    0    0  0.86558765280E+01 -0.17222774756E+02  0.84915810408E+02  0.87076076083E+02  0.00000000000E+00 0. -1.
        -14    1    6    6    0    0  0.30829829099E+02  0.66907108203E+02  0.97894018891E+02  0.12251644145E+03  0.00000000000E+00 0.  1.
         -5    1    5    5    0  503 -0.47366098801E+02 -0.52514910999E+02  0.11178039579E+03  0.13235675305E+03  0.47000000000E+01 0.  1.
<mgrwt>
<rscale>  2 0.17365863E+03</rscale>
<asrwt>0</asrwt>
<pdfrwt beam="1">  1       21 0.55715933E-01 0.17366959E+03</pdfrwt>
<pdfrwt beam="2">  1       21 0.30077427E-01 0.17366959E+03</pdfrwt>
<totfact> 0.32509041E+04</totfact>
</mgrwt>
</event>
<event>
12    1  0.1441827E-001  0.1863019E+03  0.7546771E-02  0.1163571E+00
         21   -1    0    0  504  503  0.00000000000E+00  0.00000000000E+00  0.92978992815E+02  0.92978992815E+02  0.00000000000E+00 0.  1.
         21   -1    0    0  502  504 -0.00000000000E+00 -0.00000000000E+00 -0.49553064046E+03  0.49553064046E+03  0.00000000000E+00 0.  1.
          6    2    1    2  502    0 -0.56722604184E+02  0.10033720934E+01 -0.35292314882E+03  0.39571082634E+03  0.16974642419E+03 0.  0.
         24    2    3    3    0    0  0.24823265752E+01  0.56212000958E+02 -0.21349716056E+03  0.23441943559E+03  0.78774889509E+02 0.  0.
         -6    2    1    2    0  503  0.56722604184E+02 -0.10033720934E+01 -0.49628498822E+02  0.19279880694E+03  0.17745402638E+03 0.  0.
        -24    2    5    5    0    0  0.31651114187E+02 -0.70110139477E+02 -0.40332950046E+02  0.11855042557E+03  0.80686007808E+02 0.  0.
          4    1    4    4  501    0 -0.53331139373E+01  0.70111476970E+02 -0.11615176104E+03  0.13577662869E+03  0.00000000000E+00 0. -1.
         -3    1    4    4    0  501  0.78154405125E+01 -0.13899476012E+02 -0.97345399521E+02  0.98642806893E+02  0.00000000000E+00 0.  1.
          5    1    3    3  502    0 -0.59204930760E+02 -0.55208628865E+02 -0.13942598826E+03  0.16129139075E+03  0.47000000000E+01 0. -1.
         11    1    6    6    0    0 -0.74110267254E+01 -0.62920886886E+01 -0.42597111786E+02  0.43692420735E+02  0.00000000000E+00 0. -1.
        -12    1    6    6    0    0  0.39062140912E+02 -0.63818050788E+02  0.22641617395E+01  0.74858004832E+02  0.00000000000E+00 0.  1.
         -5    1    5    5    0  503  0.25071489997E+02  0.69106767383E+02 -0.92955487758E+01  0.74248381369E+02  0.47000000000E+01 0.  1.
<mgrwt>
<rscale>  2 0.18444270E+03</rscale>
<asrwt>0</asrwt>
<pdfrwt beam="1">  1       21 0.14304461E-01 0.18630188E+03</pdfrwt>
<pdfrwt beam="2">  1       21 0.76235483E-01 0.18630188E+03</pdfrwt>
<totfact> 0.65736579E+04</totfact>
</mgrwt>
</event>
<event>
12    1  0.1441827E-001  0.2331950E+03  0.7546771E-02  0.1124498E+00
         21   -1    0    0  504  503  0.00000000000E+00  0.00000000000E+00  0.37636101198E+03  0.37636101198E+03  0.00000000000E+00 0. -1.
         21   -1    0    0  502  504 -0.00000000000E+00 -0.00000000000E+00 -0.14929248155E+03  0.14929248155E+03  0.00000000000E+00 0.  1.
          6    2    1    2  502    0  0.35209851580E+02  0.15179239735E+03  0.65001479898E+02  0.24208492806E+03  0.17349136712E+03 0.  0.
         24    2    3    3    0    0  0.27262380816E+02  0.18219693149E+03  0.58664133256E+02  0.20968353998E+03  0.81158777444E+02 0.  0.
         -6    2    1    2    0  503 -0.35209851580E+02 -0.15179239735E+03  0.16206705054E+03  0.28356856546E+03  0.17281416871E+03 0.  0.
        -24    2    5    5    0    0  0.44599192084E+02 -0.82418362381E+02  0.85920129586E+02  0.15317422606E+03  0.85429505838E+02 0.  0.
          4    1    4    4  501    0  0.23125866151E+02  0.11851053918E+03  0.77089752626E+02  0.14325635602E+03  0.00000000000E+00 0. -1.
         -3    1    4    4    0  501  0.41365146651E+01  0.63686392310E+02 -0.18425619370E+02  0.66427183955E+02  0.00000000000E+00 0.  1.
          5    1    3    3  502    0  0.79474707639E+01 -0.30404534133E+02  0.63373466424E+01  0.32401388086E+02  0.47000000000E+01 0. -1.
         13    1    6    6    0    0 -0.10105577047E+02  0.38284273771E+00  0.44503835701E+02  0.45638368158E+02  0.00000000000E+00 0. -1.
        -14    1    6    6    0    0  0.54704769131E+02 -0.82801205119E+02  0.41416293885E+02  0.10753585790E+03  0.00000000000E+00 0.  1.
         -5    1    5    5    0  503 -0.79809043663E+02 -0.69374034973E+02  0.76146920955E+02  0.13039433941E+03  0.47000000000E+01 0.  1.
<mgrwt>
<rscale>  2 0.23306908E+03</rscale>
<asrwt>0</asrwt>
<pdfrwt beam="1">  1       21 0.57901694E-01 0.23319503E+03</pdfrwt>
<pdfrwt beam="2">  1       21 0.22968074E-01 0.23319503E+03</pdfrwt>
<totfact> 0.48831136E+04</totfact>
</mgrwt>
</event>
<event>
12    1  0.1441827E-001  0.2662718E+03  0.7546771E-02  0.1103828E+00
         21   -1    0    0  504  503  0.00000000000E+00  0.00000000000E+00  0.20440820024E+03  0.20440820024E+03  0.00000000000E+00 0. -1.
         21   -1    0    0  502  504 -0.00000000000E+00 -0.00000000000E+00 -0.36447830660E+03  0.36447830660E+03  0.00000000000E+00 0.  1.
          6    2    1    2  502    0  0.34078075811E+02 -0.19564173803E+03 -0.14814067404E+03  0.30234765644E+03  0.17329581974E+03 0.  0.
         24    2    3    3    0    0  0.80516466398E+02 -0.89960853505E+02 -0.10441481260E+03  0.17882027310E+03  0.80612532888E+02 0.  0.
         -6    2    1    2    0  503 -0.34078075811E+02  0.19564173803E+03 -0.11929432322E+02  0.26653885040E+03  0.17737993829E+03 0.  0.
        -24    2    5    5    0    0  0.42437438051E+02  0.55608225449E+02 -0.12161283674E+02  0.10689502101E+03  0.79908934484E+02 0.  0.
          2    1    4    4  501    0  0.93614381857E+02 -0.70095860338E+02 -0.10149136967E+03  0.15484695749E+03  0.00000000000E+00 0. -1.
         -1    1    4    4    0  501 -0.13097915459E+02 -0.19864993167E+02 -0.29234429277E+01  0.23973315612E+02  0.00000000000E+00 0.  1.
          5    1    3    3  502    0 -0.46438390587E+02 -0.10568088453E+03 -0.43725861440E+02  0.12352738333E+03  0.47000000000E+01 0. -1.
         13    1    6    6    0    0  0.54879407564E+00  0.40397704862E+02  0.26150296131E+02  0.48126019166E+02  0.00000000000E+00 0. -1.
        -14    1    6    6    0    0  0.41888643976E+02  0.15210520587E+02 -0.38311579805E+02  0.58769001845E+02  0.00000000000E+00 0.  1.
         -5    1    5    5    0  503 -0.76515513862E+02  0.14003351258E+03  0.23185135165E+00  0.15964382939E+03  0.47000000000E+01 0.  1.
<mgrwt>
<rscale>  2 0.26559340E+03</rscale>
<asrwt>0</asrwt>
<pdfrwt beam="1">  1       21 0.31447415E-01 0.26627175E+03</pdfrwt>
<pdfrwt beam="2">  1       21 0.56073586E-01 0.26627175E+03</pdfrwt>
<totfact> 0.28063614E+04</totfact>
</mgrwt>
</event>
<event>
12    1  0.1441827E-001  0.1833272E+03  0.7546771E-02  0.1164826E+00
         21   -1    0    0  504  503  0.00000000000E+00  0.00000000000E+00  0.56231888901E+02  0.56231888901E+02  0.00000000000E+00 0. -1.
         21   -1    0    0  502  504 -0.00000000000E+00 -0.00000000000E+00 -0.10823226921E+04  0.10823226921E+04  0.00000000000E+00 0. -1.
          6    2    1    2  502    0 -0.38835517350E+02 -0.46211796429E+02 -0.89575424083E+03  0.91432189687E+03  0.17310442978E+03 0.  0.
         24    2    3    3    0    0  0.31438607989E+02 -0.64902313410E+02 -0.59837262845E+03  0.60814269854E+03  0.81160599702E+02 0.  0.
         -6    2    1    2    0  503  0.38835517350E+02  0.46211796429E+02 -0.13033656234E+03  0.22423268410E+03  0.17218870345E+03 0.  0.
        -24    2    5    5    0    0 -0.29310547543E+02  0.51149833025E+02 -0.11740587946E+03  0.15453646522E+03  0.81375456594E+02 0.  0.
          2    1    4    4  501    0  0.25427878683E+02 -0.76844292414E+02 -0.57884572567E+03  0.58447754142E+03  0.00000000000E+00 0. -1.
         -1    1    4    4    0  501  0.60107293060E+01  0.11941979004E+02 -0.19526902778E+02  0.23665157118E+02  0.00000000000E+00 0.  1.
          5    1    3    3  502    0 -0.70274125340E+02  0.18690516981E+02 -0.29738161237E+03  0.30617919834E+03  0.47000000000E+01 0. -1.
         13    1    6    6    0    0  0.82910510591E+01  0.39109931153E+02 -0.11636323369E+02  0.41638110716E+02  0.00000000000E+00 0. -1.
        -14    1    6    6    0    0 -0.37601598602E+02  0.12039901872E+02 -0.10576955609E+03  0.11289835450E+03  0.00000000000E+00 0.  1.
         -5    1    5    5    0  503  0.68146064894E+02 -0.49380365954E+01 -0.12930682886E+02  0.69696218877E+02  0.47000000000E+01 0.  1.
<mgrwt>
<rscale>  2 0.18311074E+03</rscale>
<asrwt>0</asrwt>
<pdfrwt beam="1">  1       21 0.86510597E-02 0.18332722E+03</pdfrwt>
<pdfrwt beam="2">  1       21 0.16651119E+00 0.18332722E+03</pdfrwt>
<totfact> 0.23795539E+04</totfact>
</mgrwt>
</event>
<event>
12    1  0.1441827E-001  0.2189648E+03  0.7546771E-02  0.1134677E+00
         21   -1    0    0  504  503  0.00000000000E+00  0.00000000000E+00  0.20784086111E+03  0.20784086111E+03  0.00000000000E+00 0. -1.
         21   -1    0    0  502  504 -0.00000000000E+00 -0.00000000000E+00 -0.51005645256E+03  0.51005645256E+03  0.00000000000E+00 0. -1.
          6    2    1    2  502    0 -0.97342670944E+02  0.93769550835E+02 -0.41683119059E+03  0.47084375753E+03  0.17227094446E+03 0.  0.
         24    2    3    3    0    0 -0.32975330447E+00  0.81939215927E+02 -0.29784657509E+03  0.31679541531E+03  0.70232535397E+02 0.  0.
         -6    2    1    2    0  503  0.97342670944E+02 -0.93769550835E+02  0.11461559913E+03  0.24705355615E+03  0.17213483026E+03 0.  0.
        -24    2    5    5    0    0  0.74168987955E+02 -0.84323322602E+02  0.88939562819E+01  0.13830887086E+03  0.80242007649E+02 0.  0.
          2    1    4    4  501    0 -0.85725838413E+01  0.89361177884E+02 -0.21183613819E+03  0.23007272491E+03  0.00000000000E+00 0. -1.
         -1    1    4    4    0  501  0.82428305369E+01 -0.74219619574E+01 -0.86010436903E+02  0.86722690403E+02  0.00000000000E+00 0.  1.
          5    1    3    3  502    0 -0.97012917640E+02  0.11830334908E+02 -0.11898461550E+03  0.15404834221E+03  0.47000000000E+01 0. -1.
         13    1    6    6    0    0 -0.80652082193E+01 -0.66176495446E+01  0.22062886506E+02  0.24405159907E+02  0.00000000000E+00 0. -1.
        -14    1    6    6    0    0  0.82234196175E+02 -0.77705673058E+02 -0.13168930224E+02  0.11390371095E+03  0.00000000000E+00 0.  1.
         -5    1    5    5    0  503  0.23173682989E+02 -0.94462282325E+01  0.10572164285E+03  0.10874468528E+03  0.47000000000E+01 0.  1.
<mgrwt>
<rscale>  2 0.21893807E+03</rscale>
<asrwt>0</asrwt>
<pdfrwt beam="1">  1       21 0.31975517E-01 0.21896484E+03</pdfrwt>
<pdfrwt beam="2">  1       21 0.78470224E-01 0.21896484E+03</pdfrwt>
<totfact> 0.13287832E+04</totfact>
</mgrwt>
</event>
<event>
12    1  0.1441827E-001  0.1980462E+03  0.7546771E-02  0.1151651E+00
         21   -1    0    0  504  503  0.00000000000E+00  0.00000000000E+00  0.37743484865E+03  0.37743484865E+03  0.00000000000E+00 0. -1.
         21   -1    0    0  502  504 -0.00000000000E+00 -0.00000000000E+00 -0.10982597691E+03  0.10982597691E+03  0.00000000000E+00 0. -1.
          6    2    1    2  502    0  0.74180958170E+01  0.95390636072E+02  0.74036044126E+02  0.21032626908E+03  0.17205057989E+03 0.  0.
         24    2    3    3    0    0 -0.51493743219E+02  0.98280408672E+02  0.40019728051E+02  0.14207558906E+03  0.79203851257E+02 0.  0.
         -6    2    1    2    0  503 -0.74180958170E+01 -0.95390636072E+02  0.19357282761E+03  0.27693455647E+03  0.17340100168E+03 0.  0.
        -24    2    5    5    0    0 -0.34215714572E+02  0.79570801483E+01  0.63540285021E+02  0.10862111390E+03  0.80790768754E+02 0.  0.
          4    1    4    4  501    0 -0.53790086180E+01  0.80036924635E+02  0.31498345284E+01  0.80279290582E+02  0.00000000000E+00 0. -1.
         -3    1    4    4    0  501 -0.46114734601E+02  0.18243484037E+02  0.36869893523E+02  0.61796298478E+02  0.00000000000E+00 0.  1.
          5    1    3    3  502    0  0.58911839036E+02 -0.28897726001E+01  0.34016316075E+02  0.68250680023E+02  0.47000000000E+01 0. -1.
         11    1    6    6    0    0 -0.36897080932E+02 -0.31517637828E+02  0.35633925452E+02  0.60204092209E+02  0.00000000000E+00 0. -1.
        -12    1    6    6    0    0  0.26813663605E+01  0.39474717977E+02  0.27906359569E+02  0.48417021690E+02  0.00000000000E+00 0.  1.
         -5    1    5    5    0  503  0.26797618755E+02 -0.10334771622E+03  0.13003254259E+03  0.16831344258E+03  0.47000000000E+01 0.  1.
<mgrwt>
<rscale>  2 0.19775024E+03</rscale>
<asrwt>0</asrwt>
<pdfrwt beam="1">  1       21 0.58066899E-01 0.19804623E+03</pdfrwt>
<pdfrwt beam="2">  1       21 0.16896304E-01 0.19804623E+03</pdfrwt>
<totfact> 0.87492649E+04</totfact>
</mgrwt>
</event>
<event>
12    1  0.1441827E-001  0.1802956E+03  0.7546771E-02  0.1167801E+00
         21   -1    0    0  504  503  0.00000000000E+00  0.00000000000E+00  0.48227003262E+02  0.48227003262E+02  0.00000000000E+00 0.  1.
         21   -1    0    0  502  504 -0.00000000000E+00 -0.00000000000E+00 -0.67436354049E+03  0.67436354049E+03  0.00000000000E+00 0.  1.
          6    2    1    2  502    0  0.43948555375E+02  0.95279565484E+01 -0.34426618831E+03  0.38862026835E+03  0.17459738568E+03 0.  0.
         24    2    3    3    0    0  0.32431068602E+01 -0.52155823973E+02 -0.25682283469E+03  0.27403295487E+03  0.80033394423E+02 0.  0.
         -6    2    1    2    0  503 -0.43948555375E+02 -0.95279565484E+01 -0.28187034891E+03  0.33397027539E+03  0.17338683276E+03 0.  0.
        -24    2    5    5    0    0 -0.66110074405E+02 -0.59124450767E+02 -0.15483267836E+03  0.19572554709E+03  0.80430646387E+02 0.  0.
          4    1    4    4  501    0 -0.17581142028E+02  0.86163761546E+01 -0.13401440350E+03  0.13543706597E+03  0.00000000000E+00 0. -1.
         -3    1    4    4    0  501  0.20824248888E+02 -0.60772200127E+02 -0.12280843119E+03  0.13859588891E+03  0.00000000000E+00 0.  1.
          5    1    3    3  502    0  0.40705448515E+02  0.61683780521E+02 -0.87443353620E+02  0.11458731348E+03  0.47000000000E+01 0. -1.
         11    1    6    6    0    0 -0.29661508258E+02 -0.49653234742E+02 -0.29638344114E+02  0.64989847164E+02  0.00000000000E+00 0. -1.
        -12    1    6    6    0    0 -0.36448566147E+02 -0.94712160244E+01 -0.12519433425E+03  0.13073569993E+03  0.00000000000E+00 0.  1.
         -5    1    5    5    0  503  0.22161519030E+02  0.49596494218E+02 -0.12703767055E+03  0.13824472830E+03  0.47000000000E+01 0.  1.
<mgrwt>
<rscale>  2 0.18000188E+03</rscale>
<asrwt>0</asrwt>
<pdfrwt beam="1">  1       21 0.74195398E-02 0.18029560E+03</pdfrwt>
<pdfrwt beam="2">  1       21 0.10374823E+00 0.18029560E+03</pdfrwt>
<totfact> 0.10336916E+05</totfact>
</mgrwt>
</event>
<event>
12    1  0.1441827E-001  0.1835433E+03  0.7546771E-02  0.1164606E+00
         21   -1    0    0  504  503  0.00000000000E+00  0.00000000000E+00  0.90231107914E+03  0.90231107914E+03  0.00000000000E+00 0. -1.
         21   -1    0    0  502  504 -0.00000000000E+00 -0.00000000000E+00 -0.54793041624E+02  0.54793041624E+02  0.00000000000E+00 0. -1.
          6    2    1    2  502    0  0.56095249311E+02 -0.25742254847E+02  0.15176108908E+03  0.23754462578E+03  0.17200779168E+03 0.  0.
         24    2    3    3    0    0  0.86111137082E+02 -0.57124355978E+02  0.80720252631E+02  0.15414990033E+03  0.81043893109E+02 0.  0.
         -6    2    1    2    0  503 -0.56095249311E+02  0.25742254847E+02  0.69575694843E+03  0.71955949498E+03  0.17285483750E+03 0.  0.
        -24    2    5    5    0    0  0.28809756033E+02 -0.23420551336E+02  0.32638602412E+03  0.33735168348E+03  0.76810138263E+02 0.  0.
          4    1    4    4  501    0  0.42975013065E+02 -0.52879507461E+02  0.68259638782E+01  0.68481295549E+02  0.00000000000E+00 0. -1.
         -3    1    4    4    0  501  0.43136124017E+02 -0.42448485171E+01  0.73894288753E+02  0.85668604777E+02  0.00000000000E+00 0.  1.
          5    1    3    3  502    0 -0.30015887772E+02  0.31382101130E+02  0.71040836453E+02  0.83394725457E+02  0.47000000000E+01 0. -1.
         11    1    6    6    0    0  0.51580816649E+02 -0.15946038229E+02  0.27981168659E+03  0.28497269472E+03  0.00000000000E+00 0. -1.
        -12    1    6    6    0    0 -0.22771060616E+02 -0.74745131071E+01  0.46574337524E+02  0.52378988760E+02  0.00000000000E+00 0.  1.
         -5    1    5    5    0  503 -0.84905005344E+02  0.49162806183E+02  0.36937092432E+03  0.38220781150E+03  0.47000000000E+01 0.  1.
<mgrwt>
<rscale>  2 0.18334358E+03</rscale>
<asrwt>0</asrwt>
<pdfrwt beam="1">  1       21 0.13881708E+00 0.18354328E+03</pdfrwt>
<pdfrwt beam="2">  1       21 0.84296994E-02 0.18354328E+03</pdfrwt>
<totfact> 0.40272773E+04</totfact>
</mgrwt>
</event>
<event>
12    1  0.1441827E-001  0.1848183E+03  0.7546771E-02  0.1163476E+00
         21   -1    0    0  504  503  0.00000000000E+00  0.00000000000E+00  0.19981886133E+03  0.19981886133E+03  0.00000000000E+00 0. -1.
         21   -1    0    0  502  504 -0.00000000000E+00 -0.00000000000E+00 -0.22833058601E+03  0.22833058601E+03  0.00000000000E+00 0. -1.
          6    2    1    2  502    0 -0.60117758111E+02 -0.24834067645E+02 -0.12248661791E+03  0.22081139064E+03  0.17182497756E+03 0.  0.
         24    2    3    3    0    0 -0.92575252170E+02  0.31279494899E+01 -0.42198645366E+02  0.12968723435E+03  0.80362252964E+02 0.  0.
         -6    2    1    2    0  503  0.60117758111E+02  0.24834067645E+02  0.93974893241E+02  0.20733805670E+03  0.17299396938E+03 0.  0.
        -24    2    5    5    0    0  0.76941831850E+02  0.69264460696E+02  0.45438863319E+02  0.13925762277E+03  0.81304269235E+02 0.  0.
          4    1    4    4  501    0 -0.45168686361E+02  0.40270560265E+02 -0.32493873898E+02  0.68686098248E+02  0.00000000000E+00 0. -1.
         -3    1    4    4    0  501 -0.47406565808E+02 -0.37142610776E+02 -0.97047714679E+01  0.61001136106E+02  0.00000000000E+00 0.  1.
          5    1    3    3  502    0  0.32457494059E+02 -0.27962017135E+02 -0.80287972546E+02  0.91124156283E+02  0.47000000000E+01 0. -1.
         11    1    6    6    0    0  0.55449468803E+01  0.46570279864E+01  0.42301917130E+02  0.42917205623E+02  0.00000000000E+00 0. -1.
        -12    1    6    6    0    0  0.71396884970E+02  0.64607432709E+02  0.31369461889E+01  0.96340417147E+02  0.00000000000E+00 0.  1.
         -5    1    5    5    0  503 -0.16824073740E+02 -0.44430393051E+02  0.48536029922E+02  0.68080433932E+02  0.47000000000E+01 0.  1.
<mgrwt>
<rscale>  2 0.18454422E+03</rscale>
<asrwt>0</asrwt>
<pdfrwt beam="1">  1       21 0.30741363E-01 0.18481826E+03</pdfrwt>
<pdfrwt beam="2">  1       21 0.35127782E-01 0.18481826E+03</pdfrwt>
<totfact> 0.79631416E+04</totfact>
</mgrwt>
</event>
<event>
12    1  0.1441827E-001  0.2414651E+03  0.7546771E-02  0.1119037E+00
         21   -1    0    0  504  503  0.00000000000E+00  0.00000000000E+00  0.32855132898E+03  0.32855132898E+03  0.00000000000E+00 0.  1.
         21   -1    0    0  502  504 -0.00000000000E+00 -0.00000000000E+00 -0.32441388408E+03  0.32441388408E+03  0.00000000000E+00 0.  1.
          6    2    1    2  502    0 -0.36763997694E+02  0.16305024552E+03 -0.21837888050E+03  0.32556835466E+03  0.17426544125E+03 0.  0.
         24    2    3    3    0    0 -0.18061254094E+02  0.19038454410E+03 -0.19437910985E+03  0.28439754597E+03  0.80785161239E+02 0.  0.
         -6    2    1    2    0  503  0.36763997694E+02 -0.16305024552E+03  0.22251632540E+03  0.32739685840E+03  0.17244771303E+03 0.  0.
        -24    2    5    5    0    0 -0.16634985566E+02 -0.30921659032E+02  0.43306324213E+02  0.98382166062E+02  0.81060108193E+02 0.  0.
          2    1    4    4  501    0  0.27540950915E+02  0.11272554576E+03 -0.12621084680E+03  0.17144891511E+03  0.00000000000E+00 0. -1.
         -1    1    4    4    0  501 -0.45602205009E+02  0.77658998343E+02 -0.68168263053E+02  0.11294863086E+03  0.00000000000E+00 0.  1.
          5    1    3    3  502    0 -0.18702743599E+02 -0.27334298575E+02 -0.23999770646E+02  0.41170808685E+02  0.47000000000E+01 0. -1.
         11    1    6    6    0    0  0.24198408049E+02  0.13716233373E+02  0.14741838494E+02  0.31480467154E+02  0.00000000000E+00 0. -1.
        -12    1    6    6    0    0 -0.40833393614E+02 -0.44637892406E+02  0.28564485719E+02  0.66901698909E+02  0.00000000000E+00 0.  1.
         -5    1    5    5    0  503  0.53398983260E+02 -0.13212858649E+03  0.17921000119E+03  0.22901469234E+03  0.47000000000E+01 0.  1.
<mgrwt>
<rscale>  2 0.24113734E+03</rscale>
<asrwt>0</asrwt>
<pdfrwt beam="1">  1       21 0.50546358E-01 0.24146515E+03</pdfrwt>
<pdfrwt beam="2">  1       21 0.49909829E-01 0.24146515E+03</pdfrwt>
<totfact> 0.13837807E+04</totfact>
</mgrwt>
</event>
<event>
12    1  0.1441827E-001  0.1726863E+03  0.7546771E-02  0.1175075E+00
         21   -1    0    0  504  503  0.00000000000E+00  0.00000000000E+00  0.77840908458E+03  0.77840908458E+03  0.00000000000E+00 0.  1.
         21   -1    0    0  502  504 -0.00000000000E+00 -0.00000000000E+00 -0.10747313128E+03  0.10747313128E+03  0.00000000000E+00 0.  1.
          6    2    1    2  502    0 -0.91568351094E+00  0.22877812683E+00 -0.19864351432E+02  0.17382504648E+03  0.17268370945E+03 0.  0.
         24    2    3    3    0    0  0.60913520310E+02  0.46458953353E+01 -0.33970309741E+02  0.11008001193E+03  0.85038731079E+02 0.  0.
         -6    2    1    2    0  503  0.91568351094E+00 -0.22877812683E+00  0.69080030473E+03  0.71205716938E+03  0.17268312204E+03 0.  0.
        -24    2    5    5    0    0  0.25883903962E+02  0.19006563804E+01  0.16508224762E+03  0.18572123854E+03  0.81034813423E+02 0.  0.
          2    1    4    4  501    0  0.64081679371E+02  0.39495161804E+01  0.10874788573E+02  0.65117749773E+02  0.00000000000E+00 0. -1.
         -1    1    4    4    0  501 -0.31681590608E+01  0.69637915491E+00 -0.44845098315E+02  0.44962262161E+02  0.00000000000E+00 0.  1.
          5    1    3    3  502    0 -0.61829203821E+02 -0.44171172085E+01  0.14105958309E+02  0.63745034547E+02  0.47000000000E+01 0. -1.
         11    1    6    6    0    0 -0.24389377874E+02  0.40586331027E+01  0.18901083562E+02  0.31121780405E+02  0.00000000000E+00 0. -1.
        -12    1    6    6    0    0  0.50273281836E+02 -0.21579767223E+01  0.14618116406E+03  0.15459945814E+03  0.00000000000E+00 0.  1.
         -5    1    5    5    0  503 -0.24968220451E+02 -0.21294345072E+01  0.52571805711E+03  0.52633593084E+03  0.47000000000E+01 0.  1.
<mgrwt>
<rscale>  2 0.17268614E+03</rscale>
<asrwt>0</asrwt>
<pdfrwt beam="1">  1       21 0.11975524E+00 0.17268629E+03</pdfrwt>
<pdfrwt beam="2">  1       21 0.16534328E-01 0.17268629E+03</pdfrwt>
<totfact> 0.17658789E+04</totfact>
</mgrwt>
</event>
<event>
12    1  0.1441827E-001  0.1880758E+03  0.7546771E-02  0.1161722E+00
         21   -1    0    0  504  503  0.00000000000E+00  0.00000000000E+00  0.37738153896E+03  0.37738153896E+03  0.00000000000E+00 0. -1.
         21   -1    0    0  502  504 -0.00000000000E+00 -0.00000000000E+00 -0.95875985642E+02  0.95875985642E+02  0.00000000000E+00 0. -1.
          6    2    1    2  502    0 -0.64038050936E+02 -0.98421225063E+01  0.19900638523E+03  0.27381755523E+03  0.17656379258E+03 0.  0.
         24    2    3    3    0    0  0.91752480597E+01  0.19236520833E+02  0.16621523262E+03  0.18835935295E+03  0.86008798265E+02 0.  0.
         -6    2    1    2    0  503  0.64038050936E+02  0.98421225063E+01  0.82499168094E+02  0.19943996937E+03  0.16962443605E+03 0.  0.
        -24    2    5    5    0    0  0.38354845031E+02  0.52500753910E+02 -0.10310470442E+02  0.94011771512E+02  0.67115453389E+02 0.  0.
          2    1    4    4  501    0 -0.22193777149E+01  0.51159726787E+02  0.72976277589E+02  0.89150324583E+02  0.00000000000E+00 0. -1.
         -1    1    4    4    0  501  0.11394625775E+02 -0.31923205954E+02  0.93238955026E+02  0.99209028366E+02  0.00000000000E+00 0.  1.
          5    1    3    3  502    0 -0.73213298996E+02 -0.29078643339E+02  0.32791152614E+02  0.85458202286E+02  0.47000000000E+01 0. -1.
         11    1    6    6    0    0  0.30071114968E+02  0.19310422742E+02  0.25947242127E+02  0.44163602162E+02  0.00000000000E+00 0. -1.
        -12    1    6    6    0    0  0.82837300628E+01  0.33190331168E+02 -0.36257712569E+02  0.49848169350E+02  0.00000000000E+00 0.  1.
         -5    1    5    5    0  503  0.25683205905E+02 -0.42658631404E+02  0.92809638535E+02  0.10542819786E+03  0.47000000000E+01 0.  1.
<mgrwt>
<rscale>  2 0.18642961E+03</rscale>
<asrwt>0</asrwt>
<pdfrwt beam="1">  1       21 0.58058697E-01 0.18807582E+03</pdfrwt>
<pdfrwt beam="2">  1       21 0.14750152E-01 0.18807582E+03</pdfrwt>
<totfact> 0.11264011E+05</totfact>
</mgrwt>
</event>
<event>
12    1  0.1441827E-001  0.1912248E+03  0.7546771E-02  0.1157518E+00
         21   -1    0    0  504  503  0.00000000000E+00  0.00000000000E+00  0.62827671684E+03  0.62827671684E+03  0.00000000000E+00 0.  1.
         21   -1    0    0  502  504 -0.00000000000E+00 -0.00000000000E+00 -0.11636726052E+03  0.11636726052E+03  0.00000000000E+00 0.  1.
          6    2    1    2  502    0  0.38412940853E+01 -0.81900927854E+02 -0.79882186090E+01  0.19069404301E+03  0.17198223419E+03 0.  0.
         24    2    3    3    0    0  0.53707090501E+02 -0.96944808352E+02  0.42165028014E+01  0.13699151777E+03  0.80412372229E+02 0.  0.
         -6    2    1    2    0  503 -0.38412940853E+01  0.81900927854E+02  0.51989767493E+03  0.55394993435E+03  0.17275537572E+03 0.  0.
        -24    2    5    5    0    0 -0.62792490740E+02  0.19960285894E+02  0.33124631150E+03  0.34677051057E+03  0.78640690544E+02 0.  0.
          2    1    4    4  501    0  0.25672277091E+02 -0.76474107862E+01 -0.27286268567E+02  0.38237274420E+02  0.00000000000E+00 0. -1.
         -1    1    4    4    0  501  0.28034813410E+02 -0.89297397566E+02  0.31502771369E+02  0.98754243346E+02  0.00000000000E+00 0.  1.
          5    1    3    3  502    0 -0.49865796415E+02  0.15043880498E+02 -0.12204721410E+02  0.53702525241E+02  0.47000000000E+01 0. -1.
         11    1    6    6    0    0 -0.39358158230E+02 -0.20082152193E+02  0.81078024610E+02  0.92336360826E+02  0.00000000000E+00 0. -1.
        -12    1    6    6    0    0 -0.23434332510E+02  0.40042438087E+02  0.25016828689E+03  0.25443414974E+03  0.00000000000E+00 0.  1.
         -5    1    5    5    0  503  0.58951196655E+02  0.61940641959E+02  0.18865136343E+03  0.20717942378E+03  0.47000000000E+01 0.  1.
<mgrwt>
<rscale>  2 0.19105005E+03</rscale>
<asrwt>0</asrwt>
<pdfrwt beam="1">  1       21 0.96657954E-01 0.19122483E+03</pdfrwt>
<pdfrwt beam="2">  1       21 0.17902656E-01 0.19122483E+03</pdfrwt>
<totfact> 0.25246977E+04</totfact>
</mgrwt>
</event>
<event>
12    1  0.1441827E-001  0.1819374E+03  0.7546771E-02  0.1168804E+00
         21   -1    0    0  504  503  0.00000000000E+00  0.00000000000E+00  0.10989308075E+03  0.10989308075E+03  0.00000000000E+00 0.  1.
         21   -1    0    0  502  504 -0.00000000000E+00 -0.00000000000E+00 -0.29127918094E+03  0.29127918094E+03  0.00000000000E+00 0.  1.
          6    2    1    2  502    0  0.33765772529E+01  0.34264799027E+02 -0.12292059136E+03  0.21007163930E+03  0.16683867697E+03 0.  0.
         24    2    3    3    0    0  0.26463050067E+02  0.50167083219E+02 -0.14413816020E+03  0.17460132640E+03  0.80577817661E+02 0.  0.
         -6    2    1    2    0  503 -0.33765772529E+01 -0.34264799027E+02 -0.58465508833E+02  0.19110062240E+03  0.17864980949E+03 0.  0.
        -24    2    5    5    0    0 -0.17973845617E+02 -0.22556207694E+00 -0.10382760109E+03  0.13235064954E+03  0.80083791626E+02 0.  0.
          2    1    4    4  501    0 -0.57656560433E+00  0.64610970921E+02 -0.75146538178E+02  0.99105560850E+02  0.00000000000E+00 0. -1.
         -1    1    4    4    0  501  0.27039615671E+02 -0.14443887701E+02 -0.68991622020E+02  0.75495765554E+02  0.00000000000E+00 0.  1.
          5    1    3    3  502    0 -0.23086472814E+02 -0.15902284193E+02  0.21217568840E+02  0.35470312897E+02  0.47000000000E+01 0. -1.
         11    1    6    6    0    0  0.56964263530E+01 -0.35595604965E+02 -0.28996128457E+02  0.46263072007E+02  0.00000000000E+00 0. -1.
        -12    1    6    6    0    0 -0.23670271970E+02  0.35370042889E+02 -0.74831472637E+02  0.86087577536E+02  0.00000000000E+00 0.  1.
         -5    1    5    5    0  503  0.14597268364E+02 -0.34039236950E+02  0.45362092261E+02  0.58749972852E+02  0.47000000000E+01 0.  1.
<mgrwt>
<rscale>  2 0.17896986E+03</rscale>
<asrwt>0</asrwt>
<pdfrwt beam="1">  1       21 0.16906628E-01 0.18193744E+03</pdfrwt>
<pdfrwt beam="2">  1       21 0.44812181E-01 0.18193744E+03</pdfrwt>
<totfact> 0.15114525E+05</totfact>
</mgrwt>
</event>
<event>
12    1  0.1441827E-001  0.1955976E+03  0.7546771E-02  0.1153537E+00
         21   -1    0    0  504  503  0.00000000000E+00  0.00000000000E+00  0.19031491610E+03  0.19031491610E+03  0.00000000000E+00 0. -1.
         21   -1    0    0  502  504 -0.00000000000E+00 -0.00000000000E+00 -0.38962239254E+03  0.38962239254E+03  0.00000000000E+00 0. -1.
          6    2    1    2  502    0 -0.90214361197E+02  0.12663302654E+02 -0.30145221575E+03  0.35927473003E+03  0.17293323294E+03 0.  0.
         24    2    3    3    0    0 -0.47941237560E+02  0.28001775707E+02 -0.29805110909E+03  0.31393221946E+03  0.81464796612E+02 0.  0.
         -6    2    1    2    0  503  0.90214361197E+02 -0.12663302654E+02  0.10214473932E+03  0.22066257861E+03  0.17308794189E+03 0.  0.
        -24    2    5    5    0    0  0.62533448585E+02  0.59057712519E+02  0.53041470529E+02  0.12932059513E+03  0.80698036711E+02 0.  0.
          2    1    4    4  501    0  0.13853203607E+01  0.42599773680E+02 -0.18310743195E+03  0.18800263686E+03  0.00000000000E+00 0. -1.
         -1    1    4    4    0  501 -0.49326557921E+02 -0.14597997973E+02 -0.11494367713E+03  0.12592958260E+03  0.00000000000E+00 0.  1.
          5    1    3    3  502    0 -0.42273123637E+02 -0.15338473053E+02 -0.34011066626E+01  0.45342510563E+02  0.47000000000E+01 0. -1.
         13    1    6    6    0    0 -0.12184547583E+02 -0.10209555283E+02  0.95161635261E+01  0.18527158096E+02  0.00000000000E+00 0. -1.
        -14    1    6    6    0    0  0.74717996168E+02  0.69267267802E+02  0.43525307003E+02  0.11079343703E+03  0.00000000000E+00 0.  1.
         -5    1    5    5    0  503  0.27680912612E+02 -0.71721015173E+02  0.49103268787E+02  0.91341983480E+02  0.47000000000E+01 0.  1.
<mgrwt>
<rscale>  2 0.19556338E+03</rscale>
<asrwt>0</asrwt>
<pdfrwt beam="1">  1       21 0.29279218E-01 0.19559761E+03</pdfrwt>
<pdfrwt beam="2">  1       21 0.59941906E-01 0.19559761E+03</pdfrwt>
<totfact> 0.28964377E+04</totfact>
</mgrwt>
</event>
<event>
12    1  0.1441827E-001  0.1941636E+03  0.7546771E-02  0.1154787E+00
         21   -1    0    0  504  503  0.00000000000E+00  0.00000000000E+00  0.13950549816E+03  0.13950549816E+03  0.00000000000E+00 0. -1.
         21   -1    0    0  502  504 -0.00000000000E+00 -0.00000000000E+00 -0.28002535833E+03  0.28002535833E+03  0.00000000000E+00 0.  1.
          6    2    1    2  502    0  0.74557289888E+02  0.46194844546E+02 -0.10985682074E+03  0.22308747666E+03  0.17322455958E+03 0.  0.
         24    2    3    3    0    0  0.49041568463E+02  0.83268218149E+02 -0.27868720624E+02  0.12944119734E+03  0.81484270801E+02 0.  0.
         -6    2    1    2    0  503 -0.74557289888E+02 -0.46194844546E+02 -0.30663039438E+02  0.19644337983E+03  0.17308098207E+03 0.  0.
        -24    2    5    5    0    0 -0.59277824878E+02 -0.25753756021E+01  0.43155841235E+02  0.10922275575E+03  0.80911622519E+02 0.  0.
          4    1    4    4  501    0 -0.10462398130E+02  0.24002713873E+02  0.19841582266E+02  0.32852403789E+02  0.00000000000E+00 0. -1.
         -3    1    4    4    0  501  0.59503966593E+02  0.59265504275E+02 -0.47710302889E+02  0.96588793549E+02  0.00000000000E+00 0.  1.
          5    1    3    3  502    0  0.25515721425E+02 -0.37073373602E+02 -0.81988100112E+02  0.93646279318E+02  0.47000000000E+01 0. -1.
         11    1    6    6    0    0  0.13701053168E+02  0.72619256815E+01  0.30897718728E+02  0.34570557490E+02  0.00000000000E+00 0. -1.
        -12    1    6    6    0    0 -0.72978878046E+02 -0.98373012835E+01  0.12258122507E+02  0.74652198259E+02  0.00000000000E+00 0.  1.
         -5    1    5    5    0  503 -0.15279465010E+02 -0.43619468944E+02 -0.73818880674E+02  0.87220624085E+02  0.47000000000E+01 0.  1.
<mgrwt>
<rscale>  2 0.19413157E+03</rscale>
<asrwt>0</asrwt>
<pdfrwt beam="1">  1       21 0.21462385E-01 0.19416359E+03</pdfrwt>
<pdfrwt beam="2">  1       21 0.43080824E-01 0.19416359E+03</pdfrwt>
<totfact> 0.10472030E+05</totfact>
</mgrwt>
</event>
<event>
12    1  0.1441827E-001  0.2224044E+03  0.7546771E-02  0.1132277E+00
         21   -1    0    0  504  503  0.00000000000E+00  0.00000000000E+00  0.35319328772E+03  0.35319328772E+03  0.00000000000E+00 0. -1.
         21   -1    0    0  502  504 -0.00000000000E+00 -0.00000000000E+00 -0.14326841190E+03  0.14326841190E+03  0.00000000000E+00 0. -1.
          6    2    1    2  502    0 -0.14023956058E+03 -0.81334215082E+01  0.14525238503E+03  0.26484513336E+03  0.17120573124E+03 0.  0.
         24    2    3    3    0    0 -0.26198944708E+02  0.86649702246E+01  0.11832199319E+03  0.14637663950E+03  0.81636757072E+02 0.  0.
         -6    2    1    2    0  503  0.14023956058E+03  0.81334215082E+01  0.64672490792E+02  0.23161656626E+03  0.17242510202E+03 0.  0.
        -24    2    5    5    0    0  0.11189828916E+03  0.66202296652E+02  0.65341543036E+02  0.16682644698E+03  0.81593964033E+02 0.  0.
          4    1    4    4  501    0 -0.40280826947E+02  0.17904666453E+02  0.12148900001E+03  0.12923892302E+03  0.00000000000E+00 0. -1.
         -3    1    4    4    0  501  0.14081882239E+02 -0.92396962288E+01 -0.31670068202E+01  0.17137716475E+02  0.00000000000E+00 0.  1.
          5    1    3    3  502    0 -0.11404061587E+03 -0.16798391733E+02  0.26930391839E+02  0.11846849386E+03  0.47000000000E+01 0. -1.
         13    1    6    6    0    0  0.53369238046E+02  0.71369700229E+02  0.60825396854E+02  0.10789642526E+03  0.00000000000E+00 0. -1.
        -14    1    6    6    0    0  0.58529051115E+02 -0.51674035778E+01  0.45161461822E+01  0.58930021725E+02  0.00000000000E+00 0.  1.
         -5    1    5    5    0  503  0.28341271414E+02 -0.58068875143E+02 -0.66905224371E+00  0.64790119283E+02  0.47000000000E+01 0.  1.
<mgrwt>
<rscale>  2 0.22216799E+03</rscale>
<asrwt>0</asrwt>
<pdfrwt beam="1">  1       21 0.54337429E-01 0.22240437E+03</pdfrwt>
<pdfrwt beam="2">  1       21 0.22041294E-01 0.22240437E+03</pdfrwt>
<totfact> 0.60734355E+04</totfact>
</mgrwt>
</event>
<event>
12    1  0.1441827E-001  0.2121800E+03  0.7546771E-02  0.1141160E+00
         21   -1    0    0  504  503  0.00000000000E+00  0.00000000000E+00  0.22366434560E+04  0.22366434560E+04  0.00000000000E+00 0.  1.
         21   -1    0    0  502  504 -0.00000000000E+00 -0.00000000000E+00 -0.52081624813E+02  0.52081624813E+02  0.00000000000E+00 0.  1.
          6    2    1    2  502    0  0.11854544263E+03 -0.19401076427E+02  0.18086446483E+03  0.27382471239E+03  0.16684901781E+03 0.  0.
         24    2    3    3    0    0  0.11063781631E+03 -0.29351375001E+02  0.59762025674E+02  0.15196647605E+03  0.80125404946E+02 0.  0.
         -6    2    1    2    0  503 -0.11854544263E+03  0.19401076427E+02  0.20036973664E+04  0.20149003684E+04  0.17490264427E+03 0.  0.
        -24    2    5    5    0    0 -0.14859302999E+03 -0.97426556720E+01  0.16599788063E+04  0.16686103842E+04  0.80970173929E+02 0.  0.
          2    1    4    4  501    0  0.91821880178E+02 -0.47853159382E+01  0.73882999399E+02  0.11795276397E+03  0.00000000000E+00 0. -1.
         -1    1    4    4    0  501  0.18815936133E+02 -0.24566059063E+02 -0.14120973725E+02  0.34013712079E+02  0.00000000000E+00 0.  1.
          5    1    3    3  502    0  0.79076263170E+01  0.99502985748E+01  0.12110243916E+03  0.12185823634E+03  0.47000000000E+01 0. -1.
         11    1    6    6    0    0 -0.62799573709E+02 -0.24467676851E+02  0.40087935420E+03  0.40650548618E+03  0.00000000000E+00 0. -1.
        -12    1    6    6    0    0 -0.85793456285E+02  0.14725021179E+02  0.12590994521E+04  0.12621048980E+04  0.00000000000E+00 0.  1.
         -5    1    5    5    0  503  0.30047587366E+02  0.29143732099E+02  0.34371856011E+03  0.34628998425E+03  0.47000000000E+01 0.  1.
<mgrwt>
<rscale>  2 0.21051345E+03</rscale>
<asrwt>0</asrwt>
<pdfrwt beam="1">  1       21 0.34409892E+00 0.21218001E+03</pdfrwt>
<pdfrwt beam="2">  1       21 0.80125594E-02 0.21218001E+03</pdfrwt>
<totfact> 0.22104687E+03</totfact>
</mgrwt>
</event>
<event>
12    1  0.1441827E-001  0.1785984E+03  0.7546771E-02  0.1169450E+00
         21   -1    0    0  504  503  0.00000000000E+00  0.00000000000E+00  0.28874247150E+04  0.28874247150E+04  0.00000000000E+00 0. -1.
         21   -1    0    0  502  504 -0.00000000000E+00 -0.00000000000E+00 -0.14208349902E+02  0.14208349902E+02  0.00000000000E+00 0. -1.
          6    2    1    2  502    0  0.10252564721E+01  0.39377824890E+02  0.74097425611E+03  0.76192425015E+03  0.17301459623E+03 0.  0.
         24    2    3    3    0    0 -0.41959896797E+02  0.48070547638E+02  0.27206048444E+03  0.29094070257E+03  0.80982558178E+02 0.  0.
         -6    2    1    2    0  503 -0.10252564721E+01 -0.39377824890E+02  0.21322421090E+04  0.21397088147E+04  0.17420027650E+03 0.  0.
        -24    2    5    5    0    0  0.19577153110E+02  0.41081595396E+02  0.89843168192E+03  0.90309713862E+03  0.79586382663E+02 0.  0.
          4    1    4    4  501    0 -0.61393318262E+02  0.42958693874E+02  0.15492360590E+03  0.17209274410E+03  0.00000000000E+00 0. -1.
         -3    1    4    4    0  501  0.19433421464E+02  0.51118537634E+01  0.11713687854E+03  0.11884795847E+03  0.00000000000E+00 0.  1.
          5    1    3    3  502    0  0.42985153269E+02 -0.86927227476E+01  0.46891377167E+03  0.47098354758E+03  0.47000000000E+01 0. -1.
         11    1    6    6    0    0  0.58507035391E+01 -0.51553509192E+01  0.64890398216E+03  0.64895083515E+03  0.00000000000E+00 0. -1.
        -12    1    6    6    0    0  0.13726449571E+02  0.46236946315E+02  0.24952769976E+03  0.25414630347E+03  0.00000000000E+00 0.  1.
         -5    1    5    5    0  503 -0.20602409582E+02 -0.80459420286E+02  0.12338104271E+04  0.12366116761E+04  0.47000000000E+01 0.  1.
<mgrwt>
<rscale>  2 0.17830866E+03</rscale>
<asrwt>0</asrwt>
<pdfrwt beam="1">  1       21 0.44421872E+00 0.17859843E+03</pdfrwt>
<pdfrwt beam="2">  1       21 0.21859023E-02 0.17859843E+03</pdfrwt>
<totfact> 0.49394513E+03</totfact>
</mgrwt>
</event>
<event>
12    1  0.1441827E-001  0.1886671E+03  0.7546771E-02  0.1159701E+00
         21   -1    0    0  504  503  0.00000000000E+00  0.00000000000E+00  0.21751215500E+03  0.21751215500E+03  0.00000000000E+00 0. -1.
         21   -1    0    0  502  504 -0.00000000000E+00 -0.00000000000E+00 -0.21261778169E+03  0.21261778169E+03  0.00000000000E+00 0. -1.
          6    2    1    2  502    0  0.33691597766E+02  0.66580199316E+02 -0.10089648096E+03  0.21382694496E+03  0.17312947704E+03 0.  0.
         24    2    3    3    0    0  0.49585414363E+02  0.30168448208E+02  0.58301747547E+01  0.99848446700E+02  0.81036243657E+02 0.  0.
         -6    2    1    2    0  503 -0.33691597766E+02 -0.66580199316E+02  0.10579085427E+03  0.21630299174E+03  0.17328367692E+03 0.  0.
        -24    2    5    5    0    0 -0.13238189825E+02 -0.89844849632E+02  0.16494967242E+02  0.12166985119E+03  0.79272454662E+02 0.  0.
          4    1    4    4  501    0  0.28825656731E+02  0.55190533432E+02  0.18498887931E+02  0.64954771350E+02  0.00000000000E+00 0. -1.
         -3    1    4    4    0  501  0.20759757632E+02 -0.25022085224E+02 -0.12668713176E+02  0.34893675350E+02  0.00000000000E+00 0.  1.
          5    1    3    3  502    0 -0.15893816597E+02  0.36411751108E+02 -0.10672665571E+03  0.11397849826E+03  0.47000000000E+01 0. -1.
         11    1    6    6    0    0 -0.30248416388E+02 -0.40202916777E+02  0.39898958865E+02  0.64211900221E+02  0.00000000000E+00 0. -1.
        -12    1    6    6    0    0  0.17010226563E+02 -0.49641932855E+02 -0.23403991623E+02  0.57457950966E+02  0.00000000000E+00 0.  1.
         -5    1    5    5    0  503 -0.20453407940E+02  0.23264650317E+02  0.89295887028E+02  0.94633140552E+02  0.47000000000E+01 0.  1.
<mgrwt>
<rscale>  2 0.18863170E+03</rscale>
<asrwt>0</asrwt>
<pdfrwt beam="1">  1       21 0.33463408E-01 0.18866711E+03</pdfrwt>
<pdfrwt beam="2">  1       21 0.32710428E-01 0.18866711E+03</pdfrwt>
<totfact> 0.77494306E+04</totfact>
</mgrwt>
</event>
<event>
12    1  0.1441827E-001  0.1889325E+03  0.7546771E-02  0.1159496E+00
         21   -1    0    0  504  503  0.00000000000E+00  0.00000000000E+00  0.71014019977E+02  0.71014019977E+02  0.00000000000E+00 0.  1.
         21   -1    0    0  502  504 -0.00000000000E+00 -0.00000000000E+00 -0.52045779317E+03  0.52045779317E+03  0.00000000000E+00 0. -1.
          6    2    1    2  502    0  0.47199233156E+02  0.58257417599E+02 -0.28079617446E+03  0.33844052178E+03  0.17341799467E+03 0.  0.
         24    2    3    3    0    0  0.59535167794E+02 -0.95866192459E+01 -0.88172721105E+02  0.13379235198E+03  0.80558210192E+02 0.  0.
         -6    2    1    2    0  503 -0.47199233156E+02 -0.58257417599E+02 -0.16864759873E+03  0.25303129137E+03  0.17309282925E+03 0.  0.
        -24    2    5    5    0    0  0.10351293202E+02 -0.19022434701E+02 -0.10934401139E+02  0.80558135013E+02  0.76818290112E+02 0.  0.
          4    1    4    4  501    0  0.34884211243E+02  0.28361908956E+02 -0.14331030826E+02  0.47187758139E+02  0.00000000000E+00 0. -1.
         -3    1    4    4    0  501  0.24650956551E+02 -0.37948528202E+02 -0.73841690279E+02  0.86604593844E+02  0.00000000000E+00 0.  1.
          5    1    3    3  502    0 -0.12335934638E+02  0.67844036844E+02 -0.19262345335E+03  0.20464816979E+03  0.47000000000E+01 0. -1.
         13    1    6    6    0    0  0.39980684473E+02 -0.21188304908E+02 -0.20037416065E+02  0.49486335876E+02  0.00000000000E+00 0. -1.
        -14    1    6    6    0    0 -0.29629391272E+02  0.21658702078E+01  0.91030149258E+01  0.31071799138E+02  0.00000000000E+00 0.  1.
         -5    1    5    5    0  503 -0.57550526358E+02 -0.39234982898E+02 -0.15771319760E+03  0.17247315635E+03  0.47000000000E+01 0.  1.
<mgrwt>
<rscale>  2 0.18885787E+03</rscale>
<asrwt>0</asrwt>
<pdfrwt beam="1">  1       21 0.10925234E-01 0.18893251E+03</pdfrwt>
<pdfrwt beam="2">  1       21 0.80070431E-01 0.18893251E+03</pdfrwt>
<totfact> 0.95360412E+04</totfact>
</mgrwt>
</event>
<event>
12    1  0.1441827E-001  0.2109732E+03  0.7546771E-02  0.1141300E+00
         21   -1    0    0  504  503  0.00000000000E+00  0.00000000000E+00  0.18323302232E+04  0.18323302232E+04  0.00000000000E+00 0. -1.
         21   -1    0    0  502  504 -0.00000000000E+00 -0.00000000000E+00 -0.40589144306E+02  0.40589144306E+02  0.00000000000E+00 0.  1.
          6    2    1    2  502    0  0.42663641477E+02  0.10979327922E+03  0.30039999472E+03  0.36708288827E+03  0.17502839646E+03 0.  0.
         24    2    3    3    0    0  0.68096368126E+02  0.12865832303E+03  0.19365349962E+03  0.25563954985E+03  0.81607733052E+02 0.  0.
         -6    2    1    2    0  503 -0.42663641477E+02 -0.10979327922E+03  0.14913410841E+04  0.15058364792E+04  0.17196081644E+03 0.  0.
        -24    2    5    5    0    0 -0.74655678508E+02 -0.50661412737E+02  0.12305221427E+04  0.12364507366E+04  0.80533418289E+02 0.  0.
          2    1    4    4  501    0  0.76638558668E+02  0.10238413237E+03  0.18810002366E+03  0.22745900320E+03  0.00000000000E+00 0. -1.
         -1    1    4    4    0  501 -0.85421905423E+01  0.26274190658E+02  0.55534759600E+01  0.28180546645E+02  0.00000000000E+00 0.  1.
          5    1    3    3  502    0 -0.25432726649E+02 -0.18865043810E+02  0.10674649509E+03  0.11144333842E+03  0.47000000000E+01 0. -1.
         13    1    6    6    0    0 -0.13186514409E+02  0.15986085732E+02  0.48393006531E+03  0.48437356163E+03  0.00000000000E+00 0. -1.
        -14    1    6    6    0    0 -0.61469164099E+02 -0.66647498469E+02  0.74659207735E+03  0.75207717500E+03  0.00000000000E+00 0.  1.
         -5    1    5    5    0  503  0.31992037031E+02 -0.59131866483E+02  0.26081894148E+03  0.26938574258E+03  0.47000000000E+01 0.  1.
<mgrwt>
<rscale>  2 0.21033584E+03</rscale>
<asrwt>0</asrwt>
<pdfrwt beam="1">  1       21 0.28189689E+00 0.21097320E+03</pdfrwt>
<pdfrwt beam="2">  1       21 0.62444852E-02 0.21097320E+03</pdfrwt>
<totfact> 0.78418994E+03</totfact>
</mgrwt>
</event>
<event>
12    1  0.1441827E-001  0.2054669E+03  0.7546771E-02  0.1145394E+00
         21   -1    0    0  504  503  0.00000000000E+00  0.00000000000E+00  0.40285491057E+03  0.40285491057E+03  0.00000000000E+00 0. -1.
         21   -1    0    0  502  504 -0.00000000000E+00 -0.00000000000E+00 -0.10435472931E+03  0.10435472931E+03  0.00000000000E+00 0.  1.
          6    2    1    2  502    0  0.94725712162E+01 -0.11073706520E+03  0.15315418026E+03  0.25553106140E+03  0.17171922779E+03 0.  0.
         24    2    3    3    0    0  0.39145774330E+02  0.82866703327E+01  0.28843094577E+02  0.80824207992E+02  0.64027868461E+02 0.  0.
         -6    2    1    2    0  503 -0.94725712162E+01  0.11073706520E+03  0.14534600099E+03  0.25167857848E+03  0.17281267213E+03 0.  0.
        -24    2    5    5    0    0 -0.44477747921E+02  0.48512082458E+02  0.16505856736E+02  0.10430428071E+03  0.79216459542E+02 0.  0.
          4    1    4    4  501    0  0.87037613198E+01  0.17154949666E+02  0.42231259279E+02  0.46406109721E+02  0.00000000000E+00 0. -1.
         -3    1    4    4    0  501  0.30442013010E+02 -0.88682793335E+01 -0.13388164703E+02  0.34418098270E+02  0.00000000000E+00 0.  1.
          5    1    3    3  502    0 -0.29673203114E+02 -0.11902373553E+03  0.12431108569E+03  0.17470685341E+03  0.47000000000E+01 0. -1.
         11    1    6    6    0    0  0.46337026264E+01 -0.10929653072E+02  0.24060329804E+02  0.26829610258E+02  0.00000000000E+00 0. -1.
        -12    1    6    6    0    0 -0.49111450547E+02  0.59441735530E+02 -0.75544730681E+01  0.77474670448E+02  0.00000000000E+00 0.  1.
         -5    1    5    5    0  503  0.35005176705E+02  0.62224982743E+02  0.12884014426E+03  0.14737429778E+03  0.47000000000E+01 0.  1.
<mgrwt>
<rscale>  2 0.20523681E+03</rscale>
<asrwt>0</asrwt>
<pdfrwt beam="1">  1       21 0.61977678E-01 0.20546690E+03</pdfrwt>
<pdfrwt beam="2">  1       21 0.16054574E-01 0.20546690E+03</pdfrwt>
<totfact> 0.83273055E+04</totfact>
</mgrwt>
</event>
<event>
12    1  0.1441827E-001  0.3133369E+03  0.7546771E-02  0.1078843E+00
         21   -1    0    0  504  503  0.00000000000E+00  0.00000000000E+00  0.13636657341E+03  0.13636657341E+03  0.00000000000E+00 0.  1.
         21   -1    0    0  502  504 -0.00000000000E+00 -0.00000000000E+00 -0.88141475728E+03  0.88141475728E+03  0.00000000000E+00 0. -1.
          6    2    1    2  502    0  0.26172026407E+03 -0.14318415806E+02 -0.15325795464E+03  0.34815779562E+03  0.17036236772E+03 0.  0.
         24    2    3    3    0    0  0.23135534408E+03  0.36256567134E+02 -0.94900619656E+02  0.26504626927E+03  0.80022267843E+02 0.  0.
         -6    2    1    2    0  503 -0.26172026407E+03  0.14318415806E+02 -0.59179022923E+03  0.66962353507E+03  0.17169009771E+03 0.  0.
        -24    2    5    5    0    0 -0.54281472287E+02  0.36624192384E+02 -0.17264094328E+03  0.20139643855E+03  0.80422760842E+02 0.  0.
          4    1    4    4  501    0  0.33280918267E+02  0.14591782816E+02  0.12823005757E+02  0.38535297107E+02  0.00000000000E+00 0. -1.
         -3    1    4    4    0  501  0.19807442581E+03  0.21664784319E+02 -0.10772362541E+03  0.22651097217E+03  0.00000000000E+00 0.  1.
          5    1    3    3  502    0  0.30364919997E+02 -0.50574982940E+02 -0.58357334982E+02  0.83111526349E+02  0.47000000000E+01 0. -1.
         13    1    6    6    0    0 -0.70619705754E+02  0.28068202078E+02 -0.16456278937E+03  0.18126190569E+03  0.00000000000E+00 0. -1.
        -14    1    6    6    0    0  0.16338233467E+02  0.85559903061E+01 -0.80781539165E+01  0.20134532864E+02  0.00000000000E+00 0.  1.
         -5    1    5    5    0  503 -0.20743879179E+03 -0.22305776578E+02 -0.41914928594E+03  0.46822709652E+03  0.47000000000E+01 0.  1.
<mgrwt>
<rscale>  2 0.31315534E+03</rscale>
<asrwt>0</asrwt>
<pdfrwt beam="1">  1       21 0.20979472E-01 0.31333688E+03</pdfrwt>
<pdfrwt beam="2">  1       21 0.13560227E+00 0.31333688E+03</pdfrwt>
<totfact> 0.76137819E+03</totfact>
</mgrwt>
</event>
<event>
12    1  0.1441827E-001  0.3578258E+03  0.7546771E-02  0.1059604E+00
         21   -1    0    0  504  503  0.00000000000E+00  0.00000000000E+00  0.37380793584E+03  0.37380793584E+03  0.00000000000E+00 0.  1.
         21   -1    0    0  502  504 -0.00000000000E+00 -0.00000000000E+00 -0.10635382593E+04  0.10635382593E+04  0.00000000000E+00 0. -1.
          6    2    1    2  502    0  0.25450324856E+03  0.18286486355E+03 -0.93744896667E+03  0.10034190855E+04  0.17270736563E+03 0.  0.
         24    2    3    3    0    0  0.10550944136E+03  0.68501916705E+02 -0.25406467067E+03  0.29467778979E+03  0.80382759994E+02 0.  0.
         -6    2    1    2    0  503 -0.25450324856E+03 -0.18286486355E+03  0.24771864323E+03  0.43392710964E+03  0.16946016767E+03 0.  0.
        -24    2    5    5    0    0 -0.12130470472E+03 -0.13327364947E+03  0.77750380257E+02  0.21231384060E+03  0.80965105146E+02 0.  0.
          4    1    4    4  501    0  0.45581419482E+02  0.74955989602E+02 -0.13124051112E+03  0.15786113498E+03  0.00000000000E+00 0. -1.
         -3    1    4    4    0  501  0.59928021875E+02 -0.64540728973E+01 -0.12282415955E+03  0.13681665480E+03  0.00000000000E+00 0.  1.
          5    1    3    3  502    0  0.14899380720E+03  0.11436294685E+03 -0.68338429600E+03  0.70874129569E+03  0.47000000000E+01 0. -1.
         11    1    6    6    0    0  0.42315938209E+01  0.74040543599E+01  0.45816282319E+00  0.85402763657E+01  0.00000000000E+00 0. -1.
        -12    1    6    6    0    0 -0.12553629855E+03 -0.14067770383E+03  0.77292217434E+02  0.20377356424E+03  0.00000000000E+00 0.  1.
         -5    1    5    5    0  503 -0.13319854383E+03 -0.49591214086E+02  0.16996826298E+03  0.22161326904E+03  0.47000000000E+01 0.  1.
<mgrwt>
<rscale>  2 0.35743617E+03</rscale>
<asrwt>0</asrwt>
<pdfrwt beam="1">  1       21 0.57508914E-01 0.35782579E+03</pdfrwt>
<pdfrwt beam="2">  1       21 0.16362127E+00 0.35782579E+03</pdfrwt>
<totfact> 0.58738642E+02</totfact>
</mgrwt>
</event>
<event>
12    1  0.1441827E-001  0.1859446E+03  0.7546771E-02  0.1162894E+00
         21   -1    0    0  504  503  0.00000000000E+00  0.00000000000E+00  0.13010753168E+03  0.13010753168E+03  0.00000000000E+00 0.  1.
         21   -1    0    0  502  504 -0.00000000000E+00 -0.00000000000E+00 -0.66315665075E+03  0.66315665075E+03  0.00000000000E+00 0.  1.
          6    2    1    2  502    0  0.30054853087E+02 -0.52012664640E+02 -0.57613885807E+03  0.60540182717E+03  0.17597379659E+03 0.  0.
         24    2    3    3    0    0  0.66030467065E+02  0.14865517844E+01 -0.21558124776E+03  0.23909554642E+03  0.79556102967E+02 0.  0.
         -6    2    1    2    0  503 -0.30054853087E+02  0.52012664640E+02  0.43089738992E+02  0.18786235526E+03  0.17270474064E+03 0.  0.
        -24    2    5    5    0    0 -0.77672046494E+02  0.48355484084E+02  0.61214230804E+02  0.13656557874E+03  0.80819401114E+02 0.  0.
          2    1    4    4  501    0  0.60620966321E+02 -0.55616481010E+01 -0.68082339076E+02  0.91329285453E+02  0.00000000000E+00 0. -1.
         -1    1    4    4    0  501  0.54095007440E+01  0.70481998854E+01 -0.14749890868E+03  0.14776626097E+03  0.00000000000E+00 0.  1.
          5    1    3    3  502    0 -0.35975613978E+02 -0.53499216424E+02 -0.36055761032E+03  0.36630628075E+03  0.47000000000E+01 0. -1.
         11    1    6    6    0    0 -0.13775423890E+02 -0.21145970732E+02  0.24781065407E+02  0.35369698674E+02  0.00000000000E+00 0. -1.
        -12    1    6    6    0    0 -0.63896622604E+02  0.69501454816E+02  0.36433165397E+02  0.10119588007E+03  0.00000000000E+00 0.  1.
         -5    1    5    5    0  503  0.47617193407E+02  0.36571805560E+01 -0.18124491812E+02  0.51296776517E+02  0.47000000000E+01 0.  1.
<mgrwt>
<rscale>  2 0.18516704E+03</rscale>
<asrwt>0</asrwt>
<pdfrwt beam="1">  1       21 0.20016544E-01 0.18594458E+03</pdfrwt>
<pdfrwt beam="2">  1       21 0.10202410E+00 0.18594458E+03</pdfrwt>
<totfact> 0.18115164E+04</totfact>
</mgrwt>
</event>
<event>
12    1  0.1441827E-001  0.1993572E+03  0.7546771E-02  0.1150291E+00
         21   -1    0    0  504  503  0.00000000000E+00  0.00000000000E+00  0.28389672095E+02  0.28389672095E+02  0.00000000000E+00 0. -1.
         21   -1    0    0  502  504 -0.00000000000E+00 -0.00000000000E+00 -0.14005488085E+04  0.14005488085E+04  0.00000000000E+00 0. -1.
          6    2    1    2  502    0 -0.53699485336E+02  0.82291207440E+02 -0.70437685895E+03  0.73204511405E+03  0.17345838704E+03 0.  0.
         24    2    3    3    0    0  0.15810322733E+02  0.77220653408E+02 -0.21219548534E+03  0.23493152696E+03  0.62872114213E+02 0.  0.
         -6    2    1    2    0  503  0.53699485336E+02 -0.82291207440E+02 -0.66778227746E+03  0.69689336655E+03  0.17341198547E+03 0.  0.
        -24    2    5    5    0    0  0.26734895701E+02 -0.11716754963E+03 -0.59079331778E+03  0.60805171949E+03  0.79038977167E+02 0.  0.
          2    1    4    4  501    0 -0.62385401972E+01  0.76958970673E+02 -0.14598925746E+03  0.16514982847E+03  0.00000000000E+00 0. -1.
         -1    1    4    4    0  501  0.22048862931E+02  0.26168273563E+00 -0.66206227876E+02  0.69781698489E+02  0.00000000000E+00 0.  1.
          5    1    3    3  502    0 -0.69509808070E+02  0.50705540318E+01 -0.49218137361E+03  0.49711358708E+03  0.47000000000E+01 0. -1.
         13    1    6    6    0    0  0.38677894739E+02 -0.99680813051E+02 -0.34117707319E+03  0.35753886405E+03  0.00000000000E+00 0. -1.
        -14    1    6    6    0    0 -0.11942999037E+02 -0.17486736580E+02 -0.24961624459E+03  0.25051285545E+03  0.00000000000E+00 0.  1.
         -5    1    5    5    0  503  0.26964589635E+02  0.34876342191E+02 -0.76988959677E+02  0.88841647052E+02  0.47000000000E+01 0.  1.
<mgrwt>
<rscale>  2 0.19934710E+03</rscale>
<asrwt>0</asrwt>
<pdfrwt beam="1">  1       21 0.43676416E-02 0.19935719E+03</pdfrwt>
<pdfrwt beam="2">  1       21 0.21546906E+00 0.19935719E+03</pdfrwt>
<totfact> 0.36089057E+04</totfact>
</mgrwt>
</event>
<event>
12    1  0.1441827E-001  0.2132171E+03  0.7546771E-02  0.1142755E+00
         21   -1    0    0  504  503  0.00000000000E+00  0.00000000000E+00  0.19108050942E+03  0.19108050942E+03  0.00000000000E+00 0.  1.
         21   -1    0    0  502  504 -0.00000000000E+00 -0.00000000000E+00 -0.27482374455E+03  0.27482374455E+03  0.00000000000E+00 0.  1.
          6    2    1    2  502    0  0.37184058977E+02  0.97804666779E+02 -0.14622009473E+03  0.24372214172E+03  0.16453497859E+03 0.  0.
         24    2    3    3    0    0  0.85521007833E+01  0.12597409093E+03 -0.13197256953E+03  0.20084572092E+03  0.83544206806E+02 0.  0.
         -6    2    1    2    0  503 -0.37184058977E+02 -0.97804666779E+02  0.62476859595E+02  0.22218211225E+03  0.18577708667E+03 0.  0.
        -24    2    5    5    0    0 -0.68382066387E+02 -0.12921096983E+03  0.54355246260E+02  0.17693034830E+03  0.83536061828E+02 0.  0.
          2    1    4    4  501    0 -0.15673437109E+02  0.10948686258E+03 -0.66351276644E+02  0.12897876422E+03  0.00000000000E+00 0. -1.
         -1    1    4    4    0  501  0.24225537892E+02  0.16487228347E+02 -0.65621292886E+02  0.71866956696E+02  0.00000000000E+00 0.  1.
          5    1    3    3  502    0  0.28631958193E+02 -0.28169424148E+02 -0.14247525197E+02  0.42876420805E+02  0.47000000000E+01 0. -1.
         13    1    6    6    0    0 -0.28833474551E+02 -0.40048221431E+01  0.32824290303E+02  0.43873020058E+02  0.00000000000E+00 0. -1.
        -14    1    6    6    0    0 -0.39548591836E+02 -0.12520614768E+03  0.21530955957E+02  0.13305732824E+03  0.00000000000E+00 0.  1.
         -5    1    5    5    0  503  0.31198007410E+02  0.31406303046E+02  0.81216133354E+01  0.45251763950E+02  0.47000000000E+01 0.  1.
<mgrwt>
<rscale>  2 0.20850587E+03</rscale>
<asrwt>0</asrwt>
<pdfrwt beam="1">  1       21 0.29397002E-01 0.21321710E+03</pdfrwt>
<pdfrwt beam="2">  1       21 0.42280576E-01 0.21321710E+03</pdfrwt>
<totfact> 0.59111265E+04</totfact>
</mgrwt>
</event>
<event>
12    1  0.1441827E-001  0.1771826E+03  0.7546771E-02  0.1170644E+00
         21   -1    0    0  504  503  0.00000000000E+00  0.00000000000E+00  0.28363210083E+04  0.28363210083E+04  0.00000000000E+00 0.  1.
         21   -1    0    0  502  504 -0.00000000000E+00 -0.00000000000E+00 -0.24540154875E+02  0.24540154875E+02  0.00000000000E+00 0.  1.
          6    2    1    2  502    0 -0.38656414591E+02 -0.15032375398E+01  0.34582139719E+03  0.38856930825E+03  0.17290775126E+03 0.  0.
         24    2    3    3    0    0 -0.15344686923E+02  0.58607639479E+02  0.13443380940E+03  0.16751828143E+03  0.79495979035E+02 0.  0.
         -6    2    1    2    0  503  0.38656414591E+02  0.15032375398E+01  0.24659594562E+04  0.24722918549E+04  0.17255259500E+03 0.  0.
        -24    2    5    5    0    0  0.54846096131E+02 -0.48271488414E+01  0.75501704728E+03  0.76125468516E+03  0.80165817925E+02 0.  0.
          4    1    4    4  501    0 -0.48091446088E+02  0.37459881396E+02  0.83067714778E+02  0.10303531016E+03  0.00000000000E+00 0. -1.
         -3    1    4    4    0  501  0.32746759165E+02  0.21147758084E+02  0.51366094622E+02  0.64482971276E+02  0.00000000000E+00 0.  1.
          5    1    3    3  502    0 -0.23311727668E+02 -0.60110877019E+02  0.21138758779E+03  0.22105102682E+03  0.47000000000E+01 0. -1.
         13    1    6    6    0    0  0.53580281406E+02 -0.29632357931E+02  0.66687783843E+03  0.66968274174E+03  0.00000000000E+00 0. -1.
        -14    1    6    6    0    0  0.12658147254E+01  0.24805209090E+02  0.88139208844E+02  0.91571943413E+02  0.00000000000E+00 0.  1.
         -5    1    5    5    0  503 -0.16189681540E+02  0.63303863813E+01  0.17109424090E+04  0.17110371698E+04  0.47000000000E+01 0.  1.
<mgrwt>
<rscale>  2 0.17709588E+03</rscale>
<asrwt>0</asrwt>
<pdfrwt beam="1">  1       21 0.43635682E+00 0.17718259E+03</pdfrwt>
<pdfrwt beam="2">  1       21 0.37754107E-02 0.17718259E+03</pdfrwt>
<totfact> 0.22621574E+03</totfact>
</mgrwt>
</event>
<event>
12    1  0.1441827E-001  0.1951251E+03  0.7546771E-02  0.1154125E+00
         21   -1    0    0  504  503  0.00000000000E+00  0.00000000000E+00  0.32021042129E+03  0.32021042129E+03  0.00000000000E+00 0. -1.
         21   -1    0    0  502  504 -0.00000000000E+00 -0.00000000000E+00 -0.17091608609E+03  0.17091608609E+03  0.00000000000E+00 0. -1.
          6    2    1    2  502    0  0.48095521850E+02  0.71514127816E+02  0.21098463537E+03  0.28738185210E+03  0.17506102609E+03 0.  0.
         24    2    3    3    0    0  0.85295247013E+02  0.18653250952E+01  0.11723325830E+03  0.16471895643E+03  0.78166099773E+02 0.  0.
         -6    2    1    2    0  503 -0.48095521850E+02 -0.71514127816E+02 -0.61690300176E+02  0.20374465528E+03  0.17400787833E+03 0.  0.
        -24    2    5    5    0    0  0.23247469039E+02 -0.28767691812E+02 -0.83207891543E+02  0.11770875069E+03  0.74590695572E+02 0.  0.
          4    1    4    4  501    0  0.56173518251E+02  0.30354069683E+02  0.34679343561E+02  0.72660103006E+02  0.00000000000E+00 0. -1.
         -3    1    4    4    0  501  0.29121728763E+02 -0.28488744587E+02  0.82553914743E+02  0.92058853424E+02  0.00000000000E+00 0.  1.
          5    1    3    3  502    0 -0.37199725164E+02  0.69648802721E+02  0.93751377068E+02  0.12266289567E+03  0.47000000000E+01 0. -1.
         11    1    6    6    0    0  0.22335472429E+01 -0.26675049268E+02  0.48063603739E+01  0.27196471954E+02  0.00000000000E+00 0. -1.
        -12    1    6    6    0    0  0.21013921796E+02 -0.20926425440E+01 -0.88014251917E+02  0.90512278739E+02  0.00000000000E+00 0.  1.
         -5    1    5    5    0  503 -0.71342990889E+02 -0.42746436004E+02  0.21517591367E+02  0.86035904588E+02  0.47000000000E+01 0.  1.
<mgrwt>
<rscale>  2 0.19488862E+03</rscale>
<asrwt>0</asrwt>
<pdfrwt beam="1">  1       21 0.49263142E-01 0.19512512E+03</pdfrwt>
<pdfrwt beam="2">  1       21 0.26294782E-01 0.19512512E+03</pdfrwt>
<totfact> 0.53982205E+04</totfact>
</mgrwt>
</event>
<event>
12    1  0.1441827E-001  0.2120725E+03  0.7546771E-02  0.1140053E+00
         21   -1    0    0  504  503  0.00000000000E+00  0.00000000000E+00  0.29521211567E+03  0.29521211567E+03  0.00000000000E+00 0.  1.
         21   -1    0    0  502  504 -0.00000000000E+00 -0.00000000000E+00 -0.44143764482E+03  0.44143764482E+03  0.00000000000E+00 0. -1.
          6    2    1    2  502    0  0.12531289074E+01 -0.12232386729E+03 -0.37136589433E+03  0.42735553339E+03  0.17249761044E+03 0.  0.
         24    2    3    3    0    0  0.33889980979E+02 -0.14572794181E+03 -0.28146051191E+03  0.32877570480E+03  0.80549863228E+02 0.  0.
         -6    2    1    2    0  503 -0.12531289074E+01  0.12232386729E+03  0.22514036518E+03  0.30929422711E+03  0.17323404991E+03 0.  0.
        -24    2    5    5    0    0 -0.20543422101E+02  0.14733512443E+03  0.21921965804E+03  0.27681618578E+03  0.80251300027E+02 0.  0.
          4    1    4    4  501    0  0.34648158481E+02 -0.22082969100E+02 -0.10967176437E+03  0.11711553403E+03  0.00000000000E+00 0. -1.
         -3    1    4    4    0  501 -0.75817750240E+00 -0.12364497271E+03 -0.17178874754E+03  0.21166017077E+03  0.00000000000E+00 0.  1.
          5    1    3    3  502    0 -0.32636852072E+02  0.23404074523E+02 -0.89905382420E+02  0.98579828594E+02  0.47000000000E+01 0. -1.
         11    1    6    6    0    0  0.11470906775E+02  0.87748830290E+01 -0.12108465704E+01  0.14492978432E+02  0.00000000000E+00 0. -1.
        -12    1    6    6    0    0 -0.32014328876E+02  0.13856024140E+03  0.22043050461E+03  0.26232320735E+03  0.00000000000E+00 0.  1.
         -5    1    5    5    0  503  0.19290293194E+02 -0.25011257144E+02  0.59207071363E+01  0.32478041327E+02  0.47000000000E+01 0.  1.
<mgrwt>
<rscale>  2 0.21192203E+03</rscale>
<asrwt>0</asrwt>
<pdfrwt beam="1">  1       21 0.45417249E-01 0.21207248E+03</pdfrwt>
<pdfrwt beam="2">  1       21 0.67913484E-01 0.21207248E+03</pdfrwt>
<totfact> 0.90854389E+03</totfact>
</mgrwt>
</event>
<event>
12    1  0.1441827E-001  0.2859195E+03  0.7546771E-02  0.1092552E+00
         21   -1    0    0  504  503  0.00000000000E+00  0.00000000000E+00  0.87769355526E+02  0.87769355526E+02  0.00000000000E+00 0.  1.
         21   -1    0    0  502  504 -0.00000000000E+00 -0.00000000000E+00 -0.12115457897E+04  0.12115457897E+04  0.00000000000E+00 0.  1.
          6    2    1    2  502    0  0.18597041844E+03  0.13184232621E+03 -0.87530522574E+03  0.92081984152E+03  0.17257620582E+03 0.  0.
         24    2    3    3    0    0  0.21001552424E+03  0.10562536434E+03 -0.72731611185E+03  0.76854258113E+03  0.80035832199E+02 0.  0.
         -6    2    1    2    0  503 -0.18597041844E+03 -0.13184232621E+03 -0.24847120848E+03  0.37849530376E+03  0.17191090136E+03 0.  0.
        -24    2    5    5    0    0 -0.16142645359E+03 -0.85718562629E+02 -0.10434335959E+03  0.22511755242E+03  0.79901212889E+02 0.  0.
          4    1    4    4  501    0  0.67491195215E+02  0.73247595330E+02 -0.24196268565E+03  0.26166049167E+03  0.00000000000E+00 0. -1.
         -3    1    4    4    0  501  0.14252432902E+03  0.32377769006E+02 -0.48535342620E+03  0.50688208946E+03  0.00000000000E+00 0.  1.
          5    1    3    3  502    0 -0.24045105801E+02  0.26216961875E+02 -0.14798911388E+03  0.15227726039E+03  0.47000000000E+01 0. -1.
         11    1    6    6    0    0  0.51398714614E+00 -0.20346284239E+02 -0.27770736111E+02  0.34430353604E+02  0.00000000000E+00 0. -1.
        -12    1    6    6    0    0 -0.16194044074E+03 -0.65372278390E+02 -0.76572623481E+02  0.19068719882E+03  0.00000000000E+00 0.  1.
         -5    1    5    5    0  503 -0.24543964847E+02 -0.46123763583E+02 -0.14412784889E+03  0.15337775133E+03  0.47000000000E+01 0.  1.
<mgrwt>
<rscale>  2 0.28581915E+03</rscale>
<asrwt>0</asrwt>
<pdfrwt beam="1">  1       21 0.13502979E-01 0.28591947E+03</pdfrwt>
<pdfrwt beam="2">  1       21 0.18639165E+00 0.28591947E+03</pdfrwt>
<totfact> 0.73198498E+03</totfact>
</mgrwt>
</event>
<event>
12    1  0.1441827E-001  0.2407841E+03  0.7546771E-02  0.1119307E+00
         21   -1    0    0  504  503  0.00000000000E+00  0.00000000000E+00  0.16596581645E+03  0.16596581645E+03  0.00000000000E+00 0. -1.
         21   -1    0    0  502  504 -0.00000000000E+00 -0.00000000000E+00 -0.39591373362E+03  0.39591373362E+03  0.00000000000E+00 0. -1.
          6    2    1    2  502    0  0.16445617783E+03 -0.31600765814E+02 -0.18329836088E+02  0.24148077973E+03  0.17301023456E+03 0.  0.
         24    2    3    3    0    0  0.85083106111E+02 -0.46824991418E+01 -0.76235392451E+02  0.13950126683E+03  0.79923135832E+02 0.  0.
         -6    2    1    2    0  503 -0.16445617783E+03  0.31600765814E+02 -0.21161808108E+03  0.32039877034E+03  0.17270992146E+03 0.  0.
        -24    2    5    5    0    0 -0.16204224688E+03 -0.26703038916E+02 -0.15168599212E+03  0.23661866533E+03  0.77517807746E+02 0.  0.
          2    1    4    4  501    0  0.64731437717E+02  0.33324544341E+02 -0.56130130813E+02  0.91930821107E+02  0.00000000000E+00 0. -1.
         -1    1    4    4    0  501  0.20351668394E+02 -0.38007043482E+02 -0.20105261639E+02  0.47570445723E+02  0.00000000000E+00 0.  1.
          5    1    3    3  502    0  0.79373071717E+02 -0.26918266672E+02  0.57905556363E+02  0.10197951290E+03  0.47000000000E+01 0. -1.
         13    1    6    6    0    0 -0.12055695059E+03  0.16510818411E+02 -0.10317018141E+03  0.15953266685E+03  0.00000000000E+00 0. -1.
        -14    1    6    6    0    0 -0.41485296287E+02 -0.43213857327E+02 -0.48515810710E+02  0.77085998482E+02  0.00000000000E+00 0.  1.
         -5    1    5    5    0  503 -0.24139309527E+01  0.58303804730E+02 -0.59932088958E+02  0.83780105011E+02  0.47000000000E+01 0.  1.
<mgrwt>
<rscale>  2 0.24073016E+03</rscale>
<asrwt>0</asrwt>
<pdfrwt beam="1">  1       21 0.25533202E-01 0.24078410E+03</pdfrwt>
<pdfrwt beam="2">  1       21 0.60909805E-01 0.24078410E+03</pdfrwt>
<totfact> 0.35639542E+04</totfact>
</mgrwt>
</event>
<event>
12    1  0.1441827E-001  0.1998822E+03  0.7546771E-02  0.1150586E+00
         21   -1    0    0  504  503  0.00000000000E+00  0.00000000000E+00  0.49784780487E+03  0.49784780487E+03  0.00000000000E+00 0.  1.
         21   -1    0    0  502  504 -0.00000000000E+00 -0.00000000000E+00 -0.21008837404E+03  0.21008837404E+03  0.00000000000E+00 0.  1.
          6    2    1    2  502    0  0.75312062411E+02  0.52702519567E+02 -0.13540373260E+03  0.24142712029E+03  0.17749203164E+03 0.  0.
         24    2    3    3    0    0  0.75021109524E+02  0.40570564324E+02 -0.16869642198E+03  0.20568132113E+03  0.81069016964E+02 0.  0.
         -6    2    1    2    0  503 -0.75312062411E+02 -0.52702519567E+02  0.42316316342E+03  0.46650905862E+03  0.17353436714E+03 0.  0.
        -24    2    5    5    0    0 -0.33388855242E+02  0.22853311178E+02  0.31730820563E+03  0.32978451455E+03  0.80226175246E+02 0.  0.
          2    1    4    4  501    0  0.85900000660E+02  0.13425314341E+02 -0.11099870710E+03  0.14099561041E+03  0.00000000000E+00 0. -1.
         -1    1    4    4    0  501 -0.10878891136E+02  0.27145249983E+02 -0.57697714881E+02  0.64685710721E+02  0.00000000000E+00 0.  1.
          5    1    3    3  502    0  0.29095288708E+00  0.12131955243E+02  0.33292689375E+02  0.35745799158E+02  0.47000000000E+01 0. -1.
         11    1    6    6    0    0  0.15716424672E+02 -0.15082458912E+02  0.14534527741E+03  0.14696848722E+03  0.00000000000E+00 0. -1.
        -12    1    6    6    0    0 -0.49105279914E+02  0.37935770090E+02  0.17196292822E+03  0.18281602733E+03  0.00000000000E+00 0.  1.
         -5    1    5    5    0  503 -0.41923207169E+02 -0.75555830745E+02  0.10585495780E+03  0.13672454406E+03  0.47000000000E+01 0.  1.
<mgrwt>
<rscale>  2 0.19899987E+03</rscale>
<asrwt>0</asrwt>
<pdfrwt beam="1">  1       21 0.76591970E-01 0.19988217E+03</pdfrwt>
<pdfrwt beam="2">  1       21 0.32321288E-01 0.19988217E+03</pdfrwt>
<totfact> 0.13904764E+04</totfact>
</mgrwt>
</event>
<event>
12    1  0.1441827E-001  0.1939939E+03  0.7546771E-02  0.1155225E+00
         21   -1    0    0  504  503  0.00000000000E+00  0.00000000000E+00  0.31694603835E+02  0.31694603835E+02  0.00000000000E+00 0.  1.
         21   -1    0    0  502  504 -0.00000000000E+00 -0.00000000000E+00 -0.11798144703E+04  0.11798144703E+04  0.00000000000E+00 0. -1.
          6    2    1    2  502    0 -0.32365004262E+02 -0.79280983914E+02 -0.59573839875E+03  0.62652843448E+03  0.17407088084E+03 0.  0.
         24    2    3    3    0    0 -0.79717161766E+02 -0.28250094762E+02 -0.29268429151E+03  0.31554570122E+03  0.82171170922E+02 0.  0.
         -6    2    1    2    0  503  0.32365004262E+02  0.79280983914E+02 -0.55238146769E+03  0.58498063963E+03  0.17246476447E+03 0.  0.
        -24    2    5    5    0    0 -0.39423991627E+02  0.85134091386E+02 -0.31971320456E+03  0.34137331325E+03  0.74277460903E+02 0.  0.
          2    1    4    4  501    0 -0.87766957407E+02 -0.24483729057E+02 -0.29280767849E+03  0.30665750991E+03  0.00000000000E+00 0. -1.
         -1    1    4    4    0  501  0.80497956416E+01 -0.37663657050E+01  0.12338698125E+00  0.88881913145E+01  0.00000000000E+00 0.  1.
          5    1    3    3  502    0  0.47352157504E+02 -0.51030889152E+02 -0.30305410724E+03  0.31098273326E+03  0.47000000000E+01 0. -1.
         13    1    6    6    0    0  0.11294338870E+02  0.45236976477E+02 -0.20013471404E+03  0.20549416024E+03  0.00000000000E+00 0. -1.
        -14    1    6    6    0    0 -0.50718330497E+02  0.39897114908E+02 -0.11957849052E+03  0.13587915301E+03  0.00000000000E+00 0.  1.
         -5    1    5    5    0  503  0.71788995888E+02 -0.58531074715E+01 -0.23266826313E+03  0.24360732638E+03  0.47000000000E+01 0.  1.
<mgrwt>
<rscale>  2 0.19363294E+03</rscale>
<asrwt>0</asrwt>
<pdfrwt beam="1">  1       21 0.48760922E-02 0.19399392E+03</pdfrwt>
<pdfrwt beam="2">  1       21 0.18150995E+00 0.19399392E+03</pdfrwt>
<totfact> 0.49840010E+04</totfact>
</mgrwt>
</event>
<event>
12    1  0.1441827E-001  0.1989181E+03  0.7546771E-02  0.1154563E+00
         21   -1    0    0  504  503  0.00000000000E+00  0.00000000000E+00  0.14936522178E+03  0.14936522178E+03  0.00000000000E+00 0. -1.
         21   -1    0    0  502  504 -0.00000000000E+00 -0.00000000000E+00 -0.46428143379E+03  0.46428143379E+03  0.00000000000E+00 0. -1.
          6    2    1    2  502    0 -0.48842893774E+02  0.28545440326E+02 -0.36581140131E+03  0.40832075271E+03  0.17235830509E+03 0.  0.
         24    2    3    3    0    0  0.31904025682E+02 -0.82645183786E+01 -0.13294247753E+03  0.15907175327E+03  0.80894692276E+02 0.  0.
         -6    2    1    2    0  503  0.48842893774E+02 -0.28545440326E+02  0.50895189295E+02  0.20532590285E+03  0.19070379035E+03 0.  0.
        -24    2    5    5    0    0 -0.23105762610E+02 -0.74967474022E+02  0.40172875261E+02  0.11890442181E+03  0.79814805588E+02 0.  0.
          4    1    4    4  501    0  0.20898531644E+02  0.10237809591E+02 -0.13541690426E+03  0.13740196262E+03  0.00000000000E+00 0. -1.
         -3    1    4    4    0  501  0.11005494038E+02 -0.18502327970E+02  0.24744267368E+01  0.21669790654E+02  0.00000000000E+00 0.  1.
          5    1    3    3  502    0 -0.80746919455E+02  0.36809958704E+02 -0.23286892378E+03  0.24924899944E+03  0.47000000000E+01 0. -1.
         13    1    6    6    0    0 -0.36362330190E+01  0.72712679440E+01  0.33114898669E+02  0.34098241039E+02  0.00000000000E+00 0. -1.
        -14    1    6    6    0    0 -0.19469529591E+02 -0.82238741966E+02  0.70579765918E+01  0.84806180766E+02  0.00000000000E+00 0.  1.
         -5    1    5    5    0  503  0.71948656383E+02  0.46422033696E+02  0.10722314034E+02  0.86421481045E+02  0.47000000000E+01 0.  1.
<mgrwt>
<rscale>  2 0.19438742E+03</rscale>
<asrwt>0</asrwt>
<pdfrwt beam="1">  1       21 0.22979265E-01 0.19891809E+03</pdfrwt>
<pdfrwt beam="2">  1       21 0.71427912E-01 0.19891809E+03</pdfrwt>
<totfact> 0.31396717E+04</totfact>
</mgrwt>
</event>
<event>
12    1  0.1441827E-001  0.2856847E+03  0.7546771E-02  0.1092652E+00
         21   -1    0    0  504  503  0.00000000000E+00  0.00000000000E+00  0.19545217787E+03  0.19545217787E+03  0.00000000000E+00 0. -1.
         21   -1    0    0  502  504 -0.00000000000E+00 -0.00000000000E+00 -0.10658583166E+04  0.10658583166E+04  0.00000000000E+00 0. -1.
          6    2    1    2  502    0  0.20920156838E+03  0.88840203853E+02 -0.92722087650E+03  0.97023413739E+03  0.17308335996E+03 0.  0.
         24    2    3    3    0    0  0.86619712054E+02 -0.21882386608E+02 -0.38043623652E+03  0.39902372427E+03  0.80662191319E+02 0.  0.
         -6    2    1    2    0  503 -0.20920156838E+03 -0.88840203853E+02  0.56814737753E+02  0.29107635710E+03  0.17274157925E+03 0.  0.
        -24    2    5    5    0    0 -0.23024401650E+03 -0.87059786604E+02  0.66315530988E+02  0.26744778159E+03  0.80863172413E+02 0.  0.
          4    1    4    4  501    0  0.57599334628E+02 -0.39731302969E+02 -0.33501615325E+03  0.34224564676E+03  0.00000000000E+00 0. -1.
         -3    1    4    4    0  501  0.29020377426E+02  0.17848916361E+02 -0.45420083269E+02  0.56778077507E+02  0.00000000000E+00 0.  1.
          5    1    3    3  502    0  0.12258185633E+03  0.11072259046E+03 -0.54678463998E+03  0.57121041312E+03  0.47000000000E+01 0. -1.
         11    1    6    6    0    0 -0.15108861304E+03 -0.25571935862E+02  0.12662404142E+02  0.15375964806E+03  0.00000000000E+00 0. -1.
        -12    1    6    6    0    0 -0.79155403463E+02 -0.61487850742E+02  0.53653126846E+02  0.11368813353E+03  0.00000000000E+00 0.  1.
         -5    1    5    5    0  503  0.21042448115E+02 -0.17804172488E+01 -0.95007932351E+01  0.23628575504E+02  0.47000000000E+01 0.  1.
<mgrwt>
<rscale>  2 0.28563292E+03</rscale>
<asrwt>0</asrwt>
<pdfrwt beam="1">  1       21 0.30069566E-01 0.28568466E+03</pdfrwt>
<pdfrwt beam="2">  1       21 0.16397820E+00 0.28568466E+03</pdfrwt>
<totfact> 0.23200786E+03</totfact>
</mgrwt>
</event>
<event>
12    1  0.1441827E-001  0.2529933E+03  0.7546771E-02  0.1111815E+00
         21   -1    0    0  504  503  0.00000000000E+00  0.00000000000E+00  0.28562130640E+02  0.28562130640E+02  0.00000000000E+00 0. -1.
         21   -1    0    0  502  504 -0.00000000000E+00 -0.00000000000E+00 -0.22194837904E+04  0.22194837904E+04  0.00000000000E+00 0.  1.
          6    2    1    2  502    0 -0.37963552969E+02  0.17722602225E+03 -0.10845736708E+04  0.11136901159E+04  0.17650873246E+03 0.  0.
         24    2    3    3    0    0 -0.61826606479E+02  0.19634847481E+03 -0.91071866522E+03  0.93710368815E+03  0.79872287654E+02 0.  0.
         -6    2    1    2    0  503  0.37963552969E+02 -0.17722602225E+03 -0.11063479890E+04  0.11343558051E+04  0.17293618930E+03 0.  0.
        -24    2    5    5    0    0  0.53990213904E+02 -0.72296690054E+02 -0.34114864417E+03  0.36181509686E+03  0.79912529107E+02 0.  0.
          2    1    4    4  501    0 -0.72023232392E+02  0.10161129625E+03 -0.47189992568E+03  0.48805915767E+03  0.00000000000E+00 0. -1.
         -1    1    4    4    0  501  0.10196625913E+02  0.94737178563E+02 -0.43881873954E+03  0.44904453048E+03  0.00000000000E+00 0.  1.
          5    1    3    3  502    0  0.23863053510E+02 -0.19122452562E+02 -0.17385500558E+03  0.17658642779E+03  0.47000000000E+01 0. -1.
         13    1    6    6    0    0  0.54763309826E+02 -0.66319017783E+02 -0.16960831160E+03  0.19016890279E+03  0.00000000000E+00 0. -1.
        -14    1    6    6    0    0 -0.77309592198E+00 -0.59776722714E+01 -0.17154033256E+03  0.17164619407E+03  0.00000000000E+00 0.  1.
         -5    1    5    5    0  503 -0.16026660935E+02 -0.10492933219E+03 -0.76519934479E+03  0.77254070823E+03  0.47000000000E+01 0.  1.
<mgrwt>
<rscale>  2 0.25237119E+03</rscale>
<asrwt>0</asrwt>
<pdfrwt beam="1">  1       21 0.43941728E-02 0.25299333E+03</pdfrwt>
<pdfrwt beam="2">  1       21 0.34145914E+00 0.25299333E+03</pdfrwt>
<totfact> 0.61566841E+03</totfact>
</mgrwt>
</event>
<event>
12    1  0.1441827E-001  0.2733438E+03  0.7546771E-02  0.1099791E+00
         21   -1    0    0  504  503  0.00000000000E+00  0.00000000000E+00  0.70679077562E+03  0.70679077562E+03  0.00000000000E+00 0.  1.
         21   -1    0    0  502  504 -0.00000000000E+00 -0.00000000000E+00 -0.18967324482E+03  0.18967324482E+03  0.00000000000E+00 0. -1.
          6    2    1    2  502    0 -0.15609272349E+03  0.13905520697E+03 -0.40876143428E+02  0.27638323440E+03  0.17611230577E+03 0.  0.
         24    2    3    3    0    0 -0.12711407248E+03  0.32479889448E+02 -0.58019830176E+02  0.16451699055E+03  0.80539486245E+02 0.  0.
         -6    2    1    2    0  503  0.15609272349E+03 -0.13905520697E+03  0.55799367423E+03  0.62008078605E+03  0.17158657242E+03 0.  0.
        -24    2    5    5    0    0  0.74866154999E+02 -0.12046614337E+02  0.32034560540E+03  0.33860675057E+03  0.79266402411E+02 0.  0.
          2    1    4    4  501    0 -0.69562976042E+02  0.55434747025E+02 -0.17989035069E+02  0.90750339924E+02  0.00000000000E+00 0. -1.
         -1    1    4    4    0  501 -0.57551096433E+02 -0.22954857577E+02 -0.40030795107E+02  0.73766650622E+02  0.00000000000E+00 0.  1.
          5    1    3    3  502    0 -0.28978651015E+02  0.10657531752E+03  0.17143686748E+02  0.11186624385E+03  0.47000000000E+01 0. -1.
         13    1    6    6    0    0  0.46026813531E+01 -0.29357728687E+02  0.15932710350E+03  0.16207463348E+03  0.00000000000E+00 0. -1.
        -14    1    6    6    0    0  0.70263473645E+02  0.17311114350E+02  0.16101850190E+03  0.17653211709E+03  0.00000000000E+00 0.  1.
         -5    1    5    5    0  503  0.81226568491E+02 -0.12700859263E+03  0.23764806883E+03  0.28147403548E+03  0.47000000000E+01 0.  1.
<mgrwt>
<rscale>  2 0.27261748E+03</rscale>
<asrwt>0</asrwt>
<pdfrwt beam="1">  1       21 0.10873704E+00 0.27334380E+03</pdfrwt>
<pdfrwt beam="2">  1       21 0.29180500E-01 0.27334380E+03</pdfrwt>
<totfact> 0.71686159E+03</totfact>
</mgrwt>
</event>
<event>
12    1  0.1441827E-001  0.1868084E+03  0.7546771E-02  0.1161742E+00
         21   -1    0    0  504  503  0.00000000000E+00  0.00000000000E+00  0.90442614160E+02  0.90442614160E+02  0.00000000000E+00 0. -1.
         21   -1    0    0  502  504 -0.00000000000E+00 -0.00000000000E+00 -0.63972714996E+03  0.63972714996E+03  0.00000000000E+00 0. -1.
          6    2    1    2  502    0  0.71445990046E+01 -0.65767767757E+02 -0.50682141991E+03  0.54015306260E+03  0.17470241778E+03 0.  0.
         24    2    3    3    0    0  0.28126336990E+02 -0.64851185476E+02 -0.13295758411E+03  0.16567031110E+03  0.69080863599E+02 0.  0.
         -6    2    1    2    0  503 -0.71445990046E+01  0.65767767757E+02 -0.42463115886E+02  0.19001670152E+03  0.17299360126E+03 0.  0.
        -24    2    5    5    0    0  0.17396815981E+02  0.94020722769E+02  0.13347111185E+02  0.12265660976E+03  0.75656810829E+02 0.  0.
          2    1    4    4  501    0  0.12680250764E+02 -0.29077512332E+02 -0.12073449733E+03  0.12483232485E+03  0.00000000000E+00 0. -1.
         -1    1    4    4    0  501  0.15446086226E+02 -0.35773673144E+02 -0.12223086784E+02  0.40837986244E+02  0.00000000000E+00 0.  1.
          5    1    3    3  502    0 -0.20981737985E+02 -0.91658228127E+00 -0.37386383580E+03  0.37448275150E+03  0.47000000000E+01 0. -1.
         11    1    6    6    0    0  0.39998011764E+02  0.26236870391E+02 -0.70446643890E+01  0.48351231725E+02  0.00000000000E+00 0. -1.
        -12    1    6    6    0    0 -0.22601195783E+02  0.67783852378E+02  0.20391775574E+02  0.74305378036E+02  0.00000000000E+00 0.  1.
         -5    1    5    5    0  503 -0.24541414986E+02 -0.28252955012E+02 -0.55810227071E+02  0.67360091762E+02  0.47000000000E+01 0.  1.
<mgrwt>
<rscale>  2 0.18640784E+03</rscale>
<asrwt>0</asrwt>
<pdfrwt beam="1">  1       21 0.13914248E-01 0.18680840E+03</pdfrwt>
<pdfrwt beam="2">  1       21 0.98419561E-01 0.18680840E+03</pdfrwt>
<totfact> 0.38446994E+04</totfact>
</mgrwt>
</event>
<event>
12    1  0.1441827E-001  0.2010518E+03  0.7546771E-02  0.1149389E+00
         21   -1    0    0  504  503  0.00000000000E+00  0.00000000000E+00  0.36881989641E+03  0.36881989641E+03  0.00000000000E+00 0.  1.
         21   -1    0    0  502  504 -0.00000000000E+00 -0.00000000000E+00 -0.51094781095E+03  0.51094781095E+03  0.00000000000E+00 0.  1.
          6    2    1    2  502    0 -0.98407047644E+02 -0.36857508947E+01 -0.46168885190E+03  0.50356569278E+03  0.17528342532E+03 0.  0.
         24    2    3    3    0    0 -0.81302429863E+02  0.62732143273E+02 -0.30988635954E+03  0.33692238718E+03  0.83317058591E+02 0.  0.
         -6    2    1    2    0  503  0.98407047644E+02  0.36857508947E+01  0.31956093736E+03  0.37620201458E+03  0.17236946164E+03 0.  0.
        -24    2    5    5    0    0  0.10750886050E+03 -0.35943905664E+02  0.16190498364E+03  0.21331910444E+03  0.80260184095E+02 0.  0.
          2    1    4    4  501    0 -0.75793644540E+02  0.79455060047E+02 -0.22671316932E+03  0.25190602268E+03  0.00000000000E+00 0. -1.
         -1    1    4    4    0  501 -0.55087853230E+01 -0.16722916774E+02 -0.83173190219E+02  0.85016364497E+02  0.00000000000E+00 0.  1.
          5    1    3    3  502    0 -0.17104617780E+02 -0.66417894168E+02 -0.15180249235E+03  0.16664330560E+03  0.47000000000E+01 0. -1.
         13    1    6    6    0    0  0.82930409802E+02  0.35781092122E+01  0.63661259776E+02  0.10460885112E+03  0.00000000000E+00 0. -1.
        -14    1    6    6    0    0  0.24578450693E+02 -0.39522014877E+02  0.98243723869E+02  0.10871025333E+03  0.00000000000E+00 0.  1.
         -5    1    5    5    0  503 -0.91018128512E+01  0.39629656559E+02  0.15765595371E+03  0.16288291014E+03  0.47000000000E+01 0.  1.
<mgrwt>
<rscale>  2 0.20041490E+03</rscale>
<asrwt>0</asrwt>
<pdfrwt beam="1">  1       21 0.56741523E-01 0.20105176E+03</pdfrwt>
<pdfrwt beam="2">  1       21 0.78607355E-01 0.20105176E+03</pdfrwt>
<totfact> 0.41496754E+03</totfact>
</mgrwt>
</event>
<event>
12    1  0.1441827E-001  0.2315671E+03  0.7546771E-02  0.1125705E+00
         21   -1    0    0  504  503  0.00000000000E+00  0.00000000000E+00  0.16335221623E+03  0.16335221623E+03  0.00000000000E+00 0.  1.
         21   -1    0    0  502  504 -0.00000000000E+00 -0.00000000000E+00 -0.54321328988E+03  0.54321328988E+03  0.00000000000E+00 0. -1.
          6    2    1    2  502    0 -0.16413818760E+02  0.15184307218E+03  0.33210837634E+02  0.23301326325E+03  0.17281923822E+03 0.  0.
         24    2    3    3    0    0  0.43236187406E+02  0.73260040586E+02  0.58741501592E+02  0.13099698566E+03  0.80456477650E+02 0.  0.
         -6    2    1    2    0  503  0.16413818760E+02 -0.15184307218E+03 -0.41307191129E+03  0.47355224286E+03  0.17406203151E+03 0.  0.
        -24    2    5    5    0    0 -0.34419725556E+02 -0.10707323846E+03 -0.36534879947E+03  0.39055843201E+03  0.80042161631E+02 0.  0.
          4    1    4    4  501    0  0.12901211404E+02  0.62871533072E+02  0.71863282665E+02  0.96351452101E+02  0.00000000000E+00 0. -1.
         -3    1    4    4    0  501  0.30334976002E+02  0.10388507514E+02 -0.13121781073E+02  0.34645533564E+02  0.00000000000E+00 0.  1.
          5    1    3    3  502    0 -0.59650006166E+02  0.78583031589E+02 -0.25530663958E+02  0.10201627758E+03  0.47000000000E+01 0. -1.
         11    1    6    6    0    0 -0.29260460973E+02 -0.59264541962E+01 -0.14510353377E+03  0.14814294768E+03  0.00000000000E+00 0. -1.
        -12    1    6    6    0    0 -0.51592645829E+01 -0.10114678427E+03 -0.22024526570E+03  0.24241548433E+03  0.00000000000E+00 0.  1.
         -5    1    5    5    0  503  0.50833544316E+02 -0.44769833711E+02 -0.47723111817E+02  0.82993810852E+02  0.47000000000E+01 0.  1.
<mgrwt>
<rscale>  2 0.23133357E+03</rscale>
<asrwt>0</asrwt>
<pdfrwt beam="1">  1       21 0.25131110E-01 0.23156710E+03</pdfrwt>
<pdfrwt beam="2">  1       21 0.83571275E-01 0.23156710E+03</pdfrwt>
<totfact> 0.18255778E+04</totfact>
</mgrwt>
</event>
<event>
12    1  0.1441827E-001  0.2799593E+03  0.7546771E-02  0.1095864E+00
         21   -1    0    0  504  503  0.00000000000E+00  0.00000000000E+00  0.32783986226E+03  0.32783986226E+03  0.00000000000E+00 0.  1.
         21   -1    0    0  502  504 -0.00000000000E+00 -0.00000000000E+00 -0.28657666094E+03  0.28657666094E+03  0.00000000000E+00 0. -1.
          6    2    1    2  502    0  0.21700140791E+03  0.31085653648E+02 -0.10565661835E+03  0.29923326306E+03  0.17413011177E+03 0.  0.
         24    2    3    3    0    0  0.12389291000E+03 -0.38938487775E+02 -0.18123415556E+02  0.15343640317E+03  0.79678181748E+02 0.  0.
         -6    2    1    2    0  503 -0.21700140791E+03 -0.31085653648E+02  0.14691981967E+03  0.31518326013E+03  0.17233434121E+03 0.  0.
        -24    2    5    5    0    0 -0.20548054906E+03 -0.48205268883E+02  0.16942821453E+03  0.28428780329E+03  0.86992133127E+02 0.  0.
          4    1    4    4  501    0  0.13089942581E+02 -0.17291402011E+02 -0.33076829768E+02  0.39552697099E+02  0.00000000000E+00 0. -1.
         -3    1    4    4    0  501  0.11080296742E+03 -0.21647085764E+02  0.14953414212E+02  0.11388370607E+03  0.00000000000E+00 0.  1.
          5    1    3    3  502    0  0.93108497905E+02  0.70024141422E+02 -0.87533202795E+02  0.14579685990E+03  0.47000000000E+01 0. -1.
         13    1    6    6    0    0 -0.13650388636E+02  0.18464859721E+02  0.30719330117E+02  0.38353114570E+02  0.00000000000E+00 0. -1.
        -14    1    6    6    0    0 -0.19183016043E+03 -0.66670128604E+02  0.13870888442E+03  0.24593468872E+03  0.00000000000E+00 0.  1.
         -5    1    5    5    0  503 -0.11520858841E+02  0.17119615236E+02 -0.22508394864E+02  0.30895456844E+02  0.47000000000E+01 0.  1.
<mgrwt>
<rscale>  2 0.27968056E+03</rscale>
<asrwt>0</asrwt>
<pdfrwt beam="1">  1       21 0.50436902E-01 0.27995933E+03</pdfrwt>
<pdfrwt beam="2">  1       21 0.44088717E-01 0.27995933E+03</pdfrwt>
<totfact> 0.17662161E+04</totfact>
</mgrwt>
</event>
<event>
12    1  0.1441827E-001  0.3260528E+03  0.7546771E-02  0.1072917E+00
         21   -1    0    0  504  503  0.00000000000E+00  0.00000000000E+00  0.58255761926E+03  0.58255761926E+03  0.00000000000E+00 0.  1.
         21   -1    0    0  502  504 -0.00000000000E+00 -0.00000000000E+00 -0.18528826403E+03  0.18528826403E+03  0.00000000000E+00 0. -1.
          6    2    1    2  502    0  0.13466957290E+03 -0.24155713870E+03  0.24673520229E+03  0.40888717202E+03  0.17269833313E+03 0.  0.
         24    2    3    3    0    0  0.45484936500E+02 -0.20719975811E+03  0.19891844768E+03  0.30191586281E+03  0.81141975462E+02 0.  0.
         -6    2    1    2    0  503 -0.13466957290E+03  0.24155713870E+03  0.15053415294E+03  0.35895871127E+03  0.17235161754E+03 0.  0.
        -24    2    5    5    0    0 -0.12774764101E+03  0.93771803382E+02  0.79036017711E+02  0.19457351784E+03  0.80619791959E+02 0.  0.
          2    1    4    4  501    0  0.66206697903E+02 -0.18141154576E+03  0.15959464826E+03  0.25052729898E+03  0.00000000000E+00 0. -1.
         -1    1    4    4    0  501 -0.20721761403E+02 -0.25788212350E+02  0.39323799417E+02  0.51388563829E+02  0.00000000000E+00 0.  1.
          5    1    3    3  502    0  0.89184636404E+02 -0.34357380594E+02  0.47816754618E+02  0.10697130921E+03  0.47000000000E+01 0. -1.
         11    1    6    6    0    0 -0.58170991679E+02  0.31284261888E+02  0.76435310409E+02  0.10101943374E+03  0.00000000000E+00 0. -1.
        -12    1    6    6    0    0 -0.69576649328E+02  0.62487541494E+02  0.26007073020E+01  0.93554084102E+02  0.00000000000E+00 0.  1.
         -5    1    5    5    0  503 -0.69219318962E+01  0.14778533532E+03  0.71498135227E+02  0.16438519343E+03  0.47000000000E+01 0.  1.
<mgrwt>
<rscale>  2 0.32600696E+03</rscale>
<asrwt>0</asrwt>
<pdfrwt beam="1">  1       21 0.89624248E-01 0.32605285E+03</pdfrwt>
<pdfrwt beam="2">  1       21 0.28505887E-01 0.32605285E+03</pdfrwt>
<totfact> 0.11631615E+04</totfact>
</mgrwt>
</event>
<event>
12    1  0.1441827E-001  0.2158799E+03  0.7546771E-02  0.1137047E+00
         21   -1    0    0  504  503  0.00000000000E+00  0.00000000000E+00  0.41171091264E+03  0.41171091264E+03  0.00000000000E+00 0.  1.
         21   -1    0    0  502  504 -0.00000000000E+00 -0.00000000000E+00 -0.11338963869E+03  0.11338963869E+03  0.00000000000E+00 0.  1.
          6    2    1    2  502    0 -0.93196032626E+02  0.88995992118E+02  0.16346990142E+03  0.27056369644E+03  0.17284825151E+03 0.  0.
         24    2    3    3    0    0 -0.87442571638E+02  0.17043666439E+02  0.35411166686E+02  0.12348763100E+03  0.77836716170E+02 0.  0.
         -6    2    1    2    0  503  0.93196032626E+02 -0.88995992118E+02  0.13485137253E+03  0.25453685490E+03  0.17320026189E+03 0.  0.
        -24    2    5    5    0    0 -0.18861479729E+02 -0.54816641978E+02  0.69184384728E+02  0.12015174658E+03  0.79305381028E+02 0.  0.
          4    1    4    4  501    0 -0.28746193216E+02 -0.28282452974E+02 -0.20982051712E+01  0.40381223800E+02  0.00000000000E+00 0. -1.
         -3    1    4    4    0  501 -0.58696378421E+02  0.45326119413E+02  0.37509371857E+02  0.83106407202E+02  0.00000000000E+00 0.  1.
          5    1    3    3  502    0 -0.57534609885E+01  0.71952325678E+02  0.12805873473E+03  0.14707606544E+03  0.47000000000E+01 0. -1.
         13    1    6    6    0    0 -0.24140223552E+02 -0.61467592847E+02  0.81684826725E+02  0.10504011748E+03  0.00000000000E+00 0. -1.
        -14    1    6    6    0    0  0.52787438231E+01  0.66509508683E+01 -0.12500441997E+02  0.15111629096E+02  0.00000000000E+00 0.  1.
         -5    1    5    5    0  503  0.11205751236E+03 -0.34179350139E+02  0.65666987804E+02  0.13438510832E+03  0.47000000000E+01 0.  1.
<mgrwt>
<rscale>  2 0.21580926E+03</rscale>
<asrwt>0</asrwt>
<pdfrwt beam="1">  1       21 0.63340140E-01 0.21587987E+03</pdfrwt>
<pdfrwt beam="2">  1       21 0.17444560E-01 0.21587987E+03</pdfrwt>
<totfact> 0.67874965E+04</totfact>
</mgrwt>
</event>
<event>
12    1  0.1441827E-001  0.1833478E+03  0.7546771E-02  0.1165065E+00
         21   -1    0    0  504  503  0.00000000000E+00  0.00000000000E+00  0.14601379972E+03  0.14601379972E+03  0.00000000000E+00 0. -1.
         21   -1    0    0  502  504 -0.00000000000E+00 -0.00000000000E+00 -0.33936161131E+03  0.33936161131E+03  0.00000000000E+00 0. -1.
          6    2    1    2  502    0 -0.47140532094E+02 -0.29060025070E+02 -0.23617577759E+03  0.29899066573E+03  0.17478474032E+03 0.  0.
         24    2    3    3    0    0 -0.68263586108E+02 -0.24545541755E+02 -0.67560468236E+02  0.12893250944E+03  0.82442551603E+02 0.  0.
         -6    2    1    2    0  503  0.47140532094E+02  0.29060025070E+02  0.42827966003E+02  0.18638474530E+03  0.17273773122E+03 0.  0.
        -24    2    5    5    0    0 -0.34016763325E+02  0.38900371175E+02  0.85465200464E+01  0.97611739561E+02  0.82368863234E+02 0.  0.
          4    1    4    4  501    0  0.19000115724E+02  0.33991538280E+00 -0.10003472118E+02  0.21475320589E+02  0.00000000000E+00 0. -1.
         -3    1    4    4    0  501 -0.87263701832E+02 -0.24885457138E+02 -0.57556996118E+02  0.10745718885E+03  0.00000000000E+00 0.  1.
          5    1    3    3  502    0  0.21123054014E+02 -0.45144833145E+01 -0.16861530935E+03  0.17005815628E+03  0.47000000000E+01 0. -1.
         11    1    6    6    0    0 -0.35425889680E+02  0.10438763280E+02  0.40491006296E+02  0.54804042089E+02  0.00000000000E+00 0. -1.
        -12    1    6    6    0    0  0.14091263554E+01  0.28461607895E+02 -0.31944486250E+02  0.42807697472E+02  0.00000000000E+00 0.  1.
         -5    1    5    5    0  503  0.81157295419E+02 -0.98403461056E+01  0.34281445957E+02  0.88773005740E+02  0.47000000000E+01 0.  1.
<mgrwt>
<rscale>  2 0.18285827E+03</rscale>
<asrwt>0</asrwt>
<pdfrwt beam="1">  1       21 0.22463662E-01 0.18334781E+03</pdfrwt>
<pdfrwt beam="2">  1       21 0.52209478E-01 0.18334781E+03</pdfrwt>
<totfact> 0.64861079E+04</totfact>
</mgrwt>
</event>
<event>
12    1  0.1441827E-001  0.2140141E+03  0.7546771E-02  0.1138934E+00
         21   -1    0    0  504  503  0.00000000000E+00  0.00000000000E+00  0.95618805683E+02  0.95618805683E+02  0.00000000000E+00 0. -1.
         21   -1    0    0  502  504 -0.00000000000E+00 -0.00000000000E+00 -0.56644826778E+03  0.56644826778E+03  0.00000000000E+00 0. -1.
          6    2    1    2  502    0  0.12031344392E+03 -0.33770961245E+02 -0.36853155437E+03  0.42486063135E+03  0.17051465301E+03 0.  0.
         24    2    3    3    0    0  0.13619666389E+03  0.39761832610E+01 -0.33981128639E+03  0.37462053394E+03  0.79394538847E+02 0.  0.
         -6    2    1    2    0  503 -0.12031344392E+03  0.33770961245E+02 -0.10229790772E+03  0.23720644211E+03  0.17374185346E+03 0.  0.
        -24    2    5    5    0    0 -0.14356898168E+03  0.43616472517E+02 -0.46859237987E+02  0.17610578556E+03  0.79391500479E+02 0.  0.
          2    1    4    4  501    0  0.13518553560E+03 -0.17258003897E+02 -0.29943781544E+03  0.32899236017E+03  0.00000000000E+00 0. -1.
         -1    1    4    4    0  501  0.10111282941E+01  0.21234187158E+02 -0.40373470950E+02  0.45628173766E+02  0.00000000000E+00 0.  1.
          5    1    3    3  502    0 -0.15883219977E+02 -0.37747144506E+02 -0.28720267983E+02  0.50240097415E+02  0.47000000000E+01 0. -1.
         13    1    6    6    0    0 -0.61787107915E+02  0.48980169097E+02  0.51910453030E+01  0.79016774299E+02  0.00000000000E+00 0. -1.
        -14    1    6    6    0    0 -0.81781873764E+02 -0.53636965797E+01 -0.52050283290E+02  0.97089011262E+02  0.00000000000E+00 0.  1.
         -5    1    5    5    0  503  0.23255537762E+02 -0.98455112720E+01 -0.55438669732E+02  0.61100656547E+02  0.47000000000E+01 0.  1.
<mgrwt>
<rscale>  2 0.21335821E+03</rscale>
<asrwt>0</asrwt>
<pdfrwt beam="1">  1       21 0.14710585E-01 0.21401410E+03</pdfrwt>
<pdfrwt beam="2">  1       21 0.87145888E-01 0.21401410E+03</pdfrwt>
<totfact> 0.45500408E+04</totfact>
</mgrwt>
</event>
<event>
12    1  0.1441827E-001  0.2419692E+03  0.7546771E-02  0.1118549E+00
         21   -1    0    0  504  503  0.00000000000E+00  0.00000000000E+00  0.27408905143E+04  0.27408905143E+04  0.00000000000E+00 0. -1.
         21   -1    0    0  502  504 -0.00000000000E+00 -0.00000000000E+00 -0.21997292498E+02  0.21997292498E+02  0.00000000000E+00 0.  1.
          6    2    1    2  502    0 -0.16364780145E+03  0.42728017090E+02  0.11175502045E+04  0.11433667188E+04  0.17251871725E+03 0.  0.
         24    2    3    3    0    0 -0.30173451799E+02 -0.27092366776E+02  0.38993656352E+03  0.40030952820E+03  0.80949127640E+02 0.  0.
         -6    2    1    2    0  503  0.16364780145E+03 -0.42728017090E+02  0.16013430173E+04  0.16195210880E+04  0.17303990557E+03 0.  0.
        -24    2    5    5    0    0  0.78059935988E+02  0.23660644113E+02  0.11354547065E+04  0.11411836075E+04  0.79934072045E+02 0.  0.
          2    1    4    4  501    0 -0.21599548313E+01 -0.35953016654E+02  0.34333412158E+03  0.34521819745E+03  0.00000000000E+00 0. -1.
         -1    1    4    4    0  501 -0.28013496967E+02  0.88606498775E+01  0.46602441941E+02  0.55091330747E+02  0.00000000000E+00 0.  1.
          5    1    3    3  502    0 -0.13347434966E+03  0.69820383866E+02  0.72761364094E+03  0.74305719060E+03  0.47000000000E+01 0. -1.
         13    1    6    6    0    0  0.70040191326E+02  0.36114636879E+02  0.55779014980E+03  0.56332916364E+03  0.00000000000E+00 0. -1.
        -14    1    6    6    0    0  0.80197446620E+01 -0.12453992766E+02  0.57766455670E+03  0.57785444388E+03  0.00000000000E+00 0.  1.
         -5    1    5    5    0  503  0.85587865467E+02 -0.66388661203E+02  0.46588831080E+03  0.47833748044E+03  0.47000000000E+01 0.  1.
<mgrwt>
<rscale>  2 0.24187604E+03</rscale>
<asrwt>0</asrwt>
<pdfrwt beam="1">  1       21 0.42167519E+00 0.24196920E+03</pdfrwt>
<pdfrwt beam="2">  1       21 0.33842010E-02 0.24196920E+03</pdfrwt>
<totfact> 0.30923299E+03</totfact>
</mgrwt>
</event>
<event>
12    1  0.1441827E-001  0.2194601E+03  0.7546771E-02  0.1135182E+00
         21   -1    0    0  504  503  0.00000000000E+00  0.00000000000E+00  0.16881237673E+03  0.16881237673E+03  0.00000000000E+00 0.  1.
         21   -1    0    0  502  504 -0.00000000000E+00 -0.00000000000E+00 -0.29506204354E+03  0.29506204354E+03  0.00000000000E+00 0. -1.
          6    2    1    2  502    0 -0.15914588036E+02  0.12656898675E+03 -0.11758695099E+03  0.24897673004E+03  0.17857698211E+03 0.  0.
         24    2    3    3    0    0 -0.18880569584E+02 -0.10482719505E+01 -0.78690837333E+02  0.11544785892E+03  0.82330950849E+02 0.  0.
         -6    2    1    2    0  503  0.15914588036E+02 -0.12656898675E+03 -0.86627158206E+01  0.21489769023E+03  0.17272229763E+03 0.  0.
        -24    2    5    5    0    0  0.20647562919E+02 -0.12556228690E+03 -0.58443800076E+02  0.16466163897E+03  0.86634680330E+02 0.  0.
          2    1    4    4  501    0 -0.21808165743E+02 -0.91406352823E+01 -0.94518765461E+02  0.97431741905E+02  0.00000000000E+00 0. -1.
         -1    1    4    4    0  501  0.29275961590E+01  0.80923633318E+01  0.15827928128E+02  0.18016117017E+02  0.00000000000E+00 0.  1.
          5    1    3    3  502    0  0.29659815486E+01  0.12761725870E+03 -0.38896113660E+02  0.13352887112E+03  0.47000000000E+01 0. -1.
         11    1    6    6    0    0  0.21658314506E+02  0.37844240344E+00 -0.27434865167E+02  0.34955652370E+02  0.00000000000E+00 0. -1.
        -12    1    6    6    0    0 -0.10107515876E+01 -0.12594072931E+03 -0.31008934910E+02  0.12970598660E+03  0.00000000000E+00 0.  1.
         -5    1    5    5    0  503 -0.47329748830E+01 -0.10066998496E+01  0.49781084256E+02  0.50236051253E+02  0.47000000000E+01 0.  1.
<mgrwt>
<rscale>  2 0.21826610E+03</rscale>
<asrwt>0</asrwt>
<pdfrwt beam="1">  1       21 0.25971135E-01 0.21946007E+03</pdfrwt>
<pdfrwt beam="2">  1       21 0.45394160E-01 0.21946007E+03</pdfrwt>
<totfact> 0.64768222E+04</totfact>
</mgrwt>
</event>
<event>
12    1  0.1441827E-001  0.2161746E+03  0.7546771E-02  0.1137967E+00
         21   -1    0    0  504  503  0.00000000000E+00  0.00000000000E+00  0.25884141123E+03  0.25884141123E+03  0.00000000000E+00 0.  1.
         21   -1    0    0  502  504 -0.00000000000E+00 -0.00000000000E+00 -0.17856172126E+03  0.17856172126E+03  0.00000000000E+00 0. -1.
          6    2    1    2  502    0  0.59425664313E+02  0.11517360576E+03  0.11639363779E+02  0.21648773906E+03  0.17301762145E+03 0.  0.
         24    2    3    3    0    0 -0.34889657009E+02  0.55666223857E+02  0.72804983561E+01  0.10478456970E+03  0.81306726332E+02 0.  0.
         -6    2    1    2    0  503 -0.59425664313E+02 -0.11517360576E+03  0.68640326187E+02  0.22091539342E+03  0.16521424766E+03 0.  0.
        -24    2    5    5    0    0 -0.64466994219E+02 -0.13313184731E+03  0.90811029565E+02  0.19156333157E+03  0.81054209033E+02 0.  0.
          2    1    4    4  501    0 -0.55035919614E+02  0.26468467156E+02 -0.15011870541E+02  0.62887903913E+02  0.00000000000E+00 0. -1.
         -1    1    4    4    0  501  0.20146262605E+02  0.29197756701E+02  0.22292368897E+02  0.41896665790E+02  0.00000000000E+00 0.  1.
          5    1    3    3  502    0  0.94315321322E+02  0.59507381904E+02  0.43588654233E+01  0.11170316936E+03  0.47000000000E+01 0. -1.
         11    1    6    6    0    0 -0.34068515689E+02 -0.36897954566E+01  0.89374908623E+01  0.35414080458E+02  0.00000000000E+00 0. -1.
        -12    1    6    6    0    0 -0.30398478529E+02 -0.12944205185E+03  0.81873538702E+02  0.15614925111E+03  0.00000000000E+00 0.  1.
         -5    1    5    5    0  503  0.50413299054E+01  0.17958241546E+02 -0.22170703378E+02  0.29352061851E+02  0.47000000000E+01 0.  1.
<mgrwt>
<rscale>  2 0.21460935E+03</rscale>
<asrwt>0</asrwt>
<pdfrwt beam="1">  1       21 0.39821756E-01 0.21617462E+03</pdfrwt>
<pdfrwt beam="2">  1       21 0.27471034E-01 0.21617462E+03</pdfrwt>
<totfact> 0.76064058E+04</totfact>
</mgrwt>
</event>
<event>
12    1  0.1441827E-001  0.1749000E+03  0.7546771E-02  0.1173058E+00
         21   -1    0    0  504  503  0.00000000000E+00  0.00000000000E+00  0.24582934055E+03  0.24582934055E+03  0.00000000000E+00 0. -1.
         21   -1    0    0  502  504 -0.00000000000E+00 -0.00000000000E+00 -0.15594433787E+03  0.15594433787E+03  0.00000000000E+00 0. -1.
          6    2    1    2  502    0 -0.16943423220E+02  0.23449309124E+02 -0.46356895329E+02  0.18007148143E+03  0.17158038056E+03 0.  0.
         24    2    3    3    0    0 -0.77481670429E+02  0.19737501101E+02 -0.32771836776E+02  0.11773930106E+03  0.79972317252E+02 0.  0.
         -6    2    1    2    0  503  0.16943423220E+02 -0.23449309124E+02  0.13624189801E+03  0.22170219699E+03  0.17249075247E+03 0.  0.
        -24    2    5    5    0    0 -0.58847218022E+01 -0.66128384057E+02  0.13332718299E+03  0.17298656083E+03  0.87980789815E+02 0.  0.
          4    1    4    4  501    0 -0.44829198252E+02 -0.87251883361E+01 -0.52974401943E+02  0.69943357001E+02  0.00000000000E+00 0. -1.
         -3    1    4    4    0  501 -0.32652472177E+02  0.28462689437E+02  0.20202565167E+02  0.47795944060E+02  0.00000000000E+00 0.  1.
          5    1    3    3  502    0  0.60538247208E+02  0.37118080229E+01 -0.13585058554E+02  0.62332180371E+02  0.47000000000E+01 0. -1.
         13    1    6    6    0    0  0.34985958302E+02 -0.28379723877E+02  0.95839861813E+02  0.10589950481E+03  0.00000000000E+00 0. -1.
        -14    1    6    6    0    0 -0.40870680104E+02 -0.37748660180E+02  0.37487321177E+02  0.67087056029E+02  0.00000000000E+00 0.  1.
         -5    1    5    5    0  503  0.22828145023E+02  0.42679074933E+02  0.29147150221E+01  0.48715636155E+02  0.47000000000E+01 0.  1.
<mgrwt>
<rscale>  2 0.17467512E+03</rscale>
<asrwt>0</asrwt>
<pdfrwt beam="1">  1       21 0.37819898E-01 0.17490000E+03</pdfrwt>
<pdfrwt beam="2">  1       21 0.23991437E-01 0.17490000E+03</pdfrwt>
<totfact> 0.11118036E+05</totfact>
</mgrwt>
</event>
<event>
12    1  0.1441827E-001  0.2610703E+03  0.7546771E-02  0.1107196E+00
         21   -1    0    0  504  503  0.00000000000E+00  0.00000000000E+00  0.14486648155E+03  0.14486648155E+03  0.00000000000E+00 0. -1.
         21   -1    0    0  502  504 -0.00000000000E+00 -0.00000000000E+00 -0.14413765121E+04  0.14413765121E+04  0.00000000000E+00 0. -1.
          6    2    1    2  502    0  0.16867162458E+03 -0.99782470272E+02 -0.13037895892E+04  0.13296710082E+04  0.17248489441E+03 0.  0.
         24    2    3    3    0    0  0.64067256119E+02 -0.36586194219E+02 -0.31667181896E+03  0.33500552395E+03  0.80650463364E+02 0.  0.
         -6    2    1    2    0  503 -0.16867162458E+03  0.99782470272E+02  0.72795586836E+01  0.25657198543E+03  0.16543740030E+03 0.  0.
        -24    2    5    5    0    0 -0.13054950867E+03  0.60329961794E+01 -0.78383815097E+01  0.15413711964E+03  0.81346420742E+02 0.  0.
          2    1    4    4  501    0 -0.17239011007E+02  0.25735084352E+01 -0.32936928936E+02  0.37264564051E+02  0.00000000000E+00 0. -1.
         -1    1    4    4    0  501  0.81306267126E+02 -0.39159702654E+02 -0.28373489002E+03  0.29774095990E+03  0.00000000000E+00 0.  1.
          5    1    3    3  502    0  0.10460436846E+03 -0.63196276053E+02 -0.98711777029E+03  0.99466548428E+03  0.47000000000E+01 0. -1.
         11    1    6    6    0    0 -0.81064177560E+02 -0.10370969951E+02  0.32774273982E+02  0.88051751466E+02  0.00000000000E+00 0. -1.
        -12    1    6    6    0    0 -0.49485331111E+02  0.16403966130E+02 -0.40612655491E+02  0.66085368169E+02  0.00000000000E+00 0.  1.
         -5    1    5    5    0  503 -0.38122115908E+02  0.93749474092E+02  0.15117940193E+02  0.10243486579E+03  0.47000000000E+01 0.  1.
<mgrwt>
<rscale>  2 0.25991221E+03</rscale>
<asrwt>0</asrwt>
<pdfrwt beam="1">  1       21 0.22287152E-01 0.26107029E+03</pdfrwt>
<pdfrwt beam="2">  1       21 0.22175022E+00 0.26107029E+03</pdfrwt>
<totfact> 0.17318076E+03</totfact>
</mgrwt>
</event>
<event>
12    1  0.1441827E-001  0.2173276E+03  0.7546771E-02  0.1136079E+00
         21   -1    0    0  504  503  0.00000000000E+00  0.00000000000E+00  0.24959224176E+03  0.24959224176E+03  0.00000000000E+00 0.  1.
         21   -1    0    0  502  504 -0.00000000000E+00 -0.00000000000E+00 -0.19152815725E+03  0.19152815725E+03  0.00000000000E+00 0.  1.
          6    2    1    2  502    0 -0.53749245192E+02 -0.11724343088E+03  0.66633935186E+00  0.21634096335E+03  0.17368927708E+03 0.  0.
         24    2    3    3    0    0  0.16639785415E+02 -0.60863726988E+01 -0.14005339285E+02  0.83872645000E+02  0.80774653571E+02 0.  0.
         -6    2    1    2    0  503  0.53749245192E+02  0.11724343088E+03  0.57397745158E+02  0.22477943566E+03  0.17491795249E+03 0.  0.
        -24    2    5    5    0    0  0.70432826663E+02  0.13889423087E+03  0.70685392863E+02  0.19402637707E+03  0.91637436653E+02 0.  0.
          2    1    4    4  501    0 -0.26641189515E+02  0.15952340856E+02  0.54962173623E+01  0.31534719958E+02  0.00000000000E+00 0. -1.
         -1    1    4    4    0  501  0.43280974930E+02 -0.22038713554E+02 -0.19501556648E+02  0.52337925042E+02  0.00000000000E+00 0.  1.
          5    1    3    3  502    0 -0.70389030607E+02 -0.11115705818E+03  0.14671678637E+02  0.13246831835E+03  0.47000000000E+01 0. -1.
         11    1    6    6    0    0  0.21836626849E+02  0.73573509793E+02 -0.12354342212E+02  0.77733708176E+02  0.00000000000E+00 0. -1.
        -12    1    6    6    0    0  0.48596199814E+02  0.65320721074E+02  0.83039735075E+02  0.11629266890E+03  0.00000000000E+00 0.  1.
         -5    1    5    5    0  503 -0.16683581471E+02 -0.21650799991E+02 -0.13287647705E+02  0.30753058588E+02  0.47000000000E+01 0.  1.
<mgrwt>
<rscale>  2 0.21708028E+03</rscale>
<asrwt>0</asrwt>
<pdfrwt beam="1">  1       21 0.38398806E-01 0.21732762E+03</pdfrwt>
<pdfrwt beam="2">  1       21 0.29465870E-01 0.21732762E+03</pdfrwt>
<totfact> 0.71405798E+04</totfact>
</mgrwt>
</event>
<event>
12    1  0.1441827E-001  0.2619032E+03  0.7546771E-02  0.1106268E+00
         21   -1    0    0  504  503  0.00000000000E+00  0.00000000000E+00  0.20182879049E+03  0.20182879049E+03  0.00000000000E+00 0.  1.
         21   -1    0    0  502  504 -0.00000000000E+00 -0.00000000000E+00 -0.54199116446E+03  0.54199116446E+03  0.00000000000E+00 0.  1.
          6    2    1    2  502    0 -0.10084840787E+03  0.17144931448E+03 -0.39883552957E+03  0.47714050468E+03  0.17037609207E+03 0.  0.
         24    2    3    3    0    0 -0.10739818364E+03  0.14599547459E+03 -0.21995085548E+03  0.29627421663E+03  0.80938150232E+02 0.  0.
         -6    2    1    2    0  503  0.10084840787E+03 -0.17144931448E+03  0.58673155596E+02  0.26667945028E+03  0.16766073246E+03 0.  0.
        -24    2    5    5    0    0  0.10255600698E+03 -0.70174479794E+02 -0.20812019179E+01  0.14847331680E+03  0.81226856515E+02 0.  0.
          4    1    4    4  501    0 -0.27339618888E+02  0.10295585521E+03 -0.10323185463E+03  0.14833805545E+03  0.00000000000E+00 0. -1.
         -3    1    4    4    0  501 -0.80058564752E+02  0.43039619379E+02 -0.11671900084E+03  0.14793616118E+03  0.00000000000E+00 0.  1.
          5    1    3    3  502    0  0.65497757663E+01  0.25453839888E+02 -0.17888467409E+03  0.18086628805E+03  0.47000000000E+01 0. -1.
         11    1    6    6    0    0  0.38247353642E+02  0.14845440416E+01  0.28196832614E+02  0.47540775142E+02  0.00000000000E+00 0. -1.
        -12    1    6    6    0    0  0.64308653337E+02 -0.71659023835E+02 -0.30278034532E+02  0.10093254166E+03  0.00000000000E+00 0.  1.
         -5    1    5    5    0  503 -0.17075991053E+01 -0.10127483468E+03  0.60754357514E+02  0.11820613348E+03  0.47000000000E+01 0.  1.
<mgrwt>
<rscale>  2 0.26146252E+03</rscale>
<asrwt>0</asrwt>
<pdfrwt beam="1">  1       21 0.31050583E-01 0.26190319E+03</pdfrwt>
<pdfrwt beam="2">  1       21 0.83383255E-01 0.26190319E+03</pdfrwt>
<totfact> 0.11971147E+04</totfact>
</mgrwt>
</event>
<event>
12    1  0.1441827E-001  0.2159430E+03  0.7546771E-02  0.1137189E+00
         21   -1    0    0  504  503  0.00000000000E+00  0.00000000000E+00  0.61415916022E+03  0.61415916022E+03  0.00000000000E+00 0.  1.
         21   -1    0    0  502  504 -0.00000000000E+00 -0.00000000000E+00 -0.21351990061E+03  0.21351990061E+03  0.00000000000E+00 0.  1.
          6    2    1    2  502    0  0.11123987055E+03 -0.63939953484E+02 -0.13221870340E+03  0.25320580229E+03  0.17369158394E+03 0.  0.
         24    2    3    3    0    0  0.13398425819E+03 -0.89663443569E+02 -0.10077695140E+03  0.20641179754E+03  0.80364928154E+02 0.  0.
         -6    2    1    2    0  503 -0.11123987055E+03  0.63939953484E+02  0.53285796301E+03  0.57447325855E+03  0.17210255544E+03 0.  0.
        -24    2    5    5    0    0 -0.12933785085E+03  0.25742525079E+02  0.49011532271E+03  0.51417729080E+03  0.82306133149E+02 0.  0.
          2    1    4    4  501    0  0.67480128727E+02 -0.15553091252E+02 -0.69525177775E+01  0.69597441935E+02  0.00000000000E+00 0. -1.
         -1    1    4    4    0  501  0.66504129460E+02 -0.74110352317E+02 -0.93824433625E+02  0.13681435561E+03  0.00000000000E+00 0.  1.
          5    1    3    3  502    0 -0.22744387632E+02  0.25723490085E+02 -0.31441752002E+02  0.46794004743E+02  0.47000000000E+01 0. -1.
         11    1    6    6    0    0 -0.50013400209E+02 -0.89179693075E+01  0.78120683179E+02  0.93186434192E+02  0.00000000000E+00 0. -1.
        -12    1    6    6    0    0 -0.79324450637E+02  0.34660494386E+02  0.41199463954E+03  0.42099085661E+03  0.00000000000E+00 0.  1.
         -5    1    5    5    0  503  0.18097980292E+02  0.38197428405E+02  0.42742640298E+02  0.60295967751E+02  0.47000000000E+01 0.  1.
<mgrwt>
<rscale>  2 0.21562331E+03</rscale>
<asrwt>0</asrwt>
<pdfrwt beam="1">  1       21 0.94486024E-01 0.21594303E+03</pdfrwt>
<pdfrwt beam="2">  1       21 0.32849216E-01 0.21594303E+03</pdfrwt>
<totfact> 0.82324313E+03</totfact>
</mgrwt>
</event>
<event>
12    1  0.1441827E-001  0.2182128E+03  0.7546771E-02  0.1135308E+00
         21   -1    0    0  504  503  0.00000000000E+00  0.00000000000E+00  0.21331215534E+03  0.21331215534E+03  0.00000000000E+00 0. -1.
         21   -1    0    0  502  504 -0.00000000000E+00 -0.00000000000E+00 -0.28979058143E+03  0.28979058143E+03  0.00000000000E+00 0.  1.
          6    2    1    2  502    0  0.24823607670E+02 -0.13147138217E+03  0.82769550900E+02  0.23296067180E+03  0.17181076864E+03 0.  0.
         24    2    3    3    0    0  0.27866018395E+02 -0.74355055177E+02 -0.21454662670E+02  0.11398038870E+03  0.78905242193E+02 0.  0.
         -6    2    1    2    0  503 -0.24823607670E+02  0.13147138217E+03 -0.15924797699E+03  0.27014206497E+03  0.17238294945E+03 0.  0.
        -24    2    5    5    0    0 -0.77944302759E+02  0.78728616660E+02 -0.67872538308E+02  0.15192544873E+03  0.78747387902E+02 0.  0.
          2    1    4    4  501    0  0.55190828346E+02 -0.45596588369E+02 -0.77403938912E+01  0.72006875380E+02  0.00000000000E+00 0. -1.
         -1    1    4    4    0  501 -0.27324809951E+02 -0.28758466807E+02 -0.13714268779E+02  0.41973513316E+02  0.00000000000E+00 0.  1.
          5    1    3    3  502    0 -0.30424107247E+01 -0.57116326994E+02  0.10422421357E+03  0.11898028310E+03  0.47000000000E+01 0. -1.
         13    1    6    6    0    0 -0.15019763296E+02  0.16308796556E+02  0.17968383621E+02  0.28538271576E+02  0.00000000000E+00 0. -1.
        -14    1    6    6    0    0 -0.62924539463E+02  0.62419820104E+02 -0.85840921928E+02  0.12338717715E+03  0.00000000000E+00 0.  1.
         -5    1    5    5    0  503  0.53120695089E+02  0.52742765511E+02 -0.91375438687E+02  0.11821661624E+03  0.47000000000E+01 0.  1.
<mgrwt>
<rscale>  2 0.21809976E+03</rscale>
<asrwt>0</asrwt>
<pdfrwt beam="1">  1       21 0.32817255E-01 0.21821278E+03</pdfrwt>
<pdfrwt beam="2">  1       21 0.44583166E-01 0.21821278E+03</pdfrwt>
<totfact> 0.42628229E+04</totfact>
</mgrwt>
</event>
<event>
12    1  0.1441827E-001  0.2202962E+03  0.7546771E-02  0.1133988E+00
         21   -1    0    0  504  503  0.00000000000E+00  0.00000000000E+00  0.17847794250E+03  0.17847794250E+03  0.00000000000E+00 0. -1.
         21   -1    0    0  502  504 -0.00000000000E+00 -0.00000000000E+00 -0.31697960827E+03  0.31697960827E+03  0.00000000000E+00 0.  1.
          6    2    1    2  502    0 -0.12234042283E+03 -0.54535333411E+02 -0.16509041491E+03  0.27529121178E+03  0.17489746866E+03 0.  0.
         24    2    3    3    0    0 -0.14071715818E+03  0.51514504428E+00 -0.11960574702E+03  0.20140478141E+03  0.80354012181E+02 0.  0.
         -6    2    1    2    0  503  0.12234042283E+03  0.54535333411E+02  0.26588749130E+02  0.22016633899E+03  0.17269908394E+03 0.  0.
        -24    2    5    5    0    0  0.23148248331E+02  0.72219716750E+02  0.41801618132E+02  0.11815973980E+03  0.80391665873E+02 0.  0.
          4    1    4    4  501    0 -0.53310628632E+02  0.23001236615E+02 -0.91696996186E+01  0.58780637986E+02  0.00000000000E+00 0. -1.
         -3    1    4    4    0  501 -0.87406529550E+02 -0.22486091571E+02 -0.11043604740E+03  0.14262414342E+03  0.00000000000E+00 0.  1.
          5    1    3    3  502    0  0.18376735356E+02 -0.55050478456E+02 -0.45484667888E+02  0.73886430374E+02  0.47000000000E+01 0. -1.
         13    1    6    6    0    0  0.19447373354E+02  0.78234065053E+02  0.50904149893E+01  0.80775501174E+02  0.00000000000E+00 0. -1.
        -14    1    6    6    0    0  0.37008749772E+01 -0.60143483035E+01  0.36711203143E+02  0.37384238621E+02  0.00000000000E+00 0.  1.
         -5    1    5    5    0  503  0.99192174494E+02 -0.17684383339E+02 -0.15212869002E+02  0.10200659919E+03  0.47000000000E+01 0.  1.
<mgrwt>
<rscale>  2 0.21985957E+03</rscale>
<asrwt>0</asrwt>
<pdfrwt beam="1">  1       21 0.27458145E-01 0.22029618E+03</pdfrwt>
<pdfrwt beam="2">  1       21 0.48766093E-01 0.22029618E+03</pdfrwt>
<totfact> 0.50123456E+04</totfact>
</mgrwt>
</event>
<event>
12    1  0.1441827E-001  0.1959536E+03  0.7546771E-02  0.1156564E+00
         21   -1    0    0  504  503  0.00000000000E+00  0.00000000000E+00  0.26010357432E+03  0.26010357432E+03  0.00000000000E+00 0.  1.
         21   -1    0    0  502  504 -0.00000000000E+00 -0.00000000000E+00 -0.23103896960E+03  0.23103896960E+03  0.00000000000E+00 0.  1.
          6    2    1    2  502    0  0.12644457663E+02 -0.45116443915E+02 -0.14204420305E+03  0.24202146118E+03  0.19026943063E+03 0.  0.
         24    2    3    3    0    0  0.73947707558E+02  0.11782077200E+02 -0.60708936011E+02  0.12526082647E+03  0.79985116997E+02 0.  0.
         -6    2    1    2    0  503 -0.12644457663E+02  0.45116443915E+02  0.17110880777E+03  0.24912108274E+03  0.17489343598E+03 0.  0.
        -24    2    5    5    0    0 -0.24325656674E+02  0.78130606595E+02  0.55038493638E+02  0.12779180693E+03  0.81273494301E+02 0.  0.
          4    1    4    4  501    0 -0.69410811572E+01 -0.20945027888E+02 -0.15678060828E+02  0.27067958774E+02  0.00000000000E+00 0. -1.
         -3    1    4    4    0  501  0.80888788715E+02  0.32727105088E+02 -0.45030875183E+02  0.98192867699E+02  0.00000000000E+00 0.  1.
          5    1    3    3  502    0 -0.61303249895E+02 -0.56898521114E+02 -0.81335267041E+02  0.11676063471E+03  0.47000000000E+01 0. -1.
         11    1    6    6    0    0 -0.49751924156E+02  0.64527118473E+02  0.56117175336E+02  0.98935030921E+02  0.00000000000E+00 0. -1.
        -12    1    6    6    0    0  0.25426267482E+02  0.13603488122E+02 -0.10786816985E+01  0.28856776004E+02  0.00000000000E+00 0.  1.
         -5    1    5    5    0  503  0.11681199011E+02 -0.33014162680E+02  0.11607031413E+03  0.12132927582E+03  0.47000000000E+01 0.  1.
<mgrwt>
<rscale>  2 0.19211941E+03</rscale>
<asrwt>0</asrwt>
<pdfrwt beam="1">  1       21 0.40015935E-01 0.19595365E+03</pdfrwt>
<pdfrwt beam="2">  1       21 0.35544457E-01 0.19595365E+03</pdfrwt>
<totfact> 0.45858841E+04</totfact>
</mgrwt>
</event>
<event>
12    1  0.1441827E-001  0.2427181E+03  0.7546771E-02  0.1118383E+00
         21   -1    0    0  504  503  0.00000000000E+00  0.00000000000E+00  0.81682920061E+03  0.81682920061E+03  0.00000000000E+00 0.  1.
         21   -1    0    0  502  504 -0.00000000000E+00 -0.00000000000E+00 -0.96910829973E+02  0.96910829973E+02  0.00000000000E+00 0. -1.
          6    2    1    2  502    0 -0.14902588359E+03 -0.74315167564E+02  0.12696755303E+03  0.27392123882E+03  0.17658037106E+03 0.  0.
         24    2    3    3    0    0 -0.58763705149E+02 -0.25440867898E+02  0.13665542176E+03  0.17071318281E+03  0.79798970456E+02 0.  0.
         -6    2    1    2    0  503  0.14902588359E+03  0.74315167564E+02  0.59295081761E+03  0.63981879177E+03  0.17333769378E+03 0.  0.
        -24    2    5    5    0    0  0.12474785534E+03  0.10925173544E+03  0.33335311440E+03  0.37671606670E+03  0.57382287472E+02 0.  0.
          4    1    4    4  501    0 -0.22389503744E+02  0.28808994633E+02  0.57360366380E+02  0.67981318618E+02  0.00000000000E+00 0. -1.
         -3    1    4    4    0  501 -0.36374201404E+02 -0.54249862531E+02  0.79295055384E+02  0.10273186419E+03  0.00000000000E+00 0.  1.
          5    1    3    3  502    0 -0.90262178438E+02 -0.48874299666E+02 -0.96878687348E+01  0.10320805601E+03  0.47000000000E+01 0. -1.
         11    1    6    6    0    0  0.37324821998E+02  0.27155513827E+01  0.79440965266E+02  0.87814483537E+02  0.00000000000E+00 0. -1.
        -12    1    6    6    0    0  0.87423033347E+02  0.10653618405E+03  0.25391214914E+03  0.28890158316E+03  0.00000000000E+00 0.  1.
         -5    1    5    5    0  503  0.24278028242E+02 -0.34936567872E+02  0.25959770321E+03  0.26310272507E+03  0.47000000000E+01 0.  1.
<mgrwt>
<rscale>  2 0.24212878E+03</rscale>
<asrwt>0</asrwt>
<pdfrwt beam="1">  1       21 0.12566603E+00 0.24271812E+03</pdfrwt>
<pdfrwt beam="2">  1       21 0.14909359E-01 0.24271812E+03</pdfrwt>
<totfact> 0.18113695E+04</totfact>
</mgrwt>
</event>
<event>
12    1  0.1441827E-001  0.2052838E+03  0.7546771E-02  0.1145444E+00
         21   -1    0    0  504  503  0.00000000000E+00  0.00000000000E+00  0.26089311984E+03  0.26089311984E+03  0.00000000000E+00 0. -1.
         21   -1    0    0  502  504 -0.00000000000E+00 -0.00000000000E+00 -0.17386810494E+03  0.17386810494E+03  0.00000000000E+00 0.  1.
          6    2    1    2  502    0  0.10219805933E+03  0.39081157016E+02 -0.15144263821E+02  0.20584167428E+03  0.17369417371E+03 0.  0.
         24    2    3    3    0    0  0.86093644940E+02 -0.38356810290E+02  0.60767745920E+01  0.12381476764E+03  0.80061282157E+02 0.  0.
         -6    2    1    2    0  503 -0.10219805933E+03 -0.39081157016E+02  0.10216927872E+03  0.22891955049E+03  0.17318723660E+03 0.  0.
        -24    2    5    5    0    0 -0.27245901709E+02 -0.17061850275E+02  0.11950133340E+03  0.14876241781E+03  0.82560537626E+02 0.  0.
          2    1    4    4  501    0  0.24131871025E+01  0.78068328902E+01  0.25077235817E+02  0.26374947735E+02  0.00000000000E+00 0. -1.
         -1    1    4    4    0  501  0.83680457838E+02 -0.46163643180E+02 -0.19000461225E+02  0.97439819901E+02  0.00000000000E+00 0.  1.
          5    1    3    3  502    0  0.16104414386E+02  0.77437967305E+02 -0.21221038413E+02  0.82026906649E+02  0.47000000000E+01 0. -1.
         11    1    6    6    0    0  0.22325884106E+02 -0.28499165463E+02  0.36490305424E+02  0.51402236558E+02  0.00000000000E+00 0. -1.
        -12    1    6    6    0    0 -0.49571785815E+02  0.11437315189E+02  0.83011027973E+02  0.97360181249E+02  0.00000000000E+00 0.  1.
         -5    1    5    5    0  503 -0.74952157617E+02 -0.22019306741E+02 -0.17332054680E+02  0.80157132684E+02  0.47000000000E+01 0.  1.
<mgrwt>
<rscale>  2 0.20517655E+03</rscale>
<asrwt>0</asrwt>
<pdfrwt beam="1">  1       21 0.40137403E-01 0.20528382E+03</pdfrwt>
<pdfrwt beam="2">  1       21 0.26748939E-01 0.20528382E+03</pdfrwt>
<totfact> 0.79165393E+04</totfact>
</mgrwt>
</event>
<event>
12    1  0.1441827E-001  0.2247853E+03  0.7546771E-02  0.1130382E+00
         21   -1    0    0  504  503  0.00000000000E+00  0.00000000000E+00  0.65830909983E+02  0.65830909983E+02  0.00000000000E+00 0.  1.
         21   -1    0    0  502  504 -0.00000000000E+00 -0.00000000000E+00 -0.92434457470E+03  0.92434457470E+03  0.00000000000E+00 0.  1.
          6    2    1    2  502    0 -0.40482784231E+01  0.14215809476E+03 -0.63329591780E+03  0.67197510130E+03  0.17395834213E+03 0.  0.
         24    2    3    3    0    0  0.12212812675E+01  0.16984045605E+03 -0.59537550565E+03  0.62449743239E+03  0.81717674359E+02 0.  0.
         -6    2    1    2    0  503  0.40482784231E+01 -0.14215809476E+03 -0.22521774691E+03  0.31820038338E+03  0.17407796529E+03 0.  0.
        -24    2    5    5    0    0 -0.53441472389E+02 -0.33547002189E+02 -0.10380621505E+03  0.14538750496E+03  0.79877431048E+02 0.  0.
          2    1    4    4  501    0 -0.37812406666E+02  0.11568116137E+03 -0.38847240246E+03  0.40709055094E+03  0.00000000000E+00 0. -1.
         -1    1    4    4    0  501  0.39033687933E+02  0.54159294686E+02 -0.20690310319E+03  0.21740688146E+03  0.00000000000E+00 0.  1.
          5    1    3    3  502    0 -0.52695596906E+01 -0.27682361298E+02 -0.37920412158E+02  0.47477668905E+02  0.47000000000E+01 0. -1.
         13    1    6    6    0    0 -0.24550930039E+02  0.20087448464E+02 -0.67210235724E+02  0.74320048019E+02  0.00000000000E+00 0. -1.
        -14    1    6    6    0    0 -0.28890542350E+02 -0.53634450653E+02 -0.36595979322E+02  0.71067456945E+02  0.00000000000E+00 0.  1.
         -5    1    5    5    0  503  0.57489750812E+02 -0.10861109257E+03 -0.12141153187E+03  0.17281287842E+03  0.47000000000E+01 0.  1.
<mgrwt>
<rscale>  2 0.22476218E+03</rscale>
<asrwt>0</asrwt>
<pdfrwt beam="1">  1       21 0.10127832E-01 0.22478534E+03</pdfrwt>
<pdfrwt beam="2">  1       21 0.14220686E+00 0.22478534E+03</pdfrwt>
<totfact> 0.26739706E+04</totfact>
</mgrwt>
</event>
<event>
12    1  0.1441827E-001  0.1841989E+03  0.7546771E-02  0.1163911E+00
         21   -1    0    0  504  503  0.00000000000E+00  0.00000000000E+00  0.47854165600E+03  0.47854165600E+03  0.00000000000E+00 0. -1.
         21   -1    0    0  502  504 -0.00000000000E+00 -0.00000000000E+00 -0.29035943425E+03  0.29035943425E+03  0.00000000000E+00 0. -1.
          6    2    1    2  502    0  0.28736892846E+02  0.53423961820E+02 -0.24024993790E+03  0.30273631288E+03  0.17392329851E+03 0.  0.
         24    2    3    3    0    0 -0.15231244813E+02 -0.72768420612E+01 -0.43285905043E+02  0.91940902678E+02  0.79337990653E+02 0.  0.
         -6    2    1    2    0  503 -0.28736892846E+02 -0.53423961820E+02  0.42843215965E+03  0.46616477737E+03  0.17342305363E+03 0.  0.
        -24    2    5    5    0    0 -0.92706394586E+01  0.29096942904E+02  0.15792977144E+03  0.18264711166E+03  0.86519233992E+02 0.  0.
          2    1    4    4  501    0 -0.28775517043E+02  0.29629447725E+02 -0.27254216856E+02  0.49484612659E+02  0.00000000000E+00 0. -1.
         -1    1    4    4    0  501  0.13544272230E+02 -0.36906289787E+02 -0.16031688188E+02  0.42456290019E+02  0.00000000000E+00 0.  1.
          5    1    3    3  502    0  0.43968137659E+02  0.60700803881E+02 -0.19696403286E+03  0.21079541020E+03  0.47000000000E+01 0. -1.
         11    1    6    6    0    0 -0.16340668707E+02 -0.28492806709E+02  0.69655852229E+02  0.77011656505E+02  0.00000000000E+00 0. -1.
        -12    1    6    6    0    0  0.70700292480E+01  0.57589749614E+02  0.88273919209E+02  0.10563545516E+03  0.00000000000E+00 0.  1.
         -5    1    5    5    0  503 -0.19466253388E+02 -0.82520904724E+02  0.27050238821E+03  0.28351766570E+03  0.47000000000E+01 0.  1.
<mgrwt>
<rscale>  2 0.18408074E+03</rscale>
<asrwt>0</asrwt>
<pdfrwt beam="1">  1       21 0.73621793E-01 0.18419892E+03</pdfrwt>
<pdfrwt beam="2">  1       21 0.44670682E-01 0.18419892E+03</pdfrwt>
<totfact> 0.80201422E+03</totfact>
</mgrwt>
</event>
<event>
12    1  0.1441827E-001  0.2372595E+03  0.7546771E-02  0.1121711E+00
         21   -1    0    0  504  503  0.00000000000E+00  0.00000000000E+00  0.23815547429E+03  0.23815547429E+03  0.00000000000E+00 0.  1.
         21   -1    0    0  502  504 -0.00000000000E+00 -0.00000000000E+00 -0.51984017580E+03  0.51984017580E+03  0.00000000000E+00 0. -1.
          6    2    1    2  502    0 -0.14215155998E+03  0.75622864064E+02 -0.42100602478E+03  0.48325783145E+03  0.17425893142E+03 0.  0.
         24    2    3    3    0    0 -0.36932444594E+01  0.45570216608E+02 -0.13795779217E+03  0.16669463279E+03  0.81636165309E+02 0.  0.
         -6    2    1    2    0  503  0.14215155998E+03 -0.75622864064E+02  0.13932132327E+03  0.27473781864E+03  0.17362187161E+03 0.  0.
        -24    2    5    5    0    0  0.46358327313E+02 -0.71845787728E+02  0.13682240049E+03  0.17872248473E+03  0.76879422132E+02 0.  0.
          4    1    4    4  501    0  0.19958997614E+02 -0.16025392955E+02 -0.55262839757E+02  0.60902842817E+02  0.00000000000E+00 0. -1.
         -3    1    4    4    0  501 -0.23652242074E+02  0.61595609563E+02 -0.82694952410E+02  0.10579178998E+03  0.00000000000E+00 0.  1.
          5    1    3    3  502    0 -0.13845831552E+03  0.30052647456E+02 -0.28304823261E+03  0.31656319865E+03  0.47000000000E+01 0. -1.
         13    1    6    6    0    0  0.38915442082E+01 -0.70916485579E+02  0.99038593157E+02  0.12187261783E+03  0.00000000000E+00 0. -1.
        -14    1    6    6    0    0  0.42466783105E+02 -0.92930214972E+00  0.37783807333E+02  0.56849866898E+02  0.00000000000E+00 0.  1.
         -5    1    5    5    0  503  0.95793232666E+02 -0.37770763357E+01  0.24989227751E+01  0.96015333908E+02  0.47000000000E+01 0.  1.
<mgrwt>
<rscale>  2 0.23714251E+03</rscale>
<asrwt>0</asrwt>
<pdfrwt beam="1">  1       21 0.36639304E-01 0.23725948E+03</pdfrwt>
<pdfrwt beam="2">  1       21 0.79975411E-01 0.23725948E+03</pdfrwt>
<totfact> 0.96044946E+03</totfact>
</mgrwt>
</event>
<event>
12    1  0.1441827E-001  0.2931647E+03  0.7546771E-02  0.1088792E+00
         21   -1    0    0  504  503  0.00000000000E+00  0.00000000000E+00  0.38809313870E+03  0.38809313870E+03  0.00000000000E+00 0.  1.
         21   -1    0    0  502  504 -0.00000000000E+00 -0.00000000000E+00 -0.25302174225E+03  0.25302174225E+03  0.00000000000E+00 0.  1.
          6    2    1    2  502    0  0.23561301765E+03 -0.18578516585E+02 -0.46624617800E+02  0.29621060598E+03  0.17236070534E+03 0.  0.
         24    2    3    3    0    0  0.23683759639E+03 -0.17294639884E+02 -0.79365086175E+02  0.26308695578E+03  0.80776096505E+02 0.  0.
         -6    2    1    2    0  503 -0.23561301765E+03  0.18578516585E+02  0.18169601425E+03  0.34490427497E+03  0.17345564832E+03 0.  0.
        -24    2    5    5    0    0 -0.28914156810E+02  0.61984230208E+01  0.63070820727E+02  0.10621679661E+03  0.80184977038E+02 0.  0.
          4    1    4    4  501    0  0.85367025042E+01 -0.11545834474E+02  0.10374471142E+02  0.17714718028E+02  0.00000000000E+00 0. -1.
         -3    1    4    4    0  501  0.22830089389E+03 -0.57488054096E+01 -0.89739557317E+02  0.24537223776E+03  0.00000000000E+00 0.  1.
          5    1    3    3  502    0 -0.12245787467E+01 -0.12838767017E+01  0.32740468375E+02  0.33123650190E+02  0.47000000000E+01 0. -1.
         11    1    6    6    0    0 -0.45837331280E+02  0.26019732644E+02  0.21020683415E+02  0.56744661044E+02  0.00000000000E+00 0. -1.
        -12    1    6    6    0    0  0.16923174470E+02 -0.19821309624E+02  0.42050137312E+02  0.49472135564E+02  0.00000000000E+00 0.  1.
         -5    1    5    5    0  503 -0.20669886084E+03  0.12380093564E+02  0.11862519353E+03  0.23868747836E+03  0.47000000000E+01 0.  1.
<mgrwt>
<rscale>  2 0.29300290E+03</rscale>
<asrwt>0</asrwt>
<pdfrwt beam="1">  1       21 0.59706637E-01 0.29316466E+03</pdfrwt>
<pdfrwt beam="2">  1       21 0.38926422E-01 0.29316466E+03</pdfrwt>
<totfact> 0.15808331E+04</totfact>
</mgrwt>
</event>
<event>
12    1  0.1441827E-001  0.1930319E+03  0.7546771E-02  0.1155854E+00
         21   -1    0    0  504  503  0.00000000000E+00  0.00000000000E+00  0.75075478109E+02  0.75075478109E+02  0.00000000000E+00 0. -1.
         21   -1    0    0  502  504 -0.00000000000E+00 -0.00000000000E+00 -0.99551884443E+03  0.99551884443E+03  0.00000000000E+00 0. -1.
          6    2    1    2  502    0 -0.52124841772E+02  0.67269429181E+02 -0.83998680969E+03  0.86188118117E+03  0.17326036699E+03 0.  0.
         24    2    3    3    0    0 -0.18730994703E+02  0.82065403135E+01 -0.17705780901E+03  0.19547250491E+03  0.80261042697E+02 0.  0.
         -6    2    1    2    0  503  0.52124841772E+02 -0.67269429181E+02 -0.80456556632E+02  0.20871314137E+03  0.17275920422E+03 0.  0.
        -24    2    5    5    0    0  0.64688842525E+02  0.18896532266E+02 -0.42245481891E+02  0.11350493133E+03  0.80975078983E+02 0.  0.
          4    1    4    4  501    0 -0.87697963948E+01  0.12008874339E+02  0.29409628673E+01  0.15158220684E+02  0.00000000000E+00 0. -1.
         -3    1    4    4    0  501 -0.99611983078E+01 -0.38023340260E+01 -0.17999877188E+03  0.18031428422E+03  0.00000000000E+00 0.  1.
          5    1    3    3  502    0 -0.33393847070E+02  0.59062888867E+02 -0.66292900067E+03  0.66640867626E+03  0.47000000000E+01 0. -1.
         11    1    6    6    0    0  0.47081066739E+02 -0.15202749751E+02  0.81699396954E+01  0.50144774004E+02  0.00000000000E+00 0. -1.
        -12    1    6    6    0    0  0.17607775786E+02  0.34099282017E+02 -0.50415421586E+02  0.63360157322E+02  0.00000000000E+00 0.  1.
         -5    1    5    5    0  503 -0.12564000753E+02 -0.86165961446E+02 -0.38211074742E+02  0.95208210044E+02  0.47000000000E+01 0.  1.
<mgrwt>
<rscale>  2 0.19291942E+03</rscale>
<asrwt>0</asrwt>
<pdfrwt beam="1">  1       21 0.11550073E-01 0.19303194E+03</pdfrwt>
<pdfrwt beam="2">  1       21 0.15315675E+00 0.19303194E+03</pdfrwt>
<totfact> 0.17771204E+04</totfact>
</mgrwt>
</event>
<event>
12    1  0.1441827E-001  0.2185285E+03  0.7546771E-02  0.1135110E+00
         21   -1    0    0  504  503  0.00000000000E+00  0.00000000000E+00  0.23574248500E+02  0.23574248500E+02  0.00000000000E+00 0.  1.
         21   -1    0    0  502  504 -0.00000000000E+00 -0.00000000000E+00 -0.22077483994E+04  0.22077483994E+04  0.00000000000E+00 0. -1.
          6    2    1    2  502    0  0.20044577404E+02 -0.13181527974E+03 -0.14163055123E+04  0.14329637299E+04  0.17229827078E+03 0.  0.
         24    2    3    3    0    0 -0.47529997747E+02 -0.98029041099E+02 -0.10389551258E+04  0.10480959120E+04  0.84902848355E+02 0.  0.
         -6    2    1    2    0  503 -0.20044577404E+02  0.13181527974E+03 -0.76786863858E+03  0.79835891794E+03  0.17314058645E+03 0.  0.
        -24    2    5    5    0    0 -0.20747025254E+02  0.72665705745E+02 -0.21305037088E+03  0.24037633245E+03  0.81728678069E+02 0.  0.
          2    1    4    4  501    0  0.16358008547E+02 -0.49011560879E+02 -0.26710539587E+03  0.27205699779E+03  0.00000000000E+00 0. -1.
         -1    1    4    4    0  501 -0.63888006294E+02 -0.49017480220E+02 -0.77184972993E+03  0.77603891418E+03  0.00000000000E+00 0.  1.
          5    1    3    3  502    0  0.67574575151E+02 -0.33786238640E+02 -0.37735038647E+03  0.38486781795E+03  0.47000000000E+01 0. -1.
         11    1    6    6    0    0 -0.50049149146E+01 -0.17938043151E+02 -0.26479456335E+02  0.32372583665E+02  0.00000000000E+00 0. -1.
        -12    1    6    6    0    0 -0.15742110340E+02  0.90603748895E+02 -0.18657091455E+03  0.20800374878E+03  0.00000000000E+00 0.  1.
         -5    1    5    5    0  503  0.70244785021E+00  0.59149573994E+02 -0.55481826770E+03  0.55798258549E+03  0.47000000000E+01 0.  1.
<mgrwt>
<rscale>  2 0.21836164E+03</rscale>
<asrwt>0</asrwt>
<pdfrwt beam="1">  1       21 0.36268068E-02 0.21852852E+03</pdfrwt>
<pdfrwt beam="2">  1       21 0.33965366E+00 0.21852852E+03</pdfrwt>
<totfact> 0.90204139E+03</totfact>
</mgrwt>
</event>
<event>
12    1  0.1441827E-001  0.1756544E+03  0.7546771E-02  0.1172306E+00
         21   -1    0    0  504  503  0.00000000000E+00  0.00000000000E+00  0.58879045806E+02  0.58879045806E+02  0.00000000000E+00 0.  1.
         21   -1    0    0  502  504 -0.00000000000E+00 -0.00000000000E+00 -0.68640397606E+03  0.68640397606E+03  0.00000000000E+00 0.  1.
          6    2    1    2  502    0 -0.25204483360E+01 -0.27062173556E+02 -0.49714627791E+03  0.52726546896E+03  0.17353886948E+03 0.  0.
         24    2    3    3    0    0  0.35979464264E+02 -0.75735328904E+02 -0.35309982493E+03  0.37034896270E+03  0.73813995366E+02 0.  0.
         -6    2    1    2    0  503  0.25204483360E+01  0.27062173556E+02 -0.13037865234E+03  0.21801755290E+03  0.17261038929E+03 0.  0.
        -24    2    5    5    0    0  0.18088098283E+02  0.40130115160E+02 -0.15991749109E+03  0.18185464625E+03  0.74564756845E+02 0.  0.
          2    1    4    4  501    0  0.99001224215E+01 -0.75092572123E+02 -0.17988557059E+03  0.19518126273E+03  0.00000000000E+00 0. -1.
         -1    1    4    4    0  501  0.26079341842E+02 -0.64275678159E+00 -0.17321425434E+03  0.17516769997E+03  0.00000000000E+00 0.  1.
          5    1    3    3  502    0 -0.38499912600E+02  0.48673155349E+02 -0.14404645298E+03  0.15691650627E+03  0.47000000000E+01 0. -1.
         13    1    6    6    0    0  0.44989507208E+02  0.37135199646E+02 -0.12241588639E+03  0.13560504435E+03  0.00000000000E+00 0. -1.
        -14    1    6    6    0    0 -0.26901408924E+02  0.29949155135E+01 -0.37501604702E+02  0.46249601904E+02  0.00000000000E+00 0.  1.
         -5    1    5    5    0  503 -0.15567649947E+02 -0.13067941604E+02  0.29538838752E+02  0.36162906652E+02  0.47000000000E+01 0.  1.
<mgrwt>
<rscale>  2 0.17542460E+03</rscale>
<asrwt>0</asrwt>
<pdfrwt beam="1">  1       21 0.90583145E-02 0.17565436E+03</pdfrwt>
<pdfrwt beam="2">  1       21 0.10560061E+00 0.17565436E+03</pdfrwt>
<totfact> 0.70156610E+04</totfact>
</mgrwt>
</event>
<event>
12    1  0.1441827E-001  0.3607992E+03  0.7546771E-02  0.1058299E+00
         21   -1    0    0  504  503  0.00000000000E+00  0.00000000000E+00  0.12067947927E+04  0.12067947927E+04  0.00000000000E+00 0. -1.
         21   -1    0    0  502  504 -0.00000000000E+00 -0.00000000000E+00 -0.10973064199E+03  0.10973064199E+03  0.00000000000E+00 0.  1.
          6    2    1    2  502    0  0.10309236721E+03 -0.29913373449E+03  0.63617023487E+03  0.73120565472E+03  0.17274291441E+03 0.  0.
         24    2    3    3    0    0  0.65358622059E+02 -0.16870477466E+03  0.22638100836E+03  0.29948253831E+03  0.75553817471E+02 0.  0.
         -6    2    1    2    0  503 -0.10309236721E+03  0.29913373449E+03  0.46089391584E+03  0.58531977996E+03  0.17339843098E+03 0.  0.
        -24    2    5    5    0    0 -0.94516129881E+02  0.27299281277E+03  0.31404168312E+03  0.43583878488E+03  0.88740594072E+02 0.  0.
          4    1    4    4  501    0 -0.11977318215E+02 -0.25781285054E+01  0.20331017310E+02  0.23737168388E+02  0.00000000000E+00 0. -1.
         -3    1    4    4    0  501  0.77335940274E+02 -0.16612664615E+03  0.20604999105E+03  0.27574536992E+03  0.00000000000E+00 0.  1.
          5    1    3    3  502    0  0.37733745152E+02 -0.13042895984E+03  0.40978922651E+03  0.43172311642E+03  0.47000000000E+01 0. -1.
         13    1    6    6    0    0 -0.10075897278E+02  0.15867418315E+03  0.14722998499E+03  0.21669261313E+03  0.00000000000E+00 0. -1.
        -14    1    6    6    0    0 -0.84440232603E+02  0.11431862963E+03  0.16681169813E+03  0.21914617175E+03  0.00000000000E+00 0.  1.
         -5    1    5    5    0  503 -0.85762373298E+01  0.26140921718E+02  0.14685223272E+03  0.14948099508E+03  0.47000000000E+01 0.  1.
<mgrwt>
<rscale>  2 0.36072050E+03</rscale>
<asrwt>0</asrwt>
<pdfrwt beam="1">  1       21 0.18566073E+00 0.36079917E+03</pdfrwt>
<pdfrwt beam="2">  1       21 0.16881638E-01 0.36079917E+03</pdfrwt>
<totfact> 0.47159754E+03</totfact>
</mgrwt>
</event>
<event>
12    1  0.1441827E-001  0.1848450E+03  0.7546771E-02  0.1163217E+00
         21   -1    0    0  504  503  0.00000000000E+00  0.00000000000E+00  0.81446831627E+02  0.81446831627E+02  0.00000000000E+00 0.  1.
         21   -1    0    0  502  504 -0.00000000000E+00 -0.00000000000E+00 -0.49283059984E+03  0.49283059984E+03  0.00000000000E+00 0.  1.
          6    2    1    2  502    0  0.51347735278E+02  0.39072557374E+02 -0.94820702797E+02  0.20774657393E+03  0.17321783581E+03 0.  0.
         24    2    3    3    0    0  0.71701700565E+02  0.69075916257E+02 -0.10772153257E+03  0.16897794156E+03  0.83886829016E+02 0.  0.
         -6    2    1    2    0  503 -0.51347735278E+02 -0.39072557374E+02 -0.31656306542E+03  0.36653085754E+03  0.17311684055E+03 0.  0.
        -24    2    5    5    0    0 -0.28604993269E+02  0.44390740700E+02 -0.17540063247E+03  0.20090393668E+03  0.82511977312E+02 0.  0.
          4    1    4    4  501    0  0.72443016751E+02  0.39672737235E+02 -0.33480186525E+02  0.89122610181E+02  0.00000000000E+00 0. -1.
         -3    1    4    4    0  501 -0.74131618576E+00  0.29403179022E+02 -0.74241346047E+02  0.79855331376E+02  0.00000000000E+00 0.  1.
          5    1    3    3  502    0 -0.20353965287E+02 -0.30003358884E+02  0.12900829775E+02  0.38768632373E+02  0.47000000000E+01 0. -1.
         11    1    6    6    0    0  0.26755292843E+02  0.40796345333E+01 -0.71638704325E+02  0.76580631170E+02  0.00000000000E+00 0. -1.
        -12    1    6    6    0    0 -0.55360286112E+02  0.40311106167E+02 -0.10376192815E+03  0.12432330551E+03  0.00000000000E+00 0.  1.
         -5    1    5    5    0  503 -0.22742742009E+02 -0.83463298074E+02 -0.14116243295E+03  0.16562692086E+03  0.47000000000E+01 0.  1.
<mgrwt>
<rscale>  2 0.18482133E+03</rscale>
<asrwt>0</asrwt>
<pdfrwt beam="1">  1       21 0.12530282E-01 0.18484500E+03</pdfrwt>
<pdfrwt beam="2">  1       21 0.75820092E-01 0.18484500E+03</pdfrwt>
<totfact> 0.84541097E+04</totfact>
</mgrwt>
</event>
<event>
12    1  0.1441827E-001  0.1768461E+03  0.7546771E-02  0.1171251E+00
         21   -1    0    0  504  503  0.00000000000E+00  0.00000000000E+00  0.63488889203E+03  0.63488889203E+03  0.00000000000E+00 0. -1.
         21   -1    0    0  502  504 -0.00000000000E+00 -0.00000000000E+00 -0.50689056302E+02  0.50689056302E+02  0.00000000000E+00 0. -1.
          6    2    1    2  502    0  0.25231904516E+02 -0.18016989616E+02  0.22577017155E+03  0.28589509460E+03  0.17263421976E+03 0.  0.
         24    2    3    3    0    0 -0.41116910378E+02 -0.36434314018E+02  0.17359251116E+03  0.19937364454E+03  0.81224569253E+02 0.  0.
         -6    2    1    2    0  503 -0.25231904516E+02  0.18016989616E+02  0.35842966418E+03  0.39968285373E+03  0.17410714657E+03 0.  0.
        -24    2    5    5    0    0 -0.29802357450E+02 -0.47533953063E+02  0.28263286486E+03  0.29925845474E+03  0.80787556171E+02 0.  0.
          2    1    4    4  501    0 -0.42067260258E+02 -0.51909338791E+01  0.28798370825E+02  0.51243988353E+02  0.00000000000E+00 0. -1.
         -1    1    4    4    0  501  0.95034988067E+00 -0.31243380138E+02  0.14479414033E+03  0.14812965619E+03  0.00000000000E+00 0.  1.
          5    1    3    3  502    0  0.66348814894E+02  0.18417324401E+02  0.52177660390E+02  0.86521450055E+02  0.47000000000E+01 0. -1.
         11    1    6    6    0    0 -0.46545575774E+02 -0.33216315152E+02  0.99148441071E+02  0.11445622562E+03  0.00000000000E+00 0. -1.
        -12    1    6    6    0    0  0.16743218324E+02 -0.14317637911E+02  0.18348442378E+03  0.18480222912E+03  0.00000000000E+00 0.  1.
         -5    1    5    5    0  503  0.45704529337E+01  0.65550942679E+02  0.75796799320E+02  0.10042439899E+03  0.47000000000E+01 0.  1.
<mgrwt>
<rscale>  2 0.17648255E+03</rscale>
<asrwt>0</asrwt>
<pdfrwt beam="1">  1       21 0.97675209E-01 0.17684615E+03</pdfrwt>
<pdfrwt beam="2">  1       21 0.77983168E-02 0.17684615E+03</pdfrwt>
<totfact> 0.10956577E+05</totfact>
</mgrwt>
</event>
<event>
12    1  0.1441827E-001  0.2387983E+03  0.7546771E-02  0.1121408E+00
         21   -1    0    0  504  503  0.00000000000E+00  0.00000000000E+00  0.25614540805E+02  0.25614540805E+02  0.00000000000E+00 0.  1.
         21   -1    0    0  502  504 -0.00000000000E+00 -0.00000000000E+00 -0.23440356688E+04  0.23440356688E+04  0.00000000000E+00 0.  1.
          6    2    1    2  502    0  0.71887151183E+01 -0.16394093498E+03 -0.14599633155E+04  0.14785977783E+04  0.16682385795E+03 0.  0.
         24    2    3    3    0    0 -0.59109630701E+02 -0.10542231291E+03 -0.83624724310E+03  0.84862656566E+03  0.79055574359E+02 0.  0.
         -6    2    1    2    0  503 -0.71887151183E+01  0.16394093498E+03 -0.85845781250E+03  0.89105243132E+03  0.17348288596E+03 0.  0.
        -24    2    5    5    0    0  0.34032497916E+02  0.30177978114E+02 -0.24820754054E+03  0.26493806359E+03  0.80723435785E+02 0.  0.
          4    1    4    4  501    0  0.13098813267E+02 -0.22126029291E+02 -0.71664036586E+02  0.76137206549E+02  0.00000000000E+00 0. -1.
         -3    1    4    4    0  501 -0.72208443968E+02 -0.83296283614E+02 -0.76458320652E+03  0.77248935911E+03  0.00000000000E+00 0.  1.
          5    1    3    3  502    0  0.66298345819E+02 -0.58518622078E+02 -0.62371607241E+03  0.62997121266E+03  0.47000000000E+01 0. -1.
         11    1    6    6    0    0 -0.18755048028E+02  0.65224392041E+01 -0.15617036831E+02  0.25262341124E+02  0.00000000000E+00 0. -1.
        -12    1    6    6    0    0  0.52787545943E+02  0.23655538910E+02 -0.23259050371E+03  0.23967572247E+03  0.00000000000E+00 0.  1.
         -5    1    5    5    0  503 -0.41221213034E+02  0.13376295687E+03 -0.61025027196E+03  0.62611436772E+03  0.47000000000E+01 0.  1.
<mgrwt>
<rscale>  2 0.23759093E+03</rscale>
<asrwt>0</asrwt>
<pdfrwt beam="1">  1       21 0.39406986E-02 0.23879828E+03</pdfrwt>
<pdfrwt beam="2">  1       21 0.36062087E+00 0.23879828E+03</pdfrwt>
<totfact> 0.57619997E+03</totfact>
</mgrwt>
</event>
<event>
12    1  0.1441827E-001  0.1759374E+03  0.7546771E-02  0.1172377E+00
         21   -1    0    0  504  503  0.00000000000E+00  0.00000000000E+00  0.23400095526E+02  0.23400095526E+02  0.00000000000E+00 0. -1.
         21   -1    0    0  502  504 -0.00000000000E+00 -0.00000000000E+00 -0.14704783573E+04  0.14704783573E+04  0.00000000000E+00 0. -1.
          6    2    1    2  502    0 -0.26646947951E+01  0.30641235627E+02 -0.46901956259E+03  0.50012155346E+03  0.17086904994E+03 0.  0.
         24    2    3    3    0    0 -0.48328670101E+02 -0.86128626556E+01 -0.16194415850E+03  0.18716232821E+03  0.79962396614E+02 0.  0.
         -6    2    1    2    0  503  0.26646947951E+01 -0.30641235627E+02 -0.97805869919E+03  0.99375689937E+03  0.17322808682E+03 0.  0.
        -24    2    5    5    0    0  0.43578666377E+02 -0.67706351257E+02 -0.51754018285E+03  0.52991730451E+03  0.80506264291E+02 0.  0.
          2    1    4    4  501    0 -0.66297437336E+02  0.10651175591E+02 -0.12320078930E+03  0.14031119779E+03  0.00000000000E+00 0. -1.
         -1    1    4    4    0  501  0.17968767235E+02 -0.19264038247E+02 -0.38743369193E+02  0.46851130423E+02  0.00000000000E+00 0.  1.
          5    1    3    3  502    0  0.45663975306E+02  0.39254098282E+02 -0.30707540410E+03  0.31295922526E+03  0.47000000000E+01 0. -1.
         11    1    6    6    0    0  0.49432695319E+02 -0.69359778555E+02 -0.51682059141E+03  0.52379184220E+03  0.00000000000E+00 0. -1.
        -12    1    6    6    0    0 -0.58540289420E+01  0.16534272981E+01 -0.71959143987E+00  0.61254623110E+01  0.00000000000E+00 0.  1.
         -5    1    5    5    0  503 -0.40913971582E+02  0.37065115630E+02 -0.46051851633E+03  0.46383959485E+03  0.47000000000E+01 0.  1.
<mgrwt>
<rscale>  2 0.17535391E+03</rscale>
<asrwt>0</asrwt>
<pdfrwt beam="1">  1       21 0.36000145E-02 0.17593736E+03</pdfrwt>
<pdfrwt beam="2">  1       21 0.22622745E+00 0.17593736E+03</pdfrwt>
<totfact> 0.43616985E+04</totfact>
</mgrwt>
</event>
<event>
12    1  0.1441827E-001  0.2358161E+03  0.7546771E-02  0.1122757E+00
         21   -1    0    0  504  503  0.00000000000E+00  0.00000000000E+00  0.49586983456E+03  0.49586983456E+03  0.00000000000E+00 0.  1.
         21   -1    0    0  502  504 -0.00000000000E+00 -0.00000000000E+00 -0.31963743163E+03  0.31963743163E+03  0.00000000000E+00 0.  1.
          6    2    1    2  502    0  0.15619718982E+03 -0.32692317667E+02 -0.24078646579E+03  0.33643111477E+03  0.17245701822E+03 0.  0.
         24    2    3    3    0    0  0.11006120927E+03  0.33404446183E+02 -0.20544289540E+03  0.24829162952E+03  0.78820195418E+02 0.  0.
         -6    2    1    2    0  503 -0.15619718982E+03  0.32692317667E+02  0.41701886871E+03  0.47907615142E+03  0.17361702753E+03 0.  0.
        -24    2    5    5    0    0 -0.25389792245E+02 -0.11116179927E+02  0.12626142501E+03  0.15721944294E+03  0.89486282669E+02 0.  0.
          2    1    4    4  501    0  0.35982307187E+02  0.25819837142E+02 -0.20268737493E+02  0.48705360486E+02  0.00000000000E+00 0. -1.
         -1    1    4    4    0  501  0.74078902087E+02  0.75846090416E+01 -0.18517415791E+03  0.19958626903E+03  0.00000000000E+00 0.  1.
          5    1    3    3  502    0  0.46135980550E+02 -0.66096763850E+02 -0.35343570387E+02  0.88139485252E+02  0.47000000000E+01 0. -1.
         11    1    6    6    0    0 -0.14119878863E+02 -0.92597042170E+01  0.13905080525E+03  0.14007226543E+03  0.00000000000E+00 0. -1.
        -12    1    6    6    0    0 -0.11269913382E+02 -0.18564757104E+01 -0.12789380239E+02  0.17147177512E+02  0.00000000000E+00 0.  1.
         -5    1    5    5    0  503 -0.13080739758E+03  0.43808497594E+02  0.29075744370E+03  0.32185670848E+03  0.47000000000E+01 0.  1.
<mgrwt>
<rscale>  2 0.23560260E+03</rscale>
<asrwt>0</asrwt>
<pdfrwt beam="1">  1       21 0.76287667E-01 0.23581608E+03</pdfrwt>
<pdfrwt beam="2">  1       21 0.49174989E-01 0.23581608E+03</pdfrwt>
<totfact> 0.58555715E+03</totfact>
</mgrwt>
</event>
<event>
12    1  0.1441827E-001  0.2176747E+03  0.7546771E-02  0.1136293E+00
         21   -1    0    0  504  503  0.00000000000E+00  0.00000000000E+00  0.58665749958E+03  0.58665749958E+03  0.00000000000E+00 0.  1.
         21   -1    0    0  502  504 -0.00000000000E+00 -0.00000000000E+00 -0.13022894619E+03  0.13022894619E+03  0.00000000000E+00 0.  1.
          6    2    1    2  502    0 -0.10941745210E+03 -0.64165751812E+02  0.33350929375E+01  0.21421760770E+03  0.17259385295E+03 0.  0.
         24    2    3    3    0    0 -0.91602613564E+02 -0.10672712704E+03  0.23251683823E+02  0.16374385486E+03  0.80558616833E+02 0.  0.
         -6    2    1    2    0  503  0.10941745210E+03  0.64165751812E+02  0.45309346045E+03  0.50266883807E+03  0.17689786415E+03 0.  0.
        -24    2    5    5    0    0  0.10567954934E+03  0.20473288984E+02  0.43511101651E+03  0.45504046927E+03  0.78440482356E+02 0.  0.
          4    1    4    4  501    0 -0.39681379196E+02 -0.71352390172E+02 -0.24037173384E+02  0.85109113158E+02  0.00000000000E+00 0. -1.
         -3    1    4    4    0  501 -0.51921234368E+02 -0.35374736867E+02  0.47288857207E+02  0.78634741703E+02  0.00000000000E+00 0.  1.
          5    1    3    3  502    0 -0.17814838532E+02  0.42561375227E+02 -0.19916590886E+02  0.50473752839E+02  0.47000000000E+01 0. -1.
         11    1    6    6    0    0  0.80834594346E+01 -0.89271207436E+01  0.17881112871E+03  0.17921622570E+03  0.00000000000E+00 0. -1.
        -12    1    6    6    0    0  0.97596089904E+02  0.29400409728E+02  0.25629988780E+03  0.27582424357E+03  0.00000000000E+00 0.  1.
         -5    1    5    5    0  503  0.37379027585E+01  0.43692462828E+02  0.17982443933E+02  0.47628368803E+02  0.47000000000E+01 0.  1.
<mgrwt>
<rscale>  2 0.21679867E+03</rscale>
<asrwt>0</asrwt>
<pdfrwt beam="1">  1       21 0.90254998E-01 0.21767470E+03</pdfrwt>
<pdfrwt beam="2">  1       21 0.20035223E-01 0.21767470E+03</pdfrwt>
<totfact> 0.23667744E+04</totfact>
</mgrwt>
</event>
<event>
12    1  0.1441827E-001  0.1802967E+03  0.7546771E-02  0.1168733E+00
         21   -1    0    0  504  503  0.00000000000E+00  0.00000000000E+00  0.63139033230E+03  0.63139033230E+03  0.00000000000E+00 0. -1.
         21   -1    0    0  502  504 -0.00000000000E+00 -0.00000000000E+00 -0.50271520136E+02  0.50271520136E+02  0.00000000000E+00 0. -1.
          6    2    1    2  502    0  0.50644851567E+02 -0.11501380830E+02  0.30773726019E+03  0.35417999024E+03  0.16746361225E+03 0.  0.
         24    2    3    3    0    0 -0.31898259911E+02 -0.95528871081E+01  0.11262208889E+03  0.14226212419E+03  0.80287112518E+02 0.  0.
         -6    2    1    2    0  503 -0.50644851567E+02  0.11501380830E+02  0.27338155197E+03  0.32748186219E+03  0.17265489959E+03 0.  0.
        -24    2    5    5    0    0 -0.72323117719E+02 -0.40457959218E+02  0.22445323846E+03  0.25274371861E+03  0.81441090517E+02 0.  0.
          4    1    4    4  501    0  0.29105465090E+00  0.15931524996E+02 -0.57751471525E+01  0.16948466778E+02  0.00000000000E+00 0. -1.
         -3    1    4    4    0  501 -0.32189314561E+02 -0.25484412104E+02  0.11839723604E+03  0.12531365741E+03  0.00000000000E+00 0.  1.
          5    1    3    3  502    0  0.82543111478E+02 -0.19484937221E+01  0.19511517130E+03  0.21191786605E+03  0.47000000000E+01 0. -1.
         13    1    6    6    0    0 -0.40330481975E+02 -0.30263646218E+02  0.21037669703E+03  0.21633490405E+03  0.00000000000E+00 0. -1.
        -14    1    6    6    0    0 -0.31992635744E+02 -0.10194313000E+02  0.14076541432E+02  0.36408814565E+02  0.00000000000E+00 0.  1.
         -5    1    5    5    0  503  0.21678266152E+02  0.51959340049E+02  0.48928313513E+02  0.74738143574E+02  0.47000000000E+01 0.  1.
<mgrwt>
<rscale>  2 0.17904244E+03</rscale>
<asrwt>0</asrwt>
<pdfrwt beam="1">  1       21 0.97136969E-01 0.18029669E+03</pdfrwt>
<pdfrwt beam="2">  1       21 0.77340805E-02 0.18029669E+03</pdfrwt>
<totfact> 0.11244332E+05</totfact>
</mgrwt>
</event>
<event>
12    1  0.1441827E-001  0.2918547E+03  0.7546771E-02  0.1089719E+00
         21   -1    0    0  504  503  0.00000000000E+00  0.00000000000E+00  0.79950821004E+02  0.79950821004E+02  0.00000000000E+00 0. -1.
         21   -1    0    0  502  504 -0.00000000000E+00 -0.00000000000E+00 -0.11402371492E+04  0.11402371492E+04  0.00000000000E+00 0.  1.
          6    2    1    2  502    0 -0.22815705788E+03  0.42228287392E+02 -0.69808751815E+03  0.75664084930E+03  0.17703197599E+03 0.  0.
         24    2    3    3    0    0 -0.51897803877E+02 -0.15785703535E+02 -0.15293247937E+03  0.18075105596E+03  0.79624308495E+02 0.  0.
         -6    2    1    2    0  503  0.22815705788E+03 -0.42228287392E+02 -0.36219881006E+03  0.46354712092E+03  0.17276887446E+03 0.  0.
        -24    2    5    5    0    0  0.15820184566E+03 -0.22004484170E+02 -0.13134605950E+03  0.22143595559E+03  0.79183797500E+02 0.  0.
          2    1    4    4  501    0 -0.63778198341E+02 -0.34742903556E+02 -0.12864102098E+03  0.14772691092E+03  0.00000000000E+00 0. -1.
         -1    1    4    4    0  501  0.11880394464E+02  0.18957200022E+02 -0.24291458386E+02  0.33024145043E+02  0.00000000000E+00 0.  1.
          5    1    3    3  502    0 -0.17625925400E+03  0.58013990927E+02 -0.54515503878E+03  0.57588979334E+03  0.47000000000E+01 0. -1.
         13    1    6    6    0    0  0.47993199251E+02  0.29805194286E+02 -0.41963576449E+02  0.70374985109E+02  0.00000000000E+00 0. -1.
        -14    1    6    6    0    0  0.11020864641E+03 -0.51809678457E+02 -0.89382483053E+02  0.15106097048E+03  0.00000000000E+00 0.  1.
         -5    1    5    5    0  503  0.69955212216E+02 -0.20223803222E+02 -0.23085275056E+03  0.24211116532E+03  0.47000000000E+01 0.  1.
<mgrwt>
<rscale>  2 0.29121111E+03</rscale>
<asrwt>0</asrwt>
<pdfrwt beam="1">  1       21 0.12300126E-01 0.29185474E+03</pdfrwt>
<pdfrwt beam="2">  1       21 0.17542110E+00 0.29185474E+03</pdfrwt>
<totfact> 0.10290218E+04</totfact>
</mgrwt>
</event>
<event>
12    1  0.1441827E-001  0.2626785E+03  0.7546771E-02  0.1105633E+00
         21   -1    0    0  504  503  0.00000000000E+00  0.00000000000E+00  0.14338031455E+03  0.14338031455E+03  0.00000000000E+00 0.  1.
         21   -1    0    0  502  504 -0.00000000000E+00 -0.00000000000E+00 -0.48674538245E+03  0.48674538245E+03  0.00000000000E+00 0. -1.
          6    2    1    2  502    0 -0.20203303545E+02 -0.19650146670E+03 -0.13481670544E+03  0.29472680542E+03  0.17224211412E+03 0.  0.
         24    2    3    3    0    0 -0.74147751705E+02 -0.10722515110E+03 -0.52420846090E+02  0.16171766418E+03  0.80059575890E+02 0.  0.
         -6    2    1    2    0  503  0.20203303545E+02  0.19650146670E+03 -0.20854836246E+03  0.33539889158E+03  0.17314443999E+03 0.  0.
        -24    2    5    5    0    0  0.72488977139E+02  0.11276527958E+03 -0.87316137337E+02  0.17898635019E+03  0.80257994177E+02 0.  0.
          2    1    4    4  501    0 -0.90764389941E+02 -0.94124375938E+02 -0.51511249127E+02  0.14053818490E+03  0.00000000000E+00 0. -1.
         -1    1    4    4    0  501  0.16616638236E+02 -0.13100775161E+02 -0.90959696254E+00  0.21179479283E+02  0.00000000000E+00 0.  1.
          5    1    3    3  502    0  0.53944448160E+02 -0.89276315597E+02 -0.82395859355E+02  0.13300914124E+03  0.47000000000E+01 0. -1.
         13    1    6    6    0    0  0.30634392469E+02  0.10986319729E+03 -0.68117947500E+02  0.13284744218E+03  0.00000000000E+00 0. -1.
        -14    1    6    6    0    0  0.41854584670E+02  0.29020822854E+01 -0.19198189837E+02  0.46138908011E+02  0.00000000000E+00 0.  1.
         -5    1    5    5    0  503 -0.52285673595E+02  0.83736187118E+02 -0.12123222512E+03  0.15641254139E+03  0.47000000000E+01 0.  1.
<mgrwt>
<rscale>  2 0.26252991E+03</rscale>
<asrwt>0</asrwt>
<pdfrwt beam="1">  1       21 0.22058510E-01 0.26267850E+03</pdfrwt>
<pdfrwt beam="2">  1       21 0.74883905E-01 0.26267850E+03</pdfrwt>
<totfact> 0.29598533E+04</totfact>
</mgrwt>
</event>
<event>
12    1  0.1441827E-001  0.1774792E+03  0.7546771E-02  0.1170513E+00
         21   -1    0    0  504  503  0.00000000000E+00  0.00000000000E+00  0.48450088737E+03  0.48450088737E+03  0.00000000000E+00 0. -1.
         21   -1    0    0  502  504 -0.00000000000E+00 -0.00000000000E+00 -0.75561338452E+02  0.75561338452E+02  0.00000000000E+00 0. -1.
          6    2    1    2  502    0 -0.15137123206E+02 -0.36259091884E+02  0.97544109541E+02  0.20164072405E+03  0.17204730177E+03 0.  0.
         24    2    3    3    0    0  0.36898665285E+02  0.28198344119E+02  0.57086169702E+02  0.10932919045E+03  0.80854084635E+02 0.  0.
         -6    2    1    2    0  503  0.15137123206E+02  0.36259091884E+02  0.31139543937E+03  0.35842150177E+03  0.17307512538E+03 0.  0.
        -24    2    5    5    0    0  0.28424007803E+02  0.79478330740E+02  0.27900233554E+03  0.30260172852E+03  0.81245145026E+02 0.  0.
          4    1    4    4  501    0  0.24045468394E+02 -0.12397301581E+02  0.60838579359E+02  0.66582357838E+02  0.00000000000E+00 0. -1.
         -3    1    4    4    0  501  0.12853196890E+02  0.40595645699E+02 -0.37524096577E+01  0.42746832611E+02  0.00000000000E+00 0.  1.
          5    1    3    3  502    0 -0.52035788490E+02 -0.64457436003E+02  0.40457939839E+02  0.92311533602E+02  0.47000000000E+01 0. -1.
         11    1    6    6    0    0 -0.20897079233E+02  0.58009713068E+02  0.12306476117E+03  0.13764719457E+03  0.00000000000E+00 0. -1.
        -12    1    6    6    0    0  0.49321087036E+02  0.21468617672E+02  0.15593757437E+03  0.16495453395E+03  0.00000000000E+00 0.  1.
         -5    1    5    5    0  503 -0.13286884597E+02 -0.43219238856E+02  0.32393103837E+02  0.55819773251E+02  0.47000000000E+01 0.  1.
<mgrwt>
<rscale>  2 0.17722809E+03</rscale>
<asrwt>0</asrwt>
<pdfrwt beam="1">  1       21 0.74538596E-01 0.17747916E+03</pdfrwt>
<pdfrwt beam="2">  1       21 0.11624822E-01 0.17747916E+03</pdfrwt>
<totfact> 0.10071473E+05</totfact>
</mgrwt>
</event>
<event>
12    1  0.1441827E-001  0.3488341E+03  0.7546771E-02  0.1063166E+00
         21   -1    0    0  504  503  0.00000000000E+00  0.00000000000E+00  0.99674961609E+03  0.99674961609E+03  0.00000000000E+00 0. -1.
         21   -1    0    0  502  504 -0.00000000000E+00 -0.00000000000E+00 -0.24304681360E+03  0.24304681360E+03  0.00000000000E+00 0.  1.
          6    2    1    2  502    0  0.27307865153E+03 -0.13106740450E+03 -0.61099783806E+02  0.35346213846E+03  0.17161493322E+03 0.  0.
         24    2    3    3    0    0  0.59171892166E+02 -0.91777351267E+01  0.24703239402E-01  0.99746774093E+02  0.79773897279E+02 0.  0.
         -6    2    1    2    0  503 -0.27307865153E+03  0.13106740450E+03  0.81480258630E+03  0.88633429123E+03  0.17301620362E+03 0.  0.
        -24    2    5    5    0    0 -0.23478335791E+03  0.10379839785E+03  0.78667110713E+03  0.83134703491E+03  0.79932028063E+02 0.  0.
          4    1    4    4  501    0 -0.51917849977E+01  0.25117070766E+02  0.67086766948E+01  0.26510907535E+02  0.00000000000E+00 0. -1.
         -3    1    4    4    0  501  0.64363677164E+02 -0.34294805893E+02 -0.66839734554E+01  0.73235866558E+02  0.00000000000E+00 0.  1.
          5    1    3    3  502    0  0.21390675936E+03 -0.12188966937E+03 -0.61124487045E+02  0.25371536437E+03  0.47000000000E+01 0. -1.
         11    1    6    6    0    0 -0.13717113716E+03  0.19343843453E+02  0.44721647847E+03  0.46818018301E+03  0.00000000000E+00 0. -1.
        -12    1    6    6    0    0 -0.97612220747E+02  0.84454554398E+02  0.33945462866E+03  0.36316685190E+03  0.00000000000E+00 0.  1.
         -5    1    5    5    0  503 -0.38295293618E+02  0.27269006648E+02  0.28131479173E+02  0.54987256318E+02  0.47000000000E+01 0.  1.
<mgrwt>
<rscale>  2 0.34866074E+03</rscale>
<asrwt>0</asrwt>
<pdfrwt beam="1">  1       21 0.15334609E+00 0.34883409E+03</pdfrwt>
<pdfrwt beam="2">  1       21 0.37391818E-01 0.34883409E+03</pdfrwt>
<totfact> 0.17379801E+03</totfact>
</mgrwt>
</event>
<event>
12    1  0.1441827E-001  0.1772087E+03  0.7546771E-02  0.1171195E+00
         21   -1    0    0  504  503  0.00000000000E+00  0.00000000000E+00  0.14517085280E+03  0.14517085280E+03  0.00000000000E+00 0. -1.
         21   -1    0    0  502  504 -0.00000000000E+00 -0.00000000000E+00 -0.21689882455E+03  0.21689882455E+03  0.00000000000E+00 0. -1.
          6    2    1    2  502    0  0.13661323124E+02  0.32239461196E+02 -0.59619331809E+02  0.18444779234E+03  0.17099856364E+03 0.  0.
         24    2    3    3    0    0 -0.12626029843E+00  0.40335763071E+02 -0.10392652076E+03  0.13711002144E+03  0.79821341363E+02 0.  0.
         -6    2    1    2    0  503 -0.13661323124E+02 -0.32239461196E+02 -0.12108639944E+02  0.17762188501E+03  0.17371499724E+03 0.  0.
        -24    2    5    5    0    0  0.42677451096E+02  0.26888762784E+02 -0.13197045500E+02  0.95808200465E+02  0.80378348268E+02 0.  0.
          4    1    4    4  501    0 -0.53263696465E+01  0.45847602903E+02 -0.11487166523E+03  0.12379770748E+03  0.00000000000E+00 0. -1.
         -3    1    4    4    0  501  0.52001093481E+01 -0.55118398323E+01  0.10945144464E+02  0.13312313958E+02  0.00000000000E+00 0.  1.
          5    1    3    3  502    0  0.13787583423E+02 -0.80963018749E+01  0.44307188954E+02  0.47337770899E+02  0.47000000000E+01 0. -1.
         11    1    6    6    0    0  0.14309512829E+02 -0.27671869292E+02 -0.14358510656E+02  0.34302497515E+02  0.00000000000E+00 0. -1.
        -12    1    6    6    0    0  0.28367938267E+02  0.54560632076E+02  0.11614651566E+01  0.61505702950E+02  0.00000000000E+00 0.  1.
         -5    1    5    5    0  503 -0.56338774221E+02 -0.59128223980E+02  0.10884055555E+01  0.81813684542E+02  0.47000000000E+01 0.  1.
<mgrwt>
<rscale>  2 0.17653938E+03</rscale>
<asrwt>0</asrwt>
<pdfrwt beam="1">  1       21 0.22333977E-01 0.17720868E+03</pdfrwt>
<pdfrwt beam="2">  1       21 0.33369050E-01 0.17720868E+03</pdfrwt>
<totfact> 0.16305321E+05</totfact>
</mgrwt>
</event>
<event>
12    1  0.1441827E-001  0.1789383E+03  0.7546771E-02  0.1168974E+00
         21   -1    0    0  504  503  0.00000000000E+00  0.00000000000E+00  0.50527878028E+02  0.50527878028E+02  0.00000000000E+00 0.  1.
         21   -1    0    0  502  504 -0.00000000000E+00 -0.00000000000E+00 -0.12232100916E+04  0.12232100916E+04  0.00000000000E+00 0.  1.
          6    2    1    2  502    0  0.21444015027E+01  0.39335439566E+01 -0.10287430768E+04  0.10440917501E+04  0.17831206727E+03 0.  0.
         24    2    3    3    0    0  0.24900698151E+02  0.21386017268E+01 -0.23274177181E+03  0.24774933732E+03  0.81156536447E+02 0.  0.
         -6    2    1    2    0  503 -0.21444015027E+01 -0.39335439566E+01 -0.14393913674E+03  0.22964621950E+03  0.17888219537E+03 0.  0.
        -24    2    5    5    0    0 -0.22459682605E+02 -0.27813531008E+02 -0.16825479313E+03  0.18969242653E+03  0.79971941458E+02 0.  0.
          4    1    4    4  501    0  0.20728455752E+02 -0.36324671331E+02 -0.81086819321E+02  0.91237179334E+02  0.00000000000E+00 0. -1.
         -3    1    4    4    0  501  0.41722423996E+01  0.38463273058E+02 -0.15165495249E+03  0.15651215798E+03  0.00000000000E+00 0.  1.
          5    1    3    3  502    0 -0.22756296648E+02  0.17949422298E+01 -0.79600130503E+03  0.79634241283E+03  0.47000000000E+01 0. -1.
         13    1    6    6    0    0  0.24286014673E+02 -0.43593995760E+01 -0.10377968402E+03  0.10667257234E+03  0.00000000000E+00 0. -1.
        -14    1    6    6    0    0 -0.46745697277E+02 -0.23454131432E+02 -0.64475109108E+02  0.83019854190E+02  0.00000000000E+00 0.  1.
         -5    1    5    5    0  503  0.20315281102E+02  0.23879987052E+02  0.24315656384E+02  0.39953792976E+02  0.47000000000E+01 0.  1.
<mgrwt>
<rscale>  2 0.17879563E+03</rscale>
<asrwt>0</asrwt>
<pdfrwt beam="1">  1       21 0.77735196E-02 0.17893829E+03</pdfrwt>
<pdfrwt beam="2">  1       21 0.18818617E+00 0.17893829E+03</pdfrwt>
<totfact> 0.20433775E+04</totfact>
</mgrwt>
</event>
<event>
12    1  0.1441827E-001  0.1821592E+03  0.7546771E-02  0.1167255E+00
         21   -1    0    0  504  503  0.00000000000E+00  0.00000000000E+00  0.10956604830E+03  0.10956604830E+03  0.00000000000E+00 0.  1.
         21   -1    0    0  502  504 -0.00000000000E+00 -0.00000000000E+00 -0.34407094007E+03  0.34407094007E+03  0.00000000000E+00 0.  1.
          6    2    1    2  502    0  0.32951223151E+02  0.26562074986E+02 -0.20331167810E+03  0.26882628872E+03  0.17070620411E+03 0.  0.
         24    2    3    3    0    0 -0.39487380286E+02  0.11642167233E+02 -0.15734547549E+03  0.18162000054E+03  0.80829652237E+02 0.  0.
         -6    2    1    2    0  503 -0.32951223151E+02 -0.26562074986E+02 -0.31193213671E+02  0.18481069965E+03  0.17717407031E+03 0.  0.
        -24    2    5    5    0    0 -0.24077315276E+02 -0.74627022928E+02 -0.61142880737E+02  0.12729497989E+03  0.79477357647E+02 0.  0.
          4    1    4    4  501    0 -0.56995770018E+02  0.21457579988E+02 -0.73733436152E+02  0.95632448185E+02  0.00000000000E+00 0. -1.
         -3    1    4    4    0  501  0.17508389733E+02 -0.98154127555E+01 -0.83612039337E+02  0.85987552359E+02  0.00000000000E+00 0.  1.
          5    1    3    3  502    0  0.72438603437E+02  0.14919907753E+02 -0.45966202609E+02  0.87206288177E+02  0.47000000000E+01 0. -1.
         11    1    6    6    0    0 -0.89912541434E+01  0.16671112806E+02 -0.13106162240E+02  0.23033457012E+02  0.00000000000E+00 0. -1.
        -12    1    6    6    0    0 -0.15086061132E+02 -0.91298135734E+02 -0.48036718497E+02  0.10426152288E+03  0.00000000000E+00 0.  1.
         -5    1    5    5    0  503 -0.88739078755E+01  0.48064947942E+02  0.29949667066E+02  0.57515719756E+02  0.47000000000E+01 0.  1.
<mgrwt>
<rscale>  2 0.18056736E+03</rscale>
<asrwt>0</asrwt>
<pdfrwt beam="1">  1       21 0.16856315E-01 0.18215921E+03</pdfrwt>
<pdfrwt beam="2">  1       21 0.52933990E-01 0.18215921E+03</pdfrwt>
<totfact> 0.10756958E+05</totfact>
</mgrwt>
</event>
<event>
12    1  0.1441827E-001  0.2730048E+03  0.7546771E-02  0.1101576E+00
         21   -1    0    0  504  503  0.00000000000E+00  0.00000000000E+00  0.32414883123E+03  0.32414883123E+03  0.00000000000E+00 0. -1.
         21   -1    0    0  502  504 -0.00000000000E+00 -0.00000000000E+00 -0.43622754951E+03  0.43622754951E+03  0.00000000000E+00 0.  1.
          6    2    1    2  502    0  0.19388120799E+03 -0.29337786520E+01 -0.32535532908E+03  0.42472072020E+03  0.19217978597E+03 0.  0.
         24    2    3    3    0    0  0.22142545643E+03  0.10195106618E+01 -0.32079905806E+03  0.39613464449E+03  0.70571586035E+02 0.  0.
         -6    2    1    2    0  503 -0.19388120799E+03  0.29337786520E+01  0.21327661079E+03  0.33565566054E+03  0.17198627816E+03 0.  0.
        -24    2    5    5    0    0 -0.12392260777E+03 -0.14266772129E+02  0.21720448353E+03  0.26335363515E+03  0.81344919790E+02 0.  0.
          2    1    4    4  501    0  0.54981067111E+02 -0.11748214862E+02 -0.13566227433E+03  0.14685091409E+03  0.00000000000E+00 0. -1.
         -1    1    4    4    0  501  0.16644438932E+03  0.12767725524E+02 -0.18513678373E+03  0.24928373040E+03  0.00000000000E+00 0.  1.
          5    1    3    3  502    0 -0.27544248442E+02 -0.39532893138E+01 -0.45562710198E+01  0.28586075705E+02  0.47000000000E+01 0. -1.
         11    1    6    6    0    0 -0.12057955585E+03 -0.28752171866E+01  0.13806793325E+03  0.18333153126E+03  0.00000000000E+00 0. -1.
        -12    1    6    6    0    0 -0.33430519249E+01 -0.11391554943E+02  0.79136550283E+02  0.80022103889E+02  0.00000000000E+00 0.  1.
         -5    1    5    5    0  503 -0.69958600218E+02  0.17200550781E+02 -0.39278727427E+01  0.72302025393E+02  0.47000000000E+01 0.  1.
<mgrwt>
<rscale>  2 0.26948270E+03</rscale>
<asrwt>0</asrwt>
<pdfrwt beam="1">  1       21 0.49869051E-01 0.27300476E+03</pdfrwt>
<pdfrwt beam="2">  1       21 0.67111930E-01 0.27300476E+03</pdfrwt>
<totfact> 0.74052848E+03</totfact>
</mgrwt>
</event>
<event>
12    1  0.1441827E-001  0.1955257E+03  0.7546771E-02  0.1153647E+00
         21   -1    0    0  504  503  0.00000000000E+00  0.00000000000E+00  0.48385324598E+03  0.48385324598E+03  0.00000000000E+00 0. -1.
         21   -1    0    0  502  504 -0.00000000000E+00 -0.00000000000E+00 -0.79126135042E+02  0.79126135042E+02  0.00000000000E+00 0.  1.
          6    2    1    2  502    0 -0.82651181751E+02 -0.41586421772E+02  0.18651934487E+03  0.27022169310E+03  0.17224879996E+03 0.  0.
         24    2    3    3    0    0 -0.76867402375E+02 -0.74360234980E+02  0.72887510467E+02  0.15172334406E+03  0.79179175641E+02 0.  0.
         -6    2    1    2    0  503  0.82651181751E+02  0.41586421772E+02  0.21820776606E+03  0.29275768792E+03  0.17184814909E+03 0.  0.
        -24    2    5    5    0    0 -0.77361890683E+01  0.47571628982E+02  0.62636460180E+02  0.11267376103E+03  0.80306548773E+02 0.  0.
          4    1    4    4  501    0 -0.83469764287E+02 -0.50406749978E+02  0.79725152228E+02  0.12595293522E+03  0.00000000000E+00 0. -1.
         -3    1    4    4    0  501  0.66023619121E+01 -0.23953485002E+02 -0.68376417610E+01  0.25770408833E+02  0.00000000000E+00 0.  1.
          5    1    3    3  502    0 -0.57837793755E+01  0.32773813207E+02  0.11363183440E+03  0.11849834904E+03  0.47000000000E+01 0. -1.
         13    1    6    6    0    0  0.35265867921E+02  0.22744846967E+02  0.40459196427E+02  0.58291989838E+02  0.00000000000E+00 0. -1.
        -14    1    6    6    0    0 -0.43002056990E+02  0.24826782015E+02  0.22177263754E+02  0.54381771194E+02  0.00000000000E+00 0.  1.
         -5    1    5    5    0  503  0.90387370819E+02 -0.59852072098E+01  0.15557130588E+03  0.18008392689E+03  0.47000000000E+01 0.  1.
<mgrwt>
<rscale>  2 0.19543742E+03</rscale>
<asrwt>0</asrwt>
<pdfrwt beam="1">  1       21 0.74438959E-01 0.19552570E+03</pdfrwt>
<pdfrwt beam="2">  1       21 0.12173252E-01 0.19552570E+03</pdfrwt>
<totfact> 0.92363434E+04</totfact>
</mgrwt>
</event>
<event>
12    1  0.1441827E-001  0.1948969E+03  0.7546771E-02  0.1155134E+00
         21   -1    0    0  504  503  0.00000000000E+00  0.00000000000E+00  0.24397153506E+03  0.24397153506E+03  0.00000000000E+00 0.  1.
         21   -1    0    0  502  504 -0.00000000000E+00 -0.00000000000E+00 -0.25497676331E+03  0.25497676331E+03  0.00000000000E+00 0.  1.
          6    2    1    2  502    0  0.10477800525E+02 -0.86785900272E+02 -0.16404731869E+03  0.25474757748E+03  0.17419307871E+03 0.  0.
         24    2    3    3    0    0  0.11504232232E+02 -0.98000030759E+02 -0.44696868858E+02  0.13477495493E+03  0.80188060227E+02 0.  0.
         -6    2    1    2    0  503 -0.10477800525E+02  0.86785900272E+02  0.15304209045E+03  0.24420072089E+03  0.16902820429E+03 0.  0.
        -24    2    5    5    0    0 -0.16275787020E+02 -0.18449983893E+02  0.59457507796E+02  0.10317458121E+03  0.80650454594E+02 0.  0.
          2    1    4    4  501    0 -0.21851826703E+02 -0.65896523225E+02  0.14059760680E+01  0.69439404318E+02  0.00000000000E+00 0. -1.
         -1    1    4    4    0  501  0.33356058935E+02 -0.32103507534E+02 -0.46102844926E+02  0.65335550613E+02  0.00000000000E+00 0.  1.
          5    1    3    3  502    0 -0.10264317077E+01  0.11214130486E+02 -0.11935044984E+03  0.11997262255E+03  0.47000000000E+01 0. -1.
         11    1    6    6    0    0  0.23140738145E+02 -0.12371372422E+02 -0.56323577233E+01  0.26837810474E+02  0.00000000000E+00 0. -1.
        -12    1    6    6    0    0 -0.39416525165E+02 -0.60786114707E+01  0.65089865519E+02  0.76336770739E+02  0.00000000000E+00 0.  1.
         -5    1    5    5    0  503  0.57979864956E+01  0.10523588417E+03  0.93584582649E+02  0.14102613968E+03  0.47000000000E+01 0.  1.
<mgrwt>
<rscale>  2 0.19373605E+03</rscale>
<asrwt>0</asrwt>
<pdfrwt beam="1">  1       21 0.37534082E-01 0.19489691E+03</pdfrwt>
<pdfrwt beam="2">  1       21 0.39227194E-01 0.19489691E+03</pdfrwt>
<totfact> 0.42844390E+04</totfact>
</mgrwt>
</event>
<event>
12    1  0.1441827E-001  0.2154303E+03  0.7546771E-02  0.1137526E+00
         21   -1    0    0  504  503  0.00000000000E+00  0.00000000000E+00  0.90446976773E+03  0.90446976773E+03  0.00000000000E+00 0. -1.
         21   -1    0    0  502  504 -0.00000000000E+00 -0.00000000000E+00 -0.12811689427E+03  0.12811689427E+03  0.00000000000E+00 0.  1.
          6    2    1    2  502    0  0.39721974008E+02 -0.12075597553E+03 -0.11828166998E+02  0.21575472799E+03  0.17392629551E+03 0.  0.
         24    2    3    3    0    0  0.32706327965E+02 -0.49389686535E+02 -0.71334111098E+02  0.12245192054E+03  0.79980450191E+02 0.  0.
         -6    2    1    2    0  503 -0.39721974008E+02  0.12075597553E+03  0.78818104046E+03  0.81683193401E+03  0.17269978299E+03 0.  0.
        -24    2    5    5    0    0 -0.34840112598E+02  0.10748916274E+03  0.79010818519E+03  0.80181045675E+03  0.76559197328E+02 0.  0.
          4    1    4    4  501    0  0.38182451090E+00  0.34309962706E+01 -0.59258519043E+02  0.59358989248E+02  0.00000000000E+00 0. -1.
         -3    1    4    4    0  501  0.32324503454E+02 -0.52820682805E+02 -0.12075592055E+02  0.63092931292E+02  0.00000000000E+00 0.  1.
          5    1    3    3  502    0  0.70156460426E+01 -0.71366288996E+02  0.59505944101E+02  0.93302807449E+02  0.47000000000E+01 0. -1.
         11    1    6    6    0    0 -0.58862988112E+02  0.86236824899E+02  0.60671650960E+03  0.61563509026E+03  0.00000000000E+00 0. -1.
        -12    1    6    6    0    0  0.24022875514E+02  0.21252337842E+02  0.18339167559E+03  0.18617536649E+03  0.00000000000E+00 0.  1.
         -5    1    5    5    0  503 -0.48818614094E+01  0.13266812791E+02 -0.19271447319E+01  0.15021477266E+02  0.47000000000E+01 0.  1.
<mgrwt>
<rscale>  2 0.21518258E+03</rscale>
<asrwt>0</asrwt>
<pdfrwt beam="1">  1       21 0.13914919E+00 0.21543026E+03</pdfrwt>
<pdfrwt beam="2">  1       21 0.19710292E-01 0.21543026E+03</pdfrwt>
<totfact> 0.84777749E+03</totfact>
</mgrwt>
</event>
<event>
12    1  0.1441827E-001  0.3900210E+03  0.7546771E-02  0.1047407E+00
         21   -1    0    0  504  503  0.00000000000E+00  0.00000000000E+00  0.36403074688E+03  0.36403074688E+03  0.00000000000E+00 0.  1.
         21   -1    0    0  502  504 -0.00000000000E+00 -0.00000000000E+00 -0.43285761637E+03  0.43285761637E+03  0.00000000000E+00 0.  1.
          6    2    1    2  502    0 -0.32075154645E+03 -0.13379440942E+03  0.43147760756E+02  0.39111168705E+03  0.17413823230E+03 0.  0.
         24    2    3    3    0    0 -0.19548144835E+03 -0.11496648750E+02 -0.37996871676E-01  0.21073308687E+03  0.77866956253E+02 0.  0.
         -6    2    1    2    0  503  0.32075154645E+03  0.13379440942E+03 -0.11197463025E+03  0.40577667620E+03  0.17701382596E+03 0.  0.
        -24    2    5    5    0    0  0.24362345921E+03  0.16589018258E+03 -0.79982533320E+02  0.31619729931E+03  0.81924257130E+02 0.  0.
          4    1    4    4  501    0 -0.67361045432E+02  0.27928954202E+02 -0.18982702735E+02  0.75351708193E+02  0.00000000000E+00 0. -1.
         -3    1    4    4    0  501 -0.12812040292E+03 -0.39425602952E+02  0.18944705863E+02  0.13538137867E+03  0.00000000000E+00 0.  1.
          5    1    3    3  502    0 -0.12527009810E+03 -0.12229776067E+03  0.43185757628E+02  0.18037860019E+03  0.47000000000E+01 0. -1.
         13    1    6    6    0    0  0.42441801960E+02  0.23745800858E+02 -0.47062483759E+02  0.67676044429E+02  0.00000000000E+00 0. -1.
        -14    1    6    6    0    0  0.20118165725E+03  0.14214438172E+03 -0.32920049561E+02  0.24852125488E+03  0.00000000000E+00 0.  1.
         -5    1    5    5    0  503  0.77128087245E+02 -0.32095773157E+02 -0.31992096931E+02  0.89579376883E+02  0.47000000000E+01 0.  1.
<mgrwt>
<rscale>  2 0.38969645E+03</rscale>
<asrwt>0</asrwt>
<pdfrwt beam="1">  1       21 0.56004730E-01 0.39002102E+03</pdfrwt>
<pdfrwt beam="2">  1       21 0.66593479E-01 0.39002102E+03</pdfrwt>
<totfact> 0.55872113E+03</totfact>
</mgrwt>
</event>
<event>
12    1  0.1441827E-001  0.2364331E+03  0.7546771E-02  0.1122257E+00
         21   -1    0    0  504  503  0.00000000000E+00  0.00000000000E+00  0.23082278489E+03  0.23082278489E+03  0.00000000000E+00 0.  1.
         21   -1    0    0  502  504 -0.00000000000E+00 -0.00000000000E+00 -0.27329196384E+03  0.27329196384E+03  0.00000000000E+00 0.  1.
          6    2    1    2  502    0  0.86890323502E+02  0.13423102564E+03 -0.10682913312E+03  0.25944764259E+03  0.17416290937E+03 0.  0.
         24    2    3    3    0    0  0.25215233752E+01  0.12176546269E+03 -0.93548848618E+02  0.17300725474E+03  0.79667666790E+02 0.  0.
         -6    2    1    2    0  503 -0.86890323502E+02 -0.13423102564E+03  0.64359954173E+02  0.24466710614E+03  0.17364300320E+03 0.  0.
        -24    2    5    5    0    0 -0.98761269807E+02 -0.34556939242E+02  0.20932269366E+02  0.13519612060E+03  0.83017231116E+02 0.  0.
          4    1    4    4  501    0 -0.22352657533E+02  0.18711241592E+01 -0.20732088909E+02  0.30544425268E+02  0.00000000000E+00 0. -1.
         -3    1    4    4    0  501  0.24874180908E+02  0.11989433853E+03 -0.72816759709E+02  0.14246282948E+03  0.00000000000E+00 0.  1.
          5    1    3    3  502    0  0.84368800126E+02  0.12465562948E+02 -0.13280284500E+02  0.86440387845E+02  0.47000000000E+01 0. -1.
         11    1    6    6    0    0 -0.22310270839E+02  0.27241930089E+02  0.71397027070E+01  0.35928349456E+02  0.00000000000E+00 0. -1.
        -12    1    6    6    0    0 -0.76450998968E+02 -0.61798869331E+02  0.13792566659E+02  0.99267771149E+02  0.00000000000E+00 0.  1.
         -5    1    5    5    0  503  0.11870946305E+02 -0.99674086398E+02  0.43427684807E+02  0.10947098553E+03  0.47000000000E+01 0.  1.
<mgrwt>
<rscale>  2 0.23633737E+03</rscale>
<asrwt>0</asrwt>
<pdfrwt beam="1">  1       21 0.35511198E-01 0.23643311E+03</pdfrwt>
<pdfrwt beam="2">  1       21 0.42044917E-01 0.23643311E+03</pdfrwt>
<totfact> 0.40761600E+04</totfact>
</mgrwt>
</event>
<event>
12    1  0.1441827E-001  0.2055424E+03  0.7546771E-02  0.1145340E+00
         21   -1    0    0  504  503  0.00000000000E+00  0.00000000000E+00  0.49583866148E+02  0.49583866148E+02  0.00000000000E+00 0.  1.
         21   -1    0    0  502  504 -0.00000000000E+00 -0.00000000000E+00 -0.97270951665E+03  0.97270951665E+03  0.00000000000E+00 0.  1.
          6    2    1    2  502    0 -0.73544660492E+02 -0.80806122869E+02 -0.64545713094E+03  0.67739395489E+03  0.17409542115E+03 0.  0.
         24    2    3    3    0    0 -0.64689256996E+02 -0.12265167495E+03 -0.48621918914E+03  0.51244462780E+03  0.83440178171E+02 0.  0.
         -6    2    1    2    0  503  0.73544660492E+02  0.80806122869E+02 -0.27766851956E+03  0.34489942790E+03  0.17296636098E+03 0.  0.
        -24    2    5    5    0    0  0.10694544379E+02  0.59546824790E+02 -0.26042578919E+03  0.27618628068E+03  0.69260900531E+02 0.  0.
          4    1    4    4  501    0 -0.30521881699E+02 -0.34747486622E+02 -0.59143003756E+02  0.75079078193E+02  0.00000000000E+00 0. -1.
         -3    1    4    4    0  501 -0.34167375298E+02 -0.87904188332E+02 -0.42707618539E+03  0.43736554961E+03  0.00000000000E+00 0.  1.
          5    1    3    3  502    0 -0.88554034954E+01  0.41845552086E+02 -0.15923794179E+03  0.16494932709E+03  0.47000000000E+01 0. -1.
         11    1    6    6    0    0  0.21525013085E+02  0.40931213978E+02 -0.66105070522E+02  0.80675713908E+02  0.00000000000E+00 0. -1.
        -12    1    6    6    0    0 -0.10830468705E+02  0.18615610812E+02 -0.19432071866E+03  0.19551056677E+03  0.00000000000E+00 0.  1.
         -5    1    5    5    0  503  0.62850116112E+02  0.21259298079E+02 -0.17242730377E+02  0.68713147221E+02  0.47000000000E+01 0.  1.
<mgrwt>
<rscale>  2 0.20530308E+03</rscale>
<asrwt>0</asrwt>
<pdfrwt beam="1">  1       21 0.76282874E-02 0.20554236E+03</pdfrwt>
<pdfrwt beam="2">  1       21 0.14964761E+00 0.20554236E+03</pdfrwt>
<totfact> 0.38904117E+04</totfact>
</mgrwt>
</event>
<event>
12    1  0.1441827E-001  0.2343369E+03  0.7546771E-02  0.1123725E+00
         21   -1    0    0  504  503  0.00000000000E+00  0.00000000000E+00  0.23078408009E+03  0.23078408009E+03  0.00000000000E+00 0.  1.
         21   -1    0    0  502  504 -0.00000000000E+00 -0.00000000000E+00 -0.29763953183E+03  0.29763953183E+03  0.00000000000E+00 0.  1.
          6    2    1    2  502    0  0.15503882327E+03 -0.22899560989E+02 -0.15237703971E+03  0.27952196911E+03  0.17421923650E+03 0.  0.
         24    2    3    3    0    0  0.10742895236E+03 -0.66643453320E+02 -0.15292140592E+03  0.21469439582E+03  0.82014617791E+02 0.  0.
         -6    2    1    2    0  503 -0.15503882327E+03  0.22899560989E+02  0.85521587979E+02  0.24890164281E+03  0.17342623553E+03 0.  0.
        -24    2    5    5    0    0 -0.91229469652E+01  0.21553600836E+02  0.19549912040E+02  0.88690511510E+02  0.83282782739E+02 0.  0.
          4    1    4    4  501    0  0.33498801952E+01 -0.40936723883E+02 -0.60638210706E+02  0.73239536162E+02  0.00000000000E+00 0. -1.
         -3    1    4    4    0  501  0.10407907217E+03 -0.25706729437E+02 -0.92283195210E+02  0.14145485966E+03  0.00000000000E+00 0.  1.
          5    1    3    3  502    0  0.47609870907E+02  0.43743892331E+02  0.54436620251E+00  0.64827573289E+02  0.47000000000E+01 0. -1.
         13    1    6    6    0    0 -0.94429526250E+01  0.36809481299E+02  0.45072306716E+02  0.58954390002E+02  0.00000000000E+00 0. -1.
        -14    1    6    6    0    0  0.32000565980E+00 -0.15255880463E+02 -0.25522394676E+02  0.29736121508E+02  0.00000000000E+00 0.  1.
         -5    1    5    5    0  503 -0.14591587631E+03  0.13459601536E+01  0.65971675939E+02  0.16021113130E+03  0.47000000000E+01 0.  1.
<mgrwt>
<rscale>  2 0.23418949E+03</rscale>
<asrwt>0</asrwt>
<pdfrwt beam="1">  1       21 0.35505243E-01 0.23433687E+03</pdfrwt>
<pdfrwt beam="2">  1       21 0.45790697E-01 0.23433687E+03</pdfrwt>
<totfact> 0.34243408E+04</totfact>
</mgrwt>
</event>
<event>
12    1  0.1441827E-001  0.1778289E+03  0.7546771E-02  0.1170297E+00
         21   -1    0    0  504  503  0.00000000000E+00  0.00000000000E+00  0.45218366877E+02  0.45218366877E+02  0.00000000000E+00 0.  1.
         21   -1    0    0  502  504 -0.00000000000E+00 -0.00000000000E+00 -0.21618553790E+04  0.21618553790E+04  0.00000000000E+00 0.  1.
          6    2    1    2  502    0  0.24361713487E+02  0.61599575006E+01 -0.19692918306E+04  0.19773045892E+04  0.17604455764E+03 0.  0.
         24    2    3    3    0    0  0.75243551341E+02  0.32478224862E+02 -0.15372288547E+04  0.15414352077E+04  0.78952647883E+02 0.  0.
         -6    2    1    2    0  503 -0.24361713487E+02 -0.61599575006E+01 -0.14734518157E+03  0.22976915671E+03  0.17450451193E+03 0.  0.
        -24    2    5    5    0    0  0.21017425298E+02 -0.18235626360E+02 -0.10517475400E+02  0.85031465734E+02  0.79658412243E+02 0.  0.
          4    1    4    4  501    0  0.69177909305E+02  0.18512769389E+02 -0.62657152811E+03  0.63065060501E+03  0.00000000000E+00 0. -1.
         -3    1    4    4    0  501  0.60656420363E+01  0.13965455473E+02 -0.91065732660E+03  0.91078460266E+03  0.00000000000E+00 0.  1.
          5    1    3    3  502    0 -0.50881837854E+02 -0.26318267361E+02 -0.43206297587E+03  0.43586938151E+03  0.47000000000E+01 0. -1.
         11    1    6    6    0    0  0.50844928557E+02 -0.14148331423E+02  0.10296046807E+01  0.52786760914E+02  0.00000000000E+00 0. -1.
        -12    1    6    6    0    0 -0.29827503258E+02 -0.40872949371E+01 -0.11547080081E+02  0.32244704820E+02  0.00000000000E+00 0.  1.
         -5    1    5    5    0  503 -0.45379138785E+02  0.12075668860E+02 -0.13682770617E+03  0.14473769098E+03  0.47000000000E+01 0.  1.
<mgrwt>
<rscale>  2 0.17744657E+03</rscale>
<asrwt>0</asrwt>
<pdfrwt beam="1">  1       21 0.69566701E-02 0.17782892E+03</pdfrwt>
<pdfrwt beam="2">  1       21 0.33259322E+00 0.17782892E+03</pdfrwt>
<totfact> 0.34492862E+03</totfact>
</mgrwt>
</event>
<event>
12    1  0.1441827E-001  0.2788813E+03  0.7546771E-02  0.1096594E+00
         21   -1    0    0  504  503  0.00000000000E+00  0.00000000000E+00  0.23748441131E+03  0.23748441131E+03  0.00000000000E+00 0. -1.
         21   -1    0    0  502  504 -0.00000000000E+00 -0.00000000000E+00 -0.37658785015E+03  0.37658785015E+03  0.00000000000E+00 0. -1.
          6    2    1    2  502    0  0.15981416629E+03  0.14995719072E+03  0.43848317499E+02  0.28230742233E+03  0.17247341522E+03 0.  0.
         24    2    3    3    0    0  0.14901030999E+03  0.47739243810E+02  0.30099243983E+02  0.17849817898E+03  0.80452020029E+02 0.  0.
         -6    2    1    2    0  503 -0.15981416629E+03 -0.14995719072E+03 -0.18295175634E+03  0.33176483914E+03  0.16902318345E+03 0.  0.
        -24    2    5    5    0    0 -0.17540308995E+03 -0.12398421606E+03 -0.11419996473E+03  0.25648862242E+03  0.81280081763E+02 0.  0.
          4    1    4    4  501    0  0.11967786195E+03  0.52425067673E+02  0.52993753930E+02  0.14099473861E+03  0.00000000000E+00 0. -1.
         -3    1    4    4    0  501  0.29332448047E+02 -0.46858238630E+01 -0.22894509947E+02  0.37503440368E+02  0.00000000000E+00 0.  1.
          5    1    3    3  502    0  0.10803856298E+02  0.10221794691E+03  0.13749073516E+02  0.10380924335E+03  0.47000000000E+01 0. -1.
         13    1    6    6    0    0 -0.93074280345E+02 -0.20206790352E+02 -0.64386602471E+02  0.11496421450E+03  0.00000000000E+00 0. -1.
        -14    1    6    6    0    0 -0.82328809606E+02 -0.10377742571E+03 -0.49813362258E+02  0.14152440792E+03  0.00000000000E+00 0.  1.
         -5    1    5    5    0  503  0.15588923659E+02 -0.25972974659E+02 -0.68751791610E+02  0.75276216716E+02  0.47000000000E+01 0.  1.
<mgrwt>
<rscale>  2 0.27834970E+03</rscale>
<asrwt>0</asrwt>
<pdfrwt beam="1">  1       21 0.36536064E-01 0.27888135E+03</pdfrwt>
<pdfrwt beam="2">  1       21 0.57936592E-01 0.27888135E+03</pdfrwt>
<totfact> 0.19295505E+04</totfact>
</mgrwt>
</event>
<event>
12    1  0.1441827E-001  0.3827327E+03  0.7546771E-02  0.1050057E+00
         21   -1    0    0  504  503  0.00000000000E+00  0.00000000000E+00  0.10718468393E+03  0.10718468393E+03  0.00000000000E+00 0.  1.
         21   -1    0    0  502  504 -0.00000000000E+00 -0.00000000000E+00 -0.17841768176E+04  0.17841768176E+04  0.00000000000E+00 0.  1.
          6    2    1    2  502    0  0.32915211295E+03  0.86951902620E+02 -0.12975236844E+04  0.13523989249E+04  0.17179462626E+03 0.  0.
         24    2    3    3    0    0  0.33197903333E+03  0.73507356369E+02 -0.10970083101E+04  0.11513584995E+04  0.81152646015E+02 0.  0.
         -6    2    1    2    0  503 -0.32915211295E+03 -0.86951902620E+02 -0.37946844922E+03  0.53896257661E+03  0.17487883862E+03 0.  0.
        -24    2    5    5    0    0 -0.25382633645E+03 -0.12439959689E+03 -0.25905564204E+03  0.39200123290E+03  0.81560236240E+02 0.  0.
          4    1    4    4  501    0  0.14628812787E+03  0.12491285188E+02 -0.35795497705E+03  0.38689535298E+03  0.00000000000E+00 0. -1.
         -3    1    4    4    0  501  0.18569090546E+03  0.61016071181E+02 -0.73905333308E+03  0.76446314657E+03  0.00000000000E+00 0.  1.
          5    1    3    3  502    0 -0.28269203794E+01  0.13444546251E+02 -0.20051537429E+03  0.20104042536E+03  0.47000000000E+01 0. -1.
         11    1    6    6    0    0 -0.45587050903E+02 -0.17853703010E+02 -0.93127585405E+02  0.10521255193E+03  0.00000000000E+00 0. -1.
        -12    1    6    6    0    0 -0.20823928555E+03 -0.10654589388E+03 -0.16592805664E+03  0.28678868096E+03  0.00000000000E+00 0.  1.
         -5    1    5    5    0  503 -0.75325776503E+02  0.37447694274E+02 -0.12041280718E+03  0.14696134371E+03  0.47000000000E+01 0.  1.
<mgrwt>
<rscale>  2 0.38238242E+03</rscale>
<asrwt>0</asrwt>
<pdfrwt beam="1">  1       21 0.16489951E-01 0.38273275E+03</pdfrwt>
<pdfrwt beam="2">  1       21 0.27448875E+00 0.38273275E+03</pdfrwt>
<totfact> 0.13419530E+03</totfact>
</mgrwt>
</event>
<event>
12    1  0.1441827E-001  0.1882455E+03  0.7546771E-02  0.1160147E+00
         21   -1    0    0  504  503  0.00000000000E+00  0.00000000000E+00  0.11192921278E+03  0.11192921278E+03  0.00000000000E+00 0.  1.
         21   -1    0    0  502  504 -0.00000000000E+00 -0.00000000000E+00 -0.34011811204E+03  0.34011811204E+03  0.00000000000E+00 0. -1.
          6    2    1    2  502    0 -0.71990015573E+02  0.17710248965E+02 -0.53674218586E+02  0.19535342303E+03  0.17258569723E+03 0.  0.
         24    2    3    3    0    0 -0.80658862950E+02  0.33042438296E+02  0.19159311507E+02  0.12027321225E+03  0.80628229966E+02 0.  0.
         -6    2    1    2    0  503  0.71990015573E+02 -0.17710248965E+02 -0.17451468067E+03  0.25669390179E+03  0.17303228075E+03 0.  0.
        -24    2    5    5    0    0 -0.59371671030E+01  0.35340920005E+02 -0.30152688954E+02  0.84213331918E+02  0.69989070872E+02 0.  0.
          2    1    4    4  501    0 -0.19267411351E+02  0.51206623908E+02  0.83611015694E+01  0.55346720695E+02  0.00000000000E+00 0. -1.
         -1    1    4    4    0  501 -0.61391451598E+02 -0.18164185612E+02  0.10798209937E+02  0.64926491559E+02  0.00000000000E+00 0.  1.
          5    1    3    3  502    0  0.86688473770E+01 -0.15332189331E+02 -0.72833530093E+02  0.75080210777E+02  0.47000000000E+01 0. -1.
         11    1    6    6    0    0  0.30938583953E+02  0.96817692977E+01 -0.20209719615E+02  0.38201641335E+02  0.00000000000E+00 0. -1.
        -12    1    6    6    0    0 -0.36875751056E+02  0.25659150708E+02 -0.99429693389E+01  0.46011690583E+02  0.00000000000E+00 0.  1.
         -5    1    5    5    0  503  0.77927182676E+02 -0.53051168970E+02 -0.14436199172E+03  0.17248056987E+03  0.47000000000E+01 0.  1.
<mgrwt>
<rscale>  2 0.18814286E+03</rscale>
<asrwt>0</asrwt>
<pdfrwt beam="1">  1       21 0.17219879E-01 0.18824555E+03</pdfrwt>
<pdfrwt beam="2">  1       21 0.52325864E-01 0.18824555E+03</pdfrwt>
<totfact> 0.10573369E+05</totfact>
</mgrwt>
</event>
<event>
12    1  0.1441827E-001  0.1751134E+03  0.7546771E-02  0.1172627E+00
         21   -1    0    0  504  503  0.00000000000E+00  0.00000000000E+00  0.71121823443E+03  0.71121823443E+03  0.00000000000E+00 0.  1.
         21   -1    0    0  502  504 -0.00000000000E+00 -0.00000000000E+00 -0.52102725276E+02  0.52102725276E+02  0.00000000000E+00 0. -1.
          6    2    1    2  502    0 -0.31002060246E+02 -0.70889629525E+01  0.17099843061E+03  0.24475532859E+03  0.17220141250E+03 0.  0.
         24    2    3    3    0    0  0.26592738489E+02 -0.30251891523E+02  0.39390313540E+02  0.99165258257E+02  0.81607603588E+02 0.  0.
         -6    2    1    2    0  503  0.31002060246E+02  0.70889629525E+01  0.48811707854E+03  0.51856563111E+03  0.17216460226E+03 0.  0.
        -24    2    5    5    0    0  0.77336950087E+02  0.20911177661E+02  0.23110696671E+03  0.25700442753E+03  0.78883233378E+02 0.  0.
          2    1    4    4  501    0  0.16056556429E+02 -0.40887547266E+02 -0.12083175414E+02  0.45558837275E+02  0.00000000000E+00 0. -1.
         -1    1    4    4    0  501  0.10536182060E+02  0.10635655742E+02  0.51473488954E+02  0.53606420982E+02  0.00000000000E+00 0.  1.
          5    1    3    3  502    0 -0.57594798735E+02  0.23162928571E+02  0.13160811707E+03  0.14559007033E+03  0.47000000000E+01 0. -1.
         13    1    6    6    0    0 -0.11219071093E+02 -0.62378518465E+01  0.72515817216E+01  0.14743262506E+02  0.00000000000E+00 0. -1.
        -14    1    6    6    0    0  0.88556021180E+02  0.27149029507E+02  0.22385538499E+03  0.24226116503E+03  0.00000000000E+00 0.  1.
         -5    1    5    5    0  503 -0.46334889840E+02 -0.13822214708E+02  0.25701011183E+03  0.26156120358E+03  0.47000000000E+01 0.  1.
<mgrwt>
<rscale>  2 0.17510436E+03</rscale>
<asrwt>0</asrwt>
<pdfrwt beam="1">  1       21 0.10941818E+00 0.17511341E+03</pdfrwt>
<pdfrwt beam="2">  1       21 0.80158044E-02 0.17511341E+03</pdfrwt>
<totfact> 0.79745804E+04</totfact>
</mgrwt>
</event>
<event>
12    1  0.1441827E-001  0.2349552E+03  0.7546771E-02  0.1123299E+00
         21   -1    0    0  504  503  0.00000000000E+00  0.00000000000E+00  0.37789328285E+03  0.37789328285E+03  0.00000000000E+00 0.  1.
         21   -1    0    0  502  504 -0.00000000000E+00 -0.00000000000E+00 -0.17306217023E+03  0.17306217023E+03  0.00000000000E+00 0.  1.
          6    2    1    2  502    0  0.14330838528E+03  0.68075098243E+02 -0.71752544835E+01  0.23448958994E+03  0.17251774176E+03 0.  0.
         24    2    3    3    0    0  0.15685202571E+03  0.95682227945E+02 -0.19261020315E+02  0.20111685343E+03  0.79494371590E+02 0.  0.
         -6    2    1    2    0  503 -0.14330838528E+03 -0.68075098243E+02  0.21200636711E+03  0.31646586314E+03  0.17329867439E+03 0.  0.
        -24    2    5    5    0    0 -0.12353741473E+03  0.13730163956E+02  0.15977996471E+03  0.21730599572E+03  0.79007900939E+02 0.  0.
          2    1    4    4  501    0  0.63789727874E+02  0.79376066277E+02 -0.29667757277E+02  0.10606538126E+03  0.00000000000E+00 0. -1.
         -1    1    4    4    0  501  0.93062297836E+02  0.16306161668E+02  0.10406736962E+02  0.95051472167E+02  0.00000000000E+00 0.  1.
          5    1    3    3  502    0 -0.13543640435E+02 -0.27607129702E+02  0.12085765832E+02  0.33372736513E+02  0.47000000000E+01 0. -1.
         11    1    6    6    0    0 -0.12174667012E+01  0.31855924783E+01  0.57247326459E+02  0.57348815257E+02  0.00000000000E+00 0. -1.
        -12    1    6    6    0    0 -0.12231994803E+03  0.10544571478E+02  0.10253263825E+03  0.15995718046E+03  0.00000000000E+00 0.  1.
         -5    1    5    5    0  503 -0.19770970542E+02 -0.81805262199E+02  0.52226402402E+02  0.99159867424E+02  0.47000000000E+01 0.  1.
<mgrwt>
<rscale>  2 0.23481121E+03</rscale>
<asrwt>0</asrwt>
<pdfrwt beam="1">  1       21 0.58137428E-01 0.23495519E+03</pdfrwt>
<pdfrwt beam="2">  1       21 0.26624949E-01 0.23495519E+03</pdfrwt>
<totfact> 0.36444967E+04</totfact>
</mgrwt>
</event>
<event>
12    1  0.1441827E-001  0.1999814E+03  0.7546771E-02  0.1149950E+00
         21   -1    0    0  504  503  0.00000000000E+00  0.00000000000E+00  0.40773680752E+03  0.40773680752E+03  0.00000000000E+00 0.  1.
         21   -1    0    0  502  504 -0.00000000000E+00 -0.00000000000E+00 -0.97657103072E+02  0.97657103072E+02  0.00000000000E+00 0.  1.
          6    2    1    2  502    0  0.94289998522E+02  0.28557215632E+02  0.15068736583E+03  0.24966262541E+03  0.17297001451E+03 0.  0.
         24    2    3    3    0    0 -0.80269266903E+01 -0.85905466290E+01  0.10388034005E+03  0.13108059858E+03  0.79074453718E+02 0.  0.
         -6    2    1    2    0  503 -0.94289998522E+02 -0.28557215632E+02  0.15939233862E+03  0.25573128519E+03  0.17403003828E+03 0.  0.
        -24    2    5    5    0    0 -0.55101617574E+02 -0.21600049917E+02  0.18383918854E+03  0.20878589322E+03  0.79321822634E+02 0.  0.
          4    1    4    4  501    0 -0.23522909184E+02 -0.36234389081E+02  0.36253364273E+02  0.56396494835E+02  0.00000000000E+00 0. -1.
         -3    1    4    4    0  501  0.15495982493E+02  0.27643842453E+02  0.67626975775E+02  0.74684103740E+02  0.00000000000E+00 0.  1.
          5    1    3    3  502    0  0.10231692521E+03  0.37147762261E+02  0.46807025779E+02  0.11858202683E+03  0.47000000000E+01 0. -1.
         13    1    6    6    0    0 -0.22940413934E+02  0.29851115749E+02  0.59102448495E+02  0.70074611102E+02  0.00000000000E+00 0. -1.
        -14    1    6    6    0    0 -0.32161203639E+02 -0.51451165666E+02  0.12473674005E+03  0.13871128211E+03  0.00000000000E+00 0.  1.
         -5    1    5    5    0  503 -0.39188380948E+02 -0.69571657150E+01 -0.24446849921E+02  0.46945391970E+02  0.47000000000E+01 0.  1.
<mgrwt>
<rscale>  2 0.19975059E+03</rscale>
<asrwt>0</asrwt>
<pdfrwt beam="1">  1       21 0.62728739E-01 0.19998143E+03</pdfrwt>
<pdfrwt beam="2">  1       21 0.15024170E-01 0.19998143E+03</pdfrwt>
<totfact> 0.91804206E+04</totfact>
</mgrwt>
</event>
<event>
12    1  0.1441827E-001  0.1806412E+03  0.7546771E-02  0.1167199E+00
         21   -1    0    0  504  503  0.00000000000E+00  0.00000000000E+00  0.93181426076E+03  0.93181426076E+03  0.00000000000E+00 0. -1.
         21   -1    0    0  502  504 -0.00000000000E+00 -0.00000000000E+00 -0.64429302886E+02  0.64429302886E+02  0.00000000000E+00 0. -1.
          6    2    1    2  502    0  0.92428070400E+01  0.47523830352E+02  0.97119720184E+02  0.20509388389E+03  0.17403251773E+03 0.  0.
         24    2    3    3    0    0 -0.48751719600E+02  0.48215304785E+02  0.10027341175E+03  0.14681971270E+03  0.82461052352E+02 0.  0.
         -6    2    1    2    0  503 -0.92428070400E+01 -0.47523830352E+02  0.77026523769E+03  0.79114967975E+03  0.17396935205E+03 0.  0.
        -24    2    5    5    0    0  0.64981023645E+01 -0.77334000163E+02  0.72634296941E+03  0.73558280019E+03  0.86516899039E+02 0.  0.
          2    1    4    4  501    0 -0.82955655209E+01  0.37984016329E+02  0.97536910873E+02  0.10500024232E+03  0.00000000000E+00 0. -1.
         -1    1    4    4    0  501 -0.40456154079E+02  0.10231288456E+02  0.27365008749E+01  0.41819470386E+02  0.00000000000E+00 0.  1.
          5    1    3    3  502    0  0.57994526640E+02 -0.69147443345E+00 -0.31536915638E+01  0.58274171187E+02  0.47000000000E+01 0. -1.
         11    1    6    6    0    0  0.40525632917E+02 -0.21753862732E+02  0.20000236809E+03  0.20522306086E+03  0.00000000000E+00 0. -1.
        -12    1    6    6    0    0 -0.34027530552E+02 -0.55580137431E+02  0.52634060132E+03  0.53035973933E+03  0.00000000000E+00 0.  1.
         -5    1    5    5    0  503 -0.15740909404E+02  0.29810169811E+02  0.43922268281E+02  0.55566879560E+02  0.47000000000E+01 0.  1.
<mgrwt>
<rscale>  2 0.18062603E+03</rscale>
<asrwt>0</asrwt>
<pdfrwt beam="1">  1       21 0.14335603E+00 0.18064125E+03</pdfrwt>
<pdfrwt beam="2">  1       21 0.99122011E-02 0.18064125E+03</pdfrwt>
<totfact> 0.27943836E+04</totfact>
</mgrwt>
</event>
<event>
12    1  0.1441827E-001  0.2187252E+03  0.7546771E-02  0.1134857E+00
         21   -1    0    0  504  503  0.00000000000E+00  0.00000000000E+00  0.98044196775E+02  0.98044196775E+02  0.00000000000E+00 0. -1.
         21   -1    0    0  502  504 -0.00000000000E+00 -0.00000000000E+00 -0.49416657335E+03  0.49416657335E+03  0.00000000000E+00 0.  1.
          6    2    1    2  502    0  0.87702394523E+02  0.10105709002E+03 -0.23194799487E+03  0.31881119878E+03  0.17302156713E+03 0.  0.
         24    2    3    3    0    0  0.81642672420E+01  0.21047094467E+02 -0.16973469225E+03  0.18989068799E+03  0.82091243048E+02 0.  0.
         -6    2    1    2    0  503 -0.87702394523E+02 -0.10105709002E+03 -0.16417438171E+03  0.27339957135E+03  0.17288682008E+03 0.  0.
        -24    2    5    5    0    0  0.57340804239E+01 -0.32558517187E+02 -0.19082501778E+02  0.87668117492E+02  0.78921608135E+02 0.  0.
          4    1    4    4  501    0  0.34328672750E+02  0.26769039533E+01 -0.27384311696E+02  0.43994591879E+02  0.00000000000E+00 0. -1.
         -3    1    4    4    0  501 -0.26164405508E+02  0.18370190514E+02 -0.14235038056E+03  0.14589609611E+03  0.00000000000E+00 0.  1.
          5    1    3    3  502    0  0.79538127281E+02  0.80009995553E+02 -0.62213302616E+02  0.12892051079E+03  0.47000000000E+01 0. -1.
         13    1    6    6    0    0  0.22095844551E+02 -0.53972857489E+02 -0.16415690091E+02  0.60586884498E+02  0.00000000000E+00 0. -1.
        -14    1    6    6    0    0 -0.16361764127E+02  0.21414340302E+02 -0.26668116876E+01  0.27081232994E+02  0.00000000000E+00 0.  1.
         -5    1    5    5    0  503 -0.93436474947E+02 -0.68498572833E+02 -0.14509187993E+03  0.18573145386E+03  0.47000000000E+01 0.  1.
<mgrwt>
<rscale>  2 0.21869854E+03</rscale>
<asrwt>0</asrwt>
<pdfrwt beam="1">  1       21 0.15083723E-01 0.21872519E+03</pdfrwt>
<pdfrwt beam="2">  1       21 0.76025626E-01 0.21872519E+03</pdfrwt>
<totfact> 0.59172017E+04</totfact>
</mgrwt>
</event>
<event>
12    1  0.1441827E-001  0.2349795E+03  0.7546771E-02  0.1123234E+00
         21   -1    0    0  504  503  0.00000000000E+00  0.00000000000E+00  0.11292579979E+03  0.11292579979E+03  0.00000000000E+00 0.  1.
         21   -1    0    0  502  504 -0.00000000000E+00 -0.00000000000E+00 -0.65424473549E+03  0.65424473549E+03  0.00000000000E+00 0.  1.
          6    2    1    2  502    0  0.26074867981E+02  0.15774215035E+03 -0.46369702093E+03  0.51970230229E+03  0.17179368746E+03 0.  0.
         24    2    3    3    0    0  0.19831626207E+02  0.15114129660E+03 -0.47434129835E+03  0.50493951191E+03  0.82019866025E+02 0.  0.
         -6    2    1    2    0  503 -0.26074867981E+02 -0.15774215035E+03 -0.77621914773E+02  0.24746823299E+03  0.17220011599E+03 0.  0.
        -24    2    5    5    0    0 -0.77773086272E+02 -0.66130566647E+02 -0.52871247711E+02  0.13930135468E+03  0.78661259765E+02 0.  0.
          2    1    4    4  501    0  0.29522970547E+02  0.20027801917E+02 -0.16511827388E+03  0.16892827770E+03  0.00000000000E+00 0. -1.
         -1    1    4    4    0  501 -0.96913443407E+01  0.13111349469E+03 -0.30922302448E+03  0.33601123420E+03  0.00000000000E+00 0.  1.
          5    1    3    3  502    0  0.62432417750E+01  0.66008537500E+01  0.10644277425E+02  0.14762790387E+02  0.47000000000E+01 0. -1.
         13    1    6    6    0    0  0.11551437599E+02 -0.14157085119E+02 -0.27282536659E+02  0.32835888540E+02  0.00000000000E+00 0. -1.
        -14    1    6    6    0    0 -0.89324523871E+02 -0.51973481528E+02 -0.25588711052E+02  0.10646546614E+03  0.00000000000E+00 0.  1.
         -5    1    5    5    0  503  0.51698218290E+02 -0.91611583707E+02 -0.24750667062E+02  0.10816687831E+03  0.47000000000E+01 0.  1.
<mgrwt>
<rscale>  2 0.23490504E+03</rscale>
<asrwt>0</asrwt>
<pdfrwt beam="1">  1       21 0.17373200E-01 0.23497950E+03</pdfrwt>
<pdfrwt beam="2">  1       21 0.10065303E+00 0.23497950E+03</pdfrwt>
<totfact> 0.23656497E+04</totfact>
</mgrwt>
</event>
<event>
12    1  0.1441827E-001  0.2377916E+03  0.7546771E-02  0.1121398E+00
         21   -1    0    0  504  503  0.00000000000E+00  0.00000000000E+00  0.20899925475E+03  0.20899925475E+03  0.00000000000E+00 0.  1.
         21   -1    0    0  502  504 -0.00000000000E+00 -0.00000000000E+00 -0.26976268197E+03  0.26976268197E+03  0.00000000000E+00 0. -1.
          6    2    1    2  502    0  0.14578142226E+03  0.72108299500E+02 -0.26823095346E+02  0.23856034065E+03  0.17245210278E+03 0.  0.
         24    2    3    3    0    0  0.88370945017E+02  0.71392079839E+01  0.41560526279E+02  0.12803724145E+03  0.82497670514E+02 0.  0.
         -6    2    1    2    0  503 -0.14578142226E+03 -0.72108299500E+02 -0.33940331873E+02  0.24020159607E+03  0.17347342935E+03 0.  0.
        -24    2    5    5    0    0 -0.16080215259E+03 -0.58173412476E+02 -0.66916846743E+02  0.20109476867E+03  0.81974163073E+02 0.  0.
          4    1    4    4  501    0  0.71301081191E+02  0.41437995907E+02  0.23974169337E+02  0.85881968301E+02  0.00000000000E+00 0. -1.
         -3    1    4    4    0  501  0.17069863826E+02 -0.34298787923E+02  0.17586356942E+02  0.42155273152E+02  0.00000000000E+00 0.  1.
          5    1    3    3  502    0  0.57410477246E+02  0.64969091516E+02 -0.68383621625E+02  0.11052309920E+03  0.47000000000E+01 0. -1.
         13    1    6    6    0    0 -0.14340263740E+03 -0.16517423243E+02 -0.47658119571E+02  0.15201459813E+03  0.00000000000E+00 0. -1.
        -14    1    6    6    0    0 -0.17399515191E+02 -0.41655989233E+02 -0.19258727173E+02  0.49080170540E+02  0.00000000000E+00 0.  1.
         -5    1    5    5    0  503  0.15020730328E+02 -0.13934887024E+02  0.32976514870E+02  0.39106827396E+02  0.47000000000E+01 0.  1.
<mgrwt>
<rscale>  2 0.23760540E+03</rscale>
<asrwt>0</asrwt>
<pdfrwt beam="1">  1       21 0.32153732E-01 0.23779163E+03</pdfrwt>
<pdfrwt beam="2">  1       21 0.41501951E-01 0.23779163E+03</pdfrwt>
<totfact> 0.50958480E+04</totfact>
</mgrwt>
</event>
<event>
12    1  0.1441827E-001  0.1927333E+03  0.7546771E-02  0.1156282E+00
         21   -1    0    0  504  503  0.00000000000E+00  0.00000000000E+00  0.31725755452E+03  0.31725755452E+03  0.00000000000E+00 0. -1.
         21   -1    0    0  502  504 -0.00000000000E+00 -0.00000000000E+00 -0.12930553900E+03  0.12930553900E+03  0.00000000000E+00 0. -1.
          6    2    1    2  502    0 -0.26100824946E+02 -0.80056699034E+02  0.23608493066E+02  0.19417387930E+03  0.17336610492E+03 0.  0.
         24    2    3    3    0    0  0.47098234764E+02 -0.43273814618E+02  0.39379000079E+02  0.11061622364E+03  0.81205766636E+02 0.  0.
         -6    2    1    2    0  503  0.26100824946E+02  0.80056699034E+02  0.16434352245E+03  0.25238921423E+03  0.17204997519E+03 0.  0.
        -24    2    5    5    0    0 -0.30713969353E+02  0.35194665600E+02  0.15387176827E+03  0.17909343992E+03  0.78841148856E+02 0.  0.
          4    1    4    4  501    0 -0.14095239151E+02 -0.16023495636E+02  0.38038601389E+02  0.43616090778E+02  0.00000000000E+00 0. -1.
         -3    1    4    4    0  501  0.61193473916E+02 -0.27250318982E+02  0.13403986904E+01  0.67000132859E+02  0.00000000000E+00 0.  1.
          5    1    3    3  502    0 -0.73199059711E+02 -0.36782884416E+02 -0.15770507013E+02  0.83557655663E+02  0.47000000000E+01 0. -1.
         11    1    6    6    0    0 -0.40600675368E+02  0.55514114432E+02  0.10969807198E+03  0.12947547543E+03  0.00000000000E+00 0. -1.
        -12    1    6    6    0    0  0.98867060146E+01 -0.20319448832E+02  0.44173696290E+02  0.49617964494E+02  0.00000000000E+00 0.  1.
         -5    1    5    5    0  503  0.56814794300E+02  0.44862033434E+02  0.10471754187E+02  0.73295774304E+02  0.47000000000E+01 0.  1.
<mgrwt>
<rscale>  2 0.19243689E+03</rscale>
<asrwt>0</asrwt>
<pdfrwt beam="1">  1       21 0.48808854E-01 0.19273332E+03</pdfrwt>
<pdfrwt beam="2">  1       21 0.19893160E-01 0.19273332E+03</pdfrwt>
<totfact> 0.93415958E+04</totfact>
</mgrwt>
</event>
<event>
12    1  0.1441827E-001  0.1797138E+03  0.7546771E-02  0.1168170E+00
         21   -1    0    0  504  503  0.00000000000E+00  0.00000000000E+00  0.73447459066E+02  0.73447459066E+02  0.00000000000E+00 0.  1.
         21   -1    0    0  502  504 -0.00000000000E+00 -0.00000000000E+00 -0.10205514655E+04  0.10205514655E+04  0.00000000000E+00 0.  1.
          6    2    1    2  502    0  0.35916809096E+02 -0.30731784095E+02 -0.60782764830E+02  0.18971450499E+03  0.17338566600E+03 0.  0.
         24    2    3    3    0    0  0.68086813537E+02 -0.50645881896E+02 -0.77715476432E+02  0.14799775537E+03  0.93074275646E+02 0.  0.
         -6    2    1    2    0  503 -0.35916809096E+02  0.30731784095E+02 -0.88632124164E+03  0.90428441960E+03  0.17300435957E+03 0.  0.
        -24    2    5    5    0    0 -0.44111526138E+02 -0.35069416929E+02 -0.69176214186E+03  0.69868217071E+03  0.80288380336E+02 0.  0.
          4    1    4    4  501    0  0.58810093075E+02 -0.57772803068E+02 -0.95844591490E+02  0.12642195039E+03  0.00000000000E+00 0. -1.
         -3    1    4    4    0  501  0.92767204618E+01  0.71269211716E+01  0.18129115058E+02  0.21575804984E+02  0.00000000000E+00 0.  1.
          5    1    3    3  502    0 -0.32170004441E+02  0.19914097801E+02  0.16932711602E+02  0.41716749623E+02  0.47000000000E+01 0. -1.
         13    1    6    6    0    0  0.17242315368E+02 -0.19576085266E+02 -0.93125907744E+02  0.96710678039E+02  0.00000000000E+00 0. -1.
        -14    1    6    6    0    0 -0.61353841506E+02 -0.15493331663E+02 -0.59863623411E+03  0.60197149267E+03  0.00000000000E+00 0.  1.
         -5    1    5    5    0  503  0.81947170412E+01  0.65801201025E+02 -0.19455909978E+03  0.20560224890E+03  0.47000000000E+01 0.  1.
<mgrwt>
<rscale>  2 0.17962176E+03</rscale>
<asrwt>0</asrwt>
<pdfrwt beam="1">  1       21 0.11299609E-01 0.17971380E+03</pdfrwt>
<pdfrwt beam="2">  1       21 0.15700791E+00 0.17971380E+03</pdfrwt>
<totfact> 0.17459228E+04</totfact>
</mgrwt>
</event>
<event>
12    1  0.1441827E-001  0.2057375E+03  0.7546771E-02  0.1145588E+00
         21   -1    0    0  504  503  0.00000000000E+00  0.00000000000E+00  0.18627054240E+03  0.18627054240E+03  0.00000000000E+00 0.  1.
         21   -1    0    0  502  504 -0.00000000000E+00 -0.00000000000E+00 -0.24892834292E+03  0.24892834292E+03  0.00000000000E+00 0. -1.
          6    2    1    2  502    0 -0.79074505797E+02 -0.89356424585E+02 -0.10037497065E+03  0.22891709874E+03  0.16760237255E+03 0.  0.
         24    2    3    3    0    0  0.20886427301E+02 -0.38408606044E+02 -0.27641943308E+02  0.95126024208E+02  0.79833699576E+02 0.  0.
         -6    2    1    2    0  503  0.79074505797E+02  0.89356424585E+02  0.37717170123E+02  0.20628178657E+03  0.16398854371E+03 0.  0.
        -24    2    5    5    0    0  0.76828286727E+02  0.71519754744E+02  0.83920310496E+02  0.15648206296E+03  0.80164559226E+02 0.  0.
          2    1    4    4  501    0 -0.41471977142E+01 -0.49980295741E+02  0.72257850043E+01  0.50669923822E+02  0.00000000000E+00 0. -1.
         -1    1    4    4    0  501  0.25033625015E+02  0.11571689696E+02 -0.34867728312E+02  0.44456100385E+02  0.00000000000E+00 0.  1.
          5    1    3    3  502    0 -0.99960933098E+02 -0.50947818541E+02 -0.72733027339E+02  0.13379107454E+03  0.47000000000E+01 0. -1.
         13    1    6    6    0    0  0.39868395963E+02 -0.84664153059E+01  0.11286044305E+02  0.42291180887E+02  0.00000000000E+00 0. -1.
        -14    1    6    6    0    0  0.36959890764E+02  0.79986170050E+02  0.72634266191E+02  0.11419088208E+03  0.00000000000E+00 0.  1.
         -5    1    5    5    0  503  0.22462190705E+01  0.17836669841E+02 -0.46203140373E+02  0.49799723609E+02  0.47000000000E+01 0.  1.
<mgrwt>
<rscale>  2 0.20500022E+03</rscale>
<asrwt>0</asrwt>
<pdfrwt beam="1">  1       21 0.28657007E-01 0.20573746E+03</pdfrwt>
<pdfrwt beam="2">  1       21 0.38296668E-01 0.20573746E+03</pdfrwt>
<totfact> 0.76156297E+04</totfact>
</mgrwt>
</event>
<event>
12    1  0.1441827E-001  0.2223885E+03  0.7546771E-02  0.1133313E+00
         21   -1    0    0  504  503  0.00000000000E+00  0.00000000000E+00  0.14577622038E+04  0.14577622038E+04  0.00000000000E+00 0.  1.
         21   -1    0    0  502  504 -0.00000000000E+00 -0.00000000000E+00 -0.33085084335E+02  0.33085084335E+02  0.00000000000E+00 0.  1.
          6    2    1    2  502    0 -0.31370597896E+02  0.13393207267E+03  0.74883034929E+03  0.77935204554E+03  0.16649565869E+03 0.  0.
         24    2    3    3    0    0 -0.55959221633E+01  0.11198032003E+03  0.29379371602E+03  0.32303347155E+03  0.73925433693E+02 0.  0.
         -6    2    1    2    0  503  0.31370597896E+02 -0.13393207267E+03  0.67584677020E+03  0.71149524262E+03  0.17474183524E+03 0.  0.
        -24    2    5    5    0    0  0.52851521527E+02 -0.14478497459E+02  0.37213320308E+03  0.38439494063E+03  0.79205046124E+02 0.  0.
          4    1    4    4  501    0  0.10849893126E+02  0.69169400593E+01  0.27329319114E+01  0.13154206835E+02  0.00000000000E+00 0. -1.
         -3    1    4    4    0  501 -0.16445815289E+02  0.10506337997E+03  0.29106078411E+03  0.30987926471E+03  0.00000000000E+00 0.  1.
          5    1    3    3  502    0 -0.25774675732E+02  0.21951752639E+02  0.45503663327E+03  0.45631857399E+03  0.47000000000E+01 0. -1.
         13    1    6    6    0    0  0.45211760318E+02  0.10174073123E+02  0.91393683024E+02  0.10247155865E+03  0.00000000000E+00 0. -1.
        -14    1    6    6    0    0  0.76397612098E+01 -0.24652570582E+02  0.28073952005E+03  0.28192338198E+03  0.00000000000E+00 0.  1.
         -5    1    5    5    0  503 -0.21480923632E+02 -0.11945357521E+03  0.30371356712E+03  0.32710030199E+03  0.47000000000E+01 0.  1.
<mgrwt>
<rscale>  2 0.22076598E+03</rscale>
<asrwt>0</asrwt>
<pdfrwt beam="1">  1       21 0.22427106E+00 0.22238845E+03</pdfrwt>
<pdfrwt beam="2">  1       21 0.50900141E-02 0.22238845E+03</pdfrwt>
<totfact> 0.24171007E+04</totfact>
</mgrwt>
</event>
<event>
12    1  0.1441827E-001  0.1817150E+03  0.7546771E-02  0.1166281E+00
         21   -1    0    0  504  503  0.00000000000E+00  0.00000000000E+00  0.25768352732E+03  0.25768352732E+03  0.00000000000E+00 0.  1.
         21   -1    0    0  502  504 -0.00000000000E+00 -0.00000000000E+00 -0.29516050360E+03  0.29516050360E+03  0.00000000000E+00 0.  1.
          6    2    1    2  502    0  0.44017963938E+02 -0.32922672642E+02 -0.22689312740E+03  0.29035819706E+03  0.17264387570E+03 0.  0.
         24    2    3    3    0    0  0.12213135522E+01  0.44134294596E+02 -0.95775000070E+02  0.13229687099E+03  0.79876679135E+02 0.  0.
         -6    2    1    2    0  503 -0.44017963938E+02  0.32922672642E+02  0.18941615112E+03  0.26248583386E+03  0.17320176427E+03 0.  0.
        -24    2    5    5    0    0 -0.45241418673E+02 -0.23042472168E+02  0.39791280342E+02  0.10266316265E+03  0.79866372690E+02 0.  0.
          4    1    4    4  501    0  0.10413375428E+02  0.25300323966E+02  0.63142320861E+01  0.28078716271E+02  0.00000000000E+00 0. -1.
         -3    1    4    4    0  501 -0.91920618753E+01  0.18833970629E+02 -0.10208923216E+03  0.10421815472E+03  0.00000000000E+00 0.  1.
          5    1    3    3  502    0  0.42796650385E+02 -0.77056967238E+02 -0.13111812733E+03  0.15806132607E+03  0.47000000000E+01 0. -1.
         11    1    6    6    0    0 -0.63826678226E+02 -0.29302249503E+02  0.43629289082E+02  0.82679994830E+02  0.00000000000E+00 0. -1.
        -12    1    6    6    0    0  0.18585259553E+02  0.62597773355E+01 -0.38380087400E+01  0.19983167818E+02  0.00000000000E+00 0.  1.
         -5    1    5    5    0  503  0.12234547354E+01  0.55965144809E+02  0.14962487078E+03  0.15982267121E+03  0.47000000000E+01 0.  1.
<mgrwt>
<rscale>  2 0.18158192E+03</rscale>
<asrwt>0</asrwt>
<pdfrwt beam="1">  1       21 0.39643620E-01 0.18171498E+03</pdfrwt>
<pdfrwt beam="2">  1       21 0.45409308E-01 0.18171498E+03</pdfrwt>
<totfact> 0.28698489E+04</totfact>
</mgrwt>
</event>
<event>
12    1  0.1441827E-001  0.1782403E+03  0.7546771E-02  0.1170142E+00
         21   -1    0    0  504  503  0.00000000000E+00  0.00000000000E+00  0.53042413311E+03  0.53042413311E+03  0.00000000000E+00 0. -1.
         21   -1    0    0  502  504 -0.00000000000E+00 -0.00000000000E+00 -0.64183545261E+02  0.64183545261E+02  0.00000000000E+00 0.  1.
          6    2    1    2  502    0 -0.32520415325E+02  0.91018450890E+00  0.14748116572E+03  0.22939927938E+03  0.17267000112E+03 0.  0.
         24    2    3    3    0    0 -0.22503036834E+02 -0.22971792761E+02  0.94239180215E+01  0.88855370396E+02  0.82294451137E+02 0.  0.
         -6    2    1    2    0  503  0.32520415325E+02 -0.91018450890E+00  0.31875942213E+03  0.36520839900E+03  0.17524611165E+03 0.  0.
        -24    2    5    5    0    0  0.59436819606E+02 -0.16436995956E+02  0.31618489327E+03  0.33367598881E+03  0.86970503151E+02 0.  0.
          4    1    4    4  501    0  0.16948149811E+02 -0.28760461277E+02  0.29196005327E+02  0.44348738899E+02  0.00000000000E+00 0. -1.
         -3    1    4    4    0  501 -0.39451186644E+02  0.57886685161E+01 -0.19772087305E+02  0.44506631497E+02  0.00000000000E+00 0.  1.
          5    1    3    3  502    0 -0.10017378492E+02  0.23881977270E+02  0.13805724770E+03  0.14054390898E+03  0.47000000000E+01 0. -1.
         13    1    6    6    0    0  0.34935750100E+02  0.31606331420E+02  0.20163858397E+03  0.20706903527E+03  0.00000000000E+00 0. -1.
        -14    1    6    6    0    0  0.24501069506E+02 -0.48043327376E+02  0.11454630930E+03  0.12660695354E+03  0.00000000000E+00 0.  1.
         -5    1    5    5    0  503 -0.26916404281E+02  0.15526811447E+02  0.25745288670E+01  0.31532410184E+02  0.47000000000E+01 0.  1.
<mgrwt>
<rscale>  2 0.17760385E+03</rscale>
<asrwt>0</asrwt>
<pdfrwt beam="1">  1       21 0.81603710E-01 0.17824030E+03</pdfrwt>
<pdfrwt beam="2">  1       21 0.98743919E-02 0.17824030E+03</pdfrwt>
<totfact> 0.10971309E+05</totfact>
</mgrwt>
</event>
<event>
12    1  0.1441827E-001  0.2576038E+03  0.7546771E-02  0.1109195E+00
         21   -1    0    0  504  503  0.00000000000E+00  0.00000000000E+00  0.79935781492E+03  0.79935781492E+03  0.00000000000E+00 0.  1.
         21   -1    0    0  502  504 -0.00000000000E+00 -0.00000000000E+00 -0.92662706413E+02  0.92662706413E+02  0.00000000000E+00 0. -1.
          6    2    1    2  502    0 -0.12106588054E+03 -0.14114070789E+03  0.20271176611E+03  0.32779836822E+03  0.17827524571E+03 0.  0.
         24    2    3    3    0    0 -0.15173236484E+03 -0.13006910395E+03  0.19107823620E+03  0.29286353329E+03  0.96527065843E+02 0.  0.
         -6    2    1    2    0  503  0.12106588054E+03  0.14114070789E+03  0.50398334239E+03  0.56422215311E+03  0.17253921816E+03 0.  0.
        -24    2    5    5    0    0  0.92333565826E+02  0.17091368384E+03  0.39489062807E+03  0.44745192436E+03  0.80855684854E+02 0.  0.
          4    1    4    4  501    0 -0.16508457122E+03 -0.12418854982E+03  0.18401624769E+03  0.27665446133E+03  0.00000000000E+00 0. -1.
         -3    1    4    4    0  501  0.13352206378E+02 -0.58805541310E+01  0.70619885050E+01  0.16209071957E+02  0.00000000000E+00 0.  1.
          5    1    3    3  502    0  0.30666484301E+02 -0.11071603939E+02  0.11633529914E+02  0.34934834928E+02  0.47000000000E+01 0. -1.
         11    1    6    6    0    0  0.52726351606E+02  0.14959747024E+03  0.34817007863E+03  0.38259884332E+03  0.00000000000E+00 0. -1.
        -12    1    6    6    0    0  0.39607214219E+02  0.21316213600E+02  0.46720549444E+02  0.64853081043E+02  0.00000000000E+00 0.  1.
         -5    1    5    5    0  503  0.28732314712E+02 -0.29772975952E+02  0.10909271431E+03  0.11677022875E+03  0.47000000000E+01 0.  1.
<mgrwt>
<rscale>  2 0.25661414E+03</rscale>
<asrwt>0</asrwt>
<pdfrwt beam="1">  1       21 0.12297812E+00 0.25760379E+03</pdfrwt>
<pdfrwt beam="2">  1       21 0.14255802E-01 0.25760379E+03</pdfrwt>
<totfact> 0.20603062E+04</totfact>
</mgrwt>
</event>
<event>
12    1  0.1441827E-001  0.2509903E+03  0.7546771E-02  0.1112826E+00
         21   -1    0    0  504  503  0.00000000000E+00  0.00000000000E+00  0.17245627415E+03  0.17245627415E+03  0.00000000000E+00 0. -1.
         21   -1    0    0  502  504 -0.00000000000E+00 -0.00000000000E+00 -0.93634385592E+03  0.93634385592E+03  0.00000000000E+00 0.  1.
          6    2    1    2  502    0 -0.73773246860E+02  0.16386815823E+03 -0.81513643390E+03  0.85263107993E+03  0.17388814609E+03 0.  0.
         24    2    3    3    0    0  0.66765374237E+01  0.12660093912E+03 -0.62650438703E+03  0.64414810096E+03  0.79665896511E+02 0.  0.
         -6    2    1    2    0  503  0.73773246860E+02 -0.16386815823E+03  0.51248852135E+02  0.25616905015E+03  0.17521664355E+03 0.  0.
        -24    2    5    5    0    0  0.62068638180E+02 -0.20880880567E+02  0.32343881272E+00  0.10386065524E+03  0.80612679373E+02 0.  0.
          4    1    4    4  501    0  0.24080681311E+02  0.72171354367E+01 -0.62140910203E+02  0.67033267690E+02  0.00000000000E+00 0. -1.
         -3    1    4    4    0  501 -0.17404143887E+02  0.11938380368E+03 -0.56436347683E+03  0.57711483327E+03  0.00000000000E+00 0.  1.
          5    1    3    3  502    0 -0.80449784284E+02  0.37267219111E+02 -0.18863204687E+03  0.20848297896E+03  0.47000000000E+01 0. -1.
         11    1    6    6    0    0  0.48775892094E+02 -0.40492871547E+02  0.26361979910E+02  0.68656494816E+02  0.00000000000E+00 0. -1.
        -12    1    6    6    0    0  0.13292746086E+02  0.19611990981E+02 -0.26038541097E+02  0.35204160425E+02  0.00000000000E+00 0.  1.
         -5    1    5    5    0  503  0.11704608681E+02 -0.14298727766E+03  0.50925413322E+02  0.15230839491E+03  0.47000000000E+01 0.  1.
<mgrwt>
<rscale>  2 0.25075859E+03</rscale>
<asrwt>0</asrwt>
<pdfrwt beam="1">  1       21 0.26531734E-01 0.25099031E+03</pdfrwt>
<pdfrwt beam="2">  1       21 0.14405290E+00 0.25099031E+03</pdfrwt>
<totfact> 0.42954658E+03</totfact>
</mgrwt>
</event>
<event>
12    1  0.1441827E-001  0.2017128E+03  0.7546771E-02  0.1148541E+00
         21   -1    0    0  504  503  0.00000000000E+00  0.00000000000E+00  0.68473068933E+02  0.68473068933E+02  0.00000000000E+00 0.  1.
         21   -1    0    0  502  504 -0.00000000000E+00 -0.00000000000E+00 -0.60298119280E+03  0.60298119280E+03  0.00000000000E+00 0. -1.
          6    2    1    2  502    0  0.57404789274E+02 -0.83472553688E+02 -0.31558751364E+03  0.37454442100E+03  0.17442782888E+03 0.  0.
         24    2    3    3    0    0 -0.29695160408E+02 -0.59490413160E+02 -0.21782865196E+03  0.24135121796E+03  0.79876010086E+02 0.  0.
         -6    2    1    2    0  503 -0.57404789274E+02  0.83472553688E+02 -0.21892061023E+03  0.29690984073E+03  0.17310760495E+03 0.  0.
        -24    2    5    5    0    0 -0.64466973892E+02  0.12238300664E+01 -0.66817022291E+02  0.12378468816E+03  0.81857474143E+02 0.  0.
          4    1    4    4  501    0 -0.28110303317E+02  0.36135325893E+01 -0.13082956274E+03  0.13386418960E+03  0.00000000000E+00 0. -1.
         -3    1    4    4    0  501 -0.15848570909E+01 -0.63103945749E+02 -0.86999089224E+02  0.10748702837E+03  0.00000000000E+00 0.  1.
          5    1    3    3  502    0  0.87099949682E+02 -0.23982140528E+02 -0.97758861678E+02  0.13319320304E+03  0.47000000000E+01 0. -1.
         11    1    6    6    0    0 -0.22696420203E+02 -0.49924613884E+01 -0.76927232643E+02  0.80360757108E+02  0.00000000000E+00 0. -1.
        -12    1    6    6    0    0 -0.41770553689E+02  0.62162914548E+01  0.10110210353E+02  0.43423931055E+02  0.00000000000E+00 0.  1.
         -5    1    5    5    0  503  0.70621846183E+01  0.82248723622E+02 -0.15210358794E+03  0.17312515257E+03  0.47000000000E+01 0.  1.
<mgrwt>
<rscale>  2 0.20142703E+03</rscale>
<asrwt>0</asrwt>
<pdfrwt beam="1">  1       21 0.10534318E-01 0.20171278E+03</pdfrwt>
<pdfrwt beam="2">  1       21 0.92766337E-01 0.20171278E+03</pdfrwt>
<totfact> 0.72165103E+04</totfact>
</mgrwt>
</event>
<event>
12    1  0.1441827E-001  0.2445011E+03  0.7546771E-02  0.1116894E+00
         21   -1    0    0  504  503  0.00000000000E+00  0.00000000000E+00  0.48641247912E+03  0.48641247912E+03  0.00000000000E+00 0. -1.
         21   -1    0    0  502  504 -0.00000000000E+00 -0.00000000000E+00 -0.26939203186E+03  0.26939203186E+03  0.00000000000E+00 0.  1.
          6    2    1    2  502    0 -0.73290012123E+02  0.15608228657E+03 -0.17038643832E+03  0.29769440059E+03  0.17279268423E+03 0.  0.
         24    2    3    3    0    0 -0.78933040269E+02  0.13880269209E+03 -0.58379649588E+02  0.18412486738E+03  0.70690672113E+02 0.  0.
         -6    2    1    2    0  503  0.73290012123E+02 -0.15608228657E+03  0.38740688558E+03  0.45811011039E+03  0.17334264388E+03 0.  0.
        -24    2    5    5    0    0  0.10646229580E+03 -0.13458312181E+03  0.24116138016E+03  0.30654345064E+03  0.79769911292E+02 0.  0.
          4    1    4    4  501    0 -0.86136398091E+02  0.10724122089E+03 -0.29360305135E+02  0.14064915944E+03  0.00000000000E+00 0. -1.
         -3    1    4    4    0  501  0.72033578214E+01  0.31561471204E+02 -0.29019344452E+02  0.43475707940E+02  0.00000000000E+00 0.  1.
          5    1    3    3  502    0  0.56430281460E+01  0.17279594477E+02 -0.11200678873E+03  0.11356953321E+03  0.47000000000E+01 0. -1.
         13    1    6    6    0    0  0.54232674405E+02 -0.86659714175E+02  0.19990119591E+03  0.22452522611E+03  0.00000000000E+00 0. -1.
        -14    1    6    6    0    0  0.52229621400E+02 -0.47923407637E+02  0.41260184249E+02  0.82018224532E+02  0.00000000000E+00 0.  1.
         -5    1    5    5    0  503 -0.33172283681E+02 -0.21499164759E+02  0.14624550542E+03  0.15156665974E+03  0.47000000000E+01 0.  1.
<mgrwt>
<rscale>  2 0.24440362E+03</rscale>
<asrwt>0</asrwt>
<pdfrwt beam="1">  1       21 0.74832689E-01 0.24450108E+03</pdfrwt>
<pdfrwt beam="2">  1       21 0.41444928E-01 0.24450108E+03</pdfrwt>
<totfact> 0.86605230E+03</totfact>
</mgrwt>
</event>
<event>
12    1  0.1441827E-001  0.1928415E+03  0.7546771E-02  0.1156074E+00
         21   -1    0    0  504  503  0.00000000000E+00  0.00000000000E+00  0.10325808446E+03  0.10325808446E+03  0.00000000000E+00 0.  1.
         21   -1    0    0  502  504 -0.00000000000E+00 -0.00000000000E+00 -0.39630126276E+03  0.39630126276E+03  0.00000000000E+00 0.  1.
          6    2    1    2  502    0 -0.30305210916E+02  0.79056480386E+02 -0.22304844439E+03  0.29440794082E+03  0.17250244686E+03 0.  0.
         24    2    3    3    0    0 -0.15932498328E+02  0.72876186698E+02 -0.24378360516E+03  0.26801082376E+03  0.82671472827E+02 0.  0.
         -6    2    1    2    0  503  0.30305210916E+02 -0.79056480386E+02 -0.69994733903E+02  0.20515140640E+03  0.17326137444E+03 0.  0.
        -24    2    5    5    0    0  0.10017172955E+02  0.74758996747E+00  0.20675431808E+02  0.82581169067E+02  0.79317547613E+02 0.  0.
          4    1    4    4  501    0  0.28926383740E+02  0.18892034029E+02 -0.12829572735E+03  0.13286624207E+03  0.00000000000E+00 0. -1.
         -3    1    4    4    0  501 -0.44858882069E+02  0.53984152668E+02 -0.11548787781E+03  0.13514458169E+03  0.00000000000E+00 0.  1.
          5    1    3    3  502    0 -0.14372712588E+02  0.61802936880E+01  0.20735160765E+02  0.26397117061E+02  0.47000000000E+01 0. -1.
         11    1    6    6    0    0 -0.70943970616E+01  0.34042771543E+02  0.27742886228E+02  0.44484924416E+02  0.00000000000E+00 0. -1.
        -12    1    6    6    0    0  0.17111570017E+02 -0.33295181576E+02 -0.70674544200E+01  0.38096244652E+02  0.00000000000E+00 0.  1.
         -5    1    5    5    0  503  0.20288037961E+02 -0.79804070353E+02 -0.90670165711E+02  0.12257023733E+03  0.47000000000E+01 0.  1.
<mgrwt>
<rscale>  2 0.19267086E+03</rscale>
<asrwt>0</asrwt>
<pdfrwt beam="1">  1       21 0.15885859E-01 0.19284148E+03</pdfrwt>
<pdfrwt beam="2">  1       21 0.60969426E-01 0.19284148E+03</pdfrwt>
<totfact> 0.88440043E+04</totfact>
</mgrwt>
</event>
<event>
12    1  0.1441827E-001  0.1787526E+03  0.7546771E-02  0.1170023E+00
         21   -1    0    0  504  503  0.00000000000E+00  0.00000000000E+00  0.24396538037E+03  0.24396538037E+03  0.00000000000E+00 0.  1.
         21   -1    0    0  502  504 -0.00000000000E+00 -0.00000000000E+00 -0.16139602650E+03  0.16139602650E+03  0.00000000000E+00 0.  1.
          6    2    1    2  502    0  0.35990653962E+02 -0.28051658426E+02 -0.50526889385E+02  0.18575649283E+03  0.17283022121E+03 0.  0.
         24    2    3    3    0    0  0.56168528637E+02  0.29024034158E+02  0.63558269002E+01  0.10255484187E+03  0.80497210427E+02 0.  0.
         -6    2    1    2    0  503 -0.35990653962E+02  0.28051658426E+02  0.13309624325E+03  0.21960491405E+03  0.16861045518E+03 0.  0.
        -24    2    5    5    0    0 -0.52992283103E+02 -0.35416086868E+02  0.10061675769E+03  0.14615958017E+03  0.84713692348E+02 0.  0.
          2    1    4    4  501    0 -0.14091447500E+02  0.21304470282E+02 -0.13829134768E+02  0.29046416562E+02  0.00000000000E+00 0. -1.
         -1    1    4    4    0  501  0.70259976138E+02  0.77195638764E+01  0.20184961668E+02  0.73508425305E+02  0.00000000000E+00 0.  1.
          5    1    3    3  502    0 -0.20177874675E+02 -0.57075692584E+02 -0.56882716285E+02  0.83201650959E+02  0.47000000000E+01 0. -1.
         11    1    6    6    0    0  0.18338203047E+02 -0.29868992688E+01  0.48806621409E+02  0.52223534461E+02  0.00000000000E+00 0. -1.
        -12    1    6    6    0    0 -0.71330486150E+02 -0.32429187599E+02  0.51810136277E+02  0.93936045711E+02  0.00000000000E+00 0.  1.
         -5    1    5    5    0  503  0.17001629141E+02  0.63467745294E+02  0.32479485568E+02  0.73445333881E+02  0.47000000000E+01 0.  1.
<mgrwt>
<rscale>  2 0.17772465E+03</rscale>
<asrwt>0</asrwt>
<pdfrwt beam="1">  1       21 0.37533135E-01 0.17875264E+03</pdfrwt>
<pdfrwt beam="2">  1       21 0.24830158E-01 0.17875264E+03</pdfrwt>
<totfact> 0.10559479E+05</totfact>
</mgrwt>
</event>
<event>
12    1  0.1441827E-001  0.1825670E+03  0.7546771E-02  0.1165411E+00
         21   -1    0    0  504  503  0.00000000000E+00  0.00000000000E+00  0.18870760516E+04  0.18870760516E+04  0.00000000000E+00 0. -1.
         21   -1    0    0  502  504 -0.00000000000E+00 -0.00000000000E+00 -0.19277525895E+02  0.19277525895E+02  0.00000000000E+00 0. -1.
          6    2    1    2  502    0  0.26064260643E+02 -0.50278303897E+02  0.65492650920E+03  0.67981811470E+03  0.17325323401E+03 0.  0.
         24    2    3    3    0    0 -0.11484591000E+02 -0.59176594147E+02  0.62164199552E+03  0.62864151184E+03  0.71537505489E+02 0.  0.
         -6    2    1    2    0  503 -0.26064260643E+02  0.50278303897E+02  0.12128720165E+04  0.12265354628E+04  0.17356111186E+03 0.  0.
        -24    2    5    5    0    0  0.16321412250E+01 -0.81235349615E+01  0.10158991390E+04  0.10191752209E+04  0.81230625428E+02 0.  0.
          2    1    4    4  501    0  0.82026464875E+01 -0.37358003097E+02  0.11593276585E+03  0.12207911370E+03  0.00000000000E+00 0. -1.
         -1    1    4    4    0  501 -0.19687237488E+02 -0.21818591050E+02  0.50570922967E+03  0.50656239814E+03  0.00000000000E+00 0.  1.
          5    1    3    3  502    0  0.37548851643E+02  0.88982902503E+01  0.33284513681E+02  0.51176602858E+02  0.47000000000E+01 0. -1.
         13    1    6    6    0    0 -0.12991342115E+02  0.31971914146E+02  0.62523980121E+03  0.62619149410E+03  0.00000000000E+00 0. -1.
        -14    1    6    6    0    0  0.14623483340E+02 -0.40095449108E+02  0.39065933782E+03  0.39298372680E+03  0.00000000000E+00 0.  1.
         -5    1    5    5    0  503 -0.27696401868E+02  0.58401838858E+02  0.19697287746E+03  0.20736024188E+03  0.47000000000E+01 0.  1.
<mgrwt>
<rscale>  2 0.18249380E+03</rscale>
<asrwt>0</asrwt>
<pdfrwt beam="1">  1       21 0.29031925E+00 0.18256701E+03</pdfrwt>
<pdfrwt beam="2">  1       21 0.29657747E-02 0.18256701E+03</pdfrwt>
<totfact> 0.25272456E+04</totfact>
</mgrwt>
</event>
<event>
12    1  0.1441827E-001  0.2123740E+03  0.7546771E-02  0.1139953E+00
         21   -1    0    0  504  503  0.00000000000E+00  0.00000000000E+00  0.11808322526E+03  0.11808322526E+03  0.00000000000E+00 0.  1.
         21   -1    0    0  502  504 -0.00000000000E+00 -0.00000000000E+00 -0.41247175988E+03  0.41247175988E+03  0.00000000000E+00 0. -1.
          6    2    1    2  502    0  0.92062000772E+02 -0.78662610009E+02 -0.22163370541E+03  0.30606450815E+03  0.17288946056E+03 0.  0.
         24    2    3    3    0    0  0.42028315513E+02  0.24938596228E+02 -0.13729466111E+03  0.16333488968E+03  0.73757367970E+02 0.  0.
         -6    2    1    2    0  503 -0.92062000772E+02  0.78662610009E+02 -0.72754829207E+02  0.22449047699E+03  0.17446916888E+03 0.  0.
        -24    2    5    5    0    0 -0.13065748277E+03  0.80689570054E+02 -0.37069995190E+02  0.17167743716E+03  0.67206944333E+02 0.  0.
          2    1    4    4  501    0 -0.59537617870E+01  0.26231138705E+02 -0.97011918945E+02  0.10067190439E+03  0.00000000000E+00 0. -1.
         -1    1    4    4    0  501  0.47982077300E+02 -0.12925424775E+01 -0.40282742164E+02  0.62662985281E+02  0.00000000000E+00 0.  1.
          5    1    3    3  502    0  0.50033685259E+02 -0.10360120624E+03 -0.84339044305E+02  0.14272961847E+03  0.47000000000E+01 0. -1.
         13    1    6    6    0    0 -0.29022222633E+02  0.54499582854E+02 -0.22492072193E+02  0.65714437146E+02  0.00000000000E+00 0. -1.
        -14    1    6    6    0    0 -0.10163526014E+03  0.26189987199E+02 -0.14577922998E+02  0.10596300001E+03  0.00000000000E+00 0.  1.
         -5    1    5    5    0  503  0.38595481999E+02 -0.20269600450E+01 -0.35684834016E+02  0.52813039835E+02  0.47000000000E+01 0.  1.
<mgrwt>
<rscale>  2 0.21204928E+03</rscale>
<asrwt>0</asrwt>
<pdfrwt beam="1">  1       21 0.18166650E-01 0.21237398E+03</pdfrwt>
<pdfrwt beam="2">  1       21 0.63457193E-01 0.21237398E+03</pdfrwt>
<totfact> 0.62807624E+04</totfact>
</mgrwt>
</event>
<event>
12    1  0.1441827E-001  0.1977499E+03  0.7546771E-02  0.1152431E+00
         21   -1    0    0  504  503  0.00000000000E+00  0.00000000000E+00  0.13727392310E+03  0.13727392310E+03  0.00000000000E+00 0. -1.
         21   -1    0    0  502  504 -0.00000000000E+00 -0.00000000000E+00 -0.27972222281E+03  0.27972222281E+03  0.00000000000E+00 0. -1.
          6    2    1    2  502    0  0.77260593936E+02 -0.44527480431E+02 -0.68721344775E+02  0.20594953743E+03  0.17245490091E+03 0.  0.
         24    2    3    3    0    0  0.46195252800E+02 -0.10025914315E+02 -0.10974597994E+03  0.14381642086E+03  0.80027885486E+02 0.  0.
         -6    2    1    2    0  503 -0.77260593936E+02  0.44527480431E+02 -0.73726954938E+02  0.21104660849E+03  0.17650243959E+03 0.  0.
        -24    2    5    5    0    0  0.95772741947E-01  0.50299862709E+02 -0.19526280949E+02  0.11629888596E+03  0.10302460807E+03 0.  0.
          2    1    4    4  501    0  0.64527269170E+02 -0.18462225472E+02 -0.59589880458E+02  0.89752861174E+02  0.00000000000E+00 0. -1.
         -1    1    4    4    0  501 -0.18332016370E+02  0.84363111570E+01 -0.50156099482E+02  0.54063559681E+02  0.00000000000E+00 0.  1.
          5    1    3    3  502    0  0.31065341136E+02 -0.34501566116E+02  0.41024635165E+02  0.62133116570E+02  0.47000000000E+01 0. -1.
         11    1    6    6    0    0  0.14991869373E+02  0.70632021989E+02 -0.41133583005E+02  0.83100001976E+02  0.00000000000E+00 0. -1.
        -12    1    6    6    0    0 -0.14896096631E+02 -0.20332159280E+02  0.21607302056E+02  0.33198883987E+02  0.00000000000E+00 0.  1.
         -5    1    5    5    0  503 -0.77356366678E+02 -0.57723822779E+01 -0.54200673989E+02  0.94747722525E+02  0.47000000000E+01 0.  1.
<mgrwt>
<rscale>  2 0.19684262E+03</rscale>
<asrwt>0</asrwt>
<pdfrwt beam="1">  1       21 0.21119065E-01 0.19774986E+03</pdfrwt>
<pdfrwt beam="2">  1       21 0.43034188E-01 0.19774986E+03</pdfrwt>
<totfact> 0.10802347E+05</totfact>
</mgrwt>
</event>
<event>
12    1  0.1441827E-001  0.1901520E+03  0.7546771E-02  0.1158864E+00
         21   -1    0    0  504  503  0.00000000000E+00  0.00000000000E+00  0.40292131365E+03  0.40292131365E+03  0.00000000000E+00 0. -1.
         21   -1    0    0  502  504 -0.00000000000E+00 -0.00000000000E+00 -0.88873991044E+02  0.88873991044E+02  0.00000000000E+00 0. -1.
          6    2    1    2  502    0  0.58959956389E+02 -0.42874293589E+02  0.17115359324E+03  0.25583459300E+03  0.17562262095E+03 0.  0.
         24    2    3    3    0    0  0.37428369175E+02 -0.30589598533E+02  0.11433424728E+02  0.94133803861E+02  0.79961512434E+02 0.  0.
         -6    2    1    2    0  503 -0.58959956389E+02  0.42874293589E+02  0.14289372937E+03  0.23596071169E+03  0.17304438177E+03 0.  0.
        -24    2    5    5    0    0 -0.37518003859E+02 -0.38943701687E+02  0.97351037152E+02  0.13978291543E+03  0.84485658528E+02 0.  0.
          4    1    4    4  501    0 -0.91037537115E+01  0.12453263668E+02  0.24938577400E+02  0.29323962051E+02  0.00000000000E+00 0. -1.
         -3    1    4    4    0  501  0.46532122886E+02 -0.43042862201E+02 -0.13505152672E+02  0.64809841810E+02  0.00000000000E+00 0.  1.
          5    1    3    3  502    0  0.21531587214E+02 -0.12284695056E+02  0.15972016851E+03  0.16170078914E+03  0.47000000000E+01 0. -1.
         13    1    6    6    0    0  0.14261156191E+02 -0.98067646673E+01 -0.78180470428E+01  0.18991447252E+02  0.00000000000E+00 0. -1.
        -14    1    6    6    0    0 -0.51779160050E+02 -0.29136937019E+02  0.10516908419E+03  0.12079146818E+03  0.00000000000E+00 0.  1.
         -5    1    5    5    0  503 -0.21441952530E+02  0.81817995276E+02  0.45542692216E+02  0.96177796260E+02  0.47000000000E+01 0.  1.
<mgrwt>
<rscale>  2 0.18955454E+03</rscale>
<asrwt>0</asrwt>
<pdfrwt beam="1">  1       21 0.61987894E-01 0.19015201E+03</pdfrwt>
<pdfrwt beam="2">  1       21 0.13672922E-01 0.19015201E+03</pdfrwt>
<totfact> 0.11220693E+05</totfact>
</mgrwt>
</event>
<event>
12    1  0.1441827E-001  0.1934163E+03  0.7546771E-02  0.1160128E+00
         21   -1    0    0  504  503  0.00000000000E+00  0.00000000000E+00  0.48906499008E+03  0.48906499008E+03  0.00000000000E+00 0.  1.
         21   -1    0    0  502  504 -0.00000000000E+00 -0.00000000000E+00 -0.30031318714E+03  0.30031318714E+03  0.00000000000E+00 0.  1.
          6    2    1    2  502    0  0.93087616071E+01  0.58092832755E+01 -0.25329096542E+03  0.30687257126E+03  0.17289899077E+03 0.  0.
         24    2    3    3    0    0  0.28427806529E+02 -0.52848531830E+02 -0.10410396225E+03  0.14536365798E+03  0.81803732219E+02 0.  0.
         -6    2    1    2    0  503 -0.93087616071E+01 -0.58092832755E+01  0.44204276836E+03  0.48250560596E+03  0.19310476409E+03 0.  0.
        -24    2    5    5    0    0 -0.16032547816E+02 -0.57754220527E+02  0.12469649840E+03  0.16083149936E+03  0.82005864993E+02 0.  0.
          4    1    4    4  501    0  0.50095820624E+02 -0.25352536782E+02 -0.30586039676E+02  0.63936282253E+02  0.00000000000E+00 0. -1.
         -3    1    4    4    0  501 -0.21668014095E+02 -0.27495995048E+02 -0.73517922572E+02  0.81427375727E+02  0.00000000000E+00 0.  1.
          5    1    3    3  502    0 -0.19119044921E+02  0.58657815105E+02 -0.14918700317E+03  0.16150891328E+03  0.47000000000E+01 0. -1.
         11    1    6    6    0    0 -0.30166264213E+02 -0.71831087610E+01  0.67659452594E+01  0.31739227516E+02  0.00000000000E+00 0. -1.
        -12    1    6    6    0    0  0.14133716397E+02 -0.50571111766E+02  0.11793055314E+03  0.12909227184E+03  0.00000000000E+00 0.  1.
         -5    1    5    5    0  503  0.67237862090E+01  0.51944937251E+02  0.31734626995E+03  0.32167410660E+03  0.47000000000E+01 0.  1.
<mgrwt>
<rscale>  2 0.18816379E+03</rscale>
<asrwt>0</asrwt>
<pdfrwt beam="1">  1       21 0.75240767E-01 0.19341626E+03</pdfrwt>
<pdfrwt beam="2">  1       21 0.46202029E-01 0.19341626E+03</pdfrwt>
<totfact> 0.70819212E+03</totfact>
</mgrwt>
</event>
<event>
12    1  0.1441827E-001  0.2198581E+03  0.7546771E-02  0.1134022E+00
         21   -1    0    0  504  503  0.00000000000E+00  0.00000000000E+00  0.45141454843E+03  0.45141454843E+03  0.00000000000E+00 0.  1.
         21   -1    0    0  502  504 -0.00000000000E+00 -0.00000000000E+00 -0.11531749331E+03  0.11531749331E+03  0.00000000000E+00 0. -1.
          6    2    1    2  502    0 -0.37925777691E+02 -0.12989398915E+03  0.91859026714E+02  0.23811400586E+03  0.17305890895E+03 0.  0.
         24    2    3    3    0    0 -0.30082058333E+02 -0.10675394365E+03  0.13246068213E+03  0.19049499640E+03  0.80256941287E+02 0.  0.
         -6    2    1    2    0  503  0.37925777691E+02  0.12989398915E+03  0.24423802841E+03  0.32861803588E+03  0.17328238789E+03 0.  0.
        -24    2    5    5    0    0 -0.10414756142E+01  0.64379025640E+02  0.39494454115E+02  0.11009417336E+03  0.80094765675E+02 0.  0.
          4    1    4    4  501    0 -0.14210306820E+01 -0.85330272406E+02  0.46061678463E+02  0.96979136621E+02  0.00000000000E+00 0. -1.
         -3    1    4    4    0  501 -0.28661027651E+02 -0.21423671247E+02  0.86399003669E+02  0.93515859781E+02  0.00000000000E+00 0.  1.
          5    1    3    3  502    0 -0.78437193580E+01 -0.23140045498E+02 -0.40601655418E+02  0.47619009457E+02  0.47000000000E+01 0. -1.
         11    1    6    6    0    0  0.21102018531E+02 -0.10774254817E+02  0.14847634842E+02  0.27961259152E+02  0.00000000000E+00 0. -1.
        -12    1    6    6    0    0 -0.22143494146E+02  0.75153280457E+02  0.24646819273E+02  0.82132914210E+02  0.00000000000E+00 0.  1.
         -5    1    5    5    0  503  0.38967253305E+02  0.65514963510E+02  0.20474357430E+03  0.21852386252E+03  0.47000000000E+01 0.  1.
<mgrwt>
<rscale>  2 0.21981410E+03</rscale>
<asrwt>0</asrwt>
<pdfrwt beam="1">  1       21 0.69448391E-01 0.21985813E+03</pdfrwt>
<pdfrwt beam="2">  1       21 0.17741153E-01 0.21985813E+03</pdfrwt>
<totfact> 0.53678059E+04</totfact>
</mgrwt>
</event>
<event>
12    1  0.1441827E-001  0.1813022E+03  0.7546771E-02  0.1166867E+00
         21   -1    0    0  504  503  0.00000000000E+00  0.00000000000E+00  0.20351669819E+03  0.20351669819E+03  0.00000000000E+00 0.  1.
         21   -1    0    0  502  504 -0.00000000000E+00 -0.00000000000E+00 -0.26182445597E+03  0.26182445597E+03  0.00000000000E+00 0.  1.
          6    2    1    2  502    0 -0.28560610367E+02  0.45906075200E+02 -0.17407590216E+03  0.25134220368E+03  0.17305319249E+03 0.  0.
         24    2    3    3    0    0 -0.15901153935E+02  0.55770083546E+02 -0.26059583575E+02  0.10238421944E+03  0.80251340051E+02 0.  0.
         -6    2    1    2    0  503  0.28560610367E+02 -0.45906075200E+02  0.11576814439E+03  0.21399895049E+03  0.17166890036E+03 0.  0.
        -24    2    5    5    0    0  0.79782481760E+02 -0.90570118214E+01  0.92215618676E+02  0.14648343339E+03  0.80662271679E+02 0.  0.
          2    1    4    4  501    0 -0.34441800855E+02  0.36001496991E+02  0.16016936005E+02  0.52334383255E+02  0.00000000000E+00 0. -1.
         -1    1    4    4    0  501  0.18540646920E+02  0.19768586555E+02 -0.42076519580E+02  0.50049836189E+02  0.00000000000E+00 0.  1.
          5    1    3    3  502    0 -0.12659456432E+02 -0.98640083461E+01 -0.14801631859E+03  0.14895798423E+03  0.47000000000E+01 0. -1.
         13    1    6    6    0    0  0.86841627903E+02  0.12401576807E+02  0.56898194080E+02  0.10455941820E+03  0.00000000000E+00 0. -1.
        -14    1    6    6    0    0 -0.70591461433E+01 -0.21458588628E+02  0.35317424596E+02  0.41924015197E+02  0.00000000000E+00 0.  1.
         -5    1    5    5    0  503 -0.51221871393E+02 -0.36849063378E+02  0.23552525714E+02  0.67515517093E+02  0.47000000000E+01 0.  1.
<mgrwt>
<rscale>  2 0.18097107E+03</rscale>
<asrwt>0</asrwt>
<pdfrwt beam="1">  1       21 0.31310261E-01 0.18130219E+03</pdfrwt>
<pdfrwt beam="2">  1       21 0.40280686E-01 0.18130219E+03</pdfrwt>
<totfact> 0.58512137E+04</totfact>
</mgrwt>
</event>
<event>
12    1  0.1441827E-001  0.2368133E+03  0.7546771E-02  0.1121959E+00
         21   -1    0    0  504  503  0.00000000000E+00  0.00000000000E+00  0.20882878951E+03  0.20882878951E+03  0.00000000000E+00 0. -1.
         21   -1    0    0  502  504 -0.00000000000E+00 -0.00000000000E+00 -0.27689662474E+03  0.27689662474E+03  0.00000000000E+00 0.  1.
          6    2    1    2  502    0  0.27173180512E+01 -0.16124012073E+03  0.85608826039E+01  0.23682284557E+03  0.17322243250E+03 0.  0.
         24    2    3    3    0    0  0.96362246357E+00 -0.14133952420E+03 -0.53944239178E+02  0.17103462900E+03  0.79781412035E+02 0.  0.
         -6    2    1    2    0  503 -0.27173180512E+01  0.16124012073E+03 -0.76628717831E+02  0.24890256868E+03  0.17342078292E+03 0.  0.
        -24    2    5    5    0    0  0.63552352794E+01  0.10070816668E+03 -0.11747029356E+03  0.17516958426E+03  0.81869344248E+02 0.  0.
          4    1    4    4  501    0  0.32428642091E+02 -0.46622099293E+02 -0.41748480624E+02  0.70485265161E+02  0.00000000000E+00 0. -1.
         -3    1    4    4    0  501 -0.31465019627E+02 -0.94717424906E+02 -0.12195758553E+02  0.10054936384E+03  0.00000000000E+00 0.  1.
          5    1    3    3  502    0  0.17536955876E+01 -0.19900596529E+02  0.62505121782E+02  0.65788216569E+02  0.47000000000E+01 0. -1.
         11    1    6    6    0    0  0.90909949543E+01  0.78947598654E+02 -0.29921708580E+02  0.84915712132E+02  0.00000000000E+00 0. -1.
        -12    1    6    6    0    0 -0.27357596749E+01  0.21760568031E+02 -0.87548584976E+02  0.90253872124E+02  0.00000000000E+00 0.  1.
         -5    1    5    5    0  503 -0.90725533306E+01  0.60531954043E+02  0.40841575726E+02  0.73732984424E+02  0.47000000000E+01 0.  1.
<mgrwt>
<rscale>  2 0.23677697E+03</rscale>
<asrwt>0</asrwt>
<pdfrwt beam="1">  1       21 0.32127506E-01 0.23681328E+03</pdfrwt>
<pdfrwt beam="2">  1       21 0.42599481E-01 0.23681328E+03</pdfrwt>
<totfact> 0.48407422E+04</totfact>
</mgrwt>
</event>
<event>
12    1  0.1441827E-001  0.1981812E+03  0.7546771E-02  0.1151719E+00
         21   -1    0    0  504  503  0.00000000000E+00  0.00000000000E+00  0.14422430374E+04  0.14422430374E+04  0.00000000000E+00 0.  1.
         21   -1    0    0  502  504 -0.00000000000E+00 -0.00000000000E+00 -0.59639089589E+02  0.59639089589E+02  0.00000000000E+00 0.  1.
          6    2    1    2  502    0  0.39535475502E+02 -0.84537086275E+02  0.13376674802E+03  0.23741776212E+03  0.17252268870E+03 0.  0.
         24    2    3    3    0    0  0.74568851552E+02 -0.89723331181E+02  0.58717996971E+02  0.15429953544E+03  0.82156884605E+02 0.  0.
         -6    2    1    2    0  503 -0.39535475502E+02  0.84537086275E+02  0.12488371998E+04  0.12644643649E+04  0.17483193544E+03 0.  0.
        -24    2    5    5    0    0 -0.77228330363E+01  0.42670779558E+02  0.29497962305E+03  0.30914703614E+03  0.81721933159E+02 0.  0.
          4    1    4    4  501    0  0.36555031255E+02  0.34986669106E+01 -0.19223049634E+01  0.36772356962E+02  0.00000000000E+00 0. -1.
         -3    1    4    4    0  501  0.38013820297E+02 -0.93221998092E+02  0.60640301934E+02  0.11752717848E+03  0.00000000000E+00 0.  1.
          5    1    3    3  502    0 -0.35033376050E+02  0.51862449064E+01  0.75048751045E+02  0.83118226684E+02  0.47000000000E+01 0. -1.
         13    1    6    6    0    0 -0.34820671075E+02  0.11928379543E+02  0.58306823797E+02  0.68952527683E+02  0.00000000000E+00 0. -1.
        -14    1    6    6    0    0  0.27097838038E+02  0.30742400015E+02  0.23667279925E+03  0.24019450845E+03  0.00000000000E+00 0.  1.
         -5    1    5    5    0  503 -0.31812642466E+02  0.41866306717E+02  0.95385757674E+03  0.95531732873E+03  0.47000000000E+01 0.  1.
<mgrwt>
<rscale>  2 0.19767067E+03</rscale>
<asrwt>0</asrwt>
<pdfrwt beam="1">  1       21 0.22188352E+00 0.19818118E+03</pdfrwt>
<pdfrwt beam="2">  1       21 0.91752456E-02 0.19818118E+03</pdfrwt>
<totfact> 0.92047443E+03</totfact>
</mgrwt>
</event>
<event>
12    1  0.1441827E-001  0.2717242E+03  0.7546771E-02  0.1100597E+00
         21   -1    0    0  504  503  0.00000000000E+00  0.00000000000E+00  0.56587934217E+02  0.56587934217E+02  0.00000000000E+00 0.  1.
         21   -1    0    0  502  504 -0.00000000000E+00 -0.00000000000E+00 -0.15765704389E+04  0.15765704389E+04  0.00000000000E+00 0.  1.
          6    2    1    2  502    0 -0.13835780755E+03 -0.15340501749E+03 -0.11077067012E+04  0.11405473173E+04  0.17651647181E+03 0.  0.
         24    2    3    3    0    0 -0.15349668655E+03 -0.16733694390E+03 -0.89636612321E+03  0.92815566461E+03  0.80236059984E+02 0.  0.
         -6    2    1    2    0  503  0.13835780755E+03  0.15340501749E+03 -0.41227580347E+03  0.49261105580E+03  0.17325799222E+03 0.  0.
        -24    2    5    5    0    0  0.77625580584E+02  0.10453163137E+03 -0.37733318103E+03  0.40705354224E+03  0.79747501716E+02 0.  0.
          2    1    4    4  501    0 -0.12733231945E+03 -0.97171126070E+02 -0.69756098014E+03  0.71571437623E+03  0.00000000000E+00 0. -1.
         -1    1    4    4    0  501 -0.26164367100E+02 -0.70165817834E+02 -0.19880514307E+03  0.21244128838E+03  0.00000000000E+00 0.  1.
          5    1    3    3  502    0  0.15138879000E+02  0.13931926414E+02 -0.21134057796E+03  0.21239165267E+03  0.47000000000E+01 0.  1.
         13    1    6    6    0    0  0.32803842599E+02  0.28391124924E+02 -0.23904532993E+03  0.24295023734E+03  0.00000000000E+00 0. -1.
        -14    1    6    6    0    0  0.44821737985E+02  0.76140506444E+02 -0.13828785110E+03  0.16410330490E+03  0.00000000000E+00 0.  1.
         -5    1    5    5    0  503  0.60732226967E+02  0.48873386122E+02 -0.34942622445E+02  0.85557513561E+02  0.47000000000E+01 0.  1.
<mgrwt>
<rscale>  2 0.27119633E+03</rscale>
<asrwt>0</asrwt>
<pdfrwt beam="1">  1       21 0.87058373E-02 0.27172421E+03</pdfrwt>
<pdfrwt beam="2">  1       21 0.24254926E+00 0.27172421E+03</pdfrwt>
<totfact> 0.71335886E+03</totfact>
</mgrwt>
</event>
<event>
12    1  0.1441827E-001  0.1988152E+03  0.7546771E-02  0.1154543E+00
         21   -1    0    0  504  503  0.00000000000E+00  0.00000000000E+00  0.87705634195E+03  0.87705634195E+03  0.00000000000E+00 0. -1.
         21   -1    0    0  502  504 -0.00000000000E+00 -0.00000000000E+00 -0.87483265525E+02  0.87483265525E+02  0.00000000000E+00 0. -1.
          6    2    1    2  502    0 -0.39989218833E+02 -0.36967553410E+02  0.52844753291E+02  0.20571839008E+03  0.19121127173E+03 0.  0.
         24    2    3    3    0    0 -0.53736258873E+02  0.52183035208E+01  0.10146593690E+03  0.13972795797E+03  0.79459106956E+02 0.  0.
         -6    2    1    2    0  503  0.39989218833E+02  0.36967553410E+02  0.73672832313E+03  0.75882121740E+03  0.17342225992E+03 0.  0.
        -24    2    5    5    0    0  0.44937552653E+02  0.56536650390E+02  0.72868222249E+03  0.73658913922E+03  0.79812293404E+02 0.  0.
          4    1    4    4  501    0 -0.37242672412E+02  0.33607654971E+02  0.24038457006E+02  0.55626778949E+02  0.00000000000E+00 0. -1.
         -3    1    4    4    0  501 -0.16493586461E+02 -0.28389351450E+02  0.77427479890E+02  0.84101179019E+02  0.00000000000E+00 0.  1.
          5    1    3    3  502    0  0.13747040040E+02 -0.42185856931E+02 -0.48621183605E+02  0.65990432110E+02  0.47000000000E+01 0. -1.
         13    1    6    6    0    0  0.54980995556E+02  0.55807170920E+01  0.34240225863E+03  0.34683333316E+03  0.00000000000E+00 0. -1.
        -14    1    6    6    0    0 -0.10043442903E+02  0.50955933298E+02  0.38627996386E+03  0.38975580606E+03  0.00000000000E+00 0.  1.
         -5    1    5    5    0  503 -0.49483338205E+01 -0.19569096980E+02  0.80461006456E+01  0.22232078172E+02  0.47000000000E+01 0.  1.
<mgrwt>
<rscale>  2 0.19441013E+03</rscale>
<asrwt>0</asrwt>
<pdfrwt beam="1">  1       21 0.13493174E+00 0.19881521E+03</pdfrwt>
<pdfrwt beam="2">  1       21 0.13458965E-01 0.19881521E+03</pdfrwt>
<totfact> 0.18704788E+04</totfact>
</mgrwt>
</event>
<event>
12    1  0.1441827E-001  0.1808368E+03  0.7546771E-02  0.1168671E+00
         21   -1    0    0  504  503  0.00000000000E+00  0.00000000000E+00  0.11787445911E+03  0.11787445911E+03  0.00000000000E+00 0. -1.
         21   -1    0    0  502  504 -0.00000000000E+00 -0.00000000000E+00 -0.57137918182E+03  0.57137918182E+03  0.00000000000E+00 0. -1.
          6    2    1    2  502    0  0.24602131300E+01  0.50211605381E+02 -0.48027730872E+03  0.51319413912E+03  0.17370858699E+03 0.  0.
         24    2    3    3    0    0  0.40921258315E+02 -0.19145669898E+02 -0.18919011723E+03  0.21145994039E+03  0.82953600746E+02 0.  0.
         -6    2    1    2    0  503 -0.24602131300E+01 -0.50211605381E+02  0.26772586014E+02  0.17605950180E+03  0.16659207318E+03 0.  0.
        -24    2    5    5    0    0  0.41616705858E+02  0.18430028624E+02  0.23757112263E+02  0.94293789005E+02  0.79090467822E+02 0.  0.
          4    1    4    4  501    0  0.52011856212E+02  0.94793673709E+01 -0.66326178894E+02  0.84818945991E+02  0.00000000000E+00 0. -1.
         -3    1    4    4    0  501 -0.11090597897E+02 -0.28625037269E+02 -0.12286393833E+03  0.12664099440E+03  0.00000000000E+00 0.  1.
          5    1    3    3  502    0 -0.38461045185E+02  0.69357275280E+02 -0.29108719150E+03  0.30173419873E+03  0.47000000000E+01 0. -1.
         13    1    6    6    0    0 -0.21950126013E+02 -0.54025940086E+01  0.11301595346E+02  0.25272952170E+02  0.00000000000E+00 0. -1.
        -14    1    6    6    0    0  0.63566831872E+02  0.23832622633E+02  0.12455516917E+02  0.69020836835E+02  0.00000000000E+00 0.  1.
         -5    1    5    5    0  503 -0.44076918988E+02 -0.68641634006E+02  0.30154737505E+01  0.81765712792E+02  0.47000000000E+01 0.  1.
<mgrwt>
<rscale>  2 0.17910587E+03</rscale>
<asrwt>0</asrwt>
<pdfrwt beam="1">  1       21 0.18134532E-01 0.18083675E+03</pdfrwt>
<pdfrwt beam="2">  1       21 0.87904490E-01 0.18083675E+03</pdfrwt>
<totfact> 0.30919601E+04</totfact>
</mgrwt>
</event>
<event>
12    1  0.1441827E-001  0.3099161E+03  0.7546771E-02  0.1080417E+00
         21   -1    0    0  504  503  0.00000000000E+00  0.00000000000E+00  0.27452144756E+03  0.27452144756E+03  0.00000000000E+00 0.  1.
         21   -1    0    0  502  504 -0.00000000000E+00 -0.00000000000E+00 -0.35683532378E+03  0.35683532378E+03  0.00000000000E+00 0. -1.
          6    2    1    2  502    0  0.31424972156E+02  0.25486081271E+03 -0.86183375307E+02  0.32167613013E+03  0.17351194709E+03 0.  0.
         24    2    3    3    0    0  0.31170718120E+02  0.13187496392E+03  0.20093942656E+02  0.15906450090E+03  0.80840145577E+02 0.  0.
         -6    2    1    2    0  503 -0.31424972156E+02 -0.25486081271E+03  0.38694990899E+01  0.30968064121E+03  0.17304786558E+03 0.  0.
        -24    2    5    5    0    0 -0.47573250053E+02 -0.64509983320E+02  0.28317511800E+02  0.11703069842E+03  0.80433518072E+02 0.  0.
          2    1    4    4  501    0 -0.36432485911E+01  0.11413327295E+03  0.31322049621E+02  0.11840923971E+03  0.00000000000E+00 0. -1.
         -1    1    4    4    0  501  0.34813966711E+02  0.17741690969E+02 -0.11228106965E+02  0.40655261192E+02  0.00000000000E+00 0.  1.
          5    1    3    3  502    0  0.25425403573E+00  0.12298584879E+03 -0.10627731796E+03  0.16261162923E+03  0.47000000000E+01 0. -1.
         11    1    6    6    0    0 -0.25578078397E+01  0.14960193830E+02  0.20298713961E+02  0.25345365826E+02  0.00000000000E+00 0. -1.
        -12    1    6    6    0    0 -0.45015442213E+02 -0.79470177150E+02  0.80187978391E+01  0.91685332593E+02  0.00000000000E+00 0.  1.
         -5    1    5    5    0  503  0.16148277897E+02 -0.19035082939E+03 -0.24448012710E+02  0.19264994279E+03  0.47000000000E+01 0.  1.
<mgrwt>
<rscale>  2 0.30985113E+03</rscale>
<asrwt>0</asrwt>
<pdfrwt beam="1">  1       21 0.42234069E-01 0.30991605E+03</pdfrwt>
<pdfrwt beam="2">  1       21 0.54897742E-01 0.30991605E+03</pdfrwt>
<totfact> 0.15920797E+04</totfact>
</mgrwt>
</event>
<event>
12    1  0.1441827E-001  0.2076487E+03  0.7546771E-02  0.1146892E+00
         21   -1    0    0  504  503  0.00000000000E+00  0.00000000000E+00  0.25604729728E+03  0.25604729728E+03  0.00000000000E+00 0. -1.
         21   -1    0    0  502  504 -0.00000000000E+00 -0.00000000000E+00 -0.25402572659E+03  0.25402572659E+03  0.00000000000E+00 0. -1.
          6    2    1    2  502    0 -0.45116532605E+02  0.67111036544E+02 -0.15784712413E+03  0.26083268889E+03  0.19125528558E+03 0.  0.
         24    2    3    3    0    0 -0.82184421055E+02 -0.62835069999E+01 -0.52288140676E+02  0.12694625805E+03  0.81163669547E+02 0.  0.
         -6    2    1    2    0  503  0.45116532605E+02 -0.67111036544E+02  0.15986869482E+03  0.24924033497E+03  0.17327247979E+03 0.  0.
        -24    2    5    5    0    0  0.56729431699E+02 -0.48541377246E+00  0.31392591402E+02  0.10397494961E+03  0.81282416942E+02 0.  0.
          2    1    4    4  501    0  0.15026519346E+02 -0.92493459470E+01 -0.13598434808E+02  0.22276986182E+02  0.00000000000E+00 0. -1.
         -1    1    4    4    0  501 -0.97210940401E+02  0.29658389471E+01 -0.38689705868E+02  0.10466927187E+03  0.00000000000E+00 0.  1.
          5    1    3    3  502    0  0.37067888449E+02  0.73394543544E+02 -0.10555898345E+03  0.13388643084E+03  0.47000000000E+01 0. -1.
         13    1    6    6    0    0 -0.16024812886E+02 -0.16407509174E+02  0.15892656797E+02  0.27903002086E+02  0.00000000000E+00 0. -1.
        -14    1    6    6    0    0  0.72754244586E+02  0.15922095402E+02  0.15499934605E+02  0.76071947523E+02  0.00000000000E+00 0.  1.
         -5    1    5    5    0  503 -0.11612899094E+02 -0.66625622772E+02  0.12847610342E+03  0.14526538536E+03  0.47000000000E+01 0.  1.
<mgrwt>
<rscale>  2 0.20341208E+03</rscale>
<asrwt>0</asrwt>
<pdfrwt beam="1">  1       21 0.39391892E-01 0.20764869E+03</pdfrwt>
<pdfrwt beam="2">  1       21 0.39080881E-01 0.20764869E+03</pdfrwt>
<totfact> 0.38916997E+04</totfact>
</mgrwt>
</event>
<event>
12    1  0.1441827E-001  0.2210465E+03  0.7546771E-02  0.1133141E+00
         21   -1    0    0  504  503  0.00000000000E+00  0.00000000000E+00  0.42246131675E+03  0.42246131675E+03  0.00000000000E+00 0. -1.
         21   -1    0    0  502  504 -0.00000000000E+00 -0.00000000000E+00 -0.11644581567E+03  0.11644581567E+03  0.00000000000E+00 0.  1.
          6    2    1    2  502    0 -0.54058370352E+02 -0.12507718533E+03  0.12941947970E+03  0.25598009179E+03  0.17380965443E+03 0.  0.
         24    2    3    3    0    0 -0.11566382423E+02  0.71908716673E+01  0.47130461636E+02  0.94443778743E+02  0.80702274389E+02 0.  0.
         -6    2    1    2    0  503  0.54058370352E+02  0.12507718533E+03  0.17659602138E+03  0.28292704062E+03  0.17405443359E+03 0.  0.
        -24    2    5    5    0    0  0.19225679580E+02  0.10549446061E+03  0.19631551379E+03  0.23811914137E+03  0.81622524827E+02 0.  0.
          4    1    4    4  501    0 -0.10687681013E+02  0.12238390585E+02  0.69562078555E+02  0.71434497985E+02  0.00000000000E+00 0. -1.
         -3    1    4    4    0  501 -0.87870141021E+00 -0.50475189176E+01 -0.22431616919E+02  0.23009280758E+02  0.00000000000E+00 0.  1.
          5    1    3    3  502    0 -0.42491987929E+02 -0.13226805700E+03  0.82289018065E+02  0.16153631305E+03  0.47000000000E+01 0. -1.
         13    1    6    6    0    0  0.33670532651E+02  0.10506445986E+03  0.13121534079E+03  0.17143427649E+03  0.00000000000E+00 0. -1.
        -14    1    6    6    0    0 -0.14444853070E+02  0.43000074952E+00  0.65100172995E+02  0.66684864886E+02  0.00000000000E+00 0.  1.
         -5    1    5    5    0  503  0.34832690772E+02  0.19582724719E+02 -0.19719492414E+02  0.44807899246E+02  0.47000000000E+01 0.  1.
<mgrwt>
<rscale>  2 0.22099831E+03</rscale>
<asrwt>0</asrwt>
<pdfrwt beam="1">  1       21 0.64994048E-01 0.22104650E+03</pdfrwt>
<pdfrwt beam="2">  1       21 0.17914741E-01 0.22104650E+03</pdfrwt>
<totfact> 0.60949935E+04</totfact>
</mgrwt>
</event>
<event>
12    1  0.1441827E-001  0.1726962E+03  0.7546771E-02  0.1176710E+00
         21   -1    0    0  504  503  0.00000000000E+00  0.00000000000E+00  0.12136769751E+03  0.12136769751E+03  0.00000000000E+00 0.  1.
         21   -1    0    0  502  504 -0.00000000000E+00 -0.00000000000E+00 -0.10211085120E+04  0.10211085120E+04  0.00000000000E+00 0.  1.
          6    2    1    2  502    0 -0.21360080230E+01  0.20940086125E+02 -0.95242180330E+03  0.96795209638E+03  0.17140863385E+03 0.  0.
         24    2    3    3    0    0 -0.66651370809E+02  0.41848414334E+02 -0.59385107396E+03  0.60299395062E+03  0.68912345944E+02 0.  0.
         -6    2    1    2    0  503  0.21360080230E+01 -0.20940086125E+02  0.52680988820E+02  0.17452411312E+03  0.16504644722E+03 0.  0.
        -24    2    5    5    0    0  0.47422545924E+02 -0.23897642963E+02  0.57174216892E+02  0.12867766553E+03  0.10231840171E+03 0.  0.
          4    1    4    4  501    0 -0.52050071380E+02  0.10130614754E+02 -0.17934973087E+03  0.18702450440E+03  0.00000000000E+00 0. -1.
         -3    1    4    4    0  501 -0.14601299429E+02  0.31717799580E+02 -0.41450134310E+03  0.41596944622E+03  0.00000000000E+00 0.  1.
          5    1    3    3  502    0  0.64515362786E+02 -0.20908328209E+02 -0.35857072933E+03  0.36495814576E+03  0.47000000000E+01 0. -1.
         11    1    6    6    0    0  0.52859710577E+02 -0.58050378670E+02  0.50798748117E+02  0.93512075564E+02  0.00000000000E+00 0. -1.
        -12    1    6    6    0    0 -0.54371646529E+01  0.34152735706E+02  0.63754687746E+01  0.35165589968E+02  0.00000000000E+00 0.  1.
         -5    1    5    5    0  503 -0.45286537901E+02  0.29575568383E+01 -0.44932280716E+01  0.45846447584E+02  0.47000000000E+01 0.  1.
<mgrwt>
<rscale>  2 0.17109583E+03</rscale>
<asrwt>0</asrwt>
<pdfrwt beam="1">  1       21 0.18671953E-01 0.17269618E+03</pdfrwt>
<pdfrwt beam="2">  1       21 0.15709362E+00 0.17269618E+03</pdfrwt>
<totfact> 0.70536095E+03</totfact>
</mgrwt>
</event>
<event>
12    1  0.1441827E-001  0.2318300E+03  0.7546771E-02  0.1126161E+00
         21   -1    0    0  504  503  0.00000000000E+00  0.00000000000E+00  0.11314158631E+03  0.11314158631E+03  0.00000000000E+00 0.  1.
         21   -1    0    0  502  504 -0.00000000000E+00 -0.00000000000E+00 -0.58723483779E+03  0.58723483779E+03  0.00000000000E+00 0. -1.
          6    2    1    2  502    0 -0.14607832965E+03  0.72720697999E+00 -0.39446451528E+03  0.45525218219E+03  0.17410596874E+03 0.  0.
         24    2    3    3    0    0 -0.88837602581E+01  0.26393966173E+02 -0.11527952288E+03  0.14308638909E+03  0.80054879312E+02 0.  0.
         -6    2    1    2    0  503  0.14607832965E+03 -0.72720697999E+00 -0.79628736210E+02  0.24512424191E+03  0.18001597462E+03 0.  0.
        -24    2    5    5    0    0  0.73884109558E+02  0.70878201804E+02 -0.58660319324E+02  0.14119587962E+03  0.77541358139E+02 0.  0.
          2    1    4    4  501    0 -0.18287874783E+02 -0.79106301151E+01 -0.10382144707E+03  0.10571621117E+03  0.00000000000E+00 0. -1.
         -1    1    4    4    0  501  0.94041145248E+01  0.34304596288E+02 -0.11458075807E+02  0.37370177918E+02  0.00000000000E+00 0.  1.
          5    1    3    3  502    0 -0.13719456939E+03 -0.25666759193E+02 -0.27918499240E+03  0.31216579310E+03  0.47000000000E+01 0. -1.
         11    1    6    6    0    0  0.19223138748E+02  0.35198568344E+02  0.14959775684E+02  0.42804943234E+02  0.00000000000E+00 0. -1.
        -12    1    6    6    0    0  0.54660970810E+02  0.35679633460E+02 -0.73620095008E+02  0.98390936385E+02  0.00000000000E+00 0.  1.
         -5    1    5    5    0  503  0.72194220091E+02 -0.71605408784E+02 -0.20968416886E+02  0.10392836229E+03  0.47000000000E+01 0.  1.
<mgrwt>
<rscale>  2 0.23068187E+03</rscale>
<asrwt>0</asrwt>
<pdfrwt beam="1">  1       21 0.17406398E-01 0.23183002E+03</pdfrwt>
<pdfrwt beam="2">  1       21 0.90343821E-01 0.23183002E+03</pdfrwt>
<totfact> 0.30459154E+04</totfact>
</mgrwt>
</event>
<event>
12    1  0.1441827E-001  0.2927398E+03  0.7546771E-02  0.1088964E+00
         21   -1    0    0  504  503  0.00000000000E+00  0.00000000000E+00  0.20918751386E+03  0.20918751386E+03  0.00000000000E+00 0. -1.
         21   -1    0    0  502  504 -0.00000000000E+00 -0.00000000000E+00 -0.44744603068E+03  0.44744603068E+03  0.00000000000E+00 0. -1.
          6    2    1    2  502    0 -0.23411832810E+03 -0.28128628353E+02 -0.21497554405E+03  0.36296933736E+03  0.17300186138E+03 0.  0.
         24    2    3    3    0    0 -0.19452176279E+03 -0.33023558010E+02 -0.23587230738E+03  0.31768564231E+03  0.79744281050E+02 0.  0.
         -6    2    1    2    0  503  0.23411832810E+03  0.28128628353E+02 -0.23282972767E+02  0.29366420717E+03  0.17347610344E+03 0.  0.
        -24    2    5    5    0    0  0.23615690810E+03  0.16085642126E+02  0.18020533735E+02  0.25033686043E+03  0.79466791356E+02 0.  0.
          4    1    4    4  501    0 -0.20074291399E+03 -0.25164885592E+02 -0.22880119126E+03  0.30541934141E+03  0.00000000000E+00 0. -1.
         -3    1    4    4    0  501  0.62211512090E+01 -0.78586724187E+01 -0.70711161174E+01  0.12266300897E+02  0.00000000000E+00 0.  1.
          5    1    3    3  502    0 -0.39596565311E+02  0.48949296569E+01  0.20896763322E+02  0.45283695058E+02  0.47000000000E+01 0. -1.
         11    1    6    6    0    0  0.10420310005E+03 -0.14785196765E+02 -0.24962658935E+02  0.10816664201E+03  0.00000000000E+00 0. -1.
        -12    1    6    6    0    0  0.13195380805E+03  0.30870838892E+02  0.42983192670E+02  0.14217021842E+03  0.00000000000E+00 0.  1.
         -5    1    5    5    0  503 -0.20385800048E+01  0.12042986227E+02 -0.41303506502E+02  0.43327346734E+02  0.47000000000E+01 0.  1.
<mgrwt>
<rscale>  2 0.29266954E+03</rscale>
<asrwt>0</asrwt>
<pdfrwt beam="1">  1       21 0.32182695E-01 0.29273976E+03</pdfrwt>
<pdfrwt beam="2">  1       21 0.68837851E-01 0.29273976E+03</pdfrwt>
<totfact> 0.16951371E+04</totfact>
</mgrwt>
</event>
<event>
12    1  0.1441827E-001  0.1813257E+03  0.7546771E-02  0.1167778E+00
         21   -1    0    0  504  503  0.00000000000E+00  0.00000000000E+00  0.17945840745E+03  0.17945840745E+03  0.00000000000E+00 0.  1.
         21   -1    0    0  502  504 -0.00000000000E+00 -0.00000000000E+00 -0.40179445483E+03  0.40179445483E+03  0.00000000000E+00 0.  1.
          6    2    1    2  502    0 -0.53981222561E+01  0.50485709974E+02 -0.32732252442E+03  0.37172679692E+03  0.16870930598E+03 0.  0.
         24    2    3    3    0    0 -0.17120947854E+02  0.56859808373E+02 -0.33878734987E+03  0.35351729410E+03  0.81678908720E+02 0.  0.
         -6    2    1    2    0  503  0.53981222561E+01 -0.50485709974E+02  0.10498647704E+03  0.20952606536E+03  0.17407201116E+03 0.  0.
        -24    2    5    5    0    0 -0.33346733408E+02 -0.62637339236E+02  0.18833797273E+02  0.11416779270E+03  0.87430727286E+02 0.  0.
          2    1    4    4  501    0 -0.42841461021E+02  0.61261760385E+02 -0.25886376888E+03  0.26944172822E+03  0.00000000000E+00 0. -1.
         -1    1    4    4    0  501  0.25720513166E+02 -0.44019520120E+01 -0.79923580992E+02  0.84075565877E+02  0.00000000000E+00 0.  1.
          5    1    3    3  502    0  0.11722825598E+02 -0.63740983993E+01  0.11464825453E+02  0.18209502824E+02  0.47000000000E+01 0. -1.
         11    1    6    6    0    0 -0.20007815174E+01 -0.36582948328E+02 -0.32253914843E+02  0.48812193741E+02  0.00000000000E+00 0. -1.
        -12    1    6    6    0    0 -0.31345951891E+02 -0.26054390907E+02  0.51087712117E+02  0.65355598955E+02  0.00000000000E+00 0.  1.
         -5    1    5    5    0  503  0.38744855664E+02  0.12151629262E+02  0.86152679769E+02  0.95358272664E+02  0.47000000000E+01 0.  1.
<mgrwt>
<rscale>  2 0.18002636E+03</rscale>
<asrwt>0</asrwt>
<pdfrwt beam="1">  1       21 0.27608986E-01 0.18132571E+03</pdfrwt>
<pdfrwt beam="2">  1       21 0.61814531E-01 0.18132571E+03</pdfrwt>
<totfact> 0.30610891E+04</totfact>
</mgrwt>
</event>
<event>
12    1  0.1441827E-001  0.2015066E+03  0.7546771E-02  0.1148736E+00
         21   -1    0    0  504  503  0.00000000000E+00  0.00000000000E+00  0.69208326126E+03  0.69208326126E+03  0.00000000000E+00 0. -1.
         21   -1    0    0  502  504 -0.00000000000E+00 -0.00000000000E+00 -0.12422729646E+03  0.12422729646E+03  0.00000000000E+00 0. -1.
          6    2    1    2  502    0 -0.81375200654E+02 -0.58485326144E+02 -0.12977558551E+02  0.20192410766E+03  0.17482125607E+03 0.  0.
         24    2    3    3    0    0 -0.86022980221E+02 -0.14414689296E+01 -0.57096043226E+02  0.12950771317E+03  0.78168143510E+02 0.  0.
         -6    2    1    2    0  503  0.81375200654E+02  0.58485326144E+02  0.58083352335E+03  0.61438645006E+03  0.17338013587E+03 0.  0.
        -24    2    5    5    0    0  0.11731571956E+03  0.17062903838E+02  0.38449299706E+03  0.41047659195E+03  0.81252981549E+02 0.  0.
          2    1    4    4  501    0 -0.79993299572E+02  0.23865714200E+02 -0.22939706114E+02  0.86572111025E+02  0.00000000000E+00 0. -1.
         -1    1    4    4    0  501 -0.60296806485E+01 -0.25307183130E+02 -0.34156337112E+02  0.42935602146E+02  0.00000000000E+00 0.  1.
          5    1    3    3  502    0  0.46477795662E+01 -0.57043857215E+02  0.44118484675E+02  0.72416394490E+02  0.47000000000E+01 0. -1.
         13    1    6    6    0    0  0.46970358455E+02 -0.82607283310E+01  0.26690841561E+03  0.27113567919E+03  0.00000000000E+00 0. -1.
        -14    1    6    6    0    0  0.70345361102E+02  0.25323632169E+02  0.11758458144E+03  0.13934091276E+03  0.00000000000E+00 0.  1.
         -5    1    5    5    0  503 -0.35940518904E+02  0.41422422306E+02  0.19634052630E+03  0.20390985811E+03  0.47000000000E+01 0.  1.
<mgrwt>
<rscale>  2 0.20119367E+03</rscale>
<asrwt>0</asrwt>
<pdfrwt beam="1">  1       21 0.10647435E+00 0.20150665E+03</pdfrwt>
<pdfrwt beam="2">  1       21 0.19111892E-01 0.20150665E+03</pdfrwt>
<totfact> 0.17649044E+04</totfact>
</mgrwt>
</event>
<event>
12    1  0.1441827E-001  0.2111076E+03  0.7546771E-02  0.1140746E+00
         21   -1    0    0  504  503  0.00000000000E+00  0.00000000000E+00  0.81078202612E+03  0.81078202612E+03  0.00000000000E+00 0. -1.
         21   -1    0    0  502  504 -0.00000000000E+00 -0.00000000000E+00 -0.19896631316E+03  0.19896631316E+03  0.00000000000E+00 0. -1.
          6    2    1    2  502    0  0.52503533314E+02  0.10884512384E+03 -0.12365414930E+03  0.24465641347E+03  0.17309688044E+03 0.  0.
         24    2    3    3    0    0  0.68002393255E+02  0.80385234618E+02 -0.84613588829E+01  0.12489978978E+03  0.66650217250E+02 0.  0.
         -6    2    1    2    0  503 -0.52503533314E+02 -0.10884512384E+03  0.73546986226E+03  0.76509192581E+03  0.17275952839E+03 0.  0.
        -24    2    5    5    0    0 -0.88160448082E+02 -0.11395939765E+03  0.64785071177E+03  0.67024058475E+03  0.93556869277E+02 0.  0.
          2    1    4    4  501    0 -0.40239019341E+01  0.24894600952E+02  0.17079919408E+02  0.30457455414E+02  0.00000000000E+00 0. -1.
         -1    1    4    4    0  501  0.72026295189E+02  0.55490633667E+02 -0.25541278291E+02  0.94442334364E+02  0.00000000000E+00 0.  1.
          5    1    3    3  502    0 -0.15498859941E+02  0.28459889221E+02 -0.11519279041E+03  0.11975662369E+03  0.47000000000E+01 0. -1.
         11    1    6    6    0    0 -0.69457241082E+02 -0.81413116297E+02  0.26855645605E+03  0.28909336542E+03  0.00000000000E+00 0. -1.
        -12    1    6    6    0    0 -0.18703207001E+02 -0.32546281353E+02  0.37929425572E+03  0.38114721933E+03  0.00000000000E+00 0.  1.
         -5    1    5    5    0  503  0.35656914769E+02  0.51142738102E+01  0.87619150488E+02  0.94851341054E+02  0.47000000000E+01 0.  1.
<mgrwt>
<rscale>  2 0.21103842E+03</rscale>
<asrwt>0</asrwt>
<pdfrwt beam="1">  1       21 0.12473569E+00 0.21110758E+03</pdfrwt>
<pdfrwt beam="2">  1       21 0.30610202E-01 0.21110758E+03</pdfrwt>
<totfact> 0.48412679E+03</totfact>
</mgrwt>
</event>
<event>
12    1  0.1441827E-001  0.2034323E+03  0.7546771E-02  0.1147120E+00
         21   -1    0    0  504  503  0.00000000000E+00  0.00000000000E+00  0.62437787554E+03  0.62437787554E+03  0.00000000000E+00 0.  1.
         21   -1    0    0  502  504 -0.00000000000E+00 -0.00000000000E+00 -0.14065663462E+03  0.14065663462E+03  0.00000000000E+00 0.  1.
          6    2    1    2  502    0 -0.60961628966E+02  0.84189969429E+02 -0.36681515312E+02  0.20671297012E+03  0.17487266022E+03 0.  0.
         24    2    3    3    0    0 -0.82990161198E+02  0.12920683441E+01 -0.32070752807E+02  0.12068583854E+03  0.81532215371E+02 0.  0.
         -6    2    1    2    0  503  0.60961628966E+02 -0.84189969429E+02  0.52040275623E+03  0.55832154004E+03  0.17349248463E+03 0.  0.
        -24    2    5    5    0    0  0.29815187364E+02 -0.12390823987E+03  0.40974580781E+03  0.43660592040E+03  0.80566155461E+02 0.  0.
          4    1    4    4  501    0 -0.50614653213E+02 -0.11565935110E+02  0.21981396793E+02  0.56380810386E+02  0.00000000000E+00 0. -1.
         -3    1    4    4    0  501 -0.32375507986E+02  0.12858003454E+02 -0.54052149600E+02  0.64305028159E+02  0.00000000000E+00 0.  1.
          5    1    3    3  502    0  0.22028532233E+02  0.82897901085E+02 -0.46107625042E+01  0.86027131578E+02  0.47000000000E+01 0. -1.
         11    1    6    6    0    0 -0.15520857555E+02 -0.50608227778E+01  0.10677733241E+03  0.10801808952E+03  0.00000000000E+00 0. -1.
        -12    1    6    6    0    0  0.45336044919E+02 -0.11884741709E+03  0.30296847540E+03  0.32858783088E+03  0.00000000000E+00 0.  1.
         -5    1    5    5    0  503  0.31146441601E+02  0.39718270439E+02  0.11065694843E+03  0.12171561965E+03  0.47000000000E+01 0.  1.
<mgrwt>
<rscale>  2 0.20313540E+03</rscale>
<asrwt>0</asrwt>
<pdfrwt beam="1">  1       21 0.96058133E-01 0.20343234E+03</pdfrwt>
<pdfrwt beam="2">  1       21 0.21639483E-01 0.20343234E+03</pdfrwt>
<totfact> 0.17851781E+04</totfact>
</mgrwt>
</event>
<event>
12    1  0.1441827E-001  0.2122433E+03  0.7546771E-02  0.1139849E+00
         21   -1    0    0  504  503  0.00000000000E+00  0.00000000000E+00  0.11389567284E+03  0.11389567284E+03  0.00000000000E+00 0.  1.
         21   -1    0    0  502  504 -0.00000000000E+00 -0.00000000000E+00 -0.39509269607E+03  0.39509269607E+03  0.00000000000E+00 0. -1.
          6    2    1    2  502    0  0.41487042894E+02 -0.11670384612E+03 -0.14279282939E+03  0.25560539053E+03  0.17205627311E+03 0.  0.
         24    2    3    3    0    0 -0.10889108374E+02 -0.12768558451E+03 -0.13218374522E+03  0.20084680704E+03  0.80278989939E+02 0.  0.
         -6    2    1    2    0  503 -0.41487042894E+02  0.11670384612E+03 -0.13840419384E+03  0.25338297837E+03  0.17235501278E+03 0.  0.
        -24    2    5    5    0    0 -0.13351802485E+02  0.14758630120E+03 -0.10127629350E+03  0.19729475529E+03  0.81904492599E+02 0.  0.
          4    1    4    4  501    0 -0.14771040025E+02 -0.13760122015E+03 -0.13020756029E+03  0.19001654709E+03  0.00000000000E+00 0. -1.
         -3    1    4    4    0  501  0.38819316513E+01  0.99156356482E+01 -0.19761849270E+01  0.10830259947E+02  0.00000000000E+00 0.  1.
          5    1    3    3  502    0  0.52376151268E+02  0.10981738384E+02 -0.10609084176E+02  0.54758583498E+02  0.47000000000E+01 0. -1.
         11    1    6    6    0    0 -0.16929332970E+02  0.11663336470E+03 -0.11369002355E+03  0.16375397867E+03  0.00000000000E+00 0. -1.
        -12    1    6    6    0    0  0.35775304846E+01  0.30952936508E+02  0.12413730048E+02  0.33540776624E+02  0.00000000000E+00 0.  1.
         -5    1    5    5    0  503 -0.28135240409E+02 -0.30882455082E+02 -0.37127900332E+02  0.56088223076E+02  0.47000000000E+01 0.  1.
<mgrwt>
<rscale>  2 0.21218263E+03</rscale>
<asrwt>0</asrwt>
<pdfrwt beam="1">  1       21 0.17522411E-01 0.21224329E+03</pdfrwt>
<pdfrwt beam="2">  1       21 0.60783491E-01 0.21224329E+03</pdfrwt>
<totfact> 0.73713902E+04</totfact>
</mgrwt>
</event>
<event>
12    1  0.1441827E-001  0.1894238E+03  0.7546771E-02  0.1159172E+00
         21   -1    0    0  504  503  0.00000000000E+00  0.00000000000E+00  0.39769655361E+03  0.39769655361E+03  0.00000000000E+00 0.  1.
         21   -1    0    0  502  504 -0.00000000000E+00 -0.00000000000E+00 -0.96052859188E+02  0.96052859188E+02  0.00000000000E+00 0.  1.
          6    2    1    2  502    0  0.68273158786E+02  0.32923088324E+02  0.88267060173E+02  0.20897957293E+03  0.17359790908E+03 0.  0.
         24    2    3    3    0    0  0.10284571453E+03  0.26595287325E+02  0.29951762285E+02  0.14072954258E+03  0.87310628134E+02 0.  0.
         -6    2    1    2    0  503 -0.68273158786E+02 -0.32923088324E+02  0.21337663425E+03  0.28476983986E+03  0.17268213485E+03 0.  0.
        -24    2    5    5    0    0 -0.36380873599E+01 -0.36826885655E+01  0.28880664668E+02  0.87048960269E+02  0.81955053642E+02 0.  0.
          4    1    4    4  501    0  0.53736196374E+02  0.29916454789E+02  0.57609184135E+02  0.84269752371E+02  0.00000000000E+00 0. -1.
         -3    1    4    4    0  501  0.49109518154E+02 -0.33211674648E+01 -0.27657421850E+02  0.56459790206E+02  0.00000000000E+00 0.  1.
          5    1    3    3  502    0 -0.34572555743E+02  0.63278009990E+01  0.58315297887E+02  0.68250030357E+02  0.47000000000E+01 0. -1.
         11    1    6    6    0    0  0.30374730053E+02 -0.27028401629E+02  0.11260234105E+02  0.42189472532E+02  0.00000000000E+00 0. -1.
        -12    1    6    6    0    0 -0.34012817413E+02  0.23345713064E+02  0.17620430562E+02  0.44859487737E+02  0.00000000000E+00 0.  1.
         -5    1    5    5    0  503 -0.64635071426E+02 -0.29240399758E+02  0.18449596958E+03  0.19772087959E+03  0.47000000000E+01 0.  1.
<mgrwt>
<rscale>  2 0.18921376E+03</rscale>
<asrwt>0</asrwt>
<pdfrwt beam="1">  1       21 0.61184085E-01 0.18942383E+03</pdfrwt>
<pdfrwt beam="2">  1       21 0.14777363E-01 0.18942383E+03</pdfrwt>
<totfact> 0.10027882E+05</totfact>
</mgrwt>
</event>
<event>
12    1  0.1441827E-001  0.1890351E+03  0.7546771E-02  0.1159382E+00
         21   -1    0    0  504  503  0.00000000000E+00  0.00000000000E+00  0.98630303377E+02  0.98630303377E+02  0.00000000000E+00 0.  1.
         21   -1    0    0  502  504 -0.00000000000E+00 -0.00000000000E+00 -0.91214828064E+03  0.91214828064E+03  0.00000000000E+00 0.  1.
          6    2    1    2  502    0  0.41058217598E+02  0.64070134379E+02 -0.79937779636E+03  0.82142506558E+03  0.17304195353E+03 0.  0.
         24    2    3    3    0    0 -0.18018105146E+02 -0.16672169657E+02 -0.45592600082E+03  0.46366738581E+03  0.80723683536E+02 0.  0.
         -6    2    1    2    0  503 -0.41058217598E+02 -0.64070134379E+02 -0.14140180898E+02  0.18935351844E+03  0.17281218383E+03 0.  0.
        -24    2    5    5    0    0 -0.85537554410E+02 -0.43723442957E+02 -0.42917961208E+02  0.13240924836E+03  0.80385601818E+02 0.  0.
          4    1    4    4  501    0 -0.42135293258E+02 -0.26892017268E+02 -0.19038052410E+03  0.19683319711E+03  0.00000000000E+00 0. -1.
         -3    1    4    4    0  501  0.24117188111E+02  0.10219847612E+02 -0.26554547673E+03  0.26683418870E+03  0.00000000000E+00 0.  1.
          5    1    3    3  502    0  0.59076322744E+02  0.80742304036E+02 -0.34345179554E+03  0.35775767977E+03  0.47000000000E+01 0. -1.
         13    1    6    6    0    0 -0.42021814699E+02 -0.46108173419E+02 -0.59087625202E+02  0.85925223413E+02  0.00000000000E+00 0. -1.
        -14    1    6    6    0    0 -0.43515739711E+02  0.23847304625E+01  0.16169663993E+02  0.46484024951E+02  0.00000000000E+00 0.  1.
         -5    1    5    5    0  503  0.44479336812E+02 -0.20346691423E+02  0.28777780310E+02  0.56944270078E+02  0.47000000000E+01 0.  1.
<mgrwt>
<rscale>  2 0.18898252E+03</rscale>
<asrwt>0</asrwt>
<pdfrwt beam="1">  1       21 0.15173892E-01 0.18903512E+03</pdfrwt>
<pdfrwt beam="2">  1       21 0.14033051E+00 0.18903512E+03</pdfrwt>
<totfact> 0.13696835E+04</totfact>
</mgrwt>
</event>
<event>
12    1  0.1441827E-001  0.1938926E+03  0.7546771E-02  0.1155331E+00
         21   -1    0    0  504  503  0.00000000000E+00  0.00000000000E+00  0.13274247836E+03  0.13274247836E+03  0.00000000000E+00 0. -1.
         21   -1    0    0  502  504 -0.00000000000E+00 -0.00000000000E+00 -0.28147241247E+03  0.28147241247E+03  0.00000000000E+00 0. -1.
          6    2    1    2  502    0  0.71415616257E+02  0.47406351303E+02 -0.82550102627E+02  0.20933903694E+03  0.17222299659E+03 0.  0.
         24    2    3    3    0    0  0.68014174895E+01 -0.39754137407E+02 -0.36113967333E+02  0.91227436602E+02  0.73427350705E+02 0.  0.
         -6    2    1    2    0  503 -0.71415616257E+02 -0.47406351303E+02 -0.66179831477E+02  0.20487585389E+03  0.17391605165E+03 0.  0.
        -24    2    5    5    0    0 -0.29294002429E+02 -0.88095733747E+02 -0.77098682635E+02  0.14511660769E+03  0.80595447025E+02 0.  0.
          4    1    4    4  501    0  0.19905926092E+02 -0.32473160682E+02  0.12710275913E+02  0.40153495141E+02  0.00000000000E+00 0. -1.
         -3    1    4    4    0  501 -0.13104508602E+02 -0.72809767249E+01 -0.48824243247E+02  0.51073941461E+02  0.00000000000E+00 0.  1.
          5    1    3    3  502    0  0.64614198767E+02  0.87160488710E+02 -0.46436135293E+02  0.11811160034E+03  0.47000000000E+01 0. -1.
         13    1    6    6    0    0 -0.47685076827E+02 -0.63733805185E+02 -0.22754546939E+02  0.82786676958E+02  0.00000000000E+00 0. -1.
        -14    1    6    6    0    0  0.18391074398E+02 -0.24361928562E+02 -0.54344135696E+02  0.62329930734E+02  0.00000000000E+00 0.  1.
         -5    1    5    5    0  503 -0.42121613827E+02  0.40689382444E+02  0.10918851157E+02  0.59759246194E+02  0.47000000000E+01 0.  1.
<mgrwt>
<rscale>  2 0.19351220E+03</rscale>
<asrwt>0</asrwt>
<pdfrwt beam="1">  1       21 0.20421920E-01 0.19389261E+03</pdfrwt>
<pdfrwt beam="2">  1       21 0.43303448E-01 0.19389261E+03</pdfrwt>
<totfact> 0.11376276E+05</totfact>
</mgrwt>
</event>
<event>
12    1  0.1441827E-001  0.2456258E+03  0.7546771E-02  0.1116327E+00
         21   -1    0    0  504  503  0.00000000000E+00  0.00000000000E+00  0.69616763981E+03  0.69616763981E+03  0.00000000000E+00 0. -1.
         21   -1    0    0  502  504 -0.00000000000E+00 -0.00000000000E+00 -0.42878876314E+03  0.42878876314E+03  0.00000000000E+00 0.  1.
          6    2    1    2  502    0 -0.59643580789E+02  0.16315620233E+03 -0.36917917304E+03  0.44265280090E+03  0.17167101459E+03 0.  0.
         24    2    3    3    0    0 -0.95938992531E+02  0.86893027133E+02 -0.24407503247E+03  0.29163437556E+03  0.93398603204E+02 0.  0.
         -6    2    1    2    0  503  0.59643580789E+02 -0.16315620233E+03  0.63655804971E+03  0.68230360204E+03  0.17365123560E+03 0.  0.
        -24    2    5    5    0    0 -0.58523550853E+01 -0.13817987832E+02  0.18284088513E+03  0.20014908805E+03  0.80023004985E+02 0.  0.
          4    1    4    4  501    0 -0.39005640374E+02  0.93684178670E+02 -0.16964252531E+03  0.19767840476E+03  0.00000000000E+00 0. -1.
         -3    1    4    4    0  501 -0.56933352157E+02 -0.67911515372E+01 -0.74432507155E+02  0.93955970797E+02  0.00000000000E+00 0.  1.
          5    1    3    3  502    0  0.36295411742E+02  0.76263175199E+02 -0.12510414057E+03  0.15101842534E+03  0.47000000000E+01 0. -1.
         13    1    6    6    0    0 -0.21093734760E+01 -0.41668625566E+02  0.15528328549E+03  0.16079061716E+03  0.00000000000E+00 0. -1.
        -14    1    6    6    0    0 -0.37429816094E+01  0.27850637734E+02  0.27557599634E+02  0.39358470894E+02  0.00000000000E+00 0.  1.
         -5    1    5    5    0  503  0.65495935874E+02 -0.14933821450E+03  0.45371716458E+03  0.48215451399E+03  0.47000000000E+01 0.  1.
<mgrwt>
<rscale>  2 0.24527611E+03</rscale>
<asrwt>0</asrwt>
<pdfrwt beam="1">  1       21 0.10710271E+00 0.24562584E+03</pdfrwt>
<pdfrwt beam="2">  1       21 0.65967502E-01 0.24562584E+03</pdfrwt>
<totfact> 0.14039267E+03</totfact>
</mgrwt>
</event>
<event>
12    1  0.1441827E-001  0.1780966E+03  0.7546771E-02  0.1169872E+00
         21   -1    0    0  504  503  0.00000000000E+00  0.00000000000E+00  0.37271833081E+03  0.37271833081E+03  0.00000000000E+00 0.  1.
         21   -1    0    0  502  504 -0.00000000000E+00 -0.00000000000E+00 -0.12276576471E+03  0.12276576471E+03  0.00000000000E+00 0.  1.
          6    2    1    2  502    0 -0.40917006566E+02  0.16831726987E+02 -0.13216081131E+02  0.17771668458E+03  0.17161307269E+03 0.  0.
         24    2    3    3    0    0  0.70868595284E+01 -0.36279672690E+02 -0.44267540084E+02  0.99540760933E+02  0.81131435052E+02 0.  0.
         -6    2    1    2    0  503  0.40917006566E+02 -0.16831726987E+02  0.26316864723E+03  0.31776741094E+03  0.17251342588E+03 0.  0.
        -24    2    5    5    0    0 -0.31805749044E+02  0.13648172022E+02  0.86902041069E+02  0.12461040259E+03  0.82328059735E+02 0.  0.
          2    1    4    4  501    0  0.37624540664E+02 -0.25740088349E+02 -0.10698484192E+01  0.45599372627E+02  0.00000000000E+00 0. -1.
         -1    1    4    4    0  501 -0.30537681135E+02 -0.10539584341E+02 -0.43197691664E+02  0.53941388305E+02  0.00000000000E+00 0.  1.
          5    1    3    3  502    0 -0.48003866095E+02  0.53111399677E+02  0.31051458953E+02  0.78175923652E+02  0.47000000000E+01 0. -1.
         11    1    6    6    0    0  0.61096721766E+01  0.31654154579E+02  0.73969458046E+02  0.80689493243E+02  0.00000000000E+00 0. -1.
        -12    1    6    6    0    0 -0.37915421220E+02 -0.18005982557E+02  0.12932583023E+02  0.43920909346E+02  0.00000000000E+00 0.  1.
         -5    1    5    5    0  503  0.72722755610E+02 -0.30479899009E+02  0.17626660616E+03  0.19315700835E+03  0.47000000000E+01 0.  1.
<mgrwt>
<rscale>  2 0.17787818E+03</rscale>
<asrwt>0</asrwt>
<pdfrwt beam="1">  1       21 0.57341281E-01 0.17809658E+03</pdfrwt>
<pdfrwt beam="2">  1       21 0.18887041E-01 0.17809658E+03</pdfrwt>
<totfact> 0.73773930E+04</totfact>
</mgrwt>
</event>
<event>
12    1  0.1441827E-001  0.2535584E+03  0.7546771E-02  0.1111108E+00
         21   -1    0    0  504  503  0.00000000000E+00  0.00000000000E+00  0.23056361206E+03  0.23056361206E+03  0.00000000000E+00 0. -1.
         21   -1    0    0  502  504 -0.00000000000E+00 -0.00000000000E+00 -0.31310208339E+03  0.31310208339E+03  0.00000000000E+00 0. -1.
          6    2    1    2  502    0  0.18540432583E+03 -0.95551660668E+01 -0.13148790582E+03  0.28562373329E+03  0.17270142562E+03 0.  0.
         24    2    3    3    0    0  0.60123591320E+02  0.80109591836E+01 -0.12544981876E+02  0.11191898278E+03  0.93217275416E+02 0.  0.
         -6    2    1    2    0  503 -0.18540432583E+03  0.95551660668E+01  0.48949434495E+02  0.25804196215E+03  0.17240516773E+03 0.  0.
        -24    2    5    5    0    0 -0.18204360414E+03  0.49669245266E+02  0.63232589224E+02  0.21507066581E+03  0.81548287650E+02 0.  0.
          4    1    4    4  501    0 -0.36123974240E+00 -0.36254005177E+02 -0.46294157940E+01  0.36550169303E+02  0.00000000000E+00 0. -1.
         -3    1    4    4    0  501  0.60484831062E+02  0.44264964360E+02 -0.79155660825E+01  0.75368813476E+02  0.00000000000E+00 0.  1.
          5    1    3    3  502    0  0.12528073451E+03 -0.17566125250E+02 -0.11894292395E+03  0.17370475052E+03  0.47000000000E+01 0. -1.
         13    1    6    6    0    0 -0.13405400033E+03  0.81912127557E+00  0.24119713612E+02  0.13620905458E+03  0.00000000000E+00 0. -1.
        -14    1    6    6    0    0 -0.47989603812E+02  0.48850123990E+02  0.39112875612E+02  0.78861611234E+02  0.00000000000E+00 0.  1.
         -5    1    5    5    0  503 -0.33607216840E+01 -0.40114079199E+02 -0.14283154729E+02  0.42971296341E+02  0.47000000000E+01 0.  1.
<mgrwt>
<rscale>  2 0.25350793E+03</rscale>
<asrwt>0</asrwt>
<pdfrwt beam="1">  1       21 0.35471325E-01 0.25355837E+03</pdfrwt>
<pdfrwt beam="2">  1       21 0.48169551E-01 0.25355837E+03</pdfrwt>
<totfact> 0.30618510E+04</totfact>
</mgrwt>
</event>
<event>
12    1  0.1441827E-001  0.1824728E+03  0.7546771E-02  0.1166860E+00
         21   -1    0    0  504  503  0.00000000000E+00  0.00000000000E+00  0.47313046786E+03  0.47313046786E+03  0.00000000000E+00 0. -1.
         21   -1    0    0  502  504 -0.00000000000E+00 -0.00000000000E+00 -0.93229199587E+02  0.93229199587E+02  0.00000000000E+00 0.  1.
          6    2    1    2  502    0 -0.87656632867E+01  0.37435622411E+02  0.40705677677E+02  0.18119738385E+03  0.17232897911E+03 0.  0.
         24    2    3    3    0    0  0.58017955018E+02  0.42718447671E+02  0.20952105305E+02  0.11119557289E+03  0.82064095908E+02 0.  0.
         -6    2    1    2    0  503  0.87656632867E+01 -0.37435622411E+02  0.33919559060E+03  0.38516228360E+03  0.17837621295E+03 0.  0.
        -24    2    5    5    0    0  0.42751354706E+02 -0.72197256230E+02  0.30212742068E+03  0.32384721508E+03  0.80968625091E+02 0.  0.
          4    1    4    4  501    0  0.67393801769E+02  0.36965014763E+02  0.41893421515E+02  0.87540822474E+02  0.00000000000E+00 0. -1.
         -3    1    4    4    0  501 -0.93758467507E+01  0.57534329078E+01 -0.20941316210E+02  0.23654750413E+02  0.00000000000E+00 0.  1.
          5    1    3    3  502    0 -0.66783618305E+02 -0.52828252594E+01  0.19753572372E+02  0.70001810962E+02  0.47000000000E+01 0. -1.
         13    1    6    6    0    0 -0.14257579749E+02 -0.54910601258E+02  0.13581825976E+03  0.14719053093E+03  0.00000000000E+00 0. -1.
        -14    1    6    6    0    0  0.57008934455E+02 -0.17286654972E+02  0.16630916092E+03  0.17665668415E+03  0.00000000000E+00 0.  1.
         -5    1    5    5    0  503 -0.33985691419E+02  0.34761633818E+02  0.37068169918E+02  0.61315068523E+02  0.47000000000E+01 0.  1.
<mgrwt>
<rscale>  2 0.18097785E+03</rscale>
<asrwt>0</asrwt>
<pdfrwt beam="1">  1       21 0.72789301E-01 0.18247284E+03</pdfrwt>
<pdfrwt beam="2">  1       21 0.14342954E-01 0.18247284E+03</pdfrwt>
<totfact> 0.72637907E+04</totfact>
</mgrwt>
</event>
<event>
12    1  0.1441827E-001  0.2823467E+03  0.7546771E-02  0.1094493E+00
         21   -1    0    0  504  503  0.00000000000E+00  0.00000000000E+00  0.26240881696E+03  0.26240881696E+03  0.00000000000E+00 0. -1.
         21   -1    0    0  502  504 -0.00000000000E+00 -0.00000000000E+00 -0.32430631732E+03  0.32430631732E+03  0.00000000000E+00 0.  1.
          6    2    1    2  502    0  0.75211262667E+02  0.20966379437E+03 -0.10580520378E+03  0.30097474792E+03  0.17255554768E+03 0.  0.
         24    2    3    3    0    0  0.67807729081E+02  0.21874002391E+03 -0.54960110874E+02  0.24858673665E+03  0.79559195992E+02 0.  0.
         -6    2    1    2    0  503 -0.75211262667E+02 -0.20966379437E+03  0.43907703413E+02  0.28574038636E+03  0.17350516211E+03 0.  0.
        -24    2    5    5    0    0 -0.75027042137E+01 -0.10939397542E+03  0.82553872566E+02  0.15864159852E+03  0.79553016775E+02 0.  0.
          2    1    4    4  501    0  0.29299187453E+02  0.19407909631E+03 -0.50305376794E+02  0.20262223210E+03  0.00000000000E+00 0. -1.
         -1    1    4    4    0  501  0.38508541628E+02  0.24660927602E+02 -0.46547340795E+01  0.45964504542E+02  0.00000000000E+00 0.  1.
          5    1    3    3  502    0  0.74035335860E+01 -0.90762295427E+01 -0.50845092904E+02  0.52388011268E+02  0.47000000000E+01 0. -1.
         11    1    6    6    0    0  0.16614130858E+02 -0.29510755626E+01  0.36442590231E+02  0.40159688418E+02  0.00000000000E+00 0. -1.
        -12    1    6    6    0    0 -0.24116835071E+02 -0.10644289985E+03  0.46111282336E+02  0.11848191010E+03  0.00000000000E+00 0.  1.
         -5    1    5    5    0  503 -0.67708558454E+02 -0.10026981895E+03 -0.38646169154E+02  0.12709878784E+03  0.47000000000E+01 0.  1.
<mgrwt>
<rscale>  2 0.28220099E+03</rscale>
<asrwt>0</asrwt>
<pdfrwt beam="1">  1       21 0.40370587E-01 0.28234674E+03</pdfrwt>
<pdfrwt beam="2">  1       21 0.49893279E-01 0.28234674E+03</pdfrwt>
<totfact> 0.21632551E+04</totfact>
</mgrwt>
</event>
<event>
12    1  0.1441827E-001  0.1786000E+03  0.7546771E-02  0.1169258E+00
         21   -1    0    0  504  503  0.00000000000E+00  0.00000000000E+00  0.12110877678E+04  0.12110877678E+04  0.00000000000E+00 0.  1.
         21   -1    0    0  502  504 -0.00000000000E+00 -0.00000000000E+00 -0.42034109455E+02  0.42034109455E+02  0.00000000000E+00 0.  1.
          6    2    1    2  502    0 -0.44397167395E+02 -0.78690133712E+01  0.20058251026E+03  0.26832021568E+03  0.17242205449E+03 0.  0.
         24    2    3    3    0    0 -0.18559673804E+01  0.58027588361E+02  0.12881382222E+03  0.16190146544E+03  0.79047062509E+02 0.  0.
         -6    2    1    2    0  503  0.44397167395E+02  0.78690133712E+01  0.96847114804E+03  0.98480166153E+03  0.17281469303E+03 0.  0.
        -24    2    5    5    0    0  0.97689496289E+02  0.10739784110E+02  0.64126123573E+03  0.65323457879E+03  0.76425531274E+02 0.  0.
          2    1    4    4  501    0 -0.44516242791E+01  0.27351021971E+02  0.12814610002E+03  0.13110804061E+03  0.00000000000E+00 0. -1.
         -1    1    4    4    0  501  0.25956568987E+01  0.30676566391E+02  0.66772220371E+00  0.30793424837E+02  0.00000000000E+00 0.  1.
          5    1    3    3  502    0 -0.42541200015E+02 -0.65896601732E+02  0.71768688034E+02  0.10641875023E+03  0.47000000000E+01 0. -1.
         13    1    6    6    0    0  0.75124175498E+02 -0.27416681840E+02  0.42985142003E+03  0.43722712575E+03  0.00000000000E+00 0. -1.
        -14    1    6    6    0    0  0.22565320792E+02  0.38156465950E+02  0.21140981570E+03  0.21600745304E+03  0.00000000000E+00 0.  1.
         -5    1    5    5    0  503 -0.53292328894E+02 -0.28707707391E+01  0.32720991231E+03  0.33156708274E+03  0.47000000000E+01 0.  1.
<mgrwt>
<rscale>  2 0.17850492E+03</rscale>
<asrwt>0</asrwt>
<pdfrwt beam="1">  1       21 0.18632117E+00 0.17859997E+03</pdfrwt>
<pdfrwt beam="2">  1       21 0.64667870E-02 0.17859997E+03</pdfrwt>
<totfact> 0.28888192E+04</totfact>
</mgrwt>
</event>
<event>
12    1  0.1441827E-001  0.2017133E+03  0.7546771E-02  0.1148679E+00
         21   -1    0    0  504  503  0.00000000000E+00  0.00000000000E+00  0.47647683463E+03  0.47647683463E+03  0.00000000000E+00 0. -1.
         21   -1    0    0  502  504 -0.00000000000E+00 -0.00000000000E+00 -0.16048693466E+03  0.16048693466E+03  0.00000000000E+00 0.  1.
          6    2    1    2  502    0 -0.43239798548E+02  0.91184954043E+02 -0.61332500361E+02  0.20910811328E+03  0.17256926557E+03 0.  0.
         24    2    3    3    0    0  0.17621409222E+02  0.53760247858E+02  0.21426598045E+02  0.99673869952E+02  0.79215547304E+02 0.  0.
         -6    2    1    2    0  503  0.43239798548E+02 -0.91184954043E+02  0.37732240033E+03  0.42785565600E+03  0.17465363599E+03 0.  0.
        -24    2    5    5    0    0  0.63481589956E+02 -0.85503430675E+02  0.38320972402E+03  0.40552271156E+03  0.79108963413E+02 0.  0.
          4    1    4    4  501    0  0.21051346216E+02  0.70157949414E+02  0.31925502504E+02  0.79903283747E+02  0.00000000000E+00 0. -1.
         -3    1    4    4    0  501 -0.34299369935E+01 -0.16397701555E+02 -0.10498904458E+02  0.19770586205E+02  0.00000000000E+00 0.  1.
          5    1    3    3  502    0 -0.60861207771E+02  0.37424706185E+02 -0.82759098406E+02  0.10943424333E+03  0.47000000000E+01 0. -1.
         11    1    6    6    0    0  0.12577986674E+02 -0.75332982309E+02  0.17501588644E+03  0.19095503261E+03  0.00000000000E+00 0. -1.
        -12    1    6    6    0    0  0.50903603282E+02 -0.10170448366E+02  0.20819383757E+03  0.21456767895E+03  0.00000000000E+00 0.  1.
         -5    1    5    5    0  503 -0.20241791408E+02 -0.56815233683E+01 -0.58873236896E+01  0.22332944441E+02  0.47000000000E+01 0.  1.
<mgrwt>
<rscale>  2 0.20126131E+03</rscale>
<asrwt>0</asrwt>
<pdfrwt beam="1">  1       21 0.73304128E-01 0.20171333E+03</pdfrwt>
<pdfrwt beam="2">  1       21 0.24690298E-01 0.20171333E+03</pdfrwt>
<totfact> 0.25815874E+04</totfact>
</mgrwt>
</event>
<event>
12    1  0.1441827E-001  0.1879771E+03  0.7546771E-02  0.1160442E+00
         21   -1    0    0  504  503  0.00000000000E+00  0.00000000000E+00  0.13065838447E+03  0.13065838447E+03  0.00000000000E+00 0.  1.
         21   -1    0    0  502  504 -0.00000000000E+00 -0.00000000000E+00 -0.27230179028E+03  0.27230179028E+03  0.00000000000E+00 0.  1.
          6    2    1    2  502    0 -0.51437893216E+02  0.49736798559E+02 -0.90994367603E+02  0.20827912099E+03  0.17314910140E+03 0.  0.
         24    2    3    3    0    0 -0.22529952974E+02 -0.17003871105E+01  0.17753058183E+02  0.84466578434E+02  0.79428846776E+02 0.  0.
         -6    2    1    2    0  503  0.51437893216E+02 -0.49736798559E+02 -0.50649038215E+02  0.19468105376E+03  0.17382687258E+03 0.  0.
        -24    2    5    5    0    0  0.51240353989E+02  0.30254149383E+02 -0.55286508215E+02  0.11441781870E+03  0.80585059496E+02 0.  0.
          4    1    4    4  501    0  0.22950461089E+02 -0.93542446610E+01  0.27822563994E+02  0.37260174779E+02  0.00000000000E+00 0. -1.
         -3    1    4    4    0  501 -0.45480414063E+02  0.76538575505E+01 -0.10069505811E+02  0.47206403655E+02  0.00000000000E+00 0.  1.
          5    1    3    3  502    0 -0.28907940242E+02  0.51437185670E+02 -0.10874742579E+03  0.12381254255E+03  0.47000000000E+01 0. -1.
         11    1    6    6    0    0  0.88296687134E+01 -0.14667320233E+01 -0.60538791355E+02  0.61196892169E+02  0.00000000000E+00 0. -1.
        -12    1    6    6    0    0  0.42410685276E+02  0.31720881406E+02  0.52522831402E+01  0.53220926532E+02  0.00000000000E+00 0.  1.
         -5    1    5    5    0  503  0.19753922701E+00 -0.79990947942E+02  0.46374700003E+01  0.80263235061E+02  0.47000000000E+01 0.  1.
<mgrwt>
<rscale>  2 0.18782025E+03</rscale>
<asrwt>0</asrwt>
<pdfrwt beam="1">  1       21 0.20101290E-01 0.18797709E+03</pdfrwt>
<pdfrwt beam="2">  1       21 0.41892583E-01 0.18797709E+03</pdfrwt>
<totfact> 0.12561890E+05</totfact>
</mgrwt>
</event>
<event>
12    1  0.1441827E-001  0.2128989E+03  0.7546771E-02  0.1140005E+00
         21   -1    0    0  504  503  0.00000000000E+00  0.00000000000E+00  0.10836938099E+04  0.10836938099E+04  0.00000000000E+00 0.  1.
         21   -1    0    0  502  504 -0.00000000000E+00 -0.00000000000E+00 -0.42148631460E+02  0.42148631460E+02  0.00000000000E+00 0. -1.
          6    2    1    2  502    0 -0.92845301273E+02 -0.80948483395E+02  0.43695688163E+03  0.48606303349E+03  0.17364633367E+03 0.  0.
         24    2    3    3    0    0 -0.44409631732E+02 -0.86349320270E+02  0.16113077937E+03  0.20592501071E+03  0.83747008750E+02 0.  0.
         -6    2    1    2    0  503  0.92845301273E+02  0.80948483395E+02  0.60458829680E+03  0.63977940785E+03  0.16916789043E+03 0.  0.
        -24    2    5    5    0    0  0.15402534959E+02  0.31418029924E+02  0.45979140821E+03  0.46820179620E+03  0.81119986515E+02 0.  0.
          4    1    4    4  501    0 -0.42224185832E+02 -0.94570318835E+02  0.99198244929E+02  0.14341101377E+03  0.00000000000E+00 0. -1.
         -3    1    4    4    0  501 -0.21854458996E+01  0.82209985648E+01  0.61932534443E+02  0.62513996943E+02  0.00000000000E+00 0.  1.
          5    1    3    3  502    0 -0.48435669541E+02  0.54008368749E+01  0.27582610225E+03  0.28013802278E+03  0.47000000000E+01 0. -1.
         13    1    6    6    0    0 -0.20026248116E+02  0.39410682315E+00  0.31498963383E+02  0.37328147932E+02  0.00000000000E+00 0. -1.
        -14    1    6    6    0    0  0.35428783075E+02  0.31023923101E+02  0.42829244483E+03  0.43087364827E+03  0.00000000000E+00 0.  1.
         -5    1    5    5    0  503  0.77442766314E+02  0.49530453471E+02  0.14479688859E+03  0.17157761165E+03  0.47000000000E+01 0.  1.
<mgrwt>
<rscale>  2 0.21198388E+03</rscale>
<asrwt>0</asrwt>
<pdfrwt beam="1">  1       21 0.16672210E+00 0.21289893E+03</pdfrwt>
<pdfrwt beam="2">  1       21 0.64844056E-02 0.21289893E+03</pdfrwt>
<totfact> 0.38366678E+04</totfact>
</mgrwt>
</event>
<event>
12    1  0.1441827E-001  0.1736613E+03  0.7546771E-02  0.1174251E+00
         21   -1    0    0  504  503  0.00000000000E+00  0.00000000000E+00  0.66785695009E+02  0.66785695009E+02  0.00000000000E+00 0.  1.
         21   -1    0    0  502  504 -0.00000000000E+00 -0.00000000000E+00 -0.18160693344E+04  0.18160693344E+04  0.00000000000E+00 0.  1.
          6    2    1    2  502    0 -0.10738588194E+02 -0.96641955281E+01 -0.16916058551E+04  0.17004965791E+04  0.17305933172E+03 0.  0.
         24    2    3    3    0    0  0.48562366334E+02  0.33704833991E+02 -0.10017154390E+04  0.10066894357E+04  0.80594540197E+02 0.  0.
         -6    2    1    2    0  503  0.10738588194E+02  0.96641955281E+01 -0.57677784233E+02  0.18235845033E+03  0.17239246985E+03 0.  0.
        -24    2    5    5    0    0 -0.38513341191E+02  0.40328855817E+02 -0.73418588802E+02  0.12205972010E+03  0.79991199694E+02 0.  0.
          4    1    4    4  501    0  0.64430571636E+02  0.28650800493E+01 -0.70869200646E+03  0.71162059221E+03  0.00000000000E+00 0. -1.
         -3    1    4    4    0  501 -0.15868205303E+02  0.30839753942E+02 -0.29302343258E+03  0.29506884350E+03  0.00000000000E+00 0.  1.
          5    1    3    3  502    0 -0.59300954527E+02 -0.43369029520E+02 -0.68989041610E+03  0.69380714334E+03  0.47000000000E+01 0. -1.
         11    1    6    6    0    0  0.21974088003E+01  0.26996220477E+02 -0.74434485374E+02  0.79209324820E+02  0.00000000000E+00 0. -1.
        -12    1    6    6    0    0 -0.40710749992E+02  0.13332635340E+02  0.10158965727E+01  0.42850395282E+02  0.00000000000E+00 0.  1.
         -5    1    5    5    0  503  0.49251929385E+02 -0.30664660289E+02  0.15740804569E+02  0.60298730230E+02  0.47000000000E+01 0.  1.
<mgrwt>
<rscale>  2 0.17349492E+03</rscale>
<asrwt>0</asrwt>
<pdfrwt beam="1">  1       21 0.10274725E-01 0.17366130E+03</pdfrwt>
<pdfrwt beam="2">  1       21 0.27939521E+00 0.17366130E+03</pdfrwt>
<totfact> 0.35501738E+03</totfact>
</mgrwt>
</event>
<event>
12    1  0.1441827E-001  0.2218121E+03  0.7546771E-02  0.1132665E+00
         21   -1    0    0  504  503  0.00000000000E+00  0.00000000000E+00  0.16517578783E+03  0.16517578783E+03  0.00000000000E+00 0. -1.
         21   -1    0    0  502  504 -0.00000000000E+00 -0.00000000000E+00 -0.40516716747E+03  0.40516716747E+03  0.00000000000E+00 0.  1.
          6    2    1    2  502    0  0.91654809555E+02 -0.10431492007E+03 -0.26750731658E+03  0.34750652868E+03  0.17296940882E+03 0.  0.
         24    2    3    3    0    0  0.13247873770E+02 -0.82461042299E+02 -0.89987703546E+02  0.15215929280E+03  0.89885115231E+02 0.  0.
         -6    2    1    2    0  503 -0.91654809555E+02  0.10431492007E+03  0.27515936942E+02  0.22283642662E+03  0.17209514688E+03 0.  0.
        -24    2    5    5    0    0 -0.30208027980E+01  0.71237596958E+02 -0.30217133924E+02  0.11190719725E+03  0.80785055198E+02 0.  0.
          4    1    4    4  501    0 -0.34129354130E+02 -0.15448060044E+02 -0.13063149384E+02  0.39674944792E+02  0.00000000000E+00 0. -1.
         -3    1    4    4    0  501  0.47377227900E+02 -0.67012982255E+02 -0.76924554163E+02  0.11248434801E+03  0.00000000000E+00 0.  1.
          5    1    3    3  502    0  0.78406935785E+02 -0.21853877772E+02 -0.17751961303E+03  0.19534723588E+03  0.47000000000E+01 0. -1.
         11    1    6    6    0    0 -0.25521178784E+02  0.52257366838E+02 -0.49789010951E+02  0.76557877236E+02  0.00000000000E+00 0. -1.
        -12    1    6    6    0    0  0.22500375986E+02  0.18980230119E+02  0.19571877027E+02  0.35349320011E+02  0.00000000000E+00 0.  1.
         -5    1    5    5    0  503 -0.88634006757E+02  0.33077323113E+02  0.57733070866E+02  0.11092922938E+03  0.47000000000E+01 0.  1.
<mgrwt>
<rscale>  2 0.22164167E+03</rscale>
<asrwt>0</asrwt>
<pdfrwt beam="1">  1       21 0.25411660E-01 0.22181213E+03</pdfrwt>
<pdfrwt beam="2">  1       21 0.62333410E-01 0.22181213E+03</pdfrwt>
<totfact> 0.34515023E+04</totfact>
</mgrwt>
</event>
<event>
12    1  0.1441827E-001  0.2439430E+03  0.7546771E-02  0.1117312E+00
         21   -1    0    0  504  503  0.00000000000E+00  0.00000000000E+00  0.86092368491E+03  0.86092368491E+03  0.00000000000E+00 0.  1.
         21   -1    0    0  502  504 -0.00000000000E+00 -0.00000000000E+00 -0.76957270451E+02  0.76957270451E+02  0.00000000000E+00 0.  1.
          6    2    1    2  502    0 -0.16920059019E+03 -0.33470194534E+02  0.54304163222E+03  0.59502103458E+03  0.17148388736E+03 0.  0.
         24    2    3    3    0    0 -0.13240269600E+03 -0.79381326602E+02  0.46814082830E+03  0.49965784728E+03  0.81671661551E+02 0.  0.
         -6    2    1    2    0  503  0.16920059019E+03  0.33470194534E+02  0.24092478223E+03  0.34285992078E+03  0.17250820542E+03 0.  0.
        -24    2    5    5    0    0  0.13758050063E+02  0.36428685059E+02  0.73340406084E+02  0.11421664168E+03  0.78423804005E+02 0.  0.
          4    1    4    4  501    0 -0.12717487491E+03 -0.87916940290E+02  0.46353728121E+03  0.48864061259E+03  0.00000000000E+00 0. -1.
         -3    1    4    4    0  501 -0.52278210868E+01  0.85356136876E+01  0.46035470913E+01  0.11017234688E+02  0.00000000000E+00 0.  1.
          5    1    3    3  502    0 -0.36797894194E+02  0.45911132068E+02  0.74900803919E+02  0.95363187303E+02  0.47000000000E+01 0. -1.
         11    1    6    6    0    0  0.16472860101E+02  0.58534194959E+02  0.35791348263E+02  0.70559391366E+02  0.00000000000E+00 0. -1.
        -12    1    6    6    0    0 -0.27148100377E+01 -0.22105509900E+02  0.37549057821E+02  0.43657250311E+02  0.00000000000E+00 0.  1.
         -5    1    5    5    0  503  0.15544254013E+03 -0.29584905253E+01  0.16758437615E+03  0.22864327910E+03  0.47000000000E+01 0.  1.
<mgrwt>
<rscale>  2 0.24376195E+03</rscale>
<asrwt>0</asrwt>
<pdfrwt beam="1">  1       21 0.13244979E+00 0.24394297E+03</pdfrwt>
<pdfrwt beam="2">  1       21 0.11839581E-01 0.24394297E+03</pdfrwt>
<totfact> 0.24059284E+04</totfact>
</mgrwt>
</event>
<event>
12    1  0.1441827E-001  0.2905855E+03  0.7546771E-02  0.1090106E+00
         21   -1    0    0  504  503  0.00000000000E+00  0.00000000000E+00  0.47998489772E+03  0.47998489772E+03  0.00000000000E+00 0.  1.
         21   -1    0    0  502  504 -0.00000000000E+00 -0.00000000000E+00 -0.19262654789E+03  0.19262654789E+03  0.00000000000E+00 0.  1.
          6    2    1    2  502    0 -0.22311722061E+03 -0.67718418686E+02  0.43676888488E+02  0.29337463379E+03  0.17260917358E+03 0.  0.
         24    2    3    3    0    0 -0.15701844514E+03 -0.56035769280E+02  0.95435845158E+02  0.20848286734E+03  0.81008060594E+02 0.  0.
         -6    2    1    2    0  503  0.22311722061E+03  0.67718418686E+02  0.24368146134E+03  0.37923681181E+03  0.17341518525E+03 0.  0.
        -24    2    5    5    0    0  0.23611977781E+03  0.85858184884E+02  0.23881190947E+03  0.35591471614E+03  0.80746391099E+02 0.  0.
          4    1    4    4  501    0 -0.49610738832E+02  0.14757068167E+02  0.66629183451E+01  0.52186118357E+02  0.00000000000E+00 0. -1.
         -3    1    4    4    0  501 -0.10740770631E+03 -0.70792837447E+02  0.88772926813E+02  0.15629674898E+03  0.00000000000E+00 0.  1.
          5    1    3    3  502    0 -0.66098775473E+02 -0.11682649405E+02 -0.51758956670E+02  0.84891766454E+02  0.47000000000E+01 0. -1.
         13    1    6    6    0    0  0.92514759293E+01 -0.37729665598E+01 -0.48738500639E+01  0.11116631593E+02  0.00000000000E+00 0. -1.
        -14    1    6    6    0    0  0.22686830188E+03  0.89631151443E+02  0.24368575953E+03  0.34479808454E+03  0.00000000000E+00 0.  1.
         -5    1    5    5    0  503 -0.13002557198E+02 -0.18139766198E+02  0.48695518676E+01  0.23322095677E+02  0.47000000000E+01 0.  1.
<mgrwt>
<rscale>  2 0.29046530E+03</rscale>
<asrwt>0</asrwt>
<pdfrwt beam="1">  1       21 0.73843830E-01 0.29058545E+03</pdfrwt>
<pdfrwt beam="2">  1       21 0.29634854E-01 0.29058545E+03</pdfrwt>
<totfact> 0.17067368E+04</totfact>
</mgrwt>
</event>
<event>
12    1  0.1441827E-001  0.3479668E+03  0.7546771E-02  0.1063525E+00
         21   -1    0    0  504  503  0.00000000000E+00  0.00000000000E+00  0.31982683144E+03  0.31982683144E+03  0.00000000000E+00 0. -1.
         21   -1    0    0  502  504 -0.00000000000E+00 -0.00000000000E+00 -0.91047533000E+03  0.91047533000E+03  0.00000000000E+00 0. -1.
          6    2    1    2  502    0  0.28859017016E+03  0.82597694300E+02 -0.76571277367E+03  0.84077891034E+03  0.17460371961E+03 0.  0.
         24    2    3    3    0    0  0.68773065700E+02  0.24268248120E+00 -0.31746169027E+03  0.33476208142E+03  0.80956364220E+02 0.  0.
         -6    2    1    2    0  503 -0.28859017016E+03 -0.82597694300E+02  0.17506427511E+03  0.38952325110E+03  0.17599487866E+03 0.  0.
        -24    2    5    5    0    0 -0.21747455492E+03  0.11826571452E+01  0.15085298213E+03  0.27689619074E+03  0.81352919494E+02 0.  0.
          2    1    4    4  501    0  0.72574598189E+02 -0.25315031747E+02 -0.19495212778E+03  0.20955728396E+03  0.00000000000E+00 0. -1.
         -1    1    4    4    0  501 -0.38015324891E+01  0.25557714228E+02 -0.12250956249E+03  0.12520479746E+03  0.00000000000E+00 0.  1.
          5    1    3    3  502    0  0.21981710446E+03  0.82355011819E+02 -0.44825108340E+03  0.50601682892E+03  0.47000000000E+01 0. -1.
         13    1    6    6    0    0 -0.75249978746E+02 -0.11624411885E+02  0.99173714274E+02  0.12503244321E+03  0.00000000000E+00 0. -1.
        -14    1    6    6    0    0 -0.14222457618E+03  0.12807069030E+02  0.51679267857E+02  0.15186374752E+03  0.00000000000E+00 0.  1.
         -5    1    5    5    0  503 -0.71115615238E+02 -0.83780351446E+02  0.24211292977E+02  0.11262706037E+03  0.47000000000E+01 0.  1.
<mgrwt>
<rscale>  2 0.34779124E+03</rscale>
<asrwt>0</asrwt>
<pdfrwt beam="1">  1       21 0.49204128E-01 0.34796676E+03</pdfrwt>
<pdfrwt beam="2">  1       21 0.14007313E+00 0.34796676E+03</pdfrwt>
<totfact> 0.12551021E+03</totfact>
</mgrwt>
</event>
<event>
12    1  0.1441827E-001  0.2479112E+03  0.7546771E-02  0.1114644E+00
         21   -1    0    0  504  503  0.00000000000E+00  0.00000000000E+00  0.42254595321E+03  0.42254595321E+03  0.00000000000E+00 0.  1.
         21   -1    0    0  502  504 -0.00000000000E+00 -0.00000000000E+00 -0.17206704112E+03  0.17206704112E+03  0.00000000000E+00 0.  1.
          6    2    1    2  502    0  0.78929849097E+02 -0.15941270881E+03  0.81971143525E+01  0.24797136299E+03  0.17256961311E+03 0.  0.
         24    2    3    3    0    0  0.12023516733E+03 -0.11354204343E+03 -0.73618553171E+01  0.18414018883E+03  0.80654331186E+02 0.  0.
         -6    2    1    2    0  503 -0.78929849097E+02  0.15941270881E+03  0.24228179773E+03  0.34664163134E+03  0.17267778740E+03 0.  0.
        -24    2    5    5    0    0 -0.11120394124E+03  0.75183987799E+02  0.14296135087E+03  0.21239284874E+03  0.81570986155E+02 0.  0.
          4    1    4    4  501    0  0.10634431374E+03 -0.91573886720E+02  0.25089106039E+02  0.14256350527E+03  0.00000000000E+00 0. -1.
         -3    1    4    4    0  501  0.13890853595E+02 -0.21968156714E+02 -0.32450961357E+02  0.41576683561E+02  0.00000000000E+00 0.  1.
          5    1    3    3  502    0 -0.41305318238E+02 -0.45870665374E+02  0.15558969670E+02  0.63831174153E+02  0.47000000000E+01 0. -1.
         13    1    6    6    0    0  0.68510164566E+01  0.26664243860E+02  0.13760011914E+02  0.30777528409E+02  0.00000000000E+00 0. -1.
        -14    1    6    6    0    0 -0.11805495770E+03  0.48519743939E+02  0.12920133896E+03  0.18161532033E+03  0.00000000000E+00 0.  1.
         -5    1    5    5    0  503  0.32274092146E+02  0.84228721009E+02  0.99320446858E+02  0.13424878260E+03  0.47000000000E+01 0.  1.
<mgrwt>
<rscale>  2 0.24789234E+03</rscale>
<asrwt>0</asrwt>
<pdfrwt beam="1">  1       21 0.65007069E-01 0.24791118E+03</pdfrwt>
<pdfrwt beam="2">  1       21 0.26471853E-01 0.24791118E+03</pdfrwt>
<totfact> 0.28757432E+04</totfact>
</mgrwt>
</event>
<event>
12    1  0.1441827E-001  0.2727543E+03  0.7546771E-02  0.1099766E+00
         21   -1    0    0  504  503  0.00000000000E+00  0.00000000000E+00  0.53094464594E+03  0.53094464594E+03  0.00000000000E+00 0. -1.
         21   -1    0    0  502  504 -0.00000000000E+00 -0.00000000000E+00 -0.14081053378E+03  0.14081053378E+03  0.00000000000E+00 0. -1.
          6    2    1    2  502    0 -0.16757562092E+03 -0.12900757903E+03  0.16833858303E+03  0.32020405763E+03  0.17166308808E+03 0.  0.
         24    2    3    3    0    0 -0.36798072624E+02 -0.41206290522E+02  0.12164906945E+03  0.15584520000E+03  0.80231999460E+02 0.  0.
         -6    2    1    2    0  503  0.16757562092E+03  0.12900757903E+03  0.22179552913E+03  0.35155112209E+03  0.17225095219E+03 0.  0.
        -24    2    5    5    0    0  0.11914825009E+03  0.15718544022E+03  0.19673372967E+03  0.28999313399E+03  0.80549917764E+02 0.  0.
          4    1    4    4  501    0 -0.24562185073E+02 -0.60951086746E+02  0.56447355389E+02  0.86629324374E+02  0.00000000000E+00 0. -1.
         -3    1    4    4    0  501 -0.12235887551E+02  0.19744796224E+02  0.65201714063E+02  0.69215875627E+02  0.00000000000E+00 0.  1.
          5    1    3    3  502    0 -0.13077754830E+03 -0.87801288505E+02  0.46689513578E+02  0.16435885763E+03  0.47000000000E+01 0. -1.
         13    1    6    6    0    0  0.12674743410E+03  0.14280363785E+03  0.15748117643E+03  0.24750376151E+03  0.00000000000E+00 0. -1.
        -14    1    6    6    0    0 -0.75991840093E+01  0.14381802373E+02  0.39252553245E+02  0.42489372476E+02  0.00000000000E+00 0.  1.
         -5    1    5    5    0  503  0.48427370837E+02 -0.28177861196E+02  0.25061799455E+02  0.61557988106E+02  0.47000000000E+01 0.  1.
<mgrwt>
<rscale>  2 0.27266158E+03</rscale>
<asrwt>0</asrwt>
<pdfrwt beam="1">  1       21 0.81683790E-01 0.27275435E+03</pdfrwt>
<pdfrwt beam="2">  1       21 0.21663159E-01 0.27275435E+03</pdfrwt>
<totfact> 0.25038294E+04</totfact>
</mgrwt>
</event>
<event>
12    1  0.1441827E-001  0.2205898E+03  0.7546771E-02  0.1133774E+00
         21   -1    0    0  504  503  0.00000000000E+00  0.00000000000E+00  0.25709922891E+03  0.25709922891E+03  0.00000000000E+00 0. -1.
         21   -1    0    0  502  504 -0.00000000000E+00 -0.00000000000E+00 -0.90382255546E+03  0.90382255546E+03  0.00000000000E+00 0. -1.
          6    2    1    2  502    0 -0.13401831474E+03 -0.28670569157E+02 -0.83975655293E+03  0.86779778670E+03  0.17058434917E+03 0.  0.
         24    2    3    3    0    0 -0.12368780557E+03 -0.72158367336E+02 -0.49716840166E+03  0.52227406913E+03  0.71332183832E+02 0.  0.
         -6    2    1    2    0  503  0.13401831474E+03  0.28670569157E+02  0.19303322639E+03  0.29312399767E+03  0.17284947584E+03 0.  0.
        -24    2    5    5    0    0  0.87890340861E+02  0.86951059498E+02  0.11244880867E+03  0.18339549678E+03  0.75524664205E+02 0.  0.
          2    1    4    4  501    0 -0.33290590087E+02 -0.58979097931E+02 -0.18469435663E+03  0.19672011273E+03  0.00000000000E+00 0. -1.
         -1    1    4    4    0  501 -0.90397215487E+02 -0.13179269405E+02 -0.31247404503E+03  0.32555395640E+03  0.00000000000E+00 0.  1.
          5    1    3    3  502    0 -0.10330509170E+02  0.43487798179E+02 -0.34258815127E+03  0.34552371757E+03  0.47000000000E+01 0. -1.
         13    1    6    6    0    0  0.63260226388E+02  0.94380028404E+02  0.69083894860E+02  0.13297379642E+03  0.00000000000E+00 0. -1.
        -14    1    6    6    0    0  0.24630114472E+02 -0.74289689058E+01  0.43364913806E+02  0.50421700361E+02  0.00000000000E+00 0.  1.
         -5    1    5    5    0  503  0.46127973883E+02 -0.58280490341E+02  0.80584417724E+02  0.10972850090E+03  0.47000000000E+01 0.  1.
<mgrwt>
<rscale>  2 0.22014585E+03</rscale>
<asrwt>0</asrwt>
<pdfrwt beam="1">  1       21 0.39553727E-01 0.22058978E+03</pdfrwt>
<pdfrwt beam="2">  1       21 0.13904962E+00 0.22058978E+03</pdfrwt>
<totfact> 0.21886077E+03</totfact>
</mgrwt>
</event>
<event>
12    1  0.1441827E-001  0.1950212E+03  0.7546771E-02  0.1155463E+00
         21   -1    0    0  504  503  0.00000000000E+00  0.00000000000E+00  0.53410708687E+02  0.53410708687E+02  0.00000000000E+00 0. -1.
         21   -1    0    0  502  504 -0.00000000000E+00 -0.00000000000E+00 -0.79362202248E+03  0.79362202248E+03  0.00000000000E+00 0. -1.
          6    2    1    2  502    0 -0.71918868542E+02 -0.34979170755E+02 -0.52980090473E+03  0.56455493371E+03  0.17786907682E+03 0.  0.
         24    2    3    3    0    0 -0.87261711515E+02 -0.76439434152E+02 -0.31360772422E+03  0.34383806175E+03  0.80107519158E+02 0.  0.
         -6    2    1    2    0  503  0.71918868542E+02  0.34979170755E+02 -0.21041040906E+03  0.28247779745E+03  0.17066135993E+03 0.  0.
        -24    2    5    5    0    0 -0.22374471083E+02  0.48719494939E+02 -0.11524381967E+03  0.14772320516E+03  0.75278159039E+02 0.  0.
          4    1    4    4  501    0 -0.43463202972E+02 -0.19177220228E+00 -0.16982616779E+03  0.17529978339E+03  0.00000000000E+00 0. -1.
         -3    1    4    4    0  501 -0.43798508543E+02 -0.76247661950E+02 -0.14378155643E+03  0.16853827836E+03  0.00000000000E+00 0.  1.
          5    1    3    3  502    0  0.15342842972E+02  0.41460263397E+02 -0.21619318051E+03  0.22071687197E+03  0.47000000000E+01 0. -1.
         13    1    6    6    0    0 -0.16750733783E+02  0.58110439495E+01  0.62129631308E+01  0.18787129236E+02  0.00000000000E+00 0. -1.
        -14    1    6    6    0    0 -0.56237372999E+01  0.42908450990E+02 -0.12145678280E+03  0.12893607593E+03  0.00000000000E+00 0.  1.
         -5    1    5    5    0  503  0.94293339625E+02 -0.13740324184E+02 -0.95166589393E+02  0.13475459229E+03  0.47000000000E+01 0.  1.
<mgrwt>
<rscale>  2 0.19336252E+03</rscale>
<asrwt>0</asrwt>
<pdfrwt beam="1">  1       21 0.82170322E-02 0.19502122E+03</pdfrwt>
<pdfrwt beam="2">  1       21 0.12209569E+00 0.19502122E+03</pdfrwt>
<totfact> 0.57869170E+04</totfact>
</mgrwt>
</event>
<event>
12    1  0.1441827E-001  0.2012636E+03  0.7546771E-02  0.1148884E+00
         21   -1    0    0  504  503  0.00000000000E+00  0.00000000000E+00  0.15516185465E+03  0.15516185465E+03  0.00000000000E+00 0. -1.
         21   -1    0    0  502  504 -0.00000000000E+00 -0.00000000000E+00 -0.27226705685E+03  0.27226705685E+03  0.00000000000E+00 0. -1.
          6    2    1    2  502    0 -0.97420579346E+02  0.27826807101E+02 -0.12663673286E+02  0.20068002367E+03  0.17276285135E+03 0.  0.
         24    2    3    3    0    0 -0.77558318465E+02  0.61172474172E+02 -0.57153063200E+02  0.14145301349E+03  0.83577018574E+02 0.  0.
         -6    2    1    2    0  503  0.97420579346E+02 -0.27826807101E+02 -0.10444152891E+03  0.22674888783E+03  0.17390205490E+03 0.  0.
        -24    2    5    5    0    0  0.81517375021E+02  0.44573526839E+02 -0.85524973178E+02  0.15010264629E+03  0.81144326110E+02 0.  0.
          4    1    4    4  501    0 -0.91556606276E+02  0.44328432165E+02 -0.28984758462E+02  0.10577210537E+03  0.00000000000E+00 0. -1.
         -3    1    4    4    0  501  0.13998287811E+02  0.16844042007E+02 -0.28168304739E+02  0.35680908125E+02  0.00000000000E+00 0.  1.
          5    1    3    3  502    0 -0.19862260881E+02 -0.33345667072E+02  0.44489389914E+02  0.59227010178E+02  0.47000000000E+01 0. -1.
         13    1    6    6    0    0  0.73343690271E+02 -0.20674531638E+01 -0.36523334965E+02  0.81960510382E+02  0.00000000000E+00 0. -1.
        -14    1    6    6    0    0  0.81736847502E+01  0.46640980002E+02 -0.49001638213E+02  0.68142135904E+02  0.00000000000E+00 0.  1.
         -5    1    5    5    0  503  0.15903204325E+02 -0.72400333939E+02 -0.18916555734E+02  0.76646241546E+02  0.47000000000E+01 0.  1.
<mgrwt>
<rscale>  2 0.20101724E+03</rscale>
<asrwt>0</asrwt>
<pdfrwt beam="1">  1       21 0.23871055E-01 0.20126357E+03</pdfrwt>
<pdfrwt beam="2">  1       21 0.41887240E-01 0.20126357E+03</pdfrwt>
<totfact> 0.90417930E+04</totfact>
</mgrwt>
</event>
<event>
12    1  0.1441827E-001  0.1938509E+03  0.7546771E-02  0.1155186E+00
         21   -1    0    0  504  503  0.00000000000E+00  0.00000000000E+00  0.13319758707E+03  0.13319758707E+03  0.00000000000E+00 0. -1.
         21   -1    0    0  502  504 -0.00000000000E+00 -0.00000000000E+00 -0.86486293054E+03  0.86486293054E+03  0.00000000000E+00 0.  1.
          6    2    1    2  502    0  0.37122527259E+01 -0.87557758643E+02 -0.77560228404E+03  0.79929275011E+03  0.17213324910E+03 0.  0.
         24    2    3    3    0    0  0.11958825930E+02 -0.12828962763E+03 -0.60518941414E+03  0.62382273173E+03  0.79368328451E+02 0.  0.
         -6    2    1    2    0  503 -0.37122527259E+01  0.87557758643E+02  0.43936940576E+02  0.19876776750E+03  0.17291046449E+03 0.  0.
        -24    2    5    5    0    0  0.47612173041E+02  0.18615639116E+02  0.58735603962E+02  0.11142761085E+03  0.79704330162E+02 0.  0.
          4    1    4    4  501    0 -0.18598348237E+02 -0.10909573643E+03 -0.38099943580E+03  0.39674720963E+03  0.00000000000E+00 0. -1.
         -3    1    4    4    0  501  0.30557174167E+02 -0.19193891209E+02 -0.22418997833E+03  0.22707552210E+03  0.00000000000E+00 0.  1.
          5    1    3    3  502    0 -0.82465732041E+01  0.40731868992E+02 -0.17041286990E+03  0.17547001838E+03  0.47000000000E+01 0. -1.
         11    1    6    6    0    0  0.15670585614E+02 -0.39453048300E+01  0.69105942528E+02  0.70970162578E+02  0.00000000000E+00 0. -1.
        -12    1    6    6    0    0  0.31941587427E+02  0.22560943946E+02 -0.10370338566E+02  0.40457448277E+02  0.00000000000E+00 0.  1.
         -5    1    5    5    0  503 -0.51324425767E+02  0.68942119526E+02 -0.14798663385E+02  0.87340156647E+02  0.47000000000E+01 0.  1.
<mgrwt>
<rscale>  2 0.19367743E+03</rscale>
<asrwt>0</asrwt>
<pdfrwt beam="1">  1       21 0.20491937E-01 0.19385090E+03</pdfrwt>
<pdfrwt beam="2">  1       21 0.13305583E+00 0.19385090E+03</pdfrwt>
<totfact> 0.89826191E+03</totfact>
</mgrwt>
</event>
<event>
12    1  0.1441827E-001  0.1970104E+03  0.7546771E-02  0.1152900E+00
         21   -1    0    0  504  503  0.00000000000E+00  0.00000000000E+00  0.12027884460E+04  0.12027884460E+04  0.00000000000E+00 0. -1.
         21   -1    0    0  502  504 -0.00000000000E+00 -0.00000000000E+00 -0.38371195492E+02  0.38371195492E+02  0.00000000000E+00 0. -1.
          6    2    1    2  502    0 -0.87401059470E+02 -0.11042718026E+02  0.32204815251E+03  0.37605919474E+03  0.17304513457E+03 0.  0.
         24    2    3    3    0    0 -0.46379205976E+02 -0.17107394175E+02  0.32070354182E+03  0.33430430594E+03  0.80404686144E+02 0.  0.
         -6    2    1    2    0  503  0.87401059470E+02  0.11042718026E+02  0.84236909799E+03  0.86510044674E+03  0.17621634114E+03 0.  0.
        -24    2    5    5    0    0  0.29685276667E+02  0.71156900730E+02  0.53800861687E+03  0.54950225439E+03  0.80962556667E+02 0.  0.
          2    1    4    4  501    0 -0.42712918916E+02 -0.13582298491E+02  0.67354816865E+02  0.80904534048E+02  0.00000000000E+00 0. -1.
         -1    1    4    4    0  501 -0.36662870602E+01 -0.35250956843E+01  0.25334872495E+03  0.25339977189E+03  0.00000000000E+00 0.  1.
          5    1    3    3  502    0 -0.41021853494E+02  0.60646761491E+01  0.13446106904E+01  0.41754888801E+02  0.47000000000E+01 0. -1.
         13    1    6    6    0    0  0.31768061792E+02  0.17659275676E+02  0.74304781767E+02  0.82717956702E+02  0.00000000000E+00 0. -1.
        -14    1    6    6    0    0 -0.20827851249E+01  0.53497625054E+02  0.46370383510E+03  0.46678429769E+03  0.00000000000E+00 0.  1.
         -5    1    5    5    0  503  0.57715782803E+02 -0.60114182704E+02  0.30436048112E+03  0.31559819235E+03  0.47000000000E+01 0.  1.
<mgrwt>
<rscale>  2 0.19629869E+03</rscale>
<asrwt>0</asrwt>
<pdfrwt beam="1">  1       21 0.18504435E+00 0.19701037E+03</pdfrwt>
<pdfrwt beam="2">  1       21 0.59032618E-02 0.19701037E+03</pdfrwt>
<totfact> 0.34009939E+04</totfact>
</mgrwt>
</event>
<event>
12    1  0.1441827E-001  0.1864459E+03  0.7546771E-02  0.1162830E+00
         21   -1    0    0  504  503  0.00000000000E+00  0.00000000000E+00  0.31599234209E+03  0.31599234209E+03  0.00000000000E+00 0.  1.
         21   -1    0    0  502  504 -0.00000000000E+00 -0.00000000000E+00 -0.15375320837E+03  0.15375320837E+03  0.00000000000E+00 0.  1.
          6    2    1    2  502    0 -0.53350747699E+02 -0.37023782735E+02 -0.48849510669E+02  0.18810658616E+03  0.16964890303E+03 0.  0.
         24    2    3    3    0    0 -0.64799263425E+02 -0.20868443171E+01  0.24791976596E+02  0.10566377675E+03  0.79667384500E+02 0.  0.
         -6    2    1    2    0  503  0.53350747699E+02  0.37023782735E+02  0.21108864439E+03  0.28163896430E+03  0.17477135821E+03 0.  0.
        -24    2    5    5    0    0  0.36404481518E+02 -0.41102022295E+02  0.59944210877E+02  0.11059058772E+03  0.74982045600E+02 0.  0.
          4    1    4    4  501    0 -0.23251391529E+02  0.15378456496E+02  0.47591914061E+02  0.55155366160E+02  0.00000000000E+00 0. -1.
         -3    1    4    4    0  501 -0.41547871895E+02 -0.17465300814E+02 -0.22799937465E+02  0.50508410586E+02  0.00000000000E+00 0.  1.
          5    1    3    3  502    0  0.11448515726E+02 -0.34936938418E+02 -0.73641487264E+02  0.82442809419E+02  0.47000000000E+01 0. -1.
         13    1    6    6    0    0  0.55570515415E+02 -0.11490761849E+02  0.29292224544E+02  0.63860427576E+02  0.00000000000E+00 0. -1.
        -14    1    6    6    0    0 -0.19166033897E+02 -0.29611260447E+02  0.30651986332E+02  0.46730160140E+02  0.00000000000E+00 0.  1.
         -5    1    5    5    0  503  0.16946266181E+02  0.78125805030E+02  0.15114443351E+03  0.17104837658E+03  0.47000000000E+01 0.  1.
<mgrwt>
<rscale>  2 0.18523598E+03</rscale>
<asrwt>0</asrwt>
<pdfrwt beam="1">  1       21 0.48614207E-01 0.18644595E+03</pdfrwt>
<pdfrwt beam="2">  1       21 0.23654340E-01 0.18644595E+03</pdfrwt>
<totfact> 0.68169495E+04</totfact>
</mgrwt>
</event>
<event>
12    1  0.1441827E-001  0.1782223E+03  0.7546771E-02  0.1170478E+00
         21   -1    0    0  504  503  0.00000000000E+00  0.00000000000E+00  0.76224489215E+03  0.76224489215E+03  0.00000000000E+00 0.  1.
         21   -1    0    0  502  504 -0.00000000000E+00 -0.00000000000E+00 -0.74734061720E+02  0.74734061720E+02  0.00000000000E+00 0.  1.
          6    2    1    2  502    0  0.40939248064E+02  0.19761210133E+02  0.63732694459E+02  0.18927506608E+03  0.17232720865E+03 0.  0.
         24    2    3    3    0    0  0.86528083877E+02  0.15919178116E+02  0.13576509915E+02  0.12122481988E+03  0.82283690982E+02 0.  0.
         -6    2    1    2    0  503 -0.40939248064E+02 -0.19761210133E+02  0.62377813597E+03  0.64770388778E+03  0.16838834841E+03 0.  0.
        -24    2    5    5    0    0 -0.57094716227E+02  0.17710719879E+02  0.22766847610E+03  0.24947016579E+03  0.82637475701E+02 0.  0.
          2    1    4    4  501    0 -0.19943919454E+01  0.23232452101E+02  0.21928307691E+02  0.32008984802E+02  0.00000000000E+00 0. -1.
         -1    1    4    4    0  501  0.88522475823E+02 -0.73132739854E+01 -0.83517977759E+01  0.89215835076E+02  0.00000000000E+00 0.  1.
          5    1    3    3  502    0 -0.45588835813E+02  0.38420320176E+01  0.50156184544E+02  0.68050246207E+02  0.47000000000E+01 0. -1.
         11    1    6    6    0    0 -0.27911065252E+02  0.49056831751E+02  0.15699538684E+03  0.16683270601E+03  0.00000000000E+00 0. -1.
        -12    1    6    6    0    0 -0.29183650975E+02 -0.31346111872E+02  0.70673089258E+02  0.82637459781E+02  0.00000000000E+00 0.  1.
         -5    1    5    5    0  503  0.16155468163E+02 -0.37471930012E+02  0.39610965987E+03  0.39823372200E+03  0.47000000000E+01 0.  1.
<mgrwt>
<rscale>  2 0.17726318E+03</rscale>
<asrwt>0</asrwt>
<pdfrwt beam="1">  1       21 0.11726844E+00 0.17822232E+03</pdfrwt>
<pdfrwt beam="2">  1       21 0.11497549E-01 0.17822232E+03</pdfrwt>
<totfact> 0.35692721E+04</totfact>
</mgrwt>
</event>
<event>
12    1  0.1441827E-001  0.1948377E+03  0.7546771E-02  0.1154250E+00
         21   -1    0    0  504  503  0.00000000000E+00  0.00000000000E+00  0.17086826367E+03  0.17086826367E+03  0.00000000000E+00 0.  1.
         21   -1    0    0  502  504 -0.00000000000E+00 -0.00000000000E+00 -0.36860528613E+03  0.36860528613E+03  0.00000000000E+00 0.  1.
          6    2    1    2  502    0 -0.14149772770E+02 -0.89995147064E+02 -0.26906915110E+03  0.33198864775E+03  0.17181068534E+03 0.  0.
         24    2    3    3    0    0  0.34920561481E+02 -0.53943558745E+02 -0.72489129187E+02  0.12614062192E+03  0.80792508952E+02 0.  0.
         -6    2    1    2    0  503  0.14149772770E+02  0.89995147064E+02  0.71332128645E+02  0.20748490204E+03  0.17222766745E+03 0.  0.
        -24    2    5    5    0    0  0.49997381325E+02  0.11482757580E+03  0.28336448742E+02  0.14606488050E+03  0.69619571122E+02 0.  0.
          4    1    4    4  501    0  0.35056486132E+02 -0.43064864472E+02 -0.27923270289E+01  0.55599791926E+02  0.00000000000E+00 0. -1.
         -3    1    4    4    0  501 -0.13592465155E+00 -0.10878694273E+02 -0.69696802158E+02  0.70540829990E+02  0.00000000000E+00 0.  1.
          5    1    3    3  502    0 -0.49070334251E+02 -0.36051588319E+02 -0.19658002192E+03  0.20584802584E+03  0.47000000000E+01 0. -1.
         11    1    6    6    0    0 -0.16014470163E+01  0.78811978914E+02  0.26324774736E+02  0.83107679656E+02  0.00000000000E+00 0. -1.
        -12    1    6    6    0    0  0.51598828341E+02  0.36015596890E+02  0.20116740058E+01  0.62957200842E+02  0.00000000000E+00 0.  1.
         -5    1    5    5    0  503 -0.35847608555E+02 -0.24832428740E+02  0.42995679903E+02  0.61420021544E+02  0.47000000000E+01 0.  1.
<mgrwt>
<rscale>  2 0.19474547E+03</rscale>
<asrwt>0</asrwt>
<pdfrwt beam="1">  1       21 0.26287425E-01 0.19483766E+03</pdfrwt>
<pdfrwt beam="2">  1       21 0.56708505E-01 0.19483766E+03</pdfrwt>
<totfact> 0.40176465E+04</totfact>
</mgrwt>
</event>
<event>
12    1  0.1441827E-001  0.2360254E+03  0.7546771E-02  0.1122493E+00
         21   -1    0    0  504  503  0.00000000000E+00  0.00000000000E+00  0.26522194077E+03  0.26522194077E+03  0.00000000000E+00 0.  1.
         21   -1    0    0  502  504 -0.00000000000E+00 -0.00000000000E+00 -0.22032315331E+03  0.22032315331E+03  0.00000000000E+00 0. -1.
          6    2    1    2  502    0  0.11821977481E+03  0.10790366991E+03 -0.30296592304E+02  0.23796187184E+03  0.17346138419E+03 0.  0.
         24    2    3    3    0    0  0.39357072115E+02  0.11343729186E+03  0.19765207036E+02  0.14426971313E+03  0.77498957469E+02 0.  0.
         -6    2    1    2    0  503 -0.11821977481E+03 -0.10790366991E+03  0.75195379766E+02  0.24758322225E+03  0.17327431911E+03 0.  0.
        -24    2    5    5    0    0 -0.94489218338E+02 -0.13267705187E+03  0.20359708600E+02  0.18273030715E+03  0.80277237996E+02 0.  0.
          2    1    4    4  501    0 -0.22574159158E+02  0.17366449399E+02  0.15369009092E+01  0.28522767938E+02  0.00000000000E+00 0. -1.
         -1    1    4    4    0  501  0.61931231273E+02  0.96070842461E+02  0.18228306127E+02  0.11574694520E+03  0.00000000000E+00 0.  1.
          5    1    3    3  502    0  0.78862702700E+02 -0.55336219538E+01 -0.50061799340E+02  0.93692158701E+02  0.47000000000E+01 0. -1.
         11    1    6    6    0    0 -0.69359433041E+01 -0.16240054059E+02 -0.24587927542E+02  0.30272311543E+02  0.00000000000E+00 0. -1.
        -12    1    6    6    0    0 -0.87553275033E+02 -0.11643699782E+03  0.44947636141E+02  0.15245799561E+03  0.00000000000E+00 0.  1.
         -5    1    5    5    0  503 -0.23730556477E+02  0.24773381968E+02  0.54835671166E+02  0.64852915101E+02  0.47000000000E+01 0.  1.
<mgrwt>
<rscale>  2 0.23599099E+03</rscale>
<asrwt>0</asrwt>
<pdfrwt beam="1">  1       21 0.40803375E-01 0.23602536E+03</pdfrwt>
<pdfrwt beam="2">  1       21 0.33895870E-01 0.23602536E+03</pdfrwt>
<totfact> 0.47552714E+04</totfact>
</mgrwt>
</event>
<event>
12    1  0.1441827E-001  0.1796644E+03  0.7546771E-02  0.1169835E+00
         21   -1    0    0  504  503  0.00000000000E+00  0.00000000000E+00  0.12253035836E+04  0.12253035836E+04  0.00000000000E+00 0.  1.
         21   -1    0    0  502  504 -0.00000000000E+00 -0.00000000000E+00 -0.26961910831E+02  0.26961910831E+02  0.00000000000E+00 0.  1.
          6    2    1    2  502    0 -0.47261172655E+02 -0.70694046538E+01  0.45678762512E+03  0.49085052146E+03  0.17319268180E+03 0.  0.
         24    2    3    3    0    0 -0.29053776649E+02 -0.11078142407E+02  0.46273609880E+03  0.47072457833E+03  0.80561059653E+02 0.  0.
         -6    2    1    2    0  503  0.47261172655E+02  0.70694046538E+01  0.74155404762E+03  0.76141497294E+03  0.16603240817E+03 0.  0.
        -24    2    5    5    0    0  0.38913533449E+02 -0.88990491499E+00  0.74354117487E+03  0.74880258365E+03  0.79603866323E+02 0.  0.
          2    1    4    4  501    0  0.24258636964E+02 -0.37727407070E+01  0.25326999365E+03  0.25445707835E+03  0.00000000000E+00 0. -1.
         -1    1    4    4    0  501 -0.53312413613E+02 -0.73054016998E+01  0.20946610515E+03  0.21626749998E+03  0.00000000000E+00 0.  1.
          5    1    3    3  502    0 -0.18207396006E+02  0.40087377530E+01 -0.59484736796E+01  0.20125943129E+02  0.47000000000E+01 0. -1.
         13    1    6    6    0    0 -0.20084392510E+02  0.10044369933E+02  0.10102133876E+03  0.10348711550E+03  0.00000000000E+00 0. -1.
        -14    1    6    6    0    0  0.58997925959E+02 -0.10934274848E+02  0.64251983611E+03  0.64531546815E+03  0.00000000000E+00 0.  1.
         -5    1    5    5    0  503  0.83476392065E+01  0.79593095688E+01 -0.19871272499E+01  0.12612389299E+02  0.47000000000E+01 0.  1.
<mgrwt>
<rscale>  2 0.17791609E+03</rscale>
<asrwt>0</asrwt>
<pdfrwt beam="1">  1       21 0.18850820E+00 0.17966441E+03</pdfrwt>
<pdfrwt beam="2">  1       21 0.41479872E-02 0.17966441E+03</pdfrwt>
<totfact> 0.59293344E+04</totfact>
</mgrwt>
</event>
<event>
12    1  0.1441827E-001  0.2314848E+03  0.7546771E-02  0.1126380E+00
         21   -1    0    0  504  503  0.00000000000E+00  0.00000000000E+00  0.84963252878E+02  0.84963252878E+02  0.00000000000E+00 0. -1.
         21   -1    0    0  502  504 -0.00000000000E+00 -0.00000000000E+00 -0.15892531830E+04  0.15892531830E+04  0.00000000000E+00 0.  1.
          6    2    1    2  502    0  0.83508165499E+02 -0.12917314762E+03 -0.14034893853E+04  0.14217368121E+04  0.16701434849E+03 0.  0.
         24    2    3    3    0    0  0.63318047141E+02 -0.15006903246E+02 -0.84435585578E+03  0.85069043394E+03  0.80641310547E+02 0.  0.
         -6    2    1    2    0  503 -0.83508165499E+02  0.12917314762E+03 -0.10080054487E+03  0.25247962378E+03  0.17299102522E+03 0.  0.
        -24    2    5    5    0    0 -0.87033244834E+01  0.12192764087E+03 -0.28521032468E+02  0.14810204227E+03  0.78604504754E+02 0.  0.
          2    1    4    4  501    0  0.59866731953E+02  0.23243606259E+02 -0.46939735553E+03  0.47377016390E+03  0.00000000000E+00 0. -1.
         -1    1    4    4    0  501  0.34513151883E+01 -0.38250509505E+02 -0.37495850025E+03  0.37692027004E+03  0.00000000000E+00 0.  1.
          5    1    3    3  502    0  0.20190118358E+02 -0.11416624437E+03 -0.55913352948E+03  0.57104637817E+03  0.47000000000E+01 0. -1.
         11    1    6    6    0    0 -0.34581871412E+02  0.11246860682E+03 -0.25372273683E+02  0.12036962085E+03  0.00000000000E+00 0. -1.
        -12    1    6    6    0    0  0.25878546929E+02  0.94590340441E+01 -0.31487587849E+01  0.27732421425E+02  0.00000000000E+00 0.  1.
         -5    1    5    5    0  503 -0.74804841016E+02  0.72455067505E+01 -0.72279512404E+02  0.10437758150E+03  0.47000000000E+01 0.  1.
<mgrwt>
<rscale>  2 0.23036883E+03</rscale>
<asrwt>0</asrwt>
<pdfrwt beam="1">  1       21 0.13071271E-01 0.23148480E+03</pdfrwt>
<pdfrwt beam="2">  1       21 0.24450047E+00 0.23148480E+03</pdfrwt>
<totfact> 0.34696850E+03</totfact>
</mgrwt>
</event>
<event>
12    1  0.1441827E-001  0.1780430E+03  0.7546771E-02  0.1170283E+00
         21   -1    0    0  504  503  0.00000000000E+00  0.00000000000E+00  0.17453003923E+03  0.17453003923E+03  0.00000000000E+00 0.  1.
         21   -1    0    0  502  504 -0.00000000000E+00 -0.00000000000E+00 -0.26644396948E+03  0.26644396948E+03  0.00000000000E+00 0.  1.
          6    2    1    2  502    0 -0.23242276731E+01  0.35475222320E+02 -0.17186892545E+03  0.24580197217E+03  0.17209238378E+03 0.  0.
         24    2    3    3    0    0  0.35827487875E+02  0.78258221235E+02 -0.12748515214E+03  0.17315248677E+03  0.79506990767E+02 0.  0.
         -6    2    1    2    0  503  0.23242276731E+01 -0.35475222320E+02  0.79954995193E+02  0.19517203654E+03  0.17445752824E+03 0.  0.
        -24    2    5    5    0    0  0.32296145662E+02  0.12754652620E+02  0.10136796888E+03  0.13430297916E+03  0.80969765397E+02 0.  0.
          4    1    4    4  501    0 -0.23097043854E+02  0.36098853778E+02 -0.33018337605E+02  0.54100011988E+02  0.00000000000E+00 0. -1.
         -3    1    4    4    0  501  0.58924531729E+02  0.42159367457E+02 -0.94466814531E+02  0.11905247478E+03  0.00000000000E+00 0.  1.
          5    1    3    3  502    0 -0.38151715548E+02 -0.42782998914E+02 -0.44383773310E+02  0.72649485398E+02  0.47000000000E+01 0. -1.
         11    1    6    6    0    0  0.23137228677E+02  0.30737072252E+02  0.86741114795E+01  0.39437788622E+02  0.00000000000E+00 0. -1.
        -12    1    6    6    0    0  0.91589169848E+01 -0.17982419632E+02  0.92693857398E+02  0.94865190536E+02  0.00000000000E+00 0.  1.
         -5    1    5    5    0  503 -0.29971917989E+02 -0.48229874940E+02 -0.21412973684E+02  0.60869057383E+02  0.47000000000E+01 0.  1.
<mgrwt>
<rscale>  2 0.17746097E+03</rscale>
<asrwt>0</asrwt>
<pdfrwt beam="1">  1       21 0.26850775E-01 0.17804304E+03</pdfrwt>
<pdfrwt beam="2">  1       21 0.40991380E-01 0.17804304E+03</pdfrwt>
<totfact> 0.76180123E+04</totfact>
</mgrwt>
</event>
<event>
12    1  0.1441827E-001  0.1859001E+03  0.7546771E-02  0.1162458E+00
         21   -1    0    0  504  503  0.00000000000E+00  0.00000000000E+00  0.62639866400E+03  0.62639866400E+03  0.00000000000E+00 0. -1.
         21   -1    0    0  502  504 -0.00000000000E+00 -0.00000000000E+00 -0.11411478726E+03  0.11411478726E+03  0.00000000000E+00 0. -1.
          6    2    1    2  502    0 -0.42206309311E+02  0.52858315190E+02 -0.10316597400E+02  0.18618611087E+03  0.17315733213E+03 0.  0.
         24    2    3    3    0    0  0.32973048357E+02 -0.72557587941E+01  0.95999237268E+01  0.87776784464E+02  0.80453324367E+02 0.  0.
         -6    2    1    2    0  503  0.42206309311E+02 -0.52858315190E+02  0.52260047414E+03  0.55432734039E+03  0.17202375040E+03 0.  0.
        -24    2    5    5    0    0  0.61830607225E+02  0.27201471341E+01  0.45692136671E+03  0.46595362430E+03  0.67120946434E+02 0.  0.
          2    1    4    4  501    0  0.34637314793E+02  0.31406726598E+02 -0.35869130693E+01  0.46893411020E+02  0.00000000000E+00 0. -1.
         -1    1    4    4    0  501 -0.16642664364E+01 -0.38662485392E+02  0.13186836796E+02  0.40883373444E+02  0.00000000000E+00 0.  1.
          5    1    3    3  502    0 -0.75179357668E+02  0.60114073985E+02 -0.19916521127E+02  0.98409326408E+02  0.47000000000E+01 0. -1.
         11    1    6    6    0    0  0.47400424463E+02  0.24362993264E+02  0.17761332989E+03  0.18543691821E+03  0.00000000000E+00 0. -1.
        -12    1    6    6    0    0  0.14430182762E+02 -0.21642846130E+02  0.27930803682E+03  0.28051670609E+03  0.00000000000E+00 0.  1.
         -5    1    5    5    0  503 -0.19624297914E+02 -0.55578462325E+02  0.65679107429E+02  0.88373716091E+02  0.47000000000E+01 0.  1.
<mgrwt>
<rscale>  2 0.18563565E+03</rscale>
<asrwt>0</asrwt>
<pdfrwt beam="1">  1       21 0.96369023E-01 0.18590007E+03</pdfrwt>
<pdfrwt beam="2">  1       21 0.17556121E-01 0.18590007E+03</pdfrwt>
<totfact> 0.26439162E+04</totfact>
</mgrwt>
</event>
<event>
12    1  0.1441827E-001  0.1807101E+03  0.7546771E-02  0.1167850E+00
         21   -1    0    0  504  503  0.00000000000E+00  0.00000000000E+00  0.42217915237E+02  0.42217915237E+02  0.00000000000E+00 0.  1.
         21   -1    0    0  502  504 -0.00000000000E+00 -0.00000000000E+00 -0.20886436770E+04  0.20886436770E+04  0.00000000000E+00 0.  1.
          6    2    1    2  502    0  0.41289195701E+02 -0.26067206861E+02 -0.18696174260E+04  0.18780428356E+04  0.17085454634E+03 0.  0.
         24    2    3    3    0    0  0.68581787028E+02 -0.54727524758E+02 -0.91860316926E+03  0.92619384244E+03  0.79402063727E+02 0.  0.
         -6    2    1    2    0  503 -0.41289195701E+02  0.26067206861E+02 -0.17680833583E+03  0.25281875665E+03  0.17398804309E+03 0.  0.
        -24    2    5    5    0    0 -0.34173428122E+02 -0.27049794199E+02 -0.17648112026E+03  0.19902055018E+03  0.81019004114E+02 0.  0.
          2    1    4    4  501    0  0.92125327202E+01  0.16222843995E+02 -0.65995727479E+02  0.68581976290E+02  0.00000000000E+00 0. -1.
         -1    1    4    4    0  501  0.59369254308E+02 -0.70950368753E+02 -0.85260744178E+03  0.85761186615E+03  0.00000000000E+00 0.  1.
          5    1    3    3  502    0 -0.27292591327E+02  0.28660317897E+02 -0.95101425671E+03  0.95184899319E+03  0.47000000000E+01 0. -1.
         13    1    6    6    0    0 -0.27036796803E+02  0.22459133998E+02 -0.11216278809E+03  0.11754102311E+03  0.00000000000E+00 0. -1.
        -14    1    6    6    0    0 -0.71366313192E+01 -0.49508928197E+02 -0.64318332173E+02  0.81479527069E+02  0.00000000000E+00 0.  1.
         -5    1    5    5    0  503 -0.71157675788E+01  0.53117001061E+02 -0.32721557242E+00  0.53798206475E+02  0.47000000000E+01 0.  1.
<mgrwt>
<rscale>  2 0.17995160E+03</rscale>
<asrwt>0</asrwt>
<pdfrwt beam="1">  1       21 0.64950657E-02 0.18071009E+03</pdfrwt>
<pdfrwt beam="2">  1       21 0.32132971E+00 0.18071009E+03</pdfrwt>
<totfact> 0.44925571E+03</totfact>
</mgrwt>
</event>
<event>
12    1  0.1441827E-001  0.1907253E+03  0.7546771E-02  0.1158048E+00
         21   -1    0    0  504  503  0.00000000000E+00  0.00000000000E+00  0.94066706540E+02  0.94066706540E+02  0.00000000000E+00 0. -1.
         21   -1    0    0  502  504 -0.00000000000E+00 -0.00000000000E+00 -0.44482869226E+03  0.44482869226E+03  0.00000000000E+00 0. -1.
          6    2    1    2  502    0 -0.34256086021E+02  0.72636017039E+02 -0.27499132721E+03  0.33465856015E+03  0.17299321212E+03 0.  0.
         24    2    3    3    0    0  0.10179766972E+02 -0.23344503886E+02 -0.99515120149E+02  0.12971760603E+03  0.79213664603E+02 0.  0.
         -6    2    1    2    0  503  0.34256086021E+02 -0.72636017039E+02 -0.75770658504E+02  0.20423683865E+03  0.17181974034E+03 0.  0.
        -24    2    5    5    0    0  0.75546692032E+02 -0.95211895399E+01 -0.64386498525E+02  0.12781639182E+03  0.79959071390E+02 0.  0.
          2    1    4    4  501    0  0.42411685127E+02 -0.21684174262E+01 -0.66742682109E+02  0.79107766272E+02  0.00000000000E+00 0. -1.
         -1    1    4    4    0  501 -0.32231918155E+02 -0.21176086459E+02 -0.32772438040E+02  0.50609839763E+02  0.00000000000E+00 0.  1.
          5    1    3    3  502    0 -0.44435852994E+02  0.95980520925E+02 -0.17547620706E+03  0.20494095412E+03  0.47000000000E+01 0. -1.
         11    1    6    6    0    0  0.21251456489E+02  0.11836639628E+02  0.15535823232E+02  0.28863337369E+02  0.00000000000E+00 0. -1.
        -12    1    6    6    0    0  0.54295235544E+02 -0.21357829168E+02 -0.79922321757E+02  0.98953054448E+02  0.00000000000E+00 0.  1.
         -5    1    5    5    0  503 -0.41290606011E+02 -0.63114827500E+02 -0.11384159978E+02  0.76420446828E+02  0.47000000000E+01 0.  1.
<mgrwt>
<rscale>  2 0.19045876E+03</rscale>
<asrwt>0</asrwt>
<pdfrwt beam="1">  1       21 0.14471801E-01 0.19072525E+03</pdfrwt>
<pdfrwt beam="2">  1       21 0.68435182E-01 0.19072525E+03</pdfrwt>
<totfact> 0.81606827E+04</totfact>
</mgrwt>
</event>
<event>
12    1  0.1441827E-001  0.2015690E+03  0.7546771E-02  0.1148511E+00
         21   -1    0    0  504  503  0.00000000000E+00  0.00000000000E+00  0.10411495277E+04  0.10411495277E+04  0.00000000000E+00 0.  1.
         21   -1    0    0  502  504 -0.00000000000E+00 -0.00000000000E+00 -0.38962785050E+02  0.38962785050E+02  0.00000000000E+00 0. -1.
          6    2    1    2  502    0 -0.85323961492E+02  0.57402992433E+02  0.51415765881E+03  0.55225733666E+03  0.17336316170E+03 0.  0.
         24    2    3    3    0    0 -0.10214757128E+03  0.63035395820E+02  0.51373676236E+03  0.53389909687E+03  0.81946306763E+02 0.  0.
         -6    2    1    2    0  503  0.85323961492E+02 -0.57402992433E+02  0.48802908384E+03  0.52785497609E+03  0.17286760011E+03 0.  0.
        -24    2    5    5    0    0  0.11106874882E+03 -0.20195354699E+02  0.44116273429E+03  0.46254228896E+03  0.81096804087E+02 0.  0.
          2    1    4    4  501    0 -0.10997577415E+02  0.30731578660E+02  0.26536863587E+03  0.26736845277E+03  0.00000000000E+00 0. -1.
         -1    1    4    4    0  501 -0.91149993865E+02  0.32303817160E+02  0.24836812650E+03  0.26653064410E+03  0.00000000000E+00 0.  1.
          5    1    3    3  502    0  0.16823609788E+02 -0.56324033868E+01  0.42089644804E+00  0.18358239786E+02  0.47000000000E+01 0. -1.
         13    1    6    6    0    0  0.37519499924E+02 -0.33293281399E+02  0.85585959785E+02  0.99202378868E+02  0.00000000000E+00 0. -1.
        -14    1    6    6    0    0  0.73549248900E+02  0.13097926701E+02  0.35557677451E+03  0.36333991009E+03  0.00000000000E+00 0.  1.
         -5    1    5    5    0  503 -0.25744787331E+02 -0.37207637734E+02  0.46866349548E+02  0.65312687133E+02  0.47000000000E+01 0.  1.
<mgrwt>
<rscale>  2 0.20146242E+03</rscale>
<asrwt>0</asrwt>
<pdfrwt beam="1">  1       21 0.16017683E+00 0.20156901E+03</pdfrwt>
<pdfrwt beam="2">  1       21 0.59942754E-02 0.20156901E+03</pdfrwt>
<totfact> 0.49303759E+04</totfact>
</mgrwt>
</event>
<event>
12    1  0.1441827E-001  0.1995520E+03  0.7546771E-02  0.1155237E+00
         21   -1    0    0  504  503  0.00000000000E+00  0.00000000000E+00  0.45011758401E+03  0.45011758401E+03  0.00000000000E+00 0.  1.
         21   -1    0    0  502  504 -0.00000000000E+00 -0.00000000000E+00 -0.91373916365E+02  0.91373916365E+02  0.00000000000E+00 0.  1.
          6    2    1    2  502    0 -0.42315375600E+02  0.83377564052E+01  0.69351453067E+02  0.18996786724E+03  0.17151693021E+03 0.  0.
         24    2    3    3    0    0 -0.62460774325E+02 -0.37843109057E+02  0.81105450674E+02  0.13801831590E+03  0.84483798233E+02 0.  0.
         -6    2    1    2    0  503  0.42315375600E+02 -0.83377564052E+01  0.28939221458E+03  0.35152363314E+03  0.19483557580E+03 0.  0.
        -24    2    5    5    0    0  0.61747961112E+02  0.55110050111E+02  0.24640162435E+03  0.27231801225E+03  0.81199821362E+02 0.  0.
          2    1    4    4  501    0 -0.40395850397E+02 -0.43067775454E+02  0.94684908265E+02  0.11158803639E+03  0.00000000000E+00 0. -1.
         -1    1    4    4    0  501 -0.22064923927E+02  0.52246663967E+01 -0.13579457591E+02  0.26430279517E+02  0.00000000000E+00 0.  1.
          5    1    3    3  502    0  0.20145398724E+02  0.46180865462E+02 -0.11753997607E+02  0.51949551339E+02  0.47000000000E+01 0. -1.
         13    1    6    6    0    0  0.15120970190E+02 -0.18285228243E+02  0.25068209093E+02  0.34516784592E+02  0.00000000000E+00 0. -1.
        -14    1    6    6    0    0  0.46626990922E+02  0.73395278354E+02  0.22133341525E+03  0.23780122766E+03  0.00000000000E+00 0.  1.
         -5    1    5    5    0  503 -0.19432585511E+02 -0.63447806516E+02  0.42990590233E+02  0.79205620886E+02  0.47000000000E+01 0.  1.
<mgrwt>
<rscale>  2 0.19361868E+03</rscale>
<asrwt>0</asrwt>
<pdfrwt beam="1">  1       21 0.69248858E-01 0.19955203E+03</pdfrwt>
<pdfrwt beam="2">  1       21 0.14057526E-01 0.19955203E+03</pdfrwt>
<totfact> 0.83494923E+04</totfact>
</mgrwt>
</event>
<event>
12    1  0.1441827E-001  0.2002010E+03  0.7546771E-02  0.1150034E+00
         21   -1    0    0  504  503  0.00000000000E+00  0.00000000000E+00  0.43111815242E+03  0.43111815242E+03  0.00000000000E+00 0.  1.
         21   -1    0    0  502  504 -0.00000000000E+00 -0.00000000000E+00 -0.12005816357E+03  0.12005816357E+03  0.00000000000E+00 0.  1.
          6    2    1    2  502    0 -0.94684213970E+02  0.10220943292E+02  0.22849112505E+02  0.20150064009E+03  0.17609900045E+03 0.  0.
         24    2    3    3    0    0 -0.81247334686E+02 -0.41940684214E+02 -0.30221431349E+02  0.12573813133E+03  0.80849195249E+02 0.  0.
         -6    2    1    2    0  503  0.94684213970E+02 -0.10220943292E+02  0.28821087634E+03  0.34967567589E+03  0.17360299829E+03 0.  0.
        -24    2    5    5    0    0  0.91193408570E+02  0.54035538048E+02  0.20866745091E+03  0.24725337536E+03  0.79724835660E+02 0.  0.
          2    1    4    4  501    0 -0.79868050659E+02 -0.41249380710E+02  0.54284320242E+01  0.90054898807E+02  0.00000000000E+00 0. -1.
         -1    1    4    4    0  501 -0.13792840273E+01 -0.69130350418E+00 -0.35649863373E+02  0.35683232525E+02  0.00000000000E+00 0.  1.
          5    1    3    3  502    0 -0.13436879284E+02  0.52161627506E+02  0.53070543853E+02  0.75762508762E+02  0.47000000000E+01 0. -1.
         11    1    6    6    0    0  0.18199771282E+02 -0.65460888105E+01  0.14975706976E+01  0.19399115223E+02  0.00000000000E+00 0. -1.
        -12    1    6    6    0    0  0.72993637288E+02  0.60581626858E+02  0.20716988021E+03  0.22785426014E+03  0.00000000000E+00 0.  1.
         -5    1    5    5    0  503  0.34908053996E+01 -0.64256481340E+02  0.79543425432E+02  0.10242230053E+03  0.47000000000E+01 0.  1.
<mgrwt>
<rscale>  2 0.19965071E+03</rscale>
<asrwt>0</asrwt>
<pdfrwt beam="1">  1       21 0.66325869E-01 0.20020096E+03</pdfrwt>
<pdfrwt beam="2">  1       21 0.18470487E-01 0.20020096E+03</pdfrwt>
<totfact> 0.55622110E+04</totfact>
</mgrwt>
</event>
<event>
12    1  0.1441827E-001  0.2000981E+03  0.7546771E-02  0.1150061E+00
         21   -1    0    0  504  503  0.00000000000E+00  0.00000000000E+00  0.40195031990E+03  0.40195031990E+03  0.00000000000E+00 0. -1.
         21   -1    0    0  502  504 -0.00000000000E+00 -0.00000000000E+00 -0.14005852927E+03  0.14005852927E+03  0.00000000000E+00 0.  1.
          6    2    1    2  502    0 -0.31823753318E+02  0.94073826538E+02 -0.15940816181E+02  0.20073201565E+03  0.17371412255E+03 0.  0.
         24    2    3    3    0    0 -0.56279825347E+02  0.94306131920E+02 -0.60992710067E+02  0.14925467532E+03  0.80596415339E+02 0.  0.
         -6    2    1    2    0  503  0.31823753318E+02 -0.94073826538E+02  0.27783260680E+03  0.34127683352E+03  0.17151175930E+03 0.  0.
        -24    2    5    5    0    0 -0.19535429795E+02 -0.79685377694E+02  0.26085120126E+03  0.28510521004E+03  0.80686053040E+02 0.  0.
          2    1    4    4  501    0 -0.70931730296E+02  0.93266213445E+02 -0.40366719824E+02  0.12393292138E+03  0.00000000000E+00 0. -1.
         -1    1    4    4    0  501  0.14651904949E+02  0.10399184756E+01 -0.20625990244E+02  0.25321753940E+02  0.00000000000E+00 0.  1.
          5    1    3    3  502    0  0.24456072029E+02 -0.23230538213E+00  0.45051893887E+02  0.51477340332E+02  0.47000000000E+01 0. -1.
         11    1    6    6    0    0 -0.87849110807E+01 -0.36105851075E+01  0.14960729953E+03  0.14990848895E+03  0.00000000000E+00 0. -1.
        -12    1    6    6    0    0 -0.10750518714E+02 -0.76074792586E+02  0.11124390174E+03  0.13519672109E+03  0.00000000000E+00 0.  1.
         -5    1    5    5    0  503  0.51359183113E+02 -0.14388448844E+02  0.16981405541E+02  0.56171623480E+02  0.47000000000E+01 0.  1.
<mgrwt>
<rscale>  2 0.19961910E+03</rscale>
<asrwt>0</asrwt>
<pdfrwt beam="1">  1       21 0.61838510E-01 0.20009806E+03</pdfrwt>
<pdfrwt beam="2">  1       21 0.21547466E-01 0.20009806E+03</pdfrwt>
<totfact> 0.48563063E+04</totfact>
</mgrwt>
</event>
<event>
12    1  0.1441827E-001  0.1904315E+03  0.7546771E-02  0.1158303E+00
         21   -1    0    0  504  503  0.00000000000E+00  0.00000000000E+00  0.13327270175E+03  0.13327270175E+03  0.00000000000E+00 0.  1.
         21   -1    0    0  502  504 -0.00000000000E+00 -0.00000000000E+00 -0.28561346576E+03  0.28561346576E+03  0.00000000000E+00 0. -1.
          6    2    1    2  502    0 -0.69646359313E+02 -0.32977424025E+02 -0.12430376553E+03  0.22741062039E+03  0.17414372880E+03 0.  0.
         24    2    3    3    0    0 -0.76148082789E+02 -0.55799763368E+02 -0.14844975131E+03  0.19323094500E+03  0.79929502291E+02 0.  0.
         -6    2    1    2    0  503  0.69646359313E+02  0.32977424025E+02 -0.28036998484E+02  0.19147554712E+03  0.17302799195E+03 0.  0.
        -24    2    5    5    0    0  0.10517041218E+03  0.53272488128E+02 -0.43388146087E+02  0.14752562457E+03  0.77346655351E+02 0.  0.
          4    1    4    4  501    0 -0.44591093698E+01 -0.37572877324E+02 -0.94156183511E+02  0.10147409354E+03  0.00000000000E+00 0. -1.
         -3    1    4    4    0  501 -0.71688973420E+02 -0.18226886044E+02 -0.54293567797E+02  0.91756851455E+02  0.00000000000E+00 0.  1.
          5    1    3    3  502    0  0.65017234767E+01  0.22822339343E+02  0.24145985775E+02  0.34179675398E+02  0.47000000000E+01 0. -1.
         11    1    6    6    0    0  0.13701607511E+02 -0.43152524800E+01 -0.36492945229E+02  0.39218496960E+02  0.00000000000E+00 0. -1.
        -12    1    6    6    0    0  0.91468804670E+02  0.57587740608E+02 -0.68952008584E+01  0.10830712761E+03  0.00000000000E+00 0.  1.
         -5    1    5    5    0  503 -0.35524052868E+02 -0.20295064103E+02  0.15351147603E+02  0.43949922547E+02  0.47000000000E+01 0.  1.
<mgrwt>
<rscale>  2 0.19017607E+03</rscale>
<asrwt>0</asrwt>
<pdfrwt beam="1">  1       21 0.20503493E-01 0.19043152E+03</pdfrwt>
<pdfrwt beam="2">  1       21 0.43940533E-01 0.19043152E+03</pdfrwt>
<totfact> 0.10973233E+05</totfact>
</mgrwt>
</event>
<event>
12    1  0.1441827E-001  0.2254437E+03  0.7546771E-02  0.1130672E+00
         21   -1    0    0  504  503  0.00000000000E+00  0.00000000000E+00  0.28756820487E+02  0.28756820487E+02  0.00000000000E+00 0.  1.
         21   -1    0    0  502  504 -0.00000000000E+00 -0.00000000000E+00 -0.18318204935E+04  0.18318204935E+04  0.00000000000E+00 0.  1.
          6    2    1    2  502    0 -0.13918710987E+03 -0.30601460507E+02 -0.69466170297E+03  0.73032852739E+03  0.17468650608E+03 0.  0.
         24    2    3    3    0    0 -0.15792410834E+03  0.74591193257E+01 -0.60772996348E+03  0.63348380539E+03  0.83488686191E+02 0.  0.
         -6    2    1    2    0  503  0.13918710987E+03  0.30601460507E+02 -0.11084019701E+04  0.11302487866E+04  0.16910911115E+03 0.  0.
        -24    2    5    5    0    0  0.69347343365E+02 -0.42030751392E+02 -0.72891449790E+03  0.73758370959E+03  0.78343763669E+02 0.  0.
          2    1    4    4  501    0 -0.11476116665E+03  0.42185099145E+02 -0.38392247484E+03  0.40292204537E+03  0.00000000000E+00 0. -1.
         -1    1    4    4    0  501 -0.43162941690E+02 -0.34725979820E+02 -0.22380748864E+03  0.23056176001E+03  0.00000000000E+00 0.  1.
          5    1    3    3  502    0  0.18736998471E+02 -0.38060579833E+02 -0.86931739494E+02  0.96844722005E+02  0.47000000000E+01 0. -1.
         13    1    6    6    0    0 -0.20026006127E+01  0.14746352647E+02 -0.22457815846E+03  0.22507068797E+03  0.00000000000E+00 0. -1.
        -14    1    6    6    0    0  0.71349943977E+02 -0.56777104039E+02 -0.50433633944E+03  0.51251302162E+03  0.00000000000E+00 0.  1.
         -5    1    5    5    0  503  0.69839766505E+02  0.72632211899E+02 -0.37948747219E+03  0.39266507705E+03  0.47000000000E+01 0.  1.
<mgrwt>
<rscale>  2 0.22436259E+03</rscale>
<asrwt>0</asrwt>
<pdfrwt beam="1">  1       21 0.44241261E-02 0.22544373E+03</pdfrwt>
<pdfrwt beam="2">  1       21 0.28181855E+00 0.22544373E+03</pdfrwt>
<totfact> 0.13935150E+04</totfact>
</mgrwt>
</event>
<event>
12    1  0.1441827E-001  0.2026838E+03  0.7546771E-02  0.1147812E+00
         21   -1    0    0  504  503  0.00000000000E+00  0.00000000000E+00  0.31860878358E+03  0.31860878358E+03  0.00000000000E+00 0. -1.
         21   -1    0    0  502  504 -0.00000000000E+00 -0.00000000000E+00 -0.28663839894E+03  0.28663839894E+03  0.00000000000E+00 0. -1.
          6    2    1    2  502    0  0.10151173760E+03  0.31011636221E+02 -0.20914326012E+03  0.29124152942E+03  0.17266838377E+03 0.  0.
         24    2    3    3    0    0 -0.13634925372E+02  0.73573820127E+01 -0.62097886261E+02  0.10292607676E+03  0.80607614653E+02 0.  0.
         -6    2    1    2    0  503 -0.10151173760E+03 -0.31011636221E+02  0.24111364475E+03  0.31400565310E+03  0.17087248473E+03 0.  0.
        -24    2    5    5    0    0 -0.20306462996E+02  0.36533821811E+02  0.77765715684E+02  0.11942579428E+03  0.80423511661E+02 0.  0.
          4    1    4    4  501    0  0.19151614097E+02 -0.11059962437E+02  0.78851075263E+01  0.23479395485E+02  0.00000000000E+00 0. -1.
         -3    1    4    4    0  501 -0.32786539469E+02  0.18417344450E+02 -0.69982993787E+02  0.79446681280E+02  0.00000000000E+00 0.  1.
          5    1    3    3  502    0  0.11514666298E+03  0.23654254209E+02 -0.14704537386E+03  0.18831545266E+03  0.47000000000E+01 0. -1.
         13    1    6    6    0    0 -0.25297091382E+02 -0.20984233545E+02  0.26625324206E+02  0.42298803517E+02  0.00000000000E+00 0. -1.
        -14    1    6    6    0    0  0.49906283864E+01  0.57518055356E+02  0.51140391478E+02  0.77126990763E+02  0.00000000000E+00 0.  1.
         -5    1    5    5    0  503 -0.81205274609E+02 -0.67545458033E+02  0.16334792907E+03  0.19457985882E+03  0.47000000000E+01 0.  1.
<mgrwt>
<rscale>  2 0.20230079E+03</rscale>
<asrwt>0</asrwt>
<pdfrwt beam="1">  1       21 0.49016736E-01 0.20268381E+03</pdfrwt>
<pdfrwt beam="2">  1       21 0.44098215E-01 0.20268381E+03</pdfrwt>
<totfact> 0.19497658E+04</totfact>
</mgrwt>
</event>
<event>
12    1  0.1441827E-001  0.1815897E+03  0.7546771E-02  0.1167134E+00
         21   -1    0    0  504  503  0.00000000000E+00  0.00000000000E+00  0.65327307146E+03  0.65327307146E+03  0.00000000000E+00 0. -1.
         21   -1    0    0  502  504 -0.00000000000E+00 -0.00000000000E+00 -0.77955964632E+02  0.77955964632E+02  0.00000000000E+00 0. -1.
          6    2    1    2  502    0  0.23755785406E+02 -0.36984925775E+02  0.68546425858E+02  0.19409648152E+03  0.17618913010E+03 0.  0.
         24    2    3    3    0    0  0.36592401617E+02  0.15643622220E+02 -0.17182804216E+02  0.92577351944E+02  0.81802142760E+02 0.  0.
         -6    2    1    2    0  503 -0.23755785406E+02  0.36984925775E+02  0.50677068097E+03  0.53713255458E+03  0.17251850921E+03 0.  0.
        -24    2    5    5    0    0  0.22631118133E+02  0.66501084409E+02  0.19998054056E+03  0.22541917871E+03  0.76726969135E+02 0.  0.
          2    1    4    4  501    0  0.20756694510E+02 -0.32795430211E+02 -0.14869553704E+02  0.41563015255E+02  0.00000000000E+00 0. -1.
         -1    1    4    4    0  501  0.15835707106E+02  0.48439052431E+02 -0.23132505120E+01  0.51014336690E+02  0.00000000000E+00 0.  1.
          5    1    3    3  502    0 -0.12836616210E+02 -0.52628547995E+02  0.85729230074E+02  0.10151912957E+03  0.47000000000E+01 0. -1.
         13    1    6    6    0    0 -0.92188761114E+01  0.71039588412E+02  0.14461908404E+03  0.16138863116E+03  0.00000000000E+00 0. -1.
        -14    1    6    6    0    0  0.31849994244E+02 -0.45385040026E+01  0.55361456520E+02  0.64030547553E+02  0.00000000000E+00 0.  1.
         -5    1    5    5    0  503 -0.46386903539E+02 -0.29516158634E+02  0.30679014042E+03  0.31171337587E+03  0.47000000000E+01 0.  1.
<mgrwt>
<rscale>  2 0.18069331E+03</rscale>
<asrwt>0</asrwt>
<pdfrwt beam="1">  1       21 0.10050355E+00 0.18158973E+03</pdfrwt>
<pdfrwt beam="2">  1       21 0.11993226E-01 0.18158973E+03</pdfrwt>
<totfact> 0.47918503E+04</totfact>
</mgrwt>
</event>
<event>
12    1  0.1441827E-001  0.1897792E+03  0.7546771E-02  0.1158912E+00
         21   -1    0    0  504  503  0.00000000000E+00  0.00000000000E+00  0.12680990195E+03  0.12680990195E+03  0.00000000000E+00 0.  1.
         21   -1    0    0  502  504 -0.00000000000E+00 -0.00000000000E+00 -0.31013029278E+03  0.31013029278E+03  0.00000000000E+00 0.  1.
          6    2    1    2  502    0 -0.36845619605E+02 -0.69850042000E+02 -0.15727762562E+03  0.24648004055E+03  0.17256746744E+03 0.  0.
         24    2    3    3    0    0  0.36455899053E+02 -0.30629883690E+02 -0.12256171144E+03  0.15626575037E+03  0.84441632368E+02 0.  0.
         -6    2    1    2    0  503  0.36845619605E+02  0.69850042000E+02 -0.26042765208E+02  0.19046015418E+03  0.17134823214E+03 0.  0.
        -24    2    5    5    0    0  0.68463613703E+02  0.71671499880E+01 -0.49079393863E+02  0.11642219931E+03  0.80041908709E+02 0.  0.
          2    1    4    4  501    0  0.30775403323E+02  0.15846512182E+02 -0.96846084457E+02  0.10284649470E+03  0.00000000000E+00 0. -1.
         -1    1    4    4    0  501  0.56804957299E+01 -0.46476395872E+02 -0.25715626986E+02  0.53419255669E+02  0.00000000000E+00 0.  1.
          5    1    3    3  502    0 -0.73301518658E+02 -0.39220158310E+02 -0.34715914172E+02  0.90214290178E+02  0.47000000000E+01 0. -1.
         13    1    6    6    0    0  0.35855667923E+01 -0.27941035651E+02 -0.27960166555E+02  0.39690410382E+02  0.00000000000E+00 0. -1.
        -14    1    6    6    0    0  0.64878046911E+02  0.35108185639E+02 -0.21119227308E+02  0.76731788927E+02  0.00000000000E+00 0.  1.
         -5    1    5    5    0  503 -0.31617994098E+02  0.62682892012E+02  0.23036628655E+02  0.74037954871E+02  0.47000000000E+01 0.  1.
<mgrwt>
<rscale>  2 0.18950163E+03</rscale>
<asrwt>0</asrwt>
<pdfrwt beam="1">  1       21 0.19509216E-01 0.18977924E+03</pdfrwt>
<pdfrwt beam="2">  1       21 0.47712352E-01 0.18977924E+03</pdfrwt>
<totfact> 0.10165791E+05</totfact>
</mgrwt>
</event>
<event>
12    1  0.1441827E-001  0.2242807E+03  0.7546771E-02  0.1131356E+00
         21   -1    0    0  504  503  0.00000000000E+00  0.00000000000E+00  0.29329392048E+03  0.29329392048E+03  0.00000000000E+00 0. -1.
         21   -1    0    0  502  504 -0.00000000000E+00 -0.00000000000E+00 -0.25927465906E+03  0.25927465906E+03  0.00000000000E+00 0. -1.
          6    2    1    2  502    0 -0.13441747233E+03  0.46681657621E+02 -0.14618193217E+03  0.26486333849E+03  0.16892660168E+03 0.  0.
         24    2    3    3    0    0 -0.12269942781E+03  0.13261868766E+02 -0.40590214597E+02  0.15339183686E+03  0.81550373055E+02 0.  0.
         -6    2    1    2    0  503  0.13441747233E+03 -0.46681657621E+02  0.18020119359E+03  0.28770524105E+03  0.17336263014E+03 0.  0.
        -24    2    5    5    0    0  0.84191554869E+02 -0.40570907594E+02  0.26735058197E+02  0.12604532405E+03  0.80239914779E+02 0.  0.
          4    1    4    4  501    0 -0.76095114920E+02 -0.28648931014E+02 -0.40220058504E+02  0.90713179136E+02  0.00000000000E+00 0. -1.
         -3    1    4    4    0  501 -0.46604312895E+02  0.41910799780E+02 -0.37015609241E+00  0.62678657725E+02  0.00000000000E+00 0.  1.
          5    1    3    3  502    0 -0.11718044515E+02  0.33419788855E+02 -0.10559171758E+03  0.11147150163E+03  0.47000000000E+01 0. -1.
         11    1    6    6    0    0  0.42271814448E+02  0.14027949805E+02 -0.13213954798E+02  0.46457488889E+02  0.00000000000E+00 0. -1.
        -12    1    6    6    0    0  0.41919740421E+02 -0.54598857399E+02  0.39949012995E+02  0.79587835161E+02  0.00000000000E+00 0.  1.
         -5    1    5    5    0  503  0.50225917461E+02 -0.61107500270E+01  0.15346613539E+03  0.16165991700E+03  0.47000000000E+01 0.  1.
<mgrwt>
<rscale>  2 0.22342305E+03</rscale>
<asrwt>0</asrwt>
<pdfrwt beam="1">  1       21 0.45122141E-01 0.22428071E+03</pdfrwt>
<pdfrwt beam="2">  1       21 0.39888409E-01 0.22428071E+03</pdfrwt>
<totfact> 0.28065064E+04</totfact>
</mgrwt>
</event>
<event>
12    1  0.1441827E-001  0.2814833E+03  0.7546771E-02  0.1094983E+00
         21   -1    0    0  504  503  0.00000000000E+00  0.00000000000E+00  0.19892418945E+03  0.19892418945E+03  0.00000000000E+00 0. -1.
         21   -1    0    0  502  504 -0.00000000000E+00 -0.00000000000E+00 -0.39862821351E+03  0.39862821351E+03  0.00000000000E+00 0.  1.
          6    2    1    2  502    0 -0.16394167785E+03  0.14883057187E+03 -0.82169735098E+02  0.29251610948E+03  0.17258735783E+03 0.  0.
         24    2    3    3    0    0 -0.19868845302E+02  0.62789121945E+02 -0.68468414725E+02  0.12408235882E+03  0.79820192348E+02 0.  0.
         -6    2    1    2    0  503  0.16394167785E+03 -0.14883057187E+03 -0.11753428896E+03  0.30503629347E+03  0.17379706095E+03 0.  0.
        -24    2    5    5    0    0  0.52569019417E+02 -0.43145389667E+01 -0.18675407778E+02  0.97469626587E+02  0.79808772716E+02 0.  0.
          2    1    4    4  501    0 -0.51395120393E+01 -0.18765349950E+02 -0.20781270393E+02  0.28467773743E+02  0.00000000000E+00 0. -1.
         -1    1    4    4    0  501 -0.14729333263E+02  0.81554471895E+02 -0.47687144331E+02  0.95614585074E+02  0.00000000000E+00 0.  1.
          5    1    3    3  502    0 -0.14407283254E+03  0.86041449927E+02 -0.13701320373E+02  0.16843375066E+03  0.47000000000E+01 0. -1.
         11    1    6    6    0    0  0.55039590282E+02 -0.25908718044E+02  0.98313969767E+01  0.61622029629E+02  0.00000000000E+00 0. -1.
        -12    1    6    6    0    0 -0.24705708646E+01  0.21594179077E+02 -0.28506804754E+02  0.35847596959E+02  0.00000000000E+00 0.  1.
         -5    1    5    5    0  503  0.11137265843E+03 -0.14451603291E+03 -0.98858881185E+02  0.20756666688E+03  0.47000000000E+01 0.  1.
<mgrwt>
<rscale>  2 0.28129676E+03</rscale>
<asrwt>0</asrwt>
<pdfrwt beam="1">  1       21 0.30603722E-01 0.28148327E+03</pdfrwt>
<pdfrwt beam="2">  1       21 0.61327417E-01 0.28148327E+03</pdfrwt>
<totfact> 0.24252421E+04</totfact>
</mgrwt>
</event>
<event>
12    1  0.1441827E-001  0.2009003E+03  0.7546771E-02  0.1149245E+00
         21   -1    0    0  504  503  0.00000000000E+00  0.00000000000E+00  0.19971903616E+04  0.19971903616E+04  0.00000000000E+00 0. -1.
         21   -1    0    0  502  504 -0.00000000000E+00 -0.00000000000E+00 -0.20114740079E+02  0.20114740079E+02  0.00000000000E+00 0. -1.
          6    2    1    2  502    0 -0.17911104969E+02 -0.96000722714E+02  0.10255711436E+04  0.10448228570E+04  0.17413123027E+03 0.  0.
         24    2    3    3    0    0 -0.49993416898E+02 -0.85451593950E+02  0.97838299792E+03  0.98660456129E+03  0.79711687281E+02 0.  0.
         -6    2    1    2    0  503  0.17911104969E+02  0.96000722714E+02  0.95150447792E+03  0.97248224474E+03  0.17556764619E+03 0.  0.
        -24    2    5    5    0    0 -0.11763154931E+02  0.57088525216E+02  0.88138761128E+03  0.88684822228E+03  0.79108637474E+02 0.  0.
          2    1    4    4  501    0 -0.70981723255E+02 -0.53606566625E+02  0.67797836263E+03  0.68378851205E+03  0.00000000000E+00 0. -1.
         -1    1    4    4    0  501  0.20988306357E+02 -0.31845027325E+02  0.30040463530E+03  0.30281604924E+03  0.00000000000E+00 0.  1.
          5    1    3    3  502    0  0.32082311929E+02 -0.10549128764E+02  0.47188145697E+02  0.58218295670E+02  0.47000000000E+01 0. -1.
         13    1    6    6    0    0  0.31655156690E+02  0.88617099996E+01  0.34001295190E+03  0.34159828206E+03  0.00000000000E+00 0. -1.
        -14    1    6    6    0    0 -0.43418311622E+02  0.48226815217E+02  0.54137465938E+03  0.54524994022E+03  0.00000000000E+00 0.  1.
         -5    1    5    5    0  503  0.29674259900E+02  0.38912197498E+02  0.70116866642E+02  0.85634022458E+02  0.47000000000E+01 0.  1.
<mgrwt>
<rscale>  2 0.20058608E+03</rscale>
<asrwt>0</asrwt>
<pdfrwt beam="1">  1       21 0.30725990E+00 0.20090034E+03</pdfrwt>
<pdfrwt beam="2">  1       21 0.30945770E-02 0.20090034E+03</pdfrwt>
<totfact> 0.18479284E+04</totfact>
</mgrwt>
</event>
<event>
12    1  0.1441827E-001  0.2572376E+03  0.7546771E-02  0.1109123E+00
         21   -1    0    0  504  503  0.00000000000E+00  0.00000000000E+00  0.49957643304E+03  0.49957643304E+03  0.00000000000E+00 0. -1.
         21   -1    0    0  502  504 -0.00000000000E+00 -0.00000000000E+00 -0.35670453911E+03  0.35670453911E+03  0.00000000000E+00 0.  1.
          6    2    1    2  502    0  0.19142624615E+03  0.40488466988E+01 -0.26891840139E+03  0.37074781282E+03  0.16874961696E+03 0.  0.
         24    2    3    3    0    0  0.20024566375E+03  0.34424556080E+02 -0.20767493161E+03  0.30165860643E+03  0.81152089957E+02 0.  0.
         -6    2    1    2    0  503 -0.19142624615E+03 -0.40488466988E+01  0.41179029533E+03  0.48553315933E+03  0.17178707929E+03 0.  0.
        -24    2    5    5    0    0 -0.10326105789E+03  0.35638677825E+02  0.33456707068E+03  0.36170377490E+03  0.83435811016E+02 0.  0.
          2    1    4    4  501    0  0.16318237642E+03  0.42904741141E+02 -0.12288525749E+03  0.20873449953E+03  0.00000000000E+00 0. -1.
         -1    1    4    4    0  501  0.37063287330E+02 -0.84801850614E+01 -0.84789674115E+02  0.92924106898E+02  0.00000000000E+00 0.  1.
          5    1    3    3  502    0 -0.88194176021E+01 -0.30375709381E+02 -0.61243469787E+02  0.69089206384E+02  0.47000000000E+01 0. -1.
         13    1    6    6    0    0  0.10828852892E+02 -0.56064776057E+01  0.64460296193E+02  0.65603555021E+02  0.00000000000E+00 0. -1.
        -14    1    6    6    0    0 -0.11408991078E+03  0.41245155430E+02  0.27010677449E+03  0.29610021988E+03  0.00000000000E+00 0.  1.
         -5    1    5    5    0  503 -0.88165188260E+02 -0.39687524523E+02  0.77223224646E+02  0.12382938443E+03  0.47000000000E+01 0.  1.
<mgrwt>
<rscale>  2 0.25673153E+03</rscale>
<asrwt>0</asrwt>
<pdfrwt beam="1">  1       21 0.76857913E-01 0.25723764E+03</pdfrwt>
<pdfrwt beam="2">  1       21 0.54877621E-01 0.25723764E+03</pdfrwt>
<totfact> 0.45075261E+03</totfact>
</mgrwt>
</event>
<event>
12    1  0.1441827E-001  0.2122900E+03  0.7546771E-02  0.1139902E+00
         21   -1    0    0  504  503  0.00000000000E+00  0.00000000000E+00  0.23325299201E+03  0.23325299201E+03  0.00000000000E+00 0.  1.
         21   -1    0    0  502  504 -0.00000000000E+00 -0.00000000000E+00 -0.21438539658E+03  0.21438539658E+03  0.00000000000E+00 0.  1.
          6    2    1    2  502    0 -0.86339290535E+02  0.87747746664E+02 -0.61941396450E+02  0.22114201019E+03  0.17295349647E+03 0.  0.
         24    2    3    3    0    0 -0.10557396081E+02 -0.45062853188E+01  0.54075974531E+01  0.83986336136E+02  0.83022270072E+02 0.  0.
         -6    2    1    2    0  503  0.86339290535E+02 -0.87747746664E+02  0.80808991880E+02  0.22649637841E+03  0.17209409092E+03 0.  0.
        -24    2    5    5    0    0  0.12036432999E+03 -0.93902767097E+02  0.62113709983E+02  0.18690861324E+03  0.88155630184E+02 0.  0.
          2    1    4    4  501    0 -0.40550359957E+02 -0.11358035761E+02  0.23571150848E+02  0.48259049113E+02  0.00000000000E+00 0. -1.
         -1    1    4    4    0  501  0.29992963875E+02  0.68517504418E+01 -0.18163553395E+02  0.35727287024E+02  0.00000000000E+00 0.  1.
          5    1    3    3  502    0 -0.75781894454E+02  0.92254031983E+02 -0.67348993903E+02  0.13715567405E+03  0.47000000000E+01 0. -1.
         13    1    6    6    0    0 -0.74860032102E+01 -0.28894613697E+02 -0.17596355598E+01  0.29900422439E+02  0.00000000000E+00 0. -1.
        -14    1    6    6    0    0  0.12785033320E+03 -0.65008153400E+02  0.63873345543E+02  0.15700819080E+03  0.00000000000E+00 0.  1.
         -5    1    5    5    0  503 -0.34025039453E+02  0.61550204330E+01  0.18695281897E+02  0.39587765174E+02  0.47000000000E+01 0.  1.
<mgrwt>
<rscale>  2 0.21211491E+03</rscale>
<asrwt>0</asrwt>
<pdfrwt beam="1">  1       21 0.35885076E-01 0.21229002E+03</pdfrwt>
<pdfrwt beam="2">  1       21 0.32982369E-01 0.21229002E+03</pdfrwt>
<totfact> 0.65690282E+04</totfact>
</mgrwt>
</event>
<event>
12    1  0.1441827E-001  0.3311442E+03  0.7546771E-02  0.1070661E+00
         21   -1    0    0  504  503  0.00000000000E+00  0.00000000000E+00  0.42031879015E+03  0.42031879015E+03  0.00000000000E+00 0. -1.
         21   -1    0    0  502  504 -0.00000000000E+00 -0.00000000000E+00 -0.26419338579E+03  0.26419338579E+03  0.00000000000E+00 0.  1.
          6    2    1    2  502    0 -0.27964733191E+03 -0.36493995667E+02  0.11755223817E+03  0.35139007276E+03  0.17355694332E+03 0.  0.
         24    2    3    3    0    0 -0.15559744398E+03 -0.32976764323E+02  0.13911662787E+03  0.22534302395E+03  0.78281611728E+02 0.  0.
         -6    2    1    2    0  503  0.27964733191E+03  0.36493995667E+02  0.38573166192E+02  0.33312210317E+03  0.17305491762E+03 0.  0.
        -24    2    5    5    0    0  0.29686372695E+03  0.23129454371E+02  0.34144851785E+02  0.31039073299E+03  0.80706209079E+02 0.  0.
          4    1    4    4  501    0 -0.11644200792E+03 -0.25521460013E+01  0.13066972386E+03  0.17504237027E+03  0.00000000000E+00 0. -1.
         -3    1    4    4    0  501 -0.39155436056E+02 -0.30424618322E+02  0.84469040132E+01  0.50300653675E+02  0.00000000000E+00 0.  1.
          5    1    3    3  502    0 -0.12404988793E+03 -0.35172313438E+01 -0.21564389702E+02  0.12604704881E+03  0.47000000000E+01 0. -1.
         11    1    6    6    0    0  0.15564404251E+03 -0.94000308852E+01 -0.16683583830E+02  0.15681763459E+03  0.00000000000E+00 0. -1.
        -12    1    6    6    0    0  0.14121968444E+03  0.32529485257E+02  0.50828435615E+02  0.15357309840E+03  0.00000000000E+00 0.  1.
         -5    1    5    5    0  503 -0.17216395040E+02  0.13364541296E+02  0.44283144068E+01  0.22731370189E+02  0.47000000000E+01 0.  1.
<mgrwt>
<rscale>  2 0.33107843E+03</rscale>
<asrwt>0</asrwt>
<pdfrwt beam="1">  1       21 0.64664429E-01 0.33114416E+03</pdfrwt>
<pdfrwt beam="2">  1       21 0.40645136E-01 0.33114416E+03</pdfrwt>
<totfact> 0.11969185E+04</totfact>
</mgrwt>
</event>
<event>
12    1  0.1441827E-001  0.3050643E+03  0.7546771E-02  0.1082751E+00
         21   -1    0    0  504  503  0.00000000000E+00  0.00000000000E+00  0.17248911644E+03  0.17248911644E+03  0.00000000000E+00 0. -1.
         21   -1    0    0  502  504 -0.00000000000E+00 -0.00000000000E+00 -0.63225639047E+03  0.63225639047E+03  0.00000000000E+00 0. -1.
          6    2    1    2  502    0 -0.18941767975E+03 -0.16419186755E+03 -0.75584218700E+02  0.31417356279E+03  0.17364914819E+03 0.  0.
         24    2    3    3    0    0 -0.28913853104E+02 -0.32279223216E+02  0.27522111314E+01  0.92089996664E+02  0.81209812626E+02 0.  0.
         -6    2    1    2    0  503  0.18941767975E+03  0.16419186755E+03 -0.38418305533E+03  0.49057194413E+03  0.17385679621E+03 0.  0.
        -24    2    5    5    0    0  0.75073295353E+02  0.84990907705E+02 -0.29260365719E+03  0.32396970391E+03  0.80498538982E+02 0.  0.
          4    1    4    4  501    0  0.10116325632E+02 -0.12757913783E+02 -0.32263272503E+02  0.36138942444E+02  0.00000000000E+00 0. -1.
         -3    1    4    4    0  501 -0.39030178735E+02 -0.19521309433E+02  0.35015483635E+02  0.55951054220E+02  0.00000000000E+00 0.  1.
          5    1    3    3  502    0 -0.16050382664E+03 -0.13191264434E+03 -0.78336429831E+02  0.22208356612E+03  0.47000000000E+01 0. -1.
         13    1    6    6    0    0  0.57623513453E+02  0.25028317372E+02 -0.76325214888E+02  0.98855573443E+02  0.00000000000E+00 0. -1.
        -14    1    6    6    0    0  0.17449781900E+02  0.59962590333E+02 -0.21627844231E+03  0.22511413046E+03  0.00000000000E+00 0.  1.
         -5    1    5    5    0  503  0.11434438439E+03  0.79200959848E+02 -0.91579398136E+02  0.16660224022E+03  0.47000000000E+01 0.  1.
<mgrwt>
<rscale>  2 0.30503470E+03</rscale>
<asrwt>0</asrwt>
<pdfrwt beam="1">  1       21 0.26536787E-01 0.30506428E+03</pdfrwt>
<pdfrwt beam="2">  1       21 0.97270213E-01 0.30506428E+03</pdfrwt>
<totfact> 0.11120445E+04</totfact>
</mgrwt>
</event>
<event>
12    1  0.1441827E-001  0.1932203E+03  0.7546771E-02  0.1155780E+00
         21   -1    0    0  504  503  0.00000000000E+00  0.00000000000E+00  0.30422645544E+02  0.30422645544E+02  0.00000000000E+00 0. -1.
         21   -1    0    0  502  504 -0.00000000000E+00 -0.00000000000E+00 -0.12232565599E+04  0.12232565599E+04  0.00000000000E+00 0.  1.
          6    2    1    2  502    0  0.85736256463E+02 -0.17693791780E+02 -0.57526742123E+03  0.60684980325E+03  0.17225069472E+03 0.  0.
         24    2    3    3    0    0  0.89217829911E+02  0.13356304832E+02 -0.55806323305E+03  0.57087336729E+03  0.79521175435E+02 0.  0.
         -6    2    1    2    0  503 -0.85736256463E+02  0.17693791780E+02 -0.61756649312E+03  0.64682940220E+03  0.17127792087E+03 0.  0.
        -24    2    5    5    0    0  0.13327825541E+02  0.32199618435E+02 -0.35626937846E+03  0.36696803745E+03  0.80766478917E+02 0.  0.
          2    1    4    4  501    0  0.49939049226E+02  0.31012624014E+02 -0.15945966991E+03  0.16995022157E+03  0.00000000000E+00 0. -1.
         -1    1    4    4    0  501  0.39278780685E+02 -0.17656319181E+02 -0.39860356314E+03  0.40092314571E+03  0.00000000000E+00 0.  1.
          5    1    3    3  502    0 -0.34815734488E+01 -0.31050096613E+02 -0.17204188181E+02  0.35976435959E+02  0.47000000000E+01 0. -1.
         13    1    6    6    0    0  0.13785186130E+02  0.90570911076E+01 -0.87365056251E+01  0.18665175770E+02  0.00000000000E+00 0. -1.
        -14    1    6    6    0    0 -0.45736058986E+00  0.23142527327E+02 -0.34753287284E+03  0.34830286168E+03  0.00000000000E+00 0.  1.
         -5    1    5    5    0  503 -0.99064082003E+02 -0.14505826654E+02 -0.26129711466E+03  0.27986136475E+03  0.47000000000E+01 0.  1.
<mgrwt>
<rscale>  2 0.19300324E+03</rscale>
<asrwt>0</asrwt>
<pdfrwt beam="1">  1       21 0.46804074E-02 0.19322028E+03</pdfrwt>
<pdfrwt beam="2">  1       21 0.18819330E+00 0.19322028E+03</pdfrwt>
<totfact> 0.48208543E+04</totfact>
</mgrwt>
</event>
<event>
12    1  0.1441827E-001  0.1965899E+03  0.7546771E-02  0.1152710E+00
         21   -1    0    0  504  503  0.00000000000E+00  0.00000000000E+00  0.13934885733E+03  0.13934885733E+03  0.00000000000E+00 0. -1.
         21   -1    0    0  502  504 -0.00000000000E+00 -0.00000000000E+00 -0.27700244947E+03  0.27700244947E+03  0.00000000000E+00 0.  1.
          6    2    1    2  502    0  0.71918645341E+02  0.57914547252E+02 -0.71953343620E+02  0.20934387133E+03  0.17355456339E+03 0.  0.
         24    2    3    3    0    0  0.15495795414E+02 -0.33905775055E+02 -0.24237343230E+02  0.91388726140E+02  0.79841901287E+02 0.  0.
         -6    2    1    2    0  503 -0.71918645341E+02 -0.57914547252E+02 -0.65700248516E+02  0.20700743548E+03  0.17323154839E+03 0.  0.
        -24    2    5    5    0    0 -0.10962577499E+03 -0.62046673766E+02 -0.24530951893E+02  0.15083001047E+03  0.79248496451E+02 0.  0.
          2    1    4    4  501    0  0.33545463944E+02 -0.16462142467E+02  0.18598832376E+02  0.41739871245E+02  0.00000000000E+00 0. -1.
         -1    1    4    4    0  501 -0.18049668530E+02 -0.17443632588E+02 -0.42836175606E+02  0.49648854895E+02  0.00000000000E+00 0.  1.
          5    1    3    3  502    0  0.56422849927E+02  0.91820322307E+02 -0.47716000391E+02  0.11795514519E+03  0.47000000000E+01 0. -1.
         11    1    6    6    0    0 -0.77653791669E+02 -0.72961811425E+02 -0.39816272991E+02  0.11374916651E+03  0.00000000000E+00 0. -1.
        -12    1    6    6    0    0 -0.31971983322E+02  0.10915137659E+02  0.15285321099E+02  0.37080843959E+02  0.00000000000E+00 0.  1.
         -5    1    5    5    0  503  0.37707129650E+02  0.41321265134E+01 -0.41169296623E+02  0.56177425007E+02  0.47000000000E+01 0.  1.
<mgrwt>
<rscale>  2 0.19651854E+03</rscale>
<asrwt>0</asrwt>
<pdfrwt beam="1">  1       21 0.21438286E-01 0.19658986E+03</pdfrwt>
<pdfrwt beam="2">  1       21 0.42615761E-01 0.19658986E+03</pdfrwt>
<totfact> 0.10718486E+05</totfact>
</mgrwt>
</event>
<event>
12    1  0.1441827E-001  0.2102737E+03  0.7546771E-02  0.1141579E+00
         21   -1    0    0  504  503  0.00000000000E+00  0.00000000000E+00  0.35588631027E+02  0.35588631027E+02  0.00000000000E+00 0. -1.
         21   -1    0    0  502  504 -0.00000000000E+00 -0.00000000000E+00 -0.12732204909E+04  0.12732204909E+04  0.00000000000E+00 0. -1.
          6    2    1    2  502    0  0.49876595996E+02 -0.10870817997E+03 -0.73300990107E+03  0.76257363110E+03  0.17294474424E+03 0.  0.
         24    2    3    3    0    0 -0.75364007985E+01 -0.32218407300E+01 -0.41102432080E+03  0.41888711133E+03  0.80363189066E+02 0.  0.
         -6    2    1    2    0  503 -0.49876595996E+02  0.10870817997E+03 -0.50462195875E+03  0.54623549078E+03  0.17153643028E+03 0.  0.
        -24    2    5    5    0    0 -0.39775461358E+02  0.93679791622E+02 -0.51065728989E+03  0.52657841574E+03  0.78459986735E+02 0.  0.
          4    1    4    4  501    0  0.32332676802E+02 -0.18335122827E+02 -0.22410418274E+03  0.22716571802E+03  0.00000000000E+00 0. -1.
         -3    1    4    4    0  501 -0.39869077601E+02  0.15113282097E+02 -0.18692013805E+03  0.19172139331E+03  0.00000000000E+00 0.  1.
          5    1    3    3  502    0  0.57412996795E+02 -0.10548633924E+03 -0.32198558028E+03  0.34368651977E+03  0.47000000000E+01 0. -1.
         13    1    6    6    0    0 -0.56831116656E+02  0.62563901776E+02 -0.25927486869E+03  0.27270400650E+03  0.00000000000E+00 0. -1.
        -14    1    6    6    0    0  0.17055655298E+02  0.31115889847E+02 -0.25138242120E+03  0.25387440924E+03  0.00000000000E+00 0.  1.
         -5    1    5    5    0  503 -0.10101134638E+02  0.15028388343E+02  0.60353311398E+01  0.19657075040E+02  0.47000000000E+01 0.  1.
<mgrwt>
<rscale>  2 0.20998391E+03</rscale>
<asrwt>0</asrwt>
<pdfrwt beam="1">  1       21 0.54751751E-02 0.21027370E+03</pdfrwt>
<pdfrwt beam="2">  1       21 0.19588003E+00 0.21027370E+03</pdfrwt>
<totfact> 0.32513438E+04</totfact>
</mgrwt>
</event>
<event>
12    1  0.1441827E-001  0.1779213E+03  0.7546771E-02  0.1170229E+00
         21   -1    0    0  504  503  0.00000000000E+00  0.00000000000E+00  0.22206404253E+02  0.22206404253E+02  0.00000000000E+00 0. -1.
         21   -1    0    0  502  504 -0.00000000000E+00 -0.00000000000E+00 -0.14689532731E+04  0.14689532731E+04  0.00000000000E+00 0. -1.
          6    2    1    2  502    0  0.39721948077E+02  0.12629003046E+02 -0.57418202985E+03  0.60063995772E+03  0.17130683152E+03 0.  0.
         24    2    3    3    0    0 -0.21523362944E+02  0.28504168536E+02 -0.47406114859E+03  0.48211025736E+03  0.80128552188E+02 0.  0.
         -6    2    1    2    0  503 -0.39721948077E+02 -0.12629003046E+02 -0.87256483897E+03  0.89051971961E+03  0.17297007814E+03 0.  0.
        -24    2    5    5    0    0  0.43052765119E+02 -0.24841512043E+02 -0.45456531387E+03  0.46420235954E+03  0.79897213450E+02 0.  0.
          2    1    4    4  501    0 -0.45440164029E+02  0.48007150862E+01 -0.36815670446E+03  0.37098142057E+03  0.00000000000E+00 0. -1.
         -1    1    4    4    0  501  0.23916801085E+02  0.23703453450E+02 -0.10590444413E+03  0.11112883679E+03  0.00000000000E+00 0.  1.
          5    1    3    3  502    0  0.61245311021E+02 -0.15875165490E+02 -0.10012088126E+03  0.11852970035E+03  0.47000000000E+01 0. -1.
         11    1    6    6    0    0  0.84336308522E+01 -0.31788011766E+02 -0.38291054414E+03  0.38432029433E+03  0.00000000000E+00 0. -1.
        -12    1    6    6    0    0  0.34619134267E+02  0.69464997224E+01 -0.71654769730E+02  0.79882065201E+02  0.00000000000E+00 0.  1.
         -5    1    5    5    0  503 -0.82774713196E+02  0.12212508997E+02 -0.41799952510E+03  0.42631736008E+03  0.47000000000E+01 0.  1.
<mgrwt>
<rscale>  2 0.17751574E+03</rscale>
<asrwt>0</asrwt>
<pdfrwt beam="1">  1       21 0.34163689E-02 0.17792125E+03</pdfrwt>
<pdfrwt beam="2">  1       21 0.22599288E+00 0.17792125E+03</pdfrwt>
<totfact> 0.47669476E+04</totfact>
</mgrwt>
</event>
<event>
12    1  0.1441827E-001  0.1814625E+03  0.7546771E-02  0.1168143E+00
         21   -1    0    0  504  503  0.00000000000E+00  0.00000000000E+00  0.13384093236E+04  0.13384093236E+04  0.00000000000E+00 0.  1.
         21   -1    0    0  502  504 -0.00000000000E+00 -0.00000000000E+00 -0.41826605066E+02  0.41826605066E+02  0.00000000000E+00 0.  1.
          6    2    1    2  502    0  0.22159640456E+02  0.50321226176E+02  0.20068474352E+03  0.27056055807E+03  0.17293170281E+03 0.  0.
         24    2    3    3    0    0  0.25900037891E+00 -0.39525867201E+02  0.10192885196E+03  0.13518347603E+03  0.79515533527E+02 0.  0.
         -6    2    1    2    0  503 -0.22159640456E+02 -0.50321226176E+02  0.10958979750E+04  0.11096753706E+04  0.16542001385E+03 0.  0.
        -24    2    5    5    0    0 -0.82160733134E+01  0.29916425656E+02  0.45094747149E+03  0.45958634143E+03  0.83087224054E+02 0.  0.
          4    1    4    4  501    0 -0.29633471103E+02 -0.46363410906E+02  0.81504477553E+02  0.98339658031E+02  0.00000000000E+00 0. -1.
         -3    1    4    4    0  501  0.29892471482E+02  0.68375437050E+01  0.20424374405E+02  0.36843818003E+02  0.00000000000E+00 0.  1.
          5    1    3    3  502    0  0.21900640078E+02  0.89847093376E+02  0.98755891558E+02  0.13537708204E+03  0.47000000000E+01 0. -1.
         11    1    6    6    0    0 -0.33923093962E+02 -0.92180142471E-01  0.85116012665E+02  0.91627072490E+02  0.00000000000E+00 0. -1.
        -12    1    6    6    0    0  0.25707020649E+02  0.30008605798E+02  0.36583145883E+03  0.36795926894E+03  0.00000000000E+00 0.  1.
         -5    1    5    5    0  503 -0.13943567143E+02 -0.80237651832E+02  0.64495050355E+03  0.65008902918E+03  0.47000000000E+01 0.  1.
<mgrwt>
<rscale>  2 0.17964962E+03</rscale>
<asrwt>0</asrwt>
<pdfrwt beam="1">  1       21 0.20590909E+00 0.18146253E+03</pdfrwt>
<pdfrwt beam="2">  1       21 0.64348633E-02 0.18146253E+03</pdfrwt>
<totfact> 0.21718503E+04</totfact>
</mgrwt>
</event>
<event>
12    1  0.1441827E-001  0.2652341E+03  0.7546771E-02  0.1104477E+00
         21   -1    0    0  504  503  0.00000000000E+00  0.00000000000E+00  0.49585831615E+03  0.49585831615E+03  0.00000000000E+00 0.  1.
         21   -1    0    0  502  504 -0.00000000000E+00 -0.00000000000E+00 -0.15359782018E+03  0.15359782018E+03  0.00000000000E+00 0.  1.
          6    2    1    2  502    0 -0.19167394427E+03  0.57575737945E+02  0.26584306859E+03  0.37343308388E+03  0.16948706294E+03 0.  0.
         24    2    3    3    0    0 -0.14151110550E+03  0.10436776608E+03  0.18928040944E+03  0.27052664546E+03  0.80246924741E+02 0.  0.
         -6    2    1    2    0  503  0.19167394427E+03 -0.57575737945E+02  0.76417427375E+02  0.27602305245E+03  0.17405526641E+03 0.  0.
        -24    2    5    5    0    0  0.21185971500E+03 -0.56327823078E+02  0.90190054257E+02  0.25110723654E+03  0.82844648977E+02 0.  0.
          2    1    4    4  501    0 -0.11945710033E+03  0.44605906447E+02  0.14417159120E+03  0.19247112359E+03  0.00000000000E+00 0. -1.
         -1    1    4    4    0  501 -0.22054005177E+02  0.59761859635E+02  0.45108818239E+02  0.78055521869E+02  0.00000000000E+00 0.  1.
          5    1    3    3  502    0 -0.50162838769E+02 -0.46792028137E+02  0.76562659155E+02  0.10290643842E+03  0.47000000000E+01 0. -1.
         13    1    6    6    0    0  0.12246089920E+02 -0.28201508034E+02  0.12435252494E+01  0.30770734940E+02  0.00000000000E+00 0. -1.
        -14    1    6    6    0    0  0.19961362508E+03 -0.28126315044E+02  0.88946529008E+02  0.22033650160E+03  0.00000000000E+00 0.  1.
         -5    1    5    5    0  503 -0.20185770725E+02 -0.12479148666E+01 -0.13772626882E+02  0.24915815911E+02  0.47000000000E+01 0.  1.
<mgrwt>
<rscale>  2 0.26448711E+03</rscale>
<asrwt>0</asrwt>
<pdfrwt beam="1">  1       21 0.76285894E-01 0.26523405E+03</pdfrwt>
<pdfrwt beam="2">  1       21 0.23630434E-01 0.26523405E+03</pdfrwt>
<totfact> 0.24868589E+04</totfact>
</mgrwt>
</event>
<event>
12    1  0.1441827E-001  0.1886607E+03  0.7546771E-02  0.1159701E+00
         21   -1    0    0  504  503  0.00000000000E+00  0.00000000000E+00  0.40807068630E+03  0.40807068630E+03  0.00000000000E+00 0.  1.
         21   -1    0    0  502  504 -0.00000000000E+00 -0.00000000000E+00 -0.10087777501E+03  0.10087777501E+03  0.00000000000E+00 0.  1.
          6    2    1    2  502    0 -0.21163612451E+02 -0.73062439407E+02  0.24736188795E+03  0.31102776579E+03  0.17252347360E+03 0.  0.
         24    2    3    3    0    0  0.12821893200E+02 -0.11091685441E+03  0.18866994285E+03  0.23321513347E+03  0.79536165418E+02 0.  0.
         -6    2    1    2    0  503  0.21163612451E+02  0.73062439407E+02  0.59831023345E+02  0.19792069551E+03  0.17264655169E+03 0.  0.
        -24    2    5    5    0    0 -0.42249607465E+02  0.31277978774E+02  0.72292046770E+02  0.12081982187E+03  0.81289286158E+02 0.  0.
          4    1    4    4  501    0  0.76529572902E+01 -0.76621300820E+02  0.18237618676E+03  0.19796581773E+03  0.00000000000E+00 0. -1.
         -3    1    4    4    0  501  0.51689359103E+01 -0.34295553587E+02  0.62937560891E+01  0.35249315738E+02  0.00000000000E+00 0.  1.
          5    1    3    3  502    0 -0.33985505652E+02  0.37854415001E+02  0.58691945100E+02  0.77812632323E+02  0.47000000000E+01 0. -1.
         11    1    6    6    0    0 -0.42114607888E+01 -0.13387757032E+02 -0.11765112761E+02  0.18313555597E+02  0.00000000000E+00 0. -1.
        -12    1    6    6    0    0 -0.38038146676E+02  0.44665735805E+02  0.84057159531E+02  0.10250626628E+03  0.00000000000E+00 0.  1.
         -5    1    5    5    0  503  0.63413219916E+02  0.41784460633E+02 -0.12461023425E+02  0.77100873635E+02  0.47000000000E+01 0.  1.
<mgrwt>
<rscale>  2 0.18863251E+03</rscale>
<asrwt>0</asrwt>
<pdfrwt beam="1">  1       21 0.62780105E-01 0.18866068E+03</pdfrwt>
<pdfrwt beam="2">  1       21 0.15519658E-01 0.18866068E+03</pdfrwt>
<totfact> 0.86782916E+04</totfact>
</mgrwt>
</event>
<event>
12    1  0.1441827E-001  0.2559657E+03  0.7546771E-02  0.1109805E+00
         21   -1    0    0  504  503  0.00000000000E+00  0.00000000000E+00  0.39469260378E+03  0.39469260378E+03  0.00000000000E+00 0.  1.
         21   -1    0    0  502  504 -0.00000000000E+00 -0.00000000000E+00 -0.29563354965E+03  0.29563354965E+03  0.00000000000E+00 0.  1.
          6    2    1    2  502    0 -0.17634944524E+03  0.63701729257E+02 -0.17990074000E+03  0.31172738225E+03  0.17219944090E+03 0.  0.
         24    2    3    3    0    0 -0.19344811746E+03  0.76822343996E+02 -0.18408736443E+03  0.28927447716E+03  0.80422128214E+02 0.  0.
         -6    2    1    2    0  503  0.17634944524E+03 -0.63701729257E+02  0.27895979413E+03  0.37859877118E+03  0.17424530309E+03 0.  0.
        -24    2    5    5    0    0  0.35590063620E+02 -0.23779392603E+02  0.17851163907E+03  0.20106308932E+03  0.82023462876E+02 0.  0.
          4    1    4    4  501    0 -0.58537894607E+02 -0.65423763984E+01 -0.80897019992E+02  0.10006905435E+03  0.00000000000E+00 0. -1.
         -3    1    4    4    0  501 -0.13491022286E+03  0.83364720394E+02 -0.10319034444E+03  0.18920542282E+03  0.00000000000E+00 0.  1.
          5    1    3    3  502    0  0.17098672223E+02 -0.13120614739E+02  0.41866244305E+01  0.22452905091E+02  0.47000000000E+01 0. -1.
         11    1    6    6    0    0 -0.20363979960E+02 -0.22566602877E+02  0.31574065599E+02  0.43827672351E+02  0.00000000000E+00 0. -1.
        -12    1    6    6    0    0  0.55954043580E+02 -0.12127897267E+01  0.14693757347E+03  0.15723541697E+03  0.00000000000E+00 0.  1.
         -5    1    5    5    0  503  0.14075938162E+03 -0.39922336653E+02  0.10044815507E+03  0.17753568186E+03  0.47000000000E+01 0.  1.
<mgrwt>
<rscale>  2 0.25561797E+03</rscale>
<asrwt>0</asrwt>
<pdfrwt beam="1">  1       21 0.60721939E-01 0.25596575E+03</pdfrwt>
<pdfrwt beam="2">  1       21 0.45482084E-01 0.25596575E+03</pdfrwt>
<totfact> 0.11270340E+04</totfact>
</mgrwt>
</event>
<event>
12    1  0.1441827E-001  0.2527860E+03  0.7546771E-02  0.1112195E+00
         21   -1    0    0  504  503  0.00000000000E+00  0.00000000000E+00  0.79083832832E+03  0.79083832832E+03  0.00000000000E+00 0. -1.
         21   -1    0    0  502  504 -0.00000000000E+00 -0.00000000000E+00 -0.30461462392E+03  0.30461462392E+03  0.00000000000E+00 0.  1.
          6    2    1    2  502    0  0.10080945378E+03  0.15093131539E+03 -0.22824944962E+03  0.33757919548E+03  0.17005614964E+03 0.  0.
         24    2    3    3    0    0  0.70082723166E+02  0.17622359759E+03 -0.20761364105E+03  0.29250416793E+03  0.80553832121E+02 0.  0.
         -6    2    1    2    0  503 -0.10080945378E+03 -0.15093131539E+03  0.71447315402E+03  0.75787375677E+03  0.17594867275E+03 0.  0.
        -24    2    5    5    0    0 -0.10771360718E+03 -0.13647272231E+03  0.71592665974E+03  0.74111306087E+03  0.80439802096E+02 0.  0.
          4    1    4    4  501    0  0.57627966953E+01  0.12095953517E+03 -0.12755823534E+03  0.17588496917E+03  0.00000000000E+00 0. -1.
         -3    1    4    4    0  501  0.64319926470E+02  0.55264062417E+02 -0.80055405710E+02  0.11661919876E+03  0.00000000000E+00 0.  1.
          5    1    3    3  502    0  0.30726730616E+02 -0.25292282201E+02 -0.20635808567E+02  0.45075027548E+02  0.47000000000E+01 0. -1.
         13    1    6    6    0    0 -0.88712518026E+02 -0.67586917847E+02  0.32223239765E+03  0.34098624666E+03  0.00000000000E+00 0. -1.
        -14    1    6    6    0    0 -0.19001089157E+02 -0.68885804460E+02  0.39369426209E+03  0.40012681421E+03  0.00000000000E+00 0.  1.
         -5    1    5    5    0  503  0.69041534023E+01 -0.14458593085E+02 -0.14535057146E+01  0.16760695900E+02  0.47000000000E+01 0.  1.
<mgrwt>
<rscale>  2 0.25176342E+03</rscale>
<asrwt>0</asrwt>
<pdfrwt beam="1">  1       21 0.12166743E+00 0.25278596E+03</pdfrwt>
<pdfrwt beam="2">  1       21 0.46863789E-01 0.25278596E+03</pdfrwt>
<totfact> 0.21175368E+03</totfact>
</mgrwt>
</event>
<event>
12    1  0.1441827E-001  0.2768169E+03  0.7546771E-02  0.1097946E+00
         21   -1    0    0  504  503  0.00000000000E+00  0.00000000000E+00  0.17826070923E+04  0.17826070923E+04  0.00000000000E+00 0.  1.
         21   -1    0    0  502  504 -0.00000000000E+00 -0.00000000000E+00 -0.57791442180E+02  0.57791442180E+02  0.00000000000E+00 0. -1.
          6    2    1    2  502    0  0.11561825823E+03  0.17932286735E+03  0.39208925681E+03  0.47995995539E+03  0.17636128000E+03 0.  0.
         24    2    3    3    0    0  0.79750228492E+02  0.19572453501E+03  0.37199337387E+03  0.43544630838E+03  0.81032244986E+02 0.  0.
         -6    2    1    2    0  503 -0.11561825823E+03 -0.17932286735E+03  0.13327263933E+04  0.13604385791E+04  0.17061423055E+03 0.  0.
        -24    2    5    5    0    0 -0.91758229192E+02 -0.16856282841E+03  0.13069647784E+04  0.13234138545E+04  0.80214080750E+02 0.  0.
          2    1    4    4  501    0  0.10819892792E+02  0.12838698177E+03  0.23420152529E+03  0.26730252826E+03  0.00000000000E+00 0. -1.
         -1    1    4    4    0  501  0.68930335701E+02  0.67337553242E+02  0.13779184858E+03  0.16814378012E+03  0.00000000000E+00 0.  1.
          5    1    3    3  502    0  0.35868029734E+02 -0.16401667663E+02  0.20095882941E+02  0.44513647012E+02  0.47000000000E+01 0. -1.
         11    1    6    6    0    0 -0.11976502847E+02  0.77566611081E+01  0.10593922534E+03  0.10689584594E+03  0.00000000000E+00 0. -1.
        -12    1    6    6    0    0 -0.79781726345E+02 -0.17631948952E+03  0.12010255530E+04  0.12165180086E+04  0.00000000000E+00 0.  1.
         -5    1    5    5    0  503 -0.23860029034E+02 -0.10760038936E+02  0.25761614935E+02  0.37024724543E+02  0.47000000000E+01 0.  1.
<mgrwt>
<rscale>  2 0.27590598E+03</rscale>
<asrwt>0</asrwt>
<pdfrwt beam="1">  1       21 0.27424720E+00 0.27681686E+03</pdfrwt>
<pdfrwt beam="2">  1       21 0.88909925E-02 0.27681686E+03</pdfrwt>
<totfact> 0.44332361E+03</totfact>
</mgrwt>
</event>
<event>
12    1  0.1441827E-001  0.1975440E+03  0.7546771E-02  0.1152054E+00
         21   -1    0    0  504  503  0.00000000000E+00  0.00000000000E+00  0.52293832370E+03  0.52293832370E+03  0.00000000000E+00 0. -1.
         21   -1    0    0  502  504 -0.00000000000E+00 -0.00000000000E+00 -0.11092632394E+03  0.11092632394E+03  0.00000000000E+00 0.  1.
          6    2    1    2  502    0 -0.72444618774E+02 -0.59903889020E+02  0.23343924176E+02  0.19787552914E+03  0.17254879752E+03 0.  0.
         24    2    3    3    0    0 -0.47445463552E+01 -0.39574843853E+02 -0.44395895177E+02  0.99858474455E+02  0.80075217301E+02 0.  0.
         -6    2    1    2    0  503  0.72444618774E+02  0.59903889020E+02  0.38866807558E+03  0.43598911851E+03  0.17374389132E+03 0.  0.
        -24    2    5    5    0    0  0.27891891921E+02  0.71953339236E+02  0.36909195296E+03  0.38563587335E+03  0.80814085497E+02 0.  0.
          2    1    4    4  501    0  0.26881414837E+02 -0.49367445709E+02 -0.25347099677E+02  0.61662230105E+02  0.00000000000E+00 0. -1.
         -1    1    4    4    0  501 -0.31625961192E+02  0.97926018568E+01 -0.19048795500E+02  0.38196244350E+02  0.00000000000E+00 0.  1.
          5    1    3    3  502    0 -0.67700072418E+02 -0.20329045167E+02  0.67739819353E+02  0.98017054683E+02  0.47000000000E+01 0. -1.
         13    1    6    6    0    0  0.18215080642E+02 -0.15217649845E+02  0.90749032468E+02  0.93801668021E+02  0.00000000000E+00 0. -1.
        -14    1    6    6    0    0  0.96768112788E+01  0.87170989081E+02  0.27834292049E+03  0.29183420533E+03  0.00000000000E+00 0.  1.
         -5    1    5    5    0  503  0.44552726853E+02 -0.12049450216E+02  0.19576122622E+02  0.50353245153E+02  0.47000000000E+01 0.  1.
<mgrwt>
<rscale>  2 0.19728092E+03</rscale>
<asrwt>0</asrwt>
<pdfrwt beam="1">  1       21 0.80452048E-01 0.19754402E+03</pdfrwt>
<pdfrwt beam="2">  1       21 0.17065589E-01 0.19754402E+03</pdfrwt>
<totfact> 0.41957960E+04</totfact>
</mgrwt>
</event>
<event>
12    1  0.1441827E-001  0.2406046E+03  0.7546771E-02  0.1119570E+00
         21   -1    0    0  504  503  0.00000000000E+00  0.00000000000E+00  0.48287453136E+03  0.48287453136E+03  0.00000000000E+00 0.  1.
         21   -1    0    0  502  504 -0.00000000000E+00 -0.00000000000E+00 -0.15787079914E+03  0.15787079914E+03  0.00000000000E+00 0. -1.
          6    2    1    2  502    0  0.12604976904E+03 -0.10816045726E+03  0.45281107179E+01  0.24064723223E+03  0.17407859662E+03 0.  0.
         24    2    3    3    0    0  0.12769734654E+03 -0.46486130198E+02  0.48186498767E+02  0.16492020946E+03  0.80057255821E+02 0.  0.
         -6    2    1    2    0  503 -0.12604976904E+03  0.10816045726E+03  0.32047562150E+03  0.40009809828E+03  0.17258805138E+03 0.  0.
        -24    2    5    5    0    0 -0.98614213433E+02  0.10538536293E+03  0.13437829112E+03  0.21191011451E+03  0.77572763870E+02 0.  0.
          2    1    4    4  501    0  0.77278463925E+02 -0.21143065911E+02 -0.13575842235E+02  0.81260652933E+02  0.00000000000E+00 0. -1.
         -1    1    4    4    0  501  0.50418882615E+02 -0.25343064287E+02  0.61762341002E+02  0.83659556523E+02  0.00000000000E+00 0.  1.
          5    1    3    3  502    0 -0.16475775041E+01 -0.61674327064E+02 -0.43658388049E+02  0.75727022769E+02  0.47000000000E+01 0. -1.
         13    1    6    6    0    0  0.13042848810E+02  0.14977672746E+02  0.12153823570E+02  0.23284372728E+02  0.00000000000E+00 0. -1.
        -14    1    6    6    0    0 -0.11165706224E+03  0.90407690189E+02  0.12222446755E+03  0.18862574178E+03  0.00000000000E+00 0.  1.
         -5    1    5    5    0  503 -0.27435555603E+02  0.27750943276E+01  0.18609733038E+03  0.18818798377E+03  0.47000000000E+01 0.  1.
<mgrwt>
<rscale>  2 0.24033512E+03</rscale>
<asrwt>0</asrwt>
<pdfrwt beam="1">  1       21 0.74288389E-01 0.24060463E+03</pdfrwt>
<pdfrwt beam="2">  1       21 0.24287816E-01 0.24060463E+03</pdfrwt>
<totfact> 0.25333567E+04</totfact>
</mgrwt>
</event>
<event>
12    1  0.1441827E-001  0.3722069E+03  0.7546771E-02  0.1053885E+00
         21   -1    0    0  504  503  0.00000000000E+00  0.00000000000E+00  0.67536583580E+03  0.67536583580E+03  0.00000000000E+00 0.  1.
         21   -1    0    0  502  504 -0.00000000000E+00 -0.00000000000E+00 -0.84883606846E+03  0.84883606846E+03  0.00000000000E+00 0. -1.
          6    2    1    2  502    0  0.89732445094E+02  0.31644845698E+03 -0.75047996414E+03  0.83755918311E+03  0.17347527488E+03 0.  0.
         24    2    3    3    0    0 -0.11409127547E+02  0.15735526440E+03 -0.29032957057E+03  0.34026577238E+03  0.81232314273E+02 0.  0.
         -6    2    1    2    0  503 -0.89732445094E+02 -0.31644845698E+03  0.57700973148E+03  0.68664272115E+03  0.17420234971E+03 0.  0.
        -24    2    5    5    0    0 -0.19297068645E+02 -0.14957248434E+03  0.17300585508E+03  0.24386743429E+03  0.82437823145E+02 0.  0.
          2    1    4    4  501    0  0.16395835855E+02  0.14485422425E+03 -0.25378777449E+03  0.29267696219E+03  0.00000000000E+00 0. -1.
         -1    1    4    4    0  501 -0.27804963402E+02  0.12501040144E+02 -0.36541796079E+02  0.47588810188E+02  0.00000000000E+00 0.  1.
          5    1    3    3  502    0  0.10114157264E+03  0.15909319258E+03 -0.46015039358E+03  0.49729341073E+03  0.47000000000E+01 0. -1.
         13    1    6    6    0    0  0.17818658275E+02 -0.12671129946E+03  0.12236980006E+03  0.17705260789E+03  0.00000000000E+00 0. -1.
        -14    1    6    6    0    0 -0.37115726920E+02 -0.22861184882E+02  0.50636055022E+02  0.66814826403E+02  0.00000000000E+00 0.  1.
         -5    1    5    5    0  503 -0.70435376449E+02 -0.16687597264E+03  0.40400387640E+03  0.44277528685E+03  0.47000000000E+01 0.  1.
<mgrwt>
<rscale>  2 0.37212196E+03</rscale>
<asrwt>0</asrwt>
<pdfrwt beam="1">  1       21 0.10390244E+00 0.37220693E+03</pdfrwt>
<pdfrwt beam="2">  1       21 0.13059016E+00 0.37220693E+03</pdfrwt>
<totfact> 0.27500529E+02</totfact>
</mgrwt>
</event>
<event>
12    1  0.1441827E-001  0.5819712E+03  0.7546771E-02  0.9943937E-01
         21   -1    0    0  504  503  0.00000000000E+00  0.00000000000E+00  0.10265191488E+04  0.10265191488E+04  0.00000000000E+00 0. -1.
         21   -1    0    0  502  504 -0.00000000000E+00 -0.00000000000E+00 -0.33119911583E+03  0.33119911583E+03  0.00000000000E+00 0.  1.
          6    2    1    2  502    0 -0.49529737826E+03  0.24848477487E+03  0.29904567435E+03  0.65364171296E+03  0.17537102761E+03 0.  0.
         24    2    3    3    0    0 -0.75294393336E+02  0.66379270688E+02  0.12709321347E+02  0.11366438099E+03  0.51793932182E+02 0.  0.
         -6    2    1    2    0  503  0.49529737826E+03 -0.24848477487E+03  0.39627435859E+03  0.70407655163E+03  0.17783769855E+03 0.  0.
        -24    2    5    5    0    0  0.18615864113E+03 -0.56852367680E+02  0.20165819832E+03  0.29153894350E+03  0.80260172267E+02 0.  0.
          4    1    4    4  501    0 -0.89672783228E+01  0.35659803112E+02  0.16859730898E+02  0.40451009436E+02  0.00000000000E+00 0. -1.
         -3    1    4    4    0  501 -0.66327115014E+02  0.30719467576E+02 -0.41504095510E+01  0.73213371549E+02  0.00000000000E+00 0.  1.
          5    1    3    3  502    0 -0.42000298492E+03  0.18210550418E+03  0.28633635300E+03  0.53997733198E+03  0.47000000000E+01 0. -1.
         11    1    6    6    0    0  0.70180143815E+02 -0.47595417310E+02  0.12897721016E+03  0.15435574843E+03  0.00000000000E+00 0. -1.
        -12    1    6    6    0    0  0.11597849731E+03 -0.92569503694E+01  0.72680988164E+02  0.13718319507E+03  0.00000000000E+00 0.  1.
         -5    1    5    5    0  503  0.30913873713E+03 -0.19163240719E+03  0.19461616027E+03  0.41253760813E+03  0.47000000000E+01 0.  1.
<mgrwt>
<rscale>  2 0.58178381E+03</rscale>
<asrwt>0</asrwt>
<pdfrwt beam="1">  1       21 0.15792602E+00 0.58197115E+03</pdfrwt>
<pdfrwt beam="2">  1       21 0.50953711E-01 0.58197115E+03</pdfrwt>
<totfact> 0.76187668E+02</totfact>
</mgrwt>
</event>
<event>
12    1  0.1441827E-001  0.2085515E+03  0.7546771E-02  0.1142863E+00
         21   -1    0    0  504  503  0.00000000000E+00  0.00000000000E+00  0.46841057557E+02  0.46841057557E+02  0.00000000000E+00 0.  1.
         21   -1    0    0  502  504 -0.00000000000E+00 -0.00000000000E+00 -0.11149601956E+04  0.11149601956E+04  0.00000000000E+00 0. -1.
          6    2    1    2  502    0  0.11399251429E+01  0.11557610119E+03 -0.77286599766E+03  0.80032074403E+03  0.17272031839E+03 0.  0.
         24    2    3    3    0    0 -0.10346085908E+02  0.13379947437E+03 -0.44603414493E+03  0.47274606591E+03  0.80827245153E+02 0.  0.
         -6    2    1    2    0  503 -0.11399251429E+01 -0.11557610119E+03 -0.29525314036E+03  0.36148050910E+03  0.17359322273E+03 0.  0.
        -24    2    5    5    0    0  0.25295299397E+02  0.88829511637E+01 -0.11908652752E+03  0.14411988183E+03  0.76617101945E+02 0.  0.
          2    1    4    4  501    0  0.16448097702E+01  0.14185663475E+03 -0.41316014130E+03  0.43683785617E+03  0.00000000000E+00 0. -1.
         -1    1    4    4    0  501 -0.11990895678E+02 -0.80571603806E+01 -0.32874003624E+02  0.35908209741E+02  0.00000000000E+00 0.  1.
          5    1    3    3  502    0  0.11486011051E+02 -0.18223373186E+02 -0.32683185274E+03  0.32757467812E+03  0.47000000000E+01 0. -1.
         13    1    6    6    0    0  0.16631888251E+02 -0.29878765112E+02 -0.85570226869E+02  0.92150008344E+02  0.00000000000E+00 0. -1.
        -14    1    6    6    0    0  0.86634111459E+01  0.38761716276E+02 -0.33516300651E+02  0.51969873491E+02  0.00000000000E+00 0.  1.
         -5    1    5    5    0  503 -0.26435224540E+02 -0.12445905235E+03 -0.17616661284E+03  0.21736062727E+03  0.47000000000E+01 0.  1.
<mgrwt>
<rscale>  2 0.20836979E+03</rscale>
<asrwt>0</asrwt>
<pdfrwt beam="1">  1       21 0.72063158E-02 0.20855153E+03</pdfrwt>
<pdfrwt beam="2">  1       21 0.17153236E+00 0.20855153E+03</pdfrwt>
<totfact> 0.29636407E+04</totfact>
</mgrwt>
</event>
<event>
12    1  0.1441827E-001  0.2931142E+03  0.7546771E-02  0.1089351E+00
         21   -1    0    0  504  503  0.00000000000E+00  0.00000000000E+00  0.41562724767E+03  0.41562724767E+03  0.00000000000E+00 0. -1.
         21   -1    0    0  502  504 -0.00000000000E+00 -0.00000000000E+00 -0.20873460728E+03  0.20873460728E+03  0.00000000000E+00 0. -1.
          6    2    1    2  502    0 -0.16573606611E+03  0.16144032707E+03  0.15428016309E+03  0.33123754097E+03  0.17995698656E+03 0.  0.
         24    2    3    3    0    0  0.44689306078E+01  0.31016646661E+02  0.36076755010E+02  0.86341209840E+02  0.71911532829E+02 0.  0.
         -6    2    1    2    0  503  0.16573606611E+03 -0.16144032707E+03  0.52612477305E+02  0.29312431399E+03  0.17211149837E+03 0.  0.
        -24    2    5    5    0    0  0.38659326265E+02 -0.12575533848E+03  0.14358910208E+02  0.15562034454E+03  0.81869192434E+02 0.  0.
          4    1    4    4  501    0 -0.70479806243E+00  0.21737740941E+01  0.52634146168E+02  0.52683729718E+02  0.00000000000E+00 0. -1.
         -3    1    4    4    0  501  0.51737286702E+01  0.28842872567E+02 -0.16557391158E+02  0.33657480123E+02  0.00000000000E+00 0.  1.
          5    1    3    3  502    0 -0.17020499671E+03  0.13042368041E+03  0.11820340808E+03  0.24489633113E+03  0.47000000000E+01 0. -1.
         11    1    6    6    0    0  0.33238853738E+02 -0.60914327191E+02  0.46012998410E+02  0.83262072264E+02  0.00000000000E+00 0. -1.
        -12    1    6    6    0    0  0.54204725274E+01 -0.64841011284E+02 -0.31654088202E+02  0.72358272276E+02  0.00000000000E+00 0.  1.
         -5    1    5    5    0  503  0.12707673984E+03 -0.35684988596E+02  0.38253567097E+02  0.13750396945E+03  0.47000000000E+01 0.  1.
<mgrwt>
<rscale>  2 0.29191937E+03</rscale>
<asrwt>0</asrwt>
<pdfrwt beam="1">  1       21 0.63942653E-01 0.29311421E+03</pdfrwt>
<pdfrwt beam="2">  1       21 0.32113017E-01 0.29311421E+03</pdfrwt>
<totfact> 0.20032379E+04</totfact>
</mgrwt>
</event>
<event>
12    1  0.1441827E-001  0.2249743E+03  0.7546771E-02  0.1130305E+00
         21   -1    0    0  504  503  0.00000000000E+00  0.00000000000E+00  0.22378637994E+03  0.22378637994E+03  0.00000000000E+00 0.  1.
         21   -1    0    0  502  504 -0.00000000000E+00 -0.00000000000E+00 -0.22590227657E+03  0.22590227657E+03  0.00000000000E+00 0.  1.
          6    2    1    2  502    0 -0.12330472050E+03  0.74988358587E+02  0.49077273922E+01  0.22502780763E+03  0.17258655914E+03 0.  0.
         24    2    3    3    0    0 -0.14671876077E+03  0.64785165802E+02  0.38023186803E+02  0.18294400936E+03  0.79367722392E+02 0.  0.
         -6    2    1    2    0  503  0.12330472050E+03 -0.74988358587E+02 -0.70236240223E+01  0.22466084889E+03  0.17203446662E+03 0.  0.
        -24    2    5    5    0    0  0.13190985878E+03 -0.73686183356E+01  0.44883135615E+01  0.15537093343E+03  0.81642357995E+02 0.  0.
          4    1    4    4  501    0 -0.63376023898E+02  0.12009509561E+02  0.52592189749E+02  0.83226721355E+02  0.00000000000E+00 0. -1.
         -3    1    4    4    0  501 -0.83342736871E+02  0.52775656241E+02 -0.14569002946E+02  0.99717288008E+02  0.00000000000E+00 0.  1.
          5    1    3    3  502    0  0.23414040266E+02  0.10203192784E+02 -0.33115459411E+02  0.42083798267E+02  0.47000000000E+01 0. -1.
         13    1    6    6    0    0  0.33562328389E+02  0.28630087453E+02 -0.19013003482E+02  0.48037548812E+02  0.00000000000E+00 0. -1.
        -14    1    6    6    0    0  0.98347530388E+02 -0.35998705789E+02  0.23501317043E+02  0.10733338462E+03  0.00000000000E+00 0.  1.
         -5    1    5    5    0  503 -0.86051382750E+01 -0.67619740251E+02 -0.11511937584E+02  0.69289915452E+02  0.47000000000E+01 0.  1.
<mgrwt>
<rscale>  2 0.22486840E+03</rscale>
<asrwt>0</asrwt>
<pdfrwt beam="1">  1       21 0.34428674E-01 0.22497428E+03</pdfrwt>
<pdfrwt beam="2">  1       21 0.34754196E-01 0.22497428E+03</pdfrwt>
<totfact> 0.63967662E+04</totfact>
</mgrwt>
</event>
<event>
12    1  0.1441827E-001  0.2531730E+03  0.7546771E-02  0.1111797E+00
         21   -1    0    0  504  503  0.00000000000E+00  0.00000000000E+00  0.37391243766E+03  0.37391243766E+03  0.00000000000E+00 0. -1.
         21   -1    0    0  502  504 -0.00000000000E+00 -0.00000000000E+00 -0.17397571623E+03  0.17397571623E+03  0.00000000000E+00 0. -1.
          6    2    1    2  502    0 -0.17991093501E+03  0.41615106875E+02  0.14524326735E+03  0.29187698502E+03  0.17319586028E+03 0.  0.
         24    2    3    3    0    0 -0.20301867603E+03  0.32747575971E+02  0.10566869349E+03  0.24496389840E+03  0.80947218536E+02 0.  0.
         -6    2    1    2    0  503  0.17991093501E+03 -0.41615106875E+02  0.54693454081E+02  0.25601116888E+03  0.16867300619E+03 0.  0.
        -24    2    5    5    0    0  0.89220992254E+02 -0.87605907642E+02  0.27727041375E+02  0.15070638795E+03  0.79425726523E+02 0.  0.
          4    1    4    4  501    0 -0.15546584151E+03  0.16270384892E+02  0.38416998727E+02  0.16096651544E+03  0.00000000000E+00 0. -1.
         -3    1    4    4    0  501 -0.47552834516E+02  0.16477191079E+02  0.67251694760E+02  0.83997382962E+02  0.00000000000E+00 0.  1.
          5    1    3    3  502    0  0.23107741020E+02  0.88675309039E+01  0.39574573863E+02  0.46913086616E+02  0.47000000000E+01 0. -1.
         11    1    6    6    0    0  0.94138695055E+02 -0.49976058121E+02  0.34767058233E+02  0.11210909254E+03  0.00000000000E+00 0. -1.
        -12    1    6    6    0    0 -0.49177028007E+01 -0.37629849521E+02 -0.70400168575E+01  0.38597295413E+02  0.00000000000E+00 0.  1.
         -5    1    5    5    0  503  0.90689942754E+02  0.45990800767E+02  0.26966412706E+02  0.10530478093E+03  0.47000000000E+01 0.  1.
<mgrwt>
<rscale>  2 0.25240140E+03</rscale>
<asrwt>0</asrwt>
<pdfrwt beam="1">  1       21 0.57524990E-01 0.25317300E+03</pdfrwt>
<pdfrwt beam="2">  1       21 0.26765495E-01 0.25317300E+03</pdfrwt>
<totfact> 0.36614718E+04</totfact>
</mgrwt>
</event>
<event>
12    1  0.1441827E-001  0.1970277E+03  0.7546771E-02  0.1156946E+00
         21   -1    0    0  504  503  0.00000000000E+00  0.00000000000E+00  0.50744945889E+03  0.50744945889E+03  0.00000000000E+00 0. -1.
         21   -1    0    0  502  504 -0.00000000000E+00 -0.00000000000E+00 -0.71235657843E+02  0.71235657843E+02  0.00000000000E+00 0. -1.
          6    2    1    2  502    0 -0.13208050121E+02 -0.38455933554E+02  0.17566219166E+03  0.26396422309E+03  0.19278639495E+03 0.  0.
         24    2    3    3    0    0  0.72980161089E+01  0.47969188154E+02  0.42137369485E+02  0.10352492444E+03  0.81163711237E+02 0.  0.
         -6    2    1    2    0  503  0.13208050121E+02  0.38455933554E+02  0.26055160939E+03  0.31472089365E+03  0.17178122228E+03 0.  0.
        -24    2    5    5    0    0  0.43860161187E+01  0.87205978882E+02  0.21851257765E+03  0.24957670439E+03  0.83166489020E+02 0.  0.
          4    1    4    4  501    0  0.44117863678E+02  0.22596473820E+02  0.18186609355E+02  0.52799046246E+02  0.00000000000E+00 0. -1.
         -3    1    4    4    0  501 -0.36819847569E+02  0.25372714334E+02  0.23950760130E+02  0.50725878194E+02  0.00000000000E+00 0.  1.
          5    1    3    3  502    0 -0.20506066230E+02 -0.86425121709E+02  0.13352482217E+03  0.16043929865E+03  0.47000000000E+01 0. -1.
         11    1    6    6    0    0  0.38251527383E+02  0.15827068404E+02  0.81769658761E+02  0.91651254958E+02  0.00000000000E+00 0. -1.
        -12    1    6    6    0    0 -0.33865511264E+02  0.71378910477E+02  0.13674291889E+03  0.15792544944E+03  0.00000000000E+00 0.  1.
         -5    1    5    5    0  503  0.88220340027E+01 -0.48750045327E+02  0.42039031742E+02  0.65144189251E+02  0.47000000000E+01 0.  1.
<mgrwt>
<rscale>  2 0.19168970E+03</rscale>
<asrwt>0</asrwt>
<pdfrwt beam="1">  1       21 0.78069145E-01 0.19702768E+03</pdfrwt>
<pdfrwt beam="2">  1       21 0.10959332E-01 0.19702768E+03</pdfrwt>
<totfact> 0.10007314E+05</totfact>
</mgrwt>
</event>
<event>
12    1  0.1441827E-001  0.2485622E+03  0.7546771E-02  0.1114229E+00
         21   -1    0    0  504  503  0.00000000000E+00  0.00000000000E+00  0.23463835307E+04  0.23463835307E+04  0.00000000000E+00 0.  1.
         21   -1    0    0  502  504 -0.00000000000E+00 -0.00000000000E+00 -0.31322419321E+02  0.31322419321E+02  0.00000000000E+00 0.  1.
          6    2    1    2  502    0  0.17197344605E+03 -0.48663134625E+02  0.68271703547E+03  0.72655743575E+03  0.17274313333E+03 0.  0.
         24    2    3    3    0    0  0.17067960352E+03 -0.86004316357E+02  0.61711128021E+03  0.65091192693E+03  0.79572199748E+02 0.  0.
         -6    2    1    2    0  503 -0.17197344605E+03  0.48663134625E+02  0.16323440759E+04  0.16511485143E+04  0.17263043531E+03 0.  0.
        -24    2    5    5    0    0 -0.16437366775E+03  0.90730024397E+02  0.14045743730E+04  0.14193544087E+04  0.80542709358E+02 0.  0.
          2    1    4    4  501    0  0.13462424081E+03 -0.30085284488E+02  0.46144260715E+03  0.48162027600E+03  0.00000000000E+00 0. -1.
         -1    1    4    4    0  501  0.36055362713E+02 -0.55919031869E+02  0.15566867305E+03  0.16929165093E+03  0.00000000000E+00 0.  1.
          5    1    3    3  502    0  0.12938425296E+01  0.37341181732E+02  0.65605755264E+02  0.75645508825E+02  0.47000000000E+01 0. -1.
         11    1    6    6    0    0 -0.16562374507E+02  0.46000676466E+02  0.40054478477E+03  0.40351765648E+03  0.00000000000E+00 0. -1.
        -12    1    6    6    0    0 -0.14781129324E+03  0.44729347930E+02  0.10040295883E+04  0.10158367522E+04  0.00000000000E+00 0.  1.
         -5    1    5    5    0  503 -0.75997783014E+01 -0.42066889772E+02  0.22776970289E+03  0.23179410562E+03  0.47000000000E+01 0.  1.
<mgrwt>
<rscale>  2 0.24854260E+03</rscale>
<asrwt>0</asrwt>
<pdfrwt beam="1">  1       21 0.36098194E+00 0.24856218E+03</pdfrwt>
<pdfrwt beam="2">  1       21 0.48188356E-02 0.24856218E+03</pdfrwt>
<totfact> 0.40391341E+03</totfact>
</mgrwt>
</event>
<event>
12    1  0.1441827E-001  0.1749593E+03  0.7546771E-02  0.1173262E+00
         21   -1    0    0  504  503  0.00000000000E+00  0.00000000000E+00  0.24458204879E+03  0.24458204879E+03  0.00000000000E+00 0. -1.
         21   -1    0    0  502  504 -0.00000000000E+00 -0.00000000000E+00 -0.31509762678E+03  0.31509762678E+03  0.00000000000E+00 0. -1.
          6    2    1    2  502    0 -0.44947638506E+01 -0.26930204087E+02 -0.25339183206E+03  0.30792562091E+03  0.17281588082E+03 0.  0.
         24    2    3    3    0    0  0.47593650522E+02 -0.42779339584E+02 -0.22313387705E+03  0.24545937523E+03  0.79789412428E+02 0.  0.
         -6    2    1    2    0  503  0.44947638506E+01  0.26930204087E+02  0.18287625407E+03  0.25175405466E+03  0.17085356579E+03 0.  0.
        -24    2    5    5    0    0  0.64644461332E+02  0.26850778458E+02  0.14690836050E+03  0.18151324186E+03  0.80405969308E+02 0.  0.
          2    1    4    4  501    0 -0.27777158654E+01 -0.30145186188E+02 -0.16395079851E+03  0.16672226092E+03  0.00000000000E+00 0. -1.
         -1    1    4    4    0  501  0.50371366388E+02 -0.12634153396E+02 -0.59183078545E+02  0.78737114310E+02  0.00000000000E+00 0.  1.
          5    1    3    3  502    0 -0.52088414373E+02  0.15849135497E+02 -0.30257955009E+02  0.62466245679E+02  0.47000000000E+01 0. -1.
         11    1    6    6    0    0 -0.64082444680E+01  0.66289993151E+01  0.83937773881E+02  0.84442638004E+02  0.00000000000E+00 0. -1.
        -12    1    6    6    0    0  0.71052705800E+02  0.20221779143E+02  0.62970586616E+02  0.97070603851E+02  0.00000000000E+00 0.  1.
         -5    1    5    5    0  503 -0.60149697482E+02  0.79425628810E-01  0.35967893569E+02  0.70240812804E+02  0.47000000000E+01 0.  1.
<mgrwt>
<rscale>  2 0.17447280E+03</rscale>
<asrwt>0</asrwt>
<pdfrwt beam="1">  1       21 0.37628007E-01 0.17495933E+03</pdfrwt>
<pdfrwt beam="2">  1       21 0.48476558E-01 0.17495933E+03</pdfrwt>
<totfact> 0.27954488E+04</totfact>
</mgrwt>
</event>
<event>
12    1  0.1441827E-001  0.2329562E+03  0.7546771E-02  0.1124922E+00
         21   -1    0    0  504  503  0.00000000000E+00  0.00000000000E+00  0.14218090193E+03  0.14218090193E+03  0.00000000000E+00 0. -1.
         21   -1    0    0  502  504 -0.00000000000E+00 -0.00000000000E+00 -0.13041711932E+04  0.13041711932E+04  0.00000000000E+00 0. -1.
          6    2    1    2  502    0 -0.14412925371E+03  0.52087274839E+02 -0.11895555328E+04  0.12117707114E+04  0.17279920503E+03 0.  0.
         24    2    3    3    0    0 -0.96638532251E+02  0.10138629474E+03 -0.77467515133E+03  0.79125485798E+03  0.79652203505E+02 0.  0.
         -6    2    1    2    0  503  0.14412925371E+03 -0.52087274839E+02  0.27565241539E+02  0.23458138379E+03  0.17544873069E+03 0.  0.
        -24    2    5    5    0    0  0.17306452588E+03 -0.58453116894E+02  0.29856078924E+02  0.20449630682E+03  0.86943988077E+02 0.  0.
          4    1    4    4  501    0 -0.29493003157E+02  0.60115878636E+02 -0.52964725576E+03  0.53386325181E+03  0.00000000000E+00 0. -1.
         -3    1    4    4    0  501 -0.67145529095E+02  0.41270416104E+02 -0.24502789557E+03  0.25739160618E+03  0.00000000000E+00 0.  1.
          5    1    3    3  502    0 -0.47490721461E+02 -0.49299019901E+02 -0.41488038149E+03  0.42051585337E+03  0.47000000000E+01 0. -1.
         11    1    6    6    0    0  0.13750227939E+03 -0.27243111087E+02 -0.12843853650E+02  0.14076231213E+03  0.00000000000E+00 0. -1.
        -12    1    6    6    0    0  0.35562246488E+02 -0.31210005807E+02  0.42699932574E+02  0.63733994693E+02  0.00000000000E+00 0.  1.
         -5    1    5    5    0  503 -0.28935272163E+02  0.63658420549E+01 -0.22908373847E+01  0.30085076967E+02  0.47000000000E+01 0.  1.
<mgrwt>
<rscale>  2 0.23245736E+03</rscale>
<asrwt>0</asrwt>
<pdfrwt beam="1">  1       21 0.21873985E-01 0.23295618E+03</pdfrwt>
<pdfrwt beam="2">  1       21 0.20064172E+00 0.23295618E+03</pdfrwt>
<totfact> 0.24985030E+03</totfact>
</mgrwt>
</event>
<event>
12    1  0.1441827E-001  0.2117743E+03  0.7546771E-02  0.1141321E+00
         21   -1    0    0  504  503  0.00000000000E+00  0.00000000000E+00  0.32620142227E+03  0.32620142227E+03  0.00000000000E+00 0. -1.
         21   -1    0    0  502  504 -0.00000000000E+00 -0.00000000000E+00 -0.19265604741E+03  0.19265604741E+03  0.00000000000E+00 0. -1.
          6    2    1    2  502    0 -0.91916372727E+02 -0.80388745780E+02 -0.77315598342E+02  0.22000849988E+03  0.16587666578E+03 0.  0.
         24    2    3    3    0    0  0.11268387506E+02 -0.42124809346E+02 -0.57634546116E+02  0.10811275647E+03  0.80406163239E+02 0.  0.
         -6    2    1    2    0  503  0.91916372727E+02  0.80388745780E+02  0.21086097321E+03  0.29884896981E+03  0.17302423735E+03 0.  0.
        -24    2    5    5    0    0  0.10542471559E+03  0.99492389757E+01  0.97465512222E+02  0.16459242428E+03  0.79861017049E+02 0.  0.
          2    1    4    4  501    0  0.25585198105E+02 -0.53537412700E+02 -0.14251225345E+02  0.61024211134E+02  0.00000000000E+00 0. -1.
         -1    1    4    4    0  501 -0.14316810599E+02  0.11412603354E+02 -0.43383320771E+02  0.47088545339E+02  0.00000000000E+00 0.  1.
          5    1    3    3  502    0 -0.10318476023E+03 -0.38263936433E+02 -0.19681052226E+02  0.11189574341E+03  0.47000000000E+01 0. -1.
         11    1    6    6    0    0  0.59567678772E+02  0.18043839882E+02  0.10018778497E+03  0.11794694049E+03  0.00000000000E+00 0. -1.
        -12    1    6    6    0    0  0.45857036815E+02 -0.80946009064E+01 -0.27222727513E+01  0.46645483792E+02  0.00000000000E+00 0.  1.
         -5    1    5    5    0  503 -0.13508342860E+02  0.70439506804E+02  0.11339546098E+03  0.13425654553E+03  0.47000000000E+01 0.  1.
<mgrwt>
<rscale>  2 0.21030956E+03</rscale>
<asrwt>0</asrwt>
<pdfrwt beam="1">  1       21 0.50184834E-01 0.21177431E+03</pdfrwt>
<pdfrwt beam="2">  1       21 0.29639392E-01 0.21177431E+03</pdfrwt>
<totfact> 0.40856090E+04</totfact>
</mgrwt>
</event>
<event>
12    1  0.1441827E-001  0.2480621E+03  0.7546771E-02  0.1114595E+00
         21   -1    0    0  504  503  0.00000000000E+00  0.00000000000E+00  0.96631893346E+03  0.96631893346E+03  0.00000000000E+00 0. -1.
         21   -1    0    0  502  504 -0.00000000000E+00 -0.00000000000E+00 -0.10492261490E+03  0.10492261490E+03  0.00000000000E+00 0.  1.
          6    2    1    2  502    0  0.13556823054E+03 -0.11377928025E+03  0.94691945342E+02  0.26552097144E+03  0.17381125399E+03 0.  0.
         24    2    3    3    0    0  0.49691796826E+02 -0.10377414106E+03  0.10886900889E+03  0.17778304458E+03  0.80721761753E+02 0.  0.
         -6    2    1    2    0  503 -0.13556823054E+03  0.11377928025E+03  0.76670437322E+03  0.80572057693E+03  0.17327891511E+03 0.  0.
        -24    2    5    5    0    0 -0.99981935198E+01  0.74945135360E+01  0.20102192161E+03  0.21658306167E+03  0.79638420529E+02 0.  0.
          2    1    4    4  501    0  0.36080837746E+02 -0.11233755815E+03  0.11045716455E+03  0.16162406697E+03  0.00000000000E+00 0. -1.
         -1    1    4    4    0  501  0.13610959080E+02  0.85634170850E+01 -0.15881556605E+01  0.16158977617E+02  0.00000000000E+00 0.  1.
          5    1    3    3  502    0  0.85876433713E+02 -0.10005139186E+02 -0.14177063545E+02  0.87737926851E+02  0.47000000000E+01 0. -1.
         11    1    6    6    0    0 -0.22726094453E+02  0.29182823001E+02  0.18013398812E+03  0.18389226793E+03  0.00000000000E+00 0. -1.
        -12    1    6    6    0    0  0.12727900933E+02 -0.21688309465E+02  0.20887933494E+02  0.32690793738E+02  0.00000000000E+00 0.  1.
         -5    1    5    5    0  503 -0.12557003702E+03  0.10628476671E+03  0.56568245161E+03  0.58913751526E+03  0.47000000000E+01 0.  1.
<mgrwt>
<rscale>  2 0.24796890E+03</rscale>
<asrwt>0</asrwt>
<pdfrwt beam="1">  1       21 0.14866445E+00 0.24806213E+03</pdfrwt>
<pdfrwt beam="2">  1       21 0.16141941E-01 0.24806213E+03</pdfrwt>
<totfact> 0.10108623E+04</totfact>
</mgrwt>
</event>
<event>
12    1  0.1441827E-001  0.1940432E+03  0.7546771E-02  0.1155325E+00
         21   -1    0    0  504  503  0.00000000000E+00  0.00000000000E+00  0.63684352299E+03  0.63684352299E+03  0.00000000000E+00 0.  1.
         21   -1    0    0  502  504 -0.00000000000E+00 -0.00000000000E+00 -0.13968315199E+03  0.13968315199E+03  0.00000000000E+00 0.  1.
          6    2    1    2  502    0 -0.55466743114E+02  0.61883747446E+02 -0.47998149214E+02  0.19786391931E+03  0.17303222372E+03 0.  0.
         24    2    3    3    0    0 -0.76459090923E+02  0.96895613704E+02 -0.51068827210E+02  0.15665677783E+03  0.81844782291E+02 0.  0.
         -6    2    1    2    0  503  0.55466743114E+02 -0.61883747446E+02  0.54515852021E+03  0.57866275567E+03  0.17534712675E+03 0.  0.
        -24    2    5    5    0    0  0.53401958237E+02 -0.68376657905E+01  0.49456387699E+03  0.50372116265E+03  0.79013027172E+02 0.  0.
          2    1    4    4  501    0 -0.88778250223E+01  0.14022708570E+02  0.21693574264E+02  0.27314159279E+02  0.00000000000E+00 0. -1.
         -1    1    4    4    0  501 -0.67581265901E+02  0.82872905133E+02 -0.72762401474E+02  0.12934261855E+03  0.00000000000E+00 0.  1.
          5    1    3    3  502    0  0.20992347808E+02 -0.35011866257E+02  0.30706779960E+01  0.41207141477E+02  0.47000000000E+01 0. -1.
         13    1    6    6    0    0  0.19695052379E+02  0.30900890793E+02  0.31628393129E+03  0.31839956867E+03  0.00000000000E+00 0. -1.
        -14    1    6    6    0    0  0.33706905858E+02 -0.37738556583E+02  0.17827994571E+03  0.18532159398E+03  0.00000000000E+00 0.  1.
         -5    1    5    5    0  503  0.20647848776E+01 -0.55046081656E+02  0.50594643215E+02  0.74941593020E+02  0.47000000000E+01 0.  1.
<mgrwt>
<rscale>  2 0.19351878E+03</rscale>
<asrwt>0</asrwt>
<pdfrwt beam="1">  1       21 0.97975925E-01 0.19404322E+03</pdfrwt>
<pdfrwt beam="2">  1       21 0.21489716E-01 0.19404322E+03</pdfrwt>
<totfact> 0.17368453E+04</totfact>
</mgrwt>
</event>
<event>
12    1  0.1441827E-001  0.1892067E+03  0.7546771E-02  0.1159959E+00
         21   -1    0    0  504  503  0.00000000000E+00  0.00000000000E+00  0.11754824475E+03  0.11754824475E+03  0.00000000000E+00 0.  1.
         21   -1    0    0  502  504 -0.00000000000E+00 -0.00000000000E+00 -0.44141456862E+03  0.44141456862E+03  0.00000000000E+00 0.  1.
          6    2    1    2  502    0  0.22288297867E+02 -0.70955707254E+02 -0.32162592817E+03  0.37315200566E+03  0.17397615079E+03 0.  0.
         24    2    3    3    0    0 -0.91957491053E+01  0.21162890370E+02 -0.97666154100E+02  0.12890387027E+03  0.80901794682E+02 0.  0.
         -6    2    1    2    0  503 -0.22288297867E+02  0.70955707254E+02 -0.22403957001E+01  0.18581080770E+03  0.17026202240E+03 0.  0.
        -24    2    5    5    0    0  0.11035135587E+02  0.64429394069E+02 -0.58202852104E+02  0.12018359911E+03  0.82362639981E+02 0.  0.
          4    1    4    4  501    0 -0.37696159842E+02  0.25335849493E+02 -0.87084924296E+02  0.98217563480E+02  0.00000000000E+00 0. -1.
         -3    1    4    4    0  501  0.28500410737E+02 -0.41729591236E+01 -0.10581229804E+02  0.30686306786E+02  0.00000000000E+00 0.  1.
          5    1    3    3  502    0  0.31484046973E+02 -0.92118597624E+02 -0.22395977407E+03  0.24424813540E+03  0.47000000000E+01 0. -1.
         11    1    6    6    0    0  0.65014212521E+01  0.68796530766E+02 -0.79737405919E+01  0.69561567426E+02  0.00000000000E+00 0. -1.
        -12    1    6    6    0    0  0.45337143353E+01 -0.43671366966E+01 -0.50229111513E+02  0.50622031685E+02  0.00000000000E+00 0.  1.
         -5    1    5    5    0  503 -0.33323433455E+02  0.65263131846E+01  0.55962456404E+02  0.65627208594E+02  0.47000000000E+01 0.  1.
<mgrwt>
<rscale>  2 0.18834854E+03</rscale>
<asrwt>0</asrwt>
<pdfrwt beam="1">  1       21 0.18084346E-01 0.18920672E+03</pdfrwt>
<pdfrwt beam="2">  1       21 0.67909933E-01 0.18920672E+03</pdfrwt>
<totfact> 0.55217549E+04</totfact>
</mgrwt>
</event>
<event>
12    1  0.1441827E-001  0.2233997E+03  0.7546771E-02  0.1132165E+00
         21   -1    0    0  504  503  0.00000000000E+00  0.00000000000E+00  0.32792839308E+03  0.32792839308E+03  0.00000000000E+00 0.  1.
         21   -1    0    0  502  504 -0.00000000000E+00 -0.00000000000E+00 -0.25468315625E+03  0.25468315625E+03  0.00000000000E+00 0. -1.
          6    2    1    2  502    0 -0.10716216756E+03 -0.82654141869E+02 -0.15097789500E+03  0.26609390679E+03  0.17232586901E+03 0.  0.
         24    2    3    3    0    0 -0.84643282775E+02 -0.35298535201E+02 -0.17088089538E+02  0.12222513443E+03  0.78971569417E+02 0.  0.
         -6    2    1    2    0  503  0.10716216756E+03  0.82654141869E+02  0.22422313182E+03  0.31651764254E+03  0.17774129477E+03 0.  0.
        -24    2    5    5    0    0  0.22148418965E+02 -0.59171703796E+01  0.68696307944E+02  0.11831850593E+03  0.93565595992E+02 0.  0.
          2    1    4    4  501    0  0.48675902272E+01 -0.12824028321E+02  0.18741499837E+02  0.23224834836E+02  0.00000000000E+00 0. -1.
         -1    1    4    4    0  501 -0.89510873002E+02 -0.22474506880E+02 -0.35829589375E+02  0.99000299595E+02  0.00000000000E+00 0.  1.
          5    1    3    3  502    0 -0.22518884789E+02 -0.47355606668E+02 -0.13388980546E+03  0.14386877236E+03  0.47000000000E+01 0. -1.
         11    1    6    6    0    0  0.33756224714E+01  0.37751057700E+02  0.41059175353E+01  0.38123427750E+02  0.00000000000E+00 0. -1.
        -12    1    6    6    0    0  0.18772796494E+02 -0.43668228080E+02  0.64590390409E+02  0.80195078184E+02  0.00000000000E+00 0.  1.
         -5    1    5    5    0  503  0.85013748599E+02  0.88571312249E+02  0.15552682388E+03  0.19819913660E+03  0.47000000000E+01 0.  1.
<mgrwt>
<rscale>  2 0.22232085E+03</rscale>
<asrwt>0</asrwt>
<pdfrwt beam="1">  1       21 0.50450522E-01 0.22339965E+03</pdfrwt>
<pdfrwt beam="2">  1       21 0.39182024E-01 0.22339965E+03</pdfrwt>
<totfact> 0.23083607E+04</totfact>
</mgrwt>
</event>
<event>
12    1  0.1441827E-001  0.1893582E+03  0.7546771E-02  0.1159095E+00
         21   -1    0    0  504  503  0.00000000000E+00  0.00000000000E+00  0.46912861141E+02  0.46912861141E+02  0.00000000000E+00 0. -1.
         21   -1    0    0  502  504 -0.00000000000E+00 -0.00000000000E+00 -0.90681179976E+03  0.90681179976E+03  0.00000000000E+00 0. -1.
          6    2    1    2  502    0 -0.70474025865E+02 -0.28726868682E+02 -0.24051786425E+03  0.30611333468E+03  0.17339177992E+03 0.  0.
         24    2    3    3    0    0 -0.10657853317E+03 -0.26538923607E+02 -0.23161941693E+03  0.26856876229E+03  0.80114465472E+02 0.  0.
         -6    2    1    2    0  503  0.70474025865E+02  0.28726868682E+02 -0.61938107437E+03  0.64761132622E+03  0.17313489899E+03 0.  0.
        -24    2    5    5    0    0  0.13055891528E+02  0.53364739007E+02 -0.19699702809E+03  0.22060519118E+03  0.82707736198E+02 0.  0.
          4    1    4    4  501    0 -0.97232968355E+02 -0.15086251806E+02 -0.23376735406E+03  0.25363166394E+03  0.00000000000E+00 0. -1.
         -3    1    4    4    0  501 -0.93455648197E+01 -0.11452671801E+02  0.21479371285E+01  0.14937098349E+02  0.00000000000E+00 0.  1.
          5    1    3    3  502    0  0.36104507309E+02 -0.21879450752E+01 -0.88984473149E+01  0.37544572395E+02  0.47000000000E+01 0. -1.
         13    1    6    6    0    0  0.19669639382E+02  0.67925090412E+02 -0.19075022570E+03  0.20343638127E+03  0.00000000000E+00 0. -1.
        -14    1    6    6    0    0 -0.66137478530E+01 -0.14560351405E+02 -0.62468023966E+01  0.17168809914E+02  0.00000000000E+00 0.  1.
         -5    1    5    5    0  503  0.57418134337E+02 -0.24637870325E+02 -0.42238404628E+03  0.42700613503E+03  0.47000000000E+01 0.  1.
<mgrwt>
<rscale>  2 0.18929938E+03</rscale>
<asrwt>0</asrwt>
<pdfrwt beam="1">  1       21 0.72173639E-02 0.18935821E+03</pdfrwt>
<pdfrwt beam="2">  1       21 0.13950950E+00 0.18935821E+03</pdfrwt>
<totfact> 0.51900324E+04</totfact>
</mgrwt>
</event>
<event>
12    1  0.1441827E-001  0.1779070E+03  0.7546771E-02  0.1169910E+00
         21   -1    0    0  504  503  0.00000000000E+00  0.00000000000E+00  0.38029496182E+02  0.38029496182E+02  0.00000000000E+00 0. -1.
         21   -1    0    0  502  504 -0.00000000000E+00 -0.00000000000E+00 -0.83130511752E+03  0.83130511752E+03  0.00000000000E+00 0. -1.
          6    2    1    2  502    0  0.17843578977E+01  0.39259047641E+02 -0.40502457459E+03  0.44237520599E+03  0.17351213241E+03 0.  0.
         24    2    3    3    0    0  0.86672376229E+01  0.14722066877E+02 -0.40791231391E+03  0.41630095630E+03  0.81376717294E+02 0.  0.
         -6    2    1    2    0  503 -0.17843578977E+01 -0.39259047641E+02 -0.38825104675E+03  0.42695940772E+03  0.17323684302E+03 0.  0.
        -24    2    5    5    0    0  0.46921027766E+02  0.24500709361E+02 -0.19072156604E+03  0.21370484867E+03  0.80580264246E+02 0.  0.
          2    1    4    4  501    0  0.38016759674E+02 -0.76086804489E+01 -0.12180332145E+03  0.12782493947E+03  0.00000000000E+00 0. -1.
         -1    1    4    4    0  501 -0.29349522051E+02  0.22330747326E+02 -0.28610899247E+03  0.28847601684E+03  0.00000000000E+00 0.  1.
          5    1    3    3  502    0 -0.68828797252E+01  0.24536980764E+02  0.28877393182E+01  0.26074249686E+02  0.47000000000E+01 0. -1.
         11    1    6    6    0    0  0.89788987569E+00  0.41790542489E+00 -0.14350552620E+03  0.14350894362E+03  0.00000000000E+00 0. -1.
        -12    1    6    6    0    0  0.46023137890E+02  0.24082803936E+02 -0.47216039848E+02  0.70195905049E+02  0.00000000000E+00 0.  1.
         -5    1    5    5    0  503 -0.48705385663E+02 -0.63759757002E+02 -0.19752948070E+03  0.21325455904E+03  0.47000000000E+01 0.  1.
<mgrwt>
<rscale>  2 0.17783989E+03</rscale>
<asrwt>0</asrwt>
<pdfrwt beam="1">  1       21 0.58506922E-02 0.17790705E+03</pdfrwt>
<pdfrwt beam="2">  1       21 0.12789309E+00 0.17790705E+03</pdfrwt>
<totfact> 0.93345994E+04</totfact>
</mgrwt>
</event>
<event>
12    1  0.1441827E-001  0.2370679E+03  0.7546771E-02  0.1122537E+00
         21   -1    0    0  504  503  0.00000000000E+00  0.00000000000E+00  0.65926672285E+02  0.65926672285E+02  0.00000000000E+00 0.  1.
         21   -1    0    0  502  504 -0.00000000000E+00 -0.00000000000E+00 -0.84592627454E+03  0.84592627454E+03  0.00000000000E+00 0.  1.
          6    2    1    2  502    0  0.15376530334E+03  0.23524485823E+02 -0.43504049490E+03  0.49328635153E+03  0.17284103234E+03 0.  0.
         24    2    3    3    0    0  0.81591182517E+02 -0.56518311960E+01 -0.11370006146E+03  0.16261714318E+03  0.82629093053E+02 0.  0.
         -6    2    1    2    0  503 -0.15376530334E+03 -0.23524485823E+02 -0.34495910735E+03  0.41856659529E+03  0.17889672720E+03 0.  0.
        -24    2    5    5    0    0 -0.98098637565E+02 -0.82923484750E+02 -0.18448943095E+03  0.23856763475E+03  0.79865632161E+02 0.  0.
          4    1    4    4  501    0  0.49067237735E+02 -0.24056060205E+02 -0.14391710322E+02  0.56510257277E+02  0.00000000000E+00 0. -1.
         -3    1    4    4    0  501  0.32523944782E+02  0.18404229009E+02 -0.99308351140E+02  0.10610688590E+03  0.00000000000E+00 0.  1.
          5    1    3    3  502    0  0.72174120825E+02  0.29176317019E+02 -0.32134043344E+03  0.33066920835E+03  0.47000000000E+01 0. -1.
         13    1    6    6    0    0  0.10880400601E+02  0.41540244670E+01 -0.11862893736E+02  0.16624298009E+02  0.00000000000E+00 0. -1.
        -14    1    6    6    0    0 -0.10897903817E+03 -0.87077509217E+02 -0.17262653722E+03  0.22194333674E+03  0.00000000000E+00 0.  1.
         -5    1    5    5    0  503 -0.55666665777E+02  0.59398998928E+02 -0.16046967640E+03  0.17999896054E+03  0.47000000000E+01 0.  1.
<mgrwt>
<rscale>  2 0.23592576E+03</rscale>
<asrwt>0</asrwt>
<pdfrwt beam="1">  1       21 0.10142566E-01 0.23706794E+03</pdfrwt>
<pdfrwt beam="2">  1       21 0.13014249E+00 0.23706794E+03</pdfrwt>
<totfact> 0.33287774E+04</totfact>
</mgrwt>
</event>
<event>
12    1  0.1441827E-001  0.2123110E+03  0.7546771E-02  0.1139921E+00
         21   -1    0    0  504  503  0.00000000000E+00  0.00000000000E+00  0.15139697031E+03  0.15139697031E+03  0.00000000000E+00 0.  1.
         21   -1    0    0  502  504 -0.00000000000E+00 -0.00000000000E+00 -0.29666878286E+03  0.29666878286E+03  0.00000000000E+00 0.  1.
          6    2    1    2  502    0  0.30047003829E+02  0.11918801147E+03 -0.67495898978E+02  0.22278162056E+03  0.17311080141E+03 0.  0.
         24    2    3    3    0    0 -0.25083573246E+02  0.10395752760E+03 -0.89216463160E+02  0.16142022329E+03  0.81612241699E+02 0.  0.
         -6    2    1    2    0  503 -0.30047003829E+02 -0.11918801147E+03 -0.77775913564E+02  0.22528413261E+03  0.17203268049E+03 0.  0.
        -24    2    5    5    0    0 -0.47923560103E+02 -0.12850840614E+03 -0.10607748489E+03  0.19021976379E+03  0.78230733578E+02 0.  0.
          4    1    4    4  501    0 -0.28138457899E+02  0.10396941413E+03 -0.44404018617E+02  0.11650377143E+03  0.00000000000E+00 0. -1.
         -3    1    4    4    0  501  0.30548846533E+01 -0.11886529879E-01 -0.44812444543E+02  0.44916451857E+02  0.00000000000E+00 0.  1.
          5    1    3    3  502    0  0.55130577075E+02  0.15230483869E+02  0.21720564182E+02  0.61361397278E+02  0.47000000000E+01 0. -1.
         13    1    6    6    0    0 -0.33424225315E+02 -0.94295931878E+02 -0.11457100623E+03  0.15210331053E+03  0.00000000000E+00 0. -1.
        -14    1    6    6    0    0 -0.14499334787E+02 -0.34212474259E+02  0.84935213424E+01  0.38116453258E+02  0.00000000000E+00 0.  1.
         -5    1    5    5    0  503  0.17876556273E+02  0.93203946670E+01  0.28301571325E+02  0.35064368815E+02  0.47000000000E+01 0.  1.
<mgrwt>
<rscale>  2 0.21209111E+03</rscale>
<asrwt>0</asrwt>
<pdfrwt beam="1">  1       21 0.23291842E-01 0.21231098E+03</pdfrwt>
<pdfrwt beam="2">  1       21 0.45641351E-01 0.21231098E+03</pdfrwt>
<totfact> 0.79097665E+04</totfact>
</mgrwt>
</event>
<event>
12    1  0.1441827E-001  0.1922241E+03  0.7546771E-02  0.1156858E+00
         21   -1    0    0  504  503  0.00000000000E+00  0.00000000000E+00  0.17606999486E+03  0.17606999486E+03  0.00000000000E+00 0. -1.
         21   -1    0    0  502  504 -0.00000000000E+00 -0.00000000000E+00 -0.22774377459E+03  0.22774377459E+03  0.00000000000E+00 0.  1.
          6    2    1    2  502    0 -0.66085897765E+02 -0.49697948623E+02  0.33551397790E+02  0.19513017025E+03  0.17353055946E+03 0.  0.
         24    2    3    3    0    0 -0.45874693460E+02 -0.98143353744E+02  0.21186732137E+01  0.13376604204E+03  0.78436342617E+02 0.  0.
         -6    2    1    2    0  503  0.66085897765E+02  0.49697948623E+02 -0.85225177524E+02  0.20868359920E+03  0.17160501656E+03 0.  0.
        -24    2    5    5    0    0 -0.59932530878E+01  0.16537432508E+02  0.11419021866E+02  0.83554805180E+02  0.80880193198E+02 0.  0.
          4    1    4    4  501    0 -0.11042092404E+02 -0.79131546365E+02  0.29916294057E+02  0.85315380120E+02  0.00000000000E+00 0. -1.
         -3    1    4    4    0  501 -0.34832601056E+02 -0.19011807378E+02 -0.27797620843E+02  0.48450661921E+02  0.00000000000E+00 0.  1.
          5    1    3    3  502    0 -0.20211204305E+02  0.48445405120E+02  0.31432724576E+02  0.61364128210E+02  0.47000000000E+01 0. -1.
         11    1    6    6    0    0 -0.38062447852E+01 -0.22654548502E+02  0.31875891217E+02  0.39291074153E+02  0.00000000000E+00 0. -1.
        -12    1    6    6    0    0 -0.21870083026E+01  0.39191981010E+02 -0.20456869351E+02  0.44263731027E+02  0.00000000000E+00 0.  1.
         -5    1    5    5    0  503  0.72079150852E+02  0.33160516115E+02 -0.96644199390E+02  0.12512879402E+03  0.47000000000E+01 0.  1.
<mgrwt>
<rscale>  2 0.19178845E+03</rscale>
<asrwt>0</asrwt>
<pdfrwt beam="1">  1       21 0.27087692E-01 0.19222405E+03</pdfrwt>
<pdfrwt beam="2">  1       21 0.35037504E-01 0.19222405E+03</pdfrwt>
<totfact> 0.10201233E+05</totfact>
</mgrwt>
</event>
<event>
12    1  0.1441827E-001  0.2527928E+03  0.7546771E-02  0.1111904E+00
         21   -1    0    0  504  503  0.00000000000E+00  0.00000000000E+00  0.44933037050E+03  0.44933037050E+03  0.00000000000E+00 0. -1.
         21   -1    0    0  502  504 -0.00000000000E+00 -0.00000000000E+00 -0.17162173995E+03  0.17162173995E+03  0.00000000000E+00 0.  1.
          6    2    1    2  502    0  0.18409465599E+03 -0.77035541830E+01  0.81328400364E+01  0.25292362591E+03  0.17307232692E+03 0.  0.
         24    2    3    3    0    0  0.18508647833E+03  0.50586842828E+01  0.51716245533E+02  0.20725677057E+03  0.77448073874E+02 0.  0.
         -6    2    1    2    0  503 -0.18409465599E+03  0.77035541830E+01  0.26957579052E+03  0.36802848454E+03  0.16977535594E+03 0.  0.
        -24    2    5    5    0    0 -0.15242264082E+03 -0.49745366238E+02  0.16124805398E+03  0.24129852159E+03  0.80726567604E+02 0.  0.
          4    1    4    4  501    0  0.62116092251E+02 -0.15805562677E+02  0.51987995991E+02  0.82528640211E+02  0.00000000000E+00 0. -1.
         -3    1    4    4    0  501  0.12297038608E+03  0.20864246960E+02 -0.27175045801E+00  0.12472813036E+03  0.00000000000E+00 0.  1.
          5    1    3    3  502    0 -0.99182234253E+00 -0.12762238466E+02 -0.43583405496E+02  0.45666855342E+02  0.47000000000E+01 0. -1.
         13    1    6    6    0    0 -0.11770453581E+03 -0.24890609166E+02  0.15784332259E+03  0.19846514722E+03  0.00000000000E+00 0. -1.
        -14    1    6    6    0    0 -0.34718105003E+02 -0.24854757072E+02  0.34047313825E+01  0.42833374370E+02  0.00000000000E+00 0.  1.
         -5    1    5    5    0  503 -0.31672015173E+02  0.57448920421E+02  0.10832773654E+03  0.12672996294E+03  0.47000000000E+01 0.  1.
<mgrwt>
<rscale>  2 0.25222953E+03</rscale>
<asrwt>0</asrwt>
<pdfrwt beam="1">  1       21 0.69127749E-01 0.25279284E+03</pdfrwt>
<pdfrwt beam="2">  1       21 0.26403345E-01 0.25279284E+03</pdfrwt>
<totfact> 0.25186021E+04</totfact>
</mgrwt>
</event>
<event>
12    1  0.1441827E-001  0.1924783E+03  0.7546771E-02  0.1156804E+00
         21   -1    0    0  504  503  0.00000000000E+00  0.00000000000E+00  0.54602482017E+03  0.54602482017E+03  0.00000000000E+00 0. -1.
         21   -1    0    0  502  504 -0.00000000000E+00 -0.00000000000E+00 -0.51245422946E+03  0.51245422946E+03  0.00000000000E+00 0.  1.
          6    2    1    2  502    0  0.84831254938E+02  0.45820440228E+02 -0.47664585112E+03  0.51404200299E+03  0.16658949214E+03 0.  0.
         24    2    3    3    0    0  0.36094640885E+02  0.25913396625E+02 -0.43836305036E+03  0.44877937380E+03  0.85243388047E+02 0.  0.
         -6    2    1    2    0  503 -0.84831254938E+02 -0.45820440228E+02  0.51021644183E+03  0.54443704663E+03  0.16369186197E+03 0.  0.
        -24    2    5    5    0    0 -0.62186564284E+02  0.30975222811E+02  0.22668345800E+03  0.24977894171E+03  0.78597050749E+02 0.  0.
          4    1    4    4  501    0 -0.13597371733E+01  0.14774125494E+02 -0.36796142117E+03  0.36826041213E+03  0.00000000000E+00 0. -1.
         -3    1    4    4    0  501  0.37454378059E+02  0.11139271131E+02 -0.70401629184E+02  0.80518961672E+02  0.00000000000E+00 0.  1.
          5    1    3    3  502    0  0.48736614052E+02  0.19907043603E+02 -0.38282800764E+02  0.65262629188E+02  0.47000000000E+01 0. -1.
         11    1    6    6    0    0 -0.42869468226E+02 -0.22156347224E+02  0.98711688125E+02  0.10987580444E+03  0.00000000000E+00 0. -1.
        -12    1    6    6    0    0 -0.19317096058E+02  0.53131570035E+02  0.12797176988E+03  0.13990313728E+03  0.00000000000E+00 0.  1.
         -5    1    5    5    0  503 -0.22644690653E+02 -0.76795663039E+02  0.28353298383E+03  0.29465810492E+03  0.47000000000E+01 0.  1.
<mgrwt>
<rscale>  2 0.19184969E+03</rscale>
<asrwt>0</asrwt>
<pdfrwt beam="1">  1       21 0.84003818E-01 0.19247835E+03</pdfrwt>
<pdfrwt beam="2">  1       21 0.78839113E-01 0.19247835E+03</pdfrwt>
<totfact> 0.17501950E+03</totfact>
</mgrwt>
</event>
<event>
12    1  0.1441827E-001  0.2214076E+03  0.7546771E-02  0.1132984E+00
         21   -1    0    0  504  503  0.00000000000E+00  0.00000000000E+00  0.33117437974E+03  0.33117437974E+03  0.00000000000E+00 0. -1.
         21   -1    0    0  502  504 -0.00000000000E+00 -0.00000000000E+00 -0.20050716399E+03  0.20050716399E+03  0.00000000000E+00 0.  1.
          6    2    1    2  502    0  0.12459729705E+03  0.53381885138E+02 -0.71445339378E+02  0.23189696176E+03  0.17406220802E+03 0.  0.
         24    2    3    3    0    0  0.12234016727E+03 -0.19257131148E+02 -0.52528904082E+02  0.15665440168E+03  0.80270556092E+02 0.  0.
         -6    2    1    2    0  503 -0.12459729705E+03 -0.53381885138E+02  0.20211255512E+03  0.29978458197E+03  0.17506341296E+03 0.  0.
        -24    2    5    5    0    0 -0.14305927758E+03  0.10875490491E+01  0.15041138342E+03  0.22230642285E+03  0.79557662814E+02 0.  0.
          2    1    4    4  501    0  0.72377135703E+02 -0.50577105160E+02 -0.36517345186E+02  0.95551084967E+02  0.00000000000E+00 0. -1.
         -1    1    4    4    0  501  0.49963031567E+02  0.31319974013E+02 -0.16011558896E+02  0.61103316717E+02  0.00000000000E+00 0.  1.
          5    1    3    3  502    0  0.22571297793E+01  0.72639016285E+02 -0.18916435297E+02  0.75242560071E+02  0.47000000000E+01 0. -1.
         13    1    6    6    0    0 -0.10387113216E+03 -0.35809209748E+02  0.10141262784E+03  0.14951933883E+03  0.00000000000E+00 0. -1.
        -14    1    6    6    0    0 -0.39188145414E+02  0.36896758797E+02  0.48998755587E+02  0.72787084018E+02  0.00000000000E+00 0.  1.
         -5    1    5    5    0  503  0.18461980529E+02 -0.54469434187E+02  0.51701171701E+02  0.77478159122E+02  0.47000000000E+01 0.  1.
<mgrwt>
<rscale>  2 0.22120961E+03</rscale>
<asrwt>0</asrwt>
<pdfrwt beam="1">  1       21 0.50949905E-01 0.22140757E+03</pdfrwt>
<pdfrwt beam="2">  1       21 0.30847256E-01 0.22140757E+03</pdfrwt>
<totfact> 0.36435760E+04</totfact>
</mgrwt>
</event>
<event>
12    1  0.1441827E-001  0.1861730E+03  0.7546771E-02  0.1162006E+00
         21   -1    0    0  504  503  0.00000000000E+00  0.00000000000E+00  0.53121037757E+03  0.53121037757E+03  0.00000000000E+00 0. -1.
         21   -1    0    0  502  504 -0.00000000000E+00 -0.00000000000E+00 -0.71487625561E+02  0.71487625561E+02  0.00000000000E+00 0. -1.
          6    2    1    2  502    0 -0.60151425162E+02 -0.30229850342E+02  0.14020799777E+03  0.23290067655E+03  0.17335629408E+03 0.  0.
         24    2    3    3    0    0 -0.50516404569E+02 -0.78627852334E+02  0.54130988524E+02  0.13357020922E+03  0.78591288194E+02 0.  0.
         -6    2    1    2    0  503  0.60151425162E+02  0.30229850342E+02  0.31951475424E+03  0.36979732658E+03  0.17357519054E+03 0.  0.
        -24    2    5    5    0    0 -0.34468639316E+02  0.98472541530E+01  0.13083822869E+03  0.15769044757E+03  0.80390171406E+02 0.  0.
          4    1    4    4  501    0 -0.44854878761E+02 -0.40298253971E+02 -0.75090567622E+01  0.60764260509E+02  0.00000000000E+00 0. -1.
         -3    1    4    4    0  501 -0.56615258075E+01 -0.38329598363E+02  0.61640045286E+02  0.72805948713E+02  0.00000000000E+00 0.  1.
          5    1    3    3  502    0 -0.96350205928E+01  0.48398001992E+02  0.86077009251E+02  0.99330467331E+02  0.47000000000E+01 0. -1.
         11    1    6    6    0    0  0.18366091284E+02 -0.19457845359E+02  0.30564079367E+02  0.40621226011E+02  0.00000000000E+00 0. -1.
        -12    1    6    6    0    0 -0.52834730600E+02  0.29305099512E+02  0.10027414932E+03  0.11706922156E+03  0.00000000000E+00 0.  1.
         -5    1    5    5    0  503  0.94620064477E+02  0.20382596189E+02  0.18867652555E+03  0.21210687901E+03  0.47000000000E+01 0.  1.
<mgrwt>
<rscale>  2 0.18612196E+03</rscale>
<asrwt>0</asrwt>
<pdfrwt beam="1">  1       21 0.81724671E-01 0.18617300E+03</pdfrwt>
<pdfrwt beam="2">  1       21 0.10998097E-01 0.18617300E+03</pdfrwt>
<totfact> 0.90077284E+04</totfact>
</mgrwt>
</event>
<event>
12    1  0.1441827E-001  0.2081654E+03  0.7546771E-02  0.1143482E+00
         21   -1    0    0  504  503  0.00000000000E+00  0.00000000000E+00  0.87068678113E+02  0.87068678113E+02  0.00000000000E+00 0.  1.
         21   -1    0    0  502  504 -0.00000000000E+00 -0.00000000000E+00 -0.49269756051E+03  0.49269756051E+03  0.00000000000E+00 0. -1.
          6    2    1    2  502    0 -0.10010979206E+03  0.56025802991E+02 -0.20988317509E+03  0.29402298604E+03  0.17099037419E+03 0.  0.
         24    2    3    3    0    0 -0.59505192021E+02  0.10432954133E+02 -0.31102047477E+02  0.10504620704E+03  0.80110260556E+02 0.  0.
         -6    2    1    2    0  503  0.10010979206E+03 -0.56025802991E+02 -0.19574570730E+03  0.28574325258E+03  0.17370078699E+03 0.  0.
        -24    2    5    5    0    0  0.41703342959E+02  0.36081571574E+02 -0.10679198102E+03  0.14492444288E+03  0.80978505253E+02 0.  0.
          2    1    4    4  501    0 -0.10287152160E+02 -0.29150922993E+02 -0.28161137939E+02  0.41816880574E+02  0.00000000000E+00 0. -1.
         -1    1    4    4    0  501 -0.49218039861E+02  0.39583877127E+02 -0.29409095381E+01  0.63229326463E+02  0.00000000000E+00 0.  1.
          5    1    3    3  502    0 -0.40604600037E+02  0.45592848858E+02 -0.17878112762E+03  0.18897677900E+03  0.47000000000E+01 0. -1.
         11    1    6    6    0    0  0.11462527246E+02 -0.68854311969E+01 -0.88172706018E+02  0.89180854336E+02  0.00000000000E+00 0. -1.
        -12    1    6    6    0    0  0.30240815713E+02  0.42967002771E+02 -0.18619274999E+02  0.55743588542E+02  0.00000000000E+00 0.  1.
         -5    1    5    5    0  503  0.58406449099E+02 -0.92107374565E+02 -0.88953726285E+02  0.14081880970E+03  0.47000000000E+01 0.  1.
<mgrwt>
<rscale>  2 0.20759901E+03</rscale>
<asrwt>0</asrwt>
<pdfrwt beam="1">  1       21 0.13395181E-01 0.20816538E+03</pdfrwt>
<pdfrwt beam="2">  1       21 0.75799626E-01 0.20816538E+03</pdfrwt>
<totfact> 0.74258618E+04</totfact>
</mgrwt>
</event>
<event>
12    1  0.1441827E-001  0.2582067E+03  0.7546771E-02  0.1108432E+00
         21   -1    0    0  504  503  0.00000000000E+00  0.00000000000E+00  0.41241262557E+03  0.41241262557E+03  0.00000000000E+00 0.  1.
         21   -1    0    0  502  504 -0.00000000000E+00 -0.00000000000E+00 -0.16374470795E+03  0.16374470795E+03  0.00000000000E+00 0. -1.
          6    2    1    2  502    0 -0.16925483489E+02 -0.19098115922E+03  0.86087219674E+02  0.27217952193E+03  0.17294625639E+03 0.  0.
         24    2    3    3    0    0 -0.39539601175E+02 -0.53675437600E+02  0.80846159498E+02  0.13284604347E+03  0.81654988194E+02 0.  0.
         -6    2    1    2    0  503  0.16925483489E+02  0.19098115922E+03  0.16258069794E+03  0.30397781159E+03  0.17090860548E+03 0.  0.
        -24    2    5    5    0    0 -0.69867275805E+01  0.11940063664E+03  0.23087439960E+02  0.14530826797E+03  0.79222070554E+02 0.  0.
          2    1    4    4  501    0 -0.33799567774E+02  0.14523335995E+02  0.24547857264E+02  0.44225958060E+02  0.00000000000E+00 0. -1.
         -1    1    4    4    0  501 -0.57400334017E+01 -0.68198773595E+02  0.56298302234E+02  0.88620085408E+02  0.00000000000E+00 0.  1.
          5    1    3    3  502    0  0.22614117686E+02 -0.13730572162E+03  0.52410601757E+01  0.13933347847E+03  0.47000000000E+01 0. -1.
         11    1    6    6    0    0  0.22931786809E+02  0.39095476471E+01 -0.21596250989E+01  0.23362692260E+02  0.00000000000E+00 0. -1.
        -12    1    6    6    0    0 -0.29918514389E+02  0.11549108900E+03  0.25247065059E+02  0.12194557571E+03  0.00000000000E+00 0.  1.
         -5    1    5    5    0  503  0.23912211069E+02  0.71580522582E+02  0.13949325798E+03  0.15866954362E+03  0.47000000000E+01 0.  1.
<mgrwt>
<rscale>  2 0.25786590E+03</rscale>
<asrwt>0</asrwt>
<pdfrwt beam="1">  1       21 0.63448095E-01 0.25820667E+03</pdfrwt>
<pdfrwt beam="2">  1       21 0.25191494E-01 0.25820667E+03</pdfrwt>
<totfact> 0.33217516E+04</totfact>
</mgrwt>
</event>
<event>
12    1  0.1441827E-001  0.1767932E+03  0.7546771E-02  0.1171275E+00
         21   -1    0    0  504  503  0.00000000000E+00  0.00000000000E+00  0.58402259614E+03  0.58402259614E+03  0.00000000000E+00 0. -1.
         21   -1    0    0  502  504 -0.00000000000E+00 -0.00000000000E+00 -0.61920140187E+02  0.61920140187E+02  0.00000000000E+00 0. -1.
          6    2    1    2  502    0  0.26675831973E+02  0.15843923406E+02  0.14011206342E+03  0.22558200387E+03  0.17404947639E+03 0.  0.
         24    2    3    3    0    0  0.83011060177E+02 -0.65154358852E+01  0.10148630696E+03  0.15355674478E+03  0.79667536363E+02 0.  0.
         -6    2    1    2    0  503 -0.26675831973E+02 -0.15843923406E+02  0.38199039253E+03  0.42036073246E+03  0.17269584675E+03 0.  0.
        -24    2    5    5    0    0 -0.80931934115E+02  0.27630212429E+01  0.30741335533E+03  0.32616005578E+03  0.72936950205E+02 0.  0.
          2    1    4    4  501    0  0.75229114132E+01 -0.33134772734E+02  0.40877171329E+02  0.53154966806E+02  0.00000000000E+00 0. -1.
         -1    1    4    4    0  501  0.75488148764E+02  0.26619336849E+02  0.60609135627E+02  0.10040177797E+03  0.00000000000E+00 0.  1.
          5    1    3    3  502    0 -0.56335228204E+02  0.22359359291E+02  0.38625756465E+02  0.72025259091E+02  0.47000000000E+01 0. -1.
         11    1    6    6    0    0 -0.29624920374E+02  0.15913109732E+02  0.22948637571E+03  0.23193718892E+03  0.00000000000E+00 0. -1.
        -12    1    6    6    0    0 -0.51307013740E+02 -0.13150088489E+02  0.77926979621E+02  0.94222866859E+02  0.00000000000E+00 0.  1.
         -5    1    5    5    0  503  0.54256102141E+02 -0.18606944649E+02  0.74577037196E+02  0.94200676673E+02  0.47000000000E+01 0.  1.
<mgrwt>
<rscale>  2 0.17645918E+03</rscale>
<asrwt>0</asrwt>
<pdfrwt beam="1">  1       21 0.89849626E-01 0.17679324E+03</pdfrwt>
<pdfrwt beam="2">  1       21 0.95261758E-02 0.17679324E+03</pdfrwt>
<totfact> 0.93841866E+04</totfact>
</mgrwt>
</event>
<event>
12    1  0.1441827E-001  0.2097095E+03  0.7546771E-02  0.1142512E+00
         21   -1    0    0  504  503  0.00000000000E+00  0.00000000000E+00  0.16403974955E+03  0.16403974955E+03  0.00000000000E+00 0.  1.
         21   -1    0    0  502  504 -0.00000000000E+00 -0.00000000000E+00 -0.27576528658E+03  0.27576528658E+03  0.00000000000E+00 0.  1.
          6    2    1    2  502    0 -0.62866416269E+02 -0.92617085540E+02 -0.10170094287E+03  0.22985609719E+03  0.17309140015E+03 0.  0.
         24    2    3    3    0    0 -0.44497451168E+02 -0.24558278815E+02 -0.12467175345E+03  0.15556499281E+03  0.77937722964E+02 0.  0.
         -6    2    1    2    0  503  0.62866416269E+02  0.92617085540E+02 -0.10024594158E+02  0.20994893894E+03  0.17733570889E+03 0.  0.
        -24    2    5    5    0    0 -0.35275028680E+02  0.39314113813E+02  0.20170755925E+02  0.94161205661E+02  0.75296388117E+02 0.  0.
          2    1    4    4  501    0  0.10678378409E+02  0.16650823913E+02 -0.51081229498E+02  0.54777456215E+02  0.00000000000E+00 0. -1.
         -1    1    4    4    0  501 -0.55175829577E+02 -0.41209102727E+02 -0.73590523948E+02  0.10078753659E+03  0.00000000000E+00 0.  1.
          5    1    3    3  502    0 -0.18368965101E+02 -0.68058806725E+02  0.22970810572E+02  0.74291104380E+02  0.47000000000E+01 0. -1.
         13    1    6    6    0    0 -0.39363569320E+02  0.53193671405E+02 -0.36667930487E+01  0.66275958224E+02  0.00000000000E+00 0. -1.
        -14    1    6    6    0    0  0.40885406400E+01 -0.13879557592E+02  0.23837548974E+02  0.27885247437E+02  0.00000000000E+00 0.  1.
         -5    1    5    5    0  503  0.98141444950E+02  0.53302971726E+02 -0.30195350084E+02  0.11578773328E+03  0.47000000000E+01 0.  1.
<mgrwt>
<rscale>  2 0.20880954E+03</rscale>
<asrwt>0</asrwt>
<pdfrwt beam="1">  1       21 0.25236885E-01 0.20970948E+03</pdfrwt>
<pdfrwt beam="2">  1       21 0.42425429E-01 0.20970948E+03</pdfrwt>
<totfact> 0.78941714E+04</totfact>
</mgrwt>
</event>
<event>
12    1  0.1441827E-001  0.2040568E+03  0.7546771E-02  0.1146626E+00
         21   -1    0    0  504  503  0.00000000000E+00  0.00000000000E+00  0.10537643911E+04  0.10537643911E+04  0.00000000000E+00 0. -1.
         21   -1    0    0  502  504 -0.00000000000E+00 -0.00000000000E+00 -0.44092171121E+03  0.44092171121E+03  0.00000000000E+00 0. -1.
          6    2    1    2  502    0 -0.51144781523E+02  0.93863809322E+02 -0.40695481470E+03  0.45467354963E+03  0.17230673854E+03 0.  0.
         24    2    3    3    0    0 -0.31444007090E+02  0.81998634564E+02 -0.41388667390E+03  0.43019818330E+03  0.77818997836E+02 0.  0.
         -6    2    1    2    0  503  0.51144781523E+02 -0.93863809322E+02  0.10197974946E+04  0.10400125527E+04  0.17381880330E+03 0.  0.
        -24    2    5    5    0    0 -0.27861056091E+01 -0.84789010240E+02  0.90780694077E+03  0.91529340134E+03  0.80322040477E+02 0.  0.
          4    1    4    4  501    0 -0.43016210870E+02  0.91500571432E+02 -0.37855220852E+03  0.39182205597E+03  0.00000000000E+00 0. -1.
         -3    1    4    4    0  501  0.11572203779E+02 -0.95019368680E+01 -0.35334465387E+02  0.38376127329E+02  0.00000000000E+00 0.  1.
          5    1    3    3  502    0 -0.19700774433E+02  0.11865174758E+02  0.69318591989E+01  0.24475366336E+02  0.47000000000E+01 0. -1.
         11    1    6    6    0    0  0.16316365519E+02  0.10650791904E+02  0.15580077849E+03  0.15701447618E+03  0.00000000000E+00 0. -1.
        -12    1    6    6    0    0 -0.19102471128E+02 -0.95439802144E+02  0.75200616229E+03  0.75827892517E+03  0.00000000000E+00 0.  1.
         -5    1    5    5    0  503  0.53930887132E+02 -0.90747990826E+01  0.11199055381E+03  0.12471915133E+03  0.47000000000E+01 0.  1.
<mgrwt>
<rscale>  2 0.20373443E+03</rscale>
<asrwt>0</asrwt>
<pdfrwt beam="1">  1       21 0.16211760E+00 0.20405681E+03</pdfrwt>
<pdfrwt beam="2">  1       21 0.67834110E-01 0.20405681E+03</pdfrwt>
<totfact> 0.47603483E+02</totfact>
</mgrwt>
</event>
<event>
12    1  0.1441827E-001  0.1809437E+03  0.7546771E-02  0.1167230E+00
         21   -1    0    0  504  503  0.00000000000E+00  0.00000000000E+00  0.32305956213E+03  0.32305956213E+03  0.00000000000E+00 0. -1.
         21   -1    0    0  502  504 -0.00000000000E+00 -0.00000000000E+00 -0.17768225090E+03  0.17768225090E+03  0.00000000000E+00 0. -1.
          6    2    1    2  502    0 -0.51955469143E+02  0.77674119517E+01 -0.92095678128E+02  0.20303263576E+03  0.17315003261E+03 0.  0.
         24    2    3    3    0    0  0.11992554211E+02  0.57431101444E+02 -0.42051988294E+02  0.10773157261E+03  0.79972303009E+02 0.  0.
         -6    2    1    2    0  503  0.51955469143E+02 -0.77674119517E+01  0.23747298936E+03  0.29770917727E+03  0.17169050671E+03 0.  0.
        -24    2    5    5    0    0 -0.30308287047E+02  0.11337326191E+02  0.75822514760E+02  0.11526663141E+03  0.80561872762E+02 0.  0.
          2    1    4    4  501    0  0.41107587208E+02  0.53951187158E+02 -0.39026501632E+02  0.78253639860E+02  0.00000000000E+00 0. -1.
         -1    1    4    4    0  501 -0.29115032996E+02  0.34799142861E+01 -0.30254866623E+01  0.29477932752E+02  0.00000000000E+00 0.  1.
          5    1    3    3  502    0 -0.63948023354E+02 -0.49663689492E+02 -0.50043689834E+02  0.95301063147E+02  0.47000000000E+01 0. -1.
         13    1    6    6    0    0 -0.13254775927E+02  0.36254801226E+02  0.75810168041E+02  0.85072212122E+02  0.00000000000E+00 0. -1.
        -14    1    6    6    0    0 -0.17053511120E+02 -0.24917475035E+02  0.12346718581E-01  0.30194419287E+02  0.00000000000E+00 0.  1.
         -5    1    5    5    0  503  0.82263756189E+02 -0.19104738143E+02  0.16165047460E+03  0.18244254586E+03  0.47000000000E+01 0.  1.
<mgrwt>
<rscale>  2 0.18059369E+03</rscale>
<asrwt>0</asrwt>
<pdfrwt beam="1">  1       21 0.49701471E-01 0.18094374E+03</pdfrwt>
<pdfrwt beam="2">  1       21 0.27335731E-01 0.18094374E+03</pdfrwt>
<totfact> 0.49511244E+04</totfact>
</mgrwt>
</event>
<event>
12    1  0.1441827E-001  0.2256886E+03  0.7546771E-02  0.1129767E+00
         21   -1    0    0  504  503  0.00000000000E+00  0.00000000000E+00  0.50706954629E+02  0.50706954629E+02  0.00000000000E+00 0.  1.
         21   -1    0    0  502  504 -0.00000000000E+00 -0.00000000000E+00 -0.17083006090E+04  0.17083006090E+04  0.00000000000E+00 0.  1.
          6    2    1    2  502    0 -0.74966656482E+02 -0.12405959778E+03 -0.13935325649E+04  0.14116409232E+04  0.17258708870E+03 0.  0.
         24    2    3    3    0    0 -0.38845810326E+02 -0.15177057293E+03 -0.97527652225E+03  0.99088823944E+03  0.78434076818E+02 0.  0.
         -6    2    1    2    0  503  0.74966656482E+02  0.12405959778E+03 -0.26406108950E+03  0.34736664047E+03  0.17298711091E+03 0.  0.
        -24    2    5    5    0    0  0.63032986276E+02  0.14386072374E+03 -0.27053475781E+03  0.32290247372E+03  0.80049279548E+02 0.  0.
          4    1    4    4  501    0 -0.22755451463E+02 -0.82175209929E+02 -0.30117597084E+03  0.31301364365E+03  0.00000000000E+00 0. -1.
         -3    1    4    4    0  501 -0.16090358863E+02 -0.69595363005E+02 -0.67410055142E+03  0.67787459579E+03  0.00000000000E+00 0.  1.
          5    1    3    3  502    0 -0.36120846156E+02  0.27710975150E+02 -0.41825604265E+03  0.42075268375E+03  0.47000000000E+01 0. -1.
         11    1    6    6    0    0  0.13688373536E+02 -0.50061095213E+01 -0.68533232249E+01  0.16105922570E+02  0.00000000000E+00 0. -1.
        -12    1    6    6    0    0  0.49344612740E+02  0.14886683326E+03 -0.26368143458E+03  0.30679655115E+03  0.00000000000E+00 0.  1.
         -5    1    5    5    0  503  0.11933670207E+02 -0.19801125958E+02  0.64736683071E+01  0.24464166758E+02  0.47000000000E+01 0.  1.
<mgrwt>
<rscale>  2 0.22561190E+03</rscale>
<asrwt>0</asrwt>
<pdfrwt beam="1">  1       21 0.78010716E-02 0.22568856E+03</pdfrwt>
<pdfrwt beam="2">  1       21 0.26281542E+00 0.22568856E+03</pdfrwt>
<totfact> 0.67941644E+03</totfact>
</mgrwt>
</event>
<event>
12    1  0.1441827E-001  0.1876535E+03  0.7546771E-02  0.1160792E+00
         21   -1    0    0  504  503  0.00000000000E+00  0.00000000000E+00  0.35001619601E+02  0.35001619601E+02  0.00000000000E+00 0.  1.
         21   -1    0    0  502  504 -0.00000000000E+00 -0.00000000000E+00 -0.10036825179E+04  0.10036825179E+04  0.00000000000E+00 0. -1.
          6    2    1    2  502    0 -0.50928181940E+02  0.57689445706E+02 -0.50757518894E+03  0.54085655226E+03  0.17021012260E+03 0.  0.
         24    2    3    3    0    0  0.29889025252E+02  0.23751068964E+02 -0.34170299801E+03  0.35318953833E+03  0.80774030660E+02 0.  0.
         -6    2    1    2    0  503  0.50928181940E+02 -0.57689445706E+02 -0.46110570933E+03  0.49782758521E+03  0.17114928442E+03 0.  0.
        -24    2    5    5    0    0  0.73974813241E+02 -0.80312397025E+02 -0.42758613951E+03  0.45104514511E+03  0.93217284443E+02 0.  0.
          4    1    4    4  501    0  0.47269295909E+02  0.22180359951E+02 -0.32453763831E+03  0.32871117016E+03  0.00000000000E+00 0. -1.
         -3    1    4    4    0  501 -0.17380270658E+02  0.15707090138E+01 -0.17165359697E+02  0.24478368174E+02  0.00000000000E+00 0.  1.
          5    1    3    3  502    0 -0.80817207192E+02  0.33938376741E+02 -0.16587219093E+03  0.18766701393E+03  0.47000000000E+01 0. -1.
         11    1    6    6    0    0  0.43239961897E+02 -0.81752861852E+02 -0.39711350516E+03  0.40774055563E+03  0.00000000000E+00 0. -1.
        -12    1    6    6    0    0  0.30734851344E+02  0.14404648270E+01 -0.30472634353E+02  0.43304589485E+02  0.00000000000E+00 0.  1.
         -5    1    5    5    0  503 -0.23046631300E+02  0.22622951319E+02 -0.33519569825E+02  0.46782440103E+02  0.47000000000E+01 0.  1.
<mgrwt>
<rscale>  2 0.18743907E+03</rscale>
<asrwt>0</asrwt>
<pdfrwt beam="1">  1       21 0.53848646E-02 0.18765348E+03</pdfrwt>
<pdfrwt beam="2">  1       21 0.15441270E+00 0.18765348E+03</pdfrwt>
<totfact> 0.65831880E+04</totfact>
</mgrwt>
</event>
<event>
12    1  0.1441827E-001  0.2271818E+03  0.7546771E-02  0.1128954E+00
         21   -1    0    0  504  503  0.00000000000E+00  0.00000000000E+00  0.19439432259E+03  0.19439432259E+03  0.00000000000E+00 0. -1.
         21   -1    0    0  502  504 -0.00000000000E+00 -0.00000000000E+00 -0.41457796218E+03  0.41457796218E+03  0.00000000000E+00 0.  1.
          6    2    1    2  502    0 -0.35180566402E+02  0.14351801761E+03 -0.29420044113E+03  0.37170617936E+03  0.17255865840E+03 0.  0.
         24    2    3    3    0    0  0.31140873442E+02  0.63293213961E+02 -0.21719869718E+03  0.24214572601E+03  0.80520144286E+02 0.  0.
         -6    2    1    2    0  503  0.35180566402E+02 -0.14351801761E+03  0.74016801537E+02  0.23726610540E+03  0.17023990200E+03 0.  0.
        -24    2    5    5    0    0  0.80846111817E+02 -0.86482084623E+02  0.16755270820E+02  0.14431766491E+03  0.80818342900E+02 0.  0.
          2    1    4    4  501    0  0.58077486024E+02  0.43794361115E+02 -0.16402839168E+03  0.17943314556E+03  0.00000000000E+00 0. -1.
         -1    1    4    4    0  501 -0.26936612582E+02  0.19498852847E+02 -0.53170305493E+02  0.62712580444E+02  0.00000000000E+00 0.  1.
          5    1    3    3  502    0 -0.66321439844E+02  0.80224803646E+02 -0.77001743951E+02  0.12956045336E+03  0.47000000000E+01 0. -1.
         11    1    6    6    0    0  0.46802717197E+02 -0.79145446513E+02  0.42217510720E+02  0.10117714293E+03  0.00000000000E+00 0. -1.
        -12    1    6    6    0    0  0.34043394620E+02 -0.73366381101E+01 -0.25462239900E+02  0.43140521980E+02  0.00000000000E+00 0.  1.
         -5    1    5    5    0  503 -0.45665545414E+02 -0.57035932984E+02  0.57261530717E+02  0.92948440490E+02  0.47000000000E+01 0.  1.
<mgrwt>
<rscale>  2 0.22674150E+03</rscale>
<asrwt>0</asrwt>
<pdfrwt beam="1">  1       21 0.29906819E-01 0.22718183E+03</pdfrwt>
<pdfrwt beam="2">  1       21 0.63781225E-01 0.22718183E+03</pdfrwt>
<totfact> 0.23884920E+04</totfact>
</mgrwt>
</event>
<event>
12    1  0.1441827E-001  0.2774457E+03  0.7546771E-02  0.1097151E+00
         21   -1    0    0  504  503  0.00000000000E+00  0.00000000000E+00  0.27313996748E+03  0.27313996748E+03  0.00000000000E+00 0. -1.
         21   -1    0    0  502  504 -0.00000000000E+00 -0.00000000000E+00 -0.37796510222E+03  0.37796510222E+03  0.00000000000E+00 0.  1.
          6    2    1    2  502    0  0.61381744663E+02 -0.20800543646E+03  0.11218181169E+03  0.29887202261E+03  0.17235355190E+03 0.  0.
         24    2    3    3    0    0 -0.33986051229E+02 -0.10341685559E+03  0.55213888404E+02  0.14622464456E+03  0.80516926835E+02 0.  0.
         -6    2    1    2    0  503 -0.61381744663E+02  0.20800543646E+03 -0.21700694643E+03  0.35223304709E+03  0.17303792790E+03 0.  0.
        -24    2    5    5    0    0 -0.23733937641E+02  0.10589315172E+03 -0.34098963259E+02  0.13934411743E+03  0.80482199202E+02 0.  0.
          2    1    4    4  501    0 -0.53792428669E+02 -0.96429691420E+02  0.58513154652E+02  0.12496439508E+03  0.00000000000E+00 0. -1.
         -1    1    4    4    0  501  0.19806377440E+02 -0.69871641661E+01 -0.32992662474E+01  0.21260249485E+02  0.00000000000E+00 0.  1.
          5    1    3    3  502    0  0.95367795892E+02 -0.10458858088E+03  0.56967923281E+02  0.15264737805E+03  0.47000000000E+01 0. -1.
         11    1    6    6    0    0 -0.15256908752E+02  0.84146831680E+01  0.20812212405E+02  0.27142740147E+02  0.00000000000E+00 0. -1.
        -12    1    6    6    0    0 -0.84770288888E+01  0.97478468555E+02 -0.54911175664E+02  0.11220137728E+03  0.00000000000E+00 0.  1.
         -5    1    5    5    0  503 -0.37647807022E+02  0.10211228474E+03 -0.18290798317E+03  0.21288892967E+03  0.47000000000E+01 0.  1.
<mgrwt>
<rscale>  2 0.27733904E+03</rscale>
<asrwt>0</asrwt>
<pdfrwt beam="1">  1       21 0.42021534E-01 0.27744568E+03</pdfrwt>
<pdfrwt beam="2">  1       21 0.58148477E-01 0.27744568E+03</pdfrwt>
<totfact> 0.14416283E+04</totfact>
</mgrwt>
</event>
<event>
12    1  0.1441827E-001  0.2164564E+03  0.7546771E-02  0.1136633E+00
         21   -1    0    0  504  503  0.00000000000E+00  0.00000000000E+00  0.69378603894E+02  0.69378603894E+02  0.00000000000E+00 0.  1.
         21   -1    0    0  502  504 -0.00000000000E+00 -0.00000000000E+00 -0.67413598591E+03  0.67413598591E+03  0.00000000000E+00 0. -1.
          6    2    1    2  502    0 -0.11244326125E+02  0.12696027452E+03 -0.29757097148E+03  0.36796992694E+03  0.17495153011E+03 0.  0.
         24    2    3    3    0    0  0.34442308704E+02  0.55389270958E+02 -0.75667327462E+02  0.13032945399E+03  0.83701721411E+02 0.  0.
         -6    2    1    2    0  503  0.11244326125E+02 -0.12696027452E+03 -0.30718641054E+03  0.37554466287E+03  0.17442751163E+03 0.  0.
        -24    2    5    5    0    0 -0.40559247129E+02 -0.10765641767E+03 -0.28111810427E+03  0.31424298522E+03  0.80537621132E+02 0.  0.
          2    1    4    4  501    0  0.54687076659E+02  0.40492835628E+02 -0.79782721148E+02  0.10486004332E+03  0.00000000000E+00 0. -1.
         -1    1    4    4    0  501 -0.20244767955E+02  0.14896435331E+02  0.41153936858E+01  0.25469410678E+02  0.00000000000E+00 0.  1.
          5    1    3    3  502    0 -0.45686634830E+02  0.71571003559E+02 -0.22190364402E+03  0.23764047294E+03  0.47000000000E+01 0. -1.
         13    1    6    6    0    0 -0.50642404120E+02 -0.11647024540E+03 -0.25634342784E+03  0.28608027572E+03  0.00000000000E+00 0. -1.
        -14    1    6    6    0    0  0.10083156992E+02  0.88138277296E+01 -0.24774676427E+02  0.28162709497E+02  0.00000000000E+00 0.  1.
         -5    1    5    5    0  503  0.51803573254E+02 -0.19303856845E+02 -0.26068306271E+02  0.61301677651E+02  0.47000000000E+01 0.  1.
<mgrwt>
<rscale>  2 0.21635052E+03</rscale>
<asrwt>0</asrwt>
<pdfrwt beam="1">  1       21 0.10673631E-01 0.21645643E+03</pdfrwt>
<pdfrwt beam="2">  1       21 0.10371323E+00 0.21645643E+03</pdfrwt>
<totfact> 0.53768554E+04</totfact>
</mgrwt>
</event>
<event>
12    1  0.1441827E-001  0.2134885E+03  0.7546771E-02  0.1139254E+00
         21   -1    0    0  504  503  0.00000000000E+00  0.00000000000E+00  0.40738057642E+03  0.40738057642E+03  0.00000000000E+00 0. -1.
         21   -1    0    0  502  504 -0.00000000000E+00 -0.00000000000E+00 -0.11624543314E+03  0.11624543314E+03  0.00000000000E+00 0. -1.
          6    2    1    2  502    0 -0.83093290949E+02  0.88966616593E+02  0.20319902012E+03  0.29473236254E+03  0.17537893228E+03 0.  0.
         24    2    3    3    0    0 -0.11134532097E+03  0.66368476171E+02  0.20870879555E+03  0.25783655280E+03  0.78216184313E+02 0.  0.
         -6    2    1    2    0  503  0.83093290949E+02 -0.88966616593E+02  0.87936123165E+02  0.22889364701E+03  0.17274254258E+03 0.  0.
        -24    2    5    5    0    0  0.46888469365E+02 -0.11466981793E+02 -0.12229312624E+02  0.97090054397E+02  0.83348079430E+02 0.  0.
          2    1    4    4  501    0 -0.53702685170E+02  0.54600933492E+01  0.13787207449E+03  0.14806248660E+03  0.00000000000E+00 0. -1.
         -1    1    4    4    0  501 -0.57642635802E+02  0.60908382821E+02  0.70836721067E+02  0.10977406621E+03  0.00000000000E+00 0.  1.
          5    1    3    3  502    0  0.28252030024E+02  0.22598140422E+02 -0.55097754388E+01  0.36895809740E+02  0.47000000000E+01 0. -1.
         11    1    6    6    0    0 -0.12962911772E+02  0.20802227679E+02  0.85991124390E+01  0.25975266943E+02  0.00000000000E+00 0. -1.
        -12    1    6    6    0    0  0.59851381138E+02 -0.32269209472E+02 -0.20828425063E+02  0.71114787454E+02  0.00000000000E+00 0.  1.
         -5    1    5    5    0  503  0.36204821584E+02 -0.77499634799E+02  0.10016543579E+03  0.13180359262E+03  0.47000000000E+01 0.  1.
<mgrwt>
<rscale>  2 0.21294629E+03</rscale>
<asrwt>0</asrwt>
<pdfrwt beam="1">  1       21 0.62673934E-01 0.21348846E+03</pdfrwt>
<pdfrwt beam="2">  1       21 0.17883913E-01 0.21348846E+03</pdfrwt>
<totfact> 0.66395044E+04</totfact>
</mgrwt>
</event>
<event>
12    1  0.1441827E-001  0.1768649E+03  0.7546771E-02  0.1173919E+00
         21   -1    0    0  504  503  0.00000000000E+00  0.00000000000E+00  0.81282344994E+02  0.81282344994E+02  0.00000000000E+00 0.  1.
         21   -1    0    0  502  504 -0.00000000000E+00 -0.00000000000E+00 -0.58816171012E+03  0.58816171012E+03  0.00000000000E+00 0.  1.
          6    2    1    2  502    0  0.90624614054E+01  0.22097412265E+02 -0.46744941033E+03  0.49979010641E+03  0.17524490123E+03 0.  0.
         24    2    3    3    0    0 -0.14603606373E+02  0.15683817439E+02 -0.46749073542E+03  0.47482395592E+03  0.80317830901E+02 0.  0.
         -6    2    1    2    0  503 -0.90624614054E+01 -0.22097412265E+02 -0.39429954791E+02  0.16965394870E+03  0.16327068671E+03 0.  0.
        -24    2    5    5    0    0 -0.35163984685E+02  0.26072339204E+01  0.27298972517E+02  0.93716811539E+02  0.82427564425E+02 0.  0.
          2    1    4    4  501    0  0.23340718466E+02  0.27165230286E+02 -0.32346844281E+03  0.32544519104E+03  0.00000000000E+00 0. -1.
         -1    1    4    4    0  501 -0.37944324839E+02 -0.11481412848E+02 -0.14402229261E+03  0.14937876488E+03  0.00000000000E+00 0.  1.
          5    1    3    3  502    0  0.23666067778E+02  0.64135948265E+01  0.41325086131E-01  0.24966150493E+02  0.47000000000E+01 0. -1.
         13    1    6    6    0    0 -0.23126582863E+02 -0.30770322869E+02 -0.12430554247E+02  0.40449601769E+02  0.00000000000E+00 0. -1.
        -14    1    6    6    0    0 -0.12037401823E+02  0.33377556789E+02  0.39729526764E+02  0.53267209771E+02  0.00000000000E+00 0.  1.
         -5    1    5    5    0  503  0.26101523280E+02 -0.24704646186E+02 -0.66728927308E+02  0.75937137162E+02  0.47000000000E+01 0.  1.
<mgrwt>
<rscale>  2 0.17382319E+03</rscale>
<asrwt>0</asrwt>
<pdfrwt beam="1">  1       21 0.12504976E-01 0.17686492E+03</pdfrwt>
<pdfrwt beam="2">  1       21 0.90486415E-01 0.17686492E+03</pdfrwt>
<totfact> 0.56978841E+04</totfact>
</mgrwt>
</event>
<event>
12    1  0.1441827E-001  0.2328046E+03  0.7546771E-02  0.1125104E+00
         21   -1    0    0  504  503  0.00000000000E+00  0.00000000000E+00  0.22176536541E+02  0.22176536541E+02  0.00000000000E+00 0.  1.
         21   -1    0    0  502  504 -0.00000000000E+00 -0.00000000000E+00 -0.25978275047E+04  0.25978275047E+04  0.00000000000E+00 0.  1.
          6    2    1    2  502    0  0.11142760878E+03  0.10572471542E+03 -0.93741585691E+03  0.96531003887E+03  0.17170077145E+03 0.  0.
         24    2    3    3    0    0  0.53297493180E+02  0.13162550118E+03 -0.59515502725E+03  0.61715127256E+03  0.80624384768E+02 0.  0.
         -6    2    1    2    0  503 -0.11142760878E+03 -0.10572471542E+03 -0.16382351112E+04  0.16546940024E+04  0.17494037353E+03 0.  0.
        -24    2    5    5    0    0 -0.51756609528E+02  0.22212877767E+01 -0.45865013359E+03  0.46866880143E+03  0.81282345162E+02 0.  0.
          2    1    4    4  501    0 -0.33193278636E+01  0.16766814444E+02 -0.14113137908E+02  0.22165844574E+02  0.00000000000E+00 0. -1.
         -1    1    4    4    0  501  0.56616821044E+02  0.11485868674E+03 -0.58104188934E+03  0.59498542798E+03  0.00000000000E+00 0.  1.
          5    1    3    3  502    0  0.58130115595E+02 -0.25900785764E+02 -0.34226082966E+03  0.34815876631E+03  0.47000000000E+01 0. -1.
         11    1    6    6    0    0 -0.29432408679E+02 -0.11666947363E+02 -0.42396300935E+03  0.42514352593E+03  0.00000000000E+00 0. -1.
        -12    1    6    6    0    0 -0.22324200849E+02  0.13888235140E+02 -0.34687124244E+02  0.43525275498E+02  0.00000000000E+00 0.  1.
         -5    1    5    5    0  503 -0.59670999247E+02 -0.10794600320E+03 -0.11795849776E+04  0.11860252009E+04  0.47000000000E+01 0.  1.
<mgrwt>
<rscale>  2 0.23219606E+03</rscale>
<asrwt>0</asrwt>
<pdfrwt beam="1">  1       21 0.34117776E-02 0.23280456E+03</pdfrwt>
<pdfrwt beam="2">  1       21 0.39966544E+00 0.23280456E+03</pdfrwt>
<totfact> 0.42520523E+03</totfact>
</mgrwt>
</event>
<event>
12    1  0.1441827E-001  0.1922831E+03  0.7546771E-02  0.1156434E+00
         21   -1    0    0  504  503  0.00000000000E+00  0.00000000000E+00  0.56174787501E+03  0.56174787501E+03  0.00000000000E+00 0. -1.
         21   -1    0    0  502  504 -0.00000000000E+00 -0.00000000000E+00 -0.76659324382E+02  0.76659324382E+02  0.00000000000E+00 0. -1.
          6    2    1    2  502    0 -0.57697964946E+02 -0.59282697999E+02  0.12232211854E+03  0.22783165863E+03  0.17349660097E+03 0.  0.
         24    2    3    3    0    0 -0.17808449967E+02  0.43998815989E+01  0.12852604460E+03  0.15228549362E+03  0.79595399229E+02 0.  0.
         -6    2    1    2    0  503  0.57697964946E+02  0.59282697999E+02  0.36276643208E+03  0.41057554076E+03  0.17357792769E+03 0.  0.
        -24    2    5    5    0    0  0.69821605904E+02 -0.18047494684E+02  0.24806699204E+03  0.27163313213E+03  0.83943774122E+02 0.  0.
          2    1    4    4  501    0 -0.37544853002E+02  0.28078524577E+02  0.53280136984E+02  0.70970363718E+02  0.00000000000E+00 0. -1.
         -1    1    4    4    0  501  0.19736403034E+02 -0.23678642978E+02  0.75245907613E+02  0.81315129899E+02  0.00000000000E+00 0.  1.
          5    1    3    3  502    0 -0.39889514979E+02 -0.63682579598E+02 -0.62039260551E+01  0.75546165012E+02  0.47000000000E+01 0. -1.
         11    1    6    6    0    0  0.25809092398E+01  0.23238081416E+02  0.21664264192E+02  0.31874909621E+02  0.00000000000E+00 0. -1.
        -12    1    6    6    0    0  0.67240696664E+02 -0.41285576100E+02  0.22640272785E+03  0.23975822250E+03  0.00000000000E+00 0.  1.
         -5    1    5    5    0  503 -0.12123640958E+02  0.77330192682E+02  0.11469944004E+03  0.13894240863E+03  0.47000000000E+01 0.  1.
<mgrwt>
<rscale>  2 0.19226474E+03</rscale>
<asrwt>0</asrwt>
<pdfrwt beam="1">  1       21 0.86422747E-01 0.19228310E+03</pdfrwt>
<pdfrwt beam="2">  1       21 0.11793743E-01 0.19228310E+03</pdfrwt>
<totfact> 0.69837779E+04</totfact>
</mgrwt>
</event>
<event>
12    1  0.1441827E-001  0.2799102E+03  0.7546771E-02  0.1096081E+00
         21   -1    0    0  504  503  0.00000000000E+00  0.00000000000E+00  0.21830187332E+03  0.21830187332E+03  0.00000000000E+00 0.  1.
         21   -1    0    0  502  504 -0.00000000000E+00 -0.00000000000E+00 -0.36027342810E+03  0.36027342810E+03  0.00000000000E+00 0.  1.
          6    2    1    2  502    0  0.13162748451E+03  0.17107753056E+03 -0.10323758981E+03  0.29599777293E+03  0.17425086941E+03 0.  0.
         24    2    3    3    0    0  0.40611619816E+01  0.89516538324E+02 -0.74655751269E+02  0.14184079582E+03  0.80719430690E+02 0.  0.
         -6    2    1    2    0  503 -0.13162748451E+03 -0.17107753056E+03 -0.38733964974E+02  0.28257752849E+03  0.17820332046E+03 0.  0.
        -24    2    5    5    0    0 -0.23063079102E+02 -0.29878080961E+01 -0.73158737848E+01  0.79970590367E+02  0.76163906804E+02 0.  0.
          2    1    4    4  501    0 -0.11454866743E+01  0.68373809921E+02 -0.91557626101E+02  0.11427637079E+03  0.00000000000E+00 0. -1.
         -1    1    4    4    0  501  0.52066486559E+01  0.21142728403E+02  0.16901874832E+02  0.27564425033E+02  0.00000000000E+00 0.  1.
          5    1    3    3  502    0  0.12756632253E+03  0.81560992239E+02 -0.28581838536E+02  0.15415697711E+03  0.47000000000E+01 0. -1.
         13    1    6    6    0    0 -0.38763548674E+02  0.67458096716E+01 -0.30888390173E+02  0.50022108126E+02  0.00000000000E+00 0. -1.
        -14    1    6    6    0    0  0.15700469572E+02 -0.97336177677E+01  0.23572516388E+02  0.29948482241E+02  0.00000000000E+00 0.  1.
         -5    1    5    5    0  503 -0.10856440541E+03 -0.16808972247E+03 -0.31418091189E+02  0.20260693812E+03  0.47000000000E+01 0.  1.
<mgrwt>
<rscale>  2 0.27928324E+03</rscale>
<asrwt>0</asrwt>
<pdfrwt beam="1">  1       21 0.33584904E-01 0.27991023E+03</pdfrwt>
<pdfrwt beam="2">  1       21 0.55426681E-01 0.27991023E+03</pdfrwt>
<totfact> 0.25107346E+04</totfact>
</mgrwt>
</event>
<event>
12    1  0.1441827E-001  0.2372397E+03  0.7546771E-02  0.1121742E+00
         21   -1    0    0  504  503  0.00000000000E+00  0.00000000000E+00  0.40990577335E+02  0.40990577335E+02  0.00000000000E+00 0. -1.
         21   -1    0    0  502  504 -0.00000000000E+00 -0.00000000000E+00 -0.14746740135E+04  0.14746740135E+04  0.00000000000E+00 0. -1.
          6    2    1    2  502    0 -0.11779805506E+03 -0.11198496969E+03 -0.91815978102E+03  0.94817245471E+03  0.17203663908E+03 0.  0.
         24    2    3    3    0    0 -0.14964081479E+03 -0.10590849414E+03 -0.71674885678E+03  0.74411526835E+03  0.79809938749E+02 0.  0.
         -6    2    1    2    0  503  0.11779805506E+03  0.11198496969E+03 -0.51552365513E+03  0.56749213611E+03  0.17281686934E+03 0.  0.
        -24    2    5    5    0    0  0.10504793308E+03  0.69079064532E+02 -0.49480750000E+03  0.51794689021E+03  0.87335752213E+02 0.  0.
          4    1    4    4  501    0 -0.12193720439E+03 -0.11320471417E+03 -0.65860110997E+03  0.67929331748E+03  0.00000000000E+00 0. -1.
         -3    1    4    4    0  501 -0.27703610395E+02  0.72962200303E+01 -0.58147746811E+02  0.64821950872E+02  0.00000000000E+00 0.  1.
          5    1    3    3  502    0  0.31842759723E+02 -0.60764755467E+01 -0.20141092424E+03  0.20405718636E+03  0.47000000000E+01 0. -1.
         11    1    6    6    0    0  0.24557964200E+02  0.49980504235E+02 -0.31678576684E+03  0.32164322856E+03  0.00000000000E+00 0. -1.
        -12    1    6    6    0    0  0.80489968880E+02  0.19098560298E+02 -0.17802173316E+03  0.19630366164E+03  0.00000000000E+00 0.  1.
         -5    1    5    5    0  503  0.12750121986E+02  0.42905905156E+02 -0.20716155130E+02  0.49545245900E+02  0.47000000000E+01 0.  1.
<mgrwt>
<rscale>  2 0.23709766E+03</rscale>
<asrwt>0</asrwt>
<pdfrwt beam="1">  1       21 0.63062431E-02 0.23723972E+03</pdfrwt>
<pdfrwt beam="2">  1       21 0.22687291E+00 0.23723972E+03</pdfrwt>
<totfact> 0.15971187E+04</totfact>
</mgrwt>
</event>
<event>
12    1  0.1441827E-001  0.1752410E+03  0.7546771E-02  0.1172962E+00
         21   -1    0    0  504  503  0.00000000000E+00  0.00000000000E+00  0.46934144364E+02  0.46934144364E+02  0.00000000000E+00 0. -1.
         21   -1    0    0  502  504 -0.00000000000E+00 -0.00000000000E+00 -0.92167001922E+03  0.92167001922E+03  0.00000000000E+00 0.  1.
          6    2    1    2  502    0 -0.20498657916E+02  0.15489968438E+02 -0.70324298366E+03  0.72474831069E+03  0.17334729789E+03 0.  0.
         24    2    3    3    0    0 -0.70203575606E+02  0.10687192546E+02 -0.60489159634E+03  0.61434572518E+03  0.80523714637E+02 0.  0.
         -6    2    1    2    0  503  0.20498657916E+02 -0.15489968438E+02 -0.17149289120E+03  0.24385585289E+03  0.17145183336E+03 0.  0.
        -24    2    5    5    0    0 -0.28498008973E+01 -0.53860988997E+02 -0.17350744486E+03  0.19864928065E+03  0.80296798073E+02 0.  0.
          4    1    4    4  501    0 -0.65653360723E+02 -0.55112471048E+01 -0.58312075054E+03  0.58683093590E+03  0.00000000000E+00 0. -1.
         -3    1    4    4    0  501 -0.45502148834E+01  0.16198439650E+02 -0.21770845799E+02  0.27514789285E+02  0.00000000000E+00 0.  1.
          5    1    3    3  502    0  0.49704917690E+02  0.48027758926E+01 -0.98351387327E+02  0.11040258551E+03  0.47000000000E+01 0. -1.
         13    1    6    6    0    0 -0.75495994266E+01 -0.33299275336E+02 -0.12646050715E+02  0.36410998175E+02  0.00000000000E+00 0. -1.
        -14    1    6    6    0    0  0.46997985293E+01 -0.20561713661E+02 -0.16086139414E+03  0.16223828247E+03  0.00000000000E+00 0.  1.
         -5    1    5    5    0  503  0.23348458813E+02  0.38371020558E+02  0.20145536602E+01  0.45206572245E+02  0.47000000000E+01 0.  1.
<mgrwt>
<rscale>  2 0.17477045E+03</rscale>
<asrwt>0</asrwt>
<pdfrwt beam="1">  1       21 0.72206372E-02 0.17524103E+03</pdfrwt>
<pdfrwt beam="2">  1       21 0.14179540E+00 0.17524103E+03</pdfrwt>
<totfact> 0.50116761E+04</totfact>
</mgrwt>
</event>
<event>
12    1  0.1441827E-001  0.2614123E+03  0.7546771E-02  0.1106315E+00
         21   -1    0    0  504  503  0.00000000000E+00  0.00000000000E+00  0.12921238613E+03  0.12921238613E+03  0.00000000000E+00 0.  1.
         21   -1    0    0  502  504 -0.00000000000E+00 -0.00000000000E+00 -0.52869482188E+03  0.52869482188E+03  0.00000000000E+00 0.  1.
          6    2    1    2  502    0  0.19073052558E+03  0.44871991764E+02 -0.19621720404E+03  0.32686022468E+03  0.17304561908E+03 0.  0.
         24    2    3    3    0    0  0.49506559268E+02 -0.39883397080E+01 -0.13596634629E+03  0.16566532242E+03  0.80568886463E+02 0.  0.
         -6    2    1    2    0  503 -0.19073052558E+03 -0.44871991764E+02 -0.20326523171E+03  0.33104698333E+03  0.17286908838E+03 0.  0.
        -24    2    5    5    0    0 -0.20756047837E+03 -0.31403515545E+02 -0.21005947834E+03  0.30796237916E+03  0.81537166780E+02 0.  0.
          4    1    4    4  501    0 -0.25586221866E+01  0.25650136749E+02 -0.78599282038E+02  0.82718336538E+02  0.00000000000E+00 0. -1.
         -3    1    4    4    0  501  0.52065181454E+02 -0.29638476457E+02 -0.57367064254E+02  0.82946985886E+02  0.00000000000E+00 0.  1.
          5    1    3    3  502    0  0.14122396632E+03  0.48860331472E+02 -0.60250857752E+02  0.16119490226E+03  0.47000000000E+01 0. -1.
         11    1    6    6    0    0  0.14748608325E+01  0.10929796327E+02 -0.50500168872E+01  0.12130059060E+02  0.00000000000E+00 0. -1.
        -12    1    6    6    0    0 -0.20903533920E+03 -0.42333311873E+02 -0.20500946146E+03  0.29583232010E+03  0.00000000000E+00 0.  1.
         -5    1    5    5    0  503  0.16829952785E+02 -0.13468476219E+02  0.67942466367E+01  0.23084604172E+02  0.47000000000E+01 0.  1.
<mgrwt>
<rscale>  2 0.26138314E+03</rscale>
<asrwt>0</asrwt>
<pdfrwt beam="1">  1       21 0.19878828E-01 0.26141235E+03</pdfrwt>
<pdfrwt beam="2">  1       21 0.81337666E-01 0.26141235E+03</pdfrwt>
<totfact> 0.29885209E+04</totfact>
</mgrwt>
</event>
<event>
12    1  0.1441827E-001  0.2519652E+03  0.7546771E-02  0.1112082E+00
         21   -1    0    0  504  503  0.00000000000E+00  0.00000000000E+00  0.60076251202E+03  0.60076251202E+03  0.00000000000E+00 0. -1.
         21   -1    0    0  502  504 -0.00000000000E+00 -0.00000000000E+00 -0.25212237021E+03  0.25212237021E+03  0.00000000000E+00 0. -1.
          6    2    1    2  502    0 -0.18084021711E+03  0.31364868672E+02 -0.15073595028E+03  0.29354333712E+03  0.17250920251E+03 0.  0.
         24    2    3    3    0    0 -0.92437606387E+02  0.29501503453E+02 -0.95137007897E+01  0.12685708255E+03  0.81161315353E+02 0.  0.
         -6    2    1    2    0  503  0.18084021711E+03 -0.31364868672E+02  0.49937609209E+03  0.55934154511E+03  0.17262544312E+03 0.  0.
        -24    2    5    5    0    0  0.19156743953E+03 -0.35446901314E+02  0.50415558797E+03  0.54604982316E+03  0.77736643839E+02 0.  0.
          4    1    4    4  501    0  0.10673861736E+02  0.12995781615E+02  0.11455600404E+02  0.20348278668E+02  0.00000000000E+00 0. -1.
         -3    1    4    4    0  501 -0.10311146812E+03  0.16505721838E+02 -0.20969301193E+02  0.10650880388E+03  0.00000000000E+00 0.  1.
          5    1    3    3  502    0 -0.88402610723E+02  0.18633652188E+01 -0.14122224949E+03  0.16668625457E+03  0.47000000000E+01 0. -1.
         11    1    6    6    0    0  0.22397227483E+02 -0.33671167269E+02  0.10523936592E+03  0.11274177328E+03  0.00000000000E+00 0. -1.
        -12    1    6    6    0    0  0.16917021205E+03 -0.17757340446E+01  0.39891622205E+03  0.43330804988E+03  0.00000000000E+00 0.  1.
         -5    1    5    5    0  503 -0.10727222419E+02  0.40820326421E+01 -0.47794958764E+01  0.13291721941E+02  0.47000000000E+01 0.  1.
<mgrwt>
<rscale>  2 0.25194533E+03</rscale>
<asrwt>0</asrwt>
<pdfrwt beam="1">  1       21 0.92425001E-01 0.25196524E+03</pdfrwt>
<pdfrwt beam="2">  1       21 0.38788057E-01 0.25196524E+03</pdfrwt>
<totfact> 0.60782327E+03</totfact>
</mgrwt>
</event>
<event>
12    1  0.1441827E-001  0.2306720E+03  0.7546771E-02  0.1126178E+00
         21   -1    0    0  504  503  0.00000000000E+00  0.00000000000E+00  0.80094503658E+03  0.80094503658E+03  0.00000000000E+00 0.  1.
         21   -1    0    0  502  504 -0.00000000000E+00 -0.00000000000E+00 -0.74599758342E+02  0.74599758342E+02  0.00000000000E+00 0. -1.
          6    2    1    2  502    0 -0.94548235653E+02 -0.12017757183E+03  0.21822562001E+03  0.31754050583E+03  0.17270649662E+03 0.  0.
         24    2    3    3    0    0 -0.84697578583E+02 -0.12100426777E+02  0.14710984786E+03  0.18770504158E+03  0.79194539912E+02 0.  0.
         -6    2    1    2    0  503  0.94548235653E+02  0.12017757183E+03  0.50811965822E+03  0.55800428909E+03  0.17263018837E+03 0.  0.
        -24    2    5    5    0    0  0.13354969705E+03  0.88869385028E+02  0.38549228215E+03  0.42548681887E+03  0.81862349436E+02 0.  0.
          2    1    4    4  501    0 -0.90086869543E+02 -0.96419633364E+01  0.81609438115E+02  0.12193732780E+03  0.00000000000E+00 0. -1.
         -1    1    4    4    0  501  0.53892909605E+01 -0.24584634408E+01  0.65500409747E+02  0.65767713785E+02  0.00000000000E+00 0.  1.
          5    1    3    3  502    0 -0.98506570704E+01 -0.10807714505E+03  0.71115772152E+02  0.12983546424E+03  0.47000000000E+01 0. -1.
         13    1    6    6    0    0  0.10516035464E+02  0.22252569943E+02  0.13540057218E+02  0.28090870766E+02  0.00000000000E+00 0. -1.
        -14    1    6    6    0    0  0.12303366159E+03  0.66616815085E+02  0.37195222493E+03  0.39739594810E+03  0.00000000000E+00 0.  1.
         -5    1    5    5    0  503 -0.39001461400E+02  0.31308186799E+02  0.12262737607E+03  0.13251747022E+03  0.47000000000E+01 0.  1.
<mgrwt>
<rscale>  2 0.23065767E+03</rscale>
<asrwt>0</asrwt>
<pdfrwt beam="1">  1       21 0.12322231E+00 0.23067196E+03</pdfrwt>
<pdfrwt beam="2">  1       21 0.11476886E-01 0.23067196E+03</pdfrwt>
<totfact> 0.30753632E+04</totfact>
</mgrwt>
</event>
<event>
12    1  0.1441827E-001  0.2130535E+03  0.7546771E-02  0.1139487E+00
         21   -1    0    0  504  503  0.00000000000E+00  0.00000000000E+00  0.75974746571E+03  0.75974746571E+03  0.00000000000E+00 0. -1.
         21   -1    0    0  502  504 -0.00000000000E+00 -0.00000000000E+00 -0.80593275290E+02  0.80593275290E+02  0.00000000000E+00 0. -1.
          6    2    1    2  502    0 -0.10198847454E+03  0.70997749130E+02  0.12261145346E+03  0.24441152720E+03  0.17105875245E+03 0.  0.
         24    2    3    3    0    0 -0.58604565597E+02  0.63804279969E+02  0.38089427667E+01  0.11764388109E+03  0.79499015472E+02 0.  0.
         -6    2    1    2    0  503  0.10198847454E+03 -0.70997749130E+02  0.55654273696E+03  0.59592921380E+03  0.17305918202E+03 0.  0.
        -24    2    5    5    0    0  0.92035272715E+02 -0.50466470429E+02  0.55659976432E+03  0.57263344415E+03  0.84192681736E+02 0.  0.
          4    1    4    4  501    0 -0.70982392934E+02  0.42877639595E+02 -0.18140453089E+02  0.84888562964E+02  0.00000000000E+00 0. -1.
         -3    1    4    4    0  501  0.12377827336E+02  0.20926640374E+02  0.21949395856E+02  0.32755318123E+02  0.00000000000E+00 0.  1.
          5    1    3    3  502    0 -0.43383908939E+02  0.71934691602E+01  0.11880251070E+03  0.12676764611E+03  0.47000000000E+01 0. -1.
         11    1    6    6    0    0  0.15301875657E+01 -0.22926666557E+02  0.26670867104E+03  0.26769663561E+03  0.00000000000E+00 0. -1.
        -12    1    6    6    0    0  0.90505085149E+02 -0.27539803872E+02  0.28989109328E+03  0.30493680853E+03  0.00000000000E+00 0.  1.
         -5    1    5    5    0  503  0.99532018216E+01 -0.20531278701E+02 -0.57027358081E-01  0.23295769653E+02  0.47000000000E+01 0.  1.
<mgrwt>
<rscale>  2 0.21264695E+03</rscale>
<asrwt>0</asrwt>
<pdfrwt beam="1">  1       21 0.11688422E+00 0.21305354E+03</pdfrwt>
<pdfrwt beam="2">  1       21 0.12398966E-01 0.21305354E+03</pdfrwt>
<totfact> 0.30819598E+04</totfact>
</mgrwt>
</event>
<event>
12    1  0.1441827E-001  0.3106205E+03  0.7546771E-02  0.1080670E+00
         21   -1    0    0  504  503  0.00000000000E+00  0.00000000000E+00  0.10640475193E+03  0.10640475193E+03  0.00000000000E+00 0. -1.
         21   -1    0    0  502  504 -0.00000000000E+00 -0.00000000000E+00 -0.89733799892E+03  0.89733799892E+03  0.00000000000E+00 0. -1.
          6    2    1    2  502    0  0.23876851808E+03 -0.98121937625E+02 -0.43157217599E+03  0.52874226687E+03  0.16332642716E+03 0.  0.
         24    2    3    3    0    0  0.19586186183E+03 -0.14914073560E+02 -0.29585230595E+03  0.36379832816E+03  0.78970488949E+02 0.  0.
         -6    2    1    2    0  503 -0.23876851808E+03  0.98121937625E+02 -0.35936107099E+03  0.47500048398E+03  0.17276215026E+03 0.  0.
        -24    2    5    5    0    0 -0.89487323098E+02  0.10179590634E+03 -0.21173814328E+03  0.26496955290E+03  0.83698477288E+02 0.  0.
          2    1    4    4  501    0  0.17799235751E+03 -0.36713403764E+02 -0.23809897406E+03  0.29953342851E+03  0.00000000000E+00 0. -1.
         -1    1    4    4    0  501  0.17869504317E+02  0.21799330204E+02 -0.57753331892E+02  0.64264899646E+02  0.00000000000E+00 0.  1.
          5    1    3    3  502    0  0.42906656258E+02 -0.83207864065E+02 -0.13571987004E+03  0.16494393871E+03  0.47000000000E+01 0. -1.
         11    1    6    6    0    0 -0.10266753555E+03  0.69772797820E+02 -0.17413559769E+03  0.21385058465E+03  0.00000000000E+00 0. -1.
        -12    1    6    6    0    0  0.13180212457E+02  0.32023108523E+02 -0.37602545590E+02  0.51118968248E+02  0.00000000000E+00 0.  1.
         -5    1    5    5    0  503 -0.14928119499E+03 -0.36739687184E+01 -0.14762292771E+03  0.21003093108E+03  0.47000000000E+01 0.  1.
<mgrwt>
<rscale>  2 0.30932557E+03</rscale>
<asrwt>0</asrwt>
<pdfrwt beam="1">  1       21 0.16369962E-01 0.31062048E+03</pdfrwt>
<pdfrwt beam="2">  1       21 0.13805200E+00 0.31062048E+03</pdfrwt>
<totfact> 0.11586118E+04</totfact>
</mgrwt>
</event>
<event>
12    1  0.1441827E-001  0.1908956E+03  0.7546771E-02  0.1159992E+00
         21   -1    0    0  504  503  0.00000000000E+00  0.00000000000E+00  0.83483803367E+03  0.83483803367E+03  0.00000000000E+00 0.  1.
         21   -1    0    0  502  504 -0.00000000000E+00 -0.00000000000E+00 -0.42622049582E+02  0.42622049582E+02  0.00000000000E+00 0.  1.
          6    2    1    2  502    0  0.37261081896E+02  0.67814791631E+02  0.46091146807E+03  0.49509400633E+03  0.16337521085E+03 0.  0.
         24    2    3    3    0    0  0.13174468084E+02 -0.17719188311E+02  0.30828240695E+03  0.31841931378E+03  0.76585120683E+02 0.  0.
         -6    2    1    2    0  503 -0.37261081896E+02 -0.67814791631E+02  0.33130451602E+03  0.38236607692E+03  0.17451045888E+03 0.  0.
        -24    2    5    5    0    0 -0.37504362612E+02 -0.54689074852E+02  0.34554816664E+03  0.36243330970E+03  0.86930411201E+02 0.  0.
          4    1    4    4  501    0 -0.23215382704E+02 -0.32444148893E+02  0.13663185425E+03  0.14233706611E+03  0.00000000000E+00 0. -1.
         -3    1    4    4    0  501  0.36389850788E+02  0.14724960582E+02  0.17165055270E+03  0.17608224767E+03  0.00000000000E+00 0.  1.
          5    1    3    3  502    0  0.24086613812E+02  0.85533979942E+02  0.15262906112E+03  0.17667469255E+03  0.47000000000E+01 0. -1.
         11    1    6    6    0    0  0.96338147615E+01 -0.16623596631E+01  0.20270229649E+03  0.20293790880E+03  0.00000000000E+00 0. -1.
        -12    1    6    6    0    0 -0.47138177374E+02 -0.53026715188E+02  0.14284587014E+03  0.15949540089E+03  0.00000000000E+00 0.  1.
         -5    1    5    5    0  503  0.24328071611E+00 -0.13125716779E+02 -0.14243650612E+02  0.19932767225E+02  0.47000000000E+01 0.  1.
<mgrwt>
<rscale>  2 0.18831289E+03</rscale>
<asrwt>0</asrwt>
<pdfrwt beam="1">  1       21 0.12843661E+00 0.19089561E+03</pdfrwt>
<pdfrwt beam="2">  1       21 0.65572390E-02 0.19089561E+03</pdfrwt>
<totfact> 0.75511905E+04</totfact>
</mgrwt>
</event>
<event>
12    1  0.1441827E-001  0.2393687E+03  0.7546771E-02  0.1120236E+00
         21   -1    0    0  504  503  0.00000000000E+00  0.00000000000E+00  0.16883931847E+03  0.16883931847E+03  0.00000000000E+00 0. -1.
         21   -1    0    0  502  504 -0.00000000000E+00 -0.00000000000E+00 -0.42065979221E+03  0.42065979221E+03  0.00000000000E+00 0.  1.
          6    2    1    2  502    0 -0.13180970998E+03 -0.10131527111E+03 -0.25561080342E+03  0.35010036670E+03  0.17203139287E+03 0.  0.
         24    2    3    3    0    0 -0.58619698915E+02  0.96233541124E+01 -0.76553270376E+02  0.12705811414E+03  0.82185662489E+02 0.  0.
         -6    2    1    2    0  503  0.13180970998E+03  0.10131527111E+03  0.37903296909E+01  0.23939874398E+03  0.17221732844E+03 0.  0.
        -24    2    5    5    0    0  0.13577231195E+03  0.21528643646E+02  0.34407438669E+01  0.15937487038E+03  0.80566167840E+02 0.  0.
          2    1    4    4  501    0 -0.14248329458E+02 -0.20643566118E+02  0.84834387287E+01  0.26479056764E+02  0.00000000000E+00 0. -1.
         -1    1    4    4    0  501 -0.44371369456E+02  0.30266920231E+02 -0.85036709105E+02  0.10057905738E+03  0.00000000000E+00 0.  1.
          5    1    3    3  502    0 -0.73190011064E+02 -0.11093862522E+03 -0.17905753305E+03  0.22304225256E+03  0.47000000000E+01 0. -1.
         13    1    6    6    0    0  0.43490572788E+02 -0.24591603397E+02 -0.19599247274E+02  0.53668495161E+02  0.00000000000E+00 0. -1.
        -14    1    6    6    0    0  0.92281739160E+02  0.46120247043E+02  0.23039991141E+02  0.10570637522E+03  0.00000000000E+00 0.  1.
         -5    1    5    5    0  503 -0.39626019704E+01  0.79786627463E+02  0.34958582401E+00  0.80023873603E+02  0.47000000000E+01 0.  1.
<mgrwt>
<rscale>  2 0.23933529E+03</rscale>
<asrwt>0</asrwt>
<pdfrwt beam="1">  1       21 0.25975280E-01 0.23936874E+03</pdfrwt>
<pdfrwt beam="2">  1       21 0.64716889E-01 0.23936874E+03</pdfrwt>
<totfact> 0.30238900E+04</totfact>
</mgrwt>
</event>
<event>
12    1  0.1441827E-001  0.2517837E+03  0.7546771E-02  0.1112550E+00
         21   -1    0    0  504  503  0.00000000000E+00  0.00000000000E+00  0.58903031637E+03  0.58903031637E+03  0.00000000000E+00 0. -1.
         21   -1    0    0  502  504 -0.00000000000E+00 -0.00000000000E+00 -0.15913905184E+03  0.15913905184E+03  0.00000000000E+00 0.  1.
          6    2    1    2  502    0 -0.14793964929E+03 -0.10442995102E+03 -0.60665966689E+00  0.24944751964E+03  0.17155740297E+03 0.  0.
         24    2    3    3    0    0 -0.17678974169E+03 -0.95686964145E+02 -0.12812200894E+02  0.21658670882E+03  0.79592977544E+02 0.  0.
         -6    2    1    2    0  503  0.14793964929E+03  0.10442995102E+03  0.43049792420E+03  0.49872184858E+03  0.17493788901E+03 0.  0.
        -24    2    5    5    0    0  0.94738242234E+02  0.14019368918E+03  0.31517334803E+03  0.36669426606E+03  0.80627789399E+02 0.  0.
          4    1    4    4  501    0 -0.88143492924E+02 -0.79559351543E+02  0.20555526633E+02  0.12050516768E+03  0.00000000000E+00 0. -1.
         -3    1    4    4    0  501 -0.88646248762E+02 -0.16127612602E+02 -0.33367727526E+02  0.96081541141E+02  0.00000000000E+00 0.  1.
          5    1    3    3  502    0  0.28850092394E+02 -0.87429868777E+01  0.12205541227E+02  0.32860810813E+02  0.47000000000E+01 0. -1.
         11    1    6    6    0    0  0.85320369978E+02  0.99330962245E+02  0.16427329472E+03  0.21007598852E+03  0.00000000000E+00 0. -1.
        -12    1    6    6    0    0  0.94178722559E+01  0.40862726931E+02  0.15090005331E+03  0.15661827753E+03  0.00000000000E+00 0.  1.
         -5    1    5    5    0  503  0.53201407059E+02 -0.35763738153E+02  0.11532457617E+03  0.13202758253E+03  0.47000000000E+01 0.  1.
<mgrwt>
<rscale>  2 0.25119741E+03</rscale>
<asrwt>0</asrwt>
<pdfrwt beam="1">  1       21 0.90620048E-01 0.25178368E+03</pdfrwt>
<pdfrwt beam="2">  1       21 0.24482931E-01 0.25178368E+03</pdfrwt>
<totfact> 0.15748049E+04</totfact>
</mgrwt>
</event>
<event>
12    1  0.1441827E-001  0.1892513E+03  0.7546771E-02  0.1159304E+00
         21   -1    0    0  504  503  0.00000000000E+00  0.00000000000E+00  0.74764922198E+02  0.74764922198E+02  0.00000000000E+00 0.  1.
         21   -1    0    0  502  504 -0.00000000000E+00 -0.00000000000E+00 -0.61287674539E+03  0.61287674539E+03  0.00000000000E+00 0. -1.
          6    2    1    2  502    0 -0.75106546417E+02  0.12954558714E+02 -0.43041981587E+03  0.46989501077E+03  0.17242763512E+03 0.  0.
         24    2    3    3    0    0 -0.96953130019E+02 -0.37014382244E+02 -0.33561983153E+03  0.36042677197E+03  0.80602808426E+02 0.  0.
         -6    2    1    2    0  503  0.75106546417E+02 -0.12954558714E+02 -0.10769200732E+03  0.21774665681E+03  0.17322593399E+03 0.  0.
        -24    2    5    5    0    0 -0.76861957760E+01  0.37872289467E+02 -0.72245648626E+02  0.11422592941E+03  0.79591088007E+02 0.  0.
          2    1    4    4  501    0 -0.10654995321E+03 -0.22630046583E+02 -0.24429186434E+03  0.26747621673E+03  0.00000000000E+00 0. -1.
         -1    1    4    4    0  501  0.95968231909E+01 -0.14384335661E+02 -0.91327967193E+02  0.92950555240E+02  0.00000000000E+00 0.  1.
          5    1    3    3  502    0  0.21846583602E+02  0.49968940958E+02 -0.94799984338E+02  0.10946823880E+03  0.47000000000E+01 0. -1.
         11    1    6    6    0    0 -0.16484926522E+01  0.17200377750E+02 -0.86624645602E+02  0.88331193519E+02  0.00000000000E+00 0. -1.
        -12    1    6    6    0    0 -0.60377031238E+01  0.20671911717E+02  0.14378996976E+02  0.25894735895E+02  0.00000000000E+00 0.  1.
         -5    1    5    5    0  503  0.82792742193E+02 -0.50826848181E+02 -0.35446358695E+02  0.10352072740E+03  0.47000000000E+01 0.  1.
<mgrwt>
<rscale>  2 0.18906838E+03</rscale>
<asrwt>0</asrwt>
<pdfrwt beam="1">  1       21 0.11502296E-01 0.18925126E+03</pdfrwt>
<pdfrwt beam="2">  1       21 0.94288732E-01 0.18925126E+03</pdfrwt>
<totfact> 0.59768863E+04</totfact>
</mgrwt>
</event>
<event>
12    1  0.1441827E-001  0.3949632E+03  0.7546771E-02  0.1045560E+00
         21   -1    0    0  504  503  0.00000000000E+00  0.00000000000E+00  0.16489088794E+03  0.16489088794E+03  0.00000000000E+00 0.  1.
         21   -1    0    0  502  504 -0.00000000000E+00 -0.00000000000E+00 -0.97098261582E+03  0.97098261582E+03  0.00000000000E+00 0. -1.
          6    2    1    2  502    0 -0.32874946037E+03 -0.13405509332E+03 -0.31084805294E+03  0.50242089222E+03  0.17249134814E+03 0.  0.
         24    2    3    3    0    0 -0.68193403367E+02 -0.24997664993E+02 -0.11811177870E+03  0.16043793516E+03  0.80713786001E+02 0.  0.
         -6    2    1    2    0  503  0.32874946037E+03  0.13405509332E+03 -0.49524367494E+03  0.63345261153E+03  0.17305761397E+03 0.  0.
        -24    2    5    5    0    0  0.12032873024E+03  0.99334581138E+02 -0.17209742475E+03  0.24733047578E+03  0.84902757963E+02 0.  0.
          2    1    4    4  501    0 -0.64988441034E+02 -0.23631134248E+02 -0.13043479174E+03  0.14763184910E+03  0.00000000000E+00 0. -1.
         -1    1    4    4    0  501 -0.32049623329E+01 -0.13665307455E+01  0.12323013032E+02  0.12806086054E+02  0.00000000000E+00 0.  1.
          5    1    3    3  502    0 -0.26055605701E+03 -0.10905742833E+03 -0.19273627424E+03  0.34198295707E+03  0.47000000000E+01 0. -1.
         13    1    6    6    0    0  0.53143197243E+02  0.57554843485E+02 -0.14296496376E+03  0.16302067441E+03  0.00000000000E+00 0. -1.
        -14    1    6    6    0    0  0.67185533002E+02  0.41779737653E+02 -0.29132460990E+02  0.84309801366E+02  0.00000000000E+00 0.  1.
         -5    1    5    5    0  503  0.20842073013E+03  0.34720512186E+02 -0.32314625018E+03  0.38612213576E+03  0.47000000000E+01 0.  1.
<mgrwt>
<rscale>  2 0.39490122E+03</rscale>
<asrwt>0</asrwt>
<pdfrwt beam="1">  1       21 0.25367829E-01 0.39496318E+03</pdfrwt>
<pdfrwt beam="2">  1       21 0.14938194E+00 0.39496318E+03</pdfrwt>
<totfact> 0.39430583E+03</totfact>
</mgrwt>
</event>
<event>
12    1  0.1441827E-001  0.1784812E+03  0.7546771E-02  0.1169486E+00
         21   -1    0    0  504  503  0.00000000000E+00  0.00000000000E+00  0.15524090215E+03  0.15524090215E+03  0.00000000000E+00 0.  1.
         21   -1    0    0  502  504 -0.00000000000E+00 -0.00000000000E+00 -0.21630636684E+03  0.21630636684E+03  0.00000000000E+00 0.  1.
          6    2    1    2  502    0 -0.12207060791E+02 -0.42733252676E+02  0.13273408233E+02  0.17897412271E+03  0.17285950947E+03 0.  0.
         24    2    3    3    0    0 -0.42839046020E+02 -0.84187207407E+02  0.22001786228E+02  0.12648580530E+03  0.81190581904E+02 0.  0.
         -6    2    1    2    0  503  0.12207060791E+02  0.42733252676E+02 -0.74338872925E+02  0.19257314628E+03  0.17199710876E+03 0.  0.
        -24    2    5    5    0    0  0.62634090176E+02  0.64627393364E+02 -0.44236013719E+02  0.12972005708E+03  0.82284500817E+02 0.  0.
          4    1    4    4  501    0 -0.37147323763E+02  0.16507711715E-01 -0.58666596666E+01  0.37607733658E+02  0.00000000000E+00 0. -1.
         -3    1    4    4    0  501 -0.56917222576E+01 -0.84203715119E+02  0.27868445894E+02  0.88878071641E+02  0.00000000000E+00 0.  1.
          5    1    3    3  502    0  0.30631985229E+02  0.41453954731E+02 -0.87283779948E+01  0.52488317408E+02  0.47000000000E+01 0. -1.
         13    1    6    6    0    0  0.43906782052E+02  0.18252286299E+02  0.17142353574E+02  0.50545145675E+02  0.00000000000E+00 0. -1.
        -14    1    6    6    0    0  0.18727308124E+02  0.46375107065E+02 -0.61378367293E+02  0.79174911408E+02  0.00000000000E+00 0.  1.
         -5    1    5    5    0  503 -0.50427029385E+02 -0.21894140688E+02 -0.30102859207E+02  0.62853089196E+02  0.47000000000E+01 0.  1.
<mgrwt>
<rscale>  2 0.17827210E+03</rscale>
<asrwt>0</asrwt>
<pdfrwt beam="1">  1       21 0.23883216E-01 0.17848124E+03</pdfrwt>
<pdfrwt beam="2">  1       21 0.33277902E-01 0.17848124E+03</pdfrwt>
<totfact> 0.14435565E+05</totfact>
</mgrwt>
</event>
<event>
12    1  0.1441827E-001  0.3356288E+03  0.7546771E-02  0.1068696E+00
         21   -1    0    0  504  503  0.00000000000E+00  0.00000000000E+00  0.16566356962E+03  0.16566356962E+03  0.00000000000E+00 0. -1.
         21   -1    0    0  502  504 -0.00000000000E+00 -0.00000000000E+00 -0.11529900954E+04  0.11529900954E+04  0.00000000000E+00 0.  1.
          6    2    1    2  502    0  0.21753379639E+03 -0.18816685375E+03 -0.91625676907E+03  0.97579361373E+03  0.17297107365E+03 0.  0.
         24    2    3    3    0    0  0.96842019957E+02 -0.11613301453E+03 -0.31832860612E+03  0.36154972330E+03  0.80745569849E+02 0.  0.
         -6    2    1    2    0  503 -0.21753379639E+03  0.18816685375E+03 -0.71069756727E+02  0.34286005129E+03  0.17255256308E+03 0.  0.
        -24    2    5    5    0    0 -0.16066851542E+03  0.13694571483E+03  0.15540952739E+02  0.22718477196E+03  0.82479686860E+02 0.  0.
          4    1    4    4  501    0  0.32890182061E+02 -0.65327653303E+02 -0.74485988453E+02  0.10439170866E+03  0.00000000000E+00 0. -1.
         -3    1    4    4    0  501  0.63951837895E+02 -0.50805361224E+02 -0.24384261767E+03  0.25715801464E+03  0.00000000000E+00 0.  1.
          5    1    3    3  502    0  0.12069177644E+03 -0.72033839228E+02 -0.59792816294E+03  0.61424389043E+03  0.47000000000E+01 0. -1.
         13    1    6    6    0    0 -0.13128865995E+03  0.60992899161E+02  0.16811863153E+02  0.14573772581E+03  0.00000000000E+00 0. -1.
        -14    1    6    6    0    0 -0.29379855464E+02  0.75952815664E+02 -0.12709104143E+01  0.81447046157E+02  0.00000000000E+00 0.  1.
         -5    1    5    5    0  503 -0.56865280973E+02  0.51221138929E+02 -0.86610709466E+02  0.11567527933E+03  0.47000000000E+01 0.  1.
<mgrwt>
<rscale>  2 0.33557494E+03</rscale>
<asrwt>0</asrwt>
<pdfrwt beam="1">  1       21 0.25486703E-01 0.33562883E+03</pdfrwt>
<pdfrwt beam="2">  1       21 0.17738309E+00 0.33562883E+03</pdfrwt>
<totfact> 0.24930142E+03</totfact>
</mgrwt>
</event>
<event>
12    1  0.1441827E-001  0.2030863E+03  0.7546771E-02  0.1147412E+00
         21   -1    0    0  504  503  0.00000000000E+00  0.00000000000E+00  0.98964064201E+03  0.98964064201E+03  0.00000000000E+00 0. -1.
         21   -1    0    0  502  504 -0.00000000000E+00 -0.00000000000E+00 -0.63408382413E+02  0.63408382413E+02  0.00000000000E+00 0. -1.
          6    2    1    2  502    0 -0.81326780584E+02  0.66972536194E+02  0.77221190126E+03  0.79816413016E+03  0.17220741095E+03 0.  0.
         24    2    3    3    0    0 -0.29283423130E+02  0.37703926292E+02  0.17668255017E+03  0.19963053830E+03  0.79727807940E+02 0.  0.
         -6    2    1    2    0  503  0.81326780584E+02 -0.66972536194E+02  0.15402035834E+03  0.25488489426E+03  0.17362221256E+03 0.  0.
        -24    2    5    5    0    0  0.32810367635E+01 -0.71062379365E+02  0.34793685205E+02  0.11224915354E+03  0.79552781071E+02 0.  0.
          4    1    4    4  501    0 -0.43098157504E+02  0.53986024106E+02  0.11277751460E+03  0.13225244715E+03  0.00000000000E+00 0. -1.
         -3    1    4    4    0  501  0.13814734374E+02 -0.16282097814E+02  0.63905035570E+02  0.67378091144E+02  0.00000000000E+00 0.  1.
          5    1    3    3  502    0 -0.52043357454E+02  0.29268609901E+02  0.59552935109E+03  0.59853359186E+03  0.47000000000E+01 0. -1.
         11    1    6    6    0    0  0.19534612299E+02  0.49367332408E+01  0.27637872986E+02  0.34202696326E+02  0.00000000000E+00 0. -1.
        -12    1    6    6    0    0 -0.16253575535E+02 -0.75999112606E+02  0.71558122189E+01  0.78046457211E+02  0.00000000000E+00 0.  1.
         -5    1    5    5    0  503  0.78045743821E+02  0.40898431718E+01  0.11922667314E+03  0.14263574073E+03  0.47000000000E+01 0.  1.
<mgrwt>
<rscale>  2 0.20278356E+03</rscale>
<asrwt>0</asrwt>
<pdfrwt beam="1">  1       21 0.15225239E+00 0.20308628E+03</pdfrwt>
<pdfrwt beam="2">  1       21 0.97551365E-02 0.20308628E+03</pdfrwt>
<totfact> 0.24196670E+04</totfact>
</mgrwt>
</event>
<event>
12    1  0.1441827E-001  0.2440086E+03  0.7546771E-02  0.1119239E+00
         21   -1    0    0  504  503  0.00000000000E+00  0.00000000000E+00  0.11887900831E+03  0.11887900831E+03  0.00000000000E+00 0. -1.
         21   -1    0    0  502  504 -0.00000000000E+00 -0.00000000000E+00 -0.64539936945E+03  0.64539936945E+03  0.00000000000E+00 0. -1.
          6    2    1    2  502    0 -0.11723084002E+03  0.99459469136E+02 -0.46429850511E+03  0.52451243163E+03  0.18948597106E+03 0.  0.
         24    2    3    3    0    0 -0.12802080843E+02 -0.18029845371E+02 -0.10013396072E+03  0.12784253088E+03  0.76340906558E+02 0.  0.
         -6    2    1    2    0  503  0.11723084002E+03 -0.99459469136E+02 -0.62221856025E+02  0.23976594613E+03  0.17314991685E+03 0.  0.
        -24    2    5    5    0    0  0.39241257489E+02  0.96631244162E+01 -0.85965162651E+01  0.95239538610E+02  0.85810356951E+02 0.  0.
          2    1    4    4  501    0 -0.15148527554E+02  0.18336357605E+01 -0.10592581583E+03  0.10701924390E+03  0.00000000000E+00 0. -1.
         -1    1    4    4    0  501  0.23464467111E+01 -0.19863481132E+02  0.57918551075E+01  0.20823286975E+02  0.00000000000E+00 0.  1.
          5    1    3    3  502    0 -0.10442875918E+03  0.11748931451E+03 -0.36416454439E+03  0.39666990075E+03  0.47000000000E+01 0. -1.
         13    1    6    6    0    0  0.22365211261E+02 -0.37796563789E+02  0.11566227301E+01  0.43933138804E+02  0.00000000000E+00 0. -1.
        -14    1    6    6    0    0  0.16876046227E+02  0.47459688205E+02 -0.97531389952E+01  0.51306399806E+02  0.00000000000E+00 0.  1.
         -5    1    5    5    0  503  0.77989582534E+02 -0.10912259355E+03 -0.53625339760E+02  0.14452640752E+03  0.47000000000E+01 0.  1.
<mgrwt>
<rscale>  2 0.24083288E+03</rscale>
<asrwt>0</asrwt>
<pdfrwt beam="1">  1       21 0.18289078E-01 0.24400858E+03</pdfrwt>
<pdfrwt beam="2">  1       21 0.99292210E-01 0.24400858E+03</pdfrwt>
<totfact> 0.22113870E+04</totfact>
</mgrwt>
</event>
<event>
12    1  0.1441827E-001  0.2161932E+03  0.7546771E-02  0.1136773E+00
         21   -1    0    0  504  503  0.00000000000E+00  0.00000000000E+00  0.67319642882E+03  0.67319642882E+03  0.00000000000E+00 0.  1.
         21   -1    0    0  502  504 -0.00000000000E+00 -0.00000000000E+00 -0.74329019551E+02  0.74329019551E+02  0.00000000000E+00 0.  1.
          6    2    1    2  502    0 -0.12076454717E+02 -0.12937578355E+03  0.20321355342E+03  0.29670731053E+03  0.17278757391E+03 0.  0.
         24    2    3    3    0    0 -0.18963665492E+02 -0.15435700301E+03  0.20324649352E+03  0.27037128800E+03  0.87211187683E+02 0.  0.
         -6    2    1    2    0  503  0.12076454717E+02  0.12937578355E+03  0.39565385585E+03  0.45081813785E+03  0.17265887069E+03 0.  0.
        -24    2    5    5    0    0 -0.46392829894E+02  0.77468853761E+02  0.31981137655E+03  0.34178989256E+03  0.79920561279E+02 0.  0.
          2    1    4    4  501    0 -0.14637245741E+02 -0.12453212058E+03  0.20486376070E+03  0.24019087924E+03  0.00000000000E+00 0. -1.
         -1    1    4    4    0  501 -0.43264197514E+01 -0.29824882426E+02 -0.16172671826E+01  0.30180408757E+02  0.00000000000E+00 0.  1.
          5    1    3    3  502    0  0.68872107752E+01  0.24981219454E+02 -0.32940106657E-01  0.26336022530E+02  0.47000000000E+01 0. -1.
         11    1    6    6    0    0 -0.98742581392E+01 -0.12544309850E+02  0.15117658460E+02  0.21986456757E+02  0.00000000000E+00 0. -1.
        -12    1    6    6    0    0 -0.36518571755E+02  0.90013163611E+02  0.30469371809E+03  0.31980343580E+03  0.00000000000E+00 0.  1.
         -5    1    5    5    0  503  0.58469284611E+02  0.51906929794E+02  0.75842479303E+02  0.10902824529E+03  0.47000000000E+01 0.  1.
<mgrwt>
<rscale>  2 0.21616744E+03</rscale>
<asrwt>0</asrwt>
<pdfrwt beam="1">  1       21 0.10356868E+00 0.21619315E+03</pdfrwt>
<pdfrwt beam="2">  1       21 0.11435234E-01 0.21619315E+03</pdfrwt>
<totfact> 0.47715320E+04</totfact>
</mgrwt>
</event>
<event>
12    1  0.1441827E-001  0.2277082E+03  0.7546771E-02  0.1128888E+00
         21   -1    0    0  504  503  0.00000000000E+00  0.00000000000E+00  0.26722142842E+04  0.26722142842E+04  0.00000000000E+00 0.  1.
         21   -1    0    0  502  504 -0.00000000000E+00 -0.00000000000E+00 -0.38235952942E+02  0.38235952942E+02  0.00000000000E+00 0. -1.
          6    2    1    2  502    0  0.80432496140E+02  0.11752073477E+03  0.36354384692E+03  0.42896989879E+03  0.17768099476E+03 0.  0.
         24    2    3    3    0    0  0.12413050359E+03  0.10412030521E+03  0.27529638576E+03  0.32947722686E+03  0.80732416830E+02 0.  0.
         -6    2    1    2    0  503 -0.80432496140E+02 -0.11752073477E+03  0.22704344843E+04  0.22814803383E+04  0.17320299386E+03 0.  0.
        -24    2    5    5    0    0 -0.71134194719E+02 -0.35127623070E+01  0.92822912785E+03  0.93440143006E+03  0.80151765692E+02 0.  0.
          2    1    4    4  501    0  0.10621431721E+03  0.11695485040E+03  0.25182529315E+03  0.29728083773E+03  0.00000000000E+00 0. -1.
         -1    1    4    4    0  501  0.17916186380E+02 -0.12834545186E+02  0.23471092607E+02  0.32196389125E+02  0.00000000000E+00 0.  1.
          5    1    3    3  502    0 -0.43698007446E+02  0.13400429555E+02  0.88247461160E+02  0.99492671932E+02  0.47000000000E+01 0. -1.
         11    1    6    6    0    0 -0.81586704504E+02  0.14363086475E+02  0.82266393591E+03  0.82682443121E+03  0.00000000000E+00 0. -1.
        -12    1    6    6    0    0  0.10452509786E+02 -0.17875848782E+02  0.10556519194E+03  0.10757699885E+03  0.00000000000E+00 0.  1.
         -5    1    5    5    0  503 -0.92983014211E+01 -0.11400797246E+03  0.13422053564E+04  0.13470789082E+04  0.47000000000E+01 0.  1.
<mgrwt>
<rscale>  2 0.22683405E+03</rscale>
<asrwt>0</asrwt>
<pdfrwt beam="1">  1       21 0.41110974E+00 0.22770825E+03</pdfrwt>
<pdfrwt beam="2">  1       21 0.58824564E-02 0.22770825E+03</pdfrwt>
<totfact> 0.14411947E+03</totfact>
</mgrwt>
</event>
<event>
12    1  0.1441827E-001  0.2025810E+03  0.7546771E-02  0.1147836E+00
         21   -1    0    0  504  503  0.00000000000E+00  0.00000000000E+00  0.12224721664E+03  0.12224721664E+03  0.00000000000E+00 0. -1.
         21   -1    0    0  502  504 -0.00000000000E+00 -0.00000000000E+00 -0.85478005210E+03  0.85478005210E+03  0.00000000000E+00 0. -1.
          6    2    1    2  502    0  0.14718784236E+02  0.10204942069E+03 -0.74726029815E+03  0.77391166968E+03  0.17294679067E+03 0.  0.
         24    2    3    3    0    0  0.15203903593E+01  0.12999316316E+03 -0.70686230932E+03  0.72283194918E+03  0.77014079062E+02 0.  0.
         -6    2    1    2    0  503 -0.14718784236E+02 -0.10204942069E+03  0.14727462689E+02  0.20311559906E+03  0.17437981979E+03 0.  0.
        -24    2    5    5    0    0 -0.42651479674E+02 -0.11469423579E+03 -0.26442597148E+02  0.15156765390E+03  0.85437850638E+02 0.  0.
          4    1    4    4  501    0  0.17513314149E+02  0.13209857433E+03 -0.65859296042E+03  0.67193856640E+03  0.00000000000E+00 0. -1.
         -3    1    4    4    0  501 -0.15992923790E+02 -0.21054111654E+01 -0.48269348900E+02  0.50893382779E+02  0.00000000000E+00 0.  1.
          5    1    3    3  502    0  0.13198393877E+02 -0.27943742469E+02 -0.40397988830E+02  0.51079720492E+02  0.47000000000E+01 0. -1.
         13    1    6    6    0    0 -0.41076840784E+02 -0.57790484439E+02  0.24661627160E+02  0.75068254240E+02  0.00000000000E+00 0. -1.
        -14    1    6    6    0    0 -0.15746388906E+01 -0.56903751354E+02 -0.51104224309E+02  0.76499399658E+02  0.00000000000E+00 0.  1.
         -5    1    5    5    0  503  0.27932695438E+02  0.12644815102E+02  0.41170059837E+02  0.51547945162E+02  0.47000000000E+01 0.  1.
<mgrwt>
<rscale>  2 0.20227221E+03</rscale>
<asrwt>0</asrwt>
<pdfrwt beam="1">  1       21 0.18807264E-01 0.20258097E+03</pdfrwt>
<pdfrwt beam="2">  1       21 0.13150462E+00 0.20258097E+03</pdfrwt>
<totfact> 0.10790056E+04</totfact>
</mgrwt>
</event>
<event>
12    1  0.1441827E-001  0.2039885E+03  0.7546771E-02  0.1146497E+00
         21   -1    0    0  504  503  0.00000000000E+00  0.00000000000E+00  0.18717983909E+03  0.18717983909E+03  0.00000000000E+00 0. -1.
         21   -1    0    0  502  504 -0.00000000000E+00 -0.00000000000E+00 -0.33947639275E+03  0.33947639275E+03  0.00000000000E+00 0. -1.
          6    2    1    2  502    0 -0.58609654224E+01 -0.10616594486E+03 -0.23117890884E+03  0.30830988003E+03  0.17408542577E+03 0.  0.
         24    2    3    3    0    0 -0.32882931888E+02 -0.18303874891E+02 -0.38997647493E+02  0.95223847578E+02  0.78297162094E+02 0.  0.
         -6    2    1    2    0  503  0.58609654224E+01  0.10616594486E+03  0.78882355184E+02  0.21834635182E+03  0.17362933113E+03 0.  0.
        -24    2    5    5    0    0  0.47168768852E+02  0.12567619314E+03  0.51965719994E+02  0.16511497327E+03  0.80889554749E+02 0.  0.
          4    1    4    4  501    0 -0.41973732904E+01  0.28390650816E+02 -0.26395031568E+02  0.38991597657E+02  0.00000000000E+00 0. -1.
         -3    1    4    4    0  501 -0.28685558598E+02 -0.46694525707E+02 -0.12602615924E+02  0.56232249922E+02  0.00000000000E+00 0.  1.
          5    1    3    3  502    0  0.27021966466E+02 -0.87862069967E+02 -0.19218126135E+03  0.21308603245E+03  0.47000000000E+01 0. -1.
         13    1    6    6    0    0  0.64785904739E+01 -0.80768296946E+01  0.18748444995E+02  0.21417551265E+02  0.00000000000E+00 0. -1.
        -14    1    6    6    0    0  0.40690178378E+02  0.13375302283E+03  0.33217274999E+02  0.14369742201E+03  0.00000000000E+00 0.  1.
         -5    1    5    5    0  503 -0.41307803430E+02 -0.19510248277E+02  0.26916635190E+02  0.53231378547E+02  0.47000000000E+01 0.  1.
<mgrwt>
<rscale>  2 0.20389112E+03</rscale>
<asrwt>0</asrwt>
<pdfrwt beam="1">  1       21 0.28796899E-01 0.20398847E+03</pdfrwt>
<pdfrwt beam="2">  1       21 0.52227137E-01 0.20398847E+03</pdfrwt>
<totfact> 0.39903047E+04</totfact>
</mgrwt>
</event>
<event>
12    1  0.1441827E-001  0.2251379E+03  0.7546771E-02  0.1130141E+00
         21   -1    0    0  504  503  0.00000000000E+00  0.00000000000E+00  0.16610253564E+03  0.16610253564E+03  0.00000000000E+00 0.  1.
         21   -1    0    0  502  504 -0.00000000000E+00 -0.00000000000E+00 -0.49582680640E+03  0.49582680640E+03  0.00000000000E+00 0.  1.
          6    2    1    2  502    0  0.14066123704E+02 -0.14136446759E+03 -0.37018784988E+03  0.43318415545E+03  0.17443537428E+03 0.  0.
         24    2    3    3    0    0 -0.10449167379E+02 -0.14653294708E+03 -0.37136783949E+03  0.40766563173E+03  0.81829734261E+02 0.  0.
         -6    2    1    2    0  503 -0.14066123704E+02  0.14136446759E+03  0.40463579111E+02  0.22874518659E+03  0.17465763831E+03 0.  0.
        -24    2    5    5    0    0 -0.37050082844E+02  0.16670557223E+03  0.43070795713E+02  0.19411396454E+03  0.81619123577E+02 0.  0.
          2    1    4    4  501    0 -0.22154579603E+02 -0.32380183807E+02 -0.18250553178E+03  0.18667504073E+03  0.00000000000E+00 0. -1.
         -1    1    4    4    0  501  0.11705412224E+02 -0.11415276327E+03 -0.18886230771E+03  0.22099059100E+03  0.00000000000E+00 0.  1.
          5    1    3    3  502    0  0.24515291082E+02  0.51684794941E+01  0.11799896121E+01  0.25518523715E+02  0.47000000000E+01 0. -1.
         11    1    6    6    0    0  0.11835491173E+02  0.13115858379E+02  0.26818974357E+02  0.32114824893E+02  0.00000000000E+00 0. -1.
        -12    1    6    6    0    0 -0.48885574017E+02  0.15358971385E+03  0.16251821356E+02  0.16199913964E+03  0.00000000000E+00 0.  1.
         -5    1    5    5    0  503  0.22983959140E+02 -0.25341104645E+02 -0.26072166022E+01  0.34631222052E+02  0.47000000000E+01 0.  1.
<mgrwt>
<rscale>  2 0.22509476E+03</rscale>
<asrwt>0</asrwt>
<pdfrwt beam="1">  1       21 0.25554236E-01 0.22513787E+03</pdfrwt>
<pdfrwt beam="2">  1       21 0.76281048E-01 0.22513787E+03</pdfrwt>
<totfact> 0.21825745E+04</totfact>
</mgrwt>
</event>
<event>
12    1  0.1441827E-001  0.1768797E+03  0.7546771E-02  0.1171241E+00
         21   -1    0    0  504  503  0.00000000000E+00  0.00000000000E+00  0.10564456888E+03  0.10564456888E+03  0.00000000000E+00 0.  1.
         21   -1    0    0  502  504 -0.00000000000E+00 -0.00000000000E+00 -0.30655415405E+03  0.30655415405E+03  0.00000000000E+00 0.  1.
          6    2    1    2  502    0 -0.23196844889E+02  0.10511048730E+02 -0.14244217933E+03  0.22590625841E+03  0.17347993365E+03 0.  0.
         24    2    3    3    0    0  0.11446376901E+02 -0.37467523462E+02 -0.20891992558E+02  0.90633814395E+02  0.79013784242E+02 0.  0.
         -6    2    1    2    0  503  0.23196844889E+02 -0.10511048730E+02 -0.58467405839E+02  0.18629246452E+03  0.17503676480E+03 0.  0.
        -24    2    5    5    0    0 -0.22045704950E+01  0.47459360668E+02 -0.75296773081E+02  0.12063336103E+03  0.81397498185E+02 0.  0.
          2    1    4    4  501    0  0.43171017226E+02 -0.20795717195E+02  0.22524386197E+01  0.47971575560E+02  0.00000000000E+00 0. -1.
         -1    1    4    4    0  501 -0.31724640325E+02 -0.16671806266E+02 -0.23144431177E+02  0.42662238835E+02  0.00000000000E+00 0.  1.
          5    1    3    3  502    0 -0.34643221790E+02  0.47978572192E+02 -0.12155018678E+03  0.13527244402E+03  0.47000000000E+01 0. -1.
         13    1    6    6    0    0 -0.33541955653E+02 -0.17178634871E+01 -0.15102167619E+02  0.36825117933E+02  0.00000000000E+00 0. -1.
        -14    1    6    6    0    0  0.31337385158E+02  0.49177224155E+02 -0.60194605462E+02  0.83808243097E+02  0.00000000000E+00 0.  1.
         -5    1    5    5    0  503  0.25401415384E+02 -0.57970409398E+02  0.16829367242E+02  0.65659103490E+02  0.47000000000E+01 0.  1.
<mgrwt>
<rscale>  2 0.17649337E+03</rscale>
<asrwt>0</asrwt>
<pdfrwt beam="1">  1       21 0.16253011E-01 0.17687975E+03</pdfrwt>
<pdfrwt beam="2">  1       21 0.47162177E-01 0.17687975E+03</pdfrwt>
<totfact> 0.14650911E+05</totfact>
</mgrwt>
</event>
<event>
12    1  0.1441827E-001  0.2060117E+03  0.7546771E-02  0.1145011E+00
         21   -1    0    0  504  503  0.00000000000E+00  0.00000000000E+00  0.34134519084E+02  0.34134519084E+02  0.00000000000E+00 0.  1.
         21   -1    0    0  502  504 -0.00000000000E+00 -0.00000000000E+00 -0.12469564194E+04  0.12469564194E+04  0.00000000000E+00 0.  1.
          6    2    1    2  502    0 -0.10634576935E+03  0.19140684407E+02 -0.54468119449E+03  0.58191083825E+03  0.17397365199E+03 0.  0.
         24    2    3    3    0    0 -0.10649441678E+03  0.67877645314E+02 -0.46728335158E+03  0.49032574372E+03  0.78212331156E+02 0.  0.
         -6    2    1    2    0  503  0.10634576935E+03 -0.19140684407E+02 -0.66814070580E+03  0.69918010021E+03  0.17539960467E+03 0.  0.
        -24    2    5    5    0    0  0.12747801328E+03 -0.15833708226E+02 -0.36366032318E+03  0.39391316583E+03  0.80108684727E+02 0.  0.
          2    1    4    4  501    0 -0.79637882356E+01 -0.60820456114E+01 -0.14422848240E+03  0.14457616795E+03  0.00000000000E+00 0. -1.
         -1    1    4    4    0  501 -0.98530628548E+02  0.73959690926E+02 -0.32305486918E+03  0.34574957577E+03  0.00000000000E+00 0.  1.
          5    1    3    3  502    0  0.14864743748E+00 -0.48736960907E+02 -0.77397842904E+02  0.91585094534E+02  0.47000000000E+01 0. -1.
         13    1    6    6    0    0  0.12196372198E+03  0.95688448619E+01 -0.32558570489E+03  0.34781139070E+03  0.00000000000E+00 0. -1.
        -14    1    6    6    0    0  0.55142913034E+01 -0.25402553088E+02 -0.38074618294E+02  0.46101775131E+02  0.00000000000E+00 0.  1.
         -5    1    5    5    0  503 -0.21132243937E+02 -0.33069761814E+01 -0.30448038262E+03  0.30526693438E+03  0.47000000000E+01 0.  1.
<mgrwt>
<rscale>  2 0.20570783E+03</rscale>
<asrwt>0</asrwt>
<pdfrwt beam="1">  1       21 0.52514639E-02 0.20601167E+03</pdfrwt>
<pdfrwt beam="2">  1       21 0.19183947E+00 0.20601167E+03</pdfrwt>
<totfact> 0.37208595E+04</totfact>
</mgrwt>
</event>
<event>
12    1  0.1441827E-001  0.2555600E+03  0.7546771E-02  0.1110817E+00
         21   -1    0    0  504  503  0.00000000000E+00  0.00000000000E+00  0.15263476339E+03  0.15263476339E+03  0.00000000000E+00 0.  1.
         21   -1    0    0  502  504 -0.00000000000E+00 -0.00000000000E+00 -0.52108146356E+03  0.52108146356E+03  0.00000000000E+00 0. -1.
          6    2    1    2  502    0  0.18409151215E+03  0.40597389293E+02 -0.32171829509E+02  0.25135180372E+03  0.16310999281E+03 0.  0.
         24    2    3    3    0    0  0.13138144924E+03  0.58327790223E+02  0.30598348550E+02  0.16735833313E+03  0.80058331331E+02 0.  0.
         -6    2    1    2    0  503 -0.18409151215E+03 -0.40597389293E+02 -0.33627487067E+03  0.42236442323E+03  0.17254878877E+03 0.  0.
        -24    2    5    5    0    0 -0.14523534766E+03 -0.64202047237E+02 -0.15471115894E+03  0.23513607919E+03  0.78346818427E+02 0.  0.
          2    1    4    4  501    0  0.25660963481E+02  0.34146550171E+02 -0.20609366834E+02  0.47425920514E+02  0.00000000000E+00 0. -1.
         -1    1    4    4    0  501  0.10572048576E+03  0.24181240052E+02  0.51207715384E+02  0.11993241261E+03  0.00000000000E+00 0.  1.
          5    1    3    3  502    0  0.52710062911E+02 -0.17730400930E+02 -0.62770178059E+02  0.83993470596E+02  0.47000000000E+01 0. -1.
         11    1    6    6    0    0 -0.81459167074E+02 -0.31882817467E+02 -0.13518673132E+03  0.16102037845E+03  0.00000000000E+00 0. -1.
        -12    1    6    6    0    0 -0.63776180587E+02 -0.32319229770E+02 -0.19524427622E+02  0.74115700747E+02  0.00000000000E+00 0.  1.
         -5    1    5    5    0  503 -0.38856164491E+02  0.23604657944E+02 -0.18156371172E+03  0.18722834404E+03  0.47000000000E+01 0.  1.
<mgrwt>
<rscale>  2 0.25397644E+03</rscale>
<asrwt>0</asrwt>
<pdfrwt beam="1">  1       21 0.23482271E-01 0.25556001E+03</pdfrwt>
<pdfrwt beam="2">  1       21 0.80166379E-01 0.25556001E+03</pdfrwt>
<totfact> 0.22588596E+04</totfact>
</mgrwt>
</event>
<event>
12    1  0.1441827E-001  0.1821544E+03  0.7546771E-02  0.1166653E+00
         21   -1    0    0  504  503  0.00000000000E+00  0.00000000000E+00  0.14697802410E+04  0.14697802410E+04  0.00000000000E+00 0.  1.
         21   -1    0    0  502  504 -0.00000000000E+00 -0.00000000000E+00 -0.28464074751E+02  0.28464074751E+02  0.00000000000E+00 0.  1.
          6    2    1    2  502    0  0.24494231295E+02  0.41489015700E+02  0.37250706967E+03  0.41465856569E+03  0.17566702410E+03 0.  0.
         24    2    3    3    0    0 -0.29245117827E+01 -0.15956470656E+02  0.32361180132E+03  0.33425577568E+03  0.82092410710E+02 0.  0.
         -6    2    1    2    0  503 -0.24494231295E+02 -0.41489015700E+02  0.10688090965E+04  0.10835857500E+04  0.17170872725E+03 0.  0.
        -24    2    5    5    0    0  0.47130471854E+02 -0.40069085931E+02  0.51624927964E+03  0.52638151856E+03  0.82081492028E+02 0.  0.
          2    1    4    4  501    0  0.49380836614E+01 -0.18000976803E+02  0.32540190058E+03  0.32593682936E+03  0.00000000000E+00 0. -1.
         -1    1    4    4    0  501 -0.78625954441E+01  0.20445061471E+01 -0.17900992547E+01  0.83189463182E+01  0.00000000000E+00 0.  1.
          5    1    3    3  502    0  0.27418743077E+02  0.57445486356E+02  0.48895268352E+02  0.80402790013E+02  0.47000000000E+01 0. -1.
         13    1    6    6    0    0  0.40359460811E+02  0.38159829939E+01  0.10202665965E+03  0.10978564151E+03  0.00000000000E+00 0. -1.
        -14    1    6    6    0    0  0.67710110431E+01 -0.43885068925E+02  0.41422261999E+03  0.41659587705E+03  0.00000000000E+00 0.  1.
         -5    1    5    5    0  503 -0.71624703148E+02 -0.14199297691E+01  0.55255981691E+03  0.55720423146E+03  0.47000000000E+01 0.  1.
<mgrwt>
<rscale>  2 0.18119321E+03</rscale>
<asrwt>0</asrwt>
<pdfrwt beam="1">  1       21 0.22611998E+00 0.18215436E+03</pdfrwt>
<pdfrwt beam="2">  1       21 0.43790896E-02 0.18215436E+03</pdfrwt>
<totfact> 0.31321015E+04</totfact>
</mgrwt>
</event>
<event>
12    1  0.1441827E-001  0.2296790E+03  0.7546771E-02  0.1127044E+00
         21   -1    0    0  504  503  0.00000000000E+00  0.00000000000E+00  0.21815286893E+03  0.21815286893E+03  0.00000000000E+00 0. -1.
         21   -1    0    0  502  504 -0.00000000000E+00 -0.00000000000E+00 -0.27427841501E+03  0.27427841501E+03  0.00000000000E+00 0.  1.
          6    2    1    2  502    0 -0.11728767187E+03  0.94884628150E+02 -0.11408994273E+03  0.25555090087E+03  0.17184370012E+03 0.  0.
         24    2    3    3    0    0 -0.66253603880E+02  0.11762681900E+03 -0.12139351141E+03  0.19900786013E+03  0.81499295737E+02 0.  0.
         -6    2    1    2    0  503  0.11728767187E+03 -0.94884628150E+02  0.57964396641E+02  0.23688038308E+03  0.17318473944E+03 0.  0.
        -24    2    5    5    0    0  0.13558770817E+02  0.12783074741E+02  0.22671337336E+02  0.83193333538E+02  0.77845320622E+02 0.  0.
          2    1    4    4  501    0 -0.38038904578E+02  0.10564831563E+03 -0.53222029763E+02  0.12426226019E+03  0.00000000000E+00 0. -1.
         -1    1    4    4    0  501 -0.28214699302E+02  0.11978503372E+02 -0.68171481647E+02  0.74745599935E+02  0.00000000000E+00 0.  1.
          5    1    3    3  502    0 -0.51034067995E+02 -0.22742190848E+02  0.73035686839E+01  0.56543040741E+02  0.47000000000E+01 0. -1.
         11    1    6    6    0    0 -0.81762922424E+01 -0.78374801433E+01 -0.24682817640E+02  0.27157307239E+02  0.00000000000E+00 0. -1.
        -12    1    6    6    0    0  0.21735063059E+02  0.20620554885E+02  0.47354154976E+02  0.56036026300E+02  0.00000000000E+00 0.  1.
         -5    1    5    5    0  503  0.10372890106E+03 -0.10766770289E+03  0.35293059305E+02  0.15368704954E+03  0.47000000000E+01 0.  1.
<mgrwt>
<rscale>  2 0.22942621E+03</rscale>
<asrwt>0</asrwt>
<pdfrwt beam="1">  1       21 0.33561980E-01 0.22967900E+03</pdfrwt>
<pdfrwt beam="2">  1       21 0.42196679E-01 0.22967900E+03</pdfrwt>
<totfact> 0.45409144E+04</totfact>
</mgrwt>
</event>
<event>
12    1  0.1441827E-001  0.1771437E+03  0.7546771E-02  0.1171636E+00
         21   -1    0    0  504  503  0.00000000000E+00  0.00000000000E+00  0.34453731868E+03  0.34453731868E+03  0.00000000000E+00 0. -1.
         21   -1    0    0  502  504 -0.00000000000E+00 -0.00000000000E+00 -0.96273408832E+02  0.96273408832E+02  0.00000000000E+00 0. -1.
          6    2    1    2  502    0  0.35247916918E+02  0.12243060115E+02  0.64726667898E+02  0.18859862690E+03  0.17316925929E+03 0.  0.
         24    2    3    3    0    0 -0.27564652586E+02  0.15484435668E+02 -0.11475422519E+02  0.89680610405E+02  0.83134521954E+02 0.  0.
         -6    2    1    2    0  503 -0.35247916918E+02 -0.12243060115E+02  0.18353724195E+03  0.25221210061E+03  0.16891629982E+03 0.  0.
        -24    2    5    5    0    0  0.15732701718E+01 -0.43792905303E+02  0.18142819478E+03  0.20345012126E+03  0.80965846171E+02 0.  0.
          2    1    4    4  501    0 -0.11965042181E+02  0.27935610677E+02 -0.42827497517E+02  0.52514332537E+02  0.00000000000E+00 0. -1.
         -1    1    4    4    0  501 -0.15599610404E+02 -0.12451175009E+02  0.31352074998E+02  0.37166277868E+02  0.00000000000E+00 0.  1.
          5    1    3    3  502    0  0.62812569504E+02 -0.32413755532E+01  0.76202090417E+02  0.98918016494E+02  0.47000000000E+01 0. -1.
         13    1    6    6    0    0  0.14360052450E+02  0.80414684416E+01  0.12381241792E+03  0.12490152582E+03  0.00000000000E+00 0. -1.
        -14    1    6    6    0    0 -0.12786782278E+02 -0.51834373745E+02  0.57615776861E+02  0.78548595442E+02  0.00000000000E+00 0.  1.
         -5    1    5    5    0  503 -0.36821187090E+02  0.31549845188E+02  0.21090471669E+01  0.48761979350E+02  0.47000000000E+01 0.  1.
<mgrwt>
<rscale>  2 0.17609566E+03</rscale>
<asrwt>0</asrwt>
<pdfrwt beam="1">  1       21 0.53005740E-01 0.17714373E+03</pdfrwt>
<pdfrwt beam="2">  1       21 0.14811294E-01 0.17714373E+03</pdfrwt>
<totfact> 0.13607614E+05</totfact>
</mgrwt>
</event>
<event>
12    1  0.1441827E-001  0.1732778E+03  0.7546771E-02  0.1174564E+00
         21   -1    0    0  504  503  0.00000000000E+00  0.00000000000E+00  0.68534791072E+02  0.68534791072E+02  0.00000000000E+00 0.  1.
         21   -1    0    0  502  504 -0.00000000000E+00 -0.00000000000E+00 -0.14378886430E+04  0.14378886430E+04  0.00000000000E+00 0.  1.
          6    2    1    2  502    0 -0.18371198336E+02  0.59674203603E+00 -0.13128166571E+04  0.13241554022E+04  0.17193631641E+03 0.  0.
         24    2    3    3    0    0 -0.91771451692E+01  0.17374619799E+02 -0.12954320154E+04  0.12978810123E+04  0.77232882964E+02 0.  0.
         -6    2    1    2    0  503  0.18371198336E+02 -0.59674203603E+00 -0.56537194834E+02  0.18226803191E+03  0.17230009875E+03 0.  0.
        -24    2    5    5    0    0  0.57563135293E+02  0.38182738501E+02 -0.67759335452E+02  0.12580669582E+03  0.80402494415E+02 0.  0.
          4    1    4    4  501    0 -0.25689151854E+02  0.20623086980E+02 -0.23316468847E+03  0.23548039449E+03  0.00000000000E+00 0. -1.
         -3    1    4    4    0  501  0.16512006685E+02 -0.32484671818E+01 -0.10622673269E+04  0.10624006178E+04  0.00000000000E+00 0.  1.
          5    1    3    3  502    0 -0.91940531663E+01 -0.16777877763E+02 -0.17384641760E+02  0.26274389907E+02  0.47000000000E+01 0. -1.
         11    1    6    6    0    0  0.44561130233E+02  0.39984678316E+02 -0.32317840266E+01  0.59957595480E+02  0.00000000000E+00 0. -1.
        -12    1    6    6    0    0  0.13002005060E+02 -0.18019398158E+01 -0.64527551426E+02  0.65849100341E+02  0.00000000000E+00 0.  1.
         -5    1    5    5    0  503 -0.39191936958E+02 -0.38779480537E+02  0.11222140619E+02  0.56461336091E+02  0.47000000000E+01 0.  1.
<mgrwt>
<rscale>  2 0.17318725E+03</rscale>
<asrwt>0</asrwt>
<pdfrwt beam="1">  1       21 0.10543815E-01 0.17327776E+03</pdfrwt>
<pdfrwt beam="2">  1       21 0.22121362E+00 0.17327776E+03</pdfrwt>
<totfact> 0.74437184E+03</totfact>
</mgrwt>
</event>
<event>
12    1  0.1441827E-001  0.2502330E+03  0.7546771E-02  0.1113175E+00
         21   -1    0    0  504  503  0.00000000000E+00  0.00000000000E+00  0.78244808927E+03  0.78244808927E+03  0.00000000000E+00 0. -1.
         21   -1    0    0  502  504 -0.00000000000E+00 -0.00000000000E+00 -0.82304160741E+02  0.82304160741E+02  0.00000000000E+00 0. -1.
          6    2    1    2  502    0 -0.96779367427E+02 -0.15294686716E+03  0.42248409045E+03  0.49097220248E+03  0.17263228781E+03 0.  0.
         24    2    3    3    0    0 -0.56483762608E+02 -0.85349092536E+01  0.16151721324E+03  0.18996663716E+03  0.82074679085E+02 0.  0.
         -6    2    1    2    0  503  0.96779367427E+02  0.15294686716E+03  0.27765983809E+03  0.37378004753E+03  0.17279336826E+03 0.  0.
        -24    2    5    5    0    0  0.10311273905E+03  0.13282151114E+03  0.29319183689E+03  0.34716286252E+03  0.79289401052E+02 0.  0.
          4    1    4    4  501    0 -0.55925766226E+02  0.48041387827E+01  0.16650707594E+03  0.17571390786E+03  0.00000000000E+00 0. -1.
         -3    1    4    4    0  501 -0.55799638140E+00 -0.13339048036E+02 -0.49898627073E+01  0.14252729294E+02  0.00000000000E+00 0.  1.
          5    1    3    3  502    0 -0.40295604819E+02 -0.14441195791E+03  0.26096687721E+03  0.30100556532E+03  0.47000000000E+01 0. -1.
         13    1    6    6    0    0  0.34522301676E+02  0.10634283141E+03  0.16334230221E+03  0.19794265533E+03  0.00000000000E+00 0. -1.
        -14    1    6    6    0    0  0.68590437375E+02  0.26478679728E+02  0.12984953468E+03  0.14922020719E+03  0.00000000000E+00 0.  1.
         -5    1    5    5    0  503 -0.63333716242E+01  0.20125356022E+02 -0.15531998804E+02  0.26617185012E+02  0.47000000000E+01 0.  1.
<mgrwt>
<rscale>  2 0.25020516E+03</rscale>
<asrwt>0</asrwt>
<pdfrwt beam="1">  1       21 0.12037662E+00 0.25023297E+03</pdfrwt>
<pdfrwt beam="2">  1       21 0.12662179E-01 0.25023297E+03</pdfrwt>
<totfact> 0.27060499E+04</totfact>
</mgrwt>
</event>
<event>
12    1  0.1441827E-001  0.1917044E+03  0.7546771E-02  0.1157124E+00
         21   -1    0    0  504  503  0.00000000000E+00  0.00000000000E+00  0.12932675766E+03  0.12932675766E+03  0.00000000000E+00 0.  1.
         21   -1    0    0  502  504 -0.00000000000E+00 -0.00000000000E+00 -0.35584899097E+03  0.35584899097E+03  0.00000000000E+00 0.  1.
          6    2    1    2  502    0  0.51934260011E+02  0.63900151473E+02 -0.22329629355E+03  0.29429882855E+03  0.17311894481E+03 0.  0.
         24    2    3    3    0    0  0.71181918103E+02 -0.16719070066E+02 -0.11102325185E+03  0.15466624956E+03  0.79051208296E+02 0.  0.
         -6    2    1    2    0  503 -0.51934260011E+02 -0.63900151473E+02 -0.32259397701E+01  0.19087692008E+03  0.17217199311E+03 0.  0.
        -24    2    5    5    0    0  0.15233842689E+02  0.21622350483E+01  0.35009672049E+02  0.89093596573E+02  0.80468916917E+02 0.  0.
          2    1    4    4  501    0  0.40332710093E+02  0.18778533464E+02 -0.13660268155E+02  0.46539915649E+02  0.00000000000E+00 0. -1.
         -1    1    4    4    0  501  0.30849208010E+02 -0.35497603531E+02 -0.97362983694E+02  0.10812633391E+03  0.00000000000E+00 0.  1.
          5    1    3    3  502    0 -0.19247658092E+02  0.80619221540E+02 -0.11227304170E+03  0.13963257899E+03  0.47000000000E+01 0. -1.
         13    1    6    6    0    0  0.95871652169E+01 -0.12913497456E+02 -0.23462513508E+02  0.28445767586E+02  0.00000000000E+00 0. -1.
        -14    1    6    6    0    0  0.56466774719E+01  0.15075732504E+02  0.58472185557E+02  0.60647828987E+02  0.00000000000E+00 0.  1.
         -5    1    5    5    0  503 -0.67168102700E+02 -0.66062386522E+02 -0.38235611819E+02  0.10178332351E+03  0.47000000000E+01 0.  1.
<mgrwt>
<rscale>  2 0.19149033E+03</rscale>
<asrwt>0</asrwt>
<pdfrwt beam="1">  1       21 0.19896424E-01 0.19170437E+03</pdfrwt>
<pdfrwt beam="2">  1       21 0.54745998E-01 0.19170437E+03</pdfrwt>
<totfact> 0.73449767E+04</totfact>
</mgrwt>
</event>
<event>
12    1  0.1441827E-001  0.1994567E+03  0.7546771E-02  0.1150338E+00
         21   -1    0    0  504  503  0.00000000000E+00  0.00000000000E+00  0.52855110597E+03  0.52855110597E+03  0.00000000000E+00 0.  1.
         21   -1    0    0  502  504 -0.00000000000E+00 -0.00000000000E+00 -0.75189486185E+02  0.75189486185E+02  0.00000000000E+00 0.  1.
          6    2    1    2  502    0  0.50215831799E+02 -0.85072831552E+02  0.24063174087E+03  0.31212959348E+03  0.17251733820E+03 0.  0.
         24    2    3    3    0    0 -0.22199087333E+00 -0.58882472684E+02  0.23422057483E+03  0.25474403865E+03  0.81043523384E+02 0.  0.
         -6    2    1    2    0  503 -0.50215831799E+02  0.85072831552E+02  0.21272987891E+03  0.29161099868E+03  0.17327422409E+03 0.  0.
        -24    2    5    5    0    0  0.11799946004E+01  0.10165114460E+03  0.91955796267E+02  0.15922957825E+03  0.81017544623E+02 0.  0.
          2    1    4    4  501    0  0.18518719254E+02 -0.17854228795E+02  0.18946040654E+03  0.19119875024E+03  0.00000000000E+00 0. -1.
         -1    1    4    4    0  501 -0.18740710128E+02 -0.41028243889E+02  0.44760168291E+02  0.63545288403E+02  0.00000000000E+00 0.  1.
          5    1    3    3  502    0  0.50437822672E+02 -0.26190358868E+02  0.64111660401E+01  0.57385554833E+02  0.47000000000E+01 0. -1.
         11    1    6    6    0    0 -0.32855418639E+02  0.62850397130E+02  0.78702407843E+02  0.10594205942E+03  0.00000000000E+00 0. -1.
        -12    1    6    6    0    0  0.34035413239E+02  0.38800747471E+02  0.13253388424E+02  0.53287518833E+02  0.00000000000E+00 0.  1.
         -5    1    5    5    0  503 -0.51395826399E+02 -0.16578313049E+02  0.12077408265E+03  0.13238142043E+03  0.47000000000E+01 0.  1.
<mgrwt>
<rscale>  2 0.19929220E+03</rscale>
<asrwt>0</asrwt>
<pdfrwt beam="1">  1       21 0.81315553E-01 0.19945669E+03</pdfrwt>
<pdfrwt beam="2">  1       21 0.11567614E-01 0.19945669E+03</pdfrwt>
<totfact> 0.82804970E+04</totfact>
</mgrwt>
</event>
<event>
12    1  0.1441827E-001  0.1748119E+03  0.7546771E-02  0.1173224E+00
         21   -1    0    0  504  503  0.00000000000E+00  0.00000000000E+00  0.93895673717E+03  0.93895673717E+03  0.00000000000E+00 0.  1.
         21   -1    0    0  502  504 -0.00000000000E+00 -0.00000000000E+00 -0.34322510525E+02  0.34322510525E+02  0.00000000000E+00 0.  1.
          6    2    1    2  502    0  0.41826238185E+01  0.19031107794E+02  0.57125435081E+03  0.59740332066E+03  0.17372252822E+03 0.  0.
         24    2    3    3    0    0  0.26274223956E+02 -0.16811305190E+01  0.12740677697E+03  0.15249906757E+03  0.79563293977E+02 0.  0.
         -6    2    1    2    0  503 -0.41826238185E+01 -0.19031107794E+02  0.33337987584E+03  0.37587592704E+03  0.17251345891E+03 0.  0.
        -24    2    5    5    0    0  0.18774120261E+02 -0.23853226252E+02  0.67357785240E+02  0.10878023704E+03  0.79841247140E+02 0.  0.
          4    1    4    4  501    0  0.48116832629E+02 -0.19913845618E+02  0.10122088651E+03  0.11383083368E+03  0.00000000000E+00 0. -1.
         -3    1    4    4    0  501 -0.21842608672E+02  0.18232715099E+02  0.26185890455E+02  0.38668233893E+02  0.00000000000E+00 0.  1.
          5    1    3    3  502    0 -0.22091600138E+02  0.20712238313E+02  0.44384757384E+03  0.44490425309E+03  0.47000000000E+01 0. -1.
         11    1    6    6    0    0  0.17813039142E+01 -0.51534991113E+02  0.50539816533E+02  0.72203195274E+02  0.00000000000E+00 0. -1.
        -12    1    6    6    0    0  0.16992816346E+02  0.27681764861E+02  0.16817968707E+02  0.36577041770E+02  0.00000000000E+00 0.  1.
         -5    1    5    5    0  503 -0.22956744079E+02  0.48221184579E+01  0.26602209060E+03  0.26709568999E+03  0.47000000000E+01 0.  1.
<mgrwt>
<rscale>  2 0.17451073E+03</rscale>
<asrwt>0</asrwt>
<pdfrwt beam="1">  1       21 0.14445486E+00 0.17481188E+03</pdfrwt>
<pdfrwt beam="2">  1       21 0.52803870E-02 0.17481188E+03</pdfrwt>
<totfact> 0.81607947E+04</totfact>
</mgrwt>
</event>
<event>
12    1  0.1441827E-001  0.2240306E+03  0.7546771E-02  0.1132038E+00
         21   -1    0    0  504  503  0.00000000000E+00  0.00000000000E+00  0.75782868271E+02  0.75782868271E+02  0.00000000000E+00 0.  1.
         21   -1    0    0  502  504 -0.00000000000E+00 -0.00000000000E+00 -0.66474237212E+03  0.66474237212E+03  0.00000000000E+00 0.  1.
          6    2    1    2  502    0  0.77908383863E+02 -0.11033967751E+03 -0.35529964868E+03  0.41681762939E+03  0.17103957178E+03 0.  0.
         24    2    3    3    0    0  0.10662571657E+03 -0.10505661886E+03 -0.22162558883E+03  0.27991094517E+03  0.82621419768E+02 0.  0.
         -6    2    1    2    0  503 -0.77908383863E+02  0.11033967751E+03 -0.23365985517E+03  0.32370761100E+03  0.17873200271E+03 0.  0.
        -24    2    5    5    0    0 -0.38474369625E+02  0.81292598246E+02 -0.44180050004E+02  0.12794382258E+03  0.79554894689E+02 0.  0.
          2    1    4    4  501    0  0.50273439621E+02 -0.53832519658E+02 -0.17683313343E+03  0.19156021503E+03  0.00000000000E+00 0. -1.
         -1    1    4    4    0  501  0.56352276949E+02 -0.51224099205E+02 -0.44792455402E+02  0.88350730147E+02  0.00000000000E+00 0.  1.
          5    1    3    3  502    0 -0.28717332707E+02 -0.52830586424E+01 -0.13367405985E+03  0.13690668422E+03  0.47000000000E+01 0. -1.
         11    1    6    6    0    0 -0.74019430370E+00  0.20408377533E+01  0.19424388202E+02  0.19545325870E+02  0.00000000000E+00 0. -1.
        -12    1    6    6    0    0 -0.37734175321E+02  0.79251760493E+02 -0.63604438206E+02  0.10839849671E+03  0.00000000000E+00 0.  1.
         -5    1    5    5    0  503 -0.39434014238E+02  0.29047079259E+02 -0.18947980516E+03  0.19576378842E+03  0.47000000000E+01 0.  1.
<mgrwt>
<rscale>  2 0.22249288E+03</rscale>
<asrwt>0</asrwt>
<pdfrwt beam="1">  1       21 0.11658903E-01 0.22403055E+03</pdfrwt>
<pdfrwt beam="2">  1       21 0.10226806E+00 0.22403055E+03</pdfrwt>
<totfact> 0.47331396E+04</totfact>
</mgrwt>
</event>
<event>
12    1  0.1441827E-001  0.2463078E+03  0.7546771E-02  0.1115677E+00
         21   -1    0    0  504  503  0.00000000000E+00  0.00000000000E+00  0.12154102605E+03  0.12154102605E+03  0.00000000000E+00 0.  1.
         21   -1    0    0  502  504 -0.00000000000E+00 -0.00000000000E+00 -0.53605416288E+03  0.53605416288E+03  0.00000000000E+00 0.  1.
          6    2    1    2  502    0  0.15929312271E+03  0.72335260741E+02 -0.29372988426E+03  0.38326665097E+03  0.17323219086E+03 0.  0.
         24    2    3    3    0    0  0.11842837783E+03  0.95931789248E+02 -0.28683135529E+03  0.33534584929E+03  0.83405176062E+02 0.  0.
         -6    2    1    2    0  503 -0.15929312271E+03 -0.72335260741E+02 -0.12078325257E+03  0.27432853795E+03  0.17338069023E+03 0.  0.
        -24    2    5    5    0    0 -0.95921625599E+02 -0.85027624236E+02 -0.14065958297E+03  0.20654800057E+03  0.80288872938E+02 0.  0.
          2    1    4    4  501    0  0.94286194668E+02  0.23445862241E+02 -0.15297763630E+03  0.18122293500E+03  0.00000000000E+00 0. -1.
         -1    1    4    4    0  501  0.24142183158E+02  0.72485927007E+02 -0.13385371899E+03  0.15412291429E+03  0.00000000000E+00 0.  1.
          5    1    3    3  502    0  0.40864744888E+02 -0.23596528506E+02 -0.68985289698E+01  0.47920801687E+02  0.47000000000E+01 0. -1.
         13    1    6    6    0    0 -0.30538030498E+02 -0.74476940079E+02 -0.10173108126E+03  0.12972508934E+03  0.00000000000E+00 0. -1.
        -14    1    6    6    0    0 -0.65383595100E+02 -0.10550684157E+02 -0.38928501712E+02  0.76822911231E+02  0.00000000000E+00 0.  1.
         -5    1    5    5    0  503 -0.63371497116E+02  0.12692363495E+02  0.19876330400E+02  0.67780537383E+02  0.47000000000E+01 0.  1.
<mgrwt>
<rscale>  2 0.24628171E+03</rscale>
<asrwt>0</asrwt>
<pdfrwt beam="1">  1       21 0.18698619E-01 0.24630784E+03</pdfrwt>
<pdfrwt beam="2">  1       21 0.82469873E-01 0.24630784E+03</pdfrwt>
<totfact> 0.32689680E+04</totfact>
</mgrwt>
</event>
<event>
12    1  0.1441827E-001  0.2100970E+03  0.7546771E-02  0.1141767E+00
         21   -1    0    0  504  503  0.00000000000E+00  0.00000000000E+00  0.66777116241E+03  0.66777116241E+03  0.00000000000E+00 0. -1.
         21   -1    0    0  502  504 -0.00000000000E+00 -0.00000000000E+00 -0.65662407755E+02  0.65662407755E+02  0.00000000000E+00 0. -1.
          6    2    1    2  502    0  0.90900222960E+02 -0.76517879923E+02  0.30197207669E+03  0.36786940917E+03  0.17327126312E+03 0.  0.
         24    2    3    3    0    0  0.12153771564E+03 -0.21736342517E+02  0.21726912886E+03  0.26234049291E+03  0.79829662113E+02 0.  0.
         -6    2    1    2    0  503 -0.90900222960E+02  0.76517879923E+02  0.30013667797E+03  0.36556416099E+03  0.17157299863E+03 0.  0.
        -24    2    5    5    0    0 -0.51110334766E+01 -0.21729090754E+02  0.11566247142E+03  0.13958833228E+03  0.74892050088E+02 0.  0.
          4    1    4    4  501    0  0.34709039510E+02  0.29967829275E+02  0.63118302694E+02  0.78017359287E+02  0.00000000000E+00 0. -1.
         -3    1    4    4    0  501  0.86828676127E+02 -0.51704171792E+02  0.15415082617E+03  0.18432313362E+03  0.00000000000E+00 0.  1.
          5    1    3    3  502    0 -0.30637492677E+02 -0.54781537406E+02  0.84702947822E+02  0.10552891626E+03  0.47000000000E+01 0. -1.
         13    1    6    6    0    0  0.11064361480E+02 -0.20878077672E+02  0.12041211125E+03  0.12270856025E+03  0.00000000000E+00 0. -1.
        -14    1    6    6    0    0 -0.16175394957E+02 -0.85101308225E+00 -0.47496398347E+01  0.16879772032E+02  0.00000000000E+00 0.  1.
         -5    1    5    5    0  503 -0.85789189483E+02  0.98246970677E+02  0.18447420655E+03  0.22597582871E+03  0.47000000000E+01 0.  1.
<mgrwt>
<rscale>  2 0.20974657E+03</rscale>
<asrwt>0</asrwt>
<pdfrwt beam="1">  1       21 0.10273402E+00 0.21009704E+03</pdfrwt>
<pdfrwt beam="2">  1       21 0.10101909E-01 0.21009704E+03</pdfrwt>
<totfact> 0.60837918E+04</totfact>
</mgrwt>
</event>
<event>
12    1  0.1441827E-001  0.2418399E+03  0.7546771E-02  0.1119229E+00
         21   -1    0    0  504  503  0.00000000000E+00  0.00000000000E+00  0.28729384198E+03  0.28729384198E+03  0.00000000000E+00 0.  1.
         21   -1    0    0  502  504 -0.00000000000E+00 -0.00000000000E+00 -0.10288449550E+04  0.10288449550E+04  0.00000000000E+00 0. -1.
          6    2    1    2  502    0  0.56813571812E+02 -0.15338488727E+03 -0.96073616638E+03  0.98975156216E+03  0.17274104269E+03 0.  0.
         24    2    3    3    0    0 -0.15803853377E+02 -0.64722177218E+02 -0.65598411332E+03  0.66412866610E+03  0.79454428484E+02 0.  0.
         -6    2    1    2    0  503 -0.56813571812E+02  0.15338488727E+03  0.21918505340E+03  0.32638723477E+03  0.17813431394E+03 0.  0.
        -24    2    5    5    0    0 -0.16294410819E+02  0.10167451938E+03  0.42012612082E+02  0.13736890625E+03  0.80634614868E+02 0.  0.
          4    1    4    4  501    0  0.41615077656E+01 -0.37788943837E+02 -0.57792797214E+03  0.57917705704E+03  0.00000000000E+00 0. -1.
         -3    1    4    4    0  501 -0.19965361143E+02 -0.26933233381E+02 -0.78056141181E+02  0.84951609060E+02  0.00000000000E+00 0.  1.
          5    1    3    3  502    0  0.72617425190E+02 -0.88662710052E+02 -0.30475205306E+03  0.32562289606E+03  0.47000000000E+01 0. -1.
         13    1    6    6    0    0  0.27810841925E+02  0.65617056725E+02  0.98401428642E+01  0.71943515853E+02  0.00000000000E+00 0. -1.
        -14    1    6    6    0    0 -0.44105252744E+02  0.36057462654E+02  0.32172469218E+02  0.65425390394E+02  0.00000000000E+00 0.  1.
         -5    1    5    5    0  503 -0.40519160993E+02  0.51710367891E+02  0.17717244132E+03  0.18901832852E+03  0.47000000000E+01 0.  1.
<mgrwt>
<rscale>  2 0.24084766E+03</rscale>
<asrwt>0</asrwt>
<pdfrwt beam="1">  1       21 0.44199053E-01 0.24183990E+03</pdfrwt>
<pdfrwt beam="2">  1       21 0.15828384E+00 0.24183990E+03</pdfrwt>
<totfact> 0.12164129E+03</totfact>
</mgrwt>
</event>
<event>
12    1  0.1441827E-001  0.2220289E+03  0.7546771E-02  0.1132431E+00
         21   -1    0    0  504  503  0.00000000000E+00  0.00000000000E+00  0.26303989094E+03  0.26303989094E+03  0.00000000000E+00 0.  1.
         21   -1    0    0  502  504 -0.00000000000E+00 -0.00000000000E+00 -0.19821578392E+03  0.19821578392E+03  0.00000000000E+00 0.  1.
          6    2    1    2  502    0  0.47902606137E+00  0.13920014041E+03 -0.22034222840E+02  0.22284177350E+03  0.17261529621E+03 0.  0.
         24    2    3    3    0    0 -0.67330316238E+01  0.54762879730E+02 -0.74914068007E+02  0.12284160954E+03  0.80209954114E+02 0.  0.
         -6    2    1    2    0  503 -0.47902606137E+00 -0.13920014041E+03  0.86858329860E+02  0.23841390136E+03  0.17297372731E+03 0.  0.
        -24    2    5    5    0    0  0.56636606605E+02 -0.83718914925E+02  0.16945293016E+02  0.13234654259E+03  0.83737103219E+02 0.  0.
          4    1    4    4  501    0  0.27870395880E+02 -0.14473962844E+01 -0.38206917818E+02  0.47314083439E+02  0.00000000000E+00 0. -1.
         -3    1    4    4    0  501 -0.34603427504E+02  0.56210276015E+02 -0.36707150188E+02  0.75527526105E+02  0.00000000000E+00 0.  1.
          5    1    3    3  502    0  0.72120576852E+01  0.84437260680E+02  0.52879845167E+02  0.10000016396E+03  0.47000000000E+01 0. -1.
         11    1    6    6    0    0 -0.21258814242E+02 -0.28436655513E+02  0.10940230893E+01  0.35521506813E+02  0.00000000000E+00 0. -1.
        -12    1    6    6    0    0  0.77895420846E+02 -0.55282259412E+02  0.15851269927E+02  0.96825035775E+02  0.00000000000E+00 0.  1.
         -5    1    5    5    0  503 -0.57115632666E+02 -0.55481225485E+02  0.69913036844E+02  0.10606735877E+03  0.47000000000E+01 0.  1.
<mgrwt>
<rscale>  2 0.22195906E+03</rscale>
<asrwt>0</asrwt>
<pdfrwt beam="1">  1       21 0.40467676E-01 0.22202887E+03</pdfrwt>
<pdfrwt beam="2">  1       21 0.30494736E-01 0.22202887E+03</pdfrwt>
<totfact> 0.59930296E+04</totfact>
</mgrwt>
</event>
<event>
12    1  0.1441827E-001  0.2544952E+03  0.7546771E-02  0.1110733E+00
         21   -1    0    0  504  503  0.00000000000E+00  0.00000000000E+00  0.75804357198E+03  0.75804357198E+03  0.00000000000E+00 0. -1.
         21   -1    0    0  502  504 -0.00000000000E+00 -0.00000000000E+00 -0.11852329471E+03  0.11852329471E+03  0.00000000000E+00 0. -1.
          6    2    1    2  502    0  0.16490739264E+03 -0.82343925392E+02  0.87111520912E+02  0.26899114465E+03  0.17547891220E+03 0.  0.
         24    2    3    3    0    0  0.11574388832E+03  0.18424575344E+02  0.52150168172E+02  0.15145082355E+03  0.80508380020E+02 0.  0.
         -6    2    1    2    0  503 -0.16490739264E+03  0.82343925392E+02  0.55240875636E+03  0.60757572204E+03  0.17325661232E+03 0.  0.
        -24    2    5    5    0    0 -0.42403021168E+02  0.69217293952E+02  0.36607688882E+03  0.38414500717E+03  0.83462854167E+02 0.  0.
          4    1    4    4  501    0  0.10050325161E+03  0.32223611875E+02  0.11845579782E+02  0.10620537890E+03  0.00000000000E+00 0. -1.
         -3    1    4    4    0  501  0.15240636712E+02 -0.13799036531E+02  0.40304588390E+02  0.45245444653E+02  0.00000000000E+00 0.  1.
          5    1    3    3  502    0  0.49163504319E+02 -0.10076850074E+03  0.34961352740E+02  0.11754032109E+03  0.47000000000E+01 0. -1.
         13    1    6    6    0    0  0.10214254823E+02 -0.12486026979E+02  0.90707189833E+02  0.92130484416E+02  0.00000000000E+00 0. -1.
        -14    1    6    6    0    0 -0.52617275991E+02  0.81703320931E+02  0.27536969898E+03  0.29201452276E+03  0.00000000000E+00 0.  1.
         -5    1    5    5    0  503 -0.12250437148E+03  0.13126631440E+02  0.18633186754E+03  0.22343071487E+03  0.47000000000E+01 0.  1.
<mgrwt>
<rscale>  2 0.25411256E+03</rscale>
<asrwt>0</asrwt>
<pdfrwt beam="1">  1       21 0.11662208E+00 0.25449522E+03</pdfrwt>
<pdfrwt beam="2">  1       21 0.18234354E-01 0.25449522E+03</pdfrwt>
<totfact> 0.14963753E+04</totfact>
</mgrwt>
</event>
<event>
12    1  0.1441827E-001  0.2026180E+03  0.7546771E-02  0.1147834E+00
         21   -1    0    0  504  503  0.00000000000E+00  0.00000000000E+00  0.42226074560E+03  0.42226074560E+03  0.00000000000E+00 0. -1.
         21   -1    0    0  502  504 -0.00000000000E+00 -0.00000000000E+00 -0.97587313053E+02  0.97587313053E+02  0.00000000000E+00 0.  1.
          6    2    1    2  502    0 -0.10146022491E+03  0.23189670090E+02  0.18835089302E+03  0.27563937262E+03  0.17224710969E+03 0.  0.
         24    2    3    3    0    0 -0.25918594392E+02  0.64595566735E+02  0.66611748898E+02  0.12642980379E+03  0.81871908597E+02 0.  0.
         -6    2    1    2    0  503  0.10146022491E+03 -0.23189670090E+02  0.13632253953E+03  0.24420868604E+03  0.17384507331E+03 0.  0.
        -24    2    5    5    0    0  0.48263386954E+02 -0.40626889610E+02  0.15363708488E+03  0.18542226181E+03  0.82444906708E+02 0.  0.
          2    1    4    4  501    0 -0.39704225463E+02  0.57920050415E+02  0.79742837979E+02  0.10625477857E+03  0.00000000000E+00 0. -1.
         -1    1    4    4    0  501  0.13785631070E+02  0.66755163194E+01 -0.13131089081E+02  0.20175025219E+02  0.00000000000E+00 0.  1.
          5    1    3    3  502    0 -0.75541630519E+02 -0.41405896645E+02  0.12173914413E+03  0.14920956883E+03  0.47000000000E+01 0. -1.
         11    1    6    6    0    0  0.17373643060E+02  0.16667964143E+02  0.94364596906E+02  0.97387584687E+02  0.00000000000E+00 0. -1.
        -12    1    6    6    0    0  0.30889743894E+02 -0.57294853753E+02  0.59272487977E+02  0.88034677119E+02  0.00000000000E+00 0.  1.
         -5    1    5    5    0  503  0.53196837957E+02  0.17437219520E+02 -0.17314545356E+02  0.58786424233E+02  0.47000000000E+01 0.  1.
<mgrwt>
<rscale>  2 0.20227477E+03</rscale>
<asrwt>0</asrwt>
<pdfrwt beam="1">  1       21 0.64963190E-01 0.20261798E+03</pdfrwt>
<pdfrwt beam="2">  1       21 0.15013433E-01 0.20261798E+03</pdfrwt>
<totfact> 0.85098410E+04</totfact>
</mgrwt>
</event>
<event>
12    1  0.1441827E-001  0.2107019E+03  0.7546771E-02  0.1141504E+00
         21   -1    0    0  504  503  0.00000000000E+00  0.00000000000E+00  0.24328475338E+03  0.24328475338E+03  0.00000000000E+00 0.  1.
         21   -1    0    0  502  504 -0.00000000000E+00 -0.00000000000E+00 -0.67714242197E+03  0.67714242197E+03  0.00000000000E+00 0.  1.
          6    2    1    2  502    0  0.10160439107E+03  0.59351140118E+02 -0.61077987034E+03  0.64529670400E+03  0.17178409724E+03 0.  0.
         24    2    3    3    0    0  0.13536209625E+03  0.51971080743E+02 -0.55757834186E+03  0.58168427937E+03  0.80244022913E+02 0.  0.
         -6    2    1    2    0  503 -0.10160439107E+03 -0.59351140118E+02  0.17692220175E+03  0.27513047135E+03  0.17478358240E+03 0.  0.
        -24    2    5    5    0    0 -0.31036759254E+02  0.23970281212E+02  0.27810293061E+02  0.90255645524E+02  0.76385956447E+02 0.  0.
          4    1    4    4  501    0  0.60192239262E+02 -0.11468672480E+02 -0.29478059288E+03  0.30108177304E+03  0.00000000000E+00 0. -1.
         -3    1    4    4    0  501  0.75169856992E+02  0.63439753223E+02 -0.26279774898E+03  0.28060250633E+03  0.00000000000E+00 0.  1.
          5    1    3    3  502    0 -0.33757705181E+02  0.73800593756E+01 -0.53201528474E+02  0.63612424631E+02  0.47000000000E+01 0. -1.
         11    1    6    6    0    0  0.86380147951E+01  0.18827167932E+02 -0.19395618883E+02  0.28377237072E+02  0.00000000000E+00 0. -1.
        -12    1    6    6    0    0 -0.39674774049E+02  0.51431132798E+01  0.47205911944E+02  0.61878408452E+02  0.00000000000E+00 0.  1.
         -5    1    5    5    0  503 -0.70567631819E+02 -0.83321421331E+02  0.14911190869E+03  0.18487482583E+03  0.47000000000E+01 0.  1.
<mgrwt>
<rscale>  2 0.21007883E+03</rscale>
<asrwt>0</asrwt>
<pdfrwt beam="1">  1       21 0.37428424E-01 0.21070195E+03</pdfrwt>
<pdfrwt beam="2">  1       21 0.10417576E+00 0.21070195E+03</pdfrwt>
<totfact> 0.50542350E+03</totfact>
</mgrwt>
</event>
<event>
12    1  0.1441827E-001  0.2931488E+03  0.7546771E-02  0.1088803E+00
         21   -1    0    0  504  503  0.00000000000E+00  0.00000000000E+00  0.35661585788E+03  0.35661585788E+03  0.00000000000E+00 0. -1.
         21   -1    0    0  502  504 -0.00000000000E+00 -0.00000000000E+00 -0.25426899052E+03  0.25426899052E+03  0.00000000000E+00 0.  1.
          6    2    1    2  502    0  0.14175094781E+03  0.18848265823E+03  0.12249915882E+03  0.31771409882E+03  0.17411823861E+03 0.  0.
         24    2    3    3    0    0  0.83906654624E+02  0.18893575484E+03  0.13115992352E+03  0.25903474643E+03  0.84611040504E+02 0.  0.
         -6    2    1    2    0  503 -0.14175094781E+03 -0.18848265823E+03 -0.20152291465E+02  0.29317074958E+03  0.17298534591E+03 0.  0.
        -24    2    5    5    0    0 -0.11220263749E+03 -0.11605538628E+03 -0.77273817313E+02  0.19619770652E+03  0.80399083688E+02 0.  0.
          2    1    4    4  501    0  0.76168312932E+02  0.83962023472E+02  0.41351935143E+02  0.12066986293E+03  0.00000000000E+00 0. -1.
         -1    1    4    4    0  501  0.77383416918E+01  0.10497373137E+03  0.89807988382E+02  0.13836488350E+03  0.00000000000E+00 0.  1.
          5    1    3    3  502    0  0.57844293187E+02 -0.45309660843E+00 -0.86607647026E+01  0.58679352383E+02  0.47000000000E+01 0. -1.
         11    1    6    6    0    0 -0.32552474042E+02  0.27924483286E+01 -0.32991374159E+02  0.46431585185E+02  0.00000000000E+00 0. -1.
        -12    1    6    6    0    0 -0.79650163449E+02 -0.11884783461E+03 -0.44282443154E+02  0.14976612134E+03  0.00000000000E+00 0.  1.
         -5    1    5    5    0  503 -0.29548310320E+02 -0.72427271949E+02  0.57121525848E+02  0.96973043058E+02  0.47000000000E+01 0.  1.
<mgrwt>
<rscale>  2 0.29298076E+03</rscale>
<asrwt>0</asrwt>
<pdfrwt beam="1">  1       21 0.54863978E-01 0.29314878E+03</pdfrwt>
<pdfrwt beam="2">  1       21 0.39118306E-01 0.29314878E+03</pdfrwt>
<totfact> 0.18776488E+04</totfact>
</mgrwt>
</event>
<event>
12    1  0.1441827E-001  0.2132170E+03  0.7546771E-02  0.1140107E+00
         21   -1    0    0  504  503  0.00000000000E+00  0.00000000000E+00  0.93220572557E+03  0.93220572557E+03  0.00000000000E+00 0. -1.
         21   -1    0    0  502  504 -0.00000000000E+00 -0.00000000000E+00 -0.63352258735E+02  0.63352258735E+02  0.00000000000E+00 0.  1.
          6    2    1    2  502    0  0.94272398700E+02 -0.57545615004E+02  0.18156495660E+03  0.27595602207E+03  0.17603155878E+03 0.  0.
         24    2    3    3    0    0  0.26010742982E+01 -0.41076113925E+01  0.22110555999E+02  0.84365187683E+02  0.81270967433E+02 0.  0.
         -6    2    1    2    0  503 -0.94272398700E+02  0.57545615004E+02  0.68728851024E+03  0.71960196224E+03  0.18238065906E+03 0.  0.
        -24    2    5    5    0    0 -0.10984793505E+03  0.70886350400E+02  0.35373007670E+03  0.38538064165E+03  0.79384055649E+02 0.  0.
          2    1    4    4  501    0  0.37988306831E+02 -0.18833611345E+02  0.17063427990E+02  0.45705327336E+02  0.00000000000E+00 0. -1.
         -1    1    4    4    0  501 -0.35387232532E+02  0.14725999953E+02  0.50471280088E+01  0.38659860347E+02  0.00000000000E+00 0.  1.
          5    1    3    3  502    0  0.91671324401E+02 -0.53438003612E+02  0.15945440060E+03  0.19159083438E+03  0.47000000000E+01 0. -1.
         13    1    6    6    0    0 -0.39784876736E+02  0.70775093541E+02  0.21811870698E+03  0.23273959830E+03  0.00000000000E+00 0. -1.
        -14    1    6    6    0    0 -0.70063058313E+02  0.11125685828E+00  0.13561136972E+03  0.15264104335E+03  0.00000000000E+00 0.  1.
         -5    1    5    5    0  503  0.15575536349E+02 -0.13340735395E+02  0.33355843354E+03  0.33422132059E+03  0.47000000000E+01 0.  1.
<mgrwt>
<rscale>  2 0.21185275E+03</rscale>
<asrwt>0</asrwt>
<pdfrwt beam="1">  1       21 0.14341626E+00 0.21321700E+03</pdfrwt>
<pdfrwt beam="2">  1       21 0.97465020E-02 0.21321700E+03</pdfrwt>
<totfact> 0.28183054E+04</totfact>
</mgrwt>
</event>
<event>
12    1  0.1441827E-001  0.2253079E+03  0.7546771E-02  0.1130575E+00
         21   -1    0    0  504  503  0.00000000000E+00  0.00000000000E+00  0.10033888253E+03  0.10033888253E+03  0.00000000000E+00 0. -1.
         21   -1    0    0  502  504 -0.00000000000E+00 -0.00000000000E+00 -0.66990254124E+03  0.66990254124E+03  0.00000000000E+00 0.  1.
          6    2    1    2  502    0 -0.94362574094E+02 -0.10107030841E+03 -0.48100291152E+03  0.53115672737E+03  0.17788807018E+03 0.  0.
         24    2    3    3    0    0  0.13795174746E+02 -0.61482216348E+02 -0.15135968264E+03  0.18194037035E+03  0.78880764829E+02 0.  0.
         -6    2    1    2    0  503  0.94362574094E+02  0.10107030841E+03 -0.88560747183E+02  0.23908469639E+03  0.17377854723E+03 0.  0.
        -24    2    5    5    0    0  0.10671910327E+03  0.13177964432E+03 -0.62334317334E+02  0.19659160580E+03  0.77510326369E+02 0.  0.
          4    1    4    4  501    0  0.10808164026E+02  0.41838106346E+01  0.47733175853E+01  0.12534162988E+02  0.00000000000E+00 0. -1.
         -3    1    4    4    0  501  0.29870107206E+01 -0.65666026983E+02 -0.15613300023E+03  0.16940620736E+03  0.00000000000E+00 0.  1.
          5    1    3    3  502    0 -0.10815774884E+03 -0.39588092058E+02 -0.32964322888E+03  0.34921635702E+03  0.47000000000E+01 0. -1.
         13    1    6    6    0    0  0.87556833175E+02  0.12536874188E+03 -0.26134143628E+02  0.15513385813E+03  0.00000000000E+00 0. -1.
        -14    1    6    6    0    0  0.19162270091E+02  0.64109024418E+01 -0.36200173707E+02  0.41457747666E+02  0.00000000000E+00 0.  1.
         -5    1    5    5    0  503 -0.12356529172E+02 -0.30709335916E+02 -0.26226429849E+02  0.42493090594E+02  0.47000000000E+01 0.  1.
<mgrwt>
<rscale>  2 0.22449599E+03</rscale>
<asrwt>0</asrwt>
<pdfrwt beam="1">  1       21 0.15436751E-01 0.22530794E+03</pdfrwt>
<pdfrwt beam="2">  1       21 0.10306193E+00 0.22530794E+03</pdfrwt>
<totfact> 0.27925914E+04</totfact>
</mgrwt>
</event>
<event>
12    1  0.1441827E-001  0.2055925E+03  0.7546771E-02  0.1145583E+00
         21   -1    0    0  504  503  0.00000000000E+00  0.00000000000E+00  0.72006026968E+02  0.72006026968E+02  0.00000000000E+00 0.  1.
         21   -1    0    0  502  504 -0.00000000000E+00 -0.00000000000E+00 -0.59247884414E+03  0.59247884414E+03  0.00000000000E+00 0.  1.
          6    2    1    2  502    0  0.98108578777E+02 -0.50051493298E+02 -0.30629418258E+03  0.36759974857E+03  0.17083033587E+03 0.  0.
         24    2    3    3    0    0  0.50530212951E+02  0.19845790948E+02 -0.24267025126E+03  0.26167795724E+03  0.81482173656E+02 0.  0.
         -6    2    1    2    0  503 -0.98108578777E+02  0.50051493298E+02 -0.21417863460E+03  0.29688512255E+03  0.17360254393E+03 0.  0.
        -24    2    5    5    0    0 -0.85382120790E+02  0.85495251684E+02 -0.99380482961E+02  0.17597636207E+03  0.80570807378E+02 0.  0.
          2    1    4    4  501    0  0.10640907709E+02  0.43625829732E+02 -0.16666192993E+03  0.17260544842E+03  0.00000000000E+00 0. -1.
         -1    1    4    4    0  501  0.39889305242E+02 -0.23780038784E+02 -0.76008321325E+02  0.89072508822E+02  0.00000000000E+00 0.  1.
          5    1    3    3  502    0  0.47578365826E+02 -0.69897284246E+02 -0.63623931322E+02  0.10592179132E+03  0.47000000000E+01 0. -1.
         11    1    6    6    0    0  0.12913905105E+02 -0.78747115417E+00 -0.24179484925E+01  0.13161896930E+02  0.00000000000E+00 0. -1.
        -12    1    6    6    0    0 -0.98296025896E+02  0.86282722838E+02 -0.96962534468E+02  0.16281446514E+03  0.00000000000E+00 0.  1.
         -5    1    5    5    0  503 -0.12726457987E+02 -0.35443758386E+02 -0.11479815164E+03  0.12090876048E+03  0.47000000000E+01 0.  1.
<mgrwt>
<rscale>  2 0.20500617E+03</rscale>
<asrwt>0</asrwt>
<pdfrwt beam="1">  1       21 0.11077850E-01 0.20559253E+03</pdfrwt>
<pdfrwt beam="2">  1       21 0.91150592E-01 0.20559253E+03</pdfrwt>
<totfact> 0.68622426E+04</totfact>
</mgrwt>
</event>
<event>
12    1  0.1441827E-001  0.2471102E+03  0.7546771E-02  0.1115182E+00
         21   -1    0    0  504  503  0.00000000000E+00  0.00000000000E+00  0.45233696527E+03  0.45233696527E+03  0.00000000000E+00 0.  1.
         21   -1    0    0  502  504 -0.00000000000E+00 -0.00000000000E+00 -0.24668150927E+03  0.24668150927E+03  0.00000000000E+00 0. -1.
          6    2    1    2  502    0 -0.14338313583E+03 -0.10514981331E+03 -0.13250679735E+03  0.28019014453E+03  0.17126955032E+03 0.  0.
         24    2    3    3    0    0 -0.30254807547E+02 -0.72083883590E+02 -0.11158782387E+03  0.16039420211E+03  0.84634614561E+02 0.  0.
         -6    2    1    2    0  503  0.14338313583E+03  0.10514981331E+03  0.33816225335E+03  0.41882833002E+03  0.17160493453E+03 0.  0.
        -24    2    5    5    0    0  0.30963344254E+02  0.99629507999E+02  0.15101511309E+03  0.20039109552E+03  0.80413053858E+02 0.  0.
          4    1    4    4  501    0 -0.27652884556E+01 -0.52716283184E+02 -0.11505672406E+03  0.12658871626E+03  0.00000000000E+00 0. -1.
         -3    1    4    4    0  501 -0.27489519091E+02 -0.19367600406E+02  0.34689001865E+01  0.33805485855E+02  0.00000000000E+00 0.  1.
          5    1    3    3  502    0 -0.11312832828E+03 -0.33065929725E+02 -0.20918973480E+02  0.11979594241E+03  0.47000000000E+01 0. -1.
         13    1    6    6    0    0 -0.19192456662E+02  0.24773572232E+02  0.79177408842E+02  0.85153639645E+02  0.00000000000E+00 0. -1.
        -14    1    6    6    0    0  0.50155800916E+02  0.74855935766E+02  0.71837704248E+02  0.11523745588E+03  0.00000000000E+00 0.  1.
         -5    1    5    5    0  503  0.11241979157E+03  0.55203053157E+01  0.18714714026E+03  0.21843723450E+03  0.47000000000E+01 0.  1.
<mgrwt>
<rscale>  2 0.24705200E+03</rscale>
<asrwt>0</asrwt>
<pdfrwt beam="1">  1       21 0.69590302E-01 0.24711022E+03</pdfrwt>
<pdfrwt beam="2">  1       21 0.37951002E-01 0.24711022E+03</pdfrwt>
<totfact> 0.12159888E+04</totfact>
</mgrwt>
</event>
<event>
12    1  0.1441827E-001  0.3047115E+03  0.7546771E-02  0.1082994E+00
         21   -1    0    0  504  503  0.00000000000E+00  0.00000000000E+00  0.11171750206E+03  0.11171750206E+03  0.00000000000E+00 0.  1.
         21   -1    0    0  502  504 -0.00000000000E+00 -0.00000000000E+00 -0.97124588715E+03  0.97124588715E+03  0.00000000000E+00 0. -1.
          6    2    1    2  502    0 -0.24936022521E+03 -0.20816659483E+02 -0.63641488803E+03  0.70530120996E+03  0.17266161078E+03 0.  0.
         24    2    3    3    0    0 -0.10807937521E+03  0.54650791806E+02 -0.30379873483E+03  0.33609772928E+03  0.77460647747E+02 0.  0.
         -6    2    1    2    0  503  0.24936022521E+03  0.20816659483E+02 -0.22311349706E+03  0.37766217924E+03  0.17388281639E+03 0.  0.
        -24    2    5    5    0    0  0.19322620976E+03  0.78951745979E+02 -0.15796447859E+03  0.27375260038E+03  0.80112192515E+02 0.  0.
          4    1    4    4  501    0 -0.32382195928E+02  0.23992816725E+02 -0.20000602001E+03  0.20402615006E+03  0.00000000000E+00 0. -1.
         -3    1    4    4    0  501 -0.75697179283E+02  0.30657975080E+02 -0.10379271482E+03  0.13207157922E+03  0.00000000000E+00 0.  1.
          5    1    3    3  502    0 -0.14128084999E+03 -0.75467451288E+02 -0.33261615320E+03  0.36920348068E+03  0.47000000000E+01 0. -1.
         11    1    6    6    0    0  0.54911405846E+02  0.38899504498E+02 -0.95412458559E+02  0.11675603278E+03  0.00000000000E+00 0. -1.
        -12    1    6    6    0    0  0.13831480391E+03  0.40052241481E+02 -0.62552020027E+02  0.15699656760E+03  0.00000000000E+00 0.  1.
         -5    1    5    5    0  503  0.56134015446E+02 -0.58135086496E+02 -0.65149018470E+02  0.10390957886E+03  0.47000000000E+01 0.  1.
<mgrwt>
<rscale>  2 0.30453753E+03</rscale>
<asrwt>0</asrwt>
<pdfrwt beam="1">  1       21 0.17187308E-01 0.30471148E+03</pdfrwt>
<pdfrwt beam="2">  1       21 0.14942245E+00 0.30471148E+03</pdfrwt>
<totfact> 0.86074475E+03</totfact>
</mgrwt>
</event>
<event>
12    1  0.1441827E-001  0.2608348E+03  0.7546771E-02  0.1106813E+00
         21   -1    0    0  504  503  0.00000000000E+00  0.00000000000E+00  0.85382257175E+03  0.85382257175E+03  0.00000000000E+00 0. -1.
         21   -1    0    0  502  504 -0.00000000000E+00 -0.00000000000E+00 -0.12385857782E+03  0.12385857782E+03  0.00000000000E+00 0. -1.
          6    2    1    2  502    0 -0.37826572846E+02 -0.19055015485E+03  0.71383809844E+02  0.26932907179E+03  0.17234352172E+03 0.  0.
         24    2    3    3    0    0 -0.27801634144E+01 -0.37707372996E+02  0.69183940296E+02  0.11243389594E+03  0.80158518418E+02 0.  0.
         -6    2    1    2    0  503  0.37826572846E+02  0.19055015485E+03  0.65858018409E+03  0.70835207777E+03  0.17405342881E+03 0.  0.
        -24    2    5    5    0    0  0.88558266675E+02  0.94152982073E+02  0.37972393605E+03  0.40893762130E+03  0.79576126254E+02 0.  0.
          4    1    4    4  501    0 -0.22404818220E+02 -0.40448572234E+02  0.65014954437E+01  0.46694028721E+02  0.00000000000E+00 0. -1.
         -3    1    4    4    0  501  0.19624654806E+02  0.27411992380E+01  0.62682444852E+02  0.65739867220E+02  0.00000000000E+00 0.  1.
          5    1    3    3  502    0 -0.35046409431E+02 -0.15284278186E+03  0.21998695479E+01  0.15689517585E+03  0.47000000000E+01 0. -1.
         13    1    6    6    0    0  0.30147125852E+02  0.75418416510E+02  0.28280839330E+03  0.29424033386E+03  0.00000000000E+00 0. -1.
        -14    1    6    6    0    0  0.58411140823E+02  0.18734565563E+02  0.96915542751E+02  0.11469728744E+03  0.00000000000E+00 0.  1.
         -5    1    5    5    0  503 -0.50731693829E+02  0.96397172779E+02  0.27885624804E+03  0.29941445648E+03  0.47000000000E+01 0.  1.
<mgrwt>
<rscale>  2 0.26054989E+03</rscale>
<asrwt>0</asrwt>
<pdfrwt beam="1">  1       21 0.13135731E+00 0.26083483E+03</pdfrwt>
<pdfrwt beam="2">  1       21 0.19055166E-01 0.26083483E+03</pdfrwt>
<totfact> 0.10178557E+04</totfact>
</mgrwt>
</event>
<event>
12    1  0.1441827E-001  0.1765278E+03  0.7546771E-02  0.1171271E+00
         21   -1    0    0  504  503  0.00000000000E+00  0.00000000000E+00  0.74019452665E+02  0.74019452665E+02  0.00000000000E+00 0.  1.
         21   -1    0    0  502  504 -0.00000000000E+00 -0.00000000000E+00 -0.47372068061E+03  0.47372068061E+03  0.00000000000E+00 0.  1.
          6    2    1    2  502    0 -0.13145612185E+02 -0.32451347857E+02 -0.29161834289E+03  0.34075228511E+03  0.17275695297E+03 0.  0.
         24    2    3    3    0    0  0.45360927876E+02  0.19820889751E+02 -0.18840844686E+03  0.21102266361E+03  0.81131623069E+02 0.  0.
         -6    2    1    2    0  503  0.13145612185E+02  0.32451347857E+02 -0.10808288506E+03  0.20698784817E+03  0.17302069862E+03 0.  0.
        -24    2    5    5    0    0 -0.95967993565E+00 -0.46099019787E+02 -0.79993043652E+02  0.12225149993E+03  0.80128032499E+02 0.  0.
          4    1    4    4  501    0 -0.18156594020E+02  0.23215097148E+02 -0.41167121897E+02  0.50629384425E+02  0.00000000000E+00 0. -1.
         -3    1    4    4    0  501  0.63517521897E+02 -0.33942073966E+01 -0.14724132496E+03  0.16039327919E+03  0.00000000000E+00 0.  1.
          5    1    3    3  502    0 -0.58506540062E+02 -0.52272237608E+02 -0.10320989603E+03  0.12972962150E+03  0.47000000000E+01 0. -1.
         13    1    6    6    0    0 -0.31804985823E+02 -0.40124938421E+01 -0.74839350663E+01  0.32919090420E+02  0.00000000000E+00 0. -1.
        -14    1    6    6    0    0  0.30845305887E+02 -0.42086525945E+02 -0.72509108585E+02  0.89332409512E+02  0.00000000000E+00 0.  1.
         -5    1    5    5    0  503  0.14105292121E+02  0.78550367644E+02 -0.28089841408E+02  0.84736348240E+02  0.47000000000E+01 0.  1.
<mgrwt>
<rscale>  2 0.17646313E+03</rscale>
<asrwt>0</asrwt>
<pdfrwt beam="1">  1       21 0.11387608E-01 0.17652779E+03</pdfrwt>
<pdfrwt beam="2">  1       21 0.72880106E-01 0.17652779E+03</pdfrwt>
<totfact> 0.10987349E+05</totfact>
</mgrwt>
</event>
<event>
12    1  0.1441827E-001  0.4039081E+03  0.7546771E-02  0.1042454E+00
         21   -1    0    0  504  503  0.00000000000E+00  0.00000000000E+00  0.30610990121E+03  0.30610990121E+03  0.00000000000E+00 0.  1.
         21   -1    0    0  502  504 -0.00000000000E+00 -0.00000000000E+00 -0.10665065347E+04  0.10665065347E+04  0.00000000000E+00 0. -1.
          6    2    1    2  502    0  0.35085672596E+03  0.10080144784E+03 -0.86581464566E+03  0.95539349033E+03  0.17285932631E+03 0.  0.
         24    2    3    3    0    0  0.78959202003E+02  0.58084530478E+02 -0.23403479192E+03  0.26624846049E+03  0.80669638793E+02 0.  0.
         -6    2    1    2    0  503 -0.35085672596E+03 -0.10080144784E+03  0.10541801220E+03  0.41722294554E+03  0.17233877959E+03 0.  0.
        -24    2    5    5    0    0 -0.15706127472E+03 -0.11224905055E+03  0.56149000533E+02  0.21688011427E+03  0.81339906193E+02 0.  0.
          4    1    4    4  501    0  0.78295064094E+02  0.48436999424E+02 -0.11730995397E+03  0.14912372473E+03  0.00000000000E+00 0. -1.
         -3    1    4    4    0  501  0.66413790875E+00  0.96475310537E+01 -0.11672483794E+03  0.11712473576E+03  0.00000000000E+00 0.  1.
          5    1    3    3  502    0  0.27189752395E+03  0.42716917360E+02 -0.63177985374E+03  0.68914502984E+03  0.47000000000E+01 0. -1.
         13    1    6    6    0    0 -0.24511761151E+02 -0.63334676297E+02  0.23563321340E+02  0.71884196935E+02  0.00000000000E+00 0. -1.
        -14    1    6    6    0    0 -0.13254951357E+03 -0.48914374255E+02  0.32585679193E+02  0.14499591734E+03  0.00000000000E+00 0.  1.
         -5    1    5    5    0  503 -0.19379545124E+03  0.11447602714E+02  0.49269011672E+02  0.20034283127E+03  0.47000000000E+01 0.  1.
<mgrwt>
<rscale>  2 0.40385242E+03</rscale>
<asrwt>0</asrwt>
<pdfrwt beam="1">  1       21 0.47093831E-01 0.40390806E+03</pdfrwt>
<pdfrwt beam="2">  1       21 0.16407793E+00 0.40390806E+03</pdfrwt>
<totfact> 0.87024824E+02</totfact>
</mgrwt>
</event>
<event>
12    1  0.1441827E-001  0.1805935E+03  0.7546771E-02  0.1167320E+00
         21   -1    0    0  504  503  0.00000000000E+00  0.00000000000E+00  0.43057855202E+02  0.43057855202E+02  0.00000000000E+00 0.  1.
         21   -1    0    0  502  504 -0.00000000000E+00 -0.00000000000E+00 -0.85825131607E+03  0.85825131607E+03  0.00000000000E+00 0.  1.
          6    2    1    2  502    0  0.41197256309E+02 -0.22171180396E+02 -0.56287085377E+03  0.59101784885E+03  0.17403943366E+03 0.  0.
         24    2    3    3    0    0 -0.38480094343E+02  0.15263768919E+02 -0.32649828146E+03  0.33874034574E+03  0.80188488767E+02 0.  0.
         -6    2    1    2    0  503 -0.41197256309E+02  0.22171180396E+02 -0.25232260710E+03  0.31029132242E+03  0.17442829917E+03 0.  0.
        -24    2    5    5    0    0  0.12180698105E+02 -0.19754402661E+02 -0.21942471998E+03  0.23471803674E+03  0.80042133916E+02 0.  0.
          4    1    4    4  501    0 -0.54855626195E+02 -0.12610163592E+02 -0.23669228599E+03  0.24329281575E+03  0.00000000000E+00 0. -1.
         -3    1    4    4    0  501  0.16375531852E+02  0.27873932511E+02 -0.89805995476E+02  0.95447529986E+02  0.00000000000E+00 0.  1.
          5    1    3    3  502    0  0.79677350652E+02 -0.37434949315E+02 -0.23637257230E+03  0.25227750311E+03  0.47000000000E+01 0. -1.
         13    1    6    6    0    0  0.21628575062E+02  0.16203453752E+02 -0.25147246049E+02  0.36915188697E+02  0.00000000000E+00 0. -1.
        -14    1    6    6    0    0 -0.94478769571E+01 -0.35957856412E+02 -0.19427747393E+03  0.19780284804E+03  0.00000000000E+00 0.  1.
         -5    1    5    5    0  503 -0.53377954414E+02  0.41925583057E+02 -0.32897887119E+02  0.75573285683E+02  0.47000000000E+01 0.  1.
<mgrwt>
<rscale>  2 0.18049952E+03</rscale>
<asrwt>0</asrwt>
<pdfrwt beam="1">  1       21 0.66242861E-02 0.18059348E+03</pdfrwt>
<pdfrwt beam="2">  1       21 0.13203865E+00 0.18059348E+03</pdfrwt>
<totfact> 0.69550458E+04</totfact>
</mgrwt>
</event>
<event>
12    1  0.1441827E-001  0.1956964E+03  0.7546771E-02  0.1154107E+00
         21   -1    0    0  504  503  0.00000000000E+00  0.00000000000E+00  0.57031416319E+03  0.57031416319E+03  0.00000000000E+00 0. -1.
         21   -1    0    0  502  504 -0.00000000000E+00 -0.00000000000E+00 -0.67019302778E+02  0.67019302778E+02  0.00000000000E+00 0. -1.
          6    2    1    2  502    0  0.47648083649E+01 -0.88745235797E+02  0.29136135514E+03  0.35098223031E+03  0.17435213348E+03 0.  0.
         24    2    3    3    0    0 -0.30062085505E+02  0.11147588721E+02  0.10216988381E+03  0.13417127175E+03  0.80840876334E+02 0.  0.
         -6    2    1    2    0  503 -0.47648083649E+01  0.88745235797E+02  0.21193350528E+03  0.28635123566E+03  0.17082973755E+03 0.  0.
        -24    2    5    5    0    0 -0.65738916304E+02  0.32208820987E+02  0.11784587521E+03  0.16069782277E+03  0.81099486282E+02 0.  0.
          2    1    4    4  501    0  0.27513538502E+02  0.48287812970E+01  0.43731111872E+02  0.51891445107E+02  0.00000000000E+00 0. -1.
         -1    1    4    4    0  501 -0.57575624007E+02  0.63188074244E+01  0.58438771938E+02  0.82279826645E+02  0.00000000000E+00 0.  1.
          5    1    3    3  502    0  0.34826893870E+02 -0.99892824518E+02  0.18919147133E+03  0.21681095856E+03  0.47000000000E+01 0. -1.
         13    1    6    6    0    0 -0.30143845217E+02  0.40606115558E+01  0.11064583119E+03  0.11475033738E+03  0.00000000000E+00 0. -1.
        -14    1    6    6    0    0 -0.35595071087E+02  0.28148209431E+02  0.72000440195E+01  0.45947485391E+02  0.00000000000E+00 0.  1.
         -5    1    5    5    0  503  0.60974107939E+02  0.56536414809E+02  0.94087630072E+02  0.12565341289E+03  0.47000000000E+01 0.  1.
<mgrwt>
<rscale>  2 0.19490878E+03</rscale>
<asrwt>0</asrwt>
<pdfrwt beam="1">  1       21 0.87740637E-01 0.19569641E+03</pdfrwt>
<pdfrwt beam="2">  1       21 0.10310662E-01 0.19569641E+03</pdfrwt>
<totfact> 0.85529499E+04</totfact>
</mgrwt>
</event>
<event>
12    1  0.1441827E-001  0.2017308E+03  0.7546771E-02  0.1148361E+00
         21   -1    0    0  504  503  0.00000000000E+00  0.00000000000E+00  0.64669905520E+03  0.64669905520E+03  0.00000000000E+00 0.  1.
         21   -1    0    0  502  504 -0.00000000000E+00 -0.00000000000E+00 -0.17285498839E+03  0.17285498839E+03  0.00000000000E+00 0.  1.
          6    2    1    2  502    0  0.99436435970E+02 -0.42154745050E+02 -0.90100963021E+02  0.22061389738E+03  0.16996376334E+03 0.  0.
         24    2    3    3    0    0  0.12067734495E+03 -0.16290460847E+02 -0.10844537575E+03  0.18215944523E+03  0.81198911733E+02 0.  0.
         -6    2    1    2    0  503 -0.99436435970E+02  0.42154745050E+02  0.56394502984E+03  0.59894014622E+03  0.17038390400E+03 0.  0.
        -24    2    5    5    0    0 -0.90303010387E+02 -0.33037289498E+02  0.37304007256E+03  0.39350389276E+03  0.80251614922E+02 0.  0.
          4    1    4    4  501    0  0.59621981992E+02 -0.48929945906E+02 -0.57160841833E+02  0.96001469687E+02  0.00000000000E+00 0. -1.
         -3    1    4    4    0  501  0.61055362954E+02  0.32639485059E+02 -0.51284533920E+02  0.86157975543E+02  0.00000000000E+00 0.  1.
          5    1    3    3  502    0 -0.21240908975E+02 -0.25864284202E+02  0.18344412732E+02  0.38454452147E+02  0.47000000000E+01 0. -1.
         13    1    6    6    0    0  0.12259843477E+02 -0.48015164598E+01  0.93217905789E+02  0.94143169068E+02  0.00000000000E+00 0. -1.
        -14    1    6    6    0    0 -0.10256285386E+03 -0.28235773038E+02  0.27982216678E+03  0.29936072369E+03  0.00000000000E+00 0.  1.
         -5    1    5    5    0  503 -0.91334255827E+01  0.75192034548E+02  0.19090495727E+03  0.20543625345E+03  0.47000000000E+01 0.  1.
<mgrwt>
<rscale>  2 0.20164203E+03</rscale>
<asrwt>0</asrwt>
<pdfrwt beam="1">  1       21 0.99492162E-01 0.20173077E+03</pdfrwt>
<pdfrwt beam="2">  1       21 0.26593075E-01 0.20173077E+03</pdfrwt>
<totfact> 0.11111278E+04</totfact>
</mgrwt>
</event>
<event>
12    1  0.1441827E-001  0.1860888E+03  0.7546771E-02  0.1162319E+00
         21   -1    0    0  504  503  0.00000000000E+00  0.00000000000E+00  0.16181884959E+04  0.16181884959E+04  0.00000000000E+00 0. -1.
         21   -1    0    0  502  504 -0.00000000000E+00 -0.00000000000E+00 -0.24782944012E+02  0.24782944012E+02  0.00000000000E+00 0. -1.
          6    2    1    2  502    0  0.63995783322E+02  0.73457351512E+01  0.48924644068E+03  0.52344160582E+03  0.17458411977E+03 0.  0.
         24    2    3    3    0    0  0.10566918267E+03  0.11701260237E+02  0.42907708130E+03  0.44996994720E+03  0.84041156765E+02 0.  0.
         -6    2    1    2    0  503 -0.63995783322E+02 -0.73457351512E+01  0.11041591112E+04  0.11195298341E+04  0.17329248816E+03 0.  0.
        -24    2    5    5    0    0  0.24767484627E+02 -0.35450750786E+02  0.60041840793E+03  0.60723539163E+03  0.79764479806E+02 0.  0.
          2    1    4    4  501    0  0.16315737859E+02 -0.25882560267E+02  0.18207015124E+03  0.18462299478E+03  0.00000000000E+00 0. -1.
         -1    1    4    4    0  501  0.89353444810E+02  0.37583820504E+02  0.24700693006E+03  0.26534695242E+03  0.00000000000E+00 0.  1.
          5    1    3    3  502    0 -0.41673399347E+02 -0.43555250860E+01  0.60169359379E+02  0.73471658618E+02  0.47000000000E+01 0. -1.
         11    1    6    6    0    0 -0.21048822440E+02 -0.28026377350E+02  0.39908681880E+03  0.40062303939E+03  0.00000000000E+00 0. -1.
        -12    1    6    6    0    0  0.45816307066E+02 -0.74243734353E+01  0.20133158913E+03  0.20661235223E+03  0.00000000000E+00 0.  1.
         -5    1    5    5    0  503 -0.88763267948E+02  0.28105015635E+02  0.50374070330E+03  0.51229444249E+03  0.47000000000E+01 0.  1.
<mgrwt>
<rscale>  2 0.18578523E+03</rscale>
<asrwt>0</asrwt>
<pdfrwt beam="1">  1       21 0.24895199E+00 0.18608878E+03</pdfrwt>
<pdfrwt beam="2">  1       21 0.38127619E-02 0.18608878E+03</pdfrwt>
<totfact> 0.28795573E+04</totfact>
</mgrwt>
</event>
<event>
12    1  0.1441827E-001  0.2016655E+03  0.7546771E-02  0.1149355E+00
         21   -1    0    0  504  503  0.00000000000E+00  0.00000000000E+00  0.90005560634E+02  0.90005560634E+02  0.00000000000E+00 0. -1.
         21   -1    0    0  502  504 -0.00000000000E+00 -0.00000000000E+00 -0.50675871665E+03  0.50675871665E+03  0.00000000000E+00 0. -1.
          6    2    1    2  502    0 -0.92817630425E+02  0.24879512777E+02 -0.31789596360E+03  0.37646621127E+03  0.17729879265E+03 0.  0.
         24    2    3    3    0    0 -0.84227918837E+02  0.73981459419E+02 -0.28516913038E+03  0.31665049492E+03  0.79865539261E+02 0.  0.
         -6    2    1    2    0  503  0.92817630425E+02 -0.24879512777E+02 -0.98857192412E+02  0.22029806602E+03  0.17182662985E+03 0.  0.
        -24    2    5    5    0    0  0.46562119115E+01 -0.59229205635E+02 -0.67584519618E+02  0.12053631394E+03  0.80196986083E+02 0.  0.
          2    1    4    4  501    0 -0.95891104409E+02  0.52125260526E+02 -0.19869462285E+03  0.22669737502E+03  0.00000000000E+00 0. -1.
         -1    1    4    4    0  501  0.11663185572E+02  0.21856198893E+02 -0.86474507528E+02  0.89953119901E+02  0.00000000000E+00 0.  1.
          5    1    3    3  502    0 -0.85897115884E+01 -0.49101946642E+02 -0.32726833221E+02  0.59815716345E+02  0.47000000000E+01 0. -1.
         13    1    6    6    0    0  0.37938626946E+02 -0.34057555198E+02 -0.14482514638E+02  0.52999997272E+02  0.00000000000E+00 0. -1.
        -14    1    6    6    0    0 -0.33282415034E+02 -0.25171650437E+02 -0.53102004980E+02  0.67536316668E+02  0.00000000000E+00 0.  1.
         -5    1    5    5    0  503  0.88161418514E+02  0.34349692858E+02 -0.31272672795E+02  0.99761752077E+02  0.47000000000E+01 0.  1.
<mgrwt>
<rscale>  2 0.20045622E+03</rscale>
<asrwt>0</asrwt>
<pdfrwt beam="1">  1       21 0.13847009E-01 0.20166548E+03</pdfrwt>
<pdfrwt beam="2">  1       21 0.77962881E-01 0.20166548E+03</pdfrwt>
<totfact> 0.65840379E+04</totfact>
</mgrwt>
</event>
<event>
12    1  0.1441827E-001  0.1958270E+03  0.7546771E-02  0.1153339E+00
         21   -1    0    0  504  503  0.00000000000E+00  0.00000000000E+00  0.47347633660E+03  0.47347633660E+03  0.00000000000E+00 0. -1.
         21   -1    0    0  502  504 -0.00000000000E+00 -0.00000000000E+00 -0.80936354776E+02  0.80936354776E+02  0.00000000000E+00 0.  1.
          6    2    1    2  502    0  0.76645456805E+02  0.47128208367E+02  0.19727554383E+03  0.27786897576E+03  0.17377552596E+03 0.  0.
         24    2    3    3    0    0  0.15886457330E+02 -0.30976011391E+02  0.62902942665E+02  0.11092583842E+03  0.84474070726E+02 0.  0.
         -6    2    1    2    0  503 -0.76645456805E+02 -0.47128208367E+02  0.19526443799E+03  0.27654371561E+03  0.17393283712E+03 0.  0.
        -24    2    5    5    0    0 -0.66403030755E+02  0.75719384036E+01  0.19600419179E+03  0.22068988330E+03  0.76286857637E+02 0.  0.
          4    1    4    4  501    0 -0.19552304119E+02 -0.26769600362E+02 -0.56615649797E+01  0.33629710345E+02  0.00000000000E+00 0. -1.
         -3    1    4    4    0  501  0.35438761448E+02 -0.42064110287E+01  0.68564507645E+02  0.77296128074E+02  0.00000000000E+00 0.  1.
          5    1    3    3  502    0  0.60758999475E+02  0.78104219758E+02  0.13437260117E+03  0.16694313734E+03  0.47000000000E+01 0. -1.
         11    1    6    6    0    0 -0.72517441764E+02 -0.10790424540E+02  0.18361331344E+03  0.19770953820E+03  0.00000000000E+00 0. -1.
        -12    1    6    6    0    0  0.61144110098E+01  0.18362362943E+02  0.12390878350E+02  0.22980345105E+02  0.00000000000E+00 0.  1.
         -5    1    5    5    0  503 -0.10242426050E+02 -0.54700146771E+02 -0.73975379736E+00  0.55853832311E+02  0.47000000000E+01 0.  1.
<mgrwt>
<rscale>  2 0.19579209E+03</rscale>
<asrwt>0</asrwt>
<pdfrwt beam="1">  1       21 0.72842511E-01 0.19582703E+03</pdfrwt>
<pdfrwt beam="2">  1       21 0.12451747E-01 0.19582703E+03</pdfrwt>
<totfact> 0.93065415E+04</totfact>
</mgrwt>
</event>
<event>
12    1  0.1441827E-001  0.2243789E+03  0.7546771E-02  0.1132030E+00
         21   -1    0    0  504  503  0.00000000000E+00  0.00000000000E+00  0.57563639750E+02  0.57563639750E+02  0.00000000000E+00 0.  1.
         21   -1    0    0  502  504 -0.00000000000E+00 -0.00000000000E+00 -0.17991038422E+04  0.17991038422E+04  0.00000000000E+00 0.  1.
          6    2    1    2  502    0 -0.83318567042E+02  0.10467301479E+03 -0.15532898968E+04  0.15694124373E+04  0.18013181617E+03 0.  0.
         24    2    3    3    0    0 -0.92963131696E+02  0.13506867008E+03 -0.14279554659E+04  0.14399994431E+04  0.87497966549E+02 0.  0.
         -6    2    1    2    0  503  0.83318567042E+02 -0.10467301479E+03 -0.18825030564E+03  0.28725504464E+03  0.17081820588E+03 0.  0.
        -24    2    5    5    0    0  0.11493687815E+03 -0.11397458990E+03 -0.14522500420E+03  0.23285372609E+03  0.83245797537E+02 0.  0.
          2    1    4    4  501    0 -0.81659859219E+02  0.10917645221E+03 -0.80963656129E+03  0.82103543876E+03  0.00000000000E+00 0. -1.
         -1    1    4    4    0  501 -0.11303272478E+02  0.25892217870E+02 -0.61831890458E+03  0.61896400435E+03  0.00000000000E+00 0.  1.
          5    1    3    3  502    0  0.96445646542E+01 -0.30395655294E+02 -0.12533443097E+03  0.12941299423E+03  0.47000000000E+01 0. -1.
         11    1    6    6    0    0  0.10895428253E+03 -0.67843976266E+02 -0.13283882386E+03  0.18471598177E+03  0.00000000000E+00 0. -1.
        -12    1    6    6    0    0  0.59825956199E+01 -0.46130613637E+02 -0.12386180339E+02  0.48137744320E+02  0.00000000000E+00 0.  1.
         -5    1    5    5    0  503 -0.31618311104E+02  0.93015751119E+01 -0.43025301434E+02  0.54401318551E+02  0.47000000000E+01 0.  1.
<mgrwt>
<rscale>  2 0.22250406E+03</rscale>
<asrwt>0</asrwt>
<pdfrwt beam="1">  1       21 0.88559456E-02 0.22437891E+03</pdfrwt>
<pdfrwt beam="2">  1       21 0.27678517E+00 0.22437891E+03</pdfrwt>
<totfact> 0.45142163E+03</totfact>
</mgrwt>
</event>
<event>
12    1  0.1441827E-001  0.2202060E+03  0.7546771E-02  0.1133948E+00
         21   -1    0    0  504  503  0.00000000000E+00  0.00000000000E+00  0.92851329127E+03  0.92851329127E+03  0.00000000000E+00 0.  1.
         21   -1    0    0  502  504 -0.00000000000E+00 -0.00000000000E+00 -0.72519676887E+02  0.72519676887E+02  0.00000000000E+00 0. -1.
          6    2    1    2  502    0  0.12133845524E+03 -0.59147668269E+02  0.16222977548E+03  0.27351265022E+03  0.17398046555E+03 0.  0.
         24    2    3    3    0    0  0.70863409074E+02  0.32448183897E+02  0.11033090327E+03  0.15666611259E+03  0.79352726685E+02 0.  0.
         -6    2    1    2    0  503 -0.12133845524E+03  0.59147668269E+02  0.69376383891E+03  0.72752031794E+03  0.17249951148E+03 0.  0.
        -24    2    5    5    0    0 -0.50824559704E+02  0.55702898246E+02  0.18570286383E+03  0.21455626433E+03  0.76569499054E+02 0.  0.
          2    1    4    4  501    0  0.47621795519E+02  0.53678293695E+02  0.46532913245E+02  0.85524888994E+02  0.00000000000E+00 0. -1.
         -1    1    4    4    0  501  0.23241613555E+02 -0.21230109797E+02  0.63797990028E+02  0.71141223593E+02  0.00000000000E+00 0.  1.
          5    1    3    3  502    0  0.50475046170E+02 -0.91595852166E+02  0.51898872206E+02  0.11684653763E+03  0.47000000000E+01 0. -1.
         13    1    6    6    0    0 -0.48465229815E+02  0.38667221928E+02  0.18728941281E+03  0.19728496320E+03  0.00000000000E+00 0. -1.
        -14    1    6    6    0    0 -0.23593298892E+01  0.17035676318E+02 -0.15865489790E+01  0.17271301132E+02  0.00000000000E+00 0.  1.
         -5    1    5    5    0  503 -0.70513895540E+02  0.34447700230E+01  0.50806097507E+03  0.51296405361E+03  0.47000000000E+01 0.  1.
<mgrwt>
<rscale>  2 0.21991334E+03</rscale>
<asrwt>0</asrwt>
<pdfrwt beam="1">  1       21 0.14284819E+00 0.22020597E+03</pdfrwt>
<pdfrwt beam="2">  1       21 0.11156874E-01 0.22020597E+03</pdfrwt>
<totfact> 0.22305769E+04</totfact>
</mgrwt>
</event>
<event>
12    1  0.1441827E-001  0.2157023E+03  0.7546771E-02  0.1138144E+00
         21   -1    0    0  504  503  0.00000000000E+00  0.00000000000E+00  0.11470360648E+04  0.11470360648E+04  0.00000000000E+00 0. -1.
         21   -1    0    0  502  504 -0.00000000000E+00 -0.00000000000E+00 -0.98884934748E+02  0.98884934748E+02  0.00000000000E+00 0.  1.
          6    2    1    2  502    0  0.49963970635E+02  0.10872340061E+03  0.44247252217E+02  0.22019381112E+03  0.17947233471E+03 0.  0.
         24    2    3    3    0    0  0.37925805710E+01  0.65309937510E+02 -0.44288047537E+02  0.11121163211E+03  0.78274033736E+02 0.  0.
         -6    2    1    2    0  503 -0.49963970635E+02 -0.10872340061E+03  0.10039038778E+04  0.10257271884E+04  0.17313605329E+03 0.  0.
        -24    2    5    5    0    0  0.92655030606E+01 -0.91362484870E+02  0.86448261725E+03  0.87318240860E+03  0.81757996364E+02 0.  0.
          2    1    4    4  501    0 -0.12885412714E+02  0.62750930017E+02 -0.25963492846E+00  0.64060756232E+02  0.00000000000E+00 0. -1.
         -1    1    4    4    0  501  0.16677993285E+02  0.25590074936E+01 -0.44028412608E+02  0.47150875879E+02  0.00000000000E+00 0.  1.
          5    1    3    3  502    0  0.46171390064E+02  0.43413463100E+02  0.88535299754E+02  0.10898217901E+03  0.47000000000E+01 0. -1.
         11    1    6    6    0    0  0.65747098428E+01 -0.88644925269E+02  0.45068317528E+03  0.45936529480E+03  0.00000000000E+00 0. -1.
        -12    1    6    6    0    0  0.26907932178E+01 -0.27175596006E+01  0.41379944197E+03  0.41381711380E+03  0.00000000000E+00 0.  1.
         -5    1    5    5    0  503 -0.59229473695E+02 -0.17360915740E+02  0.13942126054E+03  0.15254477979E+03  0.47000000000E+01 0.  1.
<mgrwt>
<rscale>  2 0.21437954E+03</rscale>
<asrwt>0</asrwt>
<pdfrwt beam="1">  1       21 0.17646708E+00 0.21570233E+03</pdfrwt>
<pdfrwt beam="2">  1       21 0.15213068E-01 0.21570233E+03</pdfrwt>
<totfact> 0.72188166E+03</totfact>
</mgrwt>
</event>
<event>
12    1  0.1441827E-001  0.1868006E+03  0.7546771E-02  0.1161883E+00
         21   -1    0    0  504  503  0.00000000000E+00  0.00000000000E+00  0.72113862332E+02  0.72113862332E+02  0.00000000000E+00 0. -1.
         21   -1    0    0  502  504 -0.00000000000E+00 -0.00000000000E+00 -0.50030571385E+03  0.50030571385E+03  0.00000000000E+00 0. -1.
          6    2    1    2  502    0 -0.65591288461E+02 -0.16372883415E+02 -0.15282529391E+03  0.23967163461E+03  0.17180405566E+03 0.  0.
         24    2    3    3    0    0 -0.63066838666E+00 -0.50711794468E+02 -0.13240725261E+03  0.16326463634E+03  0.80941813025E+02 0.  0.
         -6    2    1    2    0  503  0.65591288461E+02  0.16372883415E+02 -0.27536655760E+03  0.33274794158E+03  0.17413834484E+03 0.  0.
        -24    2    5    5    0    0  0.46224651458E+02  0.28234052378E+01 -0.29000674904E+03  0.30455077518E+03  0.80638515332E+02 0.  0.
          4    1    4    4  501    0  0.65386956979E+01 -0.70799488615E+02 -0.82011543270E+02  0.10854130716E+03  0.00000000000E+00 0. -1.
         -3    1    4    4    0  501 -0.71693640846E+01  0.20087694147E+02 -0.50395709340E+02  0.54723329188E+02  0.00000000000E+00 0.  1.
          5    1    3    3  502    0 -0.64960620075E+02  0.34338911053E+02 -0.20418041302E+02  0.76406998262E+02  0.47000000000E+01 0. -1.
         13    1    6    6    0    0  0.61248546438E+01  0.46988631079E+01 -0.24134171743E+03  0.24146514806E+03  0.00000000000E+00 0. -1.
        -14    1    6    6    0    0  0.40099796814E+02 -0.18754578701E+01 -0.48665031608E+02  0.63085627112E+02  0.00000000000E+00 0.  1.
         -5    1    5    5    0  503  0.19366637004E+02  0.13549478177E+02  0.14640191432E+02  0.28197166398E+02  0.47000000000E+01 0.  1.
<mgrwt>
<rscale>  2 0.18625465E+03</rscale>
<asrwt>0</asrwt>
<pdfrwt beam="1">  1       21 0.11094440E-01 0.18680057E+03</pdfrwt>
<pdfrwt beam="2">  1       21 0.76970112E-01 0.18680057E+03</pdfrwt>
<totfact> 0.10149852E+05</totfact>
</mgrwt>
</event>
<event>
12    1  0.1441827E-001  0.2016458E+03  0.7546771E-02  0.1148558E+00
         21   -1    0    0  504  503  0.00000000000E+00  0.00000000000E+00  0.16166715680E+03  0.16166715680E+03  0.00000000000E+00 0. -1.
         21   -1    0    0  502  504 -0.00000000000E+00 -0.00000000000E+00 -0.72398993320E+03  0.72398993320E+03  0.00000000000E+00 0. -1.
          6    2    1    2  502    0  0.45847466239E+02 -0.89544555424E+02 -0.63911487276E+03  0.66988391780E+03  0.17365605425E+03 0.  0.
         24    2    3    3    0    0 -0.42811181377E+01 -0.96347611594E+02 -0.57240099045E+03  0.58602696438E+03  0.80520301004E+02 0.  0.
         -6    2    1    2    0  503 -0.45847466239E+02  0.89544555424E+02  0.76792096360E+02  0.21577317220E+03  0.17475931509E+03 0.  0.
        -24    2    5    5    0    0 -0.84681118436E+02  0.69503880302E+02  0.10238814113E+02  0.13601660143E+03  0.79962499672E+02 0.  0.
          4    1    4    4  501    0 -0.26075403374E+01 -0.85570705197E+02 -0.56775383319E+03  0.57417206477E+03  0.00000000000E+00 0. -1.
         -3    1    4    4    0  501 -0.16735778003E+01 -0.10776906397E+02 -0.46471572590E+01  0.11854899609E+02  0.00000000000E+00 0.  1.
          5    1    3    3  502    0  0.50128584377E+02  0.68030561700E+01 -0.66713882305E+02  0.83856953422E+02  0.47000000000E+01 0. -1.
         11    1    6    6    0    0 -0.27372075710E+02 -0.51130843760E+01 -0.23119954808E+02  0.36192630063E+02  0.00000000000E+00 0. -1.
        -12    1    6    6    0    0 -0.57309042726E+02  0.74616964678E+02  0.33358768921E+02  0.99823971369E+02  0.00000000000E+00 0.  1.
         -5    1    5    5    0  503  0.38833652197E+02  0.20040675121E+02  0.66553282248E+02  0.79756570765E+02  0.47000000000E+01 0.  1.
<mgrwt>
<rscale>  2 0.20140654E+03</rscale>
<asrwt>0</asrwt>
<pdfrwt beam="1">  1       21 0.24871871E-01 0.20164582E+03</pdfrwt>
<pdfrwt beam="2">  1       21 0.11138307E+00 0.20164582E+03</pdfrwt>
<totfact> 0.96295396E+03</totfact>
</mgrwt>
</event>
<event>
12    1  0.1441827E-001  0.1849197E+03  0.7546771E-02  0.1163827E+00
         21   -1    0    0  504  503  0.00000000000E+00  0.00000000000E+00  0.11395246983E+03  0.11395246983E+03  0.00000000000E+00 0. -1.
         21   -1    0    0  502  504 -0.00000000000E+00 -0.00000000000E+00 -0.50083620331E+03  0.50083620331E+03  0.00000000000E+00 0. -1.
          6    2    1    2  502    0  0.52270701351E+02 -0.22706054834E+02 -0.39130238282E+03  0.43279654608E+03  0.17591902783E+03 0.  0.
         24    2    3    3    0    0 -0.76182535866E+00  0.33346593916E+02 -0.30385990335E+03  0.31608054231E+03  0.80395849750E+02 0.  0.
         -6    2    1    2    0  503 -0.52270701351E+02  0.22706054834E+02  0.44186493448E+01  0.18199212706E+03  0.17278257639E+03 0.  0.
        -24    2    5    5    0    0 -0.74911235504E+02 -0.38228273867E+02  0.65370656691E+01  0.11678350885E+03  0.80762371091E+02 0.  0.
          2    1    4    4  501    0  0.37019736745E+02  0.20956530880E+02 -0.20792876636E+03  0.21223573916E+03  0.00000000000E+00 0. -1.
         -1    1    4    4    0  501 -0.37781562104E+02  0.12390063036E+02 -0.95931136988E+02  0.10384480315E+03  0.00000000000E+00 0.  1.
          5    1    3    3  502    0  0.53032526710E+02 -0.56052648751E+02 -0.87442479472E+02  0.11671600378E+03  0.47000000000E+01 0. -1.
         11    1    6    6    0    0 -0.27839142077E+02 -0.56476008442E+02 -0.97954180375E+01  0.63722112140E+02  0.00000000000E+00 0. -1.
        -12    1    6    6    0    0 -0.47072093427E+02  0.18247734575E+02  0.16332483707E+02  0.53061396710E+02  0.00000000000E+00 0.  1.
         -5    1    5    5    0  503  0.22640534153E+02  0.60934328701E+02 -0.21184163243E+01  0.65208618209E+02  0.47000000000E+01 0.  1.
<mgrwt>
<rscale>  2 0.18416985E+03</rscale>
<asrwt>0</asrwt>
<pdfrwt beam="1">  1       21 0.17531149E-01 0.18491970E+03</pdfrwt>
<pdfrwt beam="2">  1       21 0.77051723E-01 0.18491970E+03</pdfrwt>
<totfact> 0.44289510E+04</totfact>
</mgrwt>
</event>
<event>
12    1  0.1441827E-001  0.2809627E+03  0.7546771E-02  0.1095377E+00
         21   -1    0    0  504  503  0.00000000000E+00  0.00000000000E+00  0.57834748961E+02  0.57834748961E+02  0.00000000000E+00 0.  1.
         21   -1    0    0  502  504 -0.00000000000E+00 -0.00000000000E+00 -0.14874165779E+04  0.14874165779E+04  0.00000000000E+00 0. -1.
          6    2    1    2  502    0 -0.20306554626E+03  0.84833458101E+02 -0.94143834157E+03  0.98202479161E+03  0.17214589356E+03 0.  0.
         24    2    3    3    0    0 -0.18538838390E+03  0.65401475557E+02 -0.54732302740E+03  0.58700700103E+03  0.79802988944E+02 0.  0.
         -6    2    1    2    0  503  0.20306554626E+03 -0.84833458101E+02 -0.48814348740E+03  0.56322653528E+03  0.17466463311E+03 0.  0.
        -24    2    5    5    0    0  0.28967964254E+02 -0.97662587507E+01 -0.10354297897E+03  0.13440874931E+03  0.80062729370E+02 0.  0.
          2    1    4    4  501    0 -0.78540422117E+02  0.70002124259E+02 -0.26843748471E+03  0.28831853652E+03  0.00000000000E+00 0. -1.
         -1    1    4    4    0  501 -0.10684796178E+03 -0.46006487016E+01 -0.27888554269E+03  0.29868846450E+03  0.00000000000E+00 0.  1.
          5    1    3    3  502    0 -0.17677162365E+02  0.19431982544E+02 -0.39411531417E+03  0.39501779058E+03  0.47000000000E+01 0. -1.
         13    1    6    6    0    0  0.20433145434E+02 -0.28896998319E+02 -0.10742422678E+03  0.11310399835E+03  0.00000000000E+00 0. -1.
        -14    1    6    6    0    0  0.85348188200E+01  0.19130739568E+02  0.38812478117E+01  0.21304750956E+02  0.00000000000E+00 0.  1.
         -5    1    5    5    0  503  0.17409758201E+03 -0.75067199351E+02 -0.38460050843E+03  0.42881778597E+03  0.47000000000E+01 0.  1.
<mgrwt>
<rscale>  2 0.28057222E+03</rscale>
<asrwt>0</asrwt>
<pdfrwt beam="1">  1       21 0.88976549E-02 0.28096275E+03</pdfrwt>
<pdfrwt beam="2">  1       21 0.22883329E+00 0.28096275E+03</pdfrwt>
<totfact> 0.82704536E+03</totfact>
</mgrwt>
</event>
<event>
12    1  0.1441827E-001  0.1748560E+03  0.7546771E-02  0.1173947E+00
         21   -1    0    0  504  503  0.00000000000E+00  0.00000000000E+00  0.17197480810E+03  0.17197480810E+03  0.00000000000E+00 0. -1.
         21   -1    0    0  502  504 -0.00000000000E+00 -0.00000000000E+00 -0.21926058644E+03  0.21926058644E+03  0.00000000000E+00 0. -1.
          6    2    1    2  502    0  0.37909872816E+01 -0.30769889120E+02  0.65911752082E+02  0.18293681163E+03  0.16781048932E+03 0.  0.
         24    2    3    3    0    0  0.15455660718E+02 -0.63376827850E+02 -0.50448363930E-01  0.10828844295E+03  0.86434278928E+02 0.  0.
         -6    2    1    2    0  503 -0.37909872816E+01  0.30769889120E+02 -0.11319753042E+03  0.20829858291E+03  0.17208562139E+03 0.  0.
        -24    2    5    5    0    0 -0.61181515569E+02 -0.10385844274E+02 -0.91519079218E+02  0.13427485445E+03  0.76177103312E+02 0.  0.
          4    1    4    4  501    0  0.12884469122E+02  0.93449171657E+01 -0.26458946377E+02  0.30877384357E+02  0.00000000000E+00 0. -1.
         -3    1    4    4    0  501  0.25711915968E+01 -0.72721745016E+02  0.26408498013E+02  0.77411058588E+02  0.00000000000E+00 0.  1.
          5    1    3    3  502    0 -0.11664673437E+02  0.32606938731E+02  0.65962200445E+02  0.74648368685E+02  0.47000000000E+01 0. -1.
         13    1    6    6    0    0 -0.67502367548E+02 -0.16449622751E+02 -0.36345221380E+02  0.78410042918E+02  0.00000000000E+00 0. -1.
        -14    1    6    6    0    0  0.63208519792E+01  0.60637784774E+01 -0.55173857838E+02  0.55864811536E+02  0.00000000000E+00 0.  1.
         -5    1    5    5    0  503  0.57390528287E+02  0.41155733393E+02 -0.21678451200E+02  0.74023728457E+02  0.47000000000E+01 0.  1.
<mgrwt>
<rscale>  2 0.17379495E+03</rscale>
<asrwt>0</asrwt>
<pdfrwt beam="1">  1       21 0.26457663E-01 0.17485599E+03</pdfrwt>
<pdfrwt beam="2">  1       21 0.33732398E-01 0.17485599E+03</pdfrwt>
<totfact> 0.11578155E+05</totfact>
</mgrwt>
</event>
<event>
12    1  0.1441827E-001  0.1940998E+03  0.7546771E-02  0.1154982E+00
         21   -1    0    0  504  503  0.00000000000E+00  0.00000000000E+00  0.22733618953E+03  0.22733618953E+03  0.00000000000E+00 0. -1.
         21   -1    0    0  502  504 -0.00000000000E+00 -0.00000000000E+00 -0.16609742319E+03  0.16609742319E+03  0.00000000000E+00 0. -1.
          6    2    1    2  502    0  0.85702783079E+02 -0.16166459268E+02  0.15111155454E+02  0.19392801588E+03  0.17254972295E+03 0.  0.
         24    2    3    3    0    0 -0.18407094940E+02 -0.10733008573E+02  0.27143636065E+02  0.88879171634E+02  0.81906724720E+02 0.  0.
         -6    2    1    2    0  503 -0.85702783079E+02  0.16166459268E+02  0.46127610890E+02  0.19950559685E+03  0.17340243728E+03 0.  0.
        -24    2    5    5    0    0 -0.51737119283E+02 -0.58375379858E+02  0.32837936069E+02  0.11638605911E+03  0.79893492999E+02 0.  0.
          4    1    4    4  501    0  0.23620831708E+01 -0.12431897543E+02  0.53672763508E+02  0.55144329319E+02  0.00000000000E+00 0. -1.
         -3    1    4    4    0  501 -0.20769178110E+02  0.16988889700E+01 -0.26529127443E+02  0.33734842315E+02  0.00000000000E+00 0.  1.
          5    1    3    3  502    0  0.10410987802E+03 -0.54334506945E+01 -0.12032480611E+02  0.10504884425E+03  0.47000000000E+01 0. -1.
         11    1    6    6    0    0 -0.48678803186E+02 -0.38538110449E+02 -0.15546182866E+02  0.64003872057E+02  0.00000000000E+00 0. -1.
        -12    1    6    6    0    0 -0.30583160976E+01 -0.19837269408E+02  0.48384118934E+02  0.52382187049E+02  0.00000000000E+00 0.  1.
         -5    1    5    5    0  503 -0.33965663796E+02  0.74541839125E+02  0.13289674822E+02  0.83119537740E+02  0.47000000000E+01 0.  1.
<mgrwt>
<rscale>  2 0.19390915E+03</rscale>
<asrwt>0</asrwt>
<pdfrwt beam="1">  1       21 0.34974798E-01 0.19409979E+03</pdfrwt>
<pdfrwt beam="2">  1       21 0.25553450E-01 0.19409979E+03</pdfrwt>
<totfact> 0.11441736E+05</totfact>
</mgrwt>
</event>
<event>
12    1  0.1441827E-001  0.1854470E+03  0.7546771E-02  0.1162785E+00
         21   -1    0    0  504  503  0.00000000000E+00  0.00000000000E+00  0.37040156919E+03  0.37040156919E+03  0.00000000000E+00 0. -1.
         21   -1    0    0  502  504 -0.00000000000E+00 -0.00000000000E+00 -0.93532748882E+02  0.93532748882E+02  0.00000000000E+00 0. -1.
          6    2    1    2  502    0 -0.61235971361E+02  0.80567126723E+01  0.11406062491E+03  0.21716092200E+03  0.17416740533E+03 0.  0.
         24    2    3    3    0    0  0.21681081909E+02 -0.22390907287E+02  0.91975808298E+02  0.12599006915E+03  0.80265348503E+02 0.  0.
         -6    2    1    2    0  503  0.61235971361E+02 -0.80567126723E+01  0.16280819540E+03  0.24677339608E+03  0.17485950278E+03 0.  0.
        -24    2    5    5    0    0  0.84225879373E+02 -0.19010460831E+02  0.18093897519E+03  0.21516112560E+03  0.78102502199E+02 0.  0.
          4    1    4    4  501    0  0.23620610291E+02 -0.42049595999E+02  0.21512153631E+02  0.52809795569E+02  0.00000000000E+00 0. -1.
         -3    1    4    4    0  501 -0.19395283813E+01  0.19658688712E+02  0.70463654668E+02  0.73180273581E+02  0.00000000000E+00 0.  1.
          5    1    3    3  502    0 -0.82917053271E+02  0.30447619959E+02  0.22084816610E+02  0.91170852848E+02  0.47000000000E+01 0. -1.
         13    1    6    6    0    0  0.82482526420E+01 -0.60853595033E+01  0.10980276040E+03  0.11028014990E+03  0.00000000000E+00 0. -1.
        -14    1    6    6    0    0  0.75977626731E+02 -0.12925101328E+02  0.71136214790E+02  0.10488097569E+03  0.00000000000E+00 0.  1.
         -5    1    5    5    0  503 -0.22989908011E+02  0.10953748159E+02 -0.18130779787E+02  0.31612270478E+02  0.47000000000E+01 0.  1.
<mgrwt>
<rscale>  2 0.18528370E+03</rscale>
<asrwt>0</asrwt>
<pdfrwt beam="1">  1       21 0.56984856E-01 0.18544703E+03</pdfrwt>
<pdfrwt beam="2">  1       21 0.14389654E-01 0.18544703E+03</pdfrwt>
<totfact> 0.12270918E+05</totfact>
</mgrwt>
</event>
<event>
12    1  0.1441827E-001  0.1782847E+03  0.7546771E-02  0.1169690E+00
         21   -1    0    0  504  503  0.00000000000E+00  0.00000000000E+00  0.24711718998E+03  0.24711718998E+03  0.00000000000E+00 0. -1.
         21   -1    0    0  502  504 -0.00000000000E+00 -0.00000000000E+00 -0.12950130822E+03  0.12950130822E+03  0.00000000000E+00 0. -1.
          6    2    1    2  502    0  0.34516484253E+02  0.11534162187E+02  0.38613391533E+02  0.18241825692E+03  0.17453080493E+03 0.  0.
         24    2    3    3    0    0  0.51403508359E+02 -0.35238483619E+02  0.69570123522E+02  0.12365380139E+03  0.81032025222E+02 0.  0.
         -6    2    1    2    0  503 -0.34516484253E+02 -0.11534162187E+02  0.79002490229E+02  0.19420024128E+03  0.17363155147E+03 0.  0.
        -24    2    5    5    0    0 -0.50062923700E+02 -0.38650008979E+02  0.10982424980E+03  0.15005240112E+03  0.80338270550E+02 0.  0.
          4    1    4    4  501    0  0.72606095884E+02 -0.27769176629E+02  0.42949091825E+02  0.88811017440E+02  0.00000000000E+00 0. -1.
         -3    1    4    4    0  501 -0.21202587525E+02 -0.74693069903E+01  0.26621031697E+02  0.34842783948E+02  0.00000000000E+00 0.  1.
          5    1    3    3  502    0 -0.16887024107E+02  0.46772645806E+02 -0.30956731989E+02  0.58764455535E+02  0.47000000000E+01 0. -1.
         13    1    6    6    0    0 -0.50077379853E+02 -0.31188718764E+02  0.23655931200E+02  0.63561649066E+02  0.00000000000E+00 0. -1.
        -14    1    6    6    0    0  0.14456153157E-01 -0.74612902148E+01  0.86168318604E+02  0.86490752059E+02  0.00000000000E+00 0.  1.
         -5    1    5    5    0  503  0.15546439447E+02  0.27115846792E+02 -0.30821759575E+02  0.44147840151E+02  0.47000000000E+01 0.  1.
<mgrwt>
<rscale>  2 0.17806421E+03</rscale>
<asrwt>0</asrwt>
<pdfrwt beam="1">  1       21 0.38018029E-01 0.17828468E+03</pdfrwt>
<pdfrwt beam="2">  1       21 0.19923278E-01 0.17828468E+03</pdfrwt>
<totfact> 0.15583482E+05</totfact>
</mgrwt>
</event>
<event>
12    1  0.1441827E-001  0.1787224E+03  0.7546771E-02  0.1169180E+00
         21   -1    0    0  504  503  0.00000000000E+00  0.00000000000E+00  0.12026305189E+03  0.12026305189E+03  0.00000000000E+00 0. -1.
         21   -1    0    0  502  504 -0.00000000000E+00 -0.00000000000E+00 -0.28261947303E+03  0.28261947303E+03  0.00000000000E+00 0. -1.
          6    2    1    2  502    0 -0.41713475407E+02  0.28946476050E+01 -0.13190533433E+03  0.22212771789E+03  0.17376223070E+03 0.  0.
         24    2    3    3    0    0 -0.90396052398E+02  0.20772662337E+02 -0.65041721605E+02  0.13737838504E+03  0.77713868363E+02 0.  0.
         -6    2    1    2    0  503  0.41713475407E+02 -0.28946476050E+01 -0.30451086812E+02  0.18075480704E+03  0.17319537685E+03 0.  0.
        -24    2    5    5    0    0  0.42973443269E+02 -0.39209920172E+02 -0.74475329870E+02  0.12347819298E+03  0.79474239326E+02 0.  0.
          2    1    4    4  501    0 -0.80063299807E+02  0.10832577878E+02 -0.82038098837E+02  0.11514220069E+03  0.00000000000E+00 0. -1.
         -1    1    4    4    0  501 -0.10332752592E+02  0.99400844590E+01  0.16996377232E+02  0.22236184344E+02  0.00000000000E+00 0.  1.
          5    1    3    3  502    0  0.48682576992E+02 -0.17878014732E+02 -0.66863612723E+02  0.84749332857E+02  0.47000000000E+01 0. -1.
         11    1    6    6    0    0  0.60112575560E+02 -0.40120146719E+02 -0.34725233170E+02  0.80180981111E+02  0.00000000000E+00 0. -1.
        -12    1    6    6    0    0 -0.17139132291E+02  0.91022654723E+00 -0.39750096701E+02  0.43297211871E+02  0.00000000000E+00 0.  1.
         -5    1    5    5    0  503 -0.12599678623E+01  0.36315272567E+02  0.44024243058E+02  0.57276614054E+02  0.47000000000E+01 0.  1.
<mgrwt>
<rscale>  2 0.17858450E+03</rscale>
<asrwt>0</asrwt>
<pdfrwt beam="1">  1       21 0.18502008E-01 0.17872243E+03</pdfrwt>
<pdfrwt beam="2">  1       21 0.43479918E-01 0.17872243E+03</pdfrwt>
<totfact> 0.13629545E+05</totfact>
</mgrwt>
</event>
<event>
12    1  0.1441827E-001  0.2151409E+03  0.7546771E-02  0.1137940E+00
         21   -1    0    0  504  503  0.00000000000E+00  0.00000000000E+00  0.51257984750E+02  0.51257984750E+02  0.00000000000E+00 0.  1.
         21   -1    0    0  502  504 -0.00000000000E+00 -0.00000000000E+00 -0.93777435728E+03  0.93777435728E+03  0.00000000000E+00 0.  1.
          6    2    1    2  502    0 -0.88747561510E+02  0.91320032888E+02 -0.33922949918E+03  0.40169920719E+03  0.17340738699E+03 0.  0.
         24    2    3    3    0    0 -0.49371079487E+02  0.87542254642E+02 -0.11270299360E+03  0.17169675791E+03  0.81710844282E+02 0.  0.
         -6    2    1    2    0  503  0.88747561510E+02 -0.91320032888E+02 -0.54728687334E+03  0.58733313483E+03  0.17094388394E+03 0.  0.
        -24    2    5    5    0    0  0.10429380784E+03 -0.10725807057E+03 -0.34355558331E+03  0.38233499982E+03  0.75948148151E+02 0.  0.
          4    1    4    4  501    0  0.16048659704E+02  0.23967361600E+01 -0.27191317102E+00  0.16228917379E+02  0.00000000000E+00 0. -1.
         -3    1    4    4    0  501 -0.65419739190E+02  0.85145518482E+02 -0.11243108043E+03  0.15546784054E+03  0.00000000000E+00 0.  1.
          5    1    3    3  502    0 -0.39376482023E+02  0.37777782464E+01 -0.22652650558E+03  0.23000244928E+03  0.47000000000E+01 0. -1.
         11    1    6    6    0    0  0.37347978142E+02  0.36587288883E+00 -0.11596504911E+03  0.12183143252E+03  0.00000000000E+00 0. -1.
        -12    1    6    6    0    0  0.66945829701E+02 -0.10762394346E+03 -0.22759053420E+03  0.26050356730E+03  0.00000000000E+00 0.  1.
         -5    1    5    5    0  503 -0.15546246333E+02  0.15938037680E+02 -0.20373129003E+03  0.20499813501E+03  0.47000000000E+01 0.  1.
<mgrwt>
<rscale>  2 0.21464401E+03</rscale>
<asrwt>0</asrwt>
<pdfrwt beam="1">  1       21 0.78858438E-02 0.21514088E+03</pdfrwt>
<pdfrwt beam="2">  1       21 0.14427298E+00 0.21514088E+03</pdfrwt>
<totfact> 0.40201743E+04</totfact>
</mgrwt>
</event>
<event>
12    1  0.1441827E-001  0.2132372E+03  0.7546771E-02  0.1139268E+00
         21   -1    0    0  504  503  0.00000000000E+00  0.00000000000E+00  0.79670038012E+02  0.79670038012E+02  0.00000000000E+00 0.  1.
         21   -1    0    0  502  504 -0.00000000000E+00 -0.00000000000E+00 -0.94176956430E+03  0.94176956430E+03  0.00000000000E+00 0.  1.
          6    2    1    2  502    0  0.95809940973E+01 -0.12306860300E+03 -0.75378821707E+03  0.78336886168E+03  0.17387472723E+03 0.  0.
         24    2    3    3    0    0 -0.17932850264E+02 -0.82839602082E+02 -0.70337816540E+03  0.71309335061E+03  0.81100532310E+02 0.  0.
         -6    2    1    2    0  503 -0.95809940973E+01  0.12306860300E+03 -0.10831130922E+03  0.23807074063E+03  0.17236200668E+03 0.  0.
        -24    2    5    5    0    0  0.44545230238E+02  0.16757421838E+02 -0.47435768121E+02  0.10405717078E+03  0.79452211861E+02 0.  0.
          4    1    4    4  501    0 -0.26228179199E+02  0.62302416042E+01 -0.20295837674E+03  0.20474089963E+03  0.00000000000E+00 0. -1.
         -3    1    4    4    0  501  0.82953289353E+01 -0.89069843686E+02 -0.50041978866E+03  0.50835245098E+03  0.00000000000E+00 0.  1.
          5    1    3    3  502    0  0.27513844361E+02 -0.40229000916E+02 -0.50410051671E+02  0.70275511067E+02  0.47000000000E+01 0. -1.
         13    1    6    6    0    0  0.25540975124E+02  0.12833003522E+02  0.19344705947E+02  0.34514417826E+02  0.00000000000E+00 0. -1.
        -14    1    6    6    0    0  0.19004255114E+02  0.39244183168E+01 -0.66780474068E+02  0.69542752953E+02  0.00000000000E+00 0.  1.
         -5    1    5    5    0  503 -0.54126224335E+02  0.10631118116E+03 -0.60875541098E+02  0.13401356985E+03  0.47000000000E+01 0.  1.
<mgrwt>
<rscale>  2 0.21292860E+03</rscale>
<asrwt>0</asrwt>
<pdfrwt beam="1">  1       21 0.12256930E-01 0.21323719E+03</pdfrwt>
<pdfrwt beam="2">  1       21 0.14488762E+00 0.21323719E+03</pdfrwt>
<totfact> 0.18241780E+04</totfact>
</mgrwt>
</event>
<event>
12    1  0.1441827E-001  0.2868102E+03  0.7546771E-02  0.1092055E+00
         21   -1    0    0  504  503  0.00000000000E+00  0.00000000000E+00  0.39505252953E+03  0.39505252953E+03  0.00000000000E+00 0.  1.
         21   -1    0    0  502  504 -0.00000000000E+00 -0.00000000000E+00 -0.21090623091E+03  0.21090623091E+03  0.00000000000E+00 0. -1.
          6    2    1    2  502    0  0.22288757668E+03  0.48317055614E+02  0.12725034504E+03  0.31377181534E+03  0.17391576147E+03 0.  0.
         24    2    3    3    0    0  0.87563074794E+02  0.17087548074E+00  0.12197890151E+03  0.16996411878E+03  0.79634339298E+02 0.  0.
         -6    2    1    2    0  503 -0.22288757668E+03 -0.48317055614E+02  0.56895953591E+02  0.29218694510E+03  0.17355878443E+03 0.  0.
        -24    2    5    5    0    0 -0.52392416301E+02  0.20296091990E+02 -0.10473146838E+02  0.96388453206E+02  0.77615400990E+02 0.  0.
          2    1    4    4  501    0  0.18231544941E+02  0.30107552622E+02  0.13307193658E+02  0.37628916526E+02  0.00000000000E+00 0. -1.
         -1    1    4    4    0  501  0.69331529853E+02 -0.29936677142E+02  0.10867170785E+03  0.13233520226E+03  0.00000000000E+00 0.  1.
          5    1    3    3  502    0  0.13532450188E+03  0.48146180134E+02  0.52714435318E+01  0.14380769656E+03  0.47000000000E+01 0. -1.
         11    1    6    6    0    0 -0.37116922646E+02  0.70169849841E+01 -0.43525332790E+02  0.57631229550E+02  0.00000000000E+00 0. -1.
        -12    1    6    6    0    0 -0.15275493655E+02  0.13279107006E+02  0.33052185952E+02  0.38757223656E+02  0.00000000000E+00 0.  1.
         -5    1    5    5    0  503 -0.17049516038E+03 -0.68613147604E+02  0.67369100429E+02  0.19579849190E+03  0.47000000000E+01 0.  1.
<mgrwt>
<rscale>  2 0.28675612E+03</rscale>
<asrwt>0</asrwt>
<pdfrwt beam="1">  1       21 0.60777312E-01 0.28681022E+03</pdfrwt>
<pdfrwt beam="2">  1       21 0.32447112E-01 0.28681022E+03</pdfrwt>
<totfact> 0.21982156E+04</totfact>
</mgrwt>
</event>
<event>
12    1  0.1441827E-001  0.2021681E+03  0.7546771E-02  0.1148259E+00
         21   -1    0    0  504  503  0.00000000000E+00  0.00000000000E+00  0.14893382886E+03  0.14893382886E+03  0.00000000000E+00 0.  1.
         21   -1    0    0  502  504 -0.00000000000E+00 -0.00000000000E+00 -0.28442442664E+03  0.28442442664E+03  0.00000000000E+00 0.  1.
          6    2    1    2  502    0 -0.74225336767E+02  0.74980681699E+02 -0.11232215330E+03  0.22986693027E+03  0.17056094589E+03 0.  0.
         24    2    3    3    0    0 -0.74102678559E+02  0.26017196161E+02 -0.13222255180E+03  0.17680513779E+03  0.87230453835E+02 0.  0.
         -6    2    1    2    0  503  0.74225336767E+02 -0.74980681699E+02 -0.23168444482E+02  0.20349132523E+03  0.17245416602E+03 0.  0.
        -24    2    5    5    0    0  0.32271442965E+02 -0.93183499628E+02 -0.64210407756E+02  0.14186337268E+03  0.79231492539E+02 0.  0.
          4    1    4    4  501    0  0.19657208660E+02  0.74827959643E+01 -0.32205905489E+02  0.38465808663E+02  0.00000000000E+00 0. -1.
         -3    1    4    4    0  501 -0.93759887219E+02  0.18534400197E+02 -0.10001664632E+03  0.13833932912E+03  0.00000000000E+00 0.  1.
          5    1    3    3  502    0 -0.12265820860E+00  0.48963485538E+02  0.19900398503E+02  0.53061792484E+02  0.47000000000E+01 0. -1.
         11    1    6    6    0    0  0.20967191892E+00 -0.87068992405E+02 -0.24480295705E+02  0.90445222531E+02  0.00000000000E+00 0. -1.
        -12    1    6    6    0    0  0.32061771046E+02 -0.61145072231E+01 -0.39730112051E+02  0.51418150150E+02  0.00000000000E+00 0.  1.
         -5    1    5    5    0  503  0.41953893802E+02  0.18202817929E+02  0.41041963274E+02  0.61627952547E+02  0.47000000000E+01 0.  1.
<mgrwt>
<rscale>  2 0.20176376E+03</rscale>
<asrwt>0</asrwt>
<pdfrwt beam="1">  1       21 0.22912897E-01 0.20216810E+03</pdfrwt>
<pdfrwt beam="2">  1       21 0.43757604E-01 0.20216810E+03</pdfrwt>
<totfact> 0.89357172E+04</totfact>
</mgrwt>
</event>
<event>
12    1  0.1441827E-001  0.1975911E+03  0.7546771E-02  0.1151891E+00
         21   -1    0    0  504  503  0.00000000000E+00  0.00000000000E+00  0.33508403793E+02  0.33508403793E+02  0.00000000000E+00 0. -1.
         21   -1    0    0  502  504 -0.00000000000E+00 -0.00000000000E+00 -0.16423495842E+04  0.16423495842E+04  0.00000000000E+00 0. -1.
          6    2    1    2  502    0 -0.56533905360E+02 -0.76665453338E+02 -0.12581321103E+04  0.12735535580E+04  0.17311436645E+03 0.  0.
         24    2    3    3    0    0 -0.79190101706E+02 -0.56900842630E+01 -0.52755143858E+03  0.53916877181E+03  0.78032011949E+02 0.  0.
         -6    2    1    2    0  503  0.56533905360E+02  0.76665453338E+02 -0.35070907012E+03  0.40230443003E+03  0.17256398340E+03 0.  0.
        -24    2    5    5    0    0  0.87114379740E+02  0.10287237626E+03 -0.29516939933E+03  0.33353878996E+03  0.77146024889E+02 0.  0.
          4    1    4    4  501    0 -0.36023852151E+02 -0.54189139046E+01 -0.44048395248E+03  0.44198777692E+03  0.00000000000E+00 0. -1.
         -3    1    4    4    0  501 -0.43166249555E+02 -0.27117035836E+00 -0.87067486092E+02  0.97180994893E+02  0.00000000000E+00 0.  1.
          5    1    3    3  502    0  0.22656196346E+02 -0.70975369075E+02 -0.73058067170E+03  0.73438478614E+03  0.47000000000E+01 0. -1.
         11    1    6    6    0    0  0.64153517874E+02  0.10282443070E+03 -0.28230224967E+03  0.30721832232E+03  0.00000000000E+00 0. -1.
        -12    1    6    6    0    0  0.22960861866E+02  0.47945556928E-01 -0.12867149664E+02  0.26320467642E+02  0.00000000000E+00 0.  1.
         -5    1    5    5    0  503 -0.30580474380E+02 -0.26206922919E+02 -0.55539670794E+02  0.68765640069E+02  0.47000000000E+01 0.  1.
<mgrwt>
<rscale>  2 0.19747052E+03</rscale>
<asrwt>0</asrwt>
<pdfrwt beam="1">  1       21 0.51551385E-02 0.19759114E+03</pdfrwt>
<pdfrwt beam="2">  1       21 0.25266919E+00 0.19759114E+03</pdfrwt>
<totfact> 0.16307412E+04</totfact>
</mgrwt>
</event>
<event>
12    1  0.1441827E-001  0.2162497E+03  0.7546771E-02  0.1136732E+00
         21   -1    0    0  504  503  0.00000000000E+00  0.00000000000E+00  0.12578625729E+03  0.12578625729E+03  0.00000000000E+00 0. -1.
         21   -1    0    0  502  504 -0.00000000000E+00 -0.00000000000E+00 -0.54910515837E+03  0.54910515837E+03  0.00000000000E+00 0. -1.
          6    2    1    2  502    0  0.75502947923E+02 -0.10571965476E+03 -0.40349304728E+03  0.45773479713E+03  0.17273437628E+03 0.  0.
         24    2    3    3    0    0  0.73075460724E+02 -0.54455058562E+02 -0.38272584379E+03  0.40217115562E+03  0.83409774862E+02 0.  0.
         -6    2    1    2    0  503 -0.75502947923E+02  0.10571965476E+03 -0.19825853802E+02  0.21715661853E+03  0.17287738992E+03 0.  0.
        -24    2    5    5    0    0 -0.70836702081E+02  0.23838814366E+02  0.37839860518E+02  0.11678894206E+03  0.81373672096E+02 0.  0.
          2    1    4    4  501    0 -0.91170250290E+01 -0.35489324823E+02 -0.15646045262E+03  0.16069376328E+03  0.00000000000E+00 0. -1.
         -1    1    4    4    0  501  0.82192485753E+02 -0.18965733739E+02 -0.22626539117E+03  0.24147739234E+03  0.00000000000E+00 0.  1.
          5    1    3    3  502    0  0.24274871993E+01 -0.51264596194E+02 -0.20767203491E+02  0.55563641510E+02  0.47000000000E+01 0. -1.
         13    1    6    6    0    0 -0.42998488502E+02  0.53906598994E+02  0.18017219847E+02  0.71269991158E+02  0.00000000000E+00 0. -1.
        -14    1    6    6    0    0 -0.27838213578E+02 -0.30067784628E+02  0.19822640671E+02  0.45518950898E+02  0.00000000000E+00 0.  1.
         -5    1    5    5    0  503 -0.46662458428E+01  0.81880840389E+02 -0.57665714319E+02  0.10036767648E+03  0.47000000000E+01 0.  1.
<mgrwt>
<rscale>  2 0.21622112E+03</rscale>
<asrwt>0</asrwt>
<pdfrwt beam="1">  1       21 0.19351732E-01 0.21624970E+03</pdfrwt>
<pdfrwt beam="2">  1       21 0.84477717E-01 0.21624970E+03</pdfrwt>
<totfact> 0.29443671E+04</totfact>
</mgrwt>
</event>
<event>
12    1  0.1441827E-001  0.1853465E+03  0.7546771E-02  0.1162813E+00
         21   -1    0    0  504  503  0.00000000000E+00  0.00000000000E+00  0.19232084336E+04  0.19232084336E+04  0.00000000000E+00 0. -1.
         21   -1    0    0  502  504 -0.00000000000E+00 -0.00000000000E+00 -0.18788775409E+02  0.18788775409E+02  0.00000000000E+00 0. -1.
          6    2    1    2  502    0  0.26558524289E+02  0.62246937897E+02  0.11728271755E+04  0.11873823748E+04  0.17254936663E+03 0.  0.
         24    2    3    3    0    0  0.60807622094E+02 -0.10452914443E+02  0.78539800880E+03  0.79167829542E+03  0.78087520739E+02 0.  0.
         -6    2    1    2    0  503 -0.26558524289E+02 -0.62246937897E+02  0.73159248268E+03  0.75461483419E+03  0.17215095346E+03 0.  0.
        -24    2    5    5    0    0  0.31685654358E+02 -0.82028657639E+02  0.55117825326E+03  0.56394473963E+03  0.80644411612E+02 0.  0.
          4    1    4    4  501    0  0.21445854761E+01 -0.25900271077E+02  0.45606442916E+03  0.45680432007E+03  0.00000000000E+00 0. -1.
         -3    1    4    4    0  501  0.58663036618E+02  0.15447356635E+02  0.32933357964E+03  0.33487397535E+03  0.00000000000E+00 0.  1.
          5    1    3    3  502    0 -0.34249097805E+02  0.72699852340E+02  0.38742916672E+03  0.39570407940E+03  0.47000000000E+01 0. -1.
         11    1    6    6    0    0  0.37271652459E+02 -0.92426914848E+02  0.39708492360E+03  0.40939998439E+03  0.00000000000E+00 0. -1.
        -12    1    6    6    0    0 -0.55859981009E+01  0.10398257209E+02  0.15409332966E+03  0.15454475525E+03  0.00000000000E+00 0.  1.
         -5    1    5    5    0  503 -0.58244178647E+02  0.19781719742E+02  0.18041422942E+03  0.19067009456E+03  0.47000000000E+01 0.  1.
<mgrwt>
<rscale>  2 0.18525371E+03</rscale>
<asrwt>0</asrwt>
<pdfrwt beam="1">  1       21 0.29587806E+00 0.18534649E+03</pdfrwt>
<pdfrwt beam="2">  1       21 0.28905824E-02 0.18534649E+03</pdfrwt>
<totfact> 0.24432156E+04</totfact>
</mgrwt>
</event>
<event>
12    1  0.1441827E-001  0.1975555E+03  0.7546771E-02  0.1152301E+00
         21   -1    0    0  504  503  0.00000000000E+00  0.00000000000E+00  0.26487799718E+03  0.26487799718E+03  0.00000000000E+00 0.  1.
         21   -1    0    0  502  504 -0.00000000000E+00 -0.00000000000E+00 -0.15155846323E+03  0.15155846323E+03  0.00000000000E+00 0.  1.
          6    2    1    2  502    0 -0.55727330345E+02 -0.72476981757E+02  0.97367458104E+02  0.21823791708E+03  0.17259466481E+03 0.  0.
         24    2    3    3    0    0 -0.36484460242E+02 -0.85846488355E+02  0.12891140311E+03  0.17866340226E+03  0.81251006470E+02 0.  0.
         -6    2    1    2    0  503  0.55727330345E+02  0.72476981757E+02  0.15952075848E+02  0.19819854332E+03  0.17512779796E+03 0.  0.
        -24    2    5    5    0    0  0.88319739158E+02  0.68794156369E+02 -0.30383934097E+02  0.14123413222E+03  0.80566024951E+02 0.  0.
          4    1    4    4  501    0 -0.45346989387E+02 -0.16331636553E+02  0.79313272502E+02  0.92809843195E+02  0.00000000000E+00 0. -1.
         -3    1    4    4    0  501  0.88625291447E+01 -0.69514851802E+02  0.49598130611E+02  0.85853559064E+02  0.00000000000E+00 0.  1.
          5    1    3    3  502    0 -0.19242870103E+02  0.13369506598E+02 -0.31543945009E+02  0.39574514819E+02  0.47000000000E+01 0. -1.
         13    1    6    6    0    0  0.58060289444E+02  0.18164953872E+02  0.19606170224E+02  0.63916857482E+02  0.00000000000E+00 0. -1.
        -14    1    6    6    0    0  0.30259449714E+02  0.50629202496E+02 -0.49990104321E+02  0.77317274735E+02  0.00000000000E+00 0.  1.
         -5    1    5    5    0  503 -0.32592408813E+02  0.36828253887E+01  0.46336009945E+02  0.56964411107E+02  0.47000000000E+01 0.  1.
<mgrwt>
<rscale>  2 0.19699264E+03</rscale>
<asrwt>0</asrwt>
<pdfrwt beam="1">  1       21 0.40750461E-01 0.19755555E+03</pdfrwt>
<pdfrwt beam="2">  1       21 0.23316687E-01 0.19755555E+03</pdfrwt>
<totfact> 0.10013327E+05</totfact>
</mgrwt>
</event>
<event>
12    1  0.1441827E-001  0.2146105E+03  0.7546771E-02  0.1138048E+00
         21   -1    0    0  504  503  0.00000000000E+00  0.00000000000E+00  0.20528766968E+04  0.20528766968E+04  0.00000000000E+00 0.  1.
         21   -1    0    0  502  504 -0.00000000000E+00 -0.00000000000E+00 -0.27044396060E+02  0.27044396060E+02  0.00000000000E+00 0. -1.
          6    2    1    2  502    0  0.84496834439E+02 -0.92876482011E+02  0.58237089164E+03  0.62065570413E+03  0.17404565981E+03 0.  0.
         24    2    3    3    0    0  0.52111495649E+02 -0.53517673911E+02  0.54760290919E+03  0.55877817552E+03  0.82367189338E+02 0.  0.
         -6    2    1    2    0  503 -0.84496834439E+02  0.92876482011E+02  0.14434614091E+04  0.14592653887E+04  0.17351910339E+03 0.  0.
        -24    2    5    5    0    0 -0.31986562719E+02 -0.12010036577E+02  0.82535789786E+03  0.83011314084E+03  0.81882756805E+02 0.  0.
          4    1    4    4  501    0  0.74767739311E+02 -0.41986726493E+02  0.41765857865E+03  0.42637048252E+03  0.00000000000E+00 0. -1.
         -3    1    4    4    0  501 -0.22656243662E+02 -0.11530947418E+02  0.12994433054E+03  0.13240769300E+03  0.00000000000E+00 0.  1.
          5    1    3    3  502    0  0.32385338790E+02 -0.39358808100E+02  0.34767982444E+02  0.61877528610E+02  0.47000000000E+01 0. -1.
         13    1    6    6    0    0 -0.55709931885E+02  0.90095974705E+01  0.57307848888E+03  0.57585043525E+03  0.00000000000E+00 0. -1.
        -14    1    6    6    0    0  0.23723369166E+02 -0.21019634048E+02  0.25227940898E+03  0.25426270560E+03  0.00000000000E+00 0.  1.
         -5    1    5    5    0  503 -0.52510271720E+02  0.10488651859E+03  0.61810351124E+03  0.62915224789E+03  0.47000000000E+01 0.  1.
<mgrwt>
<rscale>  2 0.21450367E+03</rscale>
<asrwt>0</asrwt>
<pdfrwt beam="1">  1       21 0.31582706E+00 0.21461046E+03</pdfrwt>
<pdfrwt beam="2">  1       21 0.41606779E-02 0.21461046E+03</pdfrwt>
<totfact> 0.99134016E+03</totfact>
</mgrwt>
</event>
<event>
12    1  0.1441827E-001  0.2037497E+03  0.7546771E-02  0.1146737E+00
         21   -1    0    0  504  503  0.00000000000E+00  0.00000000000E+00  0.54049217865E+03  0.54049217865E+03  0.00000000000E+00 0. -1.
         21   -1    0    0  502  504 -0.00000000000E+00 -0.00000000000E+00 -0.11930321365E+03  0.11930321365E+03  0.00000000000E+00 0. -1.
          6    2    1    2  502    0 -0.10575983634E+03  0.16912078201E+02  0.12985253813E+02  0.20356715951E+03  0.17262621540E+03 0.  0.
         24    2    3    3    0    0 -0.95886040537E+02  0.51608196987E+02 -0.38366430255E+02  0.14063546671E+03  0.80304500243E+02 0.  0.
         -6    2    1    2    0  503  0.10575983634E+03 -0.16912078201E+02  0.40820371119E+03  0.45622823279E+03  0.17332850081E+03 0.  0.
        -24    2    5    5    0    0  0.11684239335E+02  0.37022039095E+02  0.23826102017E+03  0.25458073047E+03  0.80844800493E+02 0.  0.
          4    1    4    4  501    0 -0.79357889388E+02  0.43022194046E+02 -0.62761184668E+02  0.10994339493E+03  0.00000000000E+00 0. -1.
         -3    1    4    4    0  501 -0.16528151149E+02  0.85860029405E+01  0.24394754412E+02  0.30692071773E+02  0.00000000000E+00 0.  1.
          5    1    3    3  502    0 -0.98737958029E+01 -0.34696118786E+02  0.51351684069E+02  0.62931692803E+02  0.47000000000E+01 0. -1.
         13    1    6    6    0    0 -0.26002042813E+02  0.71713393463E+01  0.16340276943E+03  0.16561400724E+03  0.00000000000E+00 0. -1.
        -14    1    6    6    0    0  0.37686282148E+02  0.29850699748E+02  0.74858250744E+02  0.88966723229E+02  0.00000000000E+00 0.  1.
         -5    1    5    5    0  503  0.94075597006E+02 -0.53934117296E+02  0.16994269102E+03  0.20164750232E+03  0.47000000000E+01 0.  1.
<mgrwt>
<rscale>  2 0.20360024E+03</rscale>
<asrwt>0</asrwt>
<pdfrwt beam="1">  1       21 0.83152642E-01 0.20374968E+03</pdfrwt>
<pdfrwt beam="2">  1       21 0.18354341E-01 0.20374968E+03</pdfrwt>
<totfact> 0.33912469E+04</totfact>
</mgrwt>
</event>
<event>
12    1  0.1441827E-001  0.2026194E+03  0.7546771E-02  0.1148043E+00
         21   -1    0    0  504  503  0.00000000000E+00  0.00000000000E+00  0.14401220084E+03  0.14401220084E+03  0.00000000000E+00 0.  1.
         21   -1    0    0  502  504 -0.00000000000E+00 -0.00000000000E+00 -0.34903788681E+03  0.34903788681E+03  0.00000000000E+00 0.  1.
          6    2    1    2  502    0 -0.80379293250E+02  0.64131591292E+02 -0.21026519754E+03  0.29036291202E+03  0.17182978670E+03 0.  0.
         24    2    3    3    0    0 -0.37614695453E+01  0.75243068093E+02 -0.17528987870E+03  0.20527990106E+03  0.75747133660E+02 0.  0.
         -6    2    1    2    0  503  0.80379293250E+02 -0.64131591292E+02  0.52395115667E+01  0.20268717562E+03  0.17458793457E+03 0.  0.
        -24    2    5    5    0    0  0.49030939784E+02 -0.10778916644E+02  0.66426286736E+02  0.11553708318E+03  0.80100860922E+02 0.  0.
          2    1    4    4  501    0  0.24607248748E+02  0.74494115609E+02 -0.12917583158E+03  0.15113333654E+03  0.00000000000E+00 0. -1.
         -1    1    4    4    0  501 -0.28368718293E+02  0.74895248401E+00 -0.46114047121E+02  0.54146564520E+02  0.00000000000E+00 0.  1.
          5    1    3    3  502    0 -0.76617823705E+02 -0.11111476801E+02 -0.34975318842E+02  0.85083010960E+02  0.47000000000E+01 0. -1.
         11    1    6    6    0    0  0.48130695199E+02  0.64564337961E+01  0.17453743255E+01  0.48593165046E+02  0.00000000000E+00 0. -1.
        -12    1    6    6    0    0  0.90024458558E+00 -0.17235350440E+02  0.64680912411E+02  0.66943918136E+02  0.00000000000E+00 0.  1.
         -5    1    5    5    0  503  0.31348353466E+02 -0.53352674648E+02 -0.61186775170E+02  0.87150092443E+02  0.47000000000E+01 0.  1.
<mgrwt>
<rscale>  2 0.20202390E+03</rscale>
<asrwt>0</asrwt>
<pdfrwt beam="1">  1       21 0.22155723E-01 0.20261944E+03</pdfrwt>
<pdfrwt beam="2">  1       21 0.53698137E-01 0.20261944E+03</pdfrwt>
<totfact> 0.62209216E+04</totfact>
</mgrwt>
</event>
<event>
12    1  0.1441827E-001  0.1946091E+03  0.7546771E-02  0.1155302E+00
         21   -1    0    0  504  503  0.00000000000E+00  0.00000000000E+00  0.45054835038E+02  0.45054835038E+02  0.00000000000E+00 0.  1.
         21   -1    0    0  502  504 -0.00000000000E+00 -0.00000000000E+00 -0.10759656435E+04  0.10759656435E+04  0.00000000000E+00 0. -1.
          6    2    1    2  502    0 -0.55522413472E+02 -0.69122983405E+02 -0.24771899994E+03  0.31501971398E+03  0.17323969532E+03 0.  0.
         24    2    3    3    0    0  0.15377631909E+02 -0.86100964473E+02 -0.17964421775E+03  0.21516314561E+03  0.79832866746E+02 0.  0.
         -6    2    1    2    0  503  0.55522413472E+02  0.69122983405E+02 -0.78319180850E+03  0.80600076453E+03  0.16848471235E+03 0.  0.
        -24    2    5    5    0    0  0.60147151528E+02 -0.88168716864E+01 -0.57513124772E+03  0.58372324393E+03  0.79129364573E+02 0.  0.
          4    1    4    4  501    0  0.36064153458E+02 -0.64474575795E+02 -0.16712153975E+03  0.18272165481E+03  0.00000000000E+00 0. -1.
         -3    1    4    4    0  501 -0.20686521549E+02 -0.21626388678E+02 -0.12522677996E+02  0.32441490799E+02  0.00000000000E+00 0.  1.
          5    1    3    3  502    0 -0.70900045381E+02  0.16977981068E+02 -0.68074782193E+02  0.99856568371E+02  0.47000000000E+01 0. -1.
         11    1    6    6    0    0  0.75903101255E+02 -0.35702610397E+01 -0.35893398201E+03  0.36688912629E+03  0.00000000000E+00 0. -1.
        -12    1    6    6    0    0 -0.15755949727E+02 -0.52466106467E+01 -0.21619726571E+03  0.21683411764E+03  0.00000000000E+00 0.  1.
         -5    1    5    5    0  503 -0.46247380556E+01  0.77939855091E+02 -0.20806056078E+03  0.22227752060E+03  0.47000000000E+01 0.  1.
<mgrwt>
<rscale>  2 0.19354532E+03</rscale>
<asrwt>0</asrwt>
<pdfrwt beam="1">  1       21 0.69315139E-02 0.19460914E+03</pdfrwt>
<pdfrwt beam="2">  1       21 0.16553316E+00 0.19460914E+03</pdfrwt>
<totfact> 0.35270958E+04</totfact>
</mgrwt>
</event>
<event>
12    1  0.1441827E-001  0.1745603E+03  0.7546771E-02  0.1173278E+00
         21   -1    0    0  504  503  0.00000000000E+00  0.00000000000E+00  0.33762593846E+02  0.33762593846E+02  0.00000000000E+00 0. -1.
         21   -1    0    0  502  504 -0.00000000000E+00 -0.00000000000E+00 -0.11499056899E+04  0.11499056899E+04  0.00000000000E+00 0. -1.
          6    2    1    2  502    0  0.56529422612E+01  0.74931462270E+00 -0.83427504184E+03  0.85234157039E+03  0.17446716007E+03 0.  0.
         24    2    3    3    0    0 -0.25158459716E+01 -0.44526573208E+02 -0.24949132659E+03  0.26573205909E+03  0.79866513522E+02 0.  0.
         -6    2    1    2    0  503 -0.56529422612E+01 -0.74931462270E+00 -0.28186805420E+03  0.33132671335E+03  0.17405537558E+03 0.  0.
        -24    2    5    5    0    0  0.34108057295E+02 -0.51639786685E+02 -0.13459272723E+03  0.17044511351E+03  0.84298916684E+02 0.  0.
          4    1    4    4  501    0  0.12499230935E+02 -0.58793626110E+01 -0.20287635623E+03  0.20334604397E+03  0.00000000000E+00 0. -1.
         -3    1    4    4    0  501 -0.15015076906E+02 -0.38647210597E+02 -0.46614970352E+02  0.62386015118E+02  0.00000000000E+00 0.  1.
          5    1    3    3  502    0  0.81687882327E+01  0.45275887831E+02 -0.58478371525E+03  0.58660951130E+03  0.47000000000E+01 0. -1.
         13    1    6    6    0    0 -0.13057290964E+02 -0.49012964244E+02 -0.39581779933E+02  0.64338797113E+02  0.00000000000E+00 0. -1.
        -14    1    6    6    0    0  0.47165348260E+02 -0.26268224405E+01 -0.95010947295E+02  0.10610631639E+03  0.00000000000E+00 0.  1.
         -5    1    5    5    0  503 -0.39760999557E+02  0.50890472062E+02 -0.14727532698E+03  0.16088159984E+03  0.47000000000E+01 0.  1.
<mgrwt>
<rscale>  2 0.17445734E+03</rscale>
<asrwt>0</asrwt>
<pdfrwt beam="1">  1       21 0.51942452E-02 0.17456033E+03</pdfrwt>
<pdfrwt beam="2">  1       21 0.17690857E+00 0.17456033E+03</pdfrwt>
<totfact> 0.48713641E+04</totfact>
</mgrwt>
</event>
<event>
12    1  0.1441827E-001  0.1738734E+03  0.7546771E-02  0.1174005E+00
         21   -1    0    0  504  503  0.00000000000E+00  0.00000000000E+00  0.58117480425E+03  0.58117480425E+03  0.00000000000E+00 0. -1.
         21   -1    0    0  502  504 -0.00000000000E+00 -0.00000000000E+00 -0.26124353832E+03  0.26124353832E+03  0.00000000000E+00 0. -1.
          6    2    1    2  502    0  0.66353400671E+01 -0.16417071755E+02 -0.21707873102E+03  0.27812791291E+03  0.17296939757E+03 0.  0.
         24    2    3    3    0    0 -0.53400956905E+02  0.20951834302E+02 -0.98040343479E+02  0.13958903821E+03  0.81132909971E+02 0.  0.
         -6    2    1    2    0  503 -0.66353400671E+01  0.16417071755E+02  0.53700999695E+03  0.56429042965E+03  0.17242506834E+03 0.  0.
        -24    2    5    5    0    0 -0.55563483136E+01  0.62081049437E+02  0.48178010802E+03  0.49246568662E+03  0.80780259384E+02 0.  0.
          2    1    4    4  501    0 -0.21189995569E+02 -0.22191294330E+02 -0.74983760448E+02  0.81018724917E+02  0.00000000000E+00 0. -1.
         -1    1    4    4    0  501 -0.32210961337E+02  0.43143128632E+02 -0.23056583032E+02  0.58570313295E+02  0.00000000000E+00 0.  1.
          5    1    3    3  502    0  0.60036296973E+02 -0.37368906057E+02 -0.11903838754E+03  0.13853887470E+03  0.47000000000E+01 0. -1.
         11    1    6    6    0    0 -0.18452716388E+02  0.56413046831E+02  0.16462821007E+03  0.17500109184E+03  0.00000000000E+00 0. -1.
        -12    1    6    6    0    0  0.12896368074E+02  0.56680026060E+01  0.31715189795E+03  0.31746459478E+03  0.00000000000E+00 0.  1.
         -5    1    5    5    0  503 -0.10789917535E+01 -0.45663977682E+02  0.55229888927E+02  0.71824743034E+02  0.47000000000E+01 0.  1.
<mgrwt>
<rscale>  2 0.17373787E+03</rscale>
<asrwt>0</asrwt>
<pdfrwt beam="1">  1       21 0.89411509E-01 0.17387340E+03</pdfrwt>
<pdfrwt beam="2">  1       21 0.40191314E-01 0.17387340E+03</pdfrwt>
<totfact> 0.64566332E+03</totfact>
</mgrwt>
</event>
<event>
12    1  0.1441827E-001  0.2063195E+03  0.7546771E-02  0.1144516E+00
         21   -1    0    0  504  503  0.00000000000E+00  0.00000000000E+00  0.91518556524E+02  0.91518556524E+02  0.00000000000E+00 0. -1.
         21   -1    0    0  502  504 -0.00000000000E+00 -0.00000000000E+00 -0.17970978819E+04  0.17970978819E+04  0.00000000000E+00 0.  1.
          6    2    1    2  502    0 -0.10528062741E+03  0.38836847735E+02 -0.16657623536E+04  0.16784899746E+04  0.17312442002E+03 0.  0.
         24    2    3    3    0    0 -0.48366572469E+02  0.22313994153E+02 -0.14858890670E+04  0.14890468338E+04  0.80974775440E+02 0.  0.
         -6    2    1    2    0  503  0.10528062741E+03 -0.38836847735E+02 -0.39816971739E+02  0.21012646382E+03  0.17313413387E+03 0.  0.
        -24    2    5    5    0    0 -0.33789033435E+01  0.51865944154E+01 -0.45922898490E+02  0.92634636771E+02  0.80211879261E+02 0.  0.
          4    1    4    4  501    0 -0.39033636869E+02 -0.25541405699E+02 -0.85829141266E+03  0.85955810580E+03  0.00000000000E+00 0. -1.
         -3    1    4    4    0  501 -0.93329356003E+01  0.47855399852E+02 -0.62759765430E+03  0.62948872799E+03  0.00000000000E+00 0.  1.
          5    1    3    3  502    0 -0.56914054937E+02  0.16522853582E+02 -0.17987328666E+03  0.18944314080E+03  0.47000000000E+01 0. -1.
         13    1    6    6    0    0  0.75068977062E+00 -0.21626744417E+02  0.14739132693E+02  0.26182468214E+02  0.00000000000E+00 0. -1.
        -14    1    6    6    0    0 -0.41295931141E+01  0.26813338833E+02 -0.60662031183E+02  0.66452168557E+02  0.00000000000E+00 0.  1.
         -5    1    5    5    0  503  0.10865953075E+03 -0.44023442150E+02  0.61059267510E+01  0.11749182705E+03  0.47000000000E+01 0.  1.
<mgrwt>
<rscale>  2 0.20631747E+03</rscale>
<asrwt>0</asrwt>
<pdfrwt beam="1">  1       21 0.14079777E-01 0.20631951E+03</pdfrwt>
<pdfrwt beam="2">  1       21 0.27647662E+00 0.20631951E+03</pdfrwt>
<totfact> 0.20195425E+03</totfact>
</mgrwt>
</event>
<event>
12    1  0.1441827E-001  0.1813530E+03  0.7546771E-02  0.1166677E+00
         21   -1    0    0  504  503  0.00000000000E+00  0.00000000000E+00  0.11408342986E+03  0.11408342986E+03  0.00000000000E+00 0.  1.
         21   -1    0    0  502  504 -0.00000000000E+00 -0.00000000000E+00 -0.33958199767E+03  0.33958199767E+03  0.00000000000E+00 0.  1.
          6    2    1    2  502    0 -0.15394080693E+02 -0.54529860281E+02 -0.20171447217E+03  0.27075947889E+03  0.17149776601E+03 0.  0.
         24    2    3    3    0    0 -0.31250702745E+02  0.20110238406E+02 -0.16609940694E+03  0.18642028477E+03  0.76042629330E+02 0.  0.
         -6    2    1    2    0  503  0.15394080693E+02  0.54529860281E+02 -0.23784095642E+02  0.18290594864E+03  0.17227425652E+03 0.  0.
        -24    2    5    5    0    0  0.36630840815E+02  0.87020126223E+02  0.18227667416E+02  0.12551522120E+03  0.80669089656E+02 0.  0.
          4    1    4    4  501    0 -0.50601818947E+02 -0.52955114774E+01 -0.82481454895E+02  0.96911180594E+02  0.00000000000E+00 0. -1.
         -3    1    4    4    0  501  0.19351116202E+02  0.25405749884E+02 -0.83617952045E+02  0.89509104171E+02  0.00000000000E+00 0.  1.
          5    1    3    3  502    0  0.15856622052E+02 -0.74640098687E+02 -0.35615065230E+02  0.84339194128E+02  0.47000000000E+01 0. -1.
         11    1    6    6    0    0 -0.12312261687E+02  0.28978950008E+02 -0.23120965303E+02  0.39063414700E+02  0.00000000000E+00 0. -1.
        -12    1    6    6    0    0  0.48943102502E+02  0.58041176215E+02  0.41348632719E+02  0.86451806497E+02  0.00000000000E+00 0.  1.
         -5    1    5    5    0  503 -0.21236760121E+02 -0.32490265943E+02 -0.42011763058E+02  0.57390727446E+02  0.47000000000E+01 0.  1.
<mgrwt>
<rscale>  2 0.18116833E+03</rscale>
<asrwt>0</asrwt>
<pdfrwt beam="1">  1       21 0.17551297E-01 0.18135298E+03</pdfrwt>
<pdfrwt beam="2">  1       21 0.52243385E-01 0.18135298E+03</pdfrwt>
<totfact> 0.10268752E+05</totfact>
</mgrwt>
</event>
<event>
12    1  0.1441827E-001  0.2408735E+03  0.7546771E-02  0.1119266E+00
         21   -1    0    0  504  503  0.00000000000E+00  0.00000000000E+00  0.96067911885E+02  0.96067911885E+02  0.00000000000E+00 0.  1.
         21   -1    0    0  502  504 -0.00000000000E+00 -0.00000000000E+00 -0.73927513155E+03  0.73927513155E+03  0.00000000000E+00 0.  1.
          6    2    1    2  502    0 -0.88876517347E+02 -0.14548273149E+03 -0.50101126465E+03  0.55590676854E+03  0.17016400178E+03 0.  0.
         24    2    3    3    0    0  0.19491097221E+02 -0.18760195009E+02 -0.12513674223E+03  0.14468190579E+03  0.67392891456E+02 0.  0.
         -6    2    1    2    0  503  0.88876517347E+02  0.14548273149E+03 -0.14219595501E+03  0.27943627490E+03  0.16970763568E+03 0.  0.
        -24    2    5    5    0    0  0.86526791735E+02  0.82402627446E+02 -0.15772959305E+03  0.21425955630E+03  0.82167233383E+02 0.  0.
          2    1    4    4  501    0  0.17952470879E+02  0.23914101282E+02 -0.52995366110E+02  0.60849685948E+02  0.00000000000E+00 0. -1.
         -1    1    4    4    0  501  0.15386263420E+01 -0.42674296291E+02 -0.72141376121E+02  0.83832219841E+02  0.00000000000E+00 0.  1.
          5    1    3    3  502    0 -0.10836761457E+03 -0.12672253648E+03 -0.37587452242E+03  0.41122486275E+03  0.47000000000E+01 0. -1.
         11    1    6    6    0    0  0.11400848946E+02 -0.10661757216E+02  0.85098848848E+00  0.15632549537E+02  0.00000000000E+00 0. -1.
        -12    1    6    6    0    0  0.75125942790E+02  0.93064384662E+02 -0.15858058154E+03  0.19862700676E+03  0.00000000000E+00 0.  1.
         -5    1    5    5    0  503  0.23497256116E+01  0.63080104044E+02  0.15533638039E+02  0.65176718599E+02  0.47000000000E+01 0.  1.
<mgrwt>
<rscale>  2 0.24079292E+03</rscale>
<asrwt>0</asrwt>
<pdfrwt beam="1">  1       21 0.14779679E-01 0.24087351E+03</pdfrwt>
<pdfrwt beam="2">  1       21 0.11373464E+00 0.24087351E+03</pdfrwt>
<totfact> 0.23615250E+04</totfact>
</mgrwt>
</event>
<event>
12    1  0.1441827E-001  0.2081841E+03  0.7546771E-02  0.1143044E+00
         21   -1    0    0  504  503  0.00000000000E+00  0.00000000000E+00  0.16882357983E+03  0.16882357983E+03  0.00000000000E+00 0. -1.
         21   -1    0    0  502  504 -0.00000000000E+00 -0.00000000000E+00 -0.27605966793E+04  0.27605966793E+04  0.00000000000E+00 0. -1.
          6    2    1    2  502    0 -0.10052722571E+03  0.67757090357E+02 -0.26909291501E+04  0.26989702320E+04  0.16924501759E+03 0.  0.
         24    2    3    3    0    0 -0.10089380121E+03 -0.45395109381E+01 -0.20128086887E+04  0.20169904793E+04  0.81557402934E+02 0.  0.
         -6    2    1    2    0  503  0.10052722571E+03 -0.67757090357E+02  0.99156050623E+02  0.23045002713E+03  0.16905190394E+03 0.  0.
        -24    2    5    5    0    0  0.72883293464E+02  0.28476409988E+02  0.49287356211E+02  0.11849445442E+03  0.74086516000E+02 0.  0.
          2    1    4    4  501    0 -0.10995689563E+03 -0.20104887199E+02 -0.17201261504E+04  0.17237542454E+04  0.00000000000E+00 0. -1.
         -1    1    4    4    0  501  0.90630944172E+01  0.15565376261E+02 -0.29268253836E+03  0.29323623391E+03  0.00000000000E+00 0.  1.
          5    1    3    3  502    0  0.36657550003E+00  0.72296601295E+02 -0.67812046136E+03  0.68197975267E+03  0.47000000000E+01 0. -1.
         13    1    6    6    0    0 -0.95620543893E+00  0.14550771971E+02 -0.14028160948E+02  0.20234341931E+02  0.00000000000E+00 0. -1.
        -14    1    6    6    0    0  0.73839498903E+02  0.13925638017E+02  0.63315517158E+02  0.98260112484E+02  0.00000000000E+00 0.  1.
         -5    1    5    5    0  503  0.27643932246E+02 -0.96233500344E+02  0.49868694412E+02  0.11195557271E+03  0.47000000000E+01 0.  1.
<mgrwt>
<rscale>  2 0.20814486E+03</rscale>
<asrwt>0</asrwt>
<pdfrwt beam="1">  1       21 0.25972856E-01 0.20818411E+03</pdfrwt>
<pdfrwt beam="2">  1       21 0.42470723E+00 0.20818411E+03</pdfrwt>
<totfact> 0.83283658E+01</totfact>
</mgrwt>
</event>
<event>
12    1  0.1441827E-001  0.1812589E+03  0.7546771E-02  0.1166785E+00
         21   -1    0    0  504  503  0.00000000000E+00  0.00000000000E+00  0.53809074660E+02  0.53809074660E+02  0.00000000000E+00 0.  1.
         21   -1    0    0  502  504 -0.00000000000E+00 -0.00000000000E+00 -0.75291241372E+03  0.75291241372E+03  0.00000000000E+00 0.  1.
          6    2    1    2  502    0  0.48624669862E+02 -0.24725260150E+02 -0.52722847602E+03  0.55751650426E+03  0.17285569009E+03 0.  0.
         24    2    3    3    0    0 -0.52495070935E+01 -0.22030797476E+02 -0.10831867241E+03  0.13512190128E+03  0.77537604109E+02 0.  0.
         -6    2    1    2    0  503 -0.48624669862E+02  0.24725260150E+02 -0.17187486305E+03  0.24920498412E+03  0.17200714681E+03 0.  0.
        -24    2    5    5    0    0 -0.84862412551E+02  0.52293986867E+02 -0.15398551596E+03  0.20005900334E+03  0.79848453729E+02 0.  0.
          2    1    4    4  501    0  0.28399421571E+02 -0.12795750142E+02 -0.90967445382E+02  0.96152662400E+02  0.00000000000E+00 0. -1.
         -1    1    4    4    0  501 -0.33648928665E+02 -0.92350473347E+01 -0.17351227027E+02  0.38969238881E+02  0.00000000000E+00 0.  1.
          5    1    3    3  502    0  0.53874176955E+02 -0.26944626733E+01 -0.41890980361E+03  0.42239460298E+03  0.47000000000E+01 0. -1.
         13    1    6    6    0    0 -0.66530824345E+02  0.99789881649E+00 -0.52037623338E+02  0.84470471958E+02  0.00000000000E+00 0. -1.
        -14    1    6    6    0    0 -0.18331588205E+02  0.51296088050E+02 -0.10194789263E+03  0.11558853138E+03  0.00000000000E+00 0.  1.
         -5    1    5    5    0  503  0.36237742689E+02 -0.27568726717E+02 -0.17889347084E+02  0.49145980783E+02  0.47000000000E+01 0.  1.
<mgrwt>
<rscale>  2 0.18105630E+03</rscale>
<asrwt>0</asrwt>
<pdfrwt beam="1">  1       21 0.82783198E-02 0.18125889E+03</pdfrwt>
<pdfrwt beam="2">  1       21 0.11583267E+00 0.18125889E+03</pdfrwt>
<totfact> 0.65483248E+04</totfact>
</mgrwt>
</event>
<event>
12    1  0.1441827E-001  0.2466972E+03  0.7546771E-02  0.1115689E+00
         21   -1    0    0  504  503  0.00000000000E+00  0.00000000000E+00  0.44675781631E+03  0.44675781631E+03  0.00000000000E+00 0.  1.
         21   -1    0    0  502  504 -0.00000000000E+00 -0.00000000000E+00 -0.14634829918E+03  0.14634829918E+03  0.00000000000E+00 0. -1.
          6    2    1    2  502    0 -0.14377525839E+03  0.10318830501E+03  0.68138884218E+02  0.25427114079E+03  0.16938640524E+03 0.  0.
         24    2    3    3    0    0 -0.10457935732E+03  0.30961324443E+01  0.51021156766E+02  0.14532221577E+03  0.86999769803E+02 0.  0.
         -6    2    1    2    0  503  0.14377525839E+03 -0.10318830501E+03  0.23227063292E+03  0.33883497470E+03  0.17187304021E+03 0.  0.
        -24    2    5    5    0    0  0.77548588950E+02 -0.10456278148E+03  0.22480654427E+03  0.27200935424E+03  0.80647055312E+02 0.  0.
          2    1    4    4  501    0 -0.10625072720E+03  0.26202502836E+02  0.28661237936E+02  0.11312495191E+03  0.00000000000E+00 0. -1.
         -1    1    4    4    0  501  0.16713698810E+01 -0.23106370392E+02  0.22359918829E+02  0.32197263859E+02  0.00000000000E+00 0.  1.
          5    1    3    3  502    0 -0.39195901074E+02  0.10009217257E+03  0.17117727453E+02  0.10894892502E+03  0.47000000000E+01 0. -1.
         11    1    6    6    0    0 -0.12494342345E+02 -0.54401178139E+01  0.49884739220E+02  0.51712577575E+02  0.00000000000E+00 0. -1.
        -12    1    6    6    0    0  0.90042931295E+02 -0.99122663668E+02  0.17492180505E+03  0.22029677667E+03  0.00000000000E+00 0.  1.
         -5    1    5    5    0  503  0.66226669440E+02  0.13744764725E+01  0.74640886499E+01  0.66825620462E+02  0.47000000000E+01 0.  1.
<mgrwt>
<rscale>  2 0.24626455E+03</rscale>
<asrwt>0</asrwt>
<pdfrwt beam="1">  1       21 0.68731971E-01 0.24669717E+03</pdfrwt>
<pdfrwt beam="2">  1       21 0.22515123E-01 0.24669717E+03</pdfrwt>
<totfact> 0.34707743E+04</totfact>
</mgrwt>
</event>
<event>
12    1  0.1441827E-001  0.2274330E+03  0.7546771E-02  0.1128932E+00
         21   -1    0    0  504  503  0.00000000000E+00  0.00000000000E+00  0.63943867963E+02  0.63943867963E+02  0.00000000000E+00 0. -1.
         21   -1    0    0  502  504 -0.00000000000E+00 -0.00000000000E+00 -0.92743194588E+03  0.92743194588E+03  0.00000000000E+00 0.  1.
          6    2    1    2  502    0 -0.61056044031E+02  0.13366388069E+03 -0.61360588805E+03  0.65348991567E+03  0.17012645451E+03 0.  0.
         24    2    3    3    0    0 -0.69512560681E+02  0.89812790051E+02 -0.58308387717E+03  0.59919337829E+03  0.78406399086E+02 0.  0.
         -6    2    1    2    0  503  0.61056044031E+02 -0.13366388069E+03 -0.24988218987E+03  0.33788589817E+03  0.17358541948E+03 0.  0.
        -24    2    5    5    0    0  0.92394749270E+02 -0.14100280830E+03 -0.23458152202E+03  0.30193906603E+03  0.87864255992E+02 0.  0.
          4    1    4    4  501    0  0.16033701109E+02  0.68698729652E+01 -0.10773617750E+03  0.10913917110E+03  0.00000000000E+00 0. -1.
         -3    1    4    4    0  501 -0.85546261789E+02  0.82942917086E+02 -0.47534769967E+03  0.49005420719E+03  0.00000000000E+00 0.  1.
          5    1    3    3  502    0  0.84565166496E+01  0.43851090638E+02 -0.30522010879E+02  0.54296537386E+02  0.47000000000E+01 0. -1.
         11    1    6    6    0    0  0.44356959374E+02 -0.78811427324E+02 -0.54827790556E+02  0.10575853412E+03  0.00000000000E+00 0. -1.
        -12    1    6    6    0    0  0.48037789896E+02 -0.62191380974E+02 -0.17975373146E+03  0.19618053191E+03  0.00000000000E+00 0.  1.
         -5    1    5    5    0  503 -0.31338705239E+02  0.73389276096E+01 -0.15300667850E+02  0.35946832144E+02  0.47000000000E+01 0.  1.
<mgrwt>
<rscale>  2 0.22677291E+03</rscale>
<asrwt>0</asrwt>
<pdfrwt beam="1">  1       21 0.98375183E-02 0.22743300E+03</pdfrwt>
<pdfrwt beam="2">  1       21 0.14268184E+00 0.22743300E+03</pdfrwt>
<totfact> 0.27868839E+04</totfact>
</mgrwt>
</event>
<event>
12    1  0.1441827E-001  0.2026754E+03  0.7546771E-02  0.1148302E+00
         21   -1    0    0  504  503  0.00000000000E+00  0.00000000000E+00  0.36692738481E+02  0.36692738481E+02  0.00000000000E+00 0.  1.
         21   -1    0    0  502  504 -0.00000000000E+00 -0.00000000000E+00 -0.16274361076E+04  0.16274361076E+04  0.00000000000E+00 0.  1.
          6    2    1    2  502    0  0.41566994249E+02  0.98537845956E+02 -0.12748312297E+04  0.12908415814E+04  0.17216213820E+03 0.  0.
         24    2    3    3    0    0  0.35332853229E+02  0.11485156705E+03 -0.65201108710E+03  0.66775890462E+03  0.79650511798E+02 0.  0.
         -6    2    1    2    0  503 -0.41566994249E+02 -0.98537845956E+02 -0.31591213937E+03  0.37328726468E+03  0.16764659279E+03 0.  0.
        -24    2    5    5    0    0 -0.15256567657E+02  0.54071519583E+01 -0.19838490528E+03  0.21412840727E+03  0.78945576248E+02 0.  0.
          4    1    4    4  501    0 -0.13671455039E+02  0.68219903401E+02 -0.43251695511E+03  0.43807736800E+03  0.00000000000E+00 0. -1.
         -3    1    4    4    0  501  0.49004308269E+02  0.46631663652E+02 -0.21949413200E+03  0.22968153662E+03  0.00000000000E+00 0.  1.
          5    1    3    3  502    0  0.62341410198E+01 -0.16313721096E+02 -0.62282014260E+03  0.62308267673E+03  0.47000000000E+01 0. -1.
         13    1    6    6    0    0 -0.90986244513E+01 -0.27046099841E+02 -0.16393781855E+03  0.16640277892E+03  0.00000000000E+00 0. -1.
        -14    1    6    6    0    0 -0.61579432056E+01  0.32453251799E+02 -0.34447086729E+02  0.47725628346E+02  0.00000000000E+00 0.  1.
         -5    1    5    5    0  503 -0.26310426592E+02 -0.10394499791E+03 -0.11752723409E+03  0.15915885741E+03  0.47000000000E+01 0.  1.
<mgrwt>
<rscale>  2 0.20171322E+03</rscale>
<asrwt>0</asrwt>
<pdfrwt beam="1">  1       21 0.56450372E-02 0.20267542E+03</pdfrwt>
<pdfrwt beam="2">  1       21 0.25037476E+00 0.20267542E+03</pdfrwt>
<totfact> 0.14347149E+04</totfact>
</mgrwt>
</event>
<event>
12    1  0.1441827E-001  0.1941541E+03  0.7546771E-02  0.1155066E+00
         21   -1    0    0  504  503  0.00000000000E+00  0.00000000000E+00  0.24795432541E+03  0.24795432541E+03  0.00000000000E+00 0.  1.
         21   -1    0    0  502  504 -0.00000000000E+00 -0.00000000000E+00 -0.16021957682E+03  0.16021957682E+03  0.00000000000E+00 0.  1.
          6    2    1    2  502    0 -0.34508126976E+02  0.81257692085E+02 -0.53255971994E+01  0.19286934928E+03  0.17139603425E+03 0.  0.
         24    2    3    3    0    0 -0.13163275255E+02  0.29614182331E+02 -0.67172944901E+02  0.10938378638E+03  0.80014602329E+02 0.  0.
         -6    2    1    2    0  503  0.34508126976E+02 -0.81257692085E+02  0.93060345794E+02  0.21530455295E+03  0.17292252372E+03 0.  0.
        -24    2    5    5    0    0  0.80557715259E+00 -0.10289275270E+03  0.24006536612E+02  0.13533920873E+03  0.84574346625E+02 0.  0.
          2    1    4    4  501    0 -0.19372484568E+02  0.55940269943E+02 -0.48272803344E+02  0.76386324053E+02  0.00000000000E+00 0. -1.
         -1    1    4    4    0  501  0.62092093133E+01 -0.26326087612E+02 -0.18900141557E+02  0.32997462328E+02  0.00000000000E+00 0.  1.
          5    1    3    3  502    0 -0.21344851722E+02  0.51643509754E+02  0.61847347701E+02  0.83485562898E+02  0.47000000000E+01 0. -1.
         11    1    6    6    0    0 -0.16811393750E+02 -0.57732935299E+02  0.51883597582E+02  0.79420541902E+02  0.00000000000E+00 0. -1.
        -12    1    6    6    0    0  0.17616970903E+02 -0.45159817404E+02 -0.27877060970E+02  0.55918666830E+02  0.00000000000E+00 0.  1.
         -5    1    5    5    0  503  0.33702549824E+02  0.21635060617E+02  0.69053809182E+02  0.79965344213E+02  0.47000000000E+01 0.  1.
<mgrwt>
<rscale>  2 0.19381365E+03</rscale>
<asrwt>0</asrwt>
<pdfrwt beam="1">  1       21 0.38146819E-01 0.19415412E+03</pdfrwt>
<pdfrwt beam="2">  1       21 0.24649166E-01 0.19415412E+03</pdfrwt>
<totfact> 0.10306765E+05</totfact>
</mgrwt>
</event>
<event>
12    1  0.1441827E-001  0.1978881E+03  0.7546771E-02  0.1152147E+00
         21   -1    0    0  504  503  0.00000000000E+00  0.00000000000E+00  0.43769179372E+02  0.43769179372E+02  0.00000000000E+00 0.  1.
         21   -1    0    0  502  504 -0.00000000000E+00 -0.00000000000E+00 -0.98097178616E+03  0.98097178616E+03  0.00000000000E+00 0.  1.
          6    2    1    2  502    0  0.87316950118E+02  0.20340618881E+02 -0.30267719407E+03  0.36007397240E+03  0.17321025154E+03 0.  0.
         24    2    3    3    0    0  0.11308198813E+03  0.13215060035E+02 -0.14741320167E+03  0.20245541985E+03  0.79343374955E+02 0.  0.
         -6    2    1    2    0  503 -0.87316950118E+02 -0.20340618881E+02 -0.63452541271E+03  0.66466699313E+03  0.17641349670E+03 0.  0.
        -24    2    5    5    0    0 -0.43916856811E+02 -0.81735249944E+02 -0.40463253304E+03  0.42274614875E+03  0.79859113989E+02 0.  0.
          4    1    4    4  501    0  0.33023445831E+02 -0.91808857699E+01 -0.12426437554E+01  0.34298408149E+02  0.00000000000E+00 0. -1.
         -3    1    4    4    0  501  0.80058542296E+02  0.22395945805E+02 -0.14617055791E+03  0.16815701170E+03  0.00000000000E+00 0.  1.
          5    1    3    3  502    0 -0.25765038008E+02  0.71255588461E+01 -0.15526399241E+03  0.15761855256E+03  0.47000000000E+01 0. -1.
         11    1    6    6    0    0 -0.21728262833E+02 -0.42593265027E+02 -0.68047331594E+02  0.83166958393E+02  0.00000000000E+00 0. -1.
        -12    1    6    6    0    0 -0.22188593979E+02 -0.39141984918E+02 -0.33658520145E+03  0.33957919035E+03  0.00000000000E+00 0.  1.
         -5    1    5    5    0  503 -0.43400093307E+02  0.61394631063E+02 -0.22989287967E+03  0.24192084438E+03  0.47000000000E+01 0.  1.
<mgrwt>
<rscale>  2 0.19717169E+03</rscale>
<asrwt>0</asrwt>
<pdfrwt beam="1">  1       21 0.67337206E-02 0.19788813E+03</pdfrwt>
<pdfrwt beam="2">  1       21 0.15091872E+00 0.19788813E+03</pdfrwt>
<totfact> 0.47427605E+04</totfact>
</mgrwt>
</event>
<event>
12    1  0.1441827E-001  0.2303618E+03  0.7546771E-02  0.1127755E+00
         21   -1    0    0  504  503  0.00000000000E+00  0.00000000000E+00  0.11843149449E+03  0.11843149449E+03  0.00000000000E+00 0.  1.
         21   -1    0    0  502  504 -0.00000000000E+00 -0.00000000000E+00 -0.59063423366E+03  0.59063423366E+03  0.00000000000E+00 0. -1.
          6    2    1    2  502    0  0.12592131728E+03 -0.61065869343E+02 -0.50212893097E+02  0.22829343539E+03  0.17323781188E+03 0.  0.
         24    2    3    3    0    0  0.14841362360E+03 -0.49623103641E+02 -0.70357484940E+02  0.19566315327E+03  0.94046997698E+02 0.  0.
         -6    2    1    2    0  503 -0.12592131728E+03  0.61065869343E+02 -0.42198984607E+03  0.48077229276E+03  0.18297909377E+03 0.  0.
        -24    2    5    5    0    0 -0.10607844556E+03  0.11006100908E+03 -0.36408070190E+03  0.40222407665E+03  0.76572762835E+02 0.  0.
          4    1    4    4  501    0  0.13887486905E+03 -0.64674234990E+02 -0.82598457020E+02  0.17404450876E+03  0.00000000000E+00 0. -1.
         -3    1    4    4    0  501  0.95387545460E+01  0.15051131349E+02  0.12240972081E+02  0.21618644515E+02  0.00000000000E+00 0.  1.
          5    1    3    3  502    0 -0.22492306322E+02 -0.11442765701E+02  0.20144591843E+02  0.32630282118E+02  0.47000000000E+01 0. -1.
         11    1    6    6    0    0  0.62371627896E+01  0.26855633445E+02 -0.34043126262E+02  0.43807096378E+02  0.00000000000E+00 0. -1.
        -12    1    6    6    0    0 -0.11231560835E+03  0.83205375636E+02 -0.33003757564E+03  0.35841698027E+03  0.00000000000E+00 0.  1.
         -5    1    5    5    0  503 -0.19842871713E+02 -0.48995139738E+02 -0.57909144168E+02  0.78548216110E+02  0.47000000000E+01 0.  1.
<mgrwt>
<rscale>  2 0.22842273E+03</rscale>
<asrwt>0</asrwt>
<pdfrwt beam="1">  1       21 0.18220230E-01 0.23036182E+03</pdfrwt>
<pdfrwt beam="2">  1       21 0.90866807E-01 0.23036182E+03</pdfrwt>
<totfact> 0.27630100E+04</totfact>
</mgrwt>
</event>
<event>
12    1  0.1441827E-001  0.1868161E+03  0.7546771E-02  0.1161422E+00
         21   -1    0    0  504  503  0.00000000000E+00  0.00000000000E+00  0.92295730337E+03  0.92295730337E+03  0.00000000000E+00 0. -1.
         21   -1    0    0  502  504 -0.00000000000E+00 -0.00000000000E+00 -0.38924891862E+02  0.38924891862E+02  0.00000000000E+00 0. -1.
          6    2    1    2  502    0  0.95703978381E+01 -0.70096172934E+02  0.35921380532E+03  0.40488862088E+03  0.17290220187E+03 0.  0.
         24    2    3    3    0    0 -0.87262258499E+01  0.13282145616E+02  0.77407472806E+02  0.11039989531E+03  0.77095120657E+02 0.  0.
         -6    2    1    2    0  503 -0.95703978381E+01  0.70096172934E+02  0.52481860619E+03  0.55699357435E+03  0.17263315583E+03 0.  0.
        -24    2    5    5    0    0 -0.34087143151E+02  0.43139543689E+02  0.13832319462E+03  0.16875585874E+03  0.79512767091E+02 0.  0.
          2    1    4    4  501    0  0.10396393541E+02 -0.28731410305E+02  0.43346442898E+02  0.53032943051E+02  0.00000000000E+00 0. -1.
         -1    1    4    4    0  501 -0.19122619390E+02  0.42013555921E+02  0.34061029908E+02  0.57366952262E+02  0.00000000000E+00 0.  1.
          5    1    3    3  502    0  0.18296623688E+02 -0.83378318550E+02  0.28180633251E+03  0.29448872557E+03  0.47000000000E+01 0. -1.
         13    1    6    6    0    0 -0.19715844153E+02  0.44245145695E+02  0.24981969641E+02  0.54501800295E+02  0.00000000000E+00 0. -1.
        -14    1    6    6    0    0 -0.14371298998E+02 -0.11056020059E+01  0.11334122498E+03  0.11425405845E+03  0.00000000000E+00 0.  1.
         -5    1    5    5    0  503  0.24516745313E+02  0.26956629244E+02  0.38649541157E+03  0.38823771561E+03  0.47000000000E+01 0.  1.
<mgrwt>
<rscale>  2 0.18675378E+03</rscale>
<asrwt>0</asrwt>
<pdfrwt beam="1">  1       21 0.14199341E+00 0.18681605E+03</pdfrwt>
<pdfrwt beam="2">  1       21 0.59884456E-02 0.18681605E+03</pdfrwt>
<totfact> 0.68447024E+04</totfact>
</mgrwt>
</event>
<event>
12    1  0.1441827E-001  0.2232283E+03  0.7546771E-02  0.1131525E+00
         21   -1    0    0  504  503  0.00000000000E+00  0.00000000000E+00  0.89588570861E+02  0.89588570861E+02  0.00000000000E+00 0. -1.
         21   -1    0    0  502  504 -0.00000000000E+00 -0.00000000000E+00 -0.73285375532E+03  0.73285375532E+03  0.00000000000E+00 0.  1.
          6    2    1    2  502    0 -0.13448469885E+03 -0.40678247794E+02 -0.52379444821E+03  0.56937815413E+03  0.17346470637E+03 0.  0.
         24    2    3    3    0    0 -0.15492478113E+03 -0.63727722567E+02 -0.48877659433E+03  0.52250155719E+03  0.77732925212E+02 0.  0.
         -6    2    1    2    0  503  0.13448469885E+03  0.40678247794E+02 -0.11947073625E+03  0.25306417205E+03  0.17328405664E+03 0.  0.
        -24    2    5    5    0    0  0.79872770084E+02  0.60710370567E+02 -0.12988102632E+02  0.13163769237E+03  0.84228158868E+02 0.  0.
          4    1    4    4  501    0 -0.47667864251E+02 -0.90879985983E+01 -0.60099875996E+02  0.77245142861E+02  0.00000000000E+00 0. -1.
         -3    1    4    4    0  501 -0.10725691688E+03 -0.54639723969E+02 -0.42867671834E+03  0.44525641433E+03  0.00000000000E+00 0.  1.
          5    1    3    3  502    0  0.20440082281E+02  0.23049474773E+02 -0.35017853879E+02  0.46876596946E+02  0.47000000000E+01 0. -1.
         11    1    6    6    0    0  0.80338358043E+02  0.16328203212E+02 -0.24906425271E+02  0.85680756375E+02  0.00000000000E+00 0. -1.
        -12    1    6    6    0    0 -0.46558795924E+00  0.44382167355E+02  0.11918322638E+02  0.45956935992E+02  0.00000000000E+00 0.  1.
         -5    1    5    5    0  503  0.54611928767E+02 -0.20032122773E+02 -0.10648263362E+03  0.12142647968E+03  0.47000000000E+01 0.  1.
<mgrwt>
<rscale>  2 0.22319317E+03</rscale>
<asrwt>0</asrwt>
<pdfrwt beam="1">  1       21 0.13782857E-01 0.22322827E+03</pdfrwt>
<pdfrwt beam="2">  1       21 0.11274673E+00 0.22322827E+03</pdfrwt>
<totfact> 0.27650945E+04</totfact>
</mgrwt>
</event>
<event>
12    1  0.1441827E-001  0.2739575E+03  0.7546771E-02  0.1099122E+00
         21   -1    0    0  504  503  0.00000000000E+00  0.00000000000E+00  0.16868140289E+03  0.16868140289E+03  0.00000000000E+00 0. -1.
         21   -1    0    0  502  504 -0.00000000000E+00 -0.00000000000E+00 -0.10050333079E+04  0.10050333079E+04  0.00000000000E+00 0. -1.
          6    2    1    2  502    0  0.29241757711E+02  0.20976928645E+03 -0.85645919175E+03  0.89902030849E+03  0.17279159128E+03 0.  0.
         24    2    3    3    0    0  0.64441961725E+01  0.69151706374E+02 -0.56183742315E+03  0.57173280617E+03  0.79960149128E+02 0.  0.
         -6    2    1    2    0  503 -0.29241757711E+02 -0.20976928645E+03  0.20107286695E+02  0.27469440234E+03  0.17376558281E+03 0.  0.
        -24    2    5    5    0    0 -0.62153892378E+01 -0.21977104447E+03  0.45765563239E+02  0.23849100521E+03  0.80284056571E+02 0.  0.
          4    1    4    4  501    0  0.80259343172E+01  0.77135035501E+02 -0.30298653446E+03  0.31275400779E+03  0.00000000000E+00 0. -1.
         -3    1    4    4    0  501 -0.15817381447E+01 -0.79833291272E+01 -0.25885088868E+03  0.25897879838E+03  0.00000000000E+00 0.  1.
          5    1    3    3  502    0  0.22797561539E+02  0.14061758008E+03 -0.29462176860E+03  0.32728750232E+03  0.47000000000E+01 0. -1.
         11    1    6    6    0    0 -0.30432017186E+02 -0.10775195142E+03 -0.72801696789E+01  0.11220334922E+03  0.00000000000E+00 0. -1.
        -12    1    6    6    0    0  0.24216627948E+02 -0.11201909304E+03  0.53045732918E+02  0.12628765599E+03  0.00000000000E+00 0.  1.
         -5    1    5    5    0  503 -0.23026368473E+02  0.10001758016E+02 -0.25658276544E+02  0.36203397129E+02  0.47000000000E+01 0.  1.
<mgrwt>
<rscale>  2 0.27380318E+03</rscale>
<asrwt>0</asrwt>
<pdfrwt beam="1">  1       21 0.25950985E-01 0.27395750E+03</pdfrwt>
<pdfrwt beam="2">  1       21 0.15462051E+00 0.27395750E+03</pdfrwt>
<totfact> 0.36583468E+03</totfact>
</mgrwt>
</event>
<event>
12    1  0.1441827E-001  0.1791437E+03  0.7546771E-02  0.1169487E+00
         21   -1    0    0  504  503  0.00000000000E+00  0.00000000000E+00  0.56640736118E+02  0.56640736118E+02  0.00000000000E+00 0.  1.
         21   -1    0    0  502  504 -0.00000000000E+00 -0.00000000000E+00 -0.55586464697E+03  0.55586464697E+03  0.00000000000E+00 0.  1.
          6    2    1    2  502    0  0.98529622405E+01 -0.31059190338E+02 -0.25264989745E+03  0.30772476514E+03  0.17262910018E+03 0.  0.
         24    2    3    3    0    0  0.21886838638E+02 -0.75168033891E+02 -0.23168337401E+03  0.25720655688E+03  0.79679106946E+02 0.  0.
         -6    2    1    2    0  503 -0.98529622405E+01  0.31059190338E+02 -0.24657401340E+03  0.30478061795E+03  0.17615540532E+03 0.  0.
        -24    2    5    5    0    0 -0.17767035870E+02  0.79787759474E+02 -0.23373621618E+03  0.25355557477E+03  0.54553245693E+02 0.  0.
          4    1    4    4  501    0  0.19017906687E+01 -0.47877796715E+02 -0.21348554652E+03  0.21879666085E+03  0.00000000000E+00 0. -1.
         -3    1    4    4    0  501  0.19985047969E+02 -0.27290237176E+02 -0.18197827487E+02  0.38409896026E+02  0.00000000000E+00 0.  1.
          5    1    3    3  502    0 -0.12033876397E+02  0.44108843553E+02 -0.20966523445E+02  0.50518208262E+02  0.47000000000E+01 0. -1.
         11    1    6    6    0    0  0.10012775011E+02  0.20669738582E+01 -0.73462764471E+01  0.12589512381E+02  0.00000000000E+00 0. -1.
        -12    1    6    6    0    0 -0.27779810881E+02  0.77720785616E+02 -0.22638993973E+03  0.24096606239E+03  0.00000000000E+00 0.  1.
         -5    1    5    5    0  503  0.79140736294E+01 -0.48728569136E+02 -0.12837797218E+02  0.51225043180E+02  0.47000000000E+01 0.  1.
<mgrwt>
<rscale>  2 0.17827081E+03</rscale>
<asrwt>0</asrwt>
<pdfrwt beam="1">  1       21 0.87139591E-02 0.17914374E+03</pdfrwt>
<pdfrwt beam="2">  1       21 0.85517641E-01 0.17914374E+03</pdfrwt>
<totfact> 0.12277028E+05</totfact>
</mgrwt>
</event>
<event>
12    1  0.1441827E-001  0.1875804E+03  0.7546771E-02  0.1161061E+00
         21   -1    0    0  504  503  0.00000000000E+00  0.00000000000E+00  0.33295451990E+03  0.33295451990E+03  0.00000000000E+00 0.  1.
         21   -1    0    0  502  504 -0.00000000000E+00 -0.00000000000E+00 -0.11053587105E+03  0.11053587105E+03  0.00000000000E+00 0.  1.
          6    2    1    2  502    0  0.70971297106E+02 -0.81806355510E+01  0.16262108051E+03  0.24825798012E+03  0.17344325025E+03 0.  0.
         24    2    3    3    0    0  0.87381775931E+02 -0.55622447452E+02  0.14210184693E+03  0.19382308067E+03  0.81516993774E+02 0.  0.
         -6    2    1    2    0  503 -0.70971297106E+02  0.81806355510E+01  0.59797568338E+02  0.19523241083E+03  0.17156951142E+03 0.  0.
        -24    2    5    5    0    0  0.43270691644E+01  0.16372952527E+02 -0.20528523130E+02  0.84727528624E+02  0.80439646585E+02 0.  0.
          4    1    4    4  501    0  0.61207951222E+02 -0.76682764362E+02  0.10912521028E+03  0.14674798521E+03  0.00000000000E+00 0. -1.
         -3    1    4    4    0  501  0.26173824709E+02  0.21060316910E+02  0.32976636650E+02  0.47075095464E+02  0.00000000000E+00 0.  1.
          5    1    3    3  502    0 -0.16410478825E+02  0.47441811901E+02  0.20519233574E+02  0.54434899451E+02  0.47000000000E+01 0. -1.
         13    1    6    6    0    0  0.62656069280E+00 -0.31483674431E+02 -0.18845959835E+02  0.36698563134E+02  0.00000000000E+00 0. -1.
        -14    1    6    6    0    0  0.37005084716E+01  0.47856626958E+02 -0.16825632943E+01  0.48028965490E+02  0.00000000000E+00 0.  1.
         -5    1    5    5    0  503 -0.75298366270E+02 -0.81923169764E+01  0.80326091468E+02  0.11050488220E+03  0.47000000000E+01 0.  1.
<mgrwt>
<rscale>  2 0.18714611E+03</rscale>
<asrwt>0</asrwt>
<pdfrwt beam="1">  1       21 0.51223772E-01 0.18758041E+03</pdfrwt>
<pdfrwt beam="2">  1       21 0.17005519E-01 0.18758041E+03</pdfrwt>
<totfact> 0.11315933E+05</totfact>
</mgrwt>
</event>
<event>
12    1  0.1441827E-001  0.2021310E+03  0.7546771E-02  0.1148020E+00
         21   -1    0    0  504  503  0.00000000000E+00  0.00000000000E+00  0.45670021301E+03  0.45670021301E+03  0.00000000000E+00 0. -1.
         21   -1    0    0  502  504 -0.00000000000E+00 -0.00000000000E+00 -0.19424714275E+03  0.19424714275E+03  0.00000000000E+00 0.  1.
          6    2    1    2  502    0  0.23590870042E+02  0.10095138471E+03 -0.10803401748E+03  0.22890751223E+03  0.17314614924E+03 0.  0.
         24    2    3    3    0    0  0.48626242624E+02  0.99230804426E+02 -0.13478534020E+03  0.19192841619E+03  0.80362708952E+02 0.  0.
         -6    2    1    2    0  503 -0.23590870042E+02 -0.10095138471E+03  0.37048708774E+03  0.42203984353E+03  0.17352013175E+03 0.  0.
        -24    2    5    5    0    0 -0.37747334054E+02 -0.11311060846E+03  0.37539756642E+03  0.40217895241E+03  0.81275493926E+02 0.  0.
          4    1    4    4  501    0  0.60191710162E+02  0.45821843279E+02 -0.48719209696E+02  0.89979134732E+02  0.00000000000E+00 0. -1.
         -3    1    4    4    0  501 -0.11565467538E+02  0.53408961148E+02 -0.86066130502E+02  0.10194928146E+03  0.00000000000E+00 0.  1.
          5    1    3    3  502    0 -0.25035372583E+02  0.17205802867E+01  0.26751322718E+02  0.36979096041E+02  0.47000000000E+01 0. -1.
         11    1    6    6    0    0  0.48327965165E+01 -0.74008656106E+02  0.28796489700E+03  0.29736243711E+03  0.00000000000E+00 0. -1.
        -12    1    6    6    0    0 -0.42580130570E+02 -0.39101952351E+02  0.87432669417E+02  0.10481651529E+03  0.00000000000E+00 0.  1.
         -5    1    5    5    0  503  0.14156464012E+02  0.12159223743E+02 -0.49104786818E+01  0.19860891124E+02  0.47000000000E+01 0.  1.
<mgrwt>
<rscale>  2 0.20205073E+03</rscale>
<asrwt>0</asrwt>
<pdfrwt beam="1">  1       21 0.70261571E-01 0.20213102E+03</pdfrwt>
<pdfrwt beam="2">  1       21 0.29884176E-01 0.20213102E+03</pdfrwt>
<totfact> 0.19617933E+04</totfact>
</mgrwt>
</event>
<event>
12    1  0.1441827E-001  0.1761216E+03  0.7546771E-02  0.1171772E+00
         21   -1    0    0  504  503  0.00000000000E+00  0.00000000000E+00  0.62347201249E+02  0.62347201249E+02  0.00000000000E+00 0. -1.
         21   -1    0    0  502  504 -0.00000000000E+00 -0.00000000000E+00 -0.54089655078E+03  0.54089655078E+03  0.00000000000E+00 0. -1.
          6    2    1    2  502    0  0.11096669277E+02  0.38544569561E+02 -0.15247993613E+03  0.23295697879E+03  0.17149344924E+03 0.  0.
         24    2    3    3    0    0  0.29336514158E+02  0.64344056123E+02 -0.16659733609E+03  0.19803282626E+03  0.80383700241E+02 0.  0.
         -6    2    1    2    0  503 -0.11096669277E+02 -0.38544569561E+02 -0.32606941340E+03  0.37028677324E+03  0.17082801927E+03 0.  0.
        -24    2    5    5    0    0  0.35496622679E+02 -0.29918343578E+02 -0.30386766756E+03  0.31774770065E+03  0.80454486376E+02 0.  0.
          4    1    4    4  501    0 -0.27797461572E+02  0.26982616852E+02 -0.57228331816E+02  0.69107470251E+02  0.00000000000E+00 0. -1.
         -3    1    4    4    0  501  0.57133975730E+02  0.37361439270E+02 -0.10936900427E+03  0.12892535601E+03  0.00000000000E+00 0.  1.
          5    1    3    3  502    0 -0.18239844881E+02 -0.25799486562E+02  0.14117399958E+02  0.34924152527E+02  0.47000000000E+01 0. -1.
         13    1    6    6    0    0 -0.36679608906E+01 -0.34440328259E+02 -0.49923349857E+02  0.60761262402E+02  0.00000000000E+00 0. -1.
        -14    1    6    6    0    0  0.39164583569E+02  0.45219846812E+01 -0.25394431770E+03  0.25698643825E+03  0.00000000000E+00 0.  1.
         -5    1    5    5    0  503 -0.46593291956E+02 -0.86262259826E+01 -0.22201745842E+02  0.52539072588E+02  0.47000000000E+01 0.  1.
<mgrwt>
<rscale>  2 0.17595942E+03</rscale>
<asrwt>0</asrwt>
<pdfrwt beam="1">  1       21 0.95918768E-02 0.17612161E+03</pdfrwt>
<pdfrwt beam="2">  1       21 0.83214857E-01 0.17612161E+03</pdfrwt>
<totfact> 0.11054875E+05</totfact>
</mgrwt>
</event>
<event>
12    1  0.1441827E-001  0.2053046E+03  0.7546771E-02  0.1145964E+00
         21   -1    0    0  504  503  0.00000000000E+00  0.00000000000E+00  0.67416400101E+03  0.67416400101E+03  0.00000000000E+00 0. -1.
         21   -1    0    0  502  504 -0.00000000000E+00 -0.00000000000E+00 -0.73570951158E+02  0.73570951158E+02  0.00000000000E+00 0.  1.
          6    2    1    2  502    0 -0.96793808564E+02  0.36959334024E+02  0.45298530428E+03  0.49733858267E+03  0.17724261951E+03 0.  0.
         24    2    3    3    0    0  0.15913640895E+02  0.59492018205E+02  0.20751985079E+03  0.22625544067E+03  0.65836857188E+02 0.  0.
         -6    2    1    2    0  503  0.96793808564E+02 -0.36959334024E+02  0.14760774557E+03  0.25039636949E+03  0.17371028051E+03 0.  0.
        -24    2    5    5    0    0  0.81039505980E+02  0.41955275080E+02  0.93375644741E+02  0.15324224277E+03  0.80227970813E+02 0.  0.
          4    1    4    4  501    0  0.68365673187E+01  0.37891703816E+02  0.19672615115E+03  0.20045871998E+03  0.00000000000E+00 0. -1.
         -3    1    4    4    0  501  0.90770735762E+01  0.21600314389E+02  0.10793699643E+02  0.25796720691E+02  0.00000000000E+00 0.  1.
          5    1    3    3  502    0 -0.11270744946E+03 -0.22532684182E+02  0.24546545349E+03  0.27108314200E+03  0.47000000000E+01 0. -1.
         13    1    6    6    0    0  0.73006192774E+02 -0.56340637183E+01  0.54848622937E+02  0.91487804080E+02  0.00000000000E+00 0. -1.
        -14    1    6    6    0    0  0.80333132056E+01  0.47589338798E+02  0.38527021804E+02  0.61754438686E+02  0.00000000000E+00 0.  1.
         -5    1    5    5    0  503  0.15754302584E+02 -0.78914609103E+02  0.54232100828E+02  0.97154126727E+02  0.47000000000E+01 0.  1.
<mgrwt>
<rscale>  2 0.20453992E+03</rscale>
<asrwt>0</asrwt>
<pdfrwt beam="1">  1       21 0.10371753E+00 0.20530460E+03</pdfrwt>
<pdfrwt beam="2">  1       21 0.11318608E-01 0.20530460E+03</pdfrwt>
<totfact> 0.48693445E+04</totfact>
</mgrwt>
</event>
<event>
12    1  0.1441827E-001  0.2086713E+03  0.7546771E-02  0.1142734E+00
         21   -1    0    0  504  503  0.00000000000E+00  0.00000000000E+00  0.26035760356E+03  0.26035760356E+03  0.00000000000E+00 0. -1.
         21   -1    0    0  502  504 -0.00000000000E+00 -0.00000000000E+00 -0.17071883587E+03  0.17071883587E+03  0.00000000000E+00 0. -1.
          6    2    1    2  502    0  0.69005070710E+02 -0.96444606809E+02  0.12098957783E+02  0.20846435244E+03  0.17101970499E+03 0.  0.
         24    2    3    3    0    0  0.62193323170E+02 -0.38258217866E+02 -0.52767084701E+02  0.12093293391E+03  0.80676567818E+02 0.  0.
         -6    2    1    2    0  503 -0.69005070710E+02  0.96444606809E+02  0.77539809903E+02  0.22261208699E+03  0.17169873962E+03 0.  0.
        -24    2    5    5    0    0  0.16076119217E+02  0.91946102880E+02  0.42211975594E+02  0.13025846608E+03  0.80454270607E+02 0.  0.
          4    1    4    4  501    0  0.27116373674E+02 -0.42195100130E+02 -0.66296095795E+02  0.83131802061E+02  0.00000000000E+00 0. -1.
         -3    1    4    4    0  501  0.35076949496E+02  0.39368822635E+01  0.13529011094E+02  0.37801131849E+02  0.00000000000E+00 0.  1.
          5    1    3    3  502    0  0.68117475404E+01 -0.58186388943E+02  0.64866042484E+02  0.87531418532E+02  0.47000000000E+01 0. -1.
         13    1    6    6    0    0  0.46366929167E+02  0.60977632479E+02  0.41081058900E+02  0.86924203669E+02  0.00000000000E+00 0. -1.
        -14    1    6    6    0    0 -0.30290809950E+02  0.30968470401E+02  0.11309166940E+01  0.43334262414E+02  0.00000000000E+00 0.  1.
         -5    1    5    5    0  503 -0.85081189927E+02  0.44985039292E+01  0.35327834309E+02  0.92353620904E+02  0.47000000000E+01 0.  1.
<mgrwt>
<rscale>  2 0.20853159E+03</rscale>
<asrwt>0</asrwt>
<pdfrwt beam="1">  1       21 0.40055016E-01 0.20867132E+03</pdfrwt>
<pdfrwt beam="2">  1       21 0.26264436E-01 0.20867132E+03</pdfrwt>
<totfact> 0.82224401E+04</totfact>
</mgrwt>
</event>
<event>
12    1  0.1441827E-001  0.1987152E+03  0.7546771E-02  0.1153800E+00
         21   -1    0    0  504  503  0.00000000000E+00  0.00000000000E+00  0.63095564834E+03  0.63095564834E+03  0.00000000000E+00 0. -1.
         21   -1    0    0  502  504 -0.00000000000E+00 -0.00000000000E+00 -0.62679197757E+02  0.62679197757E+02  0.00000000000E+00 0. -1.
          6    2    1    2  502    0  0.38582537248E+01 -0.67506281235E+02  0.20303153952E+03  0.28409422074E+03  0.18685752886E+03 0.  0.
         24    2    3    3    0    0  0.52343406969E+02 -0.95216641686E+02  0.17787390109E+03  0.22266400885E+03  0.78320463756E+02 0.  0.
         -6    2    1    2    0  503 -0.38582537248E+01  0.67506281235E+02  0.36524491106E+03  0.40954062535E+03  0.17247520004E+03 0.  0.
        -24    2    5    5    0    0  0.41484145546E+02  0.95756047911E+02  0.26854296720E+03  0.29896332915E+03  0.79834778756E+02 0.  0.
          4    1    4    4  501    0  0.61384331075E+02 -0.69797570067E+02  0.85015471005E+02  0.12596573820E+03  0.00000000000E+00 0. -1.
         -3    1    4    4    0  501 -0.90409241054E+01 -0.25419071619E+02  0.92858430084E+02  0.96698270658E+02  0.00000000000E+00 0.  1.
          5    1    3    3  502    0 -0.48485153245E+02  0.27710360451E+02  0.25157638426E+02  0.61430211888E+02  0.47000000000E+01 0. -1.
         11    1    6    6    0    0 -0.11724986167E+02  0.70233924218E+02  0.16645682587E+03  0.18104738134E+03  0.00000000000E+00 0. -1.
        -12    1    6    6    0    0  0.53209131713E+02  0.25522123693E+02  0.10208614134E+03  0.11791594781E+03  0.00000000000E+00 0.  1.
         -5    1    5    5    0  503 -0.45342399271E+02 -0.28249766676E+02  0.96701943860E+02  0.11057729620E+03  0.47000000000E+01 0.  1.
<mgrwt>
<rscale>  2 0.19526130E+03</rscale>
<asrwt>0</asrwt>
<pdfrwt beam="1">  1       21 0.97070096E-01 0.19871517E+03</pdfrwt>
<pdfrwt beam="2">  1       21 0.96429539E-02 0.19871517E+03</pdfrwt>
<totfact> 0.75982236E+04</totfact>
</mgrwt>
</event>
<event>
12    1  0.1441827E-001  0.2239008E+03  0.7546771E-02  0.1131261E+00
         21   -1    0    0  504  503  0.00000000000E+00  0.00000000000E+00  0.18413898587E+03  0.18413898587E+03  0.00000000000E+00 0.  1.
         21   -1    0    0  502  504 -0.00000000000E+00 -0.00000000000E+00 -0.40900381689E+03  0.40900381689E+03  0.00000000000E+00 0.  1.
          6    2    1    2  502    0  0.13809732128E+03  0.20839658976E+02 -0.28520167932E+03  0.36259007080E+03  0.17500400002E+03 0.  0.
         24    2    3    3    0    0  0.12021926026E+03 -0.15842806703E+02 -0.28600806355E+03  0.32150517565E+03  0.82832967417E+02 0.  0.
         -6    2    1    2    0  503 -0.13809732128E+03 -0.20839658976E+02  0.60336848308E+02  0.23055273196E+03  0.17323067113E+03 0.  0.
        -24    2    5    5    0    0 -0.39527880430E+02 -0.30928034050E+02 -0.26219119400E+02  0.98902682487E+02  0.81088234409E+02 0.  0.
          4    1    4    4  501    0  0.45892993936E+02 -0.37701111893E+02 -0.68778130290E+02  0.90873384094E+02  0.00000000000E+00 0. -1.
         -3    1    4    4    0  501  0.74326266321E+02  0.21858305190E+02 -0.21722993326E+03  0.23063179155E+03  0.00000000000E+00 0.  1.
          5    1    3    3  502    0  0.17878061026E+02  0.36682465679E+02  0.80638422513E+00  0.41084895155E+02  0.47000000000E+01 0. -1.
         11    1    6    6    0    0  0.98756745427E+01 -0.42384208273E+02 -0.19700866422E+02  0.47771060239E+02  0.00000000000E+00 0. -1.
        -12    1    6    6    0    0 -0.49403554973E+02  0.11456174223E+02 -0.65182529782E+01  0.51131622248E+02  0.00000000000E+00 0.  1.
         -5    1    5    5    0  503 -0.98569440852E+02  0.10088375074E+02  0.86555967708E+02  0.13165004948E+03  0.47000000000E+01 0.  1.
<mgrwt>
<rscale>  2 0.22355415E+03</rscale>
<asrwt>0</asrwt>
<pdfrwt beam="1">  1       21 0.28329075E-01 0.22390079E+03</pdfrwt>
<pdfrwt beam="2">  1       21 0.62923663E-01 0.22390079E+03</pdfrwt>
<totfact> 0.27386630E+04</totfact>
</mgrwt>
</event>
<event>
12    1  0.1441827E-001  0.2204100E+03  0.7546771E-02  0.1134104E+00
         21   -1    0    0  504  503  0.00000000000E+00  0.00000000000E+00  0.18569903301E+03  0.18569903301E+03  0.00000000000E+00 0. -1.
         21   -1    0    0  502  504 -0.00000000000E+00 -0.00000000000E+00 -0.44212905928E+03  0.44212905928E+03  0.00000000000E+00 0.  1.
          6    2    1    2  502    0 -0.45211481263E+02 -0.12929517007E+03 -0.33111680510E+03  0.39776738096E+03  0.17268245914E+03 0.  0.
         24    2    3    3    0    0 -0.98353445513E+01 -0.14259113879E+03 -0.31795329990E+03  0.35747319153E+03  0.79144266257E+02 0.  0.
         -6    2    1    2    0  503  0.45211481263E+02  0.12929517007E+03  0.74686778836E+02  0.23006071133E+03  0.16908133228E+03 0.  0.
        -24    2    5    5    0    0  0.70316568757E+02  0.32450421057E+02  0.65484598185E+02  0.12948267716E+03  0.80498952889E+02 0.  0.
          4    1    4    4  501    0  0.21258857890E+02 -0.52817187244E+02 -0.18841602838E+03  0.19683036874E+03  0.00000000000E+00 0. -1.
         -3    1    4    4    0  501 -0.31094202441E+02 -0.89773951545E+02 -0.12953727152E+03  0.16064282279E+03  0.00000000000E+00 0.  1.
          5    1    3    3  502    0 -0.35376136712E+02  0.13295968717E+02 -0.13163505204E+02  0.40294189433E+02  0.47000000000E+01 0. -1.
         11    1    6    6    0    0  0.27390275129E+02 -0.91467869231E+01  0.63405822519E+02  0.69672011683E+02  0.00000000000E+00 0. -1.
        -12    1    6    6    0    0  0.42926293627E+02  0.41597207981E+02  0.20787756656E+01  0.59810665476E+02  0.00000000000E+00 0.  1.
         -5    1    5    5    0  503 -0.25105087493E+02  0.96844749015E+02  0.92021806510E+01  0.10057803417E+03  0.47000000000E+01 0.  1.
<mgrwt>
<rscale>  2 0.21970412E+03</rscale>
<asrwt>0</asrwt>
<pdfrwt beam="1">  1       21 0.28569082E-01 0.22040996E+03</pdfrwt>
<pdfrwt beam="2">  1       21 0.68019854E-01 0.22040996E+03</pdfrwt>
<totfact> 0.22763688E+04</totfact>
</mgrwt>
</event>
<event>
12    1  0.1441827E-001  0.1967720E+03  0.7546771E-02  0.1152660E+00
         21   -1    0    0  504  503  0.00000000000E+00  0.00000000000E+00  0.22000503733E+03  0.22000503733E+03  0.00000000000E+00 0.  1.
         21   -1    0    0  502  504 -0.00000000000E+00 -0.00000000000E+00 -0.18953713059E+03  0.18953713059E+03  0.00000000000E+00 0. -1.
          6    2    1    2  502    0 -0.62297021643E+02  0.69189998602E+02 -0.40923875919E+02  0.20021939266E+03  0.17246700195E+03 0.  0.
         24    2    3    3    0    0 -0.52271300688E+02  0.76821664203E+02 -0.88476243855E+02  0.15080203643E+03  0.79242359233E+02 0.  0.
         -6    2    1    2    0  503  0.62297021643E+02 -0.69189998602E+02  0.71391782657E+02  0.20932277526E+03  0.17335242369E+03 0.  0.
        -24    2    5    5    0    0  0.62556275619E+02 -0.40410899709E+02 -0.21648638027E+02  0.11181937211E+03  0.80551722608E+02 0.  0.
          4    1    4    4  501    0 -0.49772073557E+02  0.89916790088E+02 -0.90956229213E+02  0.13724184522E+03  0.00000000000E+00 0. -1.
         -3    1    4    4    0  501 -0.24992271308E+01 -0.13095125886E+02  0.24799853581E+01  0.13560191208E+02  0.00000000000E+00 0.  1.
          5    1    3    3  502    0 -0.10025720955E+02 -0.76316656003E+01  0.47552367936E+02  0.49417356231E+02  0.47000000000E+01 0. -1.
         13    1    6    6    0    0 -0.17803828391E+02  0.30201851974E+01 -0.53815227690E+00  0.18066195833E+02  0.00000000000E+00 0. -1.
        -14    1    6    6    0    0  0.80360104010E+02 -0.43431084907E+02 -0.21110485750E+02  0.93753176273E+02  0.00000000000E+00 0.  1.
         -5    1    5    5    0  503 -0.25925397592E+00 -0.28779098893E+02  0.93040420684E+02  0.97503403155E+02  0.47000000000E+01 0.  1.
<mgrwt>
<rscale>  2 0.19657686E+03</rscale>
<asrwt>0</asrwt>
<pdfrwt beam="1">  1       21 0.33846929E-01 0.19677204E+03</pdfrwt>
<pdfrwt beam="2">  1       21 0.29159559E-01 0.19677204E+03</pdfrwt>
<totfact> 0.94548312E+04</totfact>
</mgrwt>
</event>
<event>
12    1  0.1441827E-001  0.2008392E+03  0.7546771E-02  0.1149203E+00
         21   -1    0    0  504  503  0.00000000000E+00  0.00000000000E+00  0.18462917429E+04  0.18462917429E+04  0.00000000000E+00 0. -1.
         21   -1    0    0  502  504 -0.00000000000E+00 -0.00000000000E+00 -0.91781069369E+02  0.91781069369E+02  0.00000000000E+00 0.  1.
          6    2    1    2  502    0 -0.58227857588E+02 -0.80862651792E+02  0.31267141417E+02  0.20325848792E+03  0.17437639440E+03 0.  0.
         24    2    3    3    0    0 -0.93878909084E+02 -0.80400406500E+02  0.57844426114E+02  0.15854100582E+03  0.80695712137E+02 0.  0.
         -6    2    1    2    0  503  0.58227857588E+02  0.80862651792E+02  0.17232435321E+04  0.17348143243E+04  0.17344514159E+03 0.  0.
        -24    2    5    5    0    0  0.33129033936E+02  0.58830626269E+02  0.49090986395E+03  0.50201923968E+03  0.80450276615E+02 0.  0.
          2    1    4    4  501    0 -0.17710817122E+02 -0.20647324880E+02  0.55380213538E+02  0.61700511500E+02  0.00000000000E+00 0. -1.
         -1    1    4    4    0  501 -0.76168091963E+02 -0.59753081620E+02  0.24642125766E+01  0.96840494319E+02  0.00000000000E+00 0.  1.
          5    1    3    3  502    0  0.35651051497E+02 -0.46224529212E+00 -0.26577284697E+02  0.44717482100E+02  0.47000000000E+01 0. -1.
         11    1    6    6    0    0 -0.14299537718E+02 -0.83012367499E+01  0.16801916107E+03  0.16883076081E+03  0.00000000000E+00 0. -1.
        -12    1    6    6    0    0  0.47428571655E+02  0.67131863019E+02  0.32289070289E+03  0.33318847887E+03  0.00000000000E+00 0.  1.
         -5    1    5    5    0  503  0.25098823651E+02  0.22032025523E+02  0.12323336681E+04  0.12327950846E+04  0.47000000000E+01 0.  1.
<mgrwt>
<rscale>  2 0.20063688E+03</rscale>
<asrwt>0</asrwt>
<pdfrwt beam="1">  1       21 0.28404485E+00 0.20083919E+03</pdfrwt>
<pdfrwt beam="2">  1       21 0.14120166E-01 0.20083919E+03</pdfrwt>
<totfact> 0.18281607E+03</totfact>
</mgrwt>
</event>
<event>
12    1  0.1441827E-001  0.1831136E+03  0.7546771E-02  0.1165253E+00
         21   -1    0    0  504  503  0.00000000000E+00  0.00000000000E+00  0.22490852509E+03  0.22490852509E+03  0.00000000000E+00 0.  1.
         21   -1    0    0  502  504 -0.00000000000E+00 -0.00000000000E+00 -0.31821474628E+03  0.31821474628E+03  0.00000000000E+00 0.  1.
          6    2    1    2  502    0 -0.61468013999E+02 -0.72657813267E+00 -0.24537940790E+03  0.30509631708E+03  0.17056923584E+03 0.  0.
         24    2    3    3    0    0 -0.71926290825E+02 -0.16681719750E+02 -0.25931383029E+03  0.28100897132E+03  0.79187803958E+02 0.  0.
         -6    2    1    2    0  503  0.61468013999E+02  0.72657813267E+00  0.15207318671E+03  0.23802695429E+03  0.17248690441E+03 0.  0.
        -24    2    5    5    0    0  0.10670897790E+03 -0.14858402119E+02  0.11839544824E+03  0.17932502508E+03  0.80823291065E+02 0.  0.
          4    1    4    4  501    0 -0.69105884657E+02  0.16300422119E+02 -0.20945171926E+03  0.22115910508E+03  0.00000000000E+00 0. -1.
         -3    1    4    4    0  501 -0.28204061683E+01 -0.32982141869E+02 -0.49862111029E+02  0.59849866244E+02  0.00000000000E+00 0.  1.
          5    1    3    3  502    0  0.10458276826E+02  0.15955141617E+02  0.13934422396E+02  0.24087345759E+02  0.47000000000E+01 0. -1.
         11    1    6    6    0    0  0.39329828029E+02 -0.12438236938E+02 -0.20413652444E+01  0.41300269769E+02  0.00000000000E+00 0. -1.
        -12    1    6    6    0    0  0.67379149872E+02 -0.24201651815E+01  0.12043681348E+03  0.13802475531E+03  0.00000000000E+00 0.  1.
         -5    1    5    5    0  503 -0.45240963903E+02  0.15584980252E+02  0.33677738466E+02  0.58701929206E+02  0.47000000000E+01 0.  1.
<mgrwt>
<rscale>  2 0.18266058E+03</rscale>
<asrwt>0</asrwt>
<pdfrwt beam="1">  1       21 0.34601312E-01 0.18311356E+03</pdfrwt>
<pdfrwt beam="2">  1       21 0.48956115E-01 0.18311356E+03</pdfrwt>
<totfact> 0.32214139E+04</totfact>
</mgrwt>
</event>
<event>
12    1  0.1441827E-001  0.1928377E+03  0.7546771E-02  0.1156018E+00
         21   -1    0    0  504  503  0.00000000000E+00  0.00000000000E+00  0.13134019006E+03  0.13134019006E+03  0.00000000000E+00 0.  1.
         21   -1    0    0  502  504 -0.00000000000E+00 -0.00000000000E+00 -0.29802404829E+03  0.29802404829E+03  0.00000000000E+00 0.  1.
          6    2    1    2  502    0 -0.38730274623E+02  0.75444951960E+02 -0.13221790610E+03  0.23347066287E+03  0.17272811230E+03 0.  0.
         24    2    3    3    0    0  0.41428310585E+02  0.24863007787E+02 -0.42314497709E+02  0.10274711985E+03  0.80199624982E+02 0.  0.
         -6    2    1    2    0  503  0.38730274623E+02 -0.75444951960E+02 -0.34465952129E+02  0.19589357549E+03  0.17318896071E+03 0.  0.
        -24    2    5    5    0    0 -0.20433271594E+01  0.18068207171E+02 -0.43416716948E+02  0.93378192622E+02  0.80646390189E+02 0.  0.
          4    1    4    4  501    0  0.15551625678E+02 -0.42453217202E+01 -0.58418309230E+02  0.60601771187E+02  0.00000000000E+00 0. -1.
         -3    1    4    4    0  501  0.25876684907E+02  0.29108329507E+02  0.16103811521E+02  0.42145348664E+02  0.00000000000E+00 0.  1.
          5    1    3    3  502    0 -0.80158585208E+02  0.50581944173E+02 -0.89903408390E+02  0.13072354302E+03  0.47000000000E+01 0. -1.
         11    1    6    6    0    0  0.30652905700E+02  0.23784147295E+02 -0.89260150192E-01  0.38798121833E+02  0.00000000000E+00 0. -1.
        -12    1    6    6    0    0 -0.32696232859E+02 -0.57159401240E+01 -0.43327456798E+02  0.54580070788E+02  0.00000000000E+00 0.  1.
         -5    1    5    5    0  503  0.40773601783E+02 -0.93513159131E+02  0.89507648187E+01  0.10251538286E+03  0.47000000000E+01 0.  1.
<mgrwt>
<rscale>  2 0.19273420E+03</rscale>
<asrwt>0</asrwt>
<pdfrwt beam="1">  1       21 0.20206183E-01 0.19283773E+03</pdfrwt>
<pdfrwt beam="2">  1       21 0.45849854E-01 0.19283773E+03</pdfrwt>
<totfact> 0.10325587E+05</totfact>
</mgrwt>
</event>
<event>
12    1  0.1441827E-001  0.1964913E+03  0.7546771E-02  0.1153529E+00
         21   -1    0    0  504  503  0.00000000000E+00  0.00000000000E+00  0.47808241180E+03  0.47808241180E+03  0.00000000000E+00 0. -1.
         21   -1    0    0  502  504 -0.00000000000E+00 -0.00000000000E+00 -0.23501645028E+03  0.23501645028E+03  0.00000000000E+00 0.  1.
          6    2    1    2  502    0  0.59415053300E+02 -0.71499458344E+02 -0.16910685833E+03  0.25648605639E+03  0.16895456930E+03 0.  0.
         24    2    3    3    0    0  0.85879268895E+02 -0.89516834217E+02 -0.17094436283E+03  0.22407545684E+03  0.74828622459E+02 0.  0.
         -6    2    1    2    0  503 -0.59415053300E+02  0.71499458344E+02  0.41217281985E+03  0.45661280569E+03  0.17310834699E+03 0.  0.
        -24    2    5    5    0    0 -0.39189595217E+02  0.28748367563E+02  0.39690024664E+03  0.40669220463E+03  0.74205461503E+02 0.  0.
          4    1    4    4  501    0  0.21677366928E+02 -0.46235701137E+02 -0.12255997032E+03  0.13277271791E+03  0.00000000000E+00 0. -1.
         -3    1    4    4    0  501  0.64201901967E+02 -0.43281133080E+02 -0.48384392512E+02  0.91302738927E+02  0.00000000000E+00 0.  1.
          5    1    3    3  502    0 -0.26464215594E+02  0.18017375874E+02  0.18375045060E+01  0.32410599550E+02  0.47000000000E+01 0. -1.
         13    1    6    6    0    0  0.73614253810E+01  0.33203299160E+02  0.25564788190E+03  0.25790015351E+03  0.00000000000E+00 0. -1.
        -14    1    6    6    0    0 -0.46551020598E+02 -0.44549315973E+01  0.14125236474E+03  0.14879205113E+03  0.00000000000E+00 0.  1.
         -5    1    5    5    0  503 -0.20225458083E+02  0.42751090781E+02  0.15272573213E+02  0.49920601060E+02  0.47000000000E+01 0.  1.
<mgrwt>
<rscale>  2 0.19557249E+03</rscale>
<asrwt>0</asrwt>
<pdfrwt beam="1">  1       21 0.73551140E-01 0.19649127E+03</pdfrwt>
<pdfrwt beam="2">  1       21 0.36156377E-01 0.19649127E+03</pdfrwt>
<totfact> 0.12218421E+04</totfact>
</mgrwt>
</event>
<event>
12    1  0.1441827E-001  0.1857607E+03  0.7546771E-02  0.1162495E+00
         21   -1    0    0  504  503  0.00000000000E+00  0.00000000000E+00  0.42361035810E+02  0.42361035810E+02  0.00000000000E+00 0.  1.
         21   -1    0    0  502  504 -0.00000000000E+00 -0.00000000000E+00 -0.10414963709E+04  0.10414963709E+04  0.00000000000E+00 0.  1.
          6    2    1    2  502    0  0.17985912500E+02 -0.62002826537E+02 -0.24570431186E+03  0.30802214843E+03  0.17418149014E+03 0.  0.
         24    2    3    3    0    0  0.58233984720E+02 -0.89484650296E+02 -0.20102378323E+03  0.24173793014E+03  0.81412319898E+02 0.  0.
         -6    2    1    2    0  503 -0.17985912500E+02  0.62002826537E+02 -0.75343102320E+03  0.77583525826E+03  0.17347679294E+03 0.  0.
        -24    2    5    5    0    0 -0.79236772298E+02  0.41850152581E+02 -0.49509656076E+03  0.50953358237E+03  0.80460957838E+02 0.  0.
          2    1    4    4  501    0  0.15167438605E+02 -0.67814941247E+02 -0.57057515026E+02  0.89913722374E+02  0.00000000000E+00 0. -1.
         -1    1    4    4    0  501  0.43066546115E+02 -0.21669709049E+02 -0.14396626820E+03  0.15182420777E+03  0.00000000000E+00 0.  1.
          5    1    3    3  502    0 -0.40248072220E+02  0.27481823759E+02 -0.44680528639E+02  0.66284218288E+02  0.47000000000E+01 0. -1.
         13    1    6    6    0    0  0.14815489789E+02  0.16913574600E+02 -0.11522409547E+03  0.11739744426E+03  0.00000000000E+00 0. -1.
        -14    1    6    6    0    0 -0.94052262087E+02  0.24936577980E+02 -0.37987246529E+03  0.39213613811E+03  0.00000000000E+00 0.  1.
         -5    1    5    5    0  503  0.61250859798E+02  0.20152673957E+02 -0.25833446245E+03  0.26630167589E+03  0.47000000000E+01 0.  1.
<mgrwt>
<rscale>  2 0.18559532E+03</rscale>
<asrwt>0</asrwt>
<pdfrwt beam="1">  1       21 0.65170821E-02 0.18576069E+03</pdfrwt>
<pdfrwt beam="2">  1       21 0.16023022E+00 0.18576069E+03</pdfrwt>
<totfact> 0.43074140E+04</totfact>
</mgrwt>
</event>
<event>
12    1  0.1441827E-001  0.1794949E+03  0.7546771E-02  0.1168400E+00
         21   -1    0    0  504  503  0.00000000000E+00  0.00000000000E+00  0.72200175317E+02  0.72200175317E+02  0.00000000000E+00 0. -1.
         21   -1    0    0  502  504 -0.00000000000E+00 -0.00000000000E+00 -0.45035892943E+03  0.45035892943E+03  0.00000000000E+00 0. -1.
          6    2    1    2  502    0 -0.41165087755E+01  0.48376051386E+02 -0.16072054709E+03  0.24060557524E+03  0.17234488849E+03 0.  0.
         24    2    3    3    0    0  0.29385522271E+01  0.42584229380E+02 -0.18901839816E+03  0.21050279358E+03  0.82227851616E+02 0.  0.
         -6    2    1    2    0  503  0.41165087755E+01 -0.48376051386E+02 -0.21743820703E+03  0.28195352950E+03  0.17280402465E+03 0.  0.
        -24    2    5    5    0    0 -0.42796985937E+02  0.14698485807E+02 -0.78235393789E+02  0.12201983562E+03  0.81978265119E+02 0.  0.
          4    1    4    4  501    0  0.94789531943E+01 -0.30705730005E+01 -0.14931310559E+03  0.14964518861E+03  0.00000000000E+00 0. -1.
         -3    1    4    4    0  501 -0.65404009672E+01  0.45654802381E+02 -0.39705292573E+02  0.60857604977E+02  0.00000000000E+00 0.  1.
          5    1    3    3  502    0 -0.70550610026E+01  0.57918220059E+01  0.28297851077E+02  0.30102781657E+02  0.47000000000E+01 0. -1.
         13    1    6    6    0    0 -0.49854033646E+02 -0.10601713546E+02 -0.80902039361E+02  0.95618831690E+02  0.00000000000E+00 0. -1.
        -14    1    6    6    0    0  0.70570477093E+01  0.25300199353E+02  0.26666455728E+01  0.26401003925E+02  0.00000000000E+00 0.  1.
         -5    1    5    5    0  503  0.46913494712E+02 -0.63074537193E+02 -0.13920281324E+03  0.15993369389E+03  0.47000000000E+01 0.  1.
<mgrwt>
<rscale>  2 0.17938430E+03</rscale>
<asrwt>0</asrwt>
<pdfrwt beam="1">  1       21 0.11107720E-01 0.17949490E+03</pdfrwt>
<pdfrwt beam="2">  1       21 0.69285986E-01 0.17949490E+03</pdfrwt>
<totfact> 0.12825359E+05</totfact>
</mgrwt>
</event>
<event>
12    1  0.1441827E-001  0.2091872E+03  0.7546771E-02  0.1142456E+00
         21   -1    0    0  504  503  0.00000000000E+00  0.00000000000E+00  0.52238774681E+03  0.52238774681E+03  0.00000000000E+00 0.  1.
         21   -1    0    0  502  504 -0.00000000000E+00 -0.00000000000E+00 -0.15945023621E+03  0.15945023621E+03  0.00000000000E+00 0.  1.
          6    2    1    2  502    0 -0.79838437557E+02 -0.83602927734E+02 -0.54443354233E+02  0.21496960498E+03  0.17287054870E+03 0.  0.
         24    2    3    3    0    0 -0.51687025048E+02  0.10565676963E+02  0.11666381229E+02  0.96425034208E+02  0.79865516233E+02 0.  0.
         -6    2    1    2    0  503  0.79838437557E+02  0.83602927734E+02  0.41738086483E+03  0.46686837804E+03  0.17434354145E+03 0.  0.
        -24    2    5    5    0    0  0.10199421821E+03  0.14892657836E+02  0.31931692107E+03  0.34500531197E+03  0.80254329470E+02 0.  0.
          4    1    4    4  501    0 -0.69722877118E+01  0.10223664029E+02  0.41079248020E+02  0.42902688961E+02  0.00000000000E+00 0. -1.
         -3    1    4    4    0  501 -0.44714737336E+02  0.34201293310E+00 -0.29412866792E+02  0.53522345248E+02  0.00000000000E+00 0.  1.
          5    1    3    3  502    0 -0.28151412509E+02 -0.94168604696E+02 -0.66109735461E+02  0.11854457077E+03  0.47000000000E+01 0. -1.
         13    1    6    6    0    0  0.55464200115E+02 -0.76771819720E+01  0.66408744078E+02  0.86863904514E+02  0.00000000000E+00 0. -1.
        -14    1    6    6    0    0  0.46530018096E+02  0.22569839808E+02  0.25290817699E+03  0.25814140745E+03  0.00000000000E+00 0.  1.
         -5    1    5    5    0  503 -0.22155780654E+02  0.68710269898E+02  0.98063943763E+02  0.12186306607E+03  0.47000000000E+01 0.  1.
<mgrwt>
<rscale>  2 0.20888004E+03</rscale>
<asrwt>0</asrwt>
<pdfrwt beam="1">  1       21 0.80367345E-01 0.20918723E+03</pdfrwt>
<pdfrwt beam="2">  1       21 0.24530806E-01 0.20918723E+03</pdfrwt>
<totfact> 0.21166206E+04</totfact>
</mgrwt>
</event>
<event>
12    1  0.1441827E-001  0.2087296E+03  0.7546771E-02  0.1142867E+00
         21   -1    0    0  504  503  0.00000000000E+00  0.00000000000E+00  0.20268381412E+03  0.20268381412E+03  0.00000000000E+00 0. -1.
         21   -1    0    0  502  504 -0.00000000000E+00 -0.00000000000E+00 -0.21580270503E+03  0.21580270503E+03  0.00000000000E+00 0. -1.
          6    2    1    2  502    0 -0.70121750521E+02 -0.92436693456E+02  0.15204571155E+02  0.20928264908E+03  0.17351209188E+03 0.  0.
         24    2    3    3    0    0 -0.61002049950E+02 -0.78904316823E+02 -0.53444790030E+02  0.13856405926E+03  0.79978194686E+02 0.  0.
         -6    2    1    2    0  503  0.70121750521E+02  0.92436693456E+02 -0.28323462063E+02  0.20920387006E+03  0.17176273913E+03 0.  0.
        -24    2    5    5    0    0  0.54837322267E+02 -0.18653096697E+01 -0.52304426799E+02  0.11059525883E+03  0.80529168121E+02 0.  0.
          4    1    4    4  501    0 -0.68525242522E+02 -0.61885278573E+02 -0.11969911179E+02  0.93106258331E+02  0.00000000000E+00 0. -1.
         -3    1    4    4    0  501  0.75231925716E+01 -0.17019038250E+02 -0.41474878850E+02  0.45457800926E+02  0.00000000000E+00 0.  1.
          5    1    3    3  502    0 -0.91197005705E+01 -0.13532376633E+02  0.68649361185E+02  0.70718589826E+02  0.47000000000E+01 0. -1.
         13    1    6    6    0    0 -0.60095330341E+00  0.32312545681E+02 -0.17364545126E+02  0.36687725204E+02  0.00000000000E+00 0. -1.
        -14    1    6    6    0    0  0.55438275570E+02 -0.34177855351E+02 -0.34939881673E+02  0.73907533621E+02  0.00000000000E+00 0.  1.
         -5    1    5    5    0  503  0.15284428254E+02  0.94302003126E+02  0.23980964736E+02  0.98608611238E+02  0.47000000000E+01 0.  1.
<mgrwt>
<rscale>  2 0.20836568E+03</rscale>
<asrwt>0</asrwt>
<pdfrwt beam="1">  1       21 0.31182125E-01 0.20872961E+03</pdfrwt>
<pdfrwt beam="2">  1       21 0.33200416E-01 0.20872961E+03</pdfrwt>
<totfact> 0.85741839E+04</totfact>
</mgrwt>
</event>
<event>
12    1  0.1441827E-001  0.2142580E+03  0.7546771E-02  0.1138821E+00
         21   -1    0    0  504  503  0.00000000000E+00  0.00000000000E+00  0.51051482295E+02  0.51051482295E+02  0.00000000000E+00 0.  1.
         21   -1    0    0  502  504 -0.00000000000E+00 -0.00000000000E+00 -0.93244603122E+03  0.93244603122E+03  0.00000000000E+00 0.  1.
          6    2    1    2  502    0  0.43792838235E+02 -0.11486247589E+03 -0.55261090493E+03  0.59269325485E+03  0.17548584286E+03 0.  0.
         24    2    3    3    0    0  0.82029042337E+02 -0.12771029825E+03 -0.40788434107E+03  0.44237711423E+03  0.79304422562E+02 0.  0.
         -6    2    1    2    0  503 -0.43792838235E+02  0.11486247589E+03 -0.32878364399E+03  0.39080425867E+03  0.17180827392E+03 0.  0.
        -24    2    5    5    0    0 -0.51224248732E+02  0.95822694956E+02 -0.12665729746E+03  0.18759281931E+03  0.85691786840E+02 0.  0.
          4    1    4    4  501    0  0.23053783528E+02 -0.26660362486E+02 -0.28394452299E+02  0.45260322405E+02  0.00000000000E+00 0. -1.
         -3    1    4    4    0  501  0.58975258810E+02 -0.10104993576E+03 -0.37948988877E+03  0.39711679182E+03  0.00000000000E+00 0.  1.
          5    1    3    3  502    0 -0.38236204102E+02  0.12847822358E+02 -0.14472656387E+03  0.15031614062E+03  0.47000000000E+01 0. -1.
         13    1    6    6    0    0 -0.23583513441E+02  0.46517381455E+01 -0.75963622718E+02  0.79676174295E+02  0.00000000000E+00 0. -1.
        -14    1    6    6    0    0 -0.27640735291E+02  0.91170956811E+02 -0.50693674739E+02  0.10791664502E+03  0.00000000000E+00 0.  1.
         -5    1    5    5    0  503  0.74314104966E+01  0.19039780935E+02 -0.20212634654E+03  0.20321143935E+03  0.47000000000E+01 0.  1.
<mgrwt>
<rscale>  2 0.21350362E+03</rscale>
<asrwt>0</asrwt>
<pdfrwt beam="1">  1       21 0.78540737E-02 0.21425798E+03</pdfrwt>
<pdfrwt beam="2">  1       21 0.14345325E+00 0.21425798E+03</pdfrwt>
<totfact> 0.41113077E+04</totfact>
</mgrwt>
</event>
<event>
12    1  0.1441827E-001  0.1813292E+03  0.7546771E-02  0.1167038E+00
         21   -1    0    0  504  503  0.00000000000E+00  0.00000000000E+00  0.44668090298E+03  0.44668090298E+03  0.00000000000E+00 0.  1.
         21   -1    0    0  502  504 -0.00000000000E+00 -0.00000000000E+00 -0.76908838429E+02  0.76908838429E+02  0.00000000000E+00 0.  1.
          6    2    1    2  502    0  0.48204834741E+02 -0.17661133132E+02  0.12293678518E+03  0.21730895484E+03  0.17168024636E+03 0.  0.
         24    2    3    3    0    0  0.85373222970E+02  0.14268156005E+02  0.47816570725E+02  0.12749745665E+03  0.80479870409E+02 0.  0.
         -6    2    1    2    0  503 -0.48204834741E+02  0.17661133132E+02  0.24683527937E+03  0.30628078656E+03  0.17390987137E+03 0.  0.
        -24    2    5    5    0    0 -0.66971766276E+02  0.26428700180E+02  0.72647139371E+02  0.13080239454E+03  0.81535059246E+02 0.  0.
          2    1    4    4  501    0  0.51267475975E+02  0.45907366626E+02  0.41980447994E+02  0.80611403766E+02  0.00000000000E+00 0. -1.
         -1    1    4    4    0  501  0.34105746995E+02 -0.31639210621E+02  0.58361227313E+01  0.46886052887E+02  0.00000000000E+00 0.  1.
          5    1    3    3  502    0 -0.37168388229E+02 -0.31929289137E+02  0.75120214450E+02  0.89811498191E+02  0.47000000000E+01 0. -1.
         13    1    6    6    0    0  0.57338101772E+01  0.21335584215E+02 -0.66763186789E+01  0.23079362298E+02  0.00000000000E+00 0. -1.
        -14    1    6    6    0    0 -0.72705576454E+02  0.50931159643E+01  0.79323458050E+02  0.10772303224E+03  0.00000000000E+00 0.  1.
         -5    1    5    5    0  503  0.18766931535E+02 -0.87675670477E+01  0.17418814000E+03  0.17547839203E+03  0.47000000000E+01 0.  1.
<mgrwt>
<rscale>  2 0.18079246E+03</rscale>
<asrwt>0</asrwt>
<pdfrwt beam="1">  1       21 0.68720137E-01 0.18132916E+03</pdfrwt>
<pdfrwt beam="2">  1       21 0.11832129E-01 0.18132916E+03</pdfrwt>
<totfact> 0.11661209E+05</totfact>
</mgrwt>
</event>
<event>
12    1  0.1441827E-001  0.2307547E+03  0.7546771E-02  0.1126413E+00
         21   -1    0    0  504  503  0.00000000000E+00  0.00000000000E+00  0.16340888711E+03  0.16340888711E+03  0.00000000000E+00 0. -1.
         21   -1    0    0  502  504 -0.00000000000E+00 -0.00000000000E+00 -0.32894875049E+03  0.32894875049E+03  0.00000000000E+00 0. -1.
          6    2    1    2  502    0  0.11132993671E+03  0.10066230484E+03 -0.11436108108E+03  0.25599563226E+03  0.17299726139E+03 0.  0.
         24    2    3    3    0    0  0.28661881464E+02  0.16004916240E+02 -0.10632143081E+03  0.13730440774E+03  0.80439995911E+02 0.  0.
         -6    2    1    2    0  503 -0.11132993671E+03 -0.10066230484E+03 -0.51178782298E+02  0.23636200533E+03  0.17527257454E+03 0.  0.
        -24    2    5    5    0    0  0.77184606805E+01 -0.11753882008E+02 -0.12360480180E+02  0.82718980271E+02  0.80572450932E+02 0.  0.
          2    1    4    4  501    0  0.45202205249E+02  0.28518585896E+02 -0.10335008587E+03  0.11635200621E+03  0.00000000000E+00 0. -1.
         -1    1    4    4    0  501 -0.16540323784E+02 -0.12513669655E+02 -0.29713449481E+01  0.20952401531E+02  0.00000000000E+00 0.  1.
          5    1    3    3  502    0  0.82668055244E+02  0.84657388597E+02 -0.80396502669E+01  0.11869122452E+03  0.47000000000E+01 0. -1.
         11    1    6    6    0    0 -0.22105314789E+02 -0.15549100105E+02  0.23576526048E+02  0.35864634899E+02  0.00000000000E+00 0. -1.
        -12    1    6    6    0    0  0.29823775469E+02  0.37952180971E+01 -0.35937006227E+02  0.46854345372E+02  0.00000000000E+00 0.  1.
         -5    1    5    5    0  503 -0.11904839739E+03 -0.88908422829E+02 -0.38818302118E+02  0.15364302506E+03  0.47000000000E+01 0.  1.
<mgrwt>
<rscale>  2 0.23032262E+03</rscale>
<asrwt>0</asrwt>
<pdfrwt beam="1">  1       21 0.25139829E-01 0.23075470E+03</pdfrwt>
<pdfrwt beam="2">  1       21 0.50607500E-01 0.23075470E+03</pdfrwt>
<totfact> 0.54728270E+04</totfact>
</mgrwt>
</event>
<event>
12    1  0.1441827E-001  0.2272608E+03  0.7546771E-02  0.1130087E+00
         21   -1    0    0  504  503  0.00000000000E+00  0.00000000000E+00  0.98160704686E+03  0.98160704686E+03  0.00000000000E+00 0.  1.
         21   -1    0    0  502  504 -0.00000000000E+00 -0.00000000000E+00 -0.50759459365E+02  0.50759459365E+02  0.00000000000E+00 0. -1.
          6    2    1    2  502    0 -0.70560652509E+02 -0.11314989939E+03  0.45991074866E+03  0.51299643952E+03  0.18402647859E+03 0.  0.
         24    2    3    3    0    0 -0.98286031248E+00  0.85791212785E+01  0.22871390251E+03  0.24256512605E+03  0.80331960252E+02 0.  0.
         -6    2    1    2    0  503  0.70560652509E+02  0.11314989939E+03  0.47093683883E+03  0.51937006670E+03  0.17372983220E+03 0.  0.
        -24    2    5    5    0    0 -0.34099819228E+01  0.96647940057E+01  0.12641043664E+03  0.15208087055E+03  0.83928281746E+02 0.  0.
          2    1    4    4  501    0  0.12232836430E+02  0.41553725699E+02  0.98734857493E+02  0.10781895237E+03  0.00000000000E+00 0. -1.
         -1    1    4    4    0  501 -0.13215696742E+02 -0.32974604421E+02  0.12997904502E+03  0.13474617368E+03  0.00000000000E+00 0.  1.
          5    1    3    3  502    0 -0.69577792196E+02 -0.12172902067E+03  0.23119684615E+03  0.27043131348E+03  0.47000000000E+01 0. -1.
         13    1    6    6    0    0 -0.12119783556E+02  0.32692543210E+02  0.12223363320E+03  0.12710921532E+03  0.00000000000E+00 0. -1.
        -14    1    6    6    0    0  0.87098016327E+01 -0.23027749204E+02  0.41768034387E+01  0.24971655229E+02  0.00000000000E+00 0.  1.
         -5    1    5    5    0  503  0.73970634432E+02  0.10348510538E+03  0.34452640220E+03  0.36728919615E+03  0.47000000000E+01 0.  1.
<mgrwt>
<rscale>  2 0.22516842E+03</rscale>
<asrwt>0</asrwt>
<pdfrwt beam="1">  1       21 0.15101645E+00 0.22726075E+03</pdfrwt>
<pdfrwt beam="2">  1       21 0.78091483E-02 0.22726075E+03</pdfrwt>
<totfact> 0.36016027E+04</totfact>
</mgrwt>
</event>
<event>
12    1  0.1441827E-001  0.1820419E+03  0.7546771E-02  0.1166181E+00
         21   -1    0    0  504  503  0.00000000000E+00  0.00000000000E+00  0.35732722600E+03  0.35732722600E+03  0.00000000000E+00 0.  1.
         21   -1    0    0  502  504 -0.00000000000E+00 -0.00000000000E+00 -0.93811547229E+02  0.93811547229E+02  0.00000000000E+00 0. -1.
          6    2    1    2  502    0 -0.31110314086E+02 -0.42166556115E+02  0.16343527310E+03  0.24464327763E+03  0.17433695736E+03 0.  0.
         24    2    3    3    0    0 -0.58240881010E+02  0.23543778728E+02  0.58597933574E+02  0.11788810604E+03  0.80731517936E+02 0.  0.
         -6    2    1    2    0  503  0.31110314086E+02  0.42166556115E+02  0.10008040567E+03  0.20649549559E+03  0.17285378794E+03 0.  0.
        -24    2    5    5    0    0  0.24705417582E+02 -0.43200873876E+02  0.45788247864E+02  0.10501471317E+03  0.80342100907E+02 0.  0.
          2    1    4    4  501    0  0.60957889681E+01  0.35254804068E+02  0.29240440829E+02  0.46206744453E+02  0.00000000000E+00 0. -1.
         -1    1    4    4    0  501 -0.64336669979E+02 -0.11711025340E+02  0.29357492745E+02  0.71681361585E+02  0.00000000000E+00 0.  1.
          5    1    3    3  502    0  0.27130566924E+02 -0.65710334843E+02  0.10483733953E+03  0.12675517160E+03  0.47000000000E+01 0. -1.
         11    1    6    6    0    0  0.34522661041E+02 -0.27448975990E+01 -0.94010758516E+01  0.35884938559E+02  0.00000000000E+00 0. -1.
        -12    1    6    6    0    0 -0.98172434592E+01 -0.40455976277E+02  0.55189323715E+02  0.69129774611E+02  0.00000000000E+00 0.  1.
         -5    1    5    5    0  503  0.64048965044E+01  0.85367429990E+02  0.54292157802E+02  0.10148078242E+03  0.47000000000E+01 0.  1.
<mgrwt>
<rscale>  2 0.18168586E+03</rscale>
<asrwt>0</asrwt>
<pdfrwt beam="1">  1       21 0.54973418E-01 0.18204188E+03</pdfrwt>
<pdfrwt beam="2">  1       21 0.14432546E-01 0.18204188E+03</pdfrwt>
<totfact> 0.13186122E+05</totfact>
</mgrwt>
</event>
<event>
12    1  0.1441827E-001  0.1897083E+03  0.7546771E-02  0.1158808E+00
         21   -1    0    0  504  503  0.00000000000E+00  0.00000000000E+00  0.38083254710E+02  0.38083254710E+02  0.00000000000E+00 0. -1.
         21   -1    0    0  502  504 -0.00000000000E+00 -0.00000000000E+00 -0.99483470357E+03  0.99483470357E+03  0.00000000000E+00 0.  1.
          6    2    1    2  502    0  0.76448010815E+02  0.19244950823E+02 -0.59561141210E+03  0.62498245010E+03  0.17214947638E+03 0.  0.
         24    2    3    3    0    0  0.88387596143E+02  0.48147113314E+01 -0.59286002105E+03  0.60547743376E+03  0.85348518654E+02 0.  0.
         -6    2    1    2    0  503 -0.76448010815E+02 -0.19244950823E+02 -0.36114003676E+03  0.40793550818E+03  0.17255314021E+03 0.  0.
        -24    2    5    5    0    0 -0.19802242631E+02  0.51524286573E+02 -0.16627629490E+03  0.19296807831E+03  0.80882582058E+02 0.  0.
          4    1    4    4  501    0  0.35435785159E+02 -0.36550909644E+02 -0.17518606241E+03  0.18243305712E+03  0.00000000000E+00 0. -1.
         -3    1    4    4    0  501  0.52951810984E+02  0.41365620975E+02 -0.41767395864E+03  0.42304437664E+03  0.00000000000E+00 0.  1.
          5    1    3    3  502    0 -0.11939585329E+02  0.14430239492E+02 -0.27513910490E+01  0.19505016337E+02  0.47000000000E+01 0. -1.
         11    1    6    6    0    0 -0.22912269261E+02 -0.12590048869E+02 -0.87657654460E+02  0.91473197160E+02  0.00000000000E+00 0. -1.
        -12    1    6    6    0    0  0.31100266303E+01  0.64114335442E+02 -0.78618640443E+02  0.10149488115E+03  0.00000000000E+00 0.  1.
         -5    1    5    5    0  503 -0.56645768183E+02 -0.70769237396E+02 -0.19486374186E+03  0.21496742987E+03  0.47000000000E+01 0.  1.
<mgrwt>
<rscale>  2 0.18961650E+03</rscale>
<asrwt>0</asrwt>
<pdfrwt beam="1">  1       21 0.58589626E-02 0.18970834E+03</pdfrwt>
<pdfrwt beam="2">  1       21 0.15305148E+00 0.18970834E+03</pdfrwt>
<totfact> 0.58300516E+04</totfact>
</mgrwt>
</event>
<event>
12    1  0.1441827E-001  0.2151424E+03  0.7546771E-02  0.1139111E+00
         21   -1    0    0  504  503  0.00000000000E+00  0.00000000000E+00  0.40530144280E+03  0.40530144280E+03  0.00000000000E+00 0.  1.
         21   -1    0    0  502  504 -0.00000000000E+00 -0.00000000000E+00 -0.15600212934E+03  0.15600212934E+03  0.00000000000E+00 0.  1.
          6    2    1    2  502    0  0.11122397222E+03  0.64189025636E+02 -0.29342457682E+02  0.20927018266E+03  0.16261004434E+03 0.  0.
         24    2    3    3    0    0  0.93437863538E+02  0.83028414280E+02 -0.67671258833E+02  0.16276797600E+03  0.79307394476E+02 0.  0.
         -6    2    1    2    0  503 -0.11122397222E+03 -0.64189025636E+02  0.27864177114E+03  0.35203338948E+03  0.17261305767E+03 0.  0.
        -24    2    5    5    0    0 -0.12361874867E+03 -0.12378565044E+02  0.14224520740E+03  0.20552718855E+03  0.81073437766E+02 0.  0.
          2    1    4    4  501    0  0.79574148681E+02  0.18539592188E+02 -0.43114340982E+02  0.92382942230E+02  0.00000000000E+00 0. -1.
         -1    1    4    4    0  501  0.13863714858E+02  0.64488822092E+02 -0.24556917852E+02  0.70385033770E+02  0.00000000000E+00 0.  1.
          5    1    3    3  502    0  0.17786108680E+02 -0.18839388644E+02  0.38328801151E+02  0.46502206659E+02  0.47000000000E+01 0. -1.
         11    1    6    6    0    0 -0.47025155285E+02 -0.46859857628E+01  0.41679379212E+01  0.47441494482E+02  0.00000000000E+00 0. -1.
        -12    1    6    6    0    0 -0.76593593384E+02 -0.76925792808E+01  0.13807726947E+03  0.15808569407E+03  0.00000000000E+00 0.  1.
         -5    1    5    5    0  503  0.12394776452E+02 -0.51810460593E+02  0.13639656374E+03  0.14650620093E+03  0.47000000000E+01 0.  1.
<mgrwt>
<rscale>  2 0.21312947E+03</rscale>
<asrwt>0</asrwt>
<pdfrwt beam="1">  1       21 0.62354068E-01 0.21514244E+03</pdfrwt>
<pdfrwt beam="2">  1       21 0.24000328E-01 0.21514244E+03</pdfrwt>
<totfact> 0.38598845E+04</totfact>
</mgrwt>
</event>
<event>
12    1  0.1441827E-001  0.2751985E+03  0.7546771E-02  0.1098410E+00
         21   -1    0    0  504  503  0.00000000000E+00  0.00000000000E+00  0.48903332006E+03  0.48903332006E+03  0.00000000000E+00 0. -1.
         21   -1    0    0  502  504 -0.00000000000E+00 -0.00000000000E+00 -0.21592396636E+03  0.21592396636E+03  0.00000000000E+00 0.  1.
          6    2    1    2  502    0 -0.73552820670E+02 -0.20014284130E+03 -0.51395825911E+02  0.27947191671E+03  0.17319309153E+03 0.  0.
         24    2    3    3    0    0 -0.30004442227E+01 -0.96010415810E+02 -0.82792015919E+02  0.14974524016E+03  0.79637406043E+02 0.  0.
         -6    2    1    2    0  503  0.73552820670E+02  0.20014284130E+03  0.32450517961E+03  0.42548536971E+03  0.17397417594E+03 0.  0.
        -24    2    5    5    0    0  0.43457284698E+02  0.20491276145E+03  0.21078864672E+03  0.30766332901E+03  0.79668657773E+02 0.  0.
          4    1    4    4  501    0 -0.19590208817E+02 -0.92403836639E+02 -0.90756770744E+02  0.13099250644E+03  0.00000000000E+00 0. -1.
         -3    1    4    4    0  501  0.16589764595E+02 -0.36065791707E+01  0.79647548252E+01  0.18752733722E+02  0.00000000000E+00 0.  1.
          5    1    3    3  502    0 -0.70552376447E+02 -0.10413242549E+03  0.31396190008E+02  0.12972667655E+03  0.47000000000E+01 0. -1.
         11    1    6    6    0    0  0.80253531915E+01 -0.52583351250E+01  0.17387436992E+02  0.19858986563E+02  0.00000000000E+00 0. -1.
        -12    1    6    6    0    0  0.35431931506E+02  0.21017109657E+03  0.19340120973E+03  0.28780434245E+03  0.00000000000E+00 0.  1.
         -5    1    5    5    0  503  0.30095535973E+02 -0.47699201491E+01  0.11371653289E+03  0.11782204070E+03  0.47000000000E+01 0.  1.
<mgrwt>
<rscale>  2 0.27507509E+03</rscale>
<asrwt>0</asrwt>
<pdfrwt beam="1">  1       21 0.75235895E-01 0.27519845E+03</pdfrwt>
<pdfrwt beam="2">  1       21 0.33219072E-01 0.27519845E+03</pdfrwt>
<totfact> 0.13148164E+04</totfact>
</mgrwt>
</event>
<event>
12    1  0.1441827E-001  0.1812390E+03  0.7546771E-02  0.1166706E+00
         21   -1    0    0  504  503  0.00000000000E+00  0.00000000000E+00  0.12253022251E+04  0.12253022251E+04  0.00000000000E+00 0.  1.
         21   -1    0    0  502  504 -0.00000000000E+00 -0.00000000000E+00 -0.10828845827E+03  0.10828845827E+03  0.00000000000E+00 0.  1.
          6    2    1    2  502    0  0.52767135778E+02 -0.60999015986E+01 -0.19951446006E+02  0.18233385714E+03  0.17328010805E+03 0.  0.
         24    2    3    3    0    0 -0.31213366348E+01  0.41675609603E+02 -0.44704343195E+02  0.10461116587E+03  0.84843494423E+02 0.  0.
         -6    2    1    2    0  503 -0.52767135778E+02  0.60999015986E+01  0.11369652129E+04  0.11512568263E+04  0.17286065295E+03 0.  0.
        -24    2    5    5    0    0 -0.38722380337E+02 -0.46026181816E+02  0.39938751125E+03  0.41169118371E+03  0.79758475732E+02 0.  0.
          2    1    4    4  501    0 -0.20318490410E+02  0.35192226671E+02  0.14090948476E+02  0.43010332475E+02  0.00000000000E+00 0. -1.
         -1    1    4    4    0  501  0.17197153775E+02  0.64833829313E+01 -0.58795291671E+02  0.61600833395E+02  0.00000000000E+00 0.  1.
          5    1    3    3  502    0  0.55888472413E+02 -0.47775511201E+02  0.24752897189E+02  0.77722691272E+02  0.47000000000E+01 0. -1.
         11    1    6    6    0    0 -0.45929752121E+02 -0.22537289295E+02  0.36938877851E+03  0.37291492492E+03  0.00000000000E+00 0. -1.
        -12    1    6    6    0    0  0.72073717842E+01 -0.23488892521E+02  0.29998732745E+02  0.38776258796E+02  0.00000000000E+00 0.  1.
         -5    1    5    5    0  503 -0.14044755441E+02  0.52126083415E+02  0.73757770161E+03  0.73956564255E+03  0.47000000000E+01 0.  1.
<mgrwt>
<rscale>  2 0.18113867E+03</rscale>
<asrwt>0</asrwt>
<pdfrwt beam="1">  1       21 0.18850803E+00 0.18123900E+03</pdfrwt>
<pdfrwt beam="2">  1       21 0.16659764E-01 0.18123900E+03</pdfrwt>
<totfact> 0.52203006E+03</totfact>
</mgrwt>
</event>
<event>
12    1  0.1441827E-001  0.2582165E+03  0.7546771E-02  0.1109451E+00
         21   -1    0    0  504  503  0.00000000000E+00  0.00000000000E+00  0.55132871954E+03  0.55132871954E+03  0.00000000000E+00 0.  1.
         21   -1    0    0  502  504 -0.00000000000E+00 -0.00000000000E+00 -0.13897872662E+03  0.13897872662E+03  0.00000000000E+00 0. -1.
          6    2    1    2  502    0  0.18223363246E+03  0.19787752749E+02  0.66891424079E+02  0.25901009224E+03  0.17032649033E+03 0.  0.
         24    2    3    3    0    0  0.10314675102E+03  0.62133069581E+02  0.84096952641E+02  0.16754435610E+03  0.80616643679E+02 0.  0.
         -6    2    1    2    0  503 -0.18223363246E+03 -0.19787752749E+02  0.34545856884E+03  0.43129735392E+03  0.18186569980E+03 0.  0.
        -24    2    5    5    0    0 -0.78570231016E+02  0.42468301161E+02  0.98083513933E+02  0.15590958216E+03  0.81918156104E+02 0.  0.
          4    1    4    4  501    0 -0.68761750480E+01  0.29120256677E+02  0.14662844120E+02  0.33320716228E+02  0.00000000000E+00 0. -1.
         -3    1    4    4    0  501  0.11002292606E+03  0.33012812904E+02  0.69434108521E+02  0.13422363988E+03  0.00000000000E+00 0.  1.
          5    1    3    3  502    0  0.79086881439E+02 -0.42345316832E+02 -0.17205528562E+02  0.91465736133E+02  0.47000000000E+01 0. -1.
         13    1    6    6    0    0 -0.46760140725E+02 -0.19434397367E+02  0.51082309994E+02  0.71927803776E+02  0.00000000000E+00 0. -1.
        -14    1    6    6    0    0 -0.31810090291E+02  0.61902698529E+02  0.47001203939E+02  0.83981778388E+02  0.00000000000E+00 0.  1.
         -5    1    5    5    0  503 -0.10366340144E+03 -0.62256053911E+02  0.24737505490E+03  0.27538777176E+03  0.47000000000E+01 0.  1.
<mgrwt>
<rscale>  2 0.25619464E+03</rscale>
<asrwt>0</asrwt>
<pdfrwt beam="1">  1       21 0.84819802E-01 0.25821655E+03</pdfrwt>
<pdfrwt beam="2">  1       21 0.21381343E-01 0.25821655E+03</pdfrwt>
<totfact> 0.23691014E+04</totfact>
</mgrwt>
</event>
<event>
12    1  0.1441827E-001  0.1980391E+03  0.7546771E-02  0.1151844E+00
         21   -1    0    0  504  503  0.00000000000E+00  0.00000000000E+00  0.16991966476E+04  0.16991966476E+04  0.00000000000E+00 0.  1.
         21   -1    0    0  502  504 -0.00000000000E+00 -0.00000000000E+00 -0.23254446523E+02  0.23254446523E+02  0.00000000000E+00 0.  1.
          6    2    1    2  502    0  0.22246817125E+02 -0.93586461338E+02  0.72771063760E+03  0.75417653093E+03  0.17310725323E+03 0.  0.
         24    2    3    3    0    0  0.67208188898E+02 -0.51051948010E+02  0.60842673222E+03  0.61970924919E+03  0.82056218593E+02 0.  0.
         -6    2    1    2    0  503 -0.22246817125E+02  0.93586461338E+02  0.94823156345E+03  0.96827456316E+03  0.17076060763E+03 0.  0.
        -24    2    5    5    0    0  0.13502079700E+02  0.25289802437E+02  0.22111175640E+03  0.23706479774E+03  0.80544579239E+02 0.  0.
          4    1    4    4  501    0  0.73005179078E+02 -0.68002582798E+02  0.51078760117E+03  0.52044027606E+03  0.00000000000E+00 0. -1.
         -3    1    4    4    0  501 -0.57969901804E+01  0.16950634788E+02  0.97639131049E+02  0.99268973133E+02  0.00000000000E+00 0.  1.
          5    1    3    3  502    0 -0.44961371773E+02 -0.42534513328E+02  0.11928390538E+03  0.13446728174E+03  0.47000000000E+01 0. -1.
         13    1    6    6    0    0  0.11411538355E+01  0.40175962750E+02  0.21182144871E+03  0.21560087279E+03  0.00000000000E+00 0. -1.
        -14    1    6    6    0    0  0.12360925864E+02 -0.14886160313E+02  0.92903076881E+01  0.21463924945E+02  0.00000000000E+00 0.  1.
         -5    1    5    5    0  503 -0.35748896824E+02  0.68296658902E+02  0.72711980705E+03  0.73120976542E+03  0.47000000000E+01 0.  1.
<mgrwt>
<rscale>  2 0.19752508E+03</rscale>
<asrwt>0</asrwt>
<pdfrwt beam="1">  1       21 0.26141477E+00 0.19803906E+03</pdfrwt>
<pdfrwt beam="2">  1       21 0.35776085E-02 0.19803906E+03</pdfrwt>
<totfact> 0.26800647E+04</totfact>
</mgrwt>
</event>
<event>
12    1  0.1441827E-001  0.3159915E+03  0.7546771E-02  0.1077581E+00
         21   -1    0    0  504  503  0.00000000000E+00  0.00000000000E+00  0.14365112913E+03  0.14365112913E+03  0.00000000000E+00 0. -1.
         21   -1    0    0  502  504 -0.00000000000E+00 -0.00000000000E+00 -0.29448244861E+04  0.29448244861E+04  0.00000000000E+00 0.  1.
          6    2    1    2  502    0  0.38772842862E+02  0.26123326103E+03 -0.50763473409E+02  0.32004309058E+03  0.17350648283E+03 0.  0.
         24    2    3    3    0    0  0.35291939613E+01  0.36630378606E+02 -0.24571430425E+02  0.91139873700E+02  0.79677359006E+02 0.  0.
         -6    2    1    2    0  503 -0.38772842862E+02 -0.26123326103E+03 -0.27504098836E+04  0.27684325247E+04  0.17238899591E+03 0.  0.
        -24    2    5    5    0    0 -0.46774293858E+02 -0.18961619110E+03 -0.13504040882E+04  0.13665654322E+04  0.75945667931E+02 0.  0.
          4    1    4    4  501    0  0.29331124270E+02  0.13160423603E+01  0.14271403434E+02  0.32645363751E+02  0.00000000000E+00 0. -1.
         -3    1    4    4    0  501 -0.25801930309E+02  0.35314336245E+02 -0.38842833858E+02  0.58494509950E+02  0.00000000000E+00 0.  1.
          5    1    3    3  502    0  0.35243648901E+02  0.22460288243E+03 -0.26192042984E+02  0.22890321688E+03  0.47000000000E+01 0. -1.
         11    1    6    6    0    0 -0.20373047015E+02 -0.71496159319E+02 -0.29413653360E+03  0.30338599546E+03  0.00000000000E+00 0. -1.
        -12    1    6    6    0    0 -0.26401246842E+02 -0.11812003178E+03 -0.10562675546E+04  0.10631794367E+04  0.00000000000E+00 0.  1.
         -5    1    5    5    0  503  0.80014509958E+01 -0.71617069930E+02 -0.14000057954E+04  0.14018670925E+04  0.47000000000E+01 0.  1.
<mgrwt>
<rscale>  2 0.31583837E+03</rscale>
<asrwt>0</asrwt>
<pdfrwt beam="1">  1       21 0.22100174E-01 0.31599153E+03</pdfrwt>
<pdfrwt beam="2">  1       21 0.45304991E+00 0.31599153E+03</pdfrwt>
<totfact> 0.63554413E+01</totfact>
</mgrwt>
</event>
<event>
12    1  0.1441827E-001  0.1758843E+03  0.7546771E-02  0.1172060E+00
         21   -1    0    0  504  503  0.00000000000E+00  0.00000000000E+00  0.27479718317E+03  0.27479718317E+03  0.00000000000E+00 0.  1.
         21   -1    0    0  502  504 -0.00000000000E+00 -0.00000000000E+00 -0.47644676498E+03  0.47644676498E+03  0.00000000000E+00 0.  1.
          6    2    1    2  502    0  0.12283749639E+02  0.28034490387E+02 -0.42927305326E+03  0.46358486539E+03  0.17233325277E+03 0.  0.
         24    2    3    3    0    0 -0.20810151996E+02 -0.21618599151E+02 -0.36784821926E+03  0.37781927872E+03  0.80837297715E+02 0.  0.
         -6    2    1    2    0  503 -0.12283749639E+02 -0.28034490387E+02  0.22762347145E+03  0.28765908275E+03  0.17320069277E+03 0.  0.
        -24    2    5    5    0    0 -0.50594620542E+02  0.96510407222E+01  0.61346414707E+02  0.11285041110E+03  0.79491348417E+02 0.  0.
          2    1    4    4  501    0 -0.51413288301E+02 -0.72016475532E+01 -0.20276788696E+03  0.20930839908E+03  0.00000000000E+00 0. -1.
         -1    1    4    4    0  501  0.30603136305E+02 -0.14416951598E+02 -0.16508033230E+03  0.16851087964E+03  0.00000000000E+00 0.  1.
          5    1    3    3  502    0  0.33093901635E+02  0.49653089538E+02 -0.61424833999E+02  0.85765586676E+02  0.47000000000E+01 0. -1.
         11    1    6    6    0    0  0.20341826886E+02  0.76325272307E+01  0.51485681993E+01  0.22328303731E+02  0.00000000000E+00 0. -1.
        -12    1    6    6    0    0 -0.70936447428E+02  0.20185134915E+01  0.56197846508E+02  0.90522107369E+02  0.00000000000E+00 0.  1.
         -5    1    5    5    0  503  0.38310870904E+02 -0.37685531109E+02  0.16627705674E+03  0.17480867165E+03  0.47000000000E+01 0.  1.
<mgrwt>
<rscale>  2 0.17567042E+03</rscale>
<asrwt>0</asrwt>
<pdfrwt beam="1">  1       21 0.42276490E-01 0.17588435E+03</pdfrwt>
<pdfrwt beam="2">  1       21 0.73299502E-01 0.17588435E+03</pdfrwt>
<totfact> 0.91175239E+03</totfact>
</mgrwt>
</event>
<event>
12    1  0.1441827E-001  0.1991761E+03  0.7546771E-02  0.1151131E+00
         21   -1    0    0  504  503  0.00000000000E+00  0.00000000000E+00  0.76208971661E+02  0.76208971661E+02  0.00000000000E+00 0.  1.
         21   -1    0    0  502  504 -0.00000000000E+00 -0.00000000000E+00 -0.54425136062E+03  0.54425136062E+03  0.00000000000E+00 0.  1.
          6    2    1    2  502    0 -0.77505219857E+02  0.59061372434E+02 -0.30761216192E+03  0.36470852728E+03  0.16997577148E+03 0.  0.
         24    2    3    3    0    0 -0.94907575281E+02  0.74907170864E+02 -0.30802996926E+03  0.34070444710E+03  0.81108114413E+02 0.  0.
         -6    2    1    2    0  503  0.77505219857E+02 -0.59061372434E+02 -0.16043022704E+03  0.25575180500E+03  0.17371189710E+03 0.  0.
        -24    2    5    5    0    0 -0.89926967186E+01 -0.21151808225E+02 -0.21641417051E+02  0.87812981590E+02  0.81942060130E+02 0.  0.
          4    1    4    4  501    0 -0.73981621876E+02  0.11014246875E+02 -0.12441726290E+03  0.14516972590E+03  0.00000000000E+00 0. -1.
         -3    1    4    4    0  501 -0.20925953405E+02  0.63892923989E+02 -0.18361270636E+03  0.19553472121E+03  0.00000000000E+00 0.  1.
          5    1    3    3  502    0  0.17402355425E+02 -0.15845798430E+02  0.41780733556E+00  0.24004080178E+02  0.47000000000E+01 0. -1.
         11    1    6    6    0    0 -0.17578063894E+02  0.26080702475E+02 -0.24281651276E+02  0.39733989990E+02  0.00000000000E+00 0. -1.
        -12    1    6    6    0    0  0.85853671752E+01 -0.47232510700E+02  0.26402342246E+01  0.48078991601E+02  0.00000000000E+00 0.  1.
         -5    1    5    5    0  503  0.86497916575E+02 -0.37909564208E+02 -0.13878880999E+03  0.16793882341E+03  0.47000000000E+01 0.  1.
<mgrwt>
<rscale>  2 0.19835862E+03</rscale>
<asrwt>0</asrwt>
<pdfrwt beam="1">  1       21 0.11724457E-01 0.19917612E+03</pdfrwt>
<pdfrwt beam="2">  1       21 0.83730978E-01 0.19917612E+03</pdfrwt>
<totfact> 0.75635685E+04</totfact>
</mgrwt>
</event>
<event>
12    1  0.1441827E-001  0.1899697E+03  0.7546771E-02  0.1158855E+00
         21   -1    0    0  504  503  0.00000000000E+00  0.00000000000E+00  0.15361318515E+04  0.15361318515E+04  0.00000000000E+00 0.  1.
         21   -1    0    0  502  504 -0.00000000000E+00 -0.00000000000E+00 -0.24505719623E+02  0.24505719623E+02  0.00000000000E+00 0.  1.
          6    2    1    2  502    0  0.28357019241E+02 -0.64102518511E+02  0.57919468147E+03  0.60905105449E+03  0.17482406731E+03 0.  0.
         24    2    3    3    0    0  0.75329608175E+02 -0.25457828315E+01  0.34130360440E+03  0.35883133031E+03  0.81183387202E+02 0.  0.
         -6    2    1    2    0  503 -0.28357019241E+02  0.64102518511E+02  0.93243145042E+03  0.95158651664E+03  0.17656510275E+03 0.  0.
        -24    2    5    5    0    0  0.53846586133E+02  0.31180421524E+02  0.53381099370E+03  0.54322190539E+03  0.79146623310E+02 0.  0.
          2    1    4    4  501    0  0.85844568133E+02  0.54574766115E+01  0.21100530700E+03  0.22786468246E+03  0.00000000000E+00 0. -1.
         -1    1    4    4    0  501 -0.10514959958E+02 -0.80032594430E+01  0.13029829740E+03  0.13096664785E+03  0.00000000000E+00 0.  1.
          5    1    3    3  502    0 -0.46972588934E+02 -0.61556735680E+02  0.23789107707E+03  0.25021972418E+03  0.47000000000E+01 0. -1.
         13    1    6    6    0    0  0.37598824528E+02 -0.19016736711E+02  0.15014049066E+03  0.15594061311E+03  0.00000000000E+00 0. -1.
        -14    1    6    6    0    0  0.16247761606E+02  0.50197158235E+02  0.38367050304E+03  0.38728129229E+03  0.00000000000E+00 0.  1.
         -5    1    5    5    0  503 -0.82203605375E+02  0.32922096988E+02  0.39862045672E+03  0.40836461125E+03  0.47000000000E+01 0.  1.
<mgrwt>
<rscale>  2 0.18956414E+03</rscale>
<asrwt>0</asrwt>
<pdfrwt beam="1">  1       21 0.23632790E+00 0.18996971E+03</pdfrwt>
<pdfrwt beam="2">  1       21 0.37701119E-02 0.18996971E+03</pdfrwt>
<totfact> 0.34740916E+04</totfact>
</mgrwt>
</event>
<event>
12    1  0.1441827E-001  0.2491872E+03  0.7546771E-02  0.1115033E+00
         21   -1    0    0  504  503  0.00000000000E+00  0.00000000000E+00  0.37105045319E+03  0.37105045319E+03  0.00000000000E+00 0.  1.
         21   -1    0    0  502  504 -0.00000000000E+00 -0.00000000000E+00 -0.16314803112E+03  0.16314803112E+03  0.00000000000E+00 0. -1.
          6    2    1    2  502    0  0.16742002503E+03 -0.25545472990E+02  0.12122537908E+03  0.27036681105E+03  0.17239658933E+03 0.  0.
         24    2    3    3    0    0  0.13513316009E+03  0.44948863826E+02  0.98802835588E+02  0.18951661855E+03  0.76636656176E+02 0.  0.
         -6    2    1    2    0  503 -0.16742002503E+03  0.25545472990E+02  0.86677042989E+02  0.26383167327E+03  0.18279006009E+03 0.  0.
        -24    2    5    5    0    0 -0.14499987944E+03  0.83452426420E+02  0.55189149501E+02  0.19405018847E+03  0.81365600286E+02 0.  0.
          4    1    4    4  501    0  0.43949039504E+02 -0.21330914624E+02  0.26236319216E+02  0.55451514299E+02  0.00000000000E+00 0. -1.
         -3    1    4    4    0  501  0.91184120586E+02  0.66279778450E+02  0.72566516371E+02  0.13406510425E+03  0.00000000000E+00 0.  1.
          5    1    3    3  502    0  0.32286864940E+02 -0.70494336816E+02  0.22422543488E+02  0.80850192500E+02  0.47000000000E+01 0. -1.
         11    1    6    6    0    0 -0.70051868249E+01  0.93652733247E+00 -0.16544007944E+02  0.17990384230E+02  0.00000000000E+00 0. -1.
        -12    1    6    6    0    0 -0.13799469262E+03  0.82515899088E+02  0.71733157445E+02  0.17605980424E+03  0.00000000000E+00 0.  1.
         -5    1    5    5    0  503 -0.22420145586E+02 -0.57906953430E+02  0.31487893488E+02  0.69781484793E+02  0.47000000000E+01 0.  1.
<mgrwt>
<rscale>  2 0.24728529E+03</rscale>
<asrwt>0</asrwt>
<pdfrwt beam="1">  1       21 0.57084685E-01 0.24918716E+03</pdfrwt>
<pdfrwt beam="2">  1       21 0.25099697E-01 0.24918716E+03</pdfrwt>
<totfact> 0.42203483E+04</totfact>
</mgrwt>
</event>
<event>
12    1  0.1441827E-001  0.1879466E+03  0.7546771E-02  0.1160437E+00
         21   -1    0    0  504  503  0.00000000000E+00  0.00000000000E+00  0.17327638951E+03  0.17327638951E+03  0.00000000000E+00 0. -1.
         21   -1    0    0  502  504 -0.00000000000E+00 -0.00000000000E+00 -0.20386354341E+03  0.20386354341E+03  0.00000000000E+00 0.  1.
          6    2    1    2  502    0  0.37716438858E+01 -0.74146138220E+02 -0.24845884939E+02  0.18910570104E+03  0.17213881915E+03 0.  0.
         24    2    3    3    0    0  0.12029496228E+02 -0.11795380168E+03 -0.26641160262E+02  0.14424350631E+03  0.77708619734E+02 0.  0.
         -6    2    1    2    0  503 -0.37716438858E+01  0.74146138220E+02 -0.57412689672E+01  0.18803423188E+03  0.17266162017E+03 0.  0.
        -24    2    5    5    0    0 -0.53883129581E+01  0.71987439901E+02 -0.67611278103E+02  0.12592737535E+03  0.77943527739E+02 0.  0.
          2    1    4    4  501    0  0.30345119889E+02 -0.93462371896E+02 -0.45527225025E+02  0.10829944358E+03  0.00000000000E+00 0. -1.
         -1    1    4    4    0  501 -0.18315623661E+02 -0.24491429784E+02  0.18886064763E+02  0.35944062725E+02  0.00000000000E+00 0.  1.
          5    1    3    3  502    0 -0.82578523424E+01  0.43807663459E+02  0.17952753226E+01  0.44862194736E+02  0.47000000000E+01 0. -1.
         11    1    6    6    0    0  0.16064183006E+02 -0.68597381719E+01  0.32510862075E+01  0.17767485611E+02  0.00000000000E+00 0. -1.
        -12    1    6    6    0    0 -0.21452495964E+02  0.78847178073E+02 -0.70862364310E+02  0.10815988974E+03  0.00000000000E+00 0.  1.
         -5    1    5    5    0  503  0.16166690722E+01  0.21586983192E+01  0.61870009135E+02  0.62106856528E+02  0.47000000000E+01 0.  1.
<mgrwt>
<rscale>  2 0.18782640E+03</rscale>
<asrwt>0</asrwt>
<pdfrwt beam="1">  1       21 0.26657906E-01 0.18794656E+03</pdfrwt>
<pdfrwt beam="2">  1       21 0.31363622E-01 0.18794656E+03</pdfrwt>
<totfact> 0.13106260E+05</totfact>
</mgrwt>
</event>
<event>
12    1  0.1441827E-001  0.2072307E+03  0.7546771E-02  0.1143847E+00
         21   -1    0    0  504  503  0.00000000000E+00  0.00000000000E+00  0.10797693497E+03  0.10797693497E+03  0.00000000000E+00 0. -1.
         21   -1    0    0  502  504 -0.00000000000E+00 -0.00000000000E+00 -0.48182935498E+03  0.48182935498E+03  0.00000000000E+00 0.  1.
          6    2    1    2  502    0  0.89010201739E+02 -0.71529592707E+02 -0.31049027067E+03  0.37310524315E+03  0.17252250764E+03 0.  0.
         24    2    3    3    0    0 -0.44876725887E+00 -0.45279371943E+01 -0.20115441952E+03  0.21668098889E+03  0.80416707506E+02 0.  0.
         -6    2    1    2    0  503 -0.89010201739E+02  0.71529592707E+02 -0.63362149334E+02  0.21670104679E+03  0.17293144037E+03 0.  0.
        -24    2    5    5    0    0 -0.27021602029E+02 -0.11099960653E+01  0.19381627761E+02  0.90258494626E+02  0.83902021966E+02 0.  0.
          4    1    4    4  501    0 -0.33100840860E+02 -0.13106732069E+02 -0.47496144324E+02  0.59357693829E+02  0.00000000000E+00 0. -1.
         -3    1    4    4    0  501  0.32652073601E+02  0.85787948742E+01 -0.15365827520E+03  0.15732329506E+03  0.00000000000E+00 0.  1.
          5    1    3    3  502    0  0.89458968998E+02 -0.67001655513E+02 -0.10933585115E+03  0.15642425426E+03  0.47000000000E+01 0. -1.
         11    1    6    6    0    0 -0.16600417413E+02  0.40961854840E+02  0.44764115893E+01  0.44423931287E+02  0.00000000000E+00 0. -1.
        -12    1    6    6    0    0 -0.10421184616E+02 -0.42071850905E+02  0.14905216172E+02  0.45834563340E+02  0.00000000000E+00 0.  1.
         -5    1    5    5    0  503 -0.61988599710E+02  0.72639588773E+02 -0.82743777095E+02  0.12644255217E+03  0.47000000000E+01 0.  1.
<mgrwt>
<rscale>  2 0.20714541E+03</rscale>
<asrwt>0</asrwt>
<pdfrwt beam="1">  1       21 0.16611836E-01 0.20723075E+03</pdfrwt>
<pdfrwt beam="2">  1       21 0.74127593E-01 0.20723075E+03</pdfrwt>
<totfact> 0.52743592E+04</totfact>
</mgrwt>
</event>
<event>
12    1  0.1441827E-001  0.2139273E+03  0.7546771E-02  0.1138680E+00
         21   -1    0    0  504  503  0.00000000000E+00  0.00000000000E+00  0.17234649666E+03  0.17234649666E+03  0.00000000000E+00 0.  1.
         21   -1    0    0  502  504 -0.00000000000E+00 -0.00000000000E+00 -0.38590963874E+03  0.38590963874E+03  0.00000000000E+00 0.  1.
          6    2    1    2  502    0 -0.12597375677E+03 -0.64227225698E+01 -0.26327913883E+03  0.33862792718E+03  0.17158767252E+03 0.  0.
         24    2    3    3    0    0 -0.11950430246E+03  0.53549225822E+02 -0.19586414493E+03  0.24804448589E+03  0.77553245054E+02 0.  0.
         -6    2    1    2    0  503  0.12597375677E+03  0.64227225698E+01  0.49715996760E+02  0.21962820822E+03  0.17278376877E+03 0.  0.
        -24    2    5    5    0    0  0.56672441641E+02  0.45016190481E+02 -0.24847599176E+02  0.11066056218E+03  0.79938312407E+02 0.  0.
          2    1    4    4  501    0 -0.28269722552E+02  0.53946941998E+02 -0.75177797443E+02  0.96753041257E+02  0.00000000000E+00 0. -1.
         -1    1    4    4    0  501 -0.91234579911E+02 -0.39771617567E+00 -0.12068634748E+03  0.15129144463E+03  0.00000000000E+00 0.  1.
          5    1    3    3  502    0 -0.64694543106E+01 -0.59971948392E+02 -0.67414993907E+02  0.90583441294E+02  0.47000000000E+01 0. -1.
         13    1    6    6    0    0 -0.53879416096E+01  0.84687699329E+01 -0.36363561577E+02  0.37723448803E+02  0.00000000000E+00 0. -1.
        -14    1    6    6    0    0  0.62060383251E+02  0.36547420548E+02  0.11515962402E+02  0.72937113378E+02  0.00000000000E+00 0.  1.
         -5    1    5    5    0  503  0.69301315133E+02 -0.38593467911E+02  0.74563595936E+02  0.10896764604E+03  0.47000000000E+01 0.  1.
<mgrwt>
<rscale>  2 0.21368562E+03</rscale>
<asrwt>0</asrwt>
<pdfrwt beam="1">  1       21 0.26514846E-01 0.21392725E+03</pdfrwt>
<pdfrwt beam="2">  1       21 0.59370714E-01 0.21392725E+03</pdfrwt>
<totfact> 0.35472050E+04</totfact>
</mgrwt>
</event>
<event>
12    1  0.1441827E-001  0.1975050E+03  0.7546771E-02  0.1151963E+00
         21   -1    0    0  504  503  0.00000000000E+00  0.00000000000E+00  0.15731453319E+03  0.15731453319E+03  0.00000000000E+00 0. -1.
         21   -1    0    0  502  504 -0.00000000000E+00 -0.00000000000E+00 -0.67382742923E+03  0.67382742923E+03  0.00000000000E+00 0.  1.
          6    2    1    2  502    0  0.71830676106E+02  0.64690456659E+02 -0.58897666552E+03  0.62120988889E+03  0.17223156597E+03 0.  0.
         24    2    3    3    0    0 -0.64970690893E+01  0.76157954303E+02 -0.42068996243E+03  0.43517429120E+03  0.80959084271E+02 0.  0.
         -6    2    1    2    0  503 -0.71830676106E+02 -0.64690456659E+02  0.72463769480E+02  0.20993207353E+03  0.17168569072E+03 0.  0.
        -24    2    5    5    0    0  0.14299809204E+02  0.13385444874E+01  0.95503369028E+01  0.84399290998E+02  0.82618128406E+02 0.  0.
          4    1    4    4  501    0  0.16818558904E+02  0.67216300825E+02 -0.17498636156E+03  0.18820499927E+03  0.00000000000E+00 0. -1.
         -3    1    4    4    0  501 -0.23315627994E+02  0.89416534777E+01 -0.24570360087E+03  0.24696929193E+03  0.00000000000E+00 0.  1.
          5    1    3    3  502    0  0.78327745195E+02 -0.11467497644E+02 -0.16828670309E+03  0.18603559769E+03  0.47000000000E+01 0. -1.
         11    1    6    6    0    0 -0.24849215202E+02  0.19346487665E+02 -0.14915735013E+02  0.34846079150E+02  0.00000000000E+00 0. -1.
        -12    1    6    6    0    0  0.39149024406E+02 -0.18007943178E+02  0.24466071916E+02  0.49553211848E+02  0.00000000000E+00 0.  1.
         -5    1    5    5    0  503 -0.86130485310E+02 -0.66029001147E+02  0.62913432577E+02  0.12553278253E+03  0.47000000000E+01 0.  1.
<mgrwt>
<rscale>  2 0.19738590E+03</rscale>
<asrwt>0</asrwt>
<pdfrwt beam="1">  1       21 0.24202236E-01 0.19750497E+03</pdfrwt>
<pdfrwt beam="2">  1       21 0.10366576E+00 0.19750497E+03</pdfrwt>
<totfact> 0.12098368E+04</totfact>
</mgrwt>
</event>
<event>
12    1  0.1441827E-001  0.1970367E+03  0.7546771E-02  0.1153071E+00
         21   -1    0    0  504  503  0.00000000000E+00  0.00000000000E+00  0.23825564467E+03  0.23825564467E+03  0.00000000000E+00 0.  1.
         21   -1    0    0  502  504 -0.00000000000E+00 -0.00000000000E+00 -0.43619230901E+03  0.43619230901E+03  0.00000000000E+00 0.  1.
          6    2    1    2  502    0 -0.41887821295E+02 -0.70886345140E+02 -0.36701198374E+03  0.41481375357E+03  0.17490909195E+03 0.  0.
         24    2    3    3    0    0 -0.39147249457E+02 -0.86779043565E+02 -0.37589464852E+03  0.39581163972E+03  0.79416357295E+02 0.  0.
         -6    2    1    2    0  503  0.41887821295E+02  0.70886345140E+02  0.16907531940E+03  0.25963420011E+03  0.17900835382E+03 0.  0.
        -24    2    5    5    0    0 -0.53790858552E+01 -0.28406902447E+02  0.97207408017E+02  0.12817927927E+03  0.78388524595E+02 0.  0.
          4    1    4    4  501    0  0.43004715095E+01 -0.14804582632E+02 -0.60980274986E+01  0.16578771410E+02  0.00000000000E+00 0. -1.
         -3    1    4    4    0  501 -0.43447720967E+02 -0.71974460933E+02 -0.36979662103E+03  0.37923286831E+03  0.00000000000E+00 0.  1.
          5    1    3    3  502    0 -0.27405718375E+01  0.15892698425E+02  0.88826647856E+01  0.19002113854E+02  0.47000000000E+01 0. -1.
         11    1    6    6    0    0  0.19334476067E+02  0.18818185153E+02  0.17043266962E+02  0.31912677825E+02  0.00000000000E+00 0. -1.
        -12    1    6    6    0    0 -0.24713561922E+02 -0.47225087600E+02  0.80164141055E+02  0.96266601440E+02  0.00000000000E+00 0.  1.
         -5    1    5    5    0  503  0.47266907150E+02  0.99293247586E+02  0.71867911383E+02  0.13145492085E+03  0.47000000000E+01 0.  1.
<mgrwt>
<rscale>  2 0.19610089E+03</rscale>
<asrwt>0</asrwt>
<pdfrwt beam="1">  1       21 0.36654715E-01 0.19703668E+03</pdfrwt>
<pdfrwt beam="2">  1       21 0.67106509E-01 0.19703668E+03</pdfrwt>
<totfact> 0.14551607E+04</totfact>
</mgrwt>
</event>
<event>
12    1  0.1441827E-001  0.1957594E+03  0.7546771E-02  0.1157167E+00
         21   -1    0    0  504  503  0.00000000000E+00  0.00000000000E+00  0.37462702771E+03  0.37462702771E+03  0.00000000000E+00 0. -1.
         21   -1    0    0  502  504 -0.00000000000E+00 -0.00000000000E+00 -0.94649200785E+02  0.94649200785E+02  0.00000000000E+00 0. -1.
          6    2    1    2  502    0 -0.12775657031E+02  0.38462215199E+02  0.15666884212E+03  0.23791755029E+03  0.17440491747E+03 0.  0.
         24    2    3    3    0    0  0.55758976512E+02  0.16730174321E+02  0.12209221568E+03  0.15799940034E+03  0.81659899488E+02 0.  0.
         -6    2    1    2    0  503  0.12775657031E+02 -0.38462215199E+02  0.12330898481E+03  0.23135867821E+03  0.19151807444E+03 0.  0.
        -24    2    5    5    0    0  0.26827262752E+02 -0.83429110622E+02  0.24972700216E+02  0.12221847400E+03  0.81446922003E+02 0.  0.
          2    1    4    4  501    0  0.67417064382E+02  0.15048658596E+02  0.50810261924E+02  0.85750833304E+02  0.00000000000E+00 0. -1.
         -1    1    4    4    0  501 -0.11658087870E+02  0.16815157249E+01  0.71281953756E+02  0.72248567039E+02  0.00000000000E+00 0.  1.
          5    1    3    3  502    0 -0.68534633544E+02  0.21732040877E+02  0.34576626437E+02  0.79918149950E+02  0.47000000000E+01 0. -1.
         11    1    6    6    0    0  0.43816388029E+02 -0.70230507017E+02  0.43780734135E+02  0.93642686085E+02  0.00000000000E+00 0. -1.
        -12    1    6    6    0    0 -0.16989125277E+02 -0.13198603605E+02 -0.18808033919E+02  0.28575787910E+02  0.00000000000E+00 0.  1.
         -5    1    5    5    0  503 -0.14051605721E+02  0.44966895423E+02  0.98336284596E+02  0.10914020421E+03  0.47000000000E+01 0.  1.
<mgrwt>
<rscale>  2 0.19144179E+03</rscale>
<asrwt>0</asrwt>
<pdfrwt beam="1">  1       21 0.57634926E-01 0.19575937E+03</pdfrwt>
<pdfrwt beam="2">  1       21 0.14561416E-01 0.19575937E+03</pdfrwt>
<totfact> 0.11679122E+05</totfact>
</mgrwt>
</event>
<event>
12    1  0.1441827E-001  0.1806234E+03  0.7546771E-02  0.1167346E+00
         21   -1    0    0  504  503  0.00000000000E+00  0.00000000000E+00  0.82637651198E+03  0.82637651198E+03  0.00000000000E+00 0.  1.
         21   -1    0    0  502  504 -0.00000000000E+00 -0.00000000000E+00 -0.61617227266E+02  0.61617227266E+02  0.00000000000E+00 0.  1.
          6    2    1    2  502    0  0.23924050928E+02 -0.42882154655E+02  0.11505522051E+03  0.21364948437E+03  0.17319687932E+03 0.  0.
         24    2    3    3    0    0 -0.28357093262E+02 -0.75679427654E+00  0.66443833236E+01  0.86045159825E+02  0.80962486521E+02 0.  0.
         -6    2    1    2    0  503 -0.23924050928E+02  0.42882154655E+02  0.64970406421E+03  0.67434425488E+03  0.17382049256E+03 0.  0.
        -24    2    5    5    0    0 -0.45995092192E+02 -0.24616929459E+01  0.18608714943E+03  0.20796894565E+03  0.80629068810E+02 0.  0.
          4    1    4    4  501    0 -0.12688806813E+02 -0.25050663252E+02  0.35457282891E+02  0.45230083547E+02  0.00000000000E+00 0. -1.
         -3    1    4    4    0  501 -0.15668286449E+02  0.24293868976E+02 -0.28812899567E+02  0.40815076277E+02  0.00000000000E+00 0.  1.
          5    1    3    3  502    0  0.52281144190E+02 -0.42125360378E+02  0.10841083718E+03  0.12760432455E+03  0.47000000000E+01 0. -1.
         11    1    6    6    0    0 -0.55653956604E+02  0.25219621683E+02  0.10180947039E+03  0.11873735918E+03  0.00000000000E+00 0. -1.
        -12    1    6    6    0    0  0.96588644127E+01 -0.27681314629E+02  0.84277679034E+02  0.89231586474E+02  0.00000000000E+00 0.  1.
         -5    1    5    5    0  503  0.22071041264E+02  0.45343847601E+02  0.46361691479E+03  0.46637530922E+03  0.47000000000E+01 0.  1.
<mgrwt>
<rscale>  2 0.18047317E+03</rscale>
<asrwt>0</asrwt>
<pdfrwt beam="1">  1       21 0.12713484E+00 0.18062337E+03</pdfrwt>
<pdfrwt beam="2">  1       21 0.94795740E-02 0.18062337E+03</pdfrwt>
<totfact> 0.41038052E+04</totfact>
</mgrwt>
</event>
<event>
12    1  0.1441827E-001  0.2092162E+03  0.7546771E-02  0.1142347E+00
         21   -1    0    0  504  503  0.00000000000E+00  0.00000000000E+00  0.90577471465E+03  0.90577471465E+03  0.00000000000E+00 0.  1.
         21   -1    0    0  502  504 -0.00000000000E+00 -0.00000000000E+00 -0.49486990820E+02  0.49486990820E+02  0.00000000000E+00 0.  1.
          6    2    1    2  502    0 -0.64491684736E+02 -0.98155168194E+02  0.35018063378E+03  0.40791898903E+03  0.17314101447E+03 0.  0.
         24    2    3    3    0    0 -0.63597285970E+02 -0.17370189524E+02  0.28361440428E+03  0.30313270348E+03  0.84296899956E+02 0.  0.
         -6    2    1    2    0  503  0.64491684736E+02  0.98155168194E+02  0.50610709005E+03  0.54734271644E+03  0.17218027819E+03 0.  0.
        -24    2    5    5    0    0  0.26286397965E+02 -0.61840750831E+01  0.13787033365E+03  0.16267829076E+03  0.82016948731E+02 0.  0.
          2    1    4    4  501    0 -0.26096861013E+02 -0.20623176892E+02  0.25139299207E+03  0.25358390730E+03  0.00000000000E+00 0. -1.
         -1    1    4    4    0  501 -0.37500424957E+02  0.32529873682E+01  0.32221412206E+02  0.49548796185E+02  0.00000000000E+00 0.  1.
          5    1    3    3  502    0 -0.89439876669E+00 -0.80784978670E+02  0.66566229502E+02  0.10478628554E+03  0.47000000000E+01 0. -1.
         11    1    6    6    0    0 -0.15795137616E+02 -0.31910993849E+02  0.43664382561E+02  0.56341602792E+02  0.00000000000E+00 0. -1.
        -12    1    6    6    0    0  0.42081535581E+02  0.25726918766E+02  0.94205951093E+02  0.10633668797E+03  0.00000000000E+00 0.  1.
         -5    1    5    5    0  503  0.38205286771E+02  0.10433924328E+03  0.36823675640E+03  0.38466442568E+03  0.47000000000E+01 0.  1.
<mgrwt>
<rscale>  2 0.20901734E+03</rscale>
<asrwt>0</asrwt>
<pdfrwt beam="1">  1       21 0.13934994E+00 0.20921622E+03</pdfrwt>
<pdfrwt beam="2">  1       21 0.76133839E-02 0.20921622E+03</pdfrwt>
<totfact> 0.46933156E+04</totfact>
</mgrwt>
</event>
<event>
12    1  0.1441827E-001  0.1886317E+03  0.7546771E-02  0.1161628E+00
         21   -1    0    0  504  503  0.00000000000E+00  0.00000000000E+00  0.12272952695E+04  0.12272952695E+04  0.00000000000E+00 0. -1.
         21   -1    0    0  502  504 -0.00000000000E+00 -0.00000000000E+00 -0.36683313422E+02  0.36683313422E+02  0.00000000000E+00 0. -1.
          6    2    1    2  502    0  0.55255339849E+02  0.76537274502E+01  0.27316018857E+03  0.32733581410E+03  0.17152409291E+03 0.  0.
         24    2    3    3    0    0  0.15668812531E+02  0.56208415046E+01  0.38394017711E+02  0.89200409868E+02  0.78775040331E+02 0.  0.
         -6    2    1    2    0  503 -0.55255339849E+02 -0.76537274502E+01  0.91745176748E+03  0.93664276879E+03  0.18019489047E+03 0.  0.
        -24    2    5    5    0    0 -0.21383314932E+01 -0.59528855533E+02  0.69309691388E+03  0.70027518255E+03  0.80335186364E+02 0.  0.
          4    1    4    4  501    0  0.47015924284E+02 -0.45068798259E+01  0.18556050303E+02  0.50745798889E+02  0.00000000000E+00 0. -1.
         -3    1    4    4    0  501 -0.31347111753E+02  0.10127721331E+02  0.19837967408E+02  0.38454610978E+02  0.00000000000E+00 0.  1.
          5    1    3    3  502    0  0.39586527317E+02  0.20328859455E+01  0.23476617086E+03  0.23813540423E+03  0.47000000000E+01 0. -1.
         13    1    6    6    0    0 -0.38869565428E+02 -0.14285832106E+02  0.31597598447E+03  0.31867813053E+03  0.00000000000E+00 0. -1.
        -14    1    6    6    0    0  0.36731233935E+02 -0.45243023427E+02  0.37712092941E+03  0.38159705202E+03  0.00000000000E+00 0.  1.
         -5    1    5    5    0  503 -0.53117008356E+02  0.51875128083E+02  0.22435485361E+03  0.23636758624E+03  0.47000000000E+01 0.  1.
<mgrwt>
<rscale>  2 0.18653070E+03</rscale>
<asrwt>0</asrwt>
<pdfrwt beam="1">  1       21 0.18881463E+00 0.18863173E+03</pdfrwt>
<pdfrwt beam="2">  1       21 0.56435876E-02 0.18863173E+03</pdfrwt>
<totfact> 0.34861256E+04</totfact>
</mgrwt>
</event>
<event>
12    1  0.1441827E-001  0.2014087E+03  0.7546771E-02  0.1149919E+00
         21   -1    0    0  504  503  0.00000000000E+00  0.00000000000E+00  0.88190172405E+03  0.88190172405E+03  0.00000000000E+00 0. -1.
         21   -1    0    0  502  504 -0.00000000000E+00 -0.00000000000E+00 -0.96854207716E+02  0.96854207716E+02  0.00000000000E+00 0.  1.
          6    2    1    2  502    0  0.82757948784E+02 -0.39426883831E+02  0.35820662665E+02  0.20456927150E+03  0.17933797621E+03 0.  0.
         24    2    3    3    0    0  0.11388923225E+03  0.12899934503E+02  0.26360712319E+02  0.14277256133E+03  0.80944126292E+02 0.  0.
         -6    2    1    2    0  503 -0.82757948784E+02  0.39426883831E+02  0.74922685367E+03  0.77418666027E+03  0.17210679656E+03 0.  0.
        -24    2    5    5    0    0 -0.97064925039E+02  0.74469866591E+02  0.67169258402E+03  0.68777859826E+03  0.83072932360E+02 0.  0.
          4    1    4    4  501    0  0.67876189237E+02  0.46955491322E+02  0.21690751821E+02  0.85337470933E+02  0.00000000000E+00 0. -1.
         -3    1    4    4    0  501  0.46013043015E+02 -0.34055556819E+02  0.46699604979E+01  0.57435090396E+02  0.00000000000E+00 0.  1.
          5    1    3    3  502    0 -0.31131283468E+02 -0.52326818334E+02  0.94599503455E+01  0.61796710170E+02  0.47000000000E+01 0. -1.
         11    1    6    6    0    0 -0.21028257186E+02  0.67946454508E+02  0.35052428142E+03  0.35766769514E+03  0.00000000000E+00 0. -1.
        -12    1    6    6    0    0 -0.76036667853E+02  0.65234120830E+01  0.32116830260E+03  0.33011090312E+03  0.00000000000E+00 0.  1.
         -5    1    5    5    0  503  0.14306976255E+02 -0.35042982760E+02  0.77534269648E+02  0.86408062009E+02  0.47000000000E+01 0.  1.
<mgrwt>
<rscale>  2 0.19978646E+03</rscale>
<asrwt>0</asrwt>
<pdfrwt beam="1">  1       21 0.13567718E+00 0.20140871E+03</pdfrwt>
<pdfrwt beam="2">  1       21 0.14900648E-01 0.20140871E+03</pdfrwt>
<totfact> 0.15307940E+04</totfact>
</mgrwt>
</event>
<event>
12    1  0.1441827E-001  0.1810832E+03  0.7546771E-02  0.1166871E+00
         21   -1    0    0  504  503  0.00000000000E+00  0.00000000000E+00  0.56737772636E+02  0.56737772636E+02  0.00000000000E+00 0.  1.
         21   -1    0    0  502  504 -0.00000000000E+00 -0.00000000000E+00 -0.74309894776E+03  0.74309894776E+03  0.00000000000E+00 0.  1.
          6    2    1    2  502    0 -0.14834353726E+02  0.49995476220E+02 -0.53291253915E+03  0.56283825887E+03  0.17341143438E+03 0.  0.
         24    2    3    3    0    0 -0.22244452885E+02 -0.32350466518E+02 -0.18350798521E+03  0.20375415150E+03  0.79367532714E+02 0.  0.
         -6    2    1    2    0  503  0.14834353726E+02 -0.49995476220E+02 -0.15344863597E+03  0.23699846152E+03  0.17292247161E+03 0.  0.
        -24    2    5    5    0    0 -0.30948630302E+01  0.12259706372E+02 -0.14184717222E+02  0.83330984030E+02  0.81135492352E+02 0.  0.
          4    1    4    4  501    0 -0.27548870608E+02 -0.42446104001E+02 -0.54983964181E+02  0.74725151948E+02  0.00000000000E+00 0. -1.
         -3    1    4    4    0  501  0.53044177226E+01  0.10095637483E+02 -0.12852402103E+03  0.12902899955E+03  0.00000000000E+00 0.  1.
          5    1    3    3  502    0  0.74100991588E+01  0.82345942737E+02 -0.34940455394E+03  0.35908410737E+03  0.47000000000E+01 0. -1.
         13    1    6    6    0    0  0.35255481049E+02  0.23111415568E+02 -0.52028908783E+01  0.42475364001E+02  0.00000000000E+00 0. -1.
        -14    1    6    6    0    0 -0.38350344079E+02 -0.10851709195E+02 -0.89818263437E+01  0.40855620029E+02  0.00000000000E+00 0.  1.
         -5    1    5    5    0  503  0.17929216756E+02 -0.62255182592E+02 -0.13926391875E+03  0.15366747749E+03  0.47000000000E+01 0.  1.
<mgrwt>
<rscale>  2 0.18096605E+03</rscale>
<asrwt>0</asrwt>
<pdfrwt beam="1">  1       21 0.87288886E-02 0.18108322E+03</pdfrwt>
<pdfrwt beam="2">  1       21 0.11432291E+00 0.18108322E+03</pdfrwt>
<totfact> 0.61641758E+04</totfact>
</mgrwt>
</event>
<event>
12    1  0.1441827E-001  0.1988330E+03  0.7546771E-02  0.1151051E+00
         21   -1    0    0  504  503  0.00000000000E+00  0.00000000000E+00  0.57497667754E+02  0.57497667754E+02  0.00000000000E+00 0. -1.
         21   -1    0    0  502  504 -0.00000000000E+00 -0.00000000000E+00 -0.68750449466E+03  0.68750449466E+03  0.00000000000E+00 0.  1.
          6    2    1    2  502    0  0.85044733448E+02  0.42747435573E+02 -0.34843754284E+03  0.40117735999E+03  0.17456976535E+03 0.  0.
         24    2    3    3    0    0  0.11117536805E+03  0.37281011934E+02 -0.17586387667E+03  0.22648777212E+03  0.81355832568E+02 0.  0.
         -6    2    1    2    0  503 -0.85044733448E+02 -0.42747435573E+02 -0.28156928406E+03  0.34382480242E+03  0.17284178632E+03 0.  0.
        -24    2    5    5    0    0 -0.19795954576E+02 -0.84918993682E+02 -0.16376405673E+03  0.20262988380E+03  0.81468326522E+02 0.  0.
          4    1    4    4  501    0  0.73352270319E+02  0.35575575676E+02 -0.51358385753E+02  0.96352794110E+02  0.00000000000E+00 0. -1.
         -3    1    4    4    0  501  0.37823097735E+02  0.17054362577E+01 -0.12450549091E+03  0.13013497801E+03  0.00000000000E+00 0.  1.
          5    1    3    3  502    0 -0.26130634607E+02  0.54664236393E+01 -0.17257366617E+03  0.17468958787E+03  0.47000000000E+01 0. -1.
         11    1    6    6    0    0 -0.31748655739E+02 -0.30410703860E+02 -0.19776228491E+02  0.48206713888E+02  0.00000000000E+00 0. -1.
        -12    1    6    6    0    0  0.11952701163E+02 -0.54508289822E+02 -0.14398782824E+03  0.15442316991E+03  0.00000000000E+00 0.  1.
         -5    1    5    5    0  503 -0.65248778872E+02  0.42171558109E+02 -0.11780522733E+03  0.14119491862E+03  0.47000000000E+01 0.  1.
<mgrwt>
<rscale>  2 0.19845304E+03</rscale>
<asrwt>0</asrwt>
<pdfrwt beam="1">  1       21 0.88457949E-02 0.19883298E+03</pdfrwt>
<pdfrwt beam="2">  1       21 0.10576992E+00 0.19883298E+03</pdfrwt>
<totfact> 0.72071305E+04</totfact>
</mgrwt>
</event>
<event>
12    1  0.1441827E-001  0.1872649E+03  0.7546771E-02  0.1161122E+00
         21   -1    0    0  504  503  0.00000000000E+00  0.00000000000E+00  0.25254882995E+03  0.25254882995E+03  0.00000000000E+00 0. -1.
         21   -1    0    0  502  504 -0.00000000000E+00 -0.00000000000E+00 -0.14299411023E+03  0.14299411023E+03  0.00000000000E+00 0. -1.
          6    2    1    2  502    0 -0.71288559751E+02 -0.10715158478E+02  0.19084460484E+02  0.18823484289E+03  0.17283305839E+03 0.  0.
         24    2    3    3    0    0 -0.71774736865E+02  0.37064571744E+02  0.56311182129E+02  0.12748076654E+03  0.80962962362E+02 0.  0.
         -6    2    1    2    0  503  0.71288559751E+02  0.10715158478E+02  0.90470259242E+02  0.20730809730E+03  0.17203170064E+03 0.  0.
        -24    2    5    5    0    0  0.10505904124E+03  0.18398432355E+02  0.29470816444E+02  0.13700518029E+03  0.80783574722E+02 0.  0.
          2    1    4    4  501    0 -0.19366854653E+02  0.42158358243E+02 -0.49998234925E+01  0.46662623842E+02  0.00000000000E+00 0. -1.
         -1    1    4    4    0  501 -0.52407882212E+02 -0.50937864994E+01  0.61311005621E+02  0.80818142698E+02  0.00000000000E+00 0.  1.
          5    1    3    3  502    0  0.48617711338E+00 -0.47779730222E+02 -0.37226721644E+02  0.60754076346E+02  0.47000000000E+01 0. -1.
         13    1    6    6    0    0  0.34034655463E+02 -0.31518954882E+02  0.41307842729E+01  0.46571081886E+02  0.00000000000E+00 0. -1.
        -14    1    6    6    0    0  0.71024385780E+02  0.49917387237E+02  0.25340032171E+02  0.90434098405E+02  0.00000000000E+00 0.  1.
         -5    1    5    5    0  503 -0.33770481491E+02 -0.76832738769E+01  0.60999442798E+02  0.70302917004E+02  0.47000000000E+01 0.  1.
<mgrwt>
<rscale>  2 0.18707978E+03</rscale>
<asrwt>0</asrwt>
<pdfrwt beam="1">  1       21 0.38853666E-01 0.18726489E+03</pdfrwt>
<pdfrwt beam="2">  1       21 0.21999094E-01 0.18726489E+03</pdfrwt>
<totfact> 0.12353297E+05</totfact>
</mgrwt>
</event>
<event>
12    1  0.1441827E-001  0.1891796E+03  0.7546771E-02  0.1159904E+00
         21   -1    0    0  504  503  0.00000000000E+00  0.00000000000E+00  0.16044743869E+04  0.16044743869E+04  0.00000000000E+00 0.  1.
         21   -1    0    0  502  504 -0.00000000000E+00 -0.00000000000E+00 -0.22424966517E+02  0.22424966517E+02  0.00000000000E+00 0.  1.
          6    2    1    2  502    0  0.71531542755E+02 -0.94692270872E+01  0.66581194197E+03  0.69133532599E+03  0.17155921138E+03 0.  0.
         24    2    3    3    0    0  0.12233803215E+02  0.25789820162E+02  0.55042497171E+03  0.55681519651E+03  0.79124792694E+02 0.  0.
         -6    2    1    2    0  503 -0.71531542755E+02  0.94692270872E+01  0.91623747841E+03  0.93556402743E+03  0.17487854274E+03 0.  0.
        -24    2    5    5    0    0 -0.19523227751E+02  0.46713857298E+02  0.29887636682E+03  0.31487984090E+03  0.85199123677E+02 0.  0.
          2    1    4    4  501    0  0.30385441284E+02  0.11664073285E+01  0.46648063834E+03  0.46747066378E+03  0.00000000000E+00 0. -1.
         -1    1    4    4    0  501 -0.18151638069E+02  0.24623412833E+02  0.83944333366E+02  0.89344532728E+02  0.00000000000E+00 0.  1.
          5    1    3    3  502    0  0.59297739540E+02 -0.35259047249E+02  0.11538697027E+03  0.13452012948E+03  0.47000000000E+01 0. -1.
         13    1    6    6    0    0 -0.13199719284E+02  0.16043669986E+02  0.79059906752E+01  0.22229184069E+02  0.00000000000E+00 0. -1.
        -14    1    6    6    0    0 -0.63235084667E+01  0.30670187312E+02  0.29097037614E+03  0.29265065683E+03  0.00000000000E+00 0.  1.
         -5    1    5    5    0  503 -0.52008315004E+02 -0.37244630211E+02  0.61736111159E+03  0.62068418654E+03  0.47000000000E+01 0.  1.
<mgrwt>
<rscale>  2 0.18840891E+03</rscale>
<asrwt>0</asrwt>
<pdfrwt beam="1">  1       21 0.24684212E+00 0.18917963E+03</pdfrwt>
<pdfrwt beam="2">  1       21 0.34499961E-02 0.18917963E+03</pdfrwt>
<totfact> 0.34918873E+04</totfact>
</mgrwt>
</event>
<event>
12    1  0.1441827E-001  0.1993942E+03  0.7546771E-02  0.1150442E+00
         21   -1    0    0  504  503  0.00000000000E+00  0.00000000000E+00  0.52982789156E+03  0.52982789156E+03  0.00000000000E+00 0. -1.
         21   -1    0    0  502  504 -0.00000000000E+00 -0.00000000000E+00 -0.89807050540E+02  0.89807050540E+02  0.00000000000E+00 0. -1.
          6    2    1    2  502    0 -0.63984058167E+02 -0.76996675103E+02  0.92536934070E+02  0.21900652063E+03  0.17140106252E+03 0.  0.
         24    2    3    3    0    0 -0.42667956021E+02 -0.12001022350E+03  0.67489220955E+02  0.16465562837E+03  0.79584375316E+02 0.  0.
         -6    2    1    2    0  503  0.63984058167E+02  0.76996675103E+02  0.34748390695E+03  0.40062842148E+03  0.17244018912E+03 0.  0.
        -24    2    5    5    0    0  0.69129265783E+02  0.62670372650E+02  0.36052893021E+03  0.38003767755E+03  0.75770019425E+02 0.  0.
          4    1    4    4  501    0 -0.61929529421E+02 -0.10482645528E+03  0.40798171266E+02  0.12840694342E+03  0.00000000000E+00 0. -1.
         -3    1    4    4    0  501  0.19261573400E+02 -0.15183768223E+02  0.26691049688E+02  0.36248684952E+02  0.00000000000E+00 0.  1.
          5    1    3    3  502    0 -0.21316102146E+02  0.43013548398E+02  0.25047713115E+02  0.54350892254E+02  0.47000000000E+01 0. -1.
         11    1    6    6    0    0 -0.33503753026E+01  0.22858218773E+02  0.23277053451E+02  0.32795493555E+02  0.00000000000E+00 0. -1.
        -12    1    6    6    0    0  0.72479641085E+02  0.39812153877E+02  0.33725187676E+03  0.34724218400E+03  0.00000000000E+00 0.  1.
         -5    1    5    5    0  503 -0.51452076162E+01  0.14326302453E+02 -0.13045023260E+02  0.20590743921E+02  0.47000000000E+01 0.  1.
<mgrwt>
<rscale>  2 0.19916938E+03</rscale>
<asrwt>0</asrwt>
<pdfrwt beam="1">  1       21 0.81511982E-01 0.19939425E+03</pdfrwt>
<pdfrwt beam="2">  1       21 0.13816470E-01 0.19939425E+03</pdfrwt>
<totfact> 0.59838735E+04</totfact>
</mgrwt>
</event>
<event>
12    1  0.1441827E-001  0.1837017E+03  0.7546771E-02  0.1165715E+00
         21   -1    0    0  504  503  0.00000000000E+00  0.00000000000E+00  0.25905518581E+03  0.25905518581E+03  0.00000000000E+00 0. -1.
         21   -1    0    0  502  504 -0.00000000000E+00 -0.00000000000E+00 -0.13598054648E+03  0.13598054648E+03  0.00000000000E+00 0. -1.
          6    2    1    2  502    0  0.22770703909E+02  0.32797295774E+02  0.71432398607E+01  0.17781138830E+03  0.17312335592E+03 0.  0.
         24    2    3    3    0    0  0.11067293144E+02 -0.32281528941E+02  0.48328783660E+02  0.99769333815E+02  0.80334715730E+02 0.  0.
         -6    2    1    2    0  503 -0.22770703909E+02 -0.32797295774E+02  0.11593139948E+03  0.21722434399E+03  0.17931023025E+03 0.  0.
        -24    2    5    5    0    0 -0.50761718792E+02 -0.61728438041E+01  0.14122183764E+03  0.17081255003E+03  0.81353941053E+02 0.  0.
          2    1    4    4  501    0 -0.11384510630E+02 -0.34096102215E+02 -0.99423469341E+01  0.37296132924E+02  0.00000000000E+00 0. -1.
         -1    1    4    4    0  501  0.22451803773E+02  0.18145732737E+01  0.58271130594E+02  0.62473200891E+02  0.00000000000E+00 0.  1.
          5    1    3    3  502    0  0.11703410766E+02  0.65078824715E+02 -0.41185543799E+02  0.78042054483E+02  0.47000000000E+01 0. -1.
         13    1    6    6    0    0  0.15537406752E+01 -0.34531151696E+02  0.69478153316E+02  0.77601728948E+02  0.00000000000E+00 0. -1.
        -14    1    6    6    0    0 -0.52315459467E+02  0.28358307892E+02  0.71743684323E+02  0.93210821078E+02  0.00000000000E+00 0.  1.
         -5    1    5    5    0  503  0.27991014883E+02 -0.26624451969E+02 -0.25290438164E+02  0.46411793968E+02  0.47000000000E+01 0.  1.
<mgrwt>
<rscale>  2 0.18217432E+03</rscale>
<asrwt>0</asrwt>
<pdfrwt beam="1">  1       21 0.39854644E-01 0.18370173E+03</pdfrwt>
<pdfrwt beam="2">  1       21 0.20920084E-01 0.18370173E+03</pdfrwt>
<totfact> 0.12915141E+05</totfact>
</mgrwt>
</event>
<event>
12    1  0.1441827E-001  0.1902744E+03  0.7546771E-02  0.1159006E+00
         21   -1    0    0  504  503  0.00000000000E+00  0.00000000000E+00  0.29606561573E+03  0.29606561573E+03  0.00000000000E+00 0. -1.
         21   -1    0    0  502  504 -0.00000000000E+00 -0.00000000000E+00 -0.16304658432E+03  0.16304658432E+03  0.00000000000E+00 0. -1.
          6    2    1    2  502    0 -0.73637621436E+02 -0.31402919567E+02 -0.50909104128E+02  0.19696723787E+03  0.17261434837E+03 0.  0.
         24    2    3    3    0    0 -0.34133354750E+02 -0.75051797717E+02 -0.93501726726E+00  0.11960244609E+03  0.86637247220E+02 0.  0.
         -6    2    1    2    0  503  0.73637621436E+02  0.31402919567E+02  0.18392813554E+03  0.26214496217E+03  0.16876545708E+03 0.  0.
        -24    2    5    5    0    0  0.78712974188E+02  0.74113753362E+02  0.16989911294E+03  0.21666004155E+03  0.79920487250E+02 0.  0.
          2    1    4    4  501    0  0.25051397425E+02 -0.47720885151E+02 -0.59236245725E+01  0.54221257092E+02  0.00000000000E+00 0. -1.
         -1    1    4    4    0  501 -0.59184752175E+02 -0.27330912566E+02  0.49886073053E+01  0.65381188996E+02  0.00000000000E+00 0.  1.
          5    1    3    3  502    0 -0.39504266686E+02  0.43648878151E+02 -0.49974086860E+02  0.77364791784E+02  0.47000000000E+01 0. -1.
         13    1    6    6    0    0 -0.16557936821E+02  0.89042280750E+01  0.19908840411E+02  0.27382703955E+02  0.00000000000E+00 0. -1.
        -14    1    6    6    0    0  0.95270911009E+02  0.65209525287E+02  0.14999027253E+03  0.18927733760E+03  0.00000000000E+00 0.  1.
         -5    1    5    5    0  503 -0.50753527523E+01 -0.42710833796E+02  0.14029022595E+02  0.45484920622E+02  0.47000000000E+01 0.  1.
<mgrwt>
<rscale>  2 0.18939721E+03</rscale>
<asrwt>0</asrwt>
<pdfrwt beam="1">  1       21 0.45548556E-01 0.19027442E+03</pdfrwt>
<pdfrwt beam="2">  1       21 0.25084090E-01 0.19027442E+03</pdfrwt>
<totfact> 0.69634574E+04</totfact>
</mgrwt>
</event>
<event>
12    1  0.1441827E-001  0.1736083E+03  0.7546771E-02  0.1174358E+00
         21   -1    0    0  504  503  0.00000000000E+00  0.00000000000E+00  0.63512369852E+02  0.63512369852E+02  0.00000000000E+00 0.  1.
         21   -1    0    0  502  504 -0.00000000000E+00 -0.00000000000E+00 -0.52834226232E+03  0.52834226232E+03  0.00000000000E+00 0.  1.
          6    2    1    2  502    0  0.26815857789E+01  0.18311495660E+00 -0.13540633222E+03  0.21948420827E+03  0.17271716313E+03 0.  0.
         24    2    3    3    0    0 -0.61027929694E+01 -0.65510482619E+02 -0.99745771719E+02  0.14407479474E+03  0.80495093575E+02 0.  0.
         -6    2    1    2    0  503 -0.26815857789E+01 -0.18311495660E+00 -0.32942356025E+03  0.37237042390E+03  0.17358751718E+03 0.  0.
        -24    2    5    5    0    0 -0.83644426781E+01  0.67007539819E+02 -0.22397579607E+03  0.24711787934E+03  0.79637395534E+02 0.  0.
          2    1    4    4  501    0  0.26743762452E+02 -0.56250047755E+02 -0.88346307569E+02  0.10809424945E+03  0.00000000000E+00 0. -1.
         -1    1    4    4    0  501 -0.32846555421E+02 -0.92604348646E+01 -0.11399464150E+02  0.35980545297E+02  0.00000000000E+00 0.  1.
          5    1    3    3  502    0  0.87843787483E+01  0.65693597576E+02 -0.35660560500E+02  0.75409413522E+02  0.47000000000E+01 0. -1.
         11    1    6    6    0    0 -0.74208257650E+01 -0.15768517508E+02 -0.71783967820E+02  0.73869160246E+02  0.00000000000E+00 0. -1.
        -12    1    6    6    0    0 -0.94361691312E+00  0.82776057328E+02 -0.15219182825E+03  0.17324871909E+03  0.00000000000E+00 0.  1.
         -5    1    5    5    0  503  0.56828568992E+01 -0.67190654776E+02 -0.10544776417E+03  0.12525254457E+03  0.47000000000E+01 0.  1.
<mgrwt>
<rscale>  2 0.17339035E+03</rscale>
<asrwt>0</asrwt>
<pdfrwt beam="1">  1       21 0.97711339E-02 0.17360833E+03</pdfrwt>
<pdfrwt beam="2">  1       21 0.81283425E-01 0.17360833E+03</pdfrwt>
<totfact> 0.11296878E+05</totfact>
</mgrwt>
</event>
<event>
12    1  0.1441827E-001  0.2118515E+03  0.7546771E-02  0.1140178E+00
         21   -1    0    0  504  503  0.00000000000E+00  0.00000000000E+00  0.73386623680E+02  0.73386623680E+02  0.00000000000E+00 0.  1.
         21   -1    0    0  502  504 -0.00000000000E+00 -0.00000000000E+00 -0.89692792681E+03  0.89692792681E+03  0.00000000000E+00 0.  1.
          6    2    1    2  502    0  0.12173291619E+03 -0.18402137115E+02 -0.68615109637E+03  0.71811167791E+03  0.17240508512E+03 0.  0.
         24    2    3    3    0    0  0.34550529649E+02 -0.71711544303E+02 -0.36782063836E+03  0.38374805562E+03  0.75061731289E+02 0.  0.
         -6    2    1    2    0  503 -0.12173291619E+03  0.18402137115E+02 -0.13739020676E+03  0.25220287257E+03  0.17196708547E+03 0.  0.
        -24    2    5    5    0    0 -0.75483704395E+02  0.81793338150E+02 -0.11400413569E+03  0.17018804294E+03  0.59825472912E+02 0.  0.
          4    1    4    4  501    0  0.39275482795E+02 -0.20473702480E+01 -0.14539200994E+03  0.15061736894E+03  0.00000000000E+00 0. -1.
         -3    1    4    4    0  501 -0.47249531457E+01 -0.69664174055E+02 -0.22242862842E+03  0.23313068668E+03  0.00000000000E+00 0.  1.
          5    1    3    3  502    0  0.87182386541E+02  0.53309407188E+02 -0.31833045801E+03  0.33436362229E+03  0.47000000000E+01 0. -1.
         13    1    6    6    0    0  0.92276878726E+01  0.21418562955E+01 -0.13519688588E+02  0.16508172260E+02  0.00000000000E+00 0. -1.
        -14    1    6    6    0    0 -0.84711392268E+02  0.79651481855E+02 -0.10048444710E+03  0.15367987068E+03  0.00000000000E+00 0.  1.
         -5    1    5    5    0  503 -0.46249211795E+02 -0.63391201035E+02 -0.23386071072E+02  0.82014829638E+02  0.47000000000E+01 0.  1.
<mgrwt>
<rscale>  2 0.21176236E+03</rscale>
<asrwt>0</asrwt>
<pdfrwt beam="1">  1       21 0.11290250E-01 0.21185149E+03</pdfrwt>
<pdfrwt beam="2">  1       21 0.13798891E+00 0.21185149E+03</pdfrwt>
<totfact> 0.24011986E+04</totfact>
</mgrwt>
</event>
<event>
12    1  0.1441827E-001  0.2346422E+03  0.7546771E-02  0.1123471E+00
         21   -1    0    0  504  503  0.00000000000E+00  0.00000000000E+00  0.14853001511E+03  0.14853001511E+03  0.00000000000E+00 0.  1.
         21   -1    0    0  502  504 -0.00000000000E+00 -0.00000000000E+00 -0.39819811071E+03  0.39819811071E+03  0.00000000000E+00 0.  1.
          6    2    1    2  502    0 -0.42104564139E+02  0.15173701927E+03 -0.19729637082E+03  0.30631231317E+03  0.17350636278E+03 0.  0.
         24    2    3    3    0    0  0.40222228617E+02  0.88090049438E+02 -0.79401012165E+02  0.14899084876E+03  0.80722164216E+02 0.  0.
         -6    2    1    2    0  503  0.42104564139E+02 -0.15173701927E+03 -0.52371724777E+02  0.24041581265E+03  0.17395415510E+03 0.  0.
        -24    2    5    5    0    0  0.25039608756E+02 -0.60282750122E+02 -0.92165119876E+02  0.13912069756E+03  0.81235258352E+02 0.  0.
          4    1    4    4  501    0  0.54569390429E+02  0.23557416134E+02 -0.30826126477E+02  0.66955360504E+02  0.00000000000E+00 0. -1.
         -3    1    4    4    0  501 -0.14347161812E+02  0.64532633304E+02 -0.48574885688E+02  0.82035488253E+02  0.00000000000E+00 0.  1.
          5    1    3    3  502    0 -0.82326792756E+02  0.63646969827E+02 -0.11789535866E+03  0.15732146442E+03  0.47000000000E+01 0. -1.
         11    1    6    6    0    0  0.16717150707E+02  0.11487642261E+02  0.20544231546E+01  0.20387488982E+02  0.00000000000E+00 0. -1.
        -12    1    6    6    0    0  0.83224580494E+01 -0.71770392384E+02 -0.94219543031E+02  0.11873320858E+03  0.00000000000E+00 0.  1.
         -5    1    5    5    0  503  0.17064955383E+02 -0.91454269143E+02  0.39793395099E+02  0.10129511509E+03  0.47000000000E+01 0.  1.
<mgrwt>
<rscale>  2 0.23455922E+03</rscale>
<asrwt>0</asrwt>
<pdfrwt beam="1">  1       21 0.22850772E-01 0.23464221E+03</pdfrwt>
<pdfrwt beam="2">  1       21 0.61261246E-01 0.23464221E+03</pdfrwt>
<totfact> 0.43637480E+04</totfact>
</mgrwt>
</event>
<event>
12    1  0.1441827E-001  0.1748687E+03  0.7546771E-02  0.1173239E+00
         21   -1    0    0  504  503  0.00000000000E+00  0.00000000000E+00  0.17383432781E+03  0.17383432781E+03  0.00000000000E+00 0. -1.
         21   -1    0    0  502  504 -0.00000000000E+00 -0.00000000000E+00 -0.18689833570E+03  0.18689833570E+03  0.00000000000E+00 0. -1.
          6    2    1    2  502    0  0.71133388866E+01 -0.42162108732E+01 -0.53166837780E+02  0.18277242127E+03  0.17467303545E+03 0.  0.
         24    2    3    3    0    0 -0.28876728558E+01  0.36448246491E+02  0.30227624455E+02  0.89336107876E+02  0.75699521554E+02 0.  0.
         -6    2    1    2    0  503 -0.71133388866E+01  0.42162108732E+01  0.40102829893E+02  0.17796024224E+03  0.17318555028E+03 0.  0.
        -24    2    5    5    0    0 -0.15455852598E+02  0.29214836305E+02 -0.37860136467E+02  0.95529404973E+02  0.81240920978E+02 0.  0.
          4    1    4    4  501    0  0.86183253635E+01 -0.15542281084E+01  0.45841379136E+02  0.46670367453E+02  0.00000000000E+00 0. -1.
         -3    1    4    4    0  501 -0.11505998219E+02  0.38002474599E+02 -0.15613754680E+02  0.42665740424E+02  0.00000000000E+00 0.  1.
          5    1    3    3  502    0  0.10001011742E+02 -0.40664457364E+02 -0.83394462236E+02  0.93436313391E+02  0.47000000000E+01 0. -1.
         13    1    6    6    0    0  0.28403946912E+02  0.12658789337E+02  0.56068094292E+01  0.31598504073E+02  0.00000000000E+00 0. -1.
        -14    1    6    6    0    0 -0.43859799511E+02  0.16556046967E+02 -0.43466945896E+02  0.63930900900E+02  0.00000000000E+00 0.  1.
         -5    1    5    5    0  503  0.83425137118E+01 -0.24998625432E+02  0.77962966360E+02  0.82430837264E+02  0.47000000000E+01 0.  1.
<mgrwt>
<rscale>  2 0.17449601E+03</rscale>
<asrwt>0</asrwt>
<pdfrwt beam="1">  1       21 0.26743743E-01 0.17486865E+03</pdfrwt>
<pdfrwt beam="2">  1       21 0.28753590E-01 0.17486865E+03</pdfrwt>
<totfact> 0.15492360E+05</totfact>
</mgrwt>
</event>
<event>
12    1  0.1441827E-001  0.2100620E+03  0.7546771E-02  0.1141661E+00
         21   -1    0    0  504  503  0.00000000000E+00  0.00000000000E+00  0.22780640903E+03  0.22780640903E+03  0.00000000000E+00 0. -1.
         21   -1    0    0  502  504 -0.00000000000E+00 -0.00000000000E+00 -0.25344124940E+03  0.25344124940E+03  0.00000000000E+00 0.  1.
          6    2    1    2  502    0  0.10041081711E+03  0.63928188542E+02 -0.13031358456E+03  0.24719966807E+03  0.17308061732E+03 0.  0.
         24    2    3    3    0    0  0.11549609531E+03  0.79052175373E+02 -0.14766665879E+03  0.21927978660E+03  0.81789902983E+02 0.  0.
         -6    2    1    2    0  503 -0.10041081711E+03 -0.63928188542E+02  0.10467874420E+03  0.23404799036E+03  0.17219662256E+03 0.  0.
        -24    2    5    5    0    0 -0.45110888058E+02 -0.93617251728E+02  0.10936586872E+03  0.17093236819E+03  0.80360433121E+02 0.  0.
          4    1    4    4  501    0  0.25945117267E+02  0.45738544905E+02 -0.98892563056E+02  0.11200402952E+03  0.00000000000E+00 0. -1.
         -3    1    4    4    0  501  0.89550978043E+02  0.33313630467E+02 -0.48774095738E+02  0.10727575709E+03  0.00000000000E+00 0.  1.
          5    1    3    3  502    0 -0.15085278202E+02 -0.15123986831E+02  0.17353074229E+02  0.27919881470E+02  0.47000000000E+01 0. -1.
         13    1    6    6    0    0  0.48059978216E+01 -0.72713180546E+02  0.40576370899E+02  0.83407110701E+02  0.00000000000E+00 0. -1.
        -14    1    6    6    0    0 -0.49916885880E+02 -0.20904071182E+02  0.68789497821E+02  0.87525257489E+02  0.00000000000E+00 0.  1.
         -5    1    5    5    0  503 -0.55299929050E+02  0.29689063186E+02 -0.46871245185E+01  0.63115622171E+02  0.47000000000E+01 0.  1.
<mgrwt>
<rscale>  2 0.20987983E+03</rscale>
<asrwt>0</asrwt>
<pdfrwt beam="1">  1       21 0.35047140E-01 0.21006200E+03</pdfrwt>
<pdfrwt beam="2">  1       21 0.38990962E-01 0.21006200E+03</pdfrwt>
<totfact> 0.49356831E+04</totfact>
</mgrwt>
</event>
<event>
12    1  0.1441827E-001  0.1863889E+03  0.7546771E-02  0.1161984E+00
         21   -1    0    0  504  503  0.00000000000E+00  0.00000000000E+00  0.36002985681E+03  0.36002985681E+03  0.00000000000E+00 0. -1.
         21   -1    0    0  502  504 -0.00000000000E+00 -0.00000000000E+00 -0.11059621207E+03  0.11059621207E+03  0.00000000000E+00 0.  1.
          6    2    1    2  502    0 -0.37214604095E+02 -0.57082543308E+02  0.38924245064E+02  0.18945881569E+03  0.17244188145E+03 0.  0.
         24    2    3    3    0    0  0.29558566146E+02  0.13405532445E+02  0.17329017493E+02  0.89881363714E+02  0.82005777620E+02 0.  0.
         -6    2    1    2    0  503  0.37214604095E+02  0.57082543308E+02  0.21050939968E+03  0.28116725320E+03  0.17348623407E+03 0.  0.
        -24    2    5    5    0    0  0.21916359593E+02  0.82004113180E+02  0.22076512560E+03  0.24982413842E+03  0.80435427888E+02 0.  0.
          2    1    4    4  501    0  0.26032035994E+02  0.30936378611E+02  0.42723910430E+02  0.58822265700E+02  0.00000000000E+00 0. -1.
         -1    1    4    4    0  501  0.35265301523E+01 -0.17530846166E+02 -0.25394892937E+02  0.31059098015E+02  0.00000000000E+00 0.  1.
          5    1    3    3  502    0 -0.66773170241E+02 -0.70488075753E+02  0.21595227571E+02  0.99577451972E+02  0.47000000000E+01 0. -1.
         11    1    6    6    0    0 -0.18593316747E+02 -0.47107359675E+01  0.57009232849E+02  0.60149439657E+02  0.00000000000E+00 0. -1.
        -12    1    6    6    0    0  0.40509676340E+02  0.86714849147E+02  0.16375589275E+03  0.18967469876E+03  0.00000000000E+00 0.  1.
         -5    1    5    5    0  503  0.15298244502E+02 -0.24921569872E+02 -0.10255725926E+02  0.31343114778E+02  0.47000000000E+01 0.  1.
<mgrwt>
<rscale>  2 0.18614549E+03</rscale>
<asrwt>0</asrwt>
<pdfrwt beam="1">  1       21 0.55389208E-01 0.18638889E+03</pdfrwt>
<pdfrwt beam="2">  1       21 0.17014802E-01 0.18638889E+03</pdfrwt>
<totfact> 0.95944977E+04</totfact>
</mgrwt>
</event>
<event>
12    1  0.1441827E-001  0.2235020E+03  0.7546771E-02  0.1131701E+00
         21   -1    0    0  504  503  0.00000000000E+00  0.00000000000E+00  0.55185995590E+03  0.55185995590E+03  0.00000000000E+00 0. -1.
         21   -1    0    0  502  504 -0.00000000000E+00 -0.00000000000E+00 -0.89651801062E+02  0.89651801062E+02  0.00000000000E+00 0.  1.
          6    2    1    2  502    0 -0.89296099745E+02  0.10944545806E+03  0.23702871930E+03  0.32578481878E+03  0.17320806175E+03 0.  0.
         24    2    3    3    0    0 -0.12454741983E+03  0.99289446077E+02  0.16001886608E+03  0.24035410041E+03  0.82423310995E+02 0.  0.
         -6    2    1    2    0  503  0.89296099745E+02 -0.10944545806E+03  0.22517943553E+03  0.31572693817E+03  0.17036906874E+03 0.  0.
        -24    2    5    5    0    0  0.42536869198E+02 -0.15485096361E+01  0.15570863231E+03  0.17906509412E+03  0.77507074719E+02 0.  0.
          4    1    4    4  501    0 -0.29969525577E+02  0.36526025151E+00  0.23977916426E+00  0.29972710462E+02  0.00000000000E+00 0. -1.
         -3    1    4    4    0  501 -0.94577894256E+02  0.98924185826E+02  0.15977908691E+03  0.21038138995E+03  0.00000000000E+00 0.  1.
          5    1    3    3  502    0  0.35251320088E+02  0.10156011985E+02  0.77009853227E+02  0.85430718371E+02  0.47000000000E+01 0. -1.
         13    1    6    6    0    0  0.55552062193E+02 -0.17582898302E+02  0.70866099623E+02  0.91745266921E+02  0.00000000000E+00 0. -1.
        -14    1    6    6    0    0 -0.13015192994E+02  0.16034388666E+02  0.84842532690E+02  0.87319827197E+02  0.00000000000E+00 0.  1.
         -5    1    5    5    0  503  0.46759230547E+02 -0.10789694843E+03  0.69470803217E+02  0.13666184406E+03  0.47000000000E+01 0.  1.
<mgrwt>
<rscale>  2 0.22295173E+03</rscale>
<asrwt>0</asrwt>
<pdfrwt beam="1">  1       21 0.84901530E-01 0.22350198E+03</pdfrwt>
<pdfrwt beam="2">  1       21 0.13792585E-01 0.22350198E+03</pdfrwt>
<totfact> 0.54083908E+04</totfact>
</mgrwt>
</event>
<event>
12    1  0.1441827E-001  0.1772132E+03  0.7546771E-02  0.1171808E+00
         21   -1    0    0  504  503  0.00000000000E+00  0.00000000000E+00  0.41750533055E+02  0.41750533055E+02  0.00000000000E+00 0. -1.
         21   -1    0    0  502  504 -0.00000000000E+00 -0.00000000000E+00 -0.81590786150E+03  0.81590786150E+03  0.00000000000E+00 0. -1.
          6    2    1    2  502    0  0.30028644384E+02 -0.12450022429E+02 -0.52059035167E+03  0.54830303479E+03  0.16901236985E+03 0.  0.
         24    2    3    3    0    0  0.61280584319E+02  0.48086108669E+01 -0.18408427678E+03  0.20987583049E+03  0.79889990059E+02 0.  0.
         -6    2    1    2    0  503 -0.30028644384E+02  0.12450022429E+02 -0.25356697677E+03  0.30935535976E+03  0.17420621219E+03 0.  0.
        -24    2    5    5    0    0 -0.60070795479E+02  0.59718960227E+02 -0.19897772901E+03  0.23100384865E+03  0.81214449263E+02 0.  0.
          2    1    4    4  501    0 -0.14708148437E+01 -0.27315259645E+02 -0.31025058055E+02  0.41362312957E+02  0.00000000000E+00 0. -1.
         -1    1    4    4    0  501  0.62751399162E+02  0.32123870512E+02 -0.15305921873E+03  0.16851351753E+03  0.00000000000E+00 0.  1.
          5    1    3    3  502    0 -0.31251939934E+02 -0.17258633296E+02 -0.33650607489E+03  0.33842720430E+03  0.47000000000E+01 0. -1.
         13    1    6    6    0    0  0.18379848387E+02  0.15264911610E+02 -0.67269438275E+02  0.71386369000E+02  0.00000000000E+00 0. -1.
        -14    1    6    6    0    0 -0.78450643866E+02  0.44454048617E+02 -0.13170829073E+03  0.15961747965E+03  0.00000000000E+00 0.  1.
         -5    1    5    5    0  503  0.30042151095E+02 -0.47268937798E+02 -0.54589247761E+02  0.78351511115E+02  0.47000000000E+01 0.  1.
<mgrwt>
<rscale>  2 0.17592344E+03</rscale>
<asrwt>0</asrwt>
<pdfrwt beam="1">  1       21 0.64231585E-02 0.17721322E+03</pdfrwt>
<pdfrwt beam="2">  1       21 0.12552429E+00 0.17721322E+03</pdfrwt>
<totfact> 0.83406548E+04</totfact>
</mgrwt>
</event>
<event>
12    1  0.1441827E-001  0.2317015E+03  0.7546771E-02  0.1125523E+00
         21   -1    0    0  504  503  0.00000000000E+00  0.00000000000E+00  0.44415328520E+03  0.44415328520E+03  0.00000000000E+00 0. -1.
         21   -1    0    0  502  504 -0.00000000000E+00 -0.00000000000E+00 -0.15880201904E+03  0.15880201904E+03  0.00000000000E+00 0.  1.
          6    2    1    2  502    0  0.10887708078E+03  0.10593155420E+03  0.29035168494E+03  0.37119987204E+03  0.17438328808E+03 0.  0.
         24    2    3    3    0    0  0.23536453635E+02  0.11860822740E+03  0.17872943853E+03  0.23004273769E+03  0.79709301284E+02 0.  0.
         -6    2    1    2    0  503 -0.10887708078E+03 -0.10593155420E+03 -0.50004187724E+01  0.23175543221E+03  0.17495674687E+03 0.  0.
        -24    2    5    5    0    0 -0.12024468035E+03 -0.21835066522E+02  0.28099227807E+01  0.14640595655E+03  0.80568326060E+02 0.  0.
          4    1    4    4  501    0 -0.19506099136E+02  0.76886544286E+02  0.13214836107E+03  0.15412727835E+03  0.00000000000E+00 0. -1.
         -3    1    4    4    0  501  0.43042552770E+02  0.41721683110E+02  0.46581077454E+02  0.75915459343E+02  0.00000000000E+00 0.  1.
          5    1    3    3  502    0  0.85340627143E+02 -0.12676673192E+02  0.11162224641E+03  0.14115713435E+03  0.47000000000E+01 0. -1.
         13    1    6    6    0    0 -0.99790825195E+02 -0.40362979140E+02  0.25562596671E+02  0.11063826294E+03  0.00000000000E+00 0. -1.
        -14    1    6    6    0    0 -0.20453855154E+02  0.18527912619E+02 -0.22752673890E+02  0.35767693605E+02  0.00000000000E+00 0.  1.
         -5    1    5    5    0  503  0.11367599571E+02 -0.84096487683E+02 -0.78103415531E+01  0.85349475662E+02  0.47000000000E+01 0.  1.
<mgrwt>
<rscale>  2 0.23159323E+03</rscale>
<asrwt>0</asrwt>
<pdfrwt beam="1">  1       21 0.68331274E-01 0.23170148E+03</pdfrwt>
<pdfrwt beam="2">  1       21 0.24431080E-01 0.23170148E+03</pdfrwt>
<totfact> 0.30296579E+04</totfact>
</mgrwt>
</event>
<event>
12    1  0.1441827E-001  0.2718179E+03  0.7546771E-02  0.1100282E+00
         21   -1    0    0  504  503  0.00000000000E+00  0.00000000000E+00  0.56771881308E+03  0.56771881308E+03  0.00000000000E+00 0. -1.
         21   -1    0    0  502  504 -0.00000000000E+00 -0.00000000000E+00 -0.68544806900E+03  0.68544806900E+03  0.00000000000E+00 0.  1.
          6    2    1    2  502    0 -0.10637867651E+03 -0.18069977557E+03 -0.62289574700E+03  0.67951353309E+03  0.17254187408E+03 0.  0.
         24    2    3    3    0    0 -0.10607618541E+03 -0.15333255670E+03 -0.34551087378E+03  0.40074209613E+03  0.80333266199E+02 0.  0.
         -6    2    1    2    0  503  0.10637867651E+03  0.18069977557E+03  0.50516649108E+03  0.57365334898E+03  0.17296285550E+03 0.  0.
        -24    2    5    5    0    0  0.58485841875E+02  0.18942177385E+03  0.46048631220E+03  0.50740981913E+03  0.78204083749E+02 0.  0.
          4    1    4    4  501    0 -0.10056897144E+02 -0.83713067808E+02 -0.14981553857E+03  0.17191193821E+03  0.00000000000E+00 0. -1.
         -3    1    4    4    0  501 -0.96019288267E+02 -0.69619488894E+02 -0.19569533521E+03  0.22883015792E+03  0.00000000000E+00 0.  1.
          5    1    3    3  502    0 -0.30249109871E+00 -0.27367218872E+02 -0.27738487322E+03  0.27877143696E+03  0.47000000000E+01 0. -1.
         13    1    6    6    0    0  0.51922743038E+02  0.16657311660E+03  0.44752270405E+03  0.48033232772E+03  0.00000000000E+00 0. -1.
        -14    1    6    6    0    0  0.65630988362E+01  0.22848657249E+02  0.12963608155E+02  0.27077491406E+02  0.00000000000E+00 0.  1.
         -5    1    5    5    0  503  0.47892834635E+02 -0.87219982743E+01  0.44680178877E+02  0.66243529856E+02  0.47000000000E+01 0.  1.
<mgrwt>
<rscale>  2 0.27175097E+03</rscale>
<asrwt>0</asrwt>
<pdfrwt beam="1">  1       21 0.87341356E-01 0.27181792E+03</pdfrwt>
<pdfrwt beam="2">  1       21 0.10545355E+00 0.27181792E+03</pdfrwt>
<totfact> 0.75863018E+02</totfact>
</mgrwt>
</event>
<event>
12    1  0.1441827E-001  0.2155431E+03  0.7546771E-02  0.1140069E+00
         21   -1    0    0  504  503  0.00000000000E+00  0.00000000000E+00  0.23218127959E+04  0.23218127959E+04  0.00000000000E+00 0. -1.
         21   -1    0    0  502  504 -0.00000000000E+00 -0.00000000000E+00 -0.44807225733E+02  0.44807225733E+02  0.00000000000E+00 0.  1.
          6    2    1    2  502    0 -0.76038760320E+02  0.10682781382E+03  0.21950070922E+03  0.29785588192E+03  0.15278576560E+03 0.  0.
         24    2    3    3    0    0 -0.19219778026E+02  0.33457524517E+02  0.42836261754E+02  0.98246230101E+02  0.79552313566E+02 0.  0.
         -6    2    1    2    0  503  0.76038760320E+02 -0.10682781382E+03  0.20575048609E+04  0.20687641397E+04  0.17106939547E+03 0.  0.
        -24    2    5    5    0    0  0.84284425154E+02 -0.91912734518E+01  0.12213515894E+04  0.12268762205E+04  0.79606605631E+02 0.  0.
          4    1    4    4  501    0  0.20011851005E+02 -0.15159485074E+02  0.63349936400E+01  0.25892398745E+02  0.00000000000E+00 0. -1.
         -3    1    4    4    0  501 -0.39231629031E+02  0.48617009591E+02  0.36501268114E+02  0.72353831356E+02  0.00000000000E+00 0.  1.
          5    1    3    3  502    0 -0.56818982294E+02  0.73370289300E+02  0.17666444746E+03  0.19960965182E+03  0.47000000000E+01 0. -1.
         13    1    6    6    0    0  0.31628455160E+02 -0.18578682998E+02  0.92563552075E+03  0.92636204796E+03  0.00000000000E+00 0. -1.
        -14    1    6    6    0    0  0.52655969993E+02  0.93874095459E+01  0.29571606861E+03  0.30051417249E+03  0.00000000000E+00 0.  1.
         -5    1    5    5    0  503 -0.82456648335E+01 -0.97636540365E+02  0.83615327157E+03  0.84188791924E+03  0.47000000000E+01 0.  1.
<mgrwt>
<rscale>  2 0.21190087E+03</rscale>
<asrwt>0</asrwt>
<pdfrwt beam="1">  1       21 0.35720188E+00 0.21554307E+03</pdfrwt>
<pdfrwt beam="2">  1       21 0.68934211E-02 0.21554307E+03</pdfrwt>
<totfact> 0.23899440E+03</totfact>
</mgrwt>
</event>
<event>
12    1  0.1441827E-001  0.2293011E+03  0.7546771E-02  0.1127297E+00
         21   -1    0    0  504  503  0.00000000000E+00  0.00000000000E+00  0.12514971693E+03  0.12514971693E+03  0.00000000000E+00 0.  1.
         21   -1    0    0  502  504 -0.00000000000E+00 -0.00000000000E+00 -0.42837714285E+03  0.42837714285E+03  0.00000000000E+00 0. -1.
          6    2    1    2  502    0  0.38048814086E+02  0.14454775733E+03 -0.19347991561E+03  0.29931526987E+03  0.17266553399E+03 0.  0.
         24    2    3    3    0    0  0.61546041333E+02  0.24639490129E+02 -0.72056887494E+02  0.12699070984E+03  0.80866715475E+02 0.  0.
         -6    2    1    2    0  503 -0.38048814086E+02 -0.14454775733E+03 -0.10974751030E+03  0.25421158992E+03  0.17388861385E+03 0.  0.
        -24    2    5    5    0    0 -0.17642630271E+02  0.53331834389E+01 -0.56052261442E+02  0.93631458845E+02  0.72699991913E+02 0.  0.
          2    1    4    4  501    0  0.39540852297E+02  0.57030630793E+01 -0.85969034496E+02  0.94798095029E+02  0.00000000000E+00 0. -1.
         -1    1    4    4    0  501  0.22005189036E+02  0.18936427049E+02  0.13912147002E+02  0.32192614807E+02  0.00000000000E+00 0.  1.
          5    1    3    3  502    0 -0.23497227247E+02  0.11990826721E+03 -0.12142302812E+03  0.17232456003E+03  0.47000000000E+01 0. -1.
         13    1    6    6    0    0 -0.97933710693E+01 -0.23713178896E+02 -0.58060427550E+02  0.63476280748E+02  0.00000000000E+00 0. -1.
        -14    1    6    6    0    0 -0.78492592013E+01  0.29046362335E+02  0.20081661083E+01  0.30155178097E+02  0.00000000000E+00 0.  1.
         -5    1    5    5    0  503 -0.20406183816E+02 -0.14988094077E+03 -0.53695248861E+02  0.16058013107E+03  0.47000000000E+01 0.  1.
<mgrwt>
<rscale>  2 0.22906927E+03</rscale>
<asrwt>0</asrwt>
<pdfrwt beam="1">  1       21 0.19253802E-01 0.22930115E+03</pdfrwt>
<pdfrwt beam="2">  1       21 0.65904177E-01 0.22930115E+03</pdfrwt>
<totfact> 0.51515983E+04</totfact>
</mgrwt>
</event>
<event>
12    1  0.1441827E-001  0.1842376E+03  0.7546771E-02  0.1163924E+00
         21   -1    0    0  504  503  0.00000000000E+00  0.00000000000E+00  0.21752017055E+03  0.21752017055E+03  0.00000000000E+00 0.  1.
         21   -1    0    0  502  504 -0.00000000000E+00 -0.00000000000E+00 -0.18996507146E+03  0.18996507146E+03  0.00000000000E+00 0.  1.
          6    2    1    2  502    0  0.38542048933E+02 -0.49720915574E+02 -0.73064465853E+02  0.19756196211E+03  0.17243739073E+03 0.  0.
         24    2    3    3    0    0 -0.34999456426E+01 -0.68492064434E+02  0.67940657733E+01  0.10526158069E+03  0.79563990151E+02 0.  0.
         -6    2    1    2    0  503 -0.38542048933E+02  0.49720915574E+02  0.10061956494E+03  0.20992327989E+03  0.17316416376E+03 0.  0.
        -24    2    5    5    0    0  0.46924205288E+02  0.35487858735E+02  0.39053859612E+02  0.10353020404E+03  0.75710171295E+02 0.  0.
          2    1    4    4  501    0  0.22030145636E+02 -0.14814033944E+02  0.31235018743E+02  0.40992795883E+02  0.00000000000E+00 0. -1.
         -1    1    4    4    0  501 -0.25530091279E+02 -0.53678030490E+02 -0.24440952969E+02  0.64268784803E+02  0.00000000000E+00 0.  1.
          5    1    3    3  502    0  0.42041994576E+02  0.18771148860E+02 -0.79858531626E+02  0.92300381424E+02  0.47000000000E+01 0. -1.
         13    1    6    6    0    0  0.44611310311E+02  0.64530696932E+01 -0.10286220829E+02  0.46234375253E+02  0.00000000000E+00 0. -1.
        -14    1    6    6    0    0  0.23128949771E+01  0.29034789042E+02  0.49340080441E+02  0.57295828782E+02  0.00000000000E+00 0.  1.
         -5    1    5    5    0  503 -0.85466254221E+02  0.14233056839E+02  0.61565705332E+02  0.10639307586E+03  0.47000000000E+01 0.  1.
<mgrwt>
<rscale>  2 0.18406661E+03</rscale>
<asrwt>0</asrwt>
<pdfrwt beam="1">  1       21 0.33464642E-01 0.18423758E+03</pdfrwt>
<pdfrwt beam="2">  1       21 0.29225396E-01 0.18423758E+03</pdfrwt>
<totfact> 0.96738113E+04</totfact>
</mgrwt>
</event>
<event>
12    1  0.1441827E-001  0.2373045E+03  0.7546771E-02  0.1121663E+00
         21   -1    0    0  504  503  0.00000000000E+00  0.00000000000E+00  0.24133556492E+03  0.24133556492E+03  0.00000000000E+00 0. -1.
         21   -1    0    0  502  504 -0.00000000000E+00 -0.00000000000E+00 -0.24421661226E+03  0.24421661226E+03  0.00000000000E+00 0. -1.
          6    2    1    2  502    0 -0.48244985587E+02 -0.15454307707E+03 -0.53502238763E+02  0.24326096367E+03  0.17350004493E+03 0.  0.
         24    2    3    3    0    0  0.13112234247E+02 -0.51891685177E+02 -0.72969281914E+02  0.12200473723E+03  0.81828858754E+02 0.  0.
         -6    2    1    2    0  503  0.48244985587E+02  0.15454307707E+03  0.50621191420E+02  0.24229121352E+03  0.17300689530E+03 0.  0.
        -24    2    5    5    0    0  0.52490531160E+02  0.16334798945E+03  0.84099723559E+02  0.20709954897E+03  0.79872637141E+02 0.  0.
          4    1    4    4  501    0 -0.98985639825E+01  0.75304276407E+01 -0.54152786563E+02  0.55562696136E+02  0.00000000000E+00 0. -1.
         -3    1    4    4    0  501  0.23010798229E+02 -0.59422112818E+02 -0.18816495351E+02  0.66442041090E+02  0.00000000000E+00 0.  1.
          5    1    3    3  502    0 -0.61357219833E+02 -0.10265139189E+03  0.19467043151E+02  0.12125622644E+03  0.47000000000E+01 0. -1.
         13    1    6    6    0    0  0.37249002523E+02  0.51822286669E+02 -0.43137039512E+01  0.63965972410E+02  0.00000000000E+00 0. -1.
        -14    1    6    6    0    0  0.15241528637E+02  0.11152570278E+03  0.88413427510E+02  0.14313357656E+03  0.00000000000E+00 0.  1.
         -5    1    5    5    0  503 -0.42455455734E+01 -0.88049123792E+01 -0.33478532139E+02  0.35191664544E+02  0.47000000000E+01 0.  1.
<mgrwt>
<rscale>  2 0.23721433E+03</rscale>
<asrwt>0</asrwt>
<pdfrwt beam="1">  1       21 0.37128549E-01 0.23730446E+03</pdfrwt>
<pdfrwt beam="2">  1       21 0.37571786E-01 0.23730446E+03</pdfrwt>
<totfact> 0.46819588E+04</totfact>
</mgrwt>
</event>
<event>
12    1  0.1441827E-001  0.1948881E+03  0.7546771E-02  0.1154516E+00
         21   -1    0    0  504  503  0.00000000000E+00  0.00000000000E+00  0.89744178453E+03  0.89744178453E+03  0.00000000000E+00 0. -1.
         21   -1    0    0  502  504 -0.00000000000E+00 -0.00000000000E+00 -0.44669361759E+02  0.44669361759E+02  0.00000000000E+00 0. -1.
          6    2    1    2  502    0 -0.72762104196E+02  0.50759813490E+02  0.54107849834E+03  0.57450472086E+03  0.17151924219E+03 0.  0.
         24    2    3    3    0    0 -0.22082367905E+02  0.52764531860E+02  0.49514826854E+03  0.50591805615E+03  0.86657630359E+02 0.  0.
         -6    2    1    2    0  503  0.72762104196E+02 -0.50759813490E+02  0.31169392443E+03  0.36760642543E+03  0.17352377077E+03 0.  0.
        -24    2    5    5    0    0  0.98830570761E+02  0.11208548171E+02  0.21752121303E+03  0.25180386774E+03  0.78718463036E+02 0.  0.
          4    1    4    4  501    0  0.18409452977E+02  0.59935594582E+02  0.30275253619E+03  0.30917678054E+03  0.00000000000E+00 0. -1.
         -3    1    4    4    0  501 -0.40491820882E+02 -0.71710627221E+01  0.19239573236E+03  0.19674127561E+03  0.00000000000E+00 0.  1.
          5    1    3    3  502    0 -0.50679736291E+02 -0.20047183699E+01  0.45930229800E+02  0.68586664708E+02  0.47000000000E+01 0. -1.
         11    1    6    6    0    0  0.79005068014E+01 -0.21936763867E+02  0.82144806009E+02  0.85389746287E+02  0.00000000000E+00 0. -1.
        -12    1    6    6    0    0  0.90930063959E+02  0.33145312037E+02  0.13537640702E+03  0.16641412145E+03  0.00000000000E+00 0.  1.
         -5    1    5    5    0  503 -0.26068466565E+02 -0.61968361661E+02  0.94172711399E+02  0.11580255769E+03  0.47000000000E+01 0.  1.
<mgrwt>
<rscale>  2 0.19444093E+03</rscale>
<asrwt>0</asrwt>
<pdfrwt beam="1">  1       21 0.13806795E+00 0.19488813E+03</pdfrwt>
<pdfrwt beam="2">  1       21 0.68722102E-02 0.19488813E+03</pdfrwt>
<totfact> 0.57848572E+04</totfact>
</mgrwt>
</event>
<event>
12    1  0.1441827E-001  0.2157328E+03  0.7546771E-02  0.1137900E+00
         21   -1    0    0  504  503  0.00000000000E+00  0.00000000000E+00  0.14246653038E+03  0.14246653038E+03  0.00000000000E+00 0.  1.
         21   -1    0    0  502  504 -0.00000000000E+00 -0.00000000000E+00 -0.38802781513E+03  0.38802781513E+03  0.00000000000E+00 0. -1.
          6    2    1    2  502    0 -0.11661585510E+03  0.53926015137E+02 -0.23247190474E+03  0.31436484399E+03  0.16815111024E+03 0.  0.
         24    2    3    3    0    0  0.84901488107E+01  0.22352996911E+02 -0.81219178857E+02  0.11549844466E+03  0.78559509978E+02 0.  0.
         -6    2    1    2    0  503  0.11661585510E+03 -0.53926015137E+02 -0.13089380001E+02  0.21612950151E+03  0.17330134675E+03 0.  0.
        -24    2    5    5    0    0  0.97493231993E+02 -0.68902361104E+02 -0.64971124907E+02  0.15865106114E+03  0.81831818258E+02 0.  0.
          4    1    4    4  501    0  0.33607667037E+02  0.39203939928E+02 -0.55364027027E+02  0.75707329091E+02  0.00000000000E+00 0. -1.
         -3    1    4    4    0  501 -0.25117518226E+02 -0.16850943017E+02 -0.25855151830E+02  0.39791115573E+02  0.00000000000E+00 0.  1.
          5    1    3    3  502    0 -0.12510600391E+03  0.31573018226E+02 -0.15125272589E+03  0.19886639933E+03  0.47000000000E+01 0. -1.
         11    1    6    6    0    0 -0.35671355425E+00 -0.10765670667E+02 -0.40927756006E+02  0.42321485338E+02  0.00000000000E+00 0. -1.
        -12    1    6    6    0    0  0.97849945547E+02 -0.58136690438E+02 -0.24043368901E+02  0.11632957580E+03  0.00000000000E+00 0.  1.
         -5    1    5    5    0  503  0.19122623108E+02  0.14976345967E+02  0.51881744906E+02  0.57478440372E+02  0.47000000000E+01 0.  1.
<mgrwt>
<rscale>  2 0.21469657E+03</rscale>
<asrwt>0</asrwt>
<pdfrwt beam="1">  1       21 0.21917928E-01 0.21573277E+03</pdfrwt>
<pdfrwt beam="2">  1       21 0.59696587E-01 0.21573277E+03</pdfrwt>
<totfact> 0.50361664E+04</totfact>
</mgrwt>
</event>
<event>
12    1  0.1441827E-001  0.2630346E+03  0.7546771E-02  0.1105803E+00
         21   -1    0    0  504  503  0.00000000000E+00  0.00000000000E+00  0.71057333074E+02  0.71057333074E+02  0.00000000000E+00 0. -1.
         21   -1    0    0  502  504 -0.00000000000E+00 -0.00000000000E+00 -0.96452355296E+03  0.96452355296E+03  0.00000000000E+00 0.  1.
          6    2    1    2  502    0 -0.92573508061E+02  0.17425980850E+03 -0.47558730820E+03  0.54347999942E+03  0.17392782066E+03 0.  0.
         24    2    3    3    0    0 -0.10945873777E+03  0.16357934293E+03 -0.30641653293E+03  0.37306866021E+03  0.80930321088E+02 0.  0.
         -6    2    1    2    0  503  0.92573508061E+02 -0.17425980850E+03 -0.41787891168E+03  0.49210088661E+03  0.16912765155E+03 0.  0.
        -24    2    5    5    0    0  0.62317007479E+02 -0.19023576732E+03 -0.30164050254E+03  0.37084023822E+03  0.80389258737E+02 0.  0.
          2    1    4    4  501    0 -0.12081999794E+03  0.13988016734E+03 -0.25076832895E+03  0.31152638399E+03  0.00000000000E+00 0. -1.
         -1    1    4    4    0  501  0.11361260171E+02  0.23699175585E+02 -0.55648203977E+02  0.61542276216E+02  0.00000000000E+00 0.  1.
          5    1    3    3  502    0  0.16885229710E+02  0.10680465572E+02 -0.16917077527E+03  0.17041133921E+03  0.47000000000E+01 0. -1.
         13    1    6    6    0    0  0.58617970373E+02 -0.58354918610E+02 -0.13458515253E+03  0.15797001696E+03  0.00000000000E+00 0. -1.
        -14    1    6    6    0    0  0.36990371065E+01 -0.13188084871E+03 -0.16705535001E+03  0.21287022126E+03  0.00000000000E+00 0.  1.
         -5    1    5    5    0  503  0.30256500581E+02  0.15975958821E+02 -0.11623840914E+03  0.12126064839E+03  0.47000000000E+01 0.  1.
<mgrwt>
<rscale>  2 0.26224381E+03</rscale>
<asrwt>0</asrwt>
<pdfrwt beam="1">  1       21 0.10931898E-01 0.26303464E+03</pdfrwt>
<pdfrwt beam="2">  1       21 0.14838824E+00 0.26303464E+03</pdfrwt>
<totfact> 0.20441076E+04</totfact>
</mgrwt>
</event>
<event>
12    1  0.1441827E-001  0.1834348E+03  0.7546771E-02  0.1164657E+00
         21   -1    0    0  504  503  0.00000000000E+00  0.00000000000E+00  0.24322910376E+03  0.24322910376E+03  0.00000000000E+00 0. -1.
         21   -1    0    0  502  504 -0.00000000000E+00 -0.00000000000E+00 -0.14008114806E+03  0.14008114806E+03  0.00000000000E+00 0. -1.
          6    2    1    2  502    0  0.51965692979E+02  0.29103174239E+02  0.75399408453E+02  0.19778853240E+03  0.17288089760E+03 0.  0.
         24    2    3    3    0    0 -0.15641791644E+02 -0.12429801980E+02  0.83271315172E+02  0.11791477572E+03  0.81059341102E+02 0.  0.
         -6    2    1    2    0  503 -0.51965692979E+02 -0.29103174239E+02  0.27748547249E+02  0.18552171943E+03  0.17349610516E+03 0.  0.
        -24    2    5    5    0    0 -0.20319882234E+01  0.37844697782E+02 -0.16459362750E+02  0.90907652050E+02  0.80974937189E+02 0.  0.
          2    1    4    4  501    0 -0.25270936150E+02 -0.26059472056E+02  0.92128406241E+02  0.99022015402E+02  0.00000000000E+00 0. -1.
         -1    1    4    4    0  501  0.96291445057E+01  0.13629670076E+02 -0.88570910692E+01  0.18892760319E+02  0.00000000000E+00 0.  1.
          5    1    3    3  502    0  0.67607484623E+02  0.41532976219E+02 -0.78719067194E+01  0.79873756679E+02  0.47000000000E+01 0. -1.
         11    1    6    6    0    0  0.26505531205E+02  0.11939306008E+02  0.22002141037E+02  0.36457981604E+02  0.00000000000E+00 0. -1.
        -12    1    6    6    0    0 -0.28537519428E+02  0.25905391774E+02 -0.38461503788E+02  0.54449670446E+02  0.00000000000E+00 0.  1.
         -5    1    5    5    0  503 -0.49933704755E+02 -0.66947872021E+02  0.44207910000E+02  0.94614067375E+02  0.47000000000E+01 0.  1.
<mgrwt>
<rscale>  2 0.18328919E+03</rscale>
<asrwt>0</asrwt>
<pdfrwt beam="1">  1       21 0.37419862E-01 0.18343480E+03</pdfrwt>
<pdfrwt beam="2">  1       21 0.21550946E-01 0.18343480E+03</pdfrwt>
<totfact> 0.13864008E+05</totfact>
</mgrwt>
</event>
<event>
12    1  0.1441827E-001  0.1816056E+03  0.7546771E-02  0.1167376E+00
         21   -1    0    0  504  503  0.00000000000E+00  0.00000000000E+00  0.17289309103E+02  0.17289309103E+02  0.00000000000E+00 0. -1.
         21   -1    0    0  502  504 -0.00000000000E+00 -0.00000000000E+00 -0.19005637851E+04  0.19005637851E+04  0.00000000000E+00 0. -1.
          6    2    1    2  502    0  0.52867033574E+02  0.11419378674E+02 -0.10707831091E+04  0.10853131223E+04  0.16853124666E+03 0.  0.
         24    2    3    3    0    0 -0.95547849006E+01 -0.45361976833E+02 -0.54198580409E+03  0.54980468575E+03  0.79922323413E+02 0.  0.
         -6    2    1    2    0  503 -0.52867033574E+02 -0.11419378674E+02 -0.81249136688E+03  0.83253997196E+03  0.17336452407E+03 0.  0.
        -24    2    5    5    0    0 -0.71109789406E+02  0.43449669252E+02 -0.64265927204E+03  0.65307286912E+03  0.80924387825E+02 0.  0.
          4    1    4    4  501    0 -0.32895160938E+01 -0.16098674265E+02 -0.48637806805E+03  0.48665553866E+03  0.00000000000E+00 0. -1.
         -3    1    4    4    0  501 -0.62652688068E+01 -0.29263302568E+02 -0.55607736035E+02  0.63149147083E+02  0.00000000000E+00 0.  1.
          5    1    3    3  502    0  0.62421818475E+02  0.56781355506E+02 -0.52879730506E+03  0.53550843653E+03  0.47000000000E+01 0. -1.
         13    1    6    6    0    0  0.36359318593E+01 -0.99997357098E+01 -0.23262940619E+03  0.23287261612E+03  0.00000000000E+00 0. -1.
        -14    1    6    6    0    0 -0.74745721265E+02  0.53449404962E+02 -0.41002986585E+03  0.42020025300E+03  0.00000000000E+00 0.  1.
         -5    1    5    5    0  503  0.18242755832E+02 -0.54869047926E+02 -0.16983209484E+03  0.17946710283E+03  0.47000000000E+01 0.  1.
<mgrwt>
<rscale>  2 0.18044242E+03</rscale>
<asrwt>0</asrwt>
<pdfrwt beam="1">  1       21 0.26598945E-02 0.18160557E+03</pdfrwt>
<pdfrwt beam="2">  1       21 0.29239434E+00 0.18160557E+03</pdfrwt>
<totfact> 0.29448738E+04</totfact>
</mgrwt>
</event>
<event>
12    1  0.1441827E-001  0.1945183E+03  0.7546771E-02  0.1154756E+00
         21   -1    0    0  504  503  0.00000000000E+00  0.00000000000E+00  0.62635896683E+02  0.62635896683E+02  0.00000000000E+00 0.  1.
         21   -1    0    0  502  504 -0.00000000000E+00 -0.00000000000E+00 -0.68728238248E+03  0.68728238248E+03  0.00000000000E+00 0.  1.
          6    2    1    2  502    0  0.72236521837E+02  0.54481193030E+02 -0.44516245285E+03  0.48524509408E+03  0.17060737505E+03 0.  0.
         24    2    3    3    0    0  0.78870371677E+02 -0.20379157310E+02 -0.31542912929E+03  0.33524207658E+03  0.79094049870E+02 0.  0.
         -6    2    1    2    0  503 -0.72236521837E+02 -0.54481193030E+02 -0.17948403294E+03  0.26467318508E+03  0.17219483540E+03 0.  0.
        -24    2    5    5    0    0  0.92404334439E+01 -0.49317552251E+02 -0.40510825217E+02  0.10342554977E+03  0.80858585287E+02 0.  0.
          2    1    4    4  501    0  0.29633076414E+02 -0.87795467279E+00 -0.21604561938E+02  0.36683063104E+02  0.00000000000E+00 0. -1.
         -1    1    4    4    0  501  0.49237295263E+02 -0.19501202637E+02 -0.29382456735E+03  0.29855901348E+03  0.00000000000E+00 0.  1.
          5    1    3    3  502    0 -0.66338498393E+01  0.74860350340E+02 -0.12973332356E+03  0.15000301750E+03  0.47000000000E+01 0. -1.
         13    1    6    6    0    0 -0.19742700034E+02 -0.27154205893E+02 -0.54779293794E+02  0.64248705286E+02  0.00000000000E+00 0. -1.
        -14    1    6    6    0    0  0.28983133478E+02 -0.22163346359E+02  0.14268468577E+02  0.39176844482E+02  0.00000000000E+00 0.  1.
         -5    1    5    5    0  503 -0.81476955281E+02 -0.51636407783E+01 -0.13897320773E+03  0.16124763531E+03  0.47000000000E+01 0.  1.
<mgrwt>
<rscale>  2 0.19416640E+03</rscale>
<asrwt>0</asrwt>
<pdfrwt beam="1">  1       21 0.96362923E-02 0.19451832E+03</pdfrwt>
<pdfrwt beam="2">  1       21 0.10573575E+00 0.19451832E+03</pdfrwt>
<totfact> 0.62183150E+04</totfact>
</mgrwt>
</event>
<event>
12    1  0.1441827E-001  0.2306802E+03  0.7546771E-02  0.1126191E+00
         21   -1    0    0  504  503  0.00000000000E+00  0.00000000000E+00  0.49519838670E+02  0.49519838670E+02  0.00000000000E+00 0.  1.
         21   -1    0    0  502  504 -0.00000000000E+00 -0.00000000000E+00 -0.13156913155E+04  0.13156913155E+04  0.00000000000E+00 0.  1.
          6    2    1    2  502    0 -0.12697598165E+03 -0.85570860421E+02 -0.34021640685E+03  0.41095430088E+03  0.17231065507E+03 0.  0.
         24    2    3    3    0    0 -0.80435326514E+02 -0.10682480769E+03 -0.32017933393E+03  0.35580598136E+03  0.78750931438E+02 0.  0.
         -6    2    1    2    0  503  0.12697598165E+03  0.85570860421E+02 -0.92595506998E+03  0.95425685329E+03  0.17253428171E+03 0.  0.
        -24    2    5    5    0    0  0.10475893130E+02 -0.61369259186E+01 -0.30315195323E+03  0.31403157971E+03  0.81039003641E+02 0.  0.
          2    1    4    4  501    0 -0.59151086503E+02 -0.34861526692E+02 -0.22109230220E+03  0.23150806286E+03  0.00000000000E+00 0. -1.
         -1    1    4    4    0  501 -0.21284240010E+02 -0.71963280995E+02 -0.99087031732E+02  0.12429791849E+03  0.00000000000E+00 0.  1.
          5    1    3    3  502    0 -0.46540655135E+02  0.21253947266E+02 -0.20037072914E+02  0.55148319519E+02  0.47000000000E+01 0. -1.
         13    1    6    6    0    0  0.38291178404E+02 -0.16589527835E+02 -0.24701755693E+03  0.25051766447E+03  0.00000000000E+00 0. -1.
        -14    1    6    6    0    0 -0.27815285275E+02  0.10452601916E+02 -0.56134396302E+02  0.63513915246E+02  0.00000000000E+00 0.  1.
         -5    1    5    5    0  503  0.11650008852E+03  0.91707786339E+02 -0.62280311675E+03  0.64022527358E+03  0.47000000000E+01 0.  1.
<mgrwt>
<rscale>  2 0.23063838E+03</rscale>
<asrwt>0</asrwt>
<pdfrwt beam="1">  1       21 0.76184362E-02 0.23068019E+03</pdfrwt>
<pdfrwt beam="2">  1       21 0.20241406E+00 0.23068019E+03</pdfrwt>
<totfact> 0.16456040E+04</totfact>
</mgrwt>
</event>
<event>
12    1  0.1441827E-001  0.1843200E+03  0.7546771E-02  0.1163869E+00
         21   -1    0    0  504  503  0.00000000000E+00  0.00000000000E+00  0.10377486438E+04  0.10377486438E+04  0.00000000000E+00 0. -1.
         21   -1    0    0  502  504 -0.00000000000E+00 -0.00000000000E+00 -0.32920497636E+02  0.32920497636E+02  0.00000000000E+00 0. -1.
          6    2    1    2  502    0 -0.47565950652E+02 -0.38797595598E+02  0.44857374211E+03  0.48467185719E+03  0.17297581899E+03 0.  0.
         24    2    3    3    0    0  0.77483159972E+01  0.24248297228E+02  0.12579377203E+03  0.15114007192E+03  0.79819997125E+02 0.  0.
         -6    2    1    2    0  503  0.47565950652E+02  0.38797595598E+02  0.55625440407E+03  0.58599728426E+03  0.17379897016E+03 0.  0.
        -24    2    5    5    0    0  0.75629616704E+02  0.39350008061E+02  0.22726648078E+03  0.25578066114E+03  0.80656253769E+02 0.  0.
          4    1    4    4  501    0 -0.14418695045E+02  0.48590292950E+02  0.80956761976E+02  0.95513939534E+02  0.00000000000E+00 0. -1.
         -3    1    4    4    0  501  0.22167011042E+02 -0.24341995721E+02  0.44837010052E+02  0.55626132390E+02  0.00000000000E+00 0.  1.
          5    1    3    3  502    0 -0.55314266649E+02 -0.63045892826E+02  0.32277997008E+03  0.33353178526E+03  0.47000000000E+01 0. -1.
         13    1    6    6    0    0  0.82154753613E+02  0.56460406986E+01  0.14728414423E+03  0.16874211229E+03  0.00000000000E+00 0. -1.
        -14    1    6    6    0    0 -0.65251369085E+01  0.33703967362E+02  0.79982336546E+02  0.87038548857E+02  0.00000000000E+00 0.  1.
         -5    1    5    5    0  503 -0.28063666052E+02 -0.55241246281E+00  0.32898792329E+03  0.33021662312E+03  0.47000000000E+01 0.  1.
<mgrwt>
<rscale>  2 0.18412568E+03</rscale>
<asrwt>0</asrwt>
<pdfrwt beam="1">  1       21 0.15965361E+00 0.18431998E+03</pdfrwt>
<pdfrwt beam="2">  1       21 0.50646927E-02 0.18431998E+03</pdfrwt>
<totfact> 0.66931526E+04</totfact>
</mgrwt>
</event>
<event>
12    1  0.1441827E-001  0.1920769E+03  0.7546771E-02  0.1157153E+00
         21   -1    0    0  504  503  0.00000000000E+00  0.00000000000E+00  0.25616028445E+02  0.25616028445E+02  0.00000000000E+00 0.  1.
         21   -1    0    0  502  504 -0.00000000000E+00 -0.00000000000E+00 -0.15305180318E+04  0.15305180318E+04  0.00000000000E+00 0.  1.
          6    2    1    2  502    0 -0.12789868380E+02  0.80333804552E+02 -0.95527439292E+03  0.97391071248E+03  0.17127699561E+03 0.  0.
         24    2    3    3    0    0 -0.15680826503E+02  0.42443271499E+02 -0.90943412263E+03  0.91418240667E+03  0.81312543047E+02 0.  0.
         -6    2    1    2    0  503  0.12789868380E+02 -0.80333804552E+02 -0.54962761048E+03  0.58222334781E+03  0.17400119438E+03 0.  0.
        -24    2    5    5    0    0  0.61040908299E+02 -0.65361451845E+02 -0.48733394165E+03  0.50188079760E+03  0.79949061515E+02 0.  0.
          4    1    4    4  501    0  0.31251388983E+02  0.70191181182E+01 -0.42215254725E+03  0.42336590614E+03  0.00000000000E+00 0. -1.
         -3    1    4    4    0  501 -0.46932215485E+02  0.35424153381E+02 -0.48728157538E+03  0.49081650053E+03  0.00000000000E+00 0.  1.
          5    1    3    3  502    0  0.28909581226E+01  0.37890533053E+02 -0.45840270290E+02  0.59728305803E+02  0.47000000000E+01 0. -1.
         11    1    6    6    0    0  0.59732969993E+02 -0.54003956246E+01 -0.24110544778E+03  0.24845327312E+03  0.00000000000E+00 0. -1.
        -12    1    6    6    0    0  0.13079383055E+01 -0.59961056220E+02 -0.24622849388E+03  0.25342752448E+03  0.00000000000E+00 0.  1.
         -5    1    5    5    0  503 -0.48251039918E+02 -0.14972352707E+02 -0.62293668826E+02  0.80342550212E+02  0.47000000000E+01 0.  1.
<mgrwt>
<rscale>  2 0.19145778E+03</rscale>
<asrwt>0</asrwt>
<pdfrwt beam="1">  1       21 0.39409280E-02 0.19207685E+03</pdfrwt>
<pdfrwt beam="2">  1       21 0.23546428E+00 0.19207685E+03</pdfrwt>
<totfact> 0.32590418E+04</totfact>
</mgrwt>
</event>
<event>
12    1  0.1441827E-001  0.1876123E+03  0.7546771E-02  0.1165236E+00
         21   -1    0    0  504  503  0.00000000000E+00  0.00000000000E+00  0.35727864516E+02  0.35727864516E+02  0.00000000000E+00 0. -1.
         21   -1    0    0  502  504 -0.00000000000E+00 -0.00000000000E+00 -0.11524388467E+04  0.11524388467E+04  0.00000000000E+00 0. -1.
          6    2    1    2  502    0  0.64062664372E+02  0.20932315757E+02 -0.81966543819E+03  0.83683434998E+03  0.15459014177E+03 0.  0.
         24    2    3    3    0    0  0.74138434696E+02 -0.30456991463E+02 -0.49590134756E+03  0.50882877316E+03  0.81021219777E+02 0.  0.
         -6    2    1    2    0  503 -0.64062664372E+02 -0.20932315757E+02 -0.29704554399E+03  0.35133236123E+03  0.17508908029E+03 0.  0.
        -24    2    5    5    0    0  0.27094266864E+02 -0.35219547519E+02 -0.18427153709E+03  0.20554560691E+03  0.79488875410E+02 0.  0.
          4    1    4    4  501    0  0.58673749041E+02 -0.54653621083E+02 -0.28802420365E+03  0.29897753931E+03  0.00000000000E+00 0. -1.
         -3    1    4    4    0  501  0.15464685655E+02  0.24196629620E+02 -0.20787714391E+03  0.20985123385E+03  0.00000000000E+00 0.  1.
          5    1    3    3  502    0 -0.10075770324E+02  0.51389307219E+02 -0.32376409063E+03  0.32800557682E+03  0.47000000000E+01 0. -1.
         13    1    6    6    0    0  0.15090924650E+02  0.11294635028E+01  0.21047673367E+01  0.15278800350E+02  0.00000000000E+00 0. -1.
        -14    1    6    6    0    0  0.12003342214E+02 -0.36349011021E+02 -0.18637630443E+03  0.19026680656E+03  0.00000000000E+00 0.  1.
         -5    1    5    5    0  503 -0.91156931236E+02  0.14287231762E+02 -0.11277400690E+03  0.14578675432E+03  0.47000000000E+01 0.  1.
<mgrwt>
<rscale>  2 0.18267863E+03</rscale>
<asrwt>0</asrwt>
<pdfrwt beam="1">  1       21 0.54965947E-02 0.18761229E+03</pdfrwt>
<pdfrwt beam="2">  1       21 0.17729828E+00 0.18761229E+03</pdfrwt>
<totfact> 0.43617018E+04</totfact>
</mgrwt>
</event>
<event>
12    1  0.1441827E-001  0.2120930E+03  0.7546771E-02  0.1140251E+00
         21   -1    0    0  504  503  0.00000000000E+00  0.00000000000E+00  0.72573875994E+02  0.72573875994E+02  0.00000000000E+00 0. -1.
         21   -1    0    0  502  504 -0.00000000000E+00 -0.00000000000E+00 -0.10520317992E+04  0.10520317992E+04  0.00000000000E+00 0.  1.
          6    2    1    2  502    0  0.55258408580E+02 -0.10574336250E+03 -0.85333503452E+03  0.87929752747E+03  0.17535196106E+03 0.  0.
         24    2    3    3    0    0 -0.21773375216E+02 -0.35784459853E+02 -0.57427470768E+03  0.58143027551E+03  0.80716280679E+02 0.  0.
         -6    2    1    2    0  503 -0.55258408580E+02  0.10574336250E+03 -0.12612288871E+03  0.24530814774E+03  0.17330306939E+03 0.  0.
        -24    2    5    5    0    0 -0.41597047425E+02  0.47266662863E+02  0.44001897143E+01  0.10155655231E+03  0.79560793576E+02 0.  0.
          4    1    4    4  501    0 -0.49832478316E+02 -0.87545166128E+01 -0.27324556000E+03  0.27789036240E+03  0.00000000000E+00 0. -1.
         -3    1    4    4    0  501  0.28059103100E+02 -0.27029943240E+02 -0.30102914768E+03  0.30353991311E+03  0.00000000000E+00 0.  1.
          5    1    3    3  502    0  0.77031783795E+02 -0.69958902648E+02 -0.27906032684E+03  0.29786725196E+03  0.47000000000E+01 0. -1.
         11    1    6    6    0    0 -0.14710087188E+02 -0.22185055822E+02  0.49753753410E+01  0.27079839857E+02  0.00000000000E+00 0. -1.
        -12    1    6    6    0    0 -0.26886960237E+02  0.69451718684E+02 -0.57518562678E+00  0.74476712451E+02  0.00000000000E+00 0.  1.
         -5    1    5    5    0  503 -0.13661361155E+02  0.58476699638E+02 -0.13052307842E+03  0.14375159543E+03  0.47000000000E+01 0.  1.
<mgrwt>
<rscale>  2 0.21166908E+03</rscale>
<asrwt>0</asrwt>
<pdfrwt beam="1">  1       21 0.11165212E-01 0.21209305E+03</pdfrwt>
<pdfrwt beam="2">  1       21 0.16185104E+00 0.21209305E+03</pdfrwt>
<totfact> 0.16062299E+04</totfact>
</mgrwt>
</event>
<event>
12    1  0.1441827E-001  0.2674164E+03  0.7546771E-02  0.1102855E+00
         21   -1    0    0  504  503  0.00000000000E+00  0.00000000000E+00  0.20549869593E+03  0.20549869593E+03  0.00000000000E+00 0.  1.
         21   -1    0    0  502  504 -0.00000000000E+00 -0.00000000000E+00 -0.43618863134E+03  0.43618863134E+03  0.00000000000E+00 0. -1.
          6    2    1    2  502    0 -0.17207853327E+03 -0.10818381284E+03 -0.26036690505E+03  0.37323243838E+03  0.17377217510E+03 0.  0.
         24    2    3    3    0    0 -0.12966863076E+03 -0.61667830418E+01 -0.11716063840E+03  0.19230096237E+03  0.80006636747E+02 0.  0.
         -6    2    1    2    0  503  0.17207853327E+03  0.10818381284E+03  0.29676969632E+02  0.26845488890E+03  0.17283676077E+03 0.  0.
        -24    2    5    5    0    0  0.24571462159E+02  0.34928508062E+02 -0.26268045518E+02  0.94453134808E+02  0.80047654754E+02 0.  0.
          2    1    4    4  501    0 -0.12932514409E+03 -0.20440465000E+02 -0.12016047648E+03  0.17771141103E+03  0.00000000000E+00 0. -1.
         -1    1    4    4    0  501 -0.34348667598E+00  0.14273681958E+02  0.29998380892E+01  0.14589551340E+02  0.00000000000E+00 0.  1.
          5    1    3    3  502    0 -0.42409902504E+02 -0.10201702980E+03 -0.14320626665E+03  0.18093147600E+03  0.47000000000E+01 0. -1.
         13    1    6    6    0    0  0.21247418093E+02  0.48083457892E+02 -0.46439125834E+02  0.70143168639E+02  0.00000000000E+00 0. -1.
        -14    1    6    6    0    0  0.33240440665E+01 -0.13154949830E+02  0.20171080317E+02  0.24309966169E+02  0.00000000000E+00 0.  1.
         -5    1    5    5    0  503  0.14750707111E+03  0.73255304781E+02  0.55945015150E+02  0.17400175409E+03  0.47000000000E+01 0.  1.
<mgrwt>
<rscale>  2 0.26726454E+03</rscale>
<asrwt>0</asrwt>
<pdfrwt beam="1">  1       21 0.31615185E-01 0.26741639E+03</pdfrwt>
<pdfrwt beam="2">  1       21 0.67105942E-01 0.26741639E+03</pdfrwt>
<totfact> 0.18786528E+04</totfact>
</mgrwt>
</event>
<event>
12    1  0.1441827E-001  0.1741469E+03  0.7546771E-02  0.1173712E+00
         21   -1    0    0  504  503  0.00000000000E+00  0.00000000000E+00  0.15527946234E+03  0.15527946234E+03  0.00000000000E+00 0. -1.
         21   -1    0    0  502  504 -0.00000000000E+00 -0.00000000000E+00 -0.19491997125E+03  0.19491997125E+03  0.00000000000E+00 0. -1.
          6    2    1    2  502    0 -0.17826789302E+02 -0.85579364482E+01 -0.15014398041E+02  0.17479291169E+03  0.17302051074E+03 0.  0.
         24    2    3    3    0    0  0.10070241308E+00  0.27704703577E+02 -0.67407147044E+02  0.10843430887E+03  0.80291438682E+02 0.  0.
         -6    2    1    2    0  503  0.17826789302E+02  0.85579364482E+01 -0.24626110867E+02  0.17540652190E+03  0.17253976323E+03 0.  0.
        -24    2    5    5    0    0  0.22420922916E+02  0.71239832583E+02 -0.25849389747E+01  0.10863804562E+03  0.78852593585E+02 0.  0.
          4    1    4    4  501    0 -0.20020802442E+01  0.51571529607E+02 -0.66868349768E+02  0.84468971771E+02  0.00000000000E+00 0. -1.
         -3    1    4    4    0  501  0.21027826573E+01 -0.23866826030E+02 -0.53879727589E+00  0.23965337096E+02  0.00000000000E+00 0.  1.
          5    1    3    3  502    0 -0.17927491715E+02 -0.36262640026E+02  0.52392749003E+02  0.66358602825E+02  0.47000000000E+01 0. -1.
         13    1    6    6    0    0 -0.76058043802E+01 -0.92756300793E+01  0.16706736405E+02  0.20566978751E+02  0.00000000000E+00 0. -1.
        -14    1    6    6    0    0  0.30026727296E+02  0.80515462662E+02 -0.19291675380E+02  0.88071066866E+02  0.00000000000E+00 0.  1.
         -5    1    5    5    0  503 -0.45941336142E+01 -0.62681896135E+02 -0.22041171892E+02  0.66768476283E+02  0.47000000000E+01 0.  1.
<mgrwt>
<rscale>  2 0.17402733E+03</rscale>
<asrwt>0</asrwt>
<pdfrwt beam="1">  1       21 0.23889148E-01 0.17414686E+03</pdfrwt>
<pdfrwt beam="2">  1       21 0.29987688E-01 0.17414686E+03</pdfrwt>
<totfact> 0.17712930E+05</totfact>
</mgrwt>
</event>
<event>
12    1  0.1441827E-001  0.1947322E+03  0.7546771E-02  0.1154803E+00
         21   -1    0    0  504  503  0.00000000000E+00  0.00000000000E+00  0.72252512256E+03  0.72252512256E+03  0.00000000000E+00 0.  1.
         21   -1    0    0  502  504 -0.00000000000E+00 -0.00000000000E+00 -0.96355898294E+02  0.96355898294E+02  0.00000000000E+00 0.  1.
          6    2    1    2  502    0 -0.46925896118E+02  0.71227438635E+02  0.35803966078E+02  0.19799639172E+03  0.17505787445E+03 0.  0.
         24    2    3    3    0    0 -0.77240670884E+02 -0.58114221647E+01  0.17198599558E+02  0.11301273855E+03  0.80474799675E+02 0.  0.
         -6    2    1    2    0  503  0.46925896118E+02 -0.71227438635E+02  0.59036525819E+03  0.62088462914E+03  0.17231133705E+03 0.  0.
        -24    2    5    5    0    0 -0.14993829325E+01  0.23142514487E+02  0.26765521139E+03  0.28115744445E+03  0.82899772393E+02 0.  0.
          2    1    4    4  501    0 -0.35466817733E+02 -0.43017545671E+02  0.81888559683E+01  0.56351235636E+02  0.00000000000E+00 0. -1.
         -1    1    4    4    0  501 -0.41773853151E+02  0.37206123506E+02  0.90097435899E+01  0.56661502919E+02  0.00000000000E+00 0.  1.
          5    1    3    3  502    0  0.30314774766E+02  0.77038860799E+02  0.18605366520E+02  0.84983653168E+02  0.47000000000E+01 0. -1.
         13    1    6    6    0    0  0.39768285510E+02  0.28331113073E+01  0.13432355422E+03  0.14011552473E+03  0.00000000000E+00 0. -1.
        -14    1    6    6    0    0 -0.41267668443E+02  0.20309403180E+02  0.13333165716E+03  0.14104191972E+03  0.00000000000E+00 0.  1.
         -5    1    5    5    0  503  0.48425279050E+02 -0.94369953121E+02  0.32271004681E+03  0.33972718468E+03  0.47000000000E+01 0.  1.
<mgrwt>
<rscale>  2 0.19411298E+03</rscale>
<asrwt>0</asrwt>
<pdfrwt beam="1">  1       21 0.11115771E+00 0.19473224E+03</pdfrwt>
<pdfrwt beam="2">  1       21 0.14823985E-01 0.19473224E+03</pdfrwt>
<totfact> 0.25490070E+04</totfact>
</mgrwt>
</event>
<event>
12    1  0.1441827E-001  0.2603713E+03  0.7546771E-02  0.1106974E+00
         21   -1    0    0  504  503  0.00000000000E+00  0.00000000000E+00  0.46742455165E+03  0.46742455165E+03  0.00000000000E+00 0.  1.
         21   -1    0    0  502  504 -0.00000000000E+00 -0.00000000000E+00 -0.32463644699E+03  0.32463644699E+03  0.00000000000E+00 0.  1.
          6    2    1    2  502    0  0.19131915213E+03 -0.36349920500E+02 -0.22335787191E+03  0.34277701861E+03  0.17228758182E+03 0.  0.
         24    2    3    3    0    0  0.13833673286E+03 -0.81908019957E+02 -0.20049152834E+03  0.26910452139E+03  0.79839934293E+02 0.  0.
         -6    2    1    2    0  503 -0.19131915213E+03  0.36349920500E+02  0.36614597657E+03  0.44928398002E+03  0.17282616657E+03 0.  0.
        -24    2    5    5    0    0 -0.48872732947E+02 -0.45867604007E+02  0.90483707794E+02  0.12825052366E+03  0.61388226238E+02 0.  0.
          2    1    4    4  501    0 -0.34687456402E+01 -0.20808405121E+02 -0.46358822090E+02  0.50932919665E+02  0.00000000000E+00 0. -1.
         -1    1    4    4    0  501  0.14180547850E+03 -0.61099614836E+02 -0.15413270625E+03  0.21817160173E+03  0.00000000000E+00 0.  1.
          5    1    3    3  502    0  0.52982419267E+02  0.45558099457E+02 -0.22866343578E+02  0.73672497217E+02  0.47000000000E+01 0. -1.
         13    1    6    6    0    0 -0.97469818275E+00 -0.22550444716E+02  0.65750404232E+02  0.69516819908E+02  0.00000000000E+00 0. -1.
        -14    1    6    6    0    0 -0.47898034764E+02 -0.23317159291E+02  0.24733303562E+02  0.58733703755E+02  0.00000000000E+00 0.  1.
         -5    1    5    5    0  503 -0.14244641918E+03  0.82217524507E+02  0.27566226878E+03  0.32103345636E+03  0.47000000000E+01 0.  1.
<mgrwt>
<rscale>  2 0.26028197E+03</rscale>
<asrwt>0</asrwt>
<pdfrwt beam="1">  1       21 0.71911469E-01 0.26037131E+03</pdfrwt>
<pdfrwt beam="2">  1       21 0.49944069E-01 0.26037131E+03</pdfrwt>
<totfact> 0.63763311E+03</totfact>
</mgrwt>
</event>
<event>
12    1  0.1441827E-001  0.1827170E+03  0.7546771E-02  0.1165590E+00
         21   -1    0    0  504  503  0.00000000000E+00  0.00000000000E+00  0.22250040369E+03  0.22250040369E+03  0.00000000000E+00 0. -1.
         21   -1    0    0  502  504 -0.00000000000E+00 -0.00000000000E+00 -0.15413973635E+03  0.15413973635E+03  0.00000000000E+00 0. -1.
          6    2    1    2  502    0  0.49598648896E+02 -0.28307436476E-01  0.69400233111E+02  0.19392014865E+03  0.17415109797E+03 0.  0.
         24    2    3    3    0    0 -0.35135166857E+02 -0.18026928199E+02  0.15908913945E+02  0.92002627549E+02  0.81559425222E+02 0.  0.
         -6    2    1    2    0  503 -0.49598648896E+02  0.28307436476E-01 -0.10395657738E+01  0.18271999139E+03  0.17585644083E+03 0.  0.
        -24    2    5    5    0    0  0.37489311811E+02  0.22905017936E+02  0.70012628484E+01  0.92197056676E+02  0.80753892981E+02 0.  0.
          2    1    4    4  501    0  0.23954708057E+02  0.55155454268E+01 -0.49259308183E+01  0.25070182964E+02  0.00000000000E+00 0. -1.
         -1    1    4    4    0  501 -0.59089874914E+02 -0.23542473626E+02  0.20834844763E+02  0.66932444585E+02  0.00000000000E+00 0.  1.
          5    1    3    3  502    0  0.84733815753E+02  0.17998620763E+02  0.53491319166E+02  0.10191752110E+03  0.47000000000E+01 0. -1.
         11    1    6    6    0    0 -0.35382448594E+01 -0.20113047035E+02 -0.18459384372E+02  0.27528216598E+02  0.00000000000E+00 0. -1.
        -12    1    6    6    0    0  0.41027556671E+02  0.43018064970E+02  0.25460647220E+02  0.64668840078E+02  0.00000000000E+00 0.  1.
         -5    1    5    5    0  503 -0.87087960707E+02 -0.22876710499E+02 -0.80408286222E+01  0.90522934709E+02  0.47000000000E+01 0.  1.
<mgrwt>
<rscale>  2 0.18230547E+03</rscale>
<asrwt>0</asrwt>
<pdfrwt beam="1">  1       21 0.34230831E-01 0.18271703E+03</pdfrwt>
<pdfrwt beam="2">  1       21 0.23713806E-01 0.18271703E+03</pdfrwt>
<totfact> 0.13819507E+05</totfact>
</mgrwt>
</event>
<event>
12    1  0.1441827E-001  0.3268784E+03  0.7546771E-02  0.1072558E+00
         21   -1    0    0  504  503  0.00000000000E+00  0.00000000000E+00  0.72352246964E+03  0.72352246964E+03  0.00000000000E+00 0.  1.
         21   -1    0    0  502  504 -0.00000000000E+00 -0.00000000000E+00 -0.33872017360E+03  0.33872017360E+03  0.00000000000E+00 0. -1.
          6    2    1    2  502    0  0.30401515069E+02 -0.27587324825E+03 -0.20664077623E+03  0.38648057764E+03  0.17215262204E+03 0.  0.
         24    2    3    3    0    0 -0.16715116388E+01 -0.26450878130E+03 -0.13622119731E+03  0.30812984538E+03  0.80125512064E+02 0.  0.
         -6    2    1    2    0  503 -0.30401515069E+02  0.27587324825E+03  0.59144307226E+03  0.67576206559E+03  0.17268225256E+03 0.  0.
        -24    2    5    5    0    0 -0.74363604716E+02  0.25512306254E+03  0.51218390133E+03  0.58266350648E+03  0.80911619994E+02 0.  0.
          4    1    4    4  501    0  0.32107936502E+02 -0.20143276157E+03 -0.11127891662E+03  0.23235549123E+03  0.00000000000E+00 0. -1.
         -3    1    4    4    0  501 -0.33779448140E+02 -0.63076019723E+02 -0.24942280697E+02  0.75774354152E+02  0.00000000000E+00 0.  1.
          5    1    3    3  502    0  0.32073026708E+02 -0.11364466953E+02 -0.70419578912E+02  0.78350732259E+02  0.47000000000E+01 0. -1.
         11    1    6    6    0    0 -0.65654249401E+01  0.35740049020E+02  0.25085074104E+02  0.44155598189E+02  0.00000000000E+00 0. -1.
        -12    1    6    6    0    0 -0.67798179776E+02  0.21938301352E+03  0.48709882723E+03  0.53850790829E+03  0.00000000000E+00 0.  1.
         -5    1    5    5    0  503  0.43962089647E+02  0.20750185711E+02  0.79259170931E+02  0.93098559118E+02  0.47000000000E+01 0.  1.
<mgrwt>
<rscale>  2 0.32680847E+03</rscale>
<asrwt>0</asrwt>
<pdfrwt beam="1">  1       21 0.11131115E+00 0.32687836E+03</pdfrwt>
<pdfrwt beam="2">  1       21 0.52110796E-01 0.32687836E+03</pdfrwt>
<totfact> 0.20180598E+03</totfact>
</mgrwt>
</event>
<event>
12    1  0.1441827E-001  0.1886400E+03  0.7546771E-02  0.1161594E+00
         21   -1    0    0  504  503  0.00000000000E+00  0.00000000000E+00  0.12224771577E+03  0.12224771577E+03  0.00000000000E+00 0.  1.
         21   -1    0    0  502  504 -0.00000000000E+00 -0.00000000000E+00 -0.31835011352E+03  0.31835011352E+03  0.00000000000E+00 0.  1.
          6    2    1    2  502    0  0.51203315664E+02  0.52361664507E+02 -0.22159789420E+02  0.18993706330E+03  0.17384334414E+03 0.  0.
         24    2    3    3    0    0 -0.32054526675E+02  0.44801924664E+02  0.15428064762E+02  0.98154958512E+02  0.79760049926E+02 0.  0.
         -6    2    1    2    0  503 -0.51203315664E+02 -0.52361664507E+02 -0.17394260833E+03  0.25066076599E+03  0.16495837405E+03 0.  0.
        -24    2    5    5    0    0  0.88963781798E+01 -0.44059968662E+02 -0.50038560688E+02  0.11262021261E+03  0.90327339991E+02 0.  0.
          2    1    4    4  501    0 -0.48642322150E+02  0.47779984338E+02 -0.86867898224E+01  0.68734727212E+02  0.00000000000E+00 0. -1.
         -1    1    4    4    0  501  0.16587795474E+02 -0.29780596738E+01  0.24114854584E+02  0.29420231300E+02  0.00000000000E+00 0.  1.
          5    1    3    3  502    0  0.83257842339E+02  0.75597398434E+01 -0.37587854182E+02  0.91782104789E+02  0.47000000000E+01 0. -1.
         11    1    6    6    0    0 -0.14215444511E+02 -0.13665882436E+02  0.22943619088E+02  0.30253014102E+02  0.00000000000E+00 0. -1.
        -12    1    6    6    0    0  0.23111822691E+02 -0.30394086226E+02 -0.72982179775E+02  0.82367198510E+02  0.00000000000E+00 0.  1.
         -5    1    5    5    0  503 -0.60099693843E+02 -0.83016958457E+01 -0.12390404764E+03  0.13804055337E+03  0.47000000000E+01 0.  1.
<mgrwt>
<rscale>  2 0.18656727E+03</rscale>
<asrwt>0</asrwt>
<pdfrwt beam="1">  1       21 0.18807341E-01 0.18863995E+03</pdfrwt>
<pdfrwt beam="2">  1       21 0.48976940E-01 0.18863995E+03</pdfrwt>
<totfact> 0.10312218E+05</totfact>
</mgrwt>
</event>
<event>
12    1  0.1441827E-001  0.1819965E+03  0.7546771E-02  0.1166689E+00
         21   -1    0    0  504  503  0.00000000000E+00  0.00000000000E+00  0.18229359031E+03  0.18229359031E+03  0.00000000000E+00 0. -1.
         21   -1    0    0  502  504 -0.00000000000E+00 -0.00000000000E+00 -0.17854487344E+03  0.17854487344E+03  0.00000000000E+00 0.  1.
          6    2    1    2  502    0 -0.35953388442E+02  0.55099336643E+01 -0.36153577707E+01  0.17869308889E+03  0.17491467547E+03 0.  0.
         24    2    3    3    0    0 -0.87164891695E+02 -0.14186585362E+02 -0.13232206687E+02  0.12279009514E+03  0.84281306480E+02 0.  0.
         -6    2    1    2    0  503  0.35953388442E+02 -0.55099336643E+01  0.73640746338E+01  0.18214537486E+03  0.17832471079E+03 0.  0.
        -24    2    5    5    0    0 -0.38066122637E+02 -0.36229298942E+02  0.28038712063E+02  0.99247256329E+02  0.79386754060E+02 0.  0.
          2    1    4    4  501    0 -0.87870960957E+02 -0.15599832068E+01  0.17453024145E+02  0.89601045635E+02  0.00000000000E+00 0. -1.
         -1    1    4    4    0  501  0.70606926205E+00 -0.12626602155E+02 -0.30685230831E+02  0.33189049504E+02  0.00000000000E+00 0.  1.
          5    1    3    3  502    0  0.51211503252E+02  0.19696519026E+02  0.96168489161E+01  0.55902993750E+02  0.47000000000E+01 0. -1.
         13    1    6    6    0    0 -0.52263897637E+02 -0.61208353734E+01 -0.43523180991E+01  0.52800779300E+02  0.00000000000E+00 0. -1.
        -14    1    6    6    0    0  0.14197774999E+02 -0.30108463568E+02  0.32391030162E+02  0.46446477028E+02  0.00000000000E+00 0.  1.
         -5    1    5    5    0  503  0.74019511080E+02  0.30719365278E+02 -0.20674637429E+02  0.82898118533E+02  0.47000000000E+01 0.  1.
<mgrwt>
<rscale>  2 0.18115566E+03</rscale>
<asrwt>0</asrwt>
<pdfrwt beam="1">  1       21 0.28045168E-01 0.18199645E+03</pdfrwt>
<pdfrwt beam="2">  1       21 0.27468442E-01 0.18199645E+03</pdfrwt>
<totfact> 0.15407580E+05</totfact>
</mgrwt>
</event>
<event>
12    1  0.1441827E-001  0.1894349E+03  0.7546771E-02  0.1162234E+00
         21   -1    0    0  504  503  0.00000000000E+00  0.00000000000E+00  0.29985296542E+04  0.29985296542E+04  0.00000000000E+00 0.  1.
         21   -1    0    0  502  504 -0.00000000000E+00 -0.00000000000E+00 -0.48827630187E+02  0.48827630187E+02  0.00000000000E+00 0.  1.
          6    2    1    2  502    0  0.73059061651E+02  0.23202103901E+02  0.12317682432E+03  0.21449119237E+03  0.15798094012E+03 0.  0.
         24    2    3    3    0    0  0.25452002215E+02 -0.15687198790E+02  0.10338176023E+02  0.85908687651E+02  0.79871973231E+02 0.  0.
         -6    2    1    2    0  503 -0.73059061651E+02 -0.23202103901E+02  0.28265251997E+04  0.28328660920E+04  0.17323286826E+03 0.  0.
        -24    2    5    5    0    0 -0.62440158574E+02 -0.18006419255E+02  0.81203395615E+03  0.81833467837E+03  0.77778501792E+02 0.  0.
          4    1    4    4  501    0 -0.44309353243E+01  0.30046034916E+02  0.35380463209E+00  0.30373056806E+02  0.00000000000E+00 0. -1.
         -3    1    4    4    0  501  0.29882937539E+02 -0.45733233706E+02  0.99843713913E+01  0.55535630844E+02  0.00000000000E+00 0.  1.
          5    1    3    3  502    0  0.47607059436E+02  0.38889302691E+02  0.11283864830E+03  0.12858250472E+03  0.47000000000E+01 0. -1.
         13    1    6    6    0    0  0.15784733211E+02 -0.16830526589E+02  0.19541014148E+03  0.19676775097E+03  0.00000000000E+00 0. -1.
        -14    1    6    6    0    0 -0.78224891786E+02 -0.11758926658E+01  0.61662381467E+03  0.62156692740E+03  0.00000000000E+00 0.  1.
         -5    1    5    5    0  503 -0.10618903077E+02 -0.51956846462E+01  0.20144912435E+04  0.20145314136E+04  0.47000000000E+01 0.  1.
<mgrwt>
<rscale>  2 0.18587615E+03</rscale>
<asrwt>0</asrwt>
<pdfrwt beam="1">  1       21 0.46131211E+00 0.18943492E+03</pdfrwt>
<pdfrwt beam="2">  1       21 0.75119454E-02 0.18943492E+03</pdfrwt>
<totfact> 0.47068853E+02</totfact>
</mgrwt>
</event>
<event>
12    1  0.1441827E-001  0.1992230E+03  0.7546771E-02  0.1151059E+00
         21   -1    0    0  504  503  0.00000000000E+00  0.00000000000E+00  0.15622815983E+03  0.15622815983E+03  0.00000000000E+00 0.  1.
         21   -1    0    0  502  504 -0.00000000000E+00 -0.00000000000E+00 -0.28249088535E+03  0.28249088535E+03  0.00000000000E+00 0. -1.
          6    2    1    2  502    0 -0.90419281617E+02  0.40369062673E+02 -0.13695607773E+03  0.23920929560E+03  0.16928913777E+03 0.  0.
         24    2    3    3    0    0 -0.20033660890E+02 -0.33769991023E+02 -0.91151299705E+02  0.12708925913E+03  0.79381109131E+02 0.  0.
         -6    2    1    2    0  503  0.90419281617E+02 -0.40369062673E+02  0.10693352204E+02  0.19950974958E+03  0.17287129515E+03 0.  0.
        -24    2    5    5    0    0  0.49854050401E+02  0.20523206727E+02 -0.45887041858E+02  0.10689853293E+03  0.80093990893E+02 0.  0.
          4    1    4    4  501    0 -0.13047395108E+02 -0.19783127326E+02 -0.10411575874E+03  0.10677873320E+03  0.00000000000E+00 0. -1.
         -3    1    4    4    0  501 -0.69862657826E+01 -0.13986863697E+02  0.12964459034E+02  0.20310525934E+02  0.00000000000E+00 0.  1.
          5    1    3    3  502    0 -0.70385620726E+02  0.74139053696E+02 -0.45804778021E+02  0.11212003647E+03  0.47000000000E+01 0. -1.
         13    1    6    6    0    0  0.36995520800E+02  0.50352747301E+02 -0.20792716785E+02  0.65851384126E+02  0.00000000000E+00 0. -1.
        -14    1    6    6    0    0  0.12858529600E+02 -0.29829540574E+02 -0.25094325073E+02  0.41047148807E+02  0.00000000000E+00 0.  1.
         -5    1    5    5    0  503  0.40565231216E+02 -0.60892269400E+02  0.56580394063E+02  0.92611216646E+02  0.47000000000E+01 0.  1.
<mgrwt>
<rscale>  2 0.19844334E+03</rscale>
<asrwt>0</asrwt>
<pdfrwt beam="1">  1       21 0.24035102E-01 0.19922297E+03</pdfrwt>
<pdfrwt beam="2">  1       21 0.43460136E-01 0.19922297E+03</pdfrwt>
<totfact> 0.82852727E+04</totfact>
</mgrwt>
</event>
<event>
12    1  0.1441827E-001  0.1745032E+03  0.7546771E-02  0.1173539E+00
         21   -1    0    0  504  503  0.00000000000E+00  0.00000000000E+00  0.14150839817E+03  0.14150839817E+03  0.00000000000E+00 0. -1.
         21   -1    0    0  502  504 -0.00000000000E+00 -0.00000000000E+00 -0.22732144608E+03  0.22732144608E+03  0.00000000000E+00 0. -1.
          6    2    1    2  502    0 -0.12301038658E+02  0.46422591835E+01 -0.87915738708E+02  0.19431393920E+03  0.17278849422E+03 0.  0.
         24    2    3    3    0    0  0.17537544990E+02  0.58509241230E+02 -0.20792276903E+02  0.10310186789E+03  0.80416289330E+02 0.  0.
         -6    2    1    2    0  503  0.12301038658E+02 -0.46422591835E+01  0.21026907907E+01  0.17451590505E+03  0.17400722308E+03 0.  0.
        -24    2    5    5    0    0  0.18008787964E+02  0.31355510361E+00  0.70384270157E+02  0.10565660954E+03  0.76713485730E+02 0.  0.
          2    1    4    4  501    0  0.26549517885E+02  0.19596980850E+02 -0.45446738916E+02  0.56163374511E+02  0.00000000000E+00 0. -1.
         -1    1    4    4    0  501 -0.90119728946E+01  0.38912260380E+02  0.24654462013E+02  0.46938493377E+02  0.00000000000E+00 0.  1.
          5    1    3    3  502    0 -0.29838583648E+02 -0.53866982047E+02 -0.67123461805E+02  0.91212071315E+02  0.47000000000E+01 0. -1.
         11    1    6    6    0    0 -0.29596985499E+02 -0.29592945884E+01  0.36735637633E+02  0.47267811959E+02  0.00000000000E+00 0. -1.
        -12    1    6    6    0    0  0.47605773462E+02  0.32728496920E+01  0.33648632524E+02  0.58388797580E+02  0.00000000000E+00 0.  1.
         -5    1    5    5    0  503 -0.57077493060E+01 -0.49558142871E+01 -0.68281579366E+02  0.68859295510E+02  0.47000000000E+01 0.  1.
<mgrwt>
<rscale>  2 0.17419863E+03</rscale>
<asrwt>0</asrwt>
<pdfrwt beam="1">  1       21 0.21770523E-01 0.17450324E+03</pdfrwt>
<pdfrwt beam="2">  1       21 0.34972530E-01 0.17450324E+03</pdfrwt>
<totfact> 0.15607758E+05</totfact>
</mgrwt>
</event>
<event>
12    1  0.1441827E-001  0.1832857E+03  0.7546771E-02  0.1164723E+00
         21   -1    0    0  504  503  0.00000000000E+00  0.00000000000E+00  0.71993013610E+03  0.71993013610E+03  0.00000000000E+00 0.  1.
         21   -1    0    0  502  504 -0.00000000000E+00 -0.00000000000E+00 -0.47977200950E+02  0.47977200950E+02  0.00000000000E+00 0. -1.
          6    2    1    2  502    0  0.53121740477E+02  0.28000301402E+02  0.27056001778E+03  0.32664786124E+03  0.17288772611E+03 0.  0.
         24    2    3    3    0    0  0.76395143769E+02  0.70563959402E+02  0.22005531122E+03  0.25646145466E+03  0.80824794304E+02 0.  0.
         -6    2    1    2    0  503 -0.53121740477E+02 -0.28000301402E+02  0.40139291737E+03  0.44125947581E+03  0.17316961249E+03 0.  0.
        -24    2    5    5    0    0 -0.10058191995E+03 -0.38063729873E+02  0.28534074301E+03  0.31538676868E+03  0.80522692969E+02 0.  0.
          2    1    4    4  501    0  0.85718077198E+01  0.62505754837E+02  0.11462918199E+03  0.13084454379E+03  0.00000000000E+00 0. -1.
         -1    1    4    4    0  501  0.67823336049E+02  0.80582045647E+01  0.10542612923E+03  0.12561691088E+03  0.00000000000E+00 0.  1.
          5    1    3    3  502    0 -0.23273403292E+02 -0.42563657999E+02  0.50504706558E+02  0.70186406572E+02  0.47000000000E+01 0. -1.
         13    1    6    6    0    0 -0.10417373685E+03 -0.84529796805E+01  0.22304422746E+03  0.24631757493E+03  0.00000000000E+00 0. -1.
        -14    1    6    6    0    0  0.35918169024E+01 -0.29610750193E+02  0.62296515553E+02  0.69069193753E+02  0.00000000000E+00 0.  1.
         -5    1    5    5    0  503  0.47460179470E+02  0.10063428471E+02  0.11605217436E+03  0.12587270714E+03  0.47000000000E+01 0.  1.
<mgrwt>
<rscale>  2 0.18321910E+03</rscale>
<asrwt>0</asrwt>
<pdfrwt beam="1">  1       21 0.11075847E+00 0.18328571E+03</pdfrwt>
<pdfrwt beam="2">  1       21 0.73811084E-02 0.18328571E+03</pdfrwt>
<totfact> 0.89010611E+04</totfact>
</mgrwt>
</event>
<event>
12    1  0.1441827E-001  0.2006543E+03  0.7546771E-02  0.1151927E+00
         21   -1    0    0  504  503  0.00000000000E+00  0.00000000000E+00  0.21748861742E+03  0.21748861742E+03  0.00000000000E+00 0.  1.
         21   -1    0    0  502  504 -0.00000000000E+00 -0.00000000000E+00 -0.18142512566E+03  0.18142512566E+03  0.00000000000E+00 0.  1.
          6    2    1    2  502    0  0.64922292998E+02  0.47425666590E+02 -0.23705856196E+02  0.18954679843E+03  0.17000565637E+03 0.  0.
         24    2    3    3    0    0  0.64703884959E+02  0.87883242163E+02 -0.44941124654E+02  0.14361326221E+03  0.81823024964E+02 0.  0.
         -6    2    1    2    0  503 -0.64922292998E+02 -0.47425666590E+02  0.59769347948E+02  0.20936694465E+03  0.18384244499E+03 0.  0.
        -24    2    5    5    0    0 -0.47951842282E+02 -0.92410867842E+02  0.83435568450E+02  0.15557247912E+03  0.80013464511E+02 0.  0.
          2    1    4    4  501    0  0.33916385993E+02 -0.30319033717E+01  0.65679257023E+01  0.34679263616E+02  0.00000000000E+00 0. -1.
         -1    1    4    4    0  501  0.30787498966E+02  0.90915145535E+02 -0.51509050356E+02  0.10893399859E+03  0.00000000000E+00 0.  1.
          5    1    3    3  502    0  0.21840803877E+00 -0.40457575573E+02  0.21235268458E+02  0.45933536221E+02  0.47000000000E+01 0. -1.
         13    1    6    6    0    0  0.20013724940E+02 -0.34694058078E+02  0.39174297018E+02  0.56025462057E+02  0.00000000000E+00 0. -1.
        -14    1    6    6    0    0 -0.67965567221E+02 -0.57716809765E+02  0.44261271432E+02  0.99547017062E+02  0.00000000000E+00 0.  1.
         -5    1    5    5    0  503 -0.16970450716E+02  0.44985201252E+02 -0.23666220501E+02  0.53794465534E+02  0.47000000000E+01 0.  1.
<mgrwt>
<rscale>  2 0.19742839E+03</rscale>
<asrwt>0</asrwt>
<pdfrwt beam="1">  1       21 0.33459787E-01 0.20065429E+03</pdfrwt>
<pdfrwt beam="2">  1       21 0.27911558E-01 0.20065429E+03</pdfrwt>
<totfact> 0.10511898E+05</totfact>
</mgrwt>
</event>
<event>
12    1  0.1441827E-001  0.2518307E+03  0.7546771E-02  0.1114461E+00
         21   -1    0    0  504  503  0.00000000000E+00  0.00000000000E+00  0.22671006477E+03  0.22671006477E+03  0.00000000000E+00 0. -1.
         21   -1    0    0  502  504 -0.00000000000E+00 -0.00000000000E+00 -0.28521955248E+03  0.28521955248E+03  0.00000000000E+00 0. -1.
          6    2    1    2  502    0  0.26305019983E+02  0.15924286689E+03 -0.98110692502E+02  0.25700424237E+03  0.17428490434E+03 0.  0.
         24    2    3    3    0    0  0.22263940632E+02  0.18764189316E+03 -0.98827160348E+02  0.22792781994E+03  0.80492983278E+02 0.  0.
         -6    2    1    2    0  503 -0.26305019983E+02 -0.15924286689E+03  0.39601204794E+02  0.25492537488E+03  0.19330919948E+03 0.  0.
        -24    2    5    5    0    0  0.22383277145E+02 -0.17740422023E+03  0.49945277135E+02  0.20173256649E+03  0.78919130901E+02 0.  0.
          2    1    4    4  501    0  0.32068171608E+02  0.18028860053E+03 -0.69010129231E+02  0.19569043167E+03  0.00000000000E+00 0. -1.
         -1    1    4    4    0  501 -0.98042309754E+01  0.73532926312E+01 -0.29817031116E+02  0.32237388265E+02  0.00000000000E+00 0.  1.
          5    1    3    3  502    0  0.40410793511E+01 -0.28399026269E+02  0.71646784573E+00  0.29076422433E+02  0.47000000000E+01 0. -1.
         13    1    6    6    0    0  0.51013391879E+02 -0.92950176033E+02  0.22059329975E+02  0.10829919397E+03  0.00000000000E+00 0. -1.
        -14    1    6    6    0    0 -0.28630114734E+02 -0.84454044197E+02  0.27885947159E+02  0.93433372517E+02  0.00000000000E+00 0.  1.
         -5    1    5    5    0  503 -0.48688297128E+02  0.18161353337E+02 -0.10344072341E+02  0.53192808394E+02  0.47000000000E+01 0.  1.
<mgrwt>
<rscale>  2 0.24817949E+03</rscale>
<asrwt>0</asrwt>
<pdfrwt beam="1">  1       21 0.34878471E-01 0.25183068E+03</pdfrwt>
<pdfrwt beam="2">  1       21 0.43879931E-01 0.25183068E+03</pdfrwt>
<totfact> 0.38453426E+04</totfact>
</mgrwt>
</event>
<event>
12    1  0.1441827E-001  0.2238679E+03  0.7546771E-02  0.1131593E+00
         21   -1    0    0  504  503  0.00000000000E+00  0.00000000000E+00  0.99470996319E+02  0.99470996319E+02  0.00000000000E+00 0.  1.
         21   -1    0    0  502  504 -0.00000000000E+00 -0.00000000000E+00 -0.53522570439E+03  0.53522570439E+03  0.00000000000E+00 0.  1.
          6    2    1    2  502    0 -0.49483052417E+02 -0.12888017230E+03 -0.13443513018E+03  0.26113148328E+03  0.17623330004E+03 0.  0.
         24    2    3    3    0    0 -0.85656795508E+02 -0.13036820121E+03 -0.13963547157E+03  0.22425483119E+03  0.80369209817E+02 0.  0.
         -6    2    1    2    0  503  0.49483052417E+02  0.12888017230E+03 -0.30131957789E+03  0.37356521743E+03  0.17233343368E+03 0.  0.
        -24    2    5    5    0    0  0.65685826683E+02  0.15897453632E+02 -0.15894518717E+03  0.19102705225E+03  0.81611306261E+02 0.  0.
          2    1    4    4  501    0 -0.78436786855E+02 -0.58437874757E+02 -0.10690139681E+03  0.14489728562E+03  0.00000000000E+00 0. -1.
         -1    1    4    4    0  501 -0.72200086535E+01 -0.71930326455E+02 -0.32734074752E+02  0.79357545569E+02  0.00000000000E+00 0.  1.
          5    1    3    3  502    0  0.36173743091E+02  0.14880289090E+01  0.52003413859E+01  0.36876652095E+02  0.47000000000E+01 0. -1.
         11    1    6    6    0    0  0.60275183155E+02  0.45200523225E+02 -0.12408793075E+03  0.14516886568E+03  0.00000000000E+00 0. -1.
        -12    1    6    6    0    0  0.54106435281E+01 -0.29303069594E+02 -0.34857256415E+02  0.45858186573E+02  0.00000000000E+00 0.  1.
         -5    1    5    5    0  503 -0.16202774265E+02  0.11298271867E+03 -0.14237439073E+03  0.18253816518E+03  0.47000000000E+01 0.  1.
<mgrwt>
<rscale>  2 0.22309974E+03</rscale>
<asrwt>0</asrwt>
<pdfrwt beam="1">  1       21 0.15303230E-01 0.22386792E+03</pdfrwt>
<pdfrwt beam="2">  1       21 0.82342416E-01 0.22386792E+03</pdfrwt>
<totfact> 0.47991040E+04</totfact>
</mgrwt>
</event>
<event>
12    1  0.1441827E-001  0.2031846E+03  0.7546771E-02  0.1147344E+00
         21   -1    0    0  504  503  0.00000000000E+00  0.00000000000E+00  0.13915618195E+03  0.13915618195E+03  0.00000000000E+00 0.  1.
         21   -1    0    0  502  504 -0.00000000000E+00 -0.00000000000E+00 -0.29560976046E+03  0.29560976046E+03  0.00000000000E+00 0.  1.
          6    2    1    2  502    0 -0.84046631526E+02 -0.62059908114E+02 -0.67203690315E+02  0.21401007911E+03  0.17426620298E+03 0.  0.
         24    2    3    3    0    0 -0.78790015621E+02 -0.18785556882E+02 -0.95543920783E+02  0.16180318159E+03  0.10242492405E+03 0.  0.
         -6    2    1    2    0  503  0.84046631526E+02  0.62059908114E+02 -0.89249888196E+02  0.22075586331E+03  0.17277829776E+03 0.  0.
        -24    2    5    5    0    0  0.61445510667E+02 -0.16880153419E+02  0.98011544820E-01  0.99316655606E+02  0.76179381161E+02 0.  0.
          2    1    4    4  501    0 -0.73098271197E+01  0.38350806771E+02 -0.30200747614E+02  0.49358921270E+02  0.00000000000E+00 0. -1.
         -1    1    4    4    0  501 -0.71480188501E+02 -0.57136363653E+02 -0.65343173168E+02  0.11244426032E+03  0.00000000000E+00 0.  1.
          5    1    3    3  502    0 -0.52566159048E+01 -0.43274351232E+02  0.28340230467E+02  0.52206897516E+02  0.47000000000E+01 0. -1.
         13    1    6    6    0    0  0.13333356932E+02 -0.38749909571E+02  0.16204716802E+02  0.44067297914E+02  0.00000000000E+00 0. -1.
        -14    1    6    6    0    0  0.48112153735E+02  0.21869756152E+02 -0.16106705257E+02  0.55249357692E+02  0.00000000000E+00 0.  1.
         -5    1    5    5    0  503  0.22601120859E+02  0.78940061532E+02 -0.89347899741E+02  0.12143920770E+03  0.47000000000E+01 0.  1.
<mgrwt>
<rscale>  2 0.20286517E+03</rscale>
<asrwt>0</asrwt>
<pdfrwt beam="1">  1       21 0.21408644E-01 0.20318459E+03</pdfrwt>
<pdfrwt beam="2">  1       21 0.45478424E-01 0.20318459E+03</pdfrwt>
<totfact> 0.93806772E+04</totfact>
</mgrwt>
</event>
<event>
12    1  0.1441827E-001  0.1873062E+03  0.7546771E-02  0.1163942E+00
         21   -1    0    0  504  503  0.00000000000E+00  0.00000000000E+00  0.41080877359E+02  0.41080877359E+02  0.00000000000E+00 0. -1.
         21   -1    0    0  502  504 -0.00000000000E+00 -0.00000000000E+00 -0.89885745576E+03  0.89885745576E+03  0.00000000000E+00 0. -1.
          6    2    1    2  502    0 -0.37871339493E+02 -0.10758193543E+01 -0.25750381901E+03  0.31112117894E+03  0.17044874725E+03 0.  0.
         24    2    3    3    0    0 -0.78938974019E+02 -0.21042827535E+02 -0.12081208187E+03  0.16692702850E+03  0.81209060492E+02 0.  0.
         -6    2    1    2    0  503  0.37871339493E+02  0.10758193543E+01 -0.60027275939E+03  0.62881715418E+03  0.18343454413E+03 0.  0.
        -24    2    5    5    0    0  0.30403623062E+02  0.86954204392E+01 -0.12143889279E+03  0.14984138557E+03  0.81884342312E+02 0.  0.
          4    1    4    4  501    0 -0.10602774915E+02 -0.72831160409E+01  0.11578048159E+02  0.17306467414E+02  0.00000000000E+00 0. -1.
         -3    1    4    4    0  501 -0.68336199104E+02 -0.13759711494E+02 -0.13239013003E+03  0.14962056108E+03  0.00000000000E+00 0.  1.
          5    1    3    3  502    0  0.41067634526E+02  0.19967008180E+02 -0.13669173714E+03  0.14419415044E+03  0.47000000000E+01 0. -1.
         13    1    6    6    0    0  0.12601376572E+02 -0.29128869194E+02 -0.14252063603E+02  0.34790904400E+02  0.00000000000E+00 0. -1.
        -14    1    6    6    0    0  0.17802246490E+02  0.37824289633E+02 -0.10718682919E+03  0.11505048117E+03  0.00000000000E+00 0.  1.
         -5    1    5    5    0  503  0.74677164306E+01 -0.76196010849E+01 -0.47883386660E+03  0.47897576860E+03  0.47000000000E+01 0.  1.
<mgrwt>
<rscale>  2 0.18404779E+03</rscale>
<asrwt>0</asrwt>
<pdfrwt beam="1">  1       21 0.63201357E-02 0.18730624E+03</pdfrwt>
<pdfrwt beam="2">  1       21 0.13828575E+00 0.18730624E+03</pdfrwt>
<totfact> 0.66805167E+04</totfact>
</mgrwt>
</event>
<event>
12    1  0.1441827E-001  0.2413818E+03  0.7546771E-02  0.1118917E+00
         21   -1    0    0  504  503  0.00000000000E+00  0.00000000000E+00  0.67802317102E+02  0.67802317102E+02  0.00000000000E+00 0.  1.
         21   -1    0    0  502  504 -0.00000000000E+00 -0.00000000000E+00 -0.99752795285E+03  0.99752795285E+03  0.00000000000E+00 0. -1.
          6    2    1    2  502    0  0.45139763527E+02 -0.16210496749E+03 -0.26576581028E+03  0.35885464141E+03  0.17271238813E+03 0.  0.
         24    2    3    3    0    0  0.46674340270E+02 -0.12743962882E+03 -0.91401700694E+02  0.18100927784E+03  0.77399836839E+02 0.  0.
         -6    2    1    2    0  503 -0.45139763527E+02  0.16210496749E+03 -0.66395982547E+03  0.70647562854E+03  0.17305936886E+03 0.  0.
        -24    2    5    5    0    0 -0.12721690407E+01  0.61630628345E+02 -0.49354932369E+03  0.50379043473E+03  0.80086918086E+02 0.  0.
          4    1    4    4  501    0  0.14412076098E+02 -0.79239189633E+02 -0.92948190013E+02  0.12298749179E+03  0.00000000000E+00 0. -1.
         -3    1    4    4    0  501  0.32262264172E+02 -0.48200439185E+02  0.15464893188E+01  0.58021786049E+02  0.00000000000E+00 0.  1.
          5    1    3    3  502    0 -0.15345767427E+01 -0.34665338675E+02 -0.17436410959E+03  0.17784536357E+03  0.47000000000E+01 0. -1.
         13    1    6    6    0    0  0.34899192131E+02  0.45492387065E+02 -0.21822568229E+03  0.22563235429E+03  0.00000000000E+00 0. -1.
        -14    1    6    6    0    0 -0.36171361172E+02  0.16138241281E+02 -0.27532364140E+03  0.27815808044E+03  0.00000000000E+00 0.  1.
         -5    1    5    5    0  503 -0.43867594486E+02  0.10047433915E+03 -0.17041050178E+03  0.20268519381E+03  0.47000000000E+01 0.  1.
<mgrwt>
<rscale>  2 0.24131959E+03</rscale>
<asrwt>0</asrwt>
<pdfrwt beam="1">  1       21 0.10431126E-01 0.24138178E+03</pdfrwt>
<pdfrwt beam="2">  1       21 0.15346583E+00 0.24138178E+03</pdfrwt>
<totfact> 0.20556027E+04</totfact>
</mgrwt>
</event>
<event>
12    1  0.1441827E-001  0.2088048E+03  0.7546771E-02  0.1142874E+00
         21   -1    0    0  504  503  0.00000000000E+00  0.00000000000E+00  0.13716941443E+04  0.13716941443E+04  0.00000000000E+00 0. -1.
         21   -1    0    0  502  504 -0.00000000000E+00 -0.00000000000E+00 -0.41015197576E+02  0.41015197576E+02  0.00000000000E+00 0.  1.
          6    2    1    2  502    0  0.11321462171E+03 -0.57010168809E+01  0.32756420805E+03  0.38845558612E+03  0.17535501084E+03 0.  0.
         24    2    3    3    0    0  0.73434534739E+02 -0.69913848253E+02  0.16599002756E+03  0.21003459847E+03  0.79254439842E+02 0.  0.
         -6    2    1    2    0  503 -0.11321462171E+03  0.57010168809E+01  0.10031147387E+04  0.10242537558E+04  0.17322391602E+03 0.  0.
        -24    2    5    5    0    0 -0.92498337595E+02 -0.30901746798E+02  0.94343978686E+03  0.95109559415E+03  0.70663550527E+02 0.  0.
          4    1    4    4  501    0  0.38401668403E+02 -0.41320450528E+02  0.15287553974E+03  0.16295090800E+03  0.00000000000E+00 0. -1.
         -3    1    4    4    0  501  0.35032866335E+02 -0.28593397725E+02  0.13114487819E+02  0.47083690466E+02  0.00000000000E+00 0.  1.
          5    1    3    3  502    0  0.39780086969E+02  0.64212831372E+02  0.16157418049E+03  0.17842098765E+03  0.47000000000E+01 0. -1.
         11    1    6    6    0    0 -0.62494511363E+02 -0.49691856535E+02  0.50994978881E+03  0.51616240823E+03  0.00000000000E+00 0. -1.
        -12    1    6    6    0    0 -0.30003826232E+02  0.18790109738E+02  0.43348999805E+03  0.43493318592E+03  0.00000000000E+00 0.  1.
         -5    1    5    5    0  503 -0.20716284112E+02  0.36602763678E+02  0.59674951839E+02  0.73158161631E+02  0.47000000000E+01 0.  1.
<mgrwt>
<rscale>  2 0.20835671E+03</rscale>
<asrwt>0</asrwt>
<pdfrwt beam="1">  1       21 0.21102983E+00 0.20880477E+03</pdfrwt>
<pdfrwt beam="2">  1       21 0.63100315E-02 0.20880477E+03</pdfrwt>
<totfact> 0.20423328E+04</totfact>
</mgrwt>
</event>
<event>
12    1  0.1441827E-001  0.1965939E+03  0.7546771E-02  0.1154019E+00
         21   -1    0    0  504  503  0.00000000000E+00  0.00000000000E+00  0.42151155911E+03  0.42151155911E+03  0.00000000000E+00 0.  1.
         21   -1    0    0  502  504 -0.00000000000E+00 -0.00000000000E+00 -0.89491471639E+02  0.89491471639E+02  0.00000000000E+00 0.  1.
          6    2    1    2  502    0  0.83583136758E+02  0.44072599755E+02  0.18588664187E+03  0.26604560585E+03  0.16522071894E+03 0.  0.
         24    2    3    3    0    0  0.36926273581E+02 -0.29588814189E+02  0.50835989980E+02  0.10522385557E+03  0.79048809598E+02 0.  0.
         -6    2    1    2    0  503 -0.83583136758E+02 -0.44072599755E+02  0.14613344560E+03  0.24495742490E+03  0.17239669745E+03 0.  0.
        -24    2    5    5    0    0  0.76147571904E+01 -0.58783764663E+02  0.99774615880E+02  0.14149387902E+03  0.80944600252E+02 0.  0.
          2    1    4    4  501    0 -0.16726497461E+02 -0.21646566948E+01 -0.99923726188E+01  0.19603799797E+02  0.00000000000E+00 0. -1.
         -1    1    4    4    0  501  0.53652771043E+02 -0.27424157494E+02  0.60828362599E+02  0.85620055777E+02  0.00000000000E+00 0.  1.
          5    1    3    3  502    0  0.46656863177E+02  0.73661413945E+02  0.13505065189E+03  0.16082175028E+03  0.47000000000E+01 0. -1.
         11    1    6    6    0    0  0.22274832461E+02 -0.91730503220E+01  0.84037021871E+02  0.87421588057E+02  0.00000000000E+00 0. -1.
        -12    1    6    6    0    0 -0.14660075271E+02 -0.49610714341E+02  0.15737594008E+02  0.54072290959E+02  0.00000000000E+00 0.  1.
         -5    1    5    5    0  503 -0.91197893949E+02  0.14711164907E+02  0.46358829720E+02  0.10346354588E+03  0.47000000000E+01 0.  1.
<mgrwt>
<rscale>  2 0.19500946E+03</rscale>
<asrwt>0</asrwt>
<pdfrwt beam="1">  1       21 0.64847931E-01 0.19659389E+03</pdfrwt>
<pdfrwt beam="2">  1       21 0.13767919E-01 0.19659389E+03</pdfrwt>
<totfact> 0.10023667E+05</totfact>
</mgrwt>
</event>
<event>
12    1  0.1441827E-001  0.2530764E+03  0.7546771E-02  0.1112109E+00
         21   -1    0    0  504  503  0.00000000000E+00  0.00000000000E+00  0.23707812509E+03  0.23707812509E+03  0.00000000000E+00 0. -1.
         21   -1    0    0  502  504 -0.00000000000E+00 -0.00000000000E+00 -0.54801262613E+03  0.54801262613E+03  0.00000000000E+00 0. -1.
          6    2    1    2  502    0 -0.18251453190E+03 -0.23574969484E+02 -0.43815973804E+03  0.50599567780E+03  0.17372488703E+03 0.  0.
         24    2    3    3    0    0 -0.18646247754E+02 -0.11973094714E+02 -0.10256687652E+03  0.13232192069E+03  0.80610725001E+02 0.  0.
         -6    2    1    2    0  503  0.18251453190E+03  0.23574969484E+02  0.12722523700E+03  0.27909507343E+03  0.16685462397E+03 0.  0.
        -24    2    5    5    0    0  0.15028839474E+03  0.72387239899E+02  0.70384908886E+02  0.19740006404E+03  0.78652627347E+02 0.  0.
          2    1    4    4  501    0 -0.39187456052E+01 -0.14493184968E+02 -0.11306727086E+03  0.11405970681E+03  0.00000000000E+00 0. -1.
         -1    1    4    4    0  501 -0.14727502149E+02  0.25200902543E+01  0.10500394346E+02  0.18262213882E+02  0.00000000000E+00 0.  1.
          5    1    3    3  502    0 -0.16386828414E+03 -0.11601874771E+02 -0.33559286153E+03  0.37367375711E+03  0.47000000000E+01 0. -1.
         13    1    6    6    0    0  0.11186573871E+03  0.60381241791E+02  0.13674097071E+02  0.12785467840E+03  0.00000000000E+00 0. -1.
        -14    1    6    6    0    0  0.38422656034E+02  0.12005998108E+02  0.56710811815E+02  0.69545385641E+02  0.00000000000E+00 0.  1.
         -5    1    5    5    0  503  0.32226137154E+02 -0.48812270414E+02  0.56840328114E+02  0.81695009388E+02  0.47000000000E+01 0.  1.
<mgrwt>
<rscale>  2 0.25190179E+03</rscale>
<asrwt>0</asrwt>
<pdfrwt beam="1">  1       21 0.36473558E-01 0.25307641E+03</pdfrwt>
<pdfrwt beam="2">  1       21 0.84309634E-01 0.25307641E+03</pdfrwt>
<totfact> 0.85130145E+03</totfact>
</mgrwt>
</event>
<event>
12    1  0.1441827E-001  0.1860019E+03  0.7546771E-02  0.1162351E+00
         21   -1    0    0  504  503  0.00000000000E+00  0.00000000000E+00  0.72422874154E+02  0.72422874154E+02  0.00000000000E+00 0. -1.
         21   -1    0    0  502  504 -0.00000000000E+00 -0.00000000000E+00 -0.51313746285E+03  0.51313746285E+03  0.00000000000E+00 0. -1.
          6    2    1    2  502    0  0.44008658787E+02 -0.54561335289E+02 -0.29948771644E+03  0.35201861042E+03  0.17120312037E+03 0.  0.
         24    2    3    3    0    0  0.86758057635E+02 -0.68119090686E+01 -0.21075987359E+03  0.24246388025E+03  0.82435709724E+02 0.  0.
         -6    2    1    2    0  503 -0.44008658787E+02  0.54561335289E+02 -0.14122687225E+03  0.23354172659E+03  0.17228757138E+03 0.  0.
        -24    2    5    5    0    0 -0.41749946023E+02  0.27338558623E+02 -0.72261377629E+01  0.96704347931E+02  0.82517022858E+02 0.  0.
          4    1    4    4  501    0  0.86498067246E+02 -0.29555874116E+02 -0.13254030042E+03  0.16100433711E+03  0.00000000000E+00 0. -1.
         -3    1    4    4    0  501  0.25999038812E+00  0.22743965047E+02 -0.78219573170E+02  0.81459543137E+02  0.00000000000E+00 0.  1.
          5    1    3    3  502    0 -0.42749398848E+02 -0.47749426221E+02 -0.88727842851E+02  0.10955473017E+03  0.47000000000E+01 0. -1.
         11    1    6    6    0    0 -0.28319550172E+02 -0.27795346363E+02 -0.24042918838E+01  0.39753727132E+02  0.00000000000E+00 0. -1.
        -12    1    6    6    0    0 -0.13430395851E+02  0.55133904986E+02 -0.48218458791E+01  0.56950620799E+02  0.00000000000E+00 0.  1.
         -5    1    5    5    0  503 -0.22587127640E+01  0.27222776667E+02 -0.13400073449E+03  0.13683737865E+03  0.47000000000E+01 0.  1.
<mgrwt>
<rscale>  2 0.18575038E+03</rscale>
<asrwt>0</asrwt>
<pdfrwt beam="1">  1       21 0.11141980E-01 0.18600190E+03</pdfrwt>
<pdfrwt beam="2">  1       21 0.78944227E-01 0.18600190E+03</pdfrwt>
<totfact> 0.95187852E+04</totfact>
</mgrwt>
</event>
<event>
12    1  0.1441827E-001  0.1743487E+03  0.7546771E-02  0.1174744E+00
         21   -1    0    0  504  503  0.00000000000E+00  0.00000000000E+00  0.20305368538E+03  0.20305368538E+03  0.00000000000E+00 0. -1.
         21   -1    0    0  502  504 -0.00000000000E+00 -0.00000000000E+00 -0.16357314185E+03  0.16357314185E+03  0.00000000000E+00 0. -1.
          6    2    1    2  502    0  0.46228726167E+00 -0.27557687986E+02 -0.41432737813E+02  0.17920418880E+03  0.17215641041E+03 0.  0.
         24    2    3    3    0    0 -0.55754569581E+02  0.20354708631E+02 -0.73979102672E+01  0.97740133976E+02  0.77301478127E+02 0.  0.
         -6    2    1    2    0  503 -0.46228726167E+00  0.27557687986E+02  0.80913281344E+02  0.18742263842E+03  0.16679522301E+03 0.  0.
        -24    2    5    5    0    0  0.31495601813E+02  0.70130783968E+02  0.74317394685E+02  0.13357683174E+03  0.80058697420E+02 0.  0.
          4    1    4    4  501    0 -0.18665264485E+02 -0.29310940681E+02  0.30362889356E+01  0.34881834705E+02  0.00000000000E+00 0. -1.
         -3    1    4    4    0  501 -0.37089305096E+02  0.49665649312E+02 -0.10434199203E+02  0.62858299270E+02  0.00000000000E+00 0.  1.
          5    1    3    3  502    0  0.56216856843E+02 -0.47912396617E+02 -0.34034827546E+02  0.81464054828E+02  0.47000000000E+01 0. -1.
         13    1    6    6    0    0 -0.12470736244E+02  0.25556929355E+02 -0.85704468026E+01  0.29700647450E+02  0.00000000000E+00 0. -1.
        -14    1    6    6    0    0  0.43966338057E+02  0.44573854613E+02  0.82887841488E+02  0.10387618429E+03  0.00000000000E+00 0.  1.
         -5    1    5    5    0  503 -0.31957889075E+02 -0.42573095982E+02  0.65958866589E+01  0.53845806674E+02  0.47000000000E+01 0.  1.
<mgrwt>
<rscale>  2 0.17301046E+03</rscale>
<asrwt>0</asrwt>
<pdfrwt beam="1">  1       21 0.31239029E-01 0.17434870E+03</pdfrwt>
<pdfrwt beam="2">  1       21 0.25165099E-01 0.17434870E+03</pdfrwt>
<totfact> 0.14815530E+05</totfact>
</mgrwt>
</event>
<event>
12    1  0.1441827E-001  0.2436291E+03  0.7546771E-02  0.1117860E+00
         21   -1    0    0  504  503  0.00000000000E+00  0.00000000000E+00  0.11032993417E+03  0.11032993417E+03  0.00000000000E+00 0. -1.
         21   -1    0    0  502  504 -0.00000000000E+00 -0.00000000000E+00 -0.72797077907E+03  0.72797077907E+03  0.00000000000E+00 0.  1.
          6    2    1    2  502    0 -0.16887835935E+03 -0.33843329957E+02 -0.52770874304E+03  0.58123285498E+03  0.17230740838E+03 0.  0.
         24    2    3    3    0    0 -0.19573746163E+03 -0.22156654548E+02 -0.49000014859E+03  0.53325350678E+03  0.73858551646E+02 0.  0.
         -6    2    1    2    0  503  0.16887835935E+03  0.33843329957E+02 -0.89932101865E+02  0.25706785826E+03  0.16831764484E+03 0.  0.
        -24    2    5    5    0    0  0.31448741766E+02  0.30230571914E+02 -0.77975556651E+02  0.11899178943E+03  0.78587197938E+02 0.  0.
          4    1    4    4  501    0 -0.14103330638E+03 -0.40846521327E+02 -0.28979231144E+03  0.32486676589E+03  0.00000000000E+00 0. -1.
         -3    1    4    4    0  501 -0.54704155256E+02  0.18689866779E+02 -0.20020783715E+03  0.20838674089E+03  0.00000000000E+00 0.  1.
          5    1    3    3  502    0  0.26859102282E+02 -0.11686675409E+02 -0.37708594454E+02  0.47979348195E+02  0.47000000000E+01 0. -1.
         11    1    6    6    0    0  0.36530228105E+02  0.44654977920E+02 -0.23305149041E+02  0.62222621211E+02  0.00000000000E+00 0. -1.
        -12    1    6    6    0    0 -0.50814863395E+01 -0.14424406006E+02 -0.54670407609E+02  0.56769168219E+02  0.00000000000E+00 0.  1.
         -5    1    5    5    0  503  0.13742961759E+03  0.36127580428E+01 -0.11956545214E+02  0.13807606883E+03  0.47000000000E+01 0.  1.
<mgrwt>
<rscale>  2 0.24292469E+03</rscale>
<asrwt>0</asrwt>
<pdfrwt beam="1">  1       21 0.16973836E-01 0.24362905E+03</pdfrwt>
<pdfrwt beam="2">  1       21 0.11199550E+00 0.24362905E+03</pdfrwt>
<totfact> 0.18985400E+04</totfact>
</mgrwt>
</event>
<event>
12    1  0.1441827E-001  0.2141447E+03  0.7546771E-02  0.1138448E+00
         21   -1    0    0  504  503  0.00000000000E+00  0.00000000000E+00  0.10500843665E+03  0.10500843665E+03  0.00000000000E+00 0. -1.
         21   -1    0    0  502  504 -0.00000000000E+00 -0.00000000000E+00 -0.11029479422E+04  0.11029479422E+04  0.00000000000E+00 0.  1.
          6    2    1    2  502    0 -0.84985656574E+02  0.92394230794E+02 -0.96855033989E+03  0.99180439070E+03  0.17270475617E+03 0.  0.
         24    2    3    3    0    0 -0.11890326103E+03  0.37327432653E+02 -0.70324779867E+03  0.71869217104E+03  0.80185083834E+02 0.  0.
         -6    2    1    2    0  503  0.84985656574E+02 -0.92394230794E+02 -0.29389165659E+02  0.21615198815E+03  0.17348977842E+03 0.  0.
        -24    2    5    5    0    0  0.35899721228E+02  0.18467536297E+02 -0.25898222907E+02  0.94768146008E+02  0.81733981102E+02 0.  0.
          2    1    4    4  501    0 -0.11118105642E+03  0.41900065573E+02 -0.45421511127E+03  0.46949782759E+03  0.00000000000E+00 0. -1.
         -1    1    4    4    0  501 -0.77222046026E+01 -0.45726329200E+01 -0.24903268740E+03  0.24919434345E+03  0.00000000000E+00 0.  1.
          5    1    3    3  502    0  0.33917604453E+02  0.55066798141E+02 -0.26530254122E+03  0.27311221966E+03  0.47000000000E+01 0. -1.
         13    1    6    6    0    0  0.15491554362E+00  0.43177113713E+01  0.28129295292E+02  0.28459161687E+02  0.00000000000E+00 0. -1.
        -14    1    6    6    0    0  0.35744805684E+02  0.14149824926E+02 -0.54027518199E+02  0.66308984320E+02  0.00000000000E+00 0.  1.
         -5    1    5    5    0  503  0.49085935346E+02 -0.11086176709E+03 -0.34909427521E+01  0.12138384214E+03  0.47000000000E+01 0.  1.
<mgrwt>
<rscale>  2 0.21398566E+03</rscale>
<asrwt>0</asrwt>
<pdfrwt beam="1">  1       21 0.16155144E-01 0.21414471E+03</pdfrwt>
<pdfrwt beam="2">  1       21 0.16968430E+00 0.21414471E+03</pdfrwt>
<totfact> 0.72212924E+03</totfact>
</mgrwt>
</event>
<event>
12    1  0.1441827E-001  0.3531142E+03  0.7546771E-02  0.1061420E+00
         21   -1    0    0  504  503  0.00000000000E+00  0.00000000000E+00  0.23115810471E+03  0.23115810471E+03  0.00000000000E+00 0. -1.
         21   -1    0    0  502  504 -0.00000000000E+00 -0.00000000000E+00 -0.89353079599E+03  0.89353079599E+03  0.00000000000E+00 0.  1.
          6    2    1    2  502    0 -0.19475425283E+03 -0.23757005448E+03 -0.68598303243E+03  0.77153247236E+03  0.17412893309E+03 0.  0.
         24    2    3    3    0    0 -0.12626973901E+03 -0.22977019654E+03 -0.60774671769E+03  0.66715825446E+03  0.83699901027E+02 0.  0.
         -6    2    1    2    0  503  0.19475425283E+03  0.23757005448E+03  0.23610341152E+02  0.35315642835E+03  0.17260725620E+03 0.  0.
        -24    2    5    5    0    0  0.10351340674E+03  0.79399823447E+02 -0.43472965789E+02  0.15856718391E+03  0.78957556454E+02 0.  0.
          2    1    4    4  501    0 -0.10400179391E+03 -0.13501489963E+03 -0.30805479602E+03  0.35205561153E+03  0.00000000000E+00 0. -1.
         -1    1    4    4    0  501 -0.22267945104E+02 -0.94755296906E+02 -0.29969192167E+03  0.31510264294E+03  0.00000000000E+00 0.  1.
          5    1    3    3  502    0 -0.68484513814E+02 -0.77998579412E+01 -0.78236314741E+02  0.10437421789E+03  0.47000000000E+01 0. -1.
         11    1    6    6    0    0  0.62089165266E+02  0.84909382331E+02 -0.11232435554E+02  0.10578674425E+03  0.00000000000E+00 0. -1.
        -12    1    6    6    0    0  0.41424241471E+02 -0.55095588842E+01 -0.32240530235E+02  0.52780439657E+02  0.00000000000E+00 0.  1.
         -5    1    5    5    0  503  0.91240846092E+02  0.15817023103E+03  0.67083306941E+02  0.19458924444E+03  0.47000000000E+01 0.  1.
<mgrwt>
<rscale>  2 0.35292707E+03</rscale>
<asrwt>0</asrwt>
<pdfrwt beam="1">  1       21 0.35562785E-01 0.35311420E+03</pdfrwt>
<pdfrwt beam="2">  1       21 0.13746628E+00 0.35311420E+03</pdfrwt>
<totfact> 0.25692760E+03</totfact>
</mgrwt>
</event>
<event>
12    1  0.1441827E-001  0.2060135E+03  0.7546771E-02  0.1144934E+00
         21   -1    0    0  504  503  0.00000000000E+00  0.00000000000E+00  0.15131162188E+02  0.15131162188E+02  0.00000000000E+00 0. -1.
         21   -1    0    0  502  504 -0.00000000000E+00 -0.00000000000E+00 -0.31581569497E+04  0.31581569497E+04  0.00000000000E+00 0. -1.
          6    2    1    2  502    0  0.94263042062E+02 -0.54775257877E+02 -0.21135533870E+04  0.21235699805E+04  0.17480186572E+03 0.  0.
         24    2    3    3    0    0  0.36095165308E+02 -0.41176388043E+02 -0.18665961981E+04  0.18694472261E+04  0.87482618006E+02 0.  0.
         -6    2    1    2    0  503 -0.94263042062E+02  0.54775257877E+02 -0.10294724005E+04  0.10497181314E+04  0.17380702531E+03 0.  0.
        -24    2    5    5    0    0 -0.95715243779E+02  0.88476231453E+02 -0.96189954402E+03  0.97404749349E+03  0.80798114880E+02 0.  0.
          2    1    4    4  501    0  0.60470979497E+02 -0.36274546366E+02 -0.16350464537E+04  0.16365663713E+04  0.00000000000E+00 0. -1.
         -1    1    4    4    0  501 -0.24375814189E+02 -0.49018416778E+01 -0.23154974441E+03  0.23288085474E+03  0.00000000000E+00 0.  1.
          5    1    3    3  502    0  0.58167876753E+02 -0.13598869833E+02 -0.24695718896E+03  0.25412275445E+03  0.47000000000E+01 0. -1.
         13    1    6    6    0    0 -0.67687963419E+02  0.91308255923E+02 -0.57514465291E+03  0.58626805283E+03  0.00000000000E+00 0. -1.
        -14    1    6    6    0    0 -0.28027280360E+02 -0.28320244698E+01 -0.38675489111E+03  0.38777944066E+03  0.00000000000E+00 0.  1.
         -5    1    5    5    0  503  0.14522017172E+01 -0.33700973577E+02 -0.67572856458E+02  0.75670637897E+02  0.47000000000E+01 0.  1.
<mgrwt>
<rscale>  2 0.20580227E+03</rscale>
<asrwt>0</asrwt>
<pdfrwt beam="1">  1       21 0.23278723E-02 0.20601345E+03</pdfrwt>
<pdfrwt beam="2">  1       21 0.48587005E+00 0.20601345E+03</pdfrwt>
<totfact> 0.22393608E+03</totfact>
</mgrwt>
</event>
<event>
12    1  0.1441827E-001  0.1798907E+03  0.7546771E-02  0.1169585E+00
         21   -1    0    0  504  503  0.00000000000E+00  0.00000000000E+00  0.99687767737E+02  0.99687767737E+02  0.00000000000E+00 0. -1.
         21   -1    0    0  502  504 -0.00000000000E+00 -0.00000000000E+00 -0.34490876737E+03  0.34490876737E+03  0.00000000000E+00 0. -1.
          6    2    1    2  502    0 -0.13201078198E+02 -0.48997537191E+02 -0.19287387325E+03  0.26374421388E+03  0.17258520289E+03 0.  0.
         24    2    3    3    0    0 -0.32275746505E+02  0.34738842807E+02 -0.12441413769E+03  0.15381491979E+03  0.77017146671E+02 0.  0.
         -6    2    1    2    0  503  0.13201078198E+02  0.48997537191E+02 -0.52347126384E+02  0.18085232123E+03  0.16550623353E+03 0.  0.
        -24    2    5    5    0    0  0.30304932564E+02  0.36100470993E+02  0.33958314776E+02  0.91804045981E+02  0.71085742399E+02 0.  0.
          4    1    4    4  501    0 -0.40027372351E+02  0.37959083987E+02 -0.13164515531E+03  0.14273587325E+03  0.00000000000E+00 0. -1.
         -3    1    4    4    0  501  0.77516258459E+01 -0.32202411803E+01  0.72310176211E+01  0.11079046545E+02  0.00000000000E+00 0.  1.
          5    1    3    3  502    0  0.19074668307E+02 -0.83736379997E+02 -0.68459735562E+02  0.10992929409E+03  0.47000000000E+01 0. -1.
         13    1    6    6    0    0 -0.15861122388E+02  0.34435229277E+02  0.77675838570E+01  0.38700072063E+02  0.00000000000E+00 0. -1.
        -14    1    6    6    0    0  0.46166054952E+02  0.16652417169E+01  0.26190730919E+02  0.53103973918E+02  0.00000000000E+00 0.  1.
         -5    1    5    5    0  503 -0.17103854366E+02  0.12897066197E+02 -0.86305441160E+02  0.89048275247E+02  0.47000000000E+01 0.  1.
<mgrwt>
<rscale>  2 0.17817125E+03</rscale>
<asrwt>0</asrwt>
<pdfrwt beam="1">  1       21 0.15336580E-01 0.17989074E+03</pdfrwt>
<pdfrwt beam="2">  1       21 0.53062887E-01 0.17989074E+03</pdfrwt>
<totfact> 0.12730896E+05</totfact>
</mgrwt>
</event>
<event>
12    1  0.1441827E-001  0.3253245E+03  0.7546771E-02  0.1073250E+00
         21   -1    0    0  504  503  0.00000000000E+00  0.00000000000E+00  0.23696848015E+03  0.23696848015E+03  0.00000000000E+00 0.  1.
         21   -1    0    0  502  504 -0.00000000000E+00 -0.00000000000E+00 -0.45956155778E+03  0.45956155778E+03  0.00000000000E+00 0. -1.
          6    2    1    2  502    0  0.26416364534E+03  0.77438959639E+02 -0.52128082166E+02  0.32925038816E+03  0.17294293036E+03 0.  0.
         24    2    3    3    0    0  0.21168483766E+03  0.44971932754E+02 -0.98801032036E+02  0.25173531001E+03  0.82316931085E+02 0.  0.
         -6    2    1    2    0  503 -0.26416364534E+03 -0.77438959639E+02 -0.17046499546E+03  0.36727964978E+03  0.17336897783E+03 0.  0.
        -24    2    5    5    0    0 -0.17419813533E+03 -0.11094631099E+03 -0.15358260757E+03  0.26969050793E+03  0.80568470528E+02 0.  0.
          4    1    4    4  501    0  0.15938481831E+03 -0.33916070326E+01 -0.78287441860E+02  0.17760615659E+03  0.00000000000E+00 0. -1.
         -3    1    4    4    0  501  0.52300019352E+02  0.48363539787E+02 -0.20513590176E+02  0.74129153420E+02  0.00000000000E+00 0.  1.
          5    1    3    3  502    0  0.52478807683E+02  0.32467026885E+02  0.46672949871E+02  0.77515078148E+02  0.47000000000E+01 0. -1.
         13    1    6    6    0    0  0.54706531131E+00 -0.48771143592E+01 -0.30893370524E+02  0.31280758739E+02  0.00000000000E+00 0. -1.
        -14    1    6    6    0    0 -0.17474520064E+03 -0.10606919663E+03 -0.12268923704E+03  0.23840974919E+03  0.00000000000E+00 0.  1.
         -5    1    5    5    0  503 -0.89965510012E+02  0.33507351355E+02 -0.16882387894E+02  0.97589141853E+02  0.47000000000E+01 0.  1.
<mgrwt>
<rscale>  2 0.32526777E+03</rscale>
<asrwt>0</asrwt>
<pdfrwt beam="1">  1       21 0.36456690E-01 0.32532449E+03</pdfrwt>
<pdfrwt beam="2">  1       21 0.70701778E-01 0.32532449E+03</pdfrwt>
<totfact> 0.12276628E+04</totfact>
</mgrwt>
</event>
<event>
12    1  0.1441827E-001  0.5563582E+03  0.7546771E-02  0.1000048E+00
         21   -1    0    0  504  503  0.00000000000E+00  0.00000000000E+00  0.96026661568E+03  0.96026661568E+03  0.00000000000E+00 0. -1.
         21   -1    0    0  502  504 -0.00000000000E+00 -0.00000000000E+00 -0.53658297952E+03  0.53658297952E+03  0.00000000000E+00 0.  1.
          6    2    1    2  502    0 -0.30340225650E+02  0.52757769740E+03 -0.26126616870E+03  0.61441509001E+03  0.17316794114E+03 0.  0.
         24    2    3    3    0    0 -0.97238185936E+01  0.51727936317E+03 -0.22220167632E+03  0.56881666358E+03  0.80661760491E+02 0.  0.
         -6    2    1    2    0  503  0.30340225650E+02 -0.52757769740E+03  0.68494980486E+03  0.88243450518E+03  0.17399903640E+03 0.  0.
        -24    2    5    5    0    0  0.76692624659E+02 -0.38890685363E+03  0.44594637988E+03  0.60221517152E+03  0.81637243965E+02 0.  0.
          4    1    4    4  501    0 -0.30161244496E+02  0.15625545608E+03 -0.40911433531E+02  0.16431437435E+03  0.00000000000E+00 0. -1.
         -3    1    4    4    0  501  0.20437425902E+02  0.36102390709E+03 -0.18129024279E+03  0.40450228924E+03  0.00000000000E+00 0.  1.
          5    1    3    3  502    0 -0.20616407056E+02  0.10298334237E+02 -0.39064492376E+02  0.45598426427E+02  0.47000000000E+01 0. -1.
         11    1    6    6    0    0  0.44659951554E+02 -0.79813510669E+02  0.13103953624E+03  0.15980008703E+03  0.00000000000E+00 0. -1.
        -12    1    6    6    0    0  0.32032673105E+02 -0.30909334296E+03  0.31490684364E+03  0.44241508449E+03  0.00000000000E+00 0.  1.
         -5    1    5    5    0  503 -0.46352399009E+02 -0.13867084378E+03  0.23900342498E+03  0.28021933366E+03  0.47000000000E+01 0.  1.
<mgrwt>
<rscale>  2 0.55629332E+03</rscale>
<asrwt>0</asrwt>
<pdfrwt beam="1">  1       21 0.14773333E+00 0.55635818E+03</pdfrwt>
<pdfrwt beam="2">  1       21 0.82551228E-01 0.55635818E+03</pdfrwt>
<totfact> 0.31430566E+02</totfact>
</mgrwt>
</event>
<event>
12    1  0.1441827E-001  0.2344470E+03  0.7546771E-02  0.1124446E+00
         21   -1    0    0  504  503  0.00000000000E+00  0.00000000000E+00  0.89200261995E+02  0.89200261995E+02  0.00000000000E+00 0. -1.
         21   -1    0    0  502  504 -0.00000000000E+00 -0.00000000000E+00 -0.60610918541E+03  0.60610918541E+03  0.00000000000E+00 0.  1.
          6    2    1    2  502    0 -0.13527849686E+03  0.68170944539E+02 -0.22947768450E+03  0.32438882581E+03  0.17210622660E+03 0.  0.
         24    2    3    3    0    0 -0.10919614197E+03  0.94511478398E+02 -0.23452193773E+03  0.28668408538E+03  0.79567635133E+02 0.  0.
         -6    2    1    2    0  503  0.13527849686E+03 -0.68170944539E+02 -0.28743123891E+03  0.37092062160E+03  0.17893529845E+03 0.  0.
        -24    2    5    5    0    0  0.14038045106E+03 -0.95102070386E+02 -0.18402288640E+03  0.26383797666E+03  0.83635999303E+02 0.  0.
          2    1    4    4  501    0 -0.26257154532E+01  0.29249930037E+02 -0.94736553876E+02  0.99184007930E+02  0.00000000000E+00 0. -1.
         -1    1    4    4    0  501 -0.10657042652E+03  0.65261548362E+02 -0.13978538386E+03  0.18750007745E+03  0.00000000000E+00 0.  1.
          5    1    3    3  502    0 -0.26082354881E+02 -0.26340533859E+02  0.50442532306E+01  0.37704740429E+02  0.47000000000E+01 0. -1.
         11    1    6    6    0    0  0.12909672311E+02 -0.52107497414E+02 -0.64188219630E+02  0.83677825409E+02  0.00000000000E+00 0. -1.
        -12    1    6    6    0    0  0.12747077875E+03 -0.42994572971E+02 -0.11983466677E+03  0.18016015125E+03  0.00000000000E+00 0.  1.
         -5    1    5    5    0  503 -0.51019542067E+01  0.26931125847E+02 -0.10340835251E+03  0.10708264493E+03  0.47000000000E+01 0.  1.
<mgrwt>
<rscale>  2 0.23314375E+03</rscale>
<asrwt>0</asrwt>
<pdfrwt beam="1">  1       21 0.13723117E-01 0.23444699E+03</pdfrwt>
<pdfrwt beam="2">  1       21 0.93247569E-01 0.23444699E+03</pdfrwt>
<totfact> 0.43692866E+04</totfact>
</mgrwt>
</event>
<event>
12    1  0.1441827E-001  0.3478419E+03  0.7546771E-02  0.1063552E+00
         21   -1    0    0  504  503  0.00000000000E+00  0.00000000000E+00  0.21172987656E+03  0.21172987656E+03  0.00000000000E+00 0.  1.
         21   -1    0    0  502  504 -0.00000000000E+00 -0.00000000000E+00 -0.85556795783E+03  0.85556795783E+03  0.00000000000E+00 0. -1.
          6    2    1    2  502    0 -0.12867694690E+03  0.27323155263E+03 -0.62998596673E+03  0.71963621441E+03  0.17257092686E+03 0.  0.
         24    2    3    3    0    0 -0.24012138505E+02  0.58003840118E+02 -0.25747774715E+03  0.27684715176E+03  0.80053275349E+02 0.  0.
         -6    2    1    2    0  503  0.12867694690E+03 -0.27323155263E+03 -0.13852114545E+02  0.34766161998E+03  0.17164930209E+03 0.  0.
        -24    2    5    5    0    0  0.86973217927E+02 -0.21980688243E+03 -0.71201534885E+02  0.25875468881E+03  0.77491446034E+02 0.  0.
          4    1    4    4  501    0 -0.20881850323E+02 -0.10823527510E+02 -0.12835808717E+03  0.13049520666E+03  0.00000000000E+00 0. -1.
         -3    1    4    4    0  501 -0.31302881821E+01  0.68827367628E+02 -0.12911965999E+03  0.14635194510E+03  0.00000000000E+00 0.  1.
          5    1    3    3  502    0 -0.10466480840E+03  0.21522771252E+03 -0.37250821957E+03  0.44278906265E+03  0.47000000000E+01 0. -1.
         11    1    6    6    0    0 -0.13899936194E+02 -0.15108204423E+02 -0.47376780167E+01  0.21069211188E+02  0.00000000000E+00 0. -1.
        -12    1    6    6    0    0  0.10087315412E+03 -0.20469867801E+03 -0.66463856869E+02  0.23768547762E+03  0.00000000000E+00 0.  1.
         -5    1    5    5    0  503  0.41703728974E+02 -0.53424670201E+02  0.57349420340E+02  0.88906931168E+02  0.47000000000E+01 0.  1.
<mgrwt>
<rscale>  2 0.34772773E+03</rscale>
<asrwt>0</asrwt>
<pdfrwt beam="1">  1       21 0.32573827E-01 0.34784186E+03</pdfrwt>
<pdfrwt beam="2">  1       21 0.13162584E+00 0.34784186E+03</pdfrwt>
<totfact> 0.34384345E+03</totfact>
</mgrwt>
</event>
<event>
12    1  0.1441827E-001  0.2186176E+03  0.7546771E-02  0.1135310E+00
         21   -1    0    0  504  503  0.00000000000E+00  0.00000000000E+00  0.91967596966E+02  0.91967596966E+02  0.00000000000E+00 0.  1.
         21   -1    0    0  502  504 -0.00000000000E+00 -0.00000000000E+00 -0.11425957996E+04  0.11425957996E+04  0.00000000000E+00 0. -1.
          6    2    1    2  502    0  0.13004023214E+03 -0.22469088705E+02 -0.98401162291E+03  0.10080042341E+04  0.17429383224E+03 0.  0.
         24    2    3    3    0    0  0.16066585529E+03 -0.25064153099E+02 -0.73959508709E+03  0.76161795983E+03  0.81359050237E+02 0.  0.
         -6    2    1    2    0  503 -0.13004023214E+03  0.22469088705E+02 -0.66616579721E+02  0.22655916249E+03  0.17168565314E+03 0.  0.
        -24    2    5    5    0    0 -0.94610709197E+01 -0.15114581717E+02 -0.49236912972E+00  0.83918468342E+02  0.82000636937E+02 0.  0.
          4    1    4    4  501    0  0.89892223474E+02  0.26322686042E+02 -0.41569651778E+03  0.42611863435E+03  0.00000000000E+00 0. -1.
         -3    1    4    4    0  501  0.70773631817E+02 -0.51386839141E+02 -0.32389856931E+03  0.33549932548E+03  0.00000000000E+00 0.  1.
          5    1    3    3  502    0 -0.30625623155E+02  0.25950643943E+01 -0.24441653582E+03  0.24638627424E+03  0.47000000000E+01 0. -1.
         13    1    6    6    0    0 -0.32901113359E+01  0.29900554309E+02 -0.18194736731E+02  0.35155603042E+02  0.00000000000E+00 0. -1.
        -14    1    6    6    0    0 -0.61709595838E+01 -0.45015136025E+02  0.17702367601E+02  0.48762865300E+02  0.00000000000E+00 0.  1.
         -5    1    5    5    0  503 -0.12057916122E+03  0.37583670422E+02 -0.66124210591E+02  0.14264069415E+03  0.47000000000E+01 0.  1.
<mgrwt>
<rscale>  2 0.21809735E+03</rscale>
<asrwt>0</asrwt>
<pdfrwt beam="1">  1       21 0.14148860E-01 0.21861762E+03</pdfrwt>
<pdfrwt beam="2">  1       21 0.17578398E+00 0.21861762E+03</pdfrwt>
<totfact> 0.83107968E+03</totfact>
</mgrwt>
</event>
<event>
12    1  0.1441827E-001  0.2034431E+03  0.7546771E-02  0.1146941E+00
         21   -1    0    0  504  503  0.00000000000E+00  0.00000000000E+00  0.50381052347E+03  0.50381052347E+03  0.00000000000E+00 0. -1.
         21   -1    0    0  502  504 -0.00000000000E+00 -0.00000000000E+00 -0.13644711456E+03  0.13644711456E+03  0.00000000000E+00 0. -1.
          6    2    1    2  502    0  0.58173574628E+02  0.90952794465E+02 -0.18432940116E+02  0.20427645286E+03  0.17243120456E+03 0.  0.
         24    2    3    3    0    0  0.34420107754E+02  0.54415748129E+01  0.41603449613E+02  0.97025094054E+02  0.80428025602E+02 0.  0.
         -6    2    1    2    0  503 -0.58173574628E+02 -0.90952794465E+02  0.38579634902E+03  0.43598118517E+03  0.17200056771E+03 0.  0.
        -24    2    5    5    0    0 -0.78373274107E+02 -0.50316963630E+02  0.14168999573E+03  0.18764814200E+03  0.80384099079E+02 0.  0.
          2    1    4    4  501    0  0.38161820677E+02  0.38405529709E+02  0.21639995160E+02  0.58306077386E+02  0.00000000000E+00 0. -1.
         -1    1    4    4    0  501 -0.37417129223E+01 -0.32963954897E+02  0.19963454454E+02  0.38719016668E+02  0.00000000000E+00 0.  1.
          5    1    3    3  502    0  0.23753466874E+02  0.85511219652E+02 -0.60036389730E+02  0.10725135881E+03  0.47000000000E+01 0. -1.
         11    1    6    6    0    0 -0.65640056295E+02 -0.31694955149E+02  0.14734680331E+03  0.16439059467E+03  0.00000000000E+00 0. -1.
        -12    1    6    6    0    0 -0.12733217812E+02 -0.18622008481E+02 -0.56568075809E+01  0.23257547329E+02  0.00000000000E+00 0.  1.
         -5    1    5    5    0  503  0.20199699479E+02 -0.40635830835E+02  0.24410635330E+03  0.24833304316E+03  0.47000000000E+01 0.  1.
<mgrwt>
<rscale>  2 0.20335182E+03</rscale>
<asrwt>0</asrwt>
<pdfrwt beam="1">  1       21 0.77509310E-01 0.20344310E+03</pdfrwt>
<pdfrwt beam="2">  1       21 0.20991864E-01 0.20344310E+03</pdfrwt>
<totfact> 0.30953015E+04</totfact>
</mgrwt>
</event>
<event>
12    1  0.1441827E-001  0.2253854E+03  0.7546771E-02  0.1130529E+00
         21   -1    0    0  504  503  0.00000000000E+00  0.00000000000E+00  0.48788841150E+03  0.48788841150E+03  0.00000000000E+00 0.  1.
         21   -1    0    0  502  504 -0.00000000000E+00 -0.00000000000E+00 -0.10538506973E+03  0.10538506973E+03  0.00000000000E+00 0.  1.
          6    2    1    2  502    0  0.14266839557E+03  0.20530568681E+02  0.24078011857E+03  0.32980848453E+03  0.17327087356E+03 0.  0.
         24    2    3    3    0    0  0.80680325632E+02 -0.49707252980E+02  0.97266401935E+02  0.15836126446E+03  0.81470308666E+02 0.  0.
         -6    2    1    2    0  503 -0.14266839557E+03 -0.20530568681E+02  0.14172322321E+03  0.26346499670E+03  0.16897501929E+03 0.  0.
        -24    2    5    5    0    0 -0.14319746159E+03  0.25300170344E+02  0.75846764978E+02  0.18307510741E+03  0.81352022529E+02 0.  0.
          2    1    4    4  501    0  0.16105799463E+02 -0.55717386296E+02  0.60504958692E+02  0.83813327928E+02  0.00000000000E+00 0. -1.
         -1    1    4    4    0  501  0.64574526169E+02  0.60101333159E+01  0.36761443242E+02  0.74547936535E+02  0.00000000000E+00 0.  1.
          5    1    3    3  502    0  0.61988069941E+02  0.70237821661E+02  0.14351371663E+03  0.17144722007E+03  0.47000000000E+01 0. -1.
         11    1    6    6    0    0 -0.25818559303E+02  0.78446885556E+01 -0.17439204512E+02  0.32128849918E+02  0.00000000000E+00 0. -1.
        -12    1    6    6    0    0 -0.11737890229E+03  0.17455481789E+02  0.93285969490E+02  0.15094625749E+03  0.00000000000E+00 0.  1.
         -5    1    5    5    0  503  0.52906602163E+00 -0.45830739026E+02  0.65876458233E+02  0.80389889289E+02  0.47000000000E+01 0.  1.
<mgrwt>
<rscale>  2 0.22455947E+03</rscale>
<asrwt>0</asrwt>
<pdfrwt beam="1">  1       21 0.75059754E-01 0.22538538E+03</pdfrwt>
<pdfrwt beam="2">  1       21 0.16213088E-01 0.22538538E+03</pdfrwt>
<totfact> 0.53188666E+04</totfact>
</mgrwt>
</event>
<event>
12    1  0.1441827E-001  0.2156972E+03  0.7546771E-02  0.1137133E+00
         21   -1    0    0  504  503  0.00000000000E+00  0.00000000000E+00  0.22253274160E+03  0.22253274160E+03  0.00000000000E+00 0.  1.
         21   -1    0    0  502  504 -0.00000000000E+00 -0.00000000000E+00 -0.41328911839E+03  0.41328911839E+03  0.00000000000E+00 0.  1.
          6    2    1    2  502    0  0.34947438308E+02  0.12262622638E+03 -0.31885264538E+03  0.38495751136E+03  0.17397344983E+03 0.  0.
         24    2    3    3    0    0  0.44780995646E+02  0.54506614531E+02 -0.29126728609E+03  0.31066065802E+03  0.81835835062E+02 0.  0.
         -6    2    1    2    0  503 -0.34947438308E+02 -0.12262622638E+03  0.12809626859E+03  0.25086434864E+03  0.17397055081E+03 0.  0.
        -24    2    5    5    0    0 -0.52551577650E+02 -0.24283330811E+02  0.16712681181E+02  0.10116590384E+03  0.81264247483E+02 0.  0.
          4    1    4    4  501    0 -0.26004356465E+01  0.54417198990E+02 -0.20633307089E+03  0.21340414699E+03  0.00000000000E+00 0. -1.
         -3    1    4    4    0  501  0.47381431292E+02  0.89415541394E-01 -0.84934215201E+02  0.97256511032E+02  0.00000000000E+00 0.  1.
          5    1    3    3  502    0 -0.98335573382E+01  0.68119611849E+02 -0.27585359295E+02  0.74296853337E+02  0.47000000000E+01 0. -1.
         11    1    6    6    0    0 -0.15243319902E+02  0.29951667615E+02  0.96175565554E+01  0.34956524265E+02  0.00000000000E+00 0. -1.
        -12    1    6    6    0    0 -0.37308257747E+02 -0.54234998426E+02  0.70951246256E+01  0.66209379576E+02  0.00000000000E+00 0.  1.
         -5    1    5    5    0  503  0.17604139342E+02 -0.98342895569E+02  0.11138358741E+03  0.14969844480E+03  0.47000000000E+01 0.  1.
<mgrwt>
<rscale>  2 0.21569660E+03</rscale>
<asrwt>0</asrwt>
<pdfrwt beam="1">  1       21 0.34235807E-01 0.21569719E+03</pdfrwt>
<pdfrwt beam="2">  1       21 0.63582941E-01 0.21569719E+03</pdfrwt>
<totfact> 0.18539666E+04</totfact>
</mgrwt>
</event>
<event>
12    1  0.1441827E-001  0.2018924E+03  0.7546771E-02  0.1148654E+00
         21   -1    0    0  504  503  0.00000000000E+00  0.00000000000E+00  0.89242934553E+02  0.89242934553E+02  0.00000000000E+00 0. -1.
         21   -1    0    0  502  504 -0.00000000000E+00 -0.00000000000E+00 -0.59709434144E+03  0.59709434144E+03  0.00000000000E+00 0. -1.
          6    2    1    2  502    0  0.32883887615E+02  0.92664323355E+02 -0.42461507027E+03  0.47016859006E+03  0.17633070718E+03 0.  0.
         24    2    3    3    0    0 -0.96388509953E+01  0.96827484889E+02 -0.16733201917E+03  0.20931964221E+03  0.79663283246E+02 0.  0.
         -6    2    1    2    0  503 -0.32883887615E+02 -0.92664323355E+02 -0.83236336620E+02  0.21616868593E+03  0.17358740207E+03 0.  0.
        -24    2    5    5    0    0 -0.72158084143E+02 -0.13760467617E+02 -0.31397700800E+02  0.11380846355E+03  0.81058072905E+02 0.  0.
          2    1    4    4  501    0  0.20375453144E+02  0.93342513907E+02 -0.12724560927E+03  0.15912080025E+03  0.00000000000E+00 0. -1.
         -1    1    4    4    0  501 -0.30014304140E+02  0.34849709826E+01 -0.40086409906E+02  0.50198841968E+02  0.00000000000E+00 0.  1.
          5    1    3    3  502    0  0.42522738610E+02 -0.41631615339E+01 -0.25728305110E+03  0.26084894785E+03  0.47000000000E+01 0. -1.
         11    1    6    6    0    0 -0.22494429350E+02 -0.36733006117E+02  0.11150811131E+02  0.44493299260E+02  0.00000000000E+00 0. -1.
        -12    1    6    6    0    0 -0.49663654793E+02  0.22972538500E+02 -0.42548511931E+02  0.69315164287E+02  0.00000000000E+00 0.  1.
         -5    1    5    5    0  503  0.39274196529E+02 -0.78903855738E+02 -0.51838635820E+02  0.10236022239E+03  0.47000000000E+01 0.  1.
<mgrwt>
<rscale>  2 0.20129186E+03</rscale>
<asrwt>0</asrwt>
<pdfrwt beam="1">  1       21 0.13729682E-01 0.20189241E+03</pdfrwt>
<pdfrwt beam="2">  1       21 0.91860667E-01 0.20189241E+03</pdfrwt>
<totfact> 0.45927508E+04</totfact>
</mgrwt>
</event>
<event>
12    1  0.1441827E-001  0.2086201E+03  0.7546771E-02  0.1142869E+00
         21   -1    0    0  504  503  0.00000000000E+00  0.00000000000E+00  0.27743787471E+02  0.27743787471E+02  0.00000000000E+00 0. -1.
         21   -1    0    0  502  504 -0.00000000000E+00 -0.00000000000E+00 -0.15956787446E+04  0.15956787446E+04  0.00000000000E+00 0. -1.
          6    2    1    2  502    0 -0.10798721267E+03  0.45330256675E+02 -0.90173096521E+03  0.92531787964E+03  0.17140120915E+03 0.  0.
         24    2    3    3    0    0 -0.12632858205E+03  0.78066681782E+02 -0.69969031704E+03  0.71976838956E+03  0.80291203809E+02 0.  0.
         -6    2    1    2    0  503  0.10798721267E+03 -0.45330256675E+02 -0.66620399194E+03  0.69810465245E+03  0.17264494381E+03 0.  0.
        -24    2    5    5    0    0  0.10417027610E+03 -0.43638183556E+02 -0.28564521052E+03  0.31749394814E+03  0.80333575344E+02 0.  0.
          4    1    4    4  501    0 -0.13611920515E+03  0.61783039168E+02 -0.63408305419E+03  0.65146519596E+03  0.00000000000E+00 0. -1.
         -3    1    4    4    0  501  0.97906231011E+01  0.16283642615E+02 -0.65607262854E+02  0.68303193605E+02  0.00000000000E+00 0.  1.
          5    1    3    3  502    0  0.18341369375E+02 -0.32736425107E+02 -0.20204064817E+03  0.20554949008E+03  0.47000000000E+01 0. -1.
         13    1    6    6    0    0  0.48857269865E+02  0.32883228999E+01 -0.46272094721E+02  0.67371749540E+02  0.00000000000E+00 0. -1.
        -14    1    6    6    0    0  0.55313006234E+02 -0.46926506456E+02 -0.23937311580E+03  0.25012219860E+03  0.00000000000E+00 0.  1.
         -5    1    5    5    0  503  0.38169365744E+01 -0.16920731188E+01 -0.38055878142E+03  0.38061070431E+03  0.47000000000E+01 0.  1.
<mgrwt>
<rscale>  2 0.20836260E+03</rscale>
<asrwt>0</asrwt>
<pdfrwt beam="1">  1       21 0.42682755E-02 0.20862010E+03</pdfrwt>
<pdfrwt beam="2">  1       21 0.24548901E+00 0.20862010E+03</pdfrwt>
<totfact> 0.24516290E+04</totfact>
</mgrwt>
</event>
<event>
12    1  0.1441827E-001  0.1764451E+03  0.7546771E-02  0.1171295E+00
         21   -1    0    0  504  503  0.00000000000E+00  0.00000000000E+00  0.12669512910E+04  0.12669512910E+04  0.00000000000E+00 0.  1.
         21   -1    0    0  502  504 -0.00000000000E+00 -0.00000000000E+00 -0.26472354396E+02  0.26472354396E+02  0.00000000000E+00 0.  1.
          6    2    1    2  502    0  0.21022181951E+02 -0.24751264343E+02  0.44679783391E+03  0.48036611222E+03  0.17340340298E+03 0.  0.
         24    2    3    3    0    0 -0.23597261252E+02  0.30880552955E+02  0.14854778411E+03  0.17367249309E+03  0.81149561950E+02 0.  0.
         -6    2    1    2    0  503 -0.21022181951E+02  0.24751264343E+02  0.79368110274E+03  0.81305753322E+03  0.17343097260E+03 0.  0.
        -24    2    5    5    0    0  0.13167909159E+02  0.55850877323E+02  0.28599397458E+03  0.30324927676E+03  0.82914751570E+02 0.  0.
          2    1    4    4  501    0 -0.78420315608E+01  0.32719199151E+02  0.15343014598E+03  0.15707594707E+03  0.00000000000E+00 0. -1.
         -1    1    4    4    0  501 -0.15755229692E+02 -0.18386461960E+01 -0.48823618736E+01  0.16596546024E+02  0.00000000000E+00 0.  1.
          5    1    3    3  502    0  0.44619443204E+02 -0.55631817298E+02  0.29825004980E+03  0.30669361913E+03  0.47000000000E+01 0. -1.
         13    1    6    6    0    0  0.19112007012E+02 -0.16142295620E+02  0.43029694248E+02  0.49773457856E+02  0.00000000000E+00 0. -1.
        -14    1    6    6    0    0 -0.59440978536E+01  0.71993172943E+02  0.24296428034E+03  0.25347581890E+03  0.00000000000E+00 0.  1.
         -5    1    5    5    0  503 -0.34190091110E+02 -0.31099612980E+02  0.50768712816E+03  0.50980825646E+03  0.47000000000E+01 0.  1.
<mgrwt>
<rscale>  2 0.17643829E+03</rscale>
<asrwt>0</asrwt>
<pdfrwt beam="1">  1       21 0.19491554E+00 0.17644506E+03</pdfrwt>
<pdfrwt beam="2">  1       21 0.40726709E-02 0.17644506E+03</pdfrwt>
<totfact> 0.55635999E+04</totfact>
</mgrwt>
</event>
<event>
12    1  0.1441827E-001  0.2028277E+03  0.7546771E-02  0.1147440E+00
         21   -1    0    0  504  503  0.00000000000E+00  0.00000000000E+00  0.20914251616E+03  0.20914251616E+03  0.00000000000E+00 0.  1.
         21   -1    0    0  502  504 -0.00000000000E+00 -0.00000000000E+00 -0.20588172335E+03  0.20588172335E+03  0.00000000000E+00 0.  1.
          6    2    1    2  502    0 -0.60077239749E+02  0.88659905048E+02 -0.42904328675E+02  0.20731586424E+03  0.17224759112E+03 0.  0.
         24    2    3    3    0    0 -0.14944891911E+02  0.40597884932E+02  0.39496320131E+02  0.10168043683E+03  0.83110852935E+02 0.  0.
         -6    2    1    2    0  503  0.60077239749E+02 -0.88659905048E+02  0.46165121487E+02  0.20770837527E+03  0.17187698280E+03 0.  0.
        -24    2    5    5    0    0  0.90163116890E+02 -0.10625678128E+03  0.44297523966E+02  0.17248923308E+03  0.91489746322E+02 0.  0.
          2    1    4    4  501    0  0.16201384468E+02  0.54935202779E+02  0.34941453065E+02  0.67091478634E+02  0.00000000000E+00 0. -1.
         -1    1    4    4    0  501 -0.31146276379E+02 -0.14337317847E+02  0.45548670656E+01  0.34588958199E+02  0.00000000000E+00 0.  1.
          5    1    3    3  502    0 -0.45132347838E+02  0.48062020116E+02 -0.82400648806E+02  0.10563542740E+03  0.47000000000E+01 0. -1.
         13    1    6    6    0    0 -0.10789066227E+01 -0.67403044077E+02  0.21174703990E+02  0.70659058014E+02  0.00000000000E+00 0. -1.
        -14    1    6    6    0    0  0.91242023513E+02 -0.38853737204E+02  0.23122819976E+02  0.10183017506E+03  0.00000000000E+00 0.  1.
         -5    1    5    5    0  503 -0.30085877141E+02  0.17596876233E+02  0.18675975213E+01  0.35219142196E+02  0.47000000000E+01 0.  1.
<mgrwt>
<rscale>  2 0.20274902E+03</rscale>
<asrwt>0</asrwt>
<pdfrwt beam="1">  1       21 0.32175772E-01 0.20282773E+03</pdfrwt>
<pdfrwt beam="2">  1       21 0.31674111E-01 0.20282773E+03</pdfrwt>
<totfact> 0.88664421E+04</totfact>
</mgrwt>
</event>
<event>
12    1  0.1441827E-001  0.1942464E+03  0.7546771E-02  0.1154807E+00
         21   -1    0    0  504  503  0.00000000000E+00  0.00000000000E+00  0.19155182651E+03  0.19155182651E+03  0.00000000000E+00 0. -1.
         21   -1    0    0  502  504 -0.00000000000E+00 -0.00000000000E+00 -0.20225833323E+03  0.20225833323E+03  0.00000000000E+00 0. -1.
          6    2    1    2  502    0 -0.75877765739E+02  0.45740375917E+02 -0.38806822663E+02  0.19808494265E+03  0.17286427536E+03 0.  0.
         24    2    3    3    0    0 -0.47706488886E+02 -0.22717526974E+02 -0.74354446269E+02  0.11583028411E+03  0.71386804965E+02 0.  0.
         -6    2    1    2    0  503  0.75877765739E+02 -0.45740375917E+02  0.28100315950E+02  0.19572521709E+03  0.17224725114E+03 0.  0.
        -24    2    5    5    0    0  0.12387443327E+02  0.12862861113E+02  0.66913129630E+02  0.10088912198E+03  0.73364474155E+02 0.  0.
          2    1    4    4  501    0 -0.47869104116E+02 -0.28348556620E+02 -0.86268472913E+02  0.10265155240E+03  0.00000000000E+00 0. -1.
         -1    1    4    4    0  501  0.16261522934E+00  0.56310296460E+01  0.11914026644E+02  0.13178731709E+02  0.00000000000E+00 0.  1.
          5    1    3    3  502    0 -0.28171276853E+02  0.68457902891E+02  0.35547623606E+02  0.82254658541E+02  0.47000000000E+01 0. -1.
         13    1    6    6    0    0  0.20308211076E+02 -0.24602501742E+02  0.49342331170E+02  0.58756890441E+02  0.00000000000E+00 0. -1.
        -14    1    6    6    0    0 -0.79207677491E+01  0.37465362855E+02  0.17570798461E+02  0.42132231535E+02  0.00000000000E+00 0.  1.
         -5    1    5    5    0  503  0.63490322412E+02 -0.58603237030E+02 -0.38812813680E+02  0.94836095113E+02  0.47000000000E+01 0.  1.
<mgrwt>
<rscale>  2 0.19410906E+03</rscale>
<asrwt>0</asrwt>
<pdfrwt beam="1">  1       21 0.29469512E-01 0.19424643E+03</pdfrwt>
<pdfrwt beam="2">  1       21 0.31116666E-01 0.19424643E+03</pdfrwt>
<totfact> 0.10940783E+05</totfact>
</mgrwt>
</event>
<event>
12    1  0.1441827E-001  0.1845481E+03  0.7546771E-02  0.1163474E+00
         21   -1    0    0  504  503  0.00000000000E+00  0.00000000000E+00  0.28666771654E+03  0.28666771654E+03  0.00000000000E+00 0.  1.
         21   -1    0    0  502  504 -0.00000000000E+00 -0.00000000000E+00 -0.38043934730E+03  0.38043934730E+03  0.00000000000E+00 0.  1.
          6    2    1    2  502    0  0.29038370958E+02  0.57406418545E+02 -0.32349855968E+03  0.37243360697E+03  0.17296459061E+03 0.  0.
         24    2    3    3    0    0  0.46026025256E+02  0.94084306178E+02 -0.18224014327E+03  0.22543062044E+03  0.81469277310E+02 0.  0.
         -6    2    1    2    0  503 -0.29038370958E+02 -0.57406418545E+02  0.22972692891E+03  0.29467345687E+03  0.17297184869E+03 0.  0.
        -24    2    5    5    0    0 -0.43654453932E+02  0.14500022303E+02  0.18843251420E+03  0.21034383691E+03  0.81374168645E+02 0.  0.
          2    1    4    4  501    0  0.32271696427E+02  0.85229242119E+02 -0.78122849582E+02  0.12003610177E+03  0.00000000000E+00 0. -1.
         -1    1    4    4    0  501  0.13754328829E+02  0.88550640591E+01 -0.10411729369E+03  0.10539451867E+03  0.00000000000E+00 0.  1.
          5    1    3    3  502    0 -0.16987654298E+02 -0.36677887633E+02 -0.14125841641E+03  0.14700298652E+03  0.47000000000E+01 0. -1.
         13    1    6    6    0    0 -0.54846540299E+02 -0.19031123061E+02  0.11309229202E+03  0.12712274832E+03  0.00000000000E+00 0. -1.
        -14    1    6    6    0    0  0.11192086367E+02  0.33531145363E+02  0.75340222182E+02  0.83221088584E+02  0.00000000000E+00 0.  1.
         -5    1    5    5    0  503  0.14616082974E+02 -0.71906440848E+02  0.41294414713E+02  0.84329619964E+02  0.47000000000E+01 0.  1.
<mgrwt>
<rscale>  2 0.18454635E+03</rscale>
<asrwt>0</asrwt>
<pdfrwt beam="1">  1       21 0.44102725E-01 0.18454805E+03</pdfrwt>
<pdfrwt beam="2">  1       21 0.58529131E-01 0.18454805E+03</pdfrwt>
<totfact> 0.13566427E+04</totfact>
</mgrwt>
</event>
<event>
12    1  0.1441827E-001  0.2107438E+03  0.7546771E-02  0.1141001E+00
         21   -1    0    0  504  503  0.00000000000E+00  0.00000000000E+00  0.57763952635E+02  0.57763952635E+02  0.00000000000E+00 0. -1.
         21   -1    0    0  502  504 -0.00000000000E+00 -0.00000000000E+00 -0.10359010558E+04  0.10359010558E+04  0.00000000000E+00 0. -1.
          6    2    1    2  502    0  0.35728677333E+02 -0.11505804827E+03 -0.76682291932E+03  0.79522470658E+03  0.17277167448E+03 0.  0.
         24    2    3    3    0    0 -0.34223319587E+02 -0.92094257488E+02 -0.59418268049E+03  0.60748190479E+03  0.79552617730E+02 0.  0.
         -6    2    1    2    0  503 -0.35728677333E+02  0.11505804827E+03 -0.21131418380E+03  0.29844030181E+03  0.17291048729E+03 0.  0.
        -24    2    5    5    0    0  0.41954804966E+02  0.87402936638E+02 -0.11265043490E+03  0.16976958265E+03  0.82049446789E+02 0.  0.
          4    1    4    4  501    0 -0.31698154005E+02 -0.65211966870E+02 -0.20649464288E+03  0.21885477177E+03  0.00000000000E+00 0. -1.
         -3    1    4    4    0  501 -0.25251655821E+01 -0.26882290618E+02 -0.38768803761E+03  0.38862713302E+03  0.00000000000E+00 0.  1.
          5    1    3    3  502    0  0.69951996921E+02 -0.22963790781E+02 -0.17264023883E+03  0.18774280179E+03  0.47000000000E+01 0. -1.
         13    1    6    6    0    0 -0.15416735937E+02  0.55780200772E+02 -0.73145287972E+02  0.93270250872E+02  0.00000000000E+00 0. -1.
        -14    1    6    6    0    0  0.57371540903E+02  0.31622735865E+02 -0.39505146925E+02  0.76499331779E+02  0.00000000000E+00 0.  1.
         -5    1    5    5    0  503 -0.77683482299E+02  0.27655111632E+02 -0.98663748908E+02  0.12867071916E+03  0.47000000000E+01 0.  1.
<mgrwt>
<rscale>  2 0.21071528E+03</rscale>
<asrwt>0</asrwt>
<pdfrwt beam="1">  1       21 0.88867625E-02 0.21074375E+03</pdfrwt>
<pdfrwt beam="2">  1       21 0.15936938E+00 0.21074375E+03</pdfrwt>
<totfact> 0.25109192E+04</totfact>
</mgrwt>
</event>
<event>
12    1  0.1441827E-001  0.3215219E+03  0.7546771E-02  0.1074987E+00
         21   -1    0    0  504  503  0.00000000000E+00  0.00000000000E+00  0.52845581854E+03  0.52845581854E+03  0.00000000000E+00 0.  1.
         21   -1    0    0  502  504 -0.00000000000E+00 -0.00000000000E+00 -0.30791263998E+03  0.30791263998E+03  0.00000000000E+00 0. -1.
          6    2    1    2  502    0  0.19608678636E+03  0.18768929785E+03  0.36299449874E+03  0.48470287748E+03  0.17173984105E+03 0.  0.
         24    2    3    3    0    0  0.91460896194E+02  0.37105448109E+02  0.21949451941E+03  0.25181576584E+03  0.74104156870E+02 0.  0.
         -6    2    1    2    0  503 -0.19608678636E+03 -0.18768929785E+03 -0.14245132018E+03  0.35166558104E+03  0.17233398375E+03 0.  0.
        -24    2    5    5    0    0 -0.77303163331E+02 -0.87156741235E+02 -0.13654821497E+03  0.19586673415E+03  0.78398252104E+02 0.  0.
          2    1    4    4  501    0  0.10122314207E+03  0.20135066018E+02  0.17431239617E+03  0.20257432422E+03  0.00000000000E+00 0. -1.
         -1    1    4    4    0  501 -0.97622458786E+01  0.16970382091E+02  0.45182123238E+02  0.49241441624E+02  0.00000000000E+00 0.  1.
          5    1    3    3  502    0  0.10462589017E+03  0.15058384974E+03  0.14349997934E+03  0.23288711164E+03  0.47000000000E+01 0. -1.
         11    1    6    6    0    0  0.12754961840E+02 -0.29834855930E+02 -0.21522128747E+02  0.38935969305E+02  0.00000000000E+00 0. -1.
        -12    1    6    6    0    0 -0.90058125172E+02 -0.57321885305E+02 -0.11502608622E+03  0.15693076485E+03  0.00000000000E+00 0.  1.
         -5    1    5    5    0  503 -0.11878362303E+03 -0.10053255662E+03 -0.59031052088E+01  0.15579884689E+03  0.47000000000E+01 0.  1.
<mgrwt>
<rscale>  2 0.32144231E+03</rscale>
<asrwt>0</asrwt>
<pdfrwt beam="1">  1       21 0.81300895E-01 0.32152185E+03</pdfrwt>
<pdfrwt beam="2">  1       21 0.47371175E-01 0.32152185E+03</pdfrwt>
<totfact> 0.52278837E+03</totfact>
</mgrwt>
</event>
<event>
12    1  0.1441827E-001  0.1917969E+03  0.7546771E-02  0.1157169E+00
         21   -1    0    0  504  503  0.00000000000E+00  0.00000000000E+00  0.49857279677E+03  0.49857279677E+03  0.00000000000E+00 0. -1.
         21   -1    0    0  502  504 -0.00000000000E+00 -0.00000000000E+00 -0.31107390969E+03  0.31107390969E+03  0.00000000000E+00 0. -1.
          6    2    1    2  502    0  0.46503832537E+02  0.65383011864E+02 -0.26030869011E+03  0.32249408070E+03  0.17263914174E+03 0.  0.
         24    2    3    3    0    0  0.89020746160E+02  0.54047498600E+02 -0.12964309281E+03  0.18453839897E+03  0.80007898538E+02 0.  0.
         -6    2    1    2    0  503 -0.46503832537E+02 -0.65383011864E+02  0.44780757719E+03  0.48715262576E+03  0.17420823722E+03 0.  0.
        -24    2    5    5    0    0 -0.88511677368E+02 -0.75382213788E+02  0.39117159863E+03  0.41577779032E+03  0.79618817889E+02 0.  0.
          4    1    4    4  501    0  0.19969970149E+02 -0.19614317864E+02 -0.14941608047E+02  0.31729683643E+02  0.00000000000E+00 0. -1.
         -3    1    4    4    0  501  0.69050776011E+02  0.73661816464E+02 -0.11470148476E+03  0.15280871532E+03  0.00000000000E+00 0.  1.
          5    1    3    3  502    0 -0.42516913623E+02  0.11335513264E+02 -0.13066559730E+03  0.13795568173E+03  0.47000000000E+01 0. -1.
         11    1    6    6    0    0 -0.18492003741E+02 -0.66772725729E+02  0.21951520756E+03  0.23019008982E+03  0.00000000000E+00 0. -1.
        -12    1    6    6    0    0 -0.70019673628E+02 -0.86094880587E+01  0.17165639108E+03  0.18558770050E+03  0.00000000000E+00 0.  1.
         -5    1    5    5    0  503  0.42007844831E+02  0.99992019243E+01  0.56635978559E+02  0.71374835438E+02  0.47000000000E+01 0.  1.
<mgrwt>
<rscale>  2 0.19143990E+03</rscale>
<asrwt>0</asrwt>
<pdfrwt beam="1">  1       21 0.76703507E-01 0.19179691E+03</pdfrwt>
<pdfrwt beam="2">  1       21 0.47857525E-01 0.19179691E+03</pdfrwt>
<totfact> 0.63147681E+03</totfact>
</mgrwt>
</event>
<event>
12    1  0.1441827E-001  0.2001103E+03  0.7546771E-02  0.1150212E+00
         21   -1    0    0  504  503  0.00000000000E+00  0.00000000000E+00  0.15972609287E+03  0.15972609287E+03  0.00000000000E+00 0. -1.
         21   -1    0    0  502  504 -0.00000000000E+00 -0.00000000000E+00 -0.50314624568E+03  0.50314624568E+03  0.00000000000E+00 0. -1.
          6    2    1    2  502    0 -0.86041497993E+02  0.40168296705E+02 -0.40858058730E+03  0.45495300683E+03  0.17614627635E+03 0.  0.
         24    2    3    3    0    0 -0.12509453676E+03  0.48375335642E+02 -0.35782420158E+03  0.39021664907E+03  0.79006694354E+02 0.  0.
         -6    2    1    2    0  503  0.86041497993E+02 -0.40168296705E+02  0.65160434486E+02  0.20791933172E+03  0.17311249188E+03 0.  0.
        -24    2    5    5    0    0  0.40749730548E+02  0.88285453077E+01 -0.19691413711E+02  0.99873226434E+02  0.88591341746E+02 0.  0.
          2    1    4    4  501    0 -0.10890041307E+03  0.52593239938E+02 -0.35248048688E+03  0.37264975847E+03  0.00000000000E+00 0. -1.
         -1    1    4    4    0  501 -0.16194123688E+02 -0.42179042959E+01 -0.53437146944E+01  0.17566890602E+02  0.00000000000E+00 0.  1.
          5    1    3    3  502    0  0.39053038764E+02 -0.82070389376E+01 -0.50756385720E+02  0.64736357761E+02  0.47000000000E+01 0. -1.
         11    1    6    6    0    0  0.28857038833E+02 -0.23123531477E+02  0.24276591525E+02  0.44235498124E+02  0.00000000000E+00 0. -1.
        -12    1    6    6    0    0  0.11892691714E+02  0.31952076785E+02 -0.43968005235E+02  0.55637728310E+02  0.00000000000E+00 0.  1.
         -5    1    5    5    0  503  0.45291767445E+02 -0.48996842012E+02  0.84851848197E+02  0.10804610529E+03  0.47000000000E+01 0.  1.
<mgrwt>
<rscale>  2 0.19944066E+03</rscale>
<asrwt>0</asrwt>
<pdfrwt beam="1">  1       21 0.24573245E-01 0.20011032E+03</pdfrwt>
<pdfrwt beam="2">  1       21 0.77407114E-01 0.20011032E+03</pdfrwt>
<totfact> 0.23084410E+04</totfact>
</mgrwt>
</event>
<event>
12    1  0.1441827E-001  0.2950359E+03  0.7546771E-02  0.1087775E+00
         21   -1    0    0  504  503  0.00000000000E+00  0.00000000000E+00  0.78271498642E+02  0.78271498642E+02  0.00000000000E+00 0.  1.
         21   -1    0    0  502  504 -0.00000000000E+00 -0.00000000000E+00 -0.11926587329E+04  0.11926587329E+04  0.00000000000E+00 0. -1.
          6    2    1    2  502    0  0.10982267156E+03  0.21191176614E+03 -0.39108449848E+03  0.48976887941E+03  0.17308626309E+03 0.  0.
         24    2    3    3    0    0  0.28887184599E+02  0.21554789141E+02 -0.18970367974E+03  0.20104296111E+03  0.55961663098E+02 0.  0.
         -6    2    1    2    0  503 -0.10982267156E+03 -0.21191176614E+03 -0.72330273580E+03  0.78116135215E+03  0.17343181560E+03 0.  0.
        -24    2    5    5    0    0 -0.11564162218E+03 -0.19613346948E+03 -0.48343693286E+03  0.54066081525E+03  0.82228501502E+02 0.  0.
          2    1    4    4  501    0 -0.93427466254E+01 -0.53600244203E+01 -0.93089831928E+02  0.93710904299E+02  0.00000000000E+00 0. -1.
         -1    1    4    4    0  501  0.38229931224E+02  0.26914813561E+02 -0.96613847811E+02  0.10733205681E+03  0.00000000000E+00 0.  1.
          5    1    3    3  502    0  0.80935486962E+02  0.19035697700E+03 -0.20138081874E+03  0.28872591830E+03  0.47000000000E+01 0. -1.
         13    1    6    6    0    0 -0.40885284382E+01 -0.74025721778E+02 -0.18780917250E+03  0.20191287434E+03  0.00000000000E+00 0. -1.
        -14    1    6    6    0    0 -0.11155309374E+03 -0.12210774770E+03 -0.29562776036E+03  0.33874794090E+03  0.00000000000E+00 0.  1.
         -5    1    5    5    0  503  0.58189506170E+01 -0.15778296661E+02 -0.23986580294E+03  0.24050053690E+03  0.47000000000E+01 0.  1.
<mgrwt>
<rscale>  2 0.29498519E+03</rscale>
<asrwt>0</asrwt>
<pdfrwt beam="1">  1       21 0.12041770E-01 0.29503595E+03</pdfrwt>
<pdfrwt beam="2">  1       21 0.18348595E+00 0.29503595E+03</pdfrwt>
<totfact> 0.93831520E+03</totfact>
</mgrwt>
</event>
<event>
12    1  0.1441827E-001  0.1904636E+03  0.7546771E-02  0.1158339E+00
         21   -1    0    0  504  503  0.00000000000E+00  0.00000000000E+00  0.48900616025E+03  0.48900616025E+03  0.00000000000E+00 0. -1.
         21   -1    0    0  502  504 -0.00000000000E+00 -0.00000000000E+00 -0.77298945166E+02  0.77298945166E+02  0.00000000000E+00 0.  1.
          6    2    1    2  502    0 -0.74408186002E+02 -0.18484545237E+02  0.14522747171E+03  0.23951490491E+03  0.17435055084E+03 0.  0.
         24    2    3    3    0    0 -0.88679314871E+02  0.27420769784E+02  0.14744204601E+03  0.19116247575E+03  0.78663941549E+02 0.  0.
         -6    2    1    2    0  503  0.74408186002E+02  0.18484545237E+02  0.26647974337E+03  0.32679020050E+03  0.17292230903E+03 0.  0.
        -24    2    5    5    0    0  0.81234626599E+02 -0.36505014631E+02  0.11273341629E+03  0.16329562849E+03  0.77620606060E+02 0.  0.
          2    1    4    4  501    0 -0.46769974240E+02  0.25197461124E+01  0.13194185911E+03  0.14000869186E+03  0.00000000000E+00 0. -1.
         -1    1    4    4    0  501 -0.41909340631E+02  0.24901023671E+02  0.15500186903E+02  0.51153783888E+02  0.00000000000E+00 0.  1.
          5    1    3    3  502    0  0.14271128869E+02 -0.45905315020E+02 -0.22145743044E+01  0.48352429160E+02  0.47000000000E+01 0. -1.
         11    1    6    6    0    0  0.35051752247E+02 -0.54699620119E+01  0.10015114497E+03  0.10624875368E+03  0.00000000000E+00 0. -1.
        -12    1    6    6    0    0  0.46182874352E+02 -0.31035052619E+02  0.12582271321E+02  0.57046874814E+02  0.00000000000E+00 0.  1.
         -5    1    5    5    0  503 -0.68264405966E+01  0.54989559867E+02  0.15374632708E+03  0.16349457201E+03  0.47000000000E+01 0.  1.
<mgrwt>
<rscale>  2 0.19013609E+03</rscale>
<asrwt>0</asrwt>
<pdfrwt beam="1">  1       21 0.75231715E-01 0.19046357E+03</pdfrwt>
<pdfrwt beam="2">  1       21 0.11892146E-01 0.19046357E+03</pdfrwt>
<totfact> 0.94252289E+04</totfact>
</mgrwt>
</event>
<event>
12    1  0.1441827E-001  0.3897858E+03  0.7546771E-02  0.1047477E+00
         21   -1    0    0  504  503  0.00000000000E+00  0.00000000000E+00  0.83611084894E+03  0.83611084894E+03  0.00000000000E+00 0. -1.
         21   -1    0    0  502  504 -0.00000000000E+00 -0.00000000000E+00 -0.20306481168E+03  0.20306481168E+03  0.00000000000E+00 0.  1.
          6    2    1    2  502    0  0.27464875833E+03  0.21510524174E+03  0.14638339208E+03  0.41636652169E+03  0.17387000153E+03 0.  0.
         24    2    3    3    0    0  0.55200036867E+02  0.10368389948E+03  0.69884948432E+02  0.15859422150E+03  0.80441444520E+02 0.  0.
         -6    2    1    2    0  503 -0.27464875833E+03 -0.21510524174E+03  0.48666264517E+03  0.62280913893E+03  0.17131400366E+03 0.  0.
        -24    2    5    5    0    0 -0.19592973872E+03 -0.79413492895E+02  0.23221074433E+03  0.32384961893E+03  0.79131413048E+02 0.  0.
          2    1    4    4  501    0  0.10265758415E+02  0.41766702809E+02  0.69921353079E+02  0.82090431085E+02  0.00000000000E+00 0. -1.
         -1    1    4    4    0  501  0.44934278452E+02  0.61917196668E+02 -0.36404646667E-01  0.76503790419E+02  0.00000000000E+00 0.  1.
          5    1    3    3  502    0  0.21944872146E+03  0.11142134227E+03  0.76498443650E+02  0.25777230019E+03  0.47000000000E+01 0. -1.
         11    1    6    6    0    0 -0.11054729518E+03 -0.30447329556E+02  0.17728558749E+03  0.21113484762E+03  0.00000000000E+00 0. -1.
        -12    1    6    6    0    0 -0.85382443544E+02 -0.48966163339E+02  0.54925156838E+02  0.11271477131E+03  0.00000000000E+00 0.  1.
         -5    1    5    5    0  503 -0.78719019605E+02 -0.13569174885E+03  0.25445190084E+03  0.29895952000E+03  0.47000000000E+01 0.  1.
<mgrwt>
<rscale>  2 0.38950215E+03</rscale>
<asrwt>0</asrwt>
<pdfrwt beam="1">  1       21 0.12863244E+00 0.38978582E+03</pdfrwt>
<pdfrwt beam="2">  1       21 0.31240741E-01 0.38978582E+03</pdfrwt>
<totfact> 0.38921712E+03</totfact>
</mgrwt>
</event>
<event>
12    1  0.1441827E-001  0.1874975E+03  0.7546771E-02  0.1160919E+00
         21   -1    0    0  504  503  0.00000000000E+00  0.00000000000E+00  0.22178017963E+02  0.22178017963E+02  0.00000000000E+00 0. -1.
         21   -1    0    0  502  504 -0.00000000000E+00 -0.00000000000E+00 -0.16619901719E+04  0.16619901719E+04  0.00000000000E+00 0. -1.
          6    2    1    2  502    0  0.37288223326E+02  0.60189266926E+02 -0.10070140039E+04  0.10241766765E+04  0.17276429379E+03 0.  0.
         24    2    3    3    0    0 -0.41240649547E+02  0.60144651645E+02 -0.52994931856E+03  0.54066908623E+03  0.78476813531E+02 0.  0.
         -6    2    1    2    0  503 -0.37288223326E+02 -0.60189266926E+02 -0.63279815004E+03  0.65999151336E+03  0.17361491743E+03 0.  0.
        -24    2    5    5    0    0 -0.79755182512E+02 -0.65290894374E+02 -0.33202297632E+03  0.35615395091E+03  0.77347203697E+02 0.  0.
          4    1    4    4  501    0 -0.44333135606E+02  0.68143054711E+02 -0.52391166634E+03  0.53018141890E+03  0.00000000000E+00 0. -1.
         -3    1    4    4    0  501  0.30924860590E+01 -0.79984030664E+01 -0.60376522187E+01  0.10487667326E+02  0.00000000000E+00 0.  1.
          5    1    3    3  502    0  0.78528872873E+02  0.44615281776E-01 -0.47706468531E+03  0.48350759025E+03  0.47000000000E+01 0. -1.
         11    1    6    6    0    0 -0.47666596109E+02  0.75472065548E+01 -0.10435649193E+03  0.11497539788E+03  0.00000000000E+00 0. -1.
        -12    1    6    6    0    0 -0.32088586403E+02 -0.72838100929E+02 -0.22766648439E+03  0.24117855303E+03  0.00000000000E+00 0.  1.
         -5    1    5    5    0  503  0.42466959186E+02  0.51016274474E+01 -0.30077517372E+03  0.30383756245E+03  0.47000000000E+01 0.  1.
<mgrwt>
<rscale>  2 0.18730031E+03</rscale>
<asrwt>0</asrwt>
<pdfrwt beam="1">  1       21 0.34120023E-02 0.18749746E+03</pdfrwt>
<pdfrwt beam="2">  1       21 0.25569083E+00 0.18749746E+03</pdfrwt>
<totfact> 0.31604462E+04</totfact>
</mgrwt>
</event>
<event>
12    1  0.1441827E-001  0.2415481E+03  0.7546771E-02  0.1119555E+00
         21   -1    0    0  504  503  0.00000000000E+00  0.00000000000E+00  0.71726519211E+03  0.71726519211E+03  0.00000000000E+00 0. -1.
         21   -1    0    0  502  504 -0.00000000000E+00 -0.00000000000E+00 -0.80239956704E+02  0.80239956704E+02  0.00000000000E+00 0.  1.
          6    2    1    2  502    0 -0.47492511845E+02  0.15400597939E+03  0.29082093907E+03  0.37805063730E+03  0.17992244272E+03 0.  0.
         24    2    3    3    0    0  0.45442232632E+02  0.67782120094E+02  0.13483146618E+03  0.17698789512E+03  0.80534330784E+02 0.  0.
         -6    2    1    2    0  503  0.47492511845E+02 -0.15400597939E+03  0.34620429634E+03  0.41945451151E+03  0.17352605584E+03 0.  0.
        -24    2    5    5    0    0 -0.32466078729E+02 -0.12181666599E+03  0.22787109578E+03  0.27298142710E+03  0.81855218934E+02 0.  0.
          2    1    4    4  501    0  0.17191856724E+02  0.71151063438E+02  0.12843128706E+03  0.14782634833E+03  0.00000000000E+00 0. -1.
         -1    1    4    4    0  501  0.28250375907E+02 -0.33689433442E+01  0.64001791248E+01  0.29161546787E+02  0.00000000000E+00 0.  1.
          5    1    3    3  502    0 -0.92934744477E+02  0.86223859297E+02  0.15598947289E+03  0.20106274218E+03  0.47000000000E+01 0. -1.
         11    1    6    6    0    0 -0.37473327631E+02 -0.20311175758E+02  0.10629543711E+03  0.11452298500E+03  0.00000000000E+00 0. -1.
        -12    1    6    6    0    0  0.50072489013E+01 -0.10150549023E+03  0.12157565868E+03  0.15845844210E+03  0.00000000000E+00 0.  1.
         -5    1    5    5    0  503  0.79958590574E+02 -0.32189313401E+02  0.11833320055E+03  0.14647308441E+03  0.47000000000E+01 0.  1.
<mgrwt>
<rscale>  2 0.24035778E+03</rscale>
<asrwt>0</asrwt>
<pdfrwt beam="1">  1       21 0.11034849E+00 0.24154806E+03</pdfrwt>
<pdfrwt beam="2">  1       21 0.12344609E-01 0.24154806E+03</pdfrwt>
<totfact> 0.35242159E+04</totfact>
</mgrwt>
</event>
<event>
12    1  0.1441827E-001  0.1825762E+03  0.7546771E-02  0.1165500E+00
         21   -1    0    0  504  503  0.00000000000E+00  0.00000000000E+00  0.11891937318E+04  0.11891937318E+04  0.00000000000E+00 0. -1.
         21   -1    0    0  502  504 -0.00000000000E+00 -0.00000000000E+00 -0.33125059298E+02  0.33125059298E+02  0.00000000000E+00 0. -1.
          6    2    1    2  502    0  0.12206015200E+02 -0.57339873488E+02  0.33490827538E+03  0.38110629484E+03  0.17216738120E+03 0.  0.
         24    2    3    3    0    0  0.33118334992E+02 -0.24113265640E+02  0.32937029151E+03  0.34118021498E+03  0.78999218148E+02 0.  0.
         -6    2    1    2    0  503 -0.12206015200E+02  0.57339873488E+02  0.82116039710E+03  0.84121249623E+03  0.17290812057E+03 0.  0.
        -24    2    5    5    0    0  0.32784261790E+02  0.91266282528E+02  0.60497371436E+03  0.61775355582E+03  0.78879138711E+02 0.  0.
          4    1    4    4  501    0  0.28821192056E+02 -0.12900394957E+02  0.37333022648E+02  0.48896174509E+02  0.00000000000E+00 0. -1.
         -3    1    4    4    0  501  0.42971429363E+01 -0.11212870684E+02  0.29203726887E+03  0.29228404047E+03  0.00000000000E+00 0.  1.
          5    1    3    3  502    0 -0.20912319792E+02 -0.33226607848E+02  0.55379838700E+01  0.39926079867E+02  0.47000000000E+01 0. -1.
         11    1    6    6    0    0  0.15078533149E+02  0.11874727199E+02  0.34080753576E+03  0.34134754685E+03  0.00000000000E+00 0. -1.
        -12    1    6    6    0    0  0.17705728641E+02  0.79391555329E+02  0.26416617859E+03  0.27640600897E+03  0.00000000000E+00 0.  1.
         -5    1    5    5    0  503 -0.44990276990E+02 -0.33926409040E+02  0.21618668274E+03  0.22345894041E+03  0.47000000000E+01 0.  1.
<mgrwt>
<rscale>  2 0.18240060E+03</rscale>
<asrwt>0</asrwt>
<pdfrwt beam="1">  1       21 0.18295285E+00 0.18257619E+03</pdfrwt>
<pdfrwt beam="2">  1       21 0.50961639E-02 0.18257619E+03</pdfrwt>
<totfact> 0.45545773E+04</totfact>
</mgrwt>
</event>
<event>
12    1  0.1441827E-001  0.1971655E+03  0.7546771E-02  0.1152266E+00
         21   -1    0    0  504  503  0.00000000000E+00  0.00000000000E+00  0.17142948189E+03  0.17142948189E+03  0.00000000000E+00 0.  1.
         21   -1    0    0  502  504 -0.00000000000E+00 -0.00000000000E+00 -0.23338246359E+03  0.23338246359E+03  0.00000000000E+00 0.  1.
          6    2    1    2  502    0 -0.20372260710E+01  0.92974045506E+02 -0.66539855995E+02  0.20759308465E+03  0.17325995766E+03 0.  0.
         24    2    3    3    0    0  0.44354518129E+02  0.11793531800E+02 -0.66234889320E+02  0.11397336055E+03  0.80600593551E+02 0.  0.
         -6    2    1    2    0  503  0.20372260710E+01 -0.92974045506E+02  0.45868742917E+01  0.19721886083E+03  0.17385602153E+03 0.  0.
        -24    2    5    5    0    0  0.35549146463E+02  0.46607181951E+01  0.23161602182E+02  0.92229783267E+02  0.81758235044E+02 0.  0.
          4    1    4    4  501    0  0.39768617409E+01 -0.31392678165E+02 -0.12312947360E+02  0.33954739645E+02  0.00000000000E+00 0. -1.
         -3    1    4    4    0  501  0.40377656388E+02  0.43186209965E+02 -0.53921941960E+02  0.80018620904E+02  0.00000000000E+00 0.  1.
          5    1    3    3  502    0 -0.46391744200E+02  0.81180513706E+02 -0.30496667505E+00  0.93619724098E+02  0.47000000000E+01 0. -1.
         11    1    6    6    0    0  0.90033578135E+01 -0.33982786531E+02 -0.78466252774E+01  0.36020268746E+02  0.00000000000E+00 0. -1.
        -12    1    6    6    0    0  0.26545788649E+02  0.38643504726E+02  0.31008227460E+02  0.56209514521E+02  0.00000000000E+00 0.  1.
         -5    1    5    5    0  503 -0.33511920392E+02 -0.97634763701E+02 -0.18574727891E+02  0.10498907756E+03  0.47000000000E+01 0.  1.
<mgrwt>
<rscale>  2 0.19703403E+03</rscale>
<asrwt>0</asrwt>
<pdfrwt beam="1">  1       21 0.26373766E-01 0.19716551E+03</pdfrwt>
<pdfrwt beam="2">  1       21 0.35904995E-01 0.19716551E+03</pdfrwt>
<totfact> 0.10208670E+05</totfact>
</mgrwt>
</event>
<event>
12    1  0.1441827E-001  0.2182475E+03  0.7546771E-02  0.1135820E+00
         21   -1    0    0  504  503  0.00000000000E+00  0.00000000000E+00  0.92991623374E+03  0.92991623374E+03  0.00000000000E+00 0. -1.
         21   -1    0    0  502  504 -0.00000000000E+00 -0.00000000000E+00 -0.10575993524E+03  0.10575993524E+03  0.00000000000E+00 0. -1.
          6    2    1    2  502    0  0.79557967803E+02 -0.10587454237E+03  0.39101117177E+02  0.22172252133E+03  0.17347360069E+03 0.  0.
         24    2    3    3    0    0  0.47354533905E+02 -0.28476946682E+02  0.82477229565E+02  0.12721841507E+03  0.79552770933E+02 0.  0.
         -6    2    1    2    0  503 -0.79557967803E+02  0.10587454237E+03  0.78505518133E+03  0.81395364766E+03  0.16932221898E+03 0.  0.
        -24    2    5    5    0    0 -0.75629169707E+02  0.95701635369E+02  0.35588657867E+03  0.38462078961E+03  0.79995753637E+02 0.  0.
          4    1    4    4  501    0  0.49594841883E+02  0.12881037598E+02  0.63675395803E+02  0.81732034734E+02  0.00000000000E+00 0. -1.
         -3    1    4    4    0  501 -0.22403079775E+01 -0.41357984280E+02  0.18801833761E+02  0.45486380339E+02  0.00000000000E+00 0.  1.
          5    1    3    3  502    0  0.32203433898E+02 -0.77397595690E+02 -0.43376112387E+02  0.94504106256E+02  0.47000000000E+01 0. -1.
         13    1    6    6    0    0 -0.78370238600E+02  0.65164639351E+02  0.32692673812E+03  0.34244622442E+03  0.00000000000E+00 0. -1.
        -14    1    6    6    0    0  0.27410688930E+01  0.30536996018E+02  0.28959840548E+02  0.42174565191E+02  0.00000000000E+00 0.  1.
         -5    1    5    5    0  503 -0.39287980965E+01  0.10172907003E+02  0.42916860266E+03  0.42933285805E+03  0.47000000000E+01 0.  1.
<mgrwt>
<rscale>  2 0.21742160E+03</rscale>
<asrwt>0</asrwt>
<pdfrwt beam="1">  1       21 0.14306403E+00 0.21824752E+03</pdfrwt>
<pdfrwt beam="2">  1       21 0.16270760E-01 0.21824752E+03</pdfrwt>
<totfact> 0.11232475E+04</totfact>
</mgrwt>
</event>
<event>
12    1  0.1441827E-001  0.1732086E+03  0.7546771E-02  0.1174543E+00
         21   -1    0    0  504  503  0.00000000000E+00  0.00000000000E+00  0.10568449009E+03  0.10568449009E+03  0.00000000000E+00 0.  1.
         21   -1    0    0  502  504 -0.00000000000E+00 -0.00000000000E+00 -0.33814779854E+03  0.33814779854E+03  0.00000000000E+00 0.  1.
          6    2    1    2  502    0 -0.24338222531E+01  0.26959693927E+02 -0.20513785682E+03  0.26848230075E+03  0.17108026457E+03 0.  0.
         24    2    3    3    0    0  0.56269104777E+02 -0.16192832857E+02 -0.11466496364E+03  0.15222565100E+03  0.81216839069E+02 0.  0.
         -6    2    1    2    0  503  0.24338222531E+01 -0.26959693927E+02 -0.27325451637E+02  0.17534998788E+03  0.17107948257E+03 0.  0.
        -24    2    5    5    0    0 -0.70838975558E+01 -0.68784871509E+02 -0.59896555085E+02  0.12128614368E+03  0.79631596643E+02 0.  0.
          2    1    4    4  501    0  0.63331082680E+02 -0.19786333998E+02 -0.40701940708E+02  0.77839405342E+02  0.00000000000E+00 0. -1.
         -1    1    4    4    0  501 -0.70619779036E+01  0.35935011404E+01 -0.73963022932E+02  0.74386245661E+02  0.00000000000E+00 0.  1.
          5    1    3    3  502    0 -0.58702927030E+02  0.43152526784E+02 -0.90472893181E+02  0.11625664975E+03  0.47000000000E+01 0. -1.
         11    1    6    6    0    0 -0.31897532541E+01 -0.64890204710E+02 -0.39707279136E+01  0.65089783171E+02  0.00000000000E+00 0. -1.
        -12    1    6    6    0    0 -0.38941443018E+01 -0.38946667989E+01 -0.55925827172E+02  0.56196360506E+02  0.00000000000E+00 0.  1.
         -5    1    5    5    0  503  0.95177198089E+01  0.41825177582E+02  0.32571103448E+02  0.54063844203E+02  0.47000000000E+01 0.  1.
<mgrwt>
<rscale>  2 0.17320837E+03</rscale>
<asrwt>0</asrwt>
<pdfrwt beam="1">  1       21 0.16259153E-01 0.17320856E+03</pdfrwt>
<pdfrwt beam="2">  1       21 0.52022737E-01 0.17320856E+03</pdfrwt>
<totfact> 0.11957775E+05</totfact>
</mgrwt>
</event>
<event>
12    1  0.1441827E-001  0.2573827E+03  0.7546771E-02  0.1108758E+00
         21   -1    0    0  504  503  0.00000000000E+00  0.00000000000E+00  0.93627937380E+03  0.93627937380E+03  0.00000000000E+00 0. -1.
         21   -1    0    0  502  504 -0.00000000000E+00 -0.00000000000E+00 -0.81668342119E+02  0.81668342119E+02  0.00000000000E+00 0.  1.
          6    2    1    2  502    0 -0.18446965989E+03 -0.47446790248E+02  0.24090273480E+03  0.35253367968E+03  0.17310578948E+03 0.  0.
         24    2    3    3    0    0 -0.13355229342E+03 -0.32520711647E+02  0.71657891724E+02  0.17510405155E+03  0.81441780804E+02 0.  0.
         -6    2    1    2    0  503  0.18446965989E+03  0.47446790248E+02  0.61370829688E+03  0.66541403624E+03  0.17279384433E+03 0.  0.
        -24    2    5    5    0    0  0.12731617003E+03 -0.27333247412E+02  0.28416842506E+03  0.32266457591E+03  0.80026378025E+02 0.  0.
          4    1    4    4  501    0 -0.92656602734E+02  0.94427764358E+01  0.16412074480E+02  0.94571498062E+02  0.00000000000E+00 0. -1.
         -3    1    4    4    0  501 -0.40895690682E+02 -0.41963488083E+02  0.55245817244E+02  0.80532553489E+02  0.00000000000E+00 0.  1.
          5    1    3    3  502    0 -0.50917366472E+02 -0.14926078601E+02  0.16924484308E+03  0.17742962813E+03  0.47000000000E+01 0. -1.
         13    1    6    6    0    0  0.66730486606E+02  0.11400453703E+02  0.20415442809E+03  0.21508593328E+03  0.00000000000E+00 0. -1.
        -14    1    6    6    0    0  0.60585683427E+02 -0.38733701115E+02  0.80013996971E+02  0.10757864263E+03  0.00000000000E+00 0.  1.
         -5    1    5    5    0  503  0.57153489856E+02  0.74780037660E+02  0.32953987182E+03  0.34274946033E+03  0.47000000000E+01 0.  1.
<mgrwt>
<rscale>  2 0.25733029E+03</rscale>
<asrwt>0</asrwt>
<pdfrwt beam="1">  1       21 0.14404297E+00 0.25738273E+03</pdfrwt>
<pdfrwt beam="2">  1       21 0.12564361E-01 0.25738273E+03</pdfrwt>
<totfact> 0.17266552E+04</totfact>
</mgrwt>
</event>
<event>
12    1  0.1441827E-001  0.1762627E+03  0.7546771E-02  0.1172339E+00
         21   -1    0    0  504  503  0.00000000000E+00  0.00000000000E+00  0.58589964782E+02  0.58589964782E+02  0.00000000000E+00 0. -1.
         21   -1    0    0  502  504 -0.00000000000E+00 -0.00000000000E+00 -0.58713352687E+03  0.58713352687E+03  0.00000000000E+00 0. -1.
          6    2    1    2  502    0  0.25143918296E+02  0.12023868021E+02 -0.37582096434E+03  0.41510232741E+03  0.17404526697E+03 0.  0.
         24    2    3    3    0    0  0.54469871207E+02  0.60307418762E+02 -0.18349594543E+03  0.21459717614E+03  0.76008120569E+02 0.  0.
         -6    2    1    2    0  503 -0.25143918296E+02 -0.12023868021E+02 -0.15272259775E+03  0.23062116424E+03  0.17054365864E+03 0.  0.
        -24    2    5    5    0    0 -0.55588312531E+02 -0.43080931294E+02 -0.15549552200E+03  0.18678988057E+03  0.75931383427E+02 0.  0.
          2    1    4    4  501    0 -0.11220749832E+02  0.40820777626E+02 -0.61229309092E+02  0.74439703147E+02  0.00000000000E+00 0. -1.
         -1    1    4    4    0  501  0.65690621039E+02  0.19486641136E+02 -0.12226663634E+03  0.14015747299E+03  0.00000000000E+00 0.  1.
          5    1    3    3  502    0 -0.29325952911E+02 -0.48283550741E+02 -0.19232501891E+03  0.20050515127E+03  0.47000000000E+01 0. -1.
         13    1    6    6    0    0 -0.14506385735E+02 -0.25004006524E+02 -0.44884600299E+01  0.29253749209E+02  0.00000000000E+00 0. -1.
        -14    1    6    6    0    0 -0.41081926796E+02 -0.18076924770E+02 -0.15100706197E+03  0.15753613136E+03  0.00000000000E+00 0.  1.
         -5    1    5    5    0  503  0.30444394236E+02  0.31057063273E+02  0.27729242525E+01  0.43831283673E+02  0.47000000000E+01 0.  1.
<mgrwt>
<rscale>  2 0.17539212E+03</rscale>
<asrwt>0</asrwt>
<pdfrwt beam="1">  1       21 0.90138404E-02 0.17626272E+03</pdfrwt>
<pdfrwt beam="2">  1       21 0.90328238E-01 0.17626272E+03</pdfrwt>
<totfact> 0.10215986E+05</totfact>
</mgrwt>
</event>
<event>
12    1  0.1441827E-001  0.2491246E+03  0.7546771E-02  0.1113922E+00
         21   -1    0    0  504  503  0.00000000000E+00  0.00000000000E+00  0.14536607319E+03  0.14536607319E+03  0.00000000000E+00 0. -1.
         21   -1    0    0  502  504 -0.00000000000E+00 -0.00000000000E+00 -0.43904151713E+03  0.43904151713E+03  0.00000000000E+00 0. -1.
          6    2    1    2  502    0  0.17395741015E+03  0.40743832681E+02 -0.96888669125E+02  0.26693613846E+03  0.17304984069E+03 0.  0.
         24    2    3    3    0    0  0.10470390054E+03  0.68388658019E+02 -0.11726205156E+03  0.18949293557E+03  0.80729601525E+02 0.  0.
         -6    2    1    2    0  503 -0.17395741015E+03 -0.40743832681E+02 -0.19678677482E+03  0.31747145186E+03  0.17361407648E+03 0.  0.
        -24    2    5    5    0    0 -0.18148188359E+03 -0.42362161833E+02 -0.11220903977E+03  0.23241429486E+03  0.81824867993E+02 0.  0.
          4    1    4    4  501    0  0.77284790874E+02  0.84034421556E+02 -0.74446969749E+02  0.13629774104E+03  0.00000000000E+00 0. -1.
         -3    1    4    4    0  501  0.27419109665E+02 -0.15645763536E+02 -0.42815081810E+02  0.53195194537E+02  0.00000000000E+00 0.  1.
          5    1    3    3  502    0  0.69253509613E+02 -0.27644825338E+02  0.20373382434E+02  0.77443202888E+02  0.47000000000E+01 0. -1.
         11    1    6    6    0    0 -0.84186172780E+02 -0.50610109998E+02 -0.24678374049E+02  0.10128038836E+03  0.00000000000E+00 0. -1.
        -12    1    6    6    0    0 -0.97295710815E+02  0.82479481656E+01 -0.87530665724E+02  0.13113390650E+03  0.00000000000E+00 0.  1.
         -5    1    5    5    0  503  0.75244734420E+01  0.16183291518E+01 -0.84577735047E+02  0.85057156992E+02  0.47000000000E+01 0.  1.
<mgrwt>
<rscale>  2 0.24902636E+03</rscale>
<asrwt>0</asrwt>
<pdfrwt beam="1">  1       21 0.22364011E-01 0.24912464E+03</pdfrwt>
<pdfrwt beam="2">  1       21 0.67544849E-01 0.24912464E+03</pdfrwt>
<totfact> 0.36495462E+04</totfact>
</mgrwt>
</event>
<event>
12    1  0.1441827E-001  0.1801095E+03  0.7546771E-02  0.1168421E+00
         21   -1    0    0  504  503  0.00000000000E+00  0.00000000000E+00  0.15462328745E+04  0.15462328745E+04  0.00000000000E+00 0. -1.
         21   -1    0    0  502  504 -0.00000000000E+00 -0.00000000000E+00 -0.21841067639E+02  0.21841067639E+02  0.00000000000E+00 0. -1.
          6    2    1    2  502    0  0.14819028544E+02 -0.33933885130E+02  0.58396962408E+03  0.61111369490E+03  0.17626206078E+03 0.  0.
         24    2    3    3    0    0 -0.26772753294E+02 -0.11963158461E+02  0.53967308797E+03  0.54633050064E+03  0.79812759426E+02 0.  0.
         -6    2    1    2    0  503 -0.14819028544E+02  0.33933885130E+02  0.94042218278E+03  0.95696024725E+03  0.17322794456E+03 0.  0.
        -24    2    5    5    0    0 -0.67969555047E+02  0.50071730614E+02  0.51540132825E+03  0.52829927945E+03  0.79589954689E+02 0.  0.
          4    1    4    4  501    0 -0.40464076414E+02 -0.35741709974E+02  0.42525309749E+03  0.42866654667E+03  0.00000000000E+00 0. -1.
         -3    1    4    4    0  501  0.13691323120E+02  0.23778551513E+02  0.11441999048E+03  0.11766395397E+03  0.00000000000E+00 0.  1.
          5    1    3    3  502    0  0.41591781838E+02 -0.21970726669E+02  0.44296536111E+02  0.64783194258E+02  0.47000000000E+01 0. -1.
         11    1    6    6    0    0 -0.78864521932E+01  0.38875390434E+02  0.34492515738E+03  0.34719858339E+03  0.00000000000E+00 0. -1.
        -12    1    6    6    0    0 -0.60083102854E+02  0.11196340181E+02  0.17047617087E+03  0.18110069607E+03  0.00000000000E+00 0.  1.
         -5    1    5    5    0  503  0.53150526503E+02 -0.16137845484E+02  0.42502085454E+03  0.42866096780E+03  0.47000000000E+01 0.  1.
<mgrwt>
<rscale>  2 0.17936280E+03</rscale>
<asrwt>0</asrwt>
<pdfrwt beam="1">  1       21 0.23788190E+00 0.18010948E+03</pdfrwt>
<pdfrwt beam="2">  1       21 0.33601654E-02 0.18010948E+03</pdfrwt>
<totfact> 0.41519011E+04</totfact>
</mgrwt>
</event>
<event>
12    1  0.1441827E-001  0.1877841E+03  0.7546771E-02  0.1163171E+00
         21   -1    0    0  504  503  0.00000000000E+00  0.00000000000E+00  0.19356952537E+02  0.19356952537E+02  0.00000000000E+00 0. -1.
         21   -1    0    0  502  504 -0.00000000000E+00 -0.00000000000E+00 -0.19951004713E+04  0.19951004713E+04  0.00000000000E+00 0. -1.
          6    2    1    2  502    0 -0.26050976373E+02 -0.72002623842E+02 -0.13930290500E+04  0.14056289749E+04  0.17146384339E+03 0.  0.
         24    2    3    3    0    0  0.33109108031E+02 -0.89855486432E+02 -0.85973026592E+03  0.86874134844E+03  0.80032361462E+02 0.  0.
         -6    2    1    2    0  503  0.26050976373E+02  0.72002623842E+02 -0.58271446872E+03  0.60882844894E+03  0.15891160113E+03 0.  0.
        -24    2    5    5    0    0 -0.17024454410E+01  0.31386096743E+02 -0.14787200622E+03  0.17118702964E+03  0.80317392288E+02 0.  0.
          4    1    4    4  501    0  0.42331649846E+02 -0.85188538941E+02 -0.84708346326E+03  0.85240802992E+03  0.00000000000E+00 0. -1.
         -3    1    4    4    0  501 -0.92225418152E+01 -0.46669474909E+01 -0.12646802655E+02  0.16333318518E+02  0.00000000000E+00 0.  1.
          5    1    3    3  502    0 -0.59160084404E+02  0.17852862591E+02 -0.53329878411E+03  0.53688762643E+03  0.47000000000E+01 0. -1.
         11    1    6    6    0    0  0.27165090122E+01 -0.14706130779E+02  0.12832243838E+01  0.15009875699E+02  0.00000000000E+00 0. -1.
        -12    1    6    6    0    0 -0.44189544531E+01  0.46092227521E+02 -0.14915523060E+03  0.15617715394E+03  0.00000000000E+00 0.  1.
         -5    1    5    5    0  503  0.27753421814E+02  0.40616527099E+02 -0.43484246250E+03  0.43764141930E+03  0.47000000000E+01 0.  1.
<mgrwt>
<rscale>  2 0.18487024E+03</rscale>
<asrwt>0</asrwt>
<pdfrwt beam="1">  1       21 0.29779925E-02 0.18778413E+03</pdfrwt>
<pdfrwt beam="2">  1       21 0.30693856E+00 0.18778413E+03</pdfrwt>
<totfact> 0.20042143E+04</totfact>
</mgrwt>
</event>
<event>
12    1  0.1441827E-001  0.1897017E+03  0.7546771E-02  0.1159689E+00
         21   -1    0    0  504  503  0.00000000000E+00  0.00000000000E+00  0.55440918636E+03  0.55440918636E+03  0.00000000000E+00 0. -1.
         21   -1    0    0  502  504 -0.00000000000E+00 -0.00000000000E+00 -0.80236401924E+02  0.80236401924E+02  0.00000000000E+00 0. -1.
          6    2    1    2  502    0  0.65802509850E+02  0.29236146911E+02  0.94191461992E+02  0.21179890131E+03  0.17550504408E+03 0.  0.
         24    2    3    3    0    0  0.68763143806E+02 -0.15490580986E+02 -0.13343430281E+01  0.10617449615E+03  0.79390900710E+02 0.  0.
         -6    2    1    2    0  503 -0.65802509850E+02 -0.29236146911E+02  0.37998132244E+03  0.42284668697E+03  0.17096430238E+03 0.  0.
        -24    2    5    5    0    0 -0.57054909892E+02  0.45746083524E+02  0.20727867702E+03  0.23430717089E+03  0.81163005640E+02 0.  0.
          2    1    4    4  501    0  0.55891979511E+02  0.14313874292E+02  0.26425390995E+02  0.63459448943E+02  0.00000000000E+00 0. -1.
         -1    1    4    4    0  501  0.12871164296E+02 -0.29804455277E+02 -0.27759734023E+02  0.42715047205E+02  0.00000000000E+00 0.  1.
          5    1    3    3  502    0 -0.29606339567E+01  0.44726727896E+02  0.95525805020E+02  0.10562440516E+03  0.47000000000E+01 0. -1.
         13    1    6    6    0    0 -0.51552596511E+02  0.15912686945E+02  0.19369419257E+03  0.20106795878E+03  0.00000000000E+00 0. -1.
        -14    1    6    6    0    0 -0.55023133806E+01  0.29833396578E+02  0.13584484444E+02  0.33239212108E+02  0.00000000000E+00 0.  1.
         -5    1    5    5    0  503 -0.87475999580E+01 -0.74982230434E+02  0.17270264542E+03  0.18853951608E+03  0.47000000000E+01 0.  1.
<mgrwt>
<rscale>  2 0.18864469E+03</rscale>
<asrwt>0</asrwt>
<pdfrwt beam="1">  1       21 0.85293719E-01 0.18970172E+03</pdfrwt>
<pdfrwt beam="2">  1       21 0.12344062E-01 0.18970172E+03</pdfrwt>
<totfact> 0.66408281E+04</totfact>
</mgrwt>
</event>
<event>
12    1  0.1441827E-001  0.1771267E+03  0.7546771E-02  0.1170625E+00
         21   -1    0    0  504  503  0.00000000000E+00  0.00000000000E+00  0.22722317815E+03  0.22722317815E+03  0.00000000000E+00 0. -1.
         21   -1    0    0  502  504 -0.00000000000E+00 -0.00000000000E+00 -0.14551872574E+03  0.14551872574E+03  0.00000000000E+00 0. -1.
          6    2    1    2  502    0  0.33519996980E+02  0.13534506089E+02  0.83114934880E+02  0.19565773116E+03  0.17339862257E+03 0.  0.
         24    2    3    3    0    0  0.69141888085E+02  0.47780252049E+02  0.86237207508E+02  0.14592314733E+03  0.82420602973E+02 0.  0.
         -6    2    1    2    0  503 -0.33519996980E+02 -0.13534506089E+02 -0.14104824748E+01  0.17708417273E+03  0.17334947856E+03 0.  0.
        -24    2    5    5    0    0 -0.41175342819E+02  0.54823351050E+02  0.17618670204E+01  0.10806566250E+03  0.83510924794E+02 0.  0.
          4    1    4    4  501    0  0.77359655004E+02  0.88759853875E+01  0.59683180547E+02  0.98109028020E+02  0.00000000000E+00 0. -1.
         -3    1    4    4    0  501 -0.82177669188E+01  0.38904266662E+02  0.26554026961E+02  0.47814119311E+02  0.00000000000E+00 0.  1.
          5    1    3    3  502    0 -0.35621891105E+02 -0.34245745961E+02 -0.31222726271E+01  0.49734583829E+02  0.47000000000E+01 0. -1.
         13    1    6    6    0    0 -0.53074087673E+02  0.44264006009E+01 -0.11771718989E+02  0.54543791329E+02  0.00000000000E+00 0. -1.
        -14    1    6    6    0    0  0.11898744853E+02  0.50396950449E+02  0.13533586009E+02  0.53521871173E+02  0.00000000000E+00 0.  1.
         -5    1    5    5    0  503  0.76553458393E+01 -0.68357857138E+02 -0.31723494952E+01  0.69018510226E+02  0.47000000000E+01 0.  1.
<mgrwt>
<rscale>  2 0.17711464E+03</rscale>
<asrwt>0</asrwt>
<pdfrwt beam="1">  1       21 0.34957412E-01 0.17712666E+03</pdfrwt>
<pdfrwt beam="2">  1       21 0.22387496E-01 0.17712666E+03</pdfrwt>
<totfact> 0.14808168E+05</totfact>
</mgrwt>
</event>
<event>
12    1  0.1441827E-001  0.1836514E+03  0.7546771E-02  0.1164418E+00
         21   -1    0    0  504  503  0.00000000000E+00  0.00000000000E+00  0.43034618170E+02  0.43034618170E+02  0.00000000000E+00 0. -1.
         21   -1    0    0  502  504 -0.00000000000E+00 -0.00000000000E+00 -0.78710258188E+03  0.78710258188E+03  0.00000000000E+00 0. -1.
          6    2    1    2  502    0 -0.57725346473E+02  0.17352904508E+02 -0.33866880884E+03  0.38525885041E+03  0.17347760899E+03 0.  0.
         24    2    3    3    0    0 -0.73176642193E+02  0.57418202109E+02 -0.31738735144E+03  0.33710325842E+03  0.65208934089E+02 0.  0.
         -6    2    1    2    0  503  0.57725346473E+02 -0.17352904508E+02 -0.40539915488E+03  0.44487834964E+03  0.17301714449E+03 0.  0.
        -24    2    5    5    0    0  0.48694652883E+02  0.38964540132E+02 -0.35447525886E+03  0.36827194532E+03  0.77987896242E+02 0.  0.
          2    1    4    4  501    0 -0.41237529829E+02  0.31410427541E+02 -0.26718157249E+03  0.27216381373E+03  0.00000000000E+00 0. -1.
         -1    1    4    4    0  501 -0.31939112364E+02  0.26007774567E+02 -0.50205778951E+02  0.64939444690E+02  0.00000000000E+00 0.  1.
          5    1    3    3  502    0  0.15451295720E+02 -0.40065297601E+02 -0.21281457397E+02  0.48155591993E+02  0.47000000000E+01 0. -1.
         11    1    6    6    0    0  0.37834059280E+02 -0.17943741463E+02 -0.14307491650E+03  0.14907657640E+03  0.00000000000E+00 0. -1.
        -12    1    6    6    0    0  0.10860593603E+02  0.56908281595E+02 -0.21140034236E+03  0.21919536892E+03  0.00000000000E+00 0.  1.
         -5    1    5    5    0  503  0.90306935891E+01 -0.56317444640E+02 -0.50923896017E+02  0.76606404321E+02  0.47000000000E+01 0.  1.
<mgrwt>
<rscale>  2 0.18354253E+03</rscale>
<asrwt>0</asrwt>
<pdfrwt beam="1">  1       21 0.66207105E-02 0.18365135E+03</pdfrwt>
<pdfrwt beam="2">  1       21 0.12109271E+00 0.18365135E+03</pdfrwt>
<totfact> 0.86330174E+04</totfact>
</mgrwt>
</event>
<event>
12    1  0.1441827E-001  0.1745393E+03  0.7546771E-02  0.1173267E+00
         21   -1    0    0  504  503  0.00000000000E+00  0.00000000000E+00  0.16826289015E+03  0.16826289015E+03  0.00000000000E+00 0. -1.
         21   -1    0    0  502  504 -0.00000000000E+00 -0.00000000000E+00 -0.24244140578E+03  0.24244140578E+03  0.00000000000E+00 0. -1.
          6    2    1    2  502    0 -0.17510456253E+01 -0.21280801109E+02 -0.14069678339E+03  0.22418643315E+03  0.17322826933E+03 0.  0.
         24    2    3    3    0    0  0.55138580992E+02 -0.12678944787E+02 -0.35562339752E+02  0.10424576954E+03  0.80009260110E+02 0.  0.
         -6    2    1    2    0  503  0.17510456253E+01  0.21280801109E+02  0.66518267761E+02  0.18651786278E+03  0.17294014726E+03 0.  0.
        -24    2    5    5    0    0  0.40290948678E+02  0.49689458975E+02  0.82800109084E+02  0.13572845122E+03  0.86452018652E+02 0.  0.
          2    1    4    4  501    0  0.12526702513E+02  0.13885238950E+02 -0.48846986418E+02  0.52304361374E+02  0.00000000000E+00 0. -1.
         -1    1    4    4    0  501  0.42611878480E+02 -0.26564183737E+02  0.13284646666E+02  0.51941408166E+02  0.00000000000E+00 0.  1.
          5    1    3    3  502    0 -0.56889626618E+02 -0.86018563214E+01 -0.10513444364E+03  0.11994066361E+03  0.47000000000E+01 0. -1.
         13    1    6    6    0    0  0.33914915081E+01  0.11194469571E+02  0.81555532931E+02  0.82390068062E+02  0.00000000000E+00 0. -1.
        -14    1    6    6    0    0  0.36899457170E+02  0.38494989404E+02  0.12445761532E+01  0.53338383163E+02  0.00000000000E+00 0.  1.
         -5    1    5    5    0  503 -0.38539903053E+02 -0.28408657866E+02 -0.16281841324E+02  0.50789411553E+02  0.47000000000E+01 0.  1.
<mgrwt>
<rscale>  2 0.17446778E+03</rscale>
<asrwt>0</asrwt>
<pdfrwt beam="1">  1       21 0.25886599E-01 0.17453931E+03</pdfrwt>
<pdfrwt beam="2">  1       21 0.37298678E-01 0.17453931E+03</pdfrwt>
<totfact> 0.98915304E+04</totfact>
</mgrwt>
</event>
<event>
12    1  0.1441827E-001  0.3185174E+03  0.7546771E-02  0.1076380E+00
         21   -1    0    0  504  503  0.00000000000E+00  0.00000000000E+00  0.34111390106E+03  0.34111390106E+03  0.00000000000E+00 0.  1.
         21   -1    0    0  502  504 -0.00000000000E+00 -0.00000000000E+00 -0.29775712901E+03  0.29775712901E+03  0.00000000000E+00 0. -1.
          6    2    1    2  502    0  0.15719018378E+03 -0.21650312347E+03  0.37323147152E+02  0.32029648393E+03  0.17208853521E+03 0.  0.
         24    2    3    3    0    0  0.13023280376E+03 -0.10279609715E+03  0.72784857766E+02  0.19808514610E+03  0.80077892223E+02 0.  0.
         -6    2    1    2    0  503 -0.15719018378E+03  0.21650312347E+03  0.60336249002E+01  0.31857454615E+03  0.17283223216E+03 0.  0.
        -24    2    5    5    0    0 -0.16845624704E+03  0.21323540325E+03 -0.25169712825E+02  0.28490942381E+03  0.81810885364E+02 0.  0.
          2    1    4    4  501    0  0.71603162521E+02 -0.96961710154E+01  0.14948302521E+02  0.73786722137E+02  0.00000000000E+00 0. -1.
         -1    1    4    4    0  501  0.58629641236E+02 -0.93099926138E+02  0.57836555245E+02  0.12429842397E+03  0.00000000000E+00 0.  1.
          5    1    3    3  502    0  0.26957380018E+02 -0.11370702632E+03 -0.35461710614E+02  0.12221133782E+03  0.47000000000E+01 0. -1.
         11    1    6    6    0    0 -0.14415474554E+03  0.12108726378E+03 -0.11234603236E+02  0.18859727575E+03  0.00000000000E+00 0. -1.
        -12    1    6    6    0    0 -0.24301501495E+02  0.92148139471E+02 -0.13935109590E+02  0.96312148051E+02  0.00000000000E+00 0.  1.
         -5    1    5    5    0  503  0.11266063264E+02  0.32677202257E+01  0.31203337726E+02  0.33665122340E+02  0.47000000000E+01 0.  1.
<mgrwt>
<rscale>  2 0.31841662E+03</rscale>
<asrwt>0</asrwt>
<pdfrwt beam="1">  1       21 0.52479062E-01 0.31851740E+03</pdfrwt>
<pdfrwt beam="2">  1       21 0.45808789E-01 0.31851740E+03</pdfrwt>
<totfact> 0.14761265E+04</totfact>
</mgrwt>
</event>
<event>
12    1  0.1441827E-001  0.2113824E+03  0.7546771E-02  0.1141176E+00
         21   -1    0    0  504  503  0.00000000000E+00  0.00000000000E+00  0.34939979846E+03  0.34939979846E+03  0.00000000000E+00 0.  1.
         21   -1    0    0  502  504 -0.00000000000E+00 -0.00000000000E+00 -0.35542502980E+03  0.35542502980E+03  0.00000000000E+00 0.  1.
          6    2    1    2  502    0  0.94160497458E+02  0.78140267578E+02 -0.28628987306E+03  0.35378239807E+03  0.16801188372E+03 0.  0.
         24    2    3    3    0    0  0.53819126603E+02  0.11083564475E+03 -0.16428165402E+03  0.22110041209E+03  0.81950545113E+02 0.  0.
         -6    2    1    2    0  503 -0.94160497458E+02 -0.78140267578E+02  0.28026464173E+03  0.35104243018E+03  0.17236710153E+03 0.  0.
        -24    2    5    5    0    0 -0.65618508412E+02 -0.11934148163E+03  0.19062269737E+03  0.24823215168E+03  0.82061016864E+02 0.  0.
          2    1    4    4  501    0  0.10792472757E+02  0.69773330587E+02 -0.35018064467E+02  0.78810278317E+02  0.00000000000E+00 0. -1.
         -1    1    4    4    0  501  0.43026653846E+02  0.41062314162E+02 -0.12926358955E+03  0.14229013377E+03  0.00000000000E+00 0.  1.
          5    1    3    3  502    0  0.40341370855E+02 -0.32695377171E+02 -0.12200821904E+03  0.13268198598E+03  0.47000000000E+01 0. -1.
         13    1    6    6    0    0 -0.21585022822E+02  0.63764363698E+01  0.12297131064E+02  0.25647447892E+02  0.00000000000E+00 0. -1.
        -14    1    6    6    0    0 -0.44033485590E+02 -0.12571791800E+03  0.17832556631E+03  0.22258470379E+03  0.00000000000E+00 0.  1.
         -5    1    5    5    0  503 -0.28541989046E+02  0.41201214057E+02  0.89641944355E+02  0.10281027850E+03  0.47000000000E+01 0.  1.
<mgrwt>
<rscale>  2 0.21049278E+03</rscale>
<asrwt>0</asrwt>
<pdfrwt beam="1">  1       21 0.53753815E-01 0.21138240E+03</pdfrwt>
<pdfrwt beam="2">  1       21 0.54680774E-01 0.21138240E+03</pdfrwt>
<totfact> 0.10208243E+04</totfact>
</mgrwt>
</event>
<event>
12    1  0.1441827E-001  0.1839982E+03  0.7546771E-02  0.1165256E+00
         21   -1    0    0  504  503  0.00000000000E+00  0.00000000000E+00  0.14143236626E+04  0.14143236626E+04  0.00000000000E+00 0. -1.
         21   -1    0    0  502  504 -0.00000000000E+00 -0.00000000000E+00 -0.33099996556E+02  0.33099996556E+02  0.00000000000E+00 0. -1.
          6    2    1    2  502    0 -0.44206273121E+02 -0.50640660861E+02  0.10782340652E+04  0.10929408899E+04  0.16556696069E+03 0.  0.
         24    2    3    3    0    0  0.27279932476E+02  0.66166983398E+01  0.57681713219E+03  0.58320594561E+03  0.81383017909E+02 0.  0.
         -6    2    1    2    0  503  0.44206273121E+02  0.50640660861E+02  0.30298960087E+03  0.35448276922E+03  0.17127949184E+03 0.  0.
        -24    2    5    5    0    0 -0.34600437369E+02 -0.21470774846E+01  0.12555523996E+03  0.15323147017E+03  0.80709138031E+02 0.  0.
          2    1    4    4  501    0  0.45446699423E+02  0.29420041474E+02  0.43991514340E+03  0.44323388264E+03  0.00000000000E+00 0. -1.
         -1    1    4    4    0  501 -0.18166766946E+02 -0.22803343134E+02  0.13690198878E+03  0.13997206297E+03  0.00000000000E+00 0.  1.
          5    1    3    3  502    0 -0.71486205598E+02 -0.57257359201E+02  0.50141693299E+03  0.50973494432E+03  0.47000000000E+01 0. -1.
         11    1    6    6    0    0  0.22157905276E+01  0.18422230310E+02 -0.22098405145E+01  0.18686136368E+02  0.00000000000E+00 0. -1.
        -12    1    6    6    0    0 -0.36816227896E+02 -0.20569307794E+02  0.12776508048E+03  0.13454533381E+03  0.00000000000E+00 0.  1.
         -5    1    5    5    0  503  0.78806710490E+02  0.52787738346E+02  0.17743436091E+03  0.20125129905E+03  0.47000000000E+01 0.  1.
<mgrwt>
<rscale>  2 0.18265724E+03</rscale>
<asrwt>0</asrwt>
<pdfrwt beam="1">  1       21 0.21758821E+00 0.18399819E+03</pdfrwt>
<pdfrwt beam="2">  1       21 0.50923083E-02 0.18399819E+03</pdfrwt>
<totfact> 0.27325859E+04</totfact>
</mgrwt>
</event>
<event>
12    1  0.1441827E-001  0.1967394E+03  0.7546771E-02  0.1152690E+00
         21   -1    0    0  504  503  0.00000000000E+00  0.00000000000E+00  0.12251772029E+03  0.12251772029E+03  0.00000000000E+00 0. -1.
         21   -1    0    0  502  504 -0.00000000000E+00 -0.00000000000E+00 -0.11453412899E+04  0.11453412899E+04  0.00000000000E+00 0. -1.
          6    2    1    2  502    0 -0.50069339074E+02 -0.71321499401E+02 -0.10515646547E+04  0.10698105460E+04  0.17638788602E+03 0.  0.
         24    2    3    3    0    0  0.38258637385E+02 -0.34898228639E+02 -0.36987625317E+03  0.38144316382E+03  0.77516674765E+02 0.  0.
         -6    2    1    2    0  503  0.50069339074E+02  0.71321499401E+02  0.28741085098E+02  0.19804846418E+03  0.17550911429E+03 0.  0.
        -24    2    5    5    0    0 -0.26754371555E+02  0.38464351623E+02  0.56606743870E+02  0.10984381797E+03  0.81645809146E+02 0.  0.
          2    1    4    4  501    0 -0.45300545862E+01 -0.27836686144E+02 -0.41261415645E+02  0.49979064728E+02  0.00000000000E+00 0. -1.
         -1    1    4    4    0  501  0.42788691972E+02 -0.70615424941E+01 -0.32861483753E+03  0.33146409909E+03  0.00000000000E+00 0.  1.
          5    1    3    3  502    0 -0.88327976460E+02 -0.36423270763E+02 -0.68168840149E+03  0.68836738215E+03  0.47000000000E+01 0. -1.
         11    1    6    6    0    0 -0.35372793198E+01  0.49047618167E+02  0.66302579673E+02  0.82548248099E+02  0.00000000000E+00 0. -1.
        -12    1    6    6    0    0 -0.23217092235E+02 -0.10583266544E+02 -0.96958358032E+01  0.27295569869E+02  0.00000000000E+00 0.  1.
         -5    1    5    5    0  503  0.76823710629E+02  0.32857147778E+02 -0.27865658772E+02  0.88204646214E+02  0.47000000000E+01 0.  1.
<mgrwt>
<rscale>  2 0.19654221E+03</rscale>
<asrwt>0</asrwt>
<pdfrwt beam="1">  1       21 0.18848880E-01 0.19673937E+03</pdfrwt>
<pdfrwt beam="2">  1       21 0.17620635E+00 0.19673937E+03</pdfrwt>
<totfact> 0.49618992E+03</totfact>
</mgrwt>
</event>
<event>
12    1  0.1441827E-001  0.2367303E+03  0.7546771E-02  0.1122089E+00
         21   -1    0    0  504  503  0.00000000000E+00  0.00000000000E+00  0.86930499306E+02  0.86930499306E+02  0.00000000000E+00 0. -1.
         21   -1    0    0  502  504 -0.00000000000E+00 -0.00000000000E+00 -0.66523827028E+03  0.66523827028E+03  0.00000000000E+00 0.  1.
          6    2    1    2  502    0  0.15368818786E+03 -0.48884689886E+02 -0.35744288496E+03  0.42840569840E+03  0.17250001282E+03 0.  0.
         24    2    3    3    0    0  0.11006889820E+03 -0.44361796719E+02 -0.35663992678E+03  0.38429409295E+03  0.80042370930E+02 0.  0.
         -6    2    1    2    0  503 -0.15368818786E+03  0.48884689886E+02 -0.22086488601E+03  0.32376307118E+03  0.17329586375E+03 0.  0.
        -24    2    5    5    0    0 -0.14776295608E+03  0.11850565999E+02 -0.23067329929E+03  0.28471272323E+03  0.76660528710E+02 0.  0.
          2    1    4    4  501    0 -0.42170652243E+01  0.91392401439E+01 -0.75055068190E+02  0.75726960923E+02  0.00000000000E+00 0. -1.
         -1    1    4    4    0  501  0.11428596342E+03 -0.53501036863E+02 -0.28158485859E+03  0.30856713203E+03  0.00000000000E+00 0.  1.
          5    1    3    3  502    0  0.43619289666E+02 -0.45228931671E+01 -0.80295817360E+00  0.44111605450E+02  0.47000000000E+01 0. -1.
         13    1    6    6    0    0 -0.28181312200E+02  0.35083714229E+02 -0.65887489399E+02  0.79788561967E+02  0.00000000000E+00 0. -1.
        -14    1    6    6    0    0 -0.11958164388E+03 -0.23233148230E+02 -0.16478580989E+03  0.20492416126E+03  0.00000000000E+00 0.  1.
         -5    1    5    5    0  503 -0.59252317861E+01  0.37034123887E+02  0.98084132748E+01  0.39050347947E+02  0.47000000000E+01 0.  1.
<mgrwt>
<rscale>  2 0.23658466E+03</rscale>
<asrwt>0</asrwt>
<pdfrwt beam="1">  1       21 0.13373923E-01 0.23673029E+03</pdfrwt>
<pdfrwt beam="2">  1       21 0.10234435E+00 0.23673029E+03</pdfrwt>
<totfact> 0.36675184E+04</totfact>
</mgrwt>
</event>
<event>
12    1  0.1441827E-001  0.2653172E+03  0.7546771E-02  0.1104001E+00
         21   -1    0    0  504  503  0.00000000000E+00  0.00000000000E+00  0.11965984308E+04  0.11965984308E+04  0.00000000000E+00 0. -1.
         21   -1    0    0  502  504 -0.00000000000E+00 -0.00000000000E+00 -0.61922795358E+02  0.61922795358E+02  0.00000000000E+00 0.  1.
          6    2    1    2  502    0  0.15391916308E+03 -0.12857657174E+03  0.42634069922E+03  0.50215495365E+03  0.17369560186E+03 0.  0.
         24    2    3    3    0    0  0.15101840681E+03 -0.40860607950E+02  0.26469981175E+03  0.31816481481E+03  0.81772309287E+02 0.  0.
         -6    2    1    2    0  503 -0.15391916308E+03  0.12857657174E+03  0.70833493621E+03  0.75636627249E+03  0.17357566863E+03 0.  0.
        -24    2    5    5    0    0 -0.60095425982E+01  0.70470056672E+02  0.31879097496E+03  0.33562857431E+03  0.77567458941E+02 0.  0.
          2    1    4    4  501    0  0.51066344752E+02 -0.46181956376E+02  0.64531272947E+02  0.94365405998E+02  0.00000000000E+00 0. -1.
         -1    1    4    4    0  501  0.99952062054E+02  0.53213484262E+01  0.20016853880E+03  0.22379940881E+03  0.00000000000E+00 0.  1.
          5    1    3    3  502    0  0.29007562772E+01 -0.87715963787E+02  0.16164088747E+03  0.18399013884E+03  0.47000000000E+01 0. -1.
         11    1    6    6    0    0 -0.46576489157E+01 -0.10274317749E+01  0.17473382567E+03  0.17479891059E+03  0.00000000000E+00 0. -1.
        -12    1    6    6    0    0 -0.13518936824E+01  0.71497488447E+02  0.14405714929E+03  0.16082966372E+03  0.00000000000E+00 0.  1.
         -5    1    5    5    0  503 -0.14790962048E+03  0.58106515065E+02  0.38954396125E+03  0.42073769818E+03  0.47000000000E+01 0.  1.
<mgrwt>
<rscale>  2 0.26529755E+03</rscale>
<asrwt>0</asrwt>
<pdfrwt beam="1">  1       21 0.18409205E+00 0.26531718E+03</pdfrwt>
<pdfrwt beam="2">  1       21 0.95265847E-02 0.26531718E+03</pdfrwt>
<totfact> 0.14373070E+04</totfact>
</mgrwt>
</event>
<event>
12    1  0.1441827E-001  0.1929914E+03  0.7546771E-02  0.1156357E+00
         21   -1    0    0  504  503  0.00000000000E+00  0.00000000000E+00  0.79030267430E+02  0.79030267430E+02  0.00000000000E+00 0.  1.
         21   -1    0    0  502  504 -0.00000000000E+00 -0.00000000000E+00 -0.47586367307E+03  0.47586367307E+03  0.00000000000E+00 0. -1.
          6    2    1    2  502    0 -0.16313081957E+02 -0.81092376679E+02 -0.24144459290E+03  0.30909736866E+03  0.17436628594E+03 0.  0.
         24    2    3    3    0    0  0.48819207921E+02 -0.24167473127E+02 -0.82438117797E+02  0.12802332592E+03  0.81403604923E+02 0.  0.
         -6    2    1    2    0  503  0.16313081957E+02  0.81092376679E+02 -0.15538881274E+03  0.24579657184E+03  0.17154644096E+03 0.  0.
        -24    2    5    5    0    0  0.25229632038E+01 -0.27080928859E+02 -0.56945371310E+02  0.98810747467E+02  0.76033193082E+02 0.  0.
          2    1    4    4  501    0  0.62994277808E+02  0.57737233618E+01 -0.64534538637E+02  0.90367702168E+02  0.00000000000E+00 0. -1.
         -1    1    4    4    0  501 -0.14175069887E+02 -0.29941196488E+02 -0.17903579160E+02  0.37655623753E+02  0.00000000000E+00 0.  1.
          5    1    3    3  502    0 -0.65132289878E+02 -0.56924903552E+02 -0.15900647511E+03  0.18107404274E+03  0.47000000000E+01 0. -1.
         11    1    6    6    0    0 -0.35343765158E+02 -0.22827296355E+01 -0.22964142118E+02  0.42210714438E+02  0.00000000000E+00 0. -1.
        -12    1    6    6    0    0  0.37866728362E+02 -0.24798199223E+02 -0.33981229191E+02  0.56600033029E+02  0.00000000000E+00 0.  1.
         -5    1    5    5    0  503  0.13790118753E+02  0.10817330554E+03 -0.98443441427E+02  0.14698582437E+03  0.47000000000E+01 0.  1.
<mgrwt>
<rscale>  2 0.19235229E+03</rscale>
<asrwt>0</asrwt>
<pdfrwt beam="1">  1       21 0.12158503E-01 0.19299143E+03</pdfrwt>
<pdfrwt beam="2">  1       21 0.73209796E-01 0.19299143E+03</pdfrwt>
<totfact> 0.96166638E+04</totfact>
</mgrwt>
</event>
<event>
12    1  0.1441827E-001  0.1863107E+03  0.7546771E-02  0.1162711E+00
         21   -1    0    0  504  503  0.00000000000E+00  0.00000000000E+00  0.11710097556E+03  0.11710097556E+03  0.00000000000E+00 0.  1.
         21   -1    0    0  502  504 -0.00000000000E+00 -0.00000000000E+00 -0.63637033495E+03  0.63637033495E+03  0.00000000000E+00 0.  1.
          6    2    1    2  502    0 -0.56278000847E+02  0.14877432920E+01 -0.53617112354E+03  0.56639554279E+03  0.17365198072E+03 0.  0.
         24    2    3    3    0    0 -0.61070083596E+02 -0.35866445719E+02 -0.50721854335E+03  0.51866042580E+03  0.81987984102E+02 0.  0.
         -6    2    1    2    0  503  0.56278000847E+02 -0.14877432920E+01  0.16901764153E+02  0.18707576772E+03  0.17760136959E+03 0.  0.
        -24    2    5    5    0    0 -0.16742969329E+02 -0.10156450031E+02 -0.41340701026E+02  0.93153015891E+02  0.81147706739E+02 0.  0.
          4    1    4    4  501    0 -0.34843709125E+02  0.23634664825E+02 -0.16271688864E+03  0.16807577843E+03  0.00000000000E+00 0. -1.
         -3    1    4    4    0  501 -0.26226374471E+02 -0.59501110544E+02 -0.34450165471E+03  0.35058464737E+03  0.00000000000E+00 0.  1.
          5    1    3    3  502    0  0.47920827492E+01  0.37354189011E+02 -0.28952580192E+02  0.47735116984E+02  0.47000000000E+01 0. -1.
         13    1    6    6    0    0  0.19140588201E+02 -0.34924953994E+02 -0.21336011962E+02  0.45181190054E+02  0.00000000000E+00 0. -1.
        -14    1    6    6    0    0 -0.35883557530E+02  0.24768503963E+02 -0.20004689064E+02  0.47971825837E+02  0.00000000000E+00 0.  1.
         -5    1    5    5    0  503  0.73020970176E+02  0.86687067392E+01  0.58242465179E+02  0.93922751834E+02  0.47000000000E+01 0.  1.
<mgrwt>
<rscale>  2 0.18536327E+03</rscale>
<asrwt>0</asrwt>
<pdfrwt beam="1">  1       21 0.18015535E-01 0.18631069E+03</pdfrwt>
<pdfrwt beam="2">  1       21 0.97903128E-01 0.18631069E+03</pdfrwt>
<totfact> 0.24284148E+04</totfact>
</mgrwt>
</event>
<event>
12    1  0.1441827E-001  0.2022521E+03  0.7546771E-02  0.1147994E+00
         21   -1    0    0  504  503  0.00000000000E+00  0.00000000000E+00  0.95817744222E+02  0.95817744222E+02  0.00000000000E+00 0.  1.
         21   -1    0    0  502  504 -0.00000000000E+00 -0.00000000000E+00 -0.69448643273E+03  0.69448643273E+03  0.00000000000E+00 0. -1.
          6    2    1    2  502    0  0.21669594896E+02  0.10328241338E+03 -0.54556915448E+03  0.58185190042E+03  0.17253725236E+03 0.  0.
         24    2    3    3    0    0 -0.52974241459E+02  0.66283143693E+02 -0.32326847508E+03  0.34440647443E+03  0.83147984064E+02 0.  0.
         -6    2    1    2    0  503 -0.21669594896E+02 -0.10328241338E+03 -0.53099534036E+02  0.20845227654E+03  0.17174388729E+03 0.  0.
        -24    2    5    5    0    0 -0.67794578990E+02 -0.11304327931E+03 -0.35555613675E+02  0.15792834356E+03  0.79386850922E+02 0.  0.
          4    1    4    4  501    0 -0.21221978665E+02 -0.41918929958E+01 -0.18279190853E+03  0.18406745005E+03  0.00000000000E+00 0. -1.
         -3    1    4    4    0  501 -0.31752262794E+02  0.70475036689E+02 -0.14047656656E+03  0.16033902438E+03  0.00000000000E+00 0.  1.
          5    1    3    3  502    0  0.74643836355E+02  0.36999269691E+02 -0.22230067939E+03  0.23744542599E+03  0.47000000000E+01 0. -1.
         13    1    6    6    0    0  0.16169240812E+02 -0.54234485844E+01 -0.79583119060E+00  0.17073121866E+02  0.00000000000E+00 0. -1.
        -14    1    6    6    0    0 -0.83963819802E+02 -0.10761983073E+03 -0.34759782484E+02  0.14085522170E+03  0.00000000000E+00 0.  1.
         -5    1    5    5    0  503  0.46124984094E+02  0.97608659261E+01 -0.17543920361E+02  0.50523932972E+02  0.47000000000E+01 0.  1.
<mgrwt>
<rscale>  2 0.20208284E+03</rscale>
<asrwt>0</asrwt>
<pdfrwt beam="1">  1       21 0.14741192E-01 0.20225215E+03</pdfrwt>
<pdfrwt beam="2">  1       21 0.10684407E+00 0.20225215E+03</pdfrwt>
<totfact> 0.28210572E+04</totfact>
</mgrwt>
</event>
<event>
12    1  0.1441827E-001  0.2100830E+03  0.7546771E-02  0.1141576E+00
         21   -1    0    0  504  503  0.00000000000E+00  0.00000000000E+00  0.20149880507E+04  0.20149880507E+04  0.00000000000E+00 0. -1.
         21   -1    0    0  502  504 -0.00000000000E+00 -0.00000000000E+00 -0.43196239775E+02  0.43196239775E+02  0.00000000000E+00 0. -1.
          6    2    1    2  502    0  0.11908928330E+03  0.96165036883E+01  0.26315473105E+03  0.33672732791E+03  0.17280088642E+03 0.  0.
         24    2    3    3    0    0  0.93825880253E+01  0.20519172542E+02  0.47310439048E+02  0.94311826000E+02  0.78405187843E+02 0.  0.
         -6    2    1    2    0  503 -0.11908928330E+03 -0.96165036883E+01  0.17086370799E+04  0.17214569626E+04  0.17233301684E+03 0.  0.
        -24    2    5    5    0    0 -0.10838473842E+03 -0.66944876684E+02  0.12012716383E+04  0.12107291378E+04  0.81133397678E+02 0.  0.
          2    1    4    4  501    0  0.20506405026E+02  0.31494586812E+02 -0.66219422564E+01  0.38161128977E+02  0.00000000000E+00 0. -1.
         -1    1    4    4    0  501 -0.11123817000E+02 -0.10975414270E+02  0.53932381304E+02  0.56150697023E+02  0.00000000000E+00 0.  1.
          5    1    3    3  502    0  0.10970669528E+03 -0.10902668853E+02  0.21584429200E+03  0.24241550191E+03  0.47000000000E+01 0. -1.
         11    1    6    6    0    0 -0.17057313284E+02 -0.76125763772E+01  0.55731559040E+03  0.55762852381E+03  0.00000000000E+00 0. -1.
        -12    1    6    6    0    0 -0.91327425138E+02 -0.59332300307E+02  0.64395604787E+03  0.65310061402E+03  0.00000000000E+00 0.  1.
         -5    1    5    5    0  503 -0.10704544881E+02  0.57328372996E+02  0.50736544160E+03  0.51072782474E+03  0.47000000000E+01 0.  1.
<mgrwt>
<rscale>  2 0.20998680E+03</rscale>
<asrwt>0</asrwt>
<pdfrwt beam="1">  1       21 0.30999809E+00 0.21008303E+03</pdfrwt>
<pdfrwt beam="2">  1       21 0.66455769E-02 0.21008303E+03</pdfrwt>
<totfact> 0.48487113E+03</totfact>
</mgrwt>
</event>
<event>
12    1  0.1441827E-001  0.1973367E+03  0.7546771E-02  0.1154807E+00
         21   -1    0    0  504  503  0.00000000000E+00  0.00000000000E+00  0.12181867171E+04  0.12181867171E+04  0.00000000000E+00 0.  1.
         21   -1    0    0  502  504 -0.00000000000E+00 -0.00000000000E+00 -0.41358440118E+02  0.41358440118E+02  0.00000000000E+00 0.  1.
          6    2    1    2  502    0 -0.49374580591E+02  0.82668332992E+02  0.24385481388E+03  0.30593032073E+03  0.15765877204E+03 0.  0.
         24    2    3    3    0    0 -0.30851051581E+01  0.10541847340E+03  0.17769917886E+03  0.22191280785E+03  0.80905646985E+02 0.  0.
         -6    2    1    2    0  503  0.49374580591E+02 -0.82668332992E+02  0.93297346314E+03  0.95361483653E+03  0.17224944422E+03 0.  0.
        -24    2    5    5    0    0  0.66949383494E+02 -0.87225555334E+02  0.43155460378E+03  0.45184536307E+03  0.76382842514E+02 0.  0.
          4    1    4    4  501    0  0.36337166410E+02  0.33837116764E+02  0.84065993516E+02  0.97634171269E+02  0.00000000000E+00 0. -1.
         -3    1    4    4    0  501 -0.39422271568E+02  0.71581356639E+02  0.93633185341E+02  0.12427863658E+03  0.00000000000E+00 0.  1.
          5    1    3    3  502    0 -0.46289475432E+02 -0.22750140411E+02  0.66155635028E+02  0.84017512879E+02  0.47000000000E+01 0. -1.
         13    1    6    6    0    0 -0.56762050380E+01 -0.20083766644E+02  0.21237724332E+02  0.29776130055E+02  0.00000000000E+00 0. -1.
        -14    1    6    6    0    0  0.72625588532E+02 -0.67141788690E+02  0.41031687944E+03  0.42206923301E+03  0.00000000000E+00 0.  1.
         -5    1    5    5    0  503 -0.17574802904E+02  0.45572223417E+01  0.50141885936E+03  0.50176947346E+03  0.47000000000E+01 0.  1.
<mgrwt>
<rscale>  2 0.19410872E+03</rscale>
<asrwt>0</asrwt>
<pdfrwt beam="1">  1       21 0.18741331E+00 0.19733670E+03</pdfrwt>
<pdfrwt beam="2">  1       21 0.63628379E-02 0.19733670E+03</pdfrwt>
<totfact> 0.28831590E+04</totfact>
</mgrwt>
</event>
<event>
12    1  0.1441827E-001  0.4486036E+03  0.7546771E-02  0.1028166E+00
         21   -1    0    0  504  503  0.00000000000E+00  0.00000000000E+00  0.12193253685E+04  0.12193253685E+04  0.00000000000E+00 0.  1.
         21   -1    0    0  502  504 -0.00000000000E+00 -0.00000000000E+00 -0.22285474229E+03  0.22285474229E+03  0.00000000000E+00 0.  1.
          6    2    1    2  502    0 -0.35961779656E+03  0.20462908650E+03  0.13041669434E+03  0.46683677287E+03  0.17242399977E+03 0.  0.
         24    2    3    3    0    0 -0.22076077999E+03  0.19081026132E+03  0.53160053567E+02  0.30726575570E+03  0.80264410052E+02 0.  0.
         -6    2    1    2    0  503  0.35961779656E+03 -0.20462908650E+03  0.86605393189E+03  0.97534333793E+03  0.17334125670E+03 0.  0.
        -24    2    5    5    0    0  0.13654916139E+03 -0.22776657073E+02  0.28673045535E+03  0.32845254147E+03  0.80636644207E+02 0.  0.
          4    1    4    4  501    0 -0.96421665642E+02  0.12075579899E+03  0.56437199685E+02  0.16451218223E+03  0.00000000000E+00 0. -1.
         -3    1    4    4    0  501 -0.12433911435E+03  0.70054462325E+02 -0.32771461180E+01  0.14275357346E+03  0.00000000000E+00 0.  1.
          5    1    3    3  502    0 -0.13885701656E+03  0.13818825186E+02  0.77256640770E+02  0.15957101717E+03  0.47000000000E+01 0. -1.
         11    1    6    6    0    0  0.37903216230E+02  0.26721840499E+02  0.11847970271E+03  0.12723266292E+03  0.00000000000E+00 0. -1.
        -12    1    6    6    0    0  0.98645945161E+02 -0.49498497572E+02  0.16825075264E+03  0.20121987855E+03  0.00000000000E+00 0.  1.
         -5    1    5    5    0  503  0.22306863516E+03 -0.18185242943E+03  0.57932347654E+03  0.64689079646E+03  0.47000000000E+01 0.  1.
<mgrwt>
<rscale>  2 0.44851519E+03</rscale>
<asrwt>0</asrwt>
<pdfrwt beam="1">  1       21 0.18758851E+00 0.44860363E+03</pdfrwt>
<pdfrwt beam="2">  1       21 0.34285346E-01 0.44860363E+03</pdfrwt>
<totfact> 0.11136683E+03</totfact>
</mgrwt>
</event>
<event>
12    1  0.1441827E-001  0.2807499E+03  0.7546771E-02  0.1096645E+00
         21   -1    0    0  504  503  0.00000000000E+00  0.00000000000E+00  0.15399085503E+03  0.15399085503E+03  0.00000000000E+00 0. -1.
         21   -1    0    0  502  504 -0.00000000000E+00 -0.00000000000E+00 -0.49429546174E+03  0.49429546174E+03  0.00000000000E+00 0. -1.
          6    2    1    2  502    0 -0.77136293787E+01  0.20248567509E+03 -0.16012202182E+03  0.31469038915E+03  0.17980831588E+03 0.  0.
         24    2    3    3    0    0 -0.39592301239E+01  0.80357419140E+02 -0.15560990468E+03  0.19233085493E+03  0.79396001228E+02 0.  0.
         -6    2    1    2    0  503  0.77136293787E+01 -0.20248567509E+03 -0.18018258490E+03  0.33359592762E+03  0.19432068940E+03 0.  0.
        -24    2    5    5    0    0 -0.63770686901E+02 -0.10454287566E+03 -0.14772343254E+03  0.20798348394E+03  0.80243402919E+02 0.  0.
          2    1    4    4  501    0 -0.39791466433E+02  0.58739687072E+02 -0.10381090220E+03  0.12573947294E+03  0.00000000000E+00 0. -1.
         -1    1    4    4    0  501  0.35832236309E+02  0.21617732068E+02 -0.51799002476E+02  0.66591381997E+02  0.00000000000E+00 0.  1.
          5    1    3    3  502    0 -0.37543992548E+01  0.12212825595E+03 -0.45121171442E+01  0.12235953422E+03  0.47000000000E+01 0. -1.
         13    1    6    6    0    0 -0.43695077696E+02 -0.10401502583E+03 -0.15008757751E+03  0.18776226015E+03  0.00000000000E+00 0. -1.
        -14    1    6    6    0    0 -0.20075609204E+02 -0.52784982166E+00  0.23641449615E+01  0.20221223795E+02  0.00000000000E+00 0.  1.
         -5    1    5    5    0  503  0.71484316279E+02 -0.97942799430E+02 -0.32459152352E+02  0.12561244367E+03  0.47000000000E+01 0.  1.
<mgrwt>
<rscale>  2 0.27825629E+03</rscale>
<asrwt>0</asrwt>
<pdfrwt beam="1">  1       21 0.23690900E-01 0.28074985E+03</pdfrwt>
<pdfrwt beam="2">  1       21 0.76045457E-01 0.28074985E+03</pdfrwt>
<totfact> 0.24759459E+04</totfact>
</mgrwt>
</event>
<event>
12    1  0.1441827E-001  0.2529860E+03  0.7546771E-02  0.1111963E+00
         21   -1    0    0  504  503  0.00000000000E+00  0.00000000000E+00  0.68966469978E+03  0.68966469978E+03  0.00000000000E+00 0.  1.
         21   -1    0    0  502  504 -0.00000000000E+00 -0.00000000000E+00 -0.96661547200E+02  0.96661547200E+02  0.00000000000E+00 0.  1.
          6    2    1    2  502    0  0.13122305336E+03  0.12762650845E+03  0.20431030882E+03  0.32255470310E+03  0.16967857499E+03 0.  0.
         24    2    3    3    0    0  0.12730160423E+03  0.87261096016E+02  0.83569416646E+02  0.19509805429E+03  0.85200974592E+02 0.  0.
         -6    2    1    2    0  503 -0.13122305336E+03 -0.12762650845E+03  0.38869284376E+03  0.46377154388E+03  0.17462503466E+03 0.  0.
        -24    2    5    5    0    0 -0.69563592246E+02 -0.19062392766E+02  0.27049462380E+03  0.29178036515E+03  0.82255527463E+02 0.  0.
          4    1    4    4  501    0  0.23048470458E+02 -0.16836458630E+02  0.87002888260E+01  0.29839459702E+02  0.00000000000E+00 0. -1.
         -3    1    4    4    0  501  0.10425313377E+03  0.10409755465E+03  0.74869127820E+02  0.16525859459E+03  0.00000000000E+00 0.  1.
          5    1    3    3  502    0  0.39214491373E+01  0.40365412429E+02  0.12074089217E+03  0.12745664881E+03  0.47000000000E+01 0. -1.
         13    1    6    6    0    0 -0.52122608072E+02  0.27600315586E+02  0.16178811993E+03  0.17220319232E+03  0.00000000000E+00 0. -1.
        -14    1    6    6    0    0 -0.17440984174E+02 -0.46662708353E+02  0.10870650387E+03  0.11957717283E+03  0.00000000000E+00 0.  1.
         -5    1    5    5    0  503 -0.61659461118E+02 -0.10856411568E+03  0.11819821996E+03  0.17199117872E+03  0.47000000000E+01 0.  1.
<mgrwt>
<rscale>  2 0.25213455E+03</rscale>
<asrwt>0</asrwt>
<pdfrwt beam="1">  1       21 0.10610226E+00 0.25298600E+03</pdfrwt>
<pdfrwt beam="2">  1       21 0.14871008E-01 0.25298600E+03</pdfrwt>
<totfact> 0.27497503E+04</totfact>
</mgrwt>
</event>
<event>
12    1  0.1441827E-001  0.1957594E+03  0.7546771E-02  0.1154486E+00
         21   -1    0    0  504  503  0.00000000000E+00  0.00000000000E+00  0.42492572527E+03  0.42492572527E+03  0.00000000000E+00 0.  1.
         21   -1    0    0  502  504 -0.00000000000E+00 -0.00000000000E+00 -0.14006362480E+03  0.14006362480E+03  0.00000000000E+00 0. -1.
          6    2    1    2  502    0  0.52335836906E+01  0.90403006954E+02 -0.28852692317E+02  0.19787423608E+03  0.17355587396E+03 0.  0.
         24    2    3    3    0    0  0.33626952412E+02 -0.26989970904E+02  0.14633147421E+02  0.69420342040E+02  0.52400614763E+02 0.  0.
         -6    2    1    2    0  503 -0.52335836906E+01 -0.90403006954E+02  0.31371479279E+03  0.36711511399E+03  0.16779881298E+03 0.  0.
        -24    2    5    5    0    0 -0.62996727134E+02 -0.55414477706E+02  0.24226914976E+03  0.26869078860E+03  0.80380638123E+02 0.  0.
          2    1    4    4  501    0  0.26825524109E+02  0.11187462410E+02  0.70409539753E+01  0.29905569578E+02  0.00000000000E+00 0. -1.
         -1    1    4    4    0  501  0.68014283038E+01 -0.38177433314E+02  0.75921934456E+01  0.39514772462E+02  0.00000000000E+00 0.  1.
          5    1    3    3  502    0 -0.28393368722E+02  0.11739297786E+03 -0.43485839738E+02  0.12845389405E+03  0.47000000000E+01 0. -1.
         13    1    6    6    0    0 -0.12360799395E+02  0.85098149335E+01  0.22229901521E+01  0.15170629423E+02  0.00000000000E+00 0. -1.
        -14    1    6    6    0    0 -0.50635927739E+02 -0.63924292640E+02  0.24004615961E+03  0.25352015918E+03  0.00000000000E+00 0.  1.
         -5    1    5    5    0  503  0.57763143444E+02 -0.34988529248E+02  0.71445643031E+02  0.98424325386E+02  0.47000000000E+01 0.  1.
<mgrwt>
<rscale>  2 0.19447543E+03</rscale>
<asrwt>0</asrwt>
<pdfrwt beam="1">  1       21 0.65373188E-01 0.19575938E+03</pdfrwt>
<pdfrwt beam="2">  1       21 0.21548250E-01 0.19575938E+03</pdfrwt>
<totfact> 0.43138086E+04</totfact>
</mgrwt>
</event>
<event>
12    1  0.1441827E-001  0.1843822E+03  0.7546771E-02  0.1163886E+00
         21   -1    0    0  504  503  0.00000000000E+00  0.00000000000E+00  0.10229173077E+03  0.10229173077E+03  0.00000000000E+00 0.  1.
         21   -1    0    0  502  504 -0.00000000000E+00 -0.00000000000E+00 -0.45727737981E+03  0.45727737981E+03  0.00000000000E+00 0.  1.
          6    2    1    2  502    0 -0.36029692178E+02  0.52156620386E+02 -0.32526614919E+03  0.37389152423E+03  0.17314257800E+03 0.  0.
         24    2    3    3    0    0 -0.68853582103E+02  0.84233532850E+02 -0.22094874069E+03  0.25982773603E+03  0.82800981716E+02 0.  0.
         -6    2    1    2    0  503  0.36029692178E+02 -0.52156620386E+02 -0.29719499851E+02  0.18567758635E+03  0.17197228158E+03 0.  0.
        -24    2    5    5    0    0  0.21358353166E+02 -0.87681073490E+02  0.22279025315E+02  0.12084571474E+03  0.77221641420E+02 0.  0.
          2    1    4    4  501    0 -0.13928360321E+02  0.63984166928E+02 -0.17016845161E+03  0.18233286803E+03  0.00000000000E+00 0. -1.
         -1    1    4    4    0  501 -0.54925221782E+02  0.20249365922E+02 -0.50780289079E+02  0.77494868004E+02  0.00000000000E+00 0.  1.
          5    1    3    3  502    0  0.32823889925E+02 -0.32076912464E+02 -0.10431740850E+03  0.11406378820E+03  0.47000000000E+01 0. -1.
         11    1    6    6    0    0 -0.28656912827E+02 -0.23882860508E+02  0.11676760212E+02  0.39089082975E+02  0.00000000000E+00 0. -1.
        -12    1    6    6    0    0  0.50015265993E+02 -0.63798212983E+02  0.10602265104E+02  0.81756631765E+02  0.00000000000E+00 0.  1.
         -5    1    5    5    0  503  0.14671339012E+02  0.35524453104E+02 -0.51998525167E+02  0.64831871608E+02  0.47000000000E+01 0.  1.
<mgrwt>
<rscale>  2 0.18410698E+03</rscale>
<asrwt>0</asrwt>
<pdfrwt beam="1">  1       21 0.15737189E-01 0.18438222E+03</pdfrwt>
<pdfrwt beam="2">  1       21 0.70350367E-01 0.18438222E+03</pdfrwt>
<totfact> 0.66105343E+04</totfact>
</mgrwt>
</event>
<event>
12    1  0.1441827E-001  0.2166257E+03  0.7546771E-02  0.1136617E+00
         21   -1    0    0  504  503  0.00000000000E+00  0.00000000000E+00  0.22032810885E+03  0.22032810885E+03  0.00000000000E+00 0.  1.
         21   -1    0    0  502  504 -0.00000000000E+00 -0.00000000000E+00 -0.25535895553E+03  0.25535895553E+03  0.00000000000E+00 0.  1.
          6    2    1    2  502    0 -0.29859431093E+02 -0.12539439204E+03  0.80465735670E+02  0.23108747773E+03  0.17410154670E+03 0.  0.
         24    2    3    3    0    0 -0.67913397065E+01 -0.12747706655E+03  0.11455827723E+03  0.18960415863E+03  0.80806022641E+02 0.  0.
         -6    2    1    2    0  503  0.29859431093E+02  0.12539439204E+03 -0.11549658236E+03  0.24459958666E+03  0.17284142465E+03 0.  0.
        -24    2    5    5    0    0  0.67319704252E+02  0.13284848524E+03 -0.58827938450E+02  0.17609950802E+03  0.73277880515E+02 0.  0.
          4    1    4    4  501    0 -0.21818601374E+02 -0.79903085415E+02  0.24038994308E+02  0.86246319760E+02  0.00000000000E+00 0. -1.
         -3    1    4    4    0  501  0.15027261668E+02 -0.47573981136E+02  0.90519282924E+02  0.10335783887E+03  0.00000000000E+00 0.  1.
          5    1    3    3  502    0 -0.23068091386E+02  0.20826745086E+01 -0.34092541563E+02  0.41483319100E+02  0.47000000000E+01 0. -1.
         11    1    6    6    0    0  0.48768198180E+02  0.37128590446E+02  0.17389270763E+01  0.61317968408E+02  0.00000000000E+00 0. -1.
        -12    1    6    6    0    0  0.18551506071E+02  0.95719894794E+02 -0.60566865527E+02  0.11478153962E+03  0.00000000000E+00 0.  1.
         -5    1    5    5    0  503 -0.37460273159E+02 -0.74540931986E+01 -0.56668643905E+02  0.68500078632E+02  0.47000000000E+01 0.  1.
<mgrwt>
<rscale>  2 0.21637238E+03</rscale>
<asrwt>0</asrwt>
<pdfrwt beam="1">  1       21 0.33896632E-01 0.21662569E+03</pdfrwt>
<pdfrwt beam="2">  1       21 0.39285993E-01 0.21662569E+03</pdfrwt>
<totfact> 0.51786803E+04</totfact>
</mgrwt>
</event>
<event>
12    1  0.1441827E-001  0.1858865E+03  0.7546771E-02  0.1162517E+00
         21   -1    0    0  504  503  0.00000000000E+00  0.00000000000E+00  0.54071841490E+03  0.54071841490E+03  0.00000000000E+00 0.  1.
         21   -1    0    0  502  504 -0.00000000000E+00 -0.00000000000E+00 -0.22225859701E+03  0.22225859701E+03  0.00000000000E+00 0.  1.
          6    2    1    2  502    0 -0.23563948605E+02 -0.61242372424E+02 -0.16337100853E+03  0.24653269687E+03  0.17257576986E+03 0.  0.
         24    2    3    3    0    0 -0.31960668870E+02 -0.76689050701E+02 -0.39263999170E+02  0.12109847286E+03  0.78870042761E+02 0.  0.
         -6    2    1    2    0  503  0.23563948605E+02  0.61242372424E+02  0.48183082642E+03  0.51644431503E+03  0.17391922662E+03 0.  0.
        -24    2    5    5    0    0  0.24557993289E+02  0.72136960426E+02  0.48945369524E+03  0.50230648275E+03  0.83306942879E+02 0.  0.
          2    1    4    4  501    0 -0.45898928278E+02 -0.10752808266E+02 -0.15008731557E+02  0.49473189968E+02  0.00000000000E+00 0. -1.
         -1    1    4    4    0  501  0.13938259408E+02 -0.65936242435E+02 -0.24255267613E+02  0.71625282888E+02  0.00000000000E+00 0.  1.
          5    1    3    3  502    0  0.83967202646E+01  0.15446678277E+02 -0.12410700936E+03  0.12543422401E+03  0.47000000000E+01 0. -1.
         11    1    6    6    0    0 -0.82464417383E+00 -0.18522372281E+02  0.92685327080E+02  0.94521575150E+02  0.00000000000E+00 0. -1.
        -12    1    6    6    0    0  0.25382637463E+02  0.90659332707E+02  0.39676836816E+03  0.40778490760E+03  0.00000000000E+00 0.  1.
         -5    1    5    5    0  503 -0.99404468404E+00 -0.10894588001E+02 -0.76228688230E+01  0.14137832282E+02  0.47000000000E+01 0.  1.
<mgrwt>
<rscale>  2 0.18557160E+03</rscale>
<asrwt>0</asrwt>
<pdfrwt beam="1">  1       21 0.83187448E-01 0.18588648E+03</pdfrwt>
<pdfrwt beam="2">  1       21 0.34193631E-01 0.18588648E+03</pdfrwt>
<totfact> 0.10421921E+04</totfact>
</mgrwt>
</event>
<event>
12    1  0.1441827E-001  0.2078452E+03  0.7546771E-02  0.1143478E+00
         21   -1    0    0  504  503  0.00000000000E+00  0.00000000000E+00  0.70010545163E+02  0.70010545163E+02  0.00000000000E+00 0.  1.
         21   -1    0    0  502  504 -0.00000000000E+00 -0.00000000000E+00 -0.61883394435E+03  0.61883394435E+03  0.00000000000E+00 0.  1.
          6    2    1    2  502    0  0.59320395822E+02 -0.96059480603E+02 -0.24390140777E+03  0.31982274445E+03  0.17335615935E+03 0.  0.
         24    2    3    3    0    0 -0.29842045179E+02 -0.41962614547E+02 -0.15291122615E+03  0.18133911743E+03  0.82768494897E+02 0.  0.
         -6    2    1    2    0  503 -0.59320395822E+02  0.96059480603E+02 -0.30492199142E+03  0.36902174506E+03  0.17450872271E+03 0.  0.
        -24    2    5    5    0    0  0.33367645772E+02  0.61555283902E+02 -0.12169426286E+03  0.16075244065E+03  0.78290489862E+02 0.  0.
          2    1    4    4  501    0 -0.43914871437E+02 -0.79678915026E+01 -0.13127890500E+03  0.13865840806E+03  0.00000000000E+00 0. -1.
         -1    1    4    4    0  501  0.14072826258E+02 -0.33994723045E+02 -0.21632321148E+02  0.42680709366E+02  0.00000000000E+00 0.  1.
          5    1    3    3  502    0  0.89162441001E+02 -0.54096866056E+02 -0.90990181618E+02  0.13848362702E+03  0.47000000000E+01 0. -1.
         13    1    6    6    0    0  0.24789868157E+01  0.39978450882E+00 -0.81052837438E+02  0.81091723745E+02  0.00000000000E+00 0. -1.
        -14    1    6    6    0    0  0.30888658956E+02  0.61155499393E+02 -0.40641425420E+02  0.79660716908E+02  0.00000000000E+00 0.  1.
         -5    1    5    5    0  503 -0.92688041593E+02  0.34504196702E+02 -0.18322772856E+03  0.20826930441E+03  0.47000000000E+01 0.  1.
<mgrwt>
<rscale>  2 0.20760309E+03</rscale>
<asrwt>0</asrwt>
<pdfrwt beam="1">  1       21 0.10770853E-01 0.20784520E+03</pdfrwt>
<pdfrwt beam="2">  1       21 0.95205226E-01 0.20784520E+03</pdfrwt>
<totfact> 0.65100507E+04</totfact>
</mgrwt>
</event>
<event>
12    1  0.1441827E-001  0.2086761E+03  0.7546771E-02  0.1142682E+00
         21   -1    0    0  504  503  0.00000000000E+00  0.00000000000E+00  0.44019871406E+02  0.44019871406E+02  0.00000000000E+00 0.  1.
         21   -1    0    0  502  504 -0.00000000000E+00 -0.00000000000E+00 -0.11382012332E+04  0.11382012332E+04  0.00000000000E+00 0.  1.
          6    2    1    2  502    0  0.84255274944E+02  0.78718430337E+02 -0.76165808695E+03  0.78964318007E+03  0.17354471406E+03 0.  0.
         24    2    3    3    0    0  0.14394361676E+02  0.10208600772E+03 -0.56077182132E+03  0.57562455332E+03  0.79055930707E+02 0.  0.
         -6    2    1    2    0  503 -0.84255274944E+02 -0.78718430337E+02 -0.33252327486E+03  0.39257792456E+03  0.17392571947E+03 0.  0.
        -24    2    5    5    0    0  0.14031259758E+02 -0.61838181874E+01 -0.10795658013E+03  0.13689491135E+03  0.82767612630E+02 0.  0.
          4    1    4    4  501    0  0.11659114093E+02  0.32477453231E+02 -0.53976642283E+02  0.64064013471E+02  0.00000000000E+00 0. -1.
         -3    1    4    4    0  501  0.27352475825E+01  0.69608554485E+02 -0.50679517903E+03  0.51156053985E+03  0.00000000000E+00 0.  1.
          5    1    3    3  502    0  0.69860913269E+02 -0.23367577379E+02 -0.20088626564E+03  0.21401862675E+03  0.47000000000E+01 0. -1.
         11    1    6    6    0    0  0.96635691643E+01  0.47140378748E+01 -0.11976297694E+03  0.12024465629E+03  0.00000000000E+00 0. -1.
        -12    1    6    6    0    0  0.43676905938E+01 -0.10897856062E+02  0.11806396803E+02  0.16650255054E+02  0.00000000000E+00 0.  1.
         -5    1    5    5    0  503 -0.98286534702E+02 -0.72534612150E+02 -0.22456669473E+03  0.25568301321E+03  0.47000000000E+01 0.  1.
<mgrwt>
<rscale>  2 0.20859665E+03</rscale>
<asrwt>0</asrwt>
<pdfrwt beam="1">  1       21 0.67722876E-02 0.20867606E+03</pdfrwt>
<pdfrwt beam="2">  1       21 0.17510789E+00 0.20867606E+03</pdfrwt>
<totfact> 0.31154205E+04</totfact>
</mgrwt>
</event>
<event>
12    1  0.1441827E-001  0.2318845E+03  0.7546771E-02  0.1125347E+00
         21   -1    0    0  504  503  0.00000000000E+00  0.00000000000E+00  0.53532637332E+02  0.53532637332E+02  0.00000000000E+00 0. -1.
         21   -1    0    0  502  504 -0.00000000000E+00 -0.00000000000E+00 -0.14668596689E+04  0.14668596689E+04  0.00000000000E+00 0. -1.
          6    2    1    2  502    0 -0.14248854919E+03 -0.58700466105E+02 -0.11339498702E+04  0.11574164094E+04  0.17326772708E+03 0.  0.
         24    2    3    3    0    0 -0.21334304751E+02 -0.70446735495E+02 -0.54851378292E+03  0.55944163729E+03  0.81790466295E+02 0.  0.
         -6    2    1    2    0  503  0.14248854919E+03  0.58700466105E+02 -0.27937716141E+03  0.36297589687E+03  0.17306406912E+03 0.  0.
        -24    2    5    5    0    0  0.16232416643E+03  0.18046846739E+02 -0.19365415738E+03  0.26593625602E+03  0.80903250301E+02 0.  0.
          2    1    4    4  501    0 -0.87967049511E+01 -0.59636606327E+02 -0.53410116575E+03  0.53749229026E+03  0.00000000000E+00 0. -1.
         -1    1    4    4    0  501 -0.12537599800E+02 -0.10810129167E+02 -0.14412617174E+02  0.21949347033E+02  0.00000000000E+00 0.  1.
          5    1    3    3  502    0 -0.12115424444E+03  0.11746269390E+02 -0.58543608727E+03  0.59797477210E+03  0.47000000000E+01 0. -1.
         11    1    6    6    0    0  0.85088805632E+02  0.60249386725E+01 -0.41461563954E+02  0.94844430598E+02  0.00000000000E+00 0. -1.
        -12    1    6    6    0    0  0.77235360794E+02  0.12021908067E+02 -0.15219259343E+03  0.17109182542E+03  0.00000000000E+00 0.  1.
         -5    1    5    5    0  503 -0.19835617231E+02  0.40653619366E+02 -0.85723004023E+02  0.97039640855E+02  0.47000000000E+01 0.  1.
<mgrwt>
<rscale>  2 0.23184649E+03</rscale>
<asrwt>0</asrwt>
<pdfrwt beam="1">  1       21 0.82357928E-02 0.23188453E+03</pdfrwt>
<pdfrwt beam="2">  1       21 0.22567065E+00 0.23188453E+03</pdfrwt>
<totfact> 0.10254482E+04</totfact>
</mgrwt>
</event>
<event>
12    1  0.1441827E-001  0.1949688E+03  0.7546771E-02  0.1157480E+00
         21   -1    0    0  504  503  0.00000000000E+00  0.00000000000E+00  0.85520758132E+02  0.85520758132E+02  0.00000000000E+00 0.  1.
         21   -1    0    0  502  504 -0.00000000000E+00 -0.00000000000E+00 -0.54075895172E+03  0.54075895172E+03  0.00000000000E+00 0.  1.
          6    2    1    2  502    0 -0.85801815831E+02  0.22919174275E+02 -0.37407174397E+03  0.41509065841E+03  0.15647154666E+03 0.  0.
         24    2    3    3    0    0 -0.20732941944E+02 -0.10982680266E+02 -0.29741389449E+03  0.30887479342E+03  0.79988369300E+02 0.  0.
         -6    2    1    2    0  503  0.85801815831E+02 -0.22919174275E+02 -0.81166449613E+02  0.21118905143E+03  0.17356722834E+03 0.  0.
        -24    2    5    5    0    0  0.36170045222E+02  0.26882687952E+02  0.12576105686E+02  0.93914609167E+02  0.81429996303E+02 0.  0.
          4    1    4    4  501    0 -0.21152405557E+02 -0.43358840618E+02 -0.21460593016E+03  0.21996162979E+03  0.00000000000E+00 0. -1.
         -3    1    4    4    0  501  0.41946361337E+00  0.32376160353E+02 -0.82807964335E+02  0.88913163627E+02  0.00000000000E+00 0.  1.
          5    1    3    3  502    0 -0.65068873887E+02  0.33901854541E+02 -0.76657849477E+02  0.10621586500E+03  0.47000000000E+01 0. -1.
         11    1    6    6    0    0  0.95426952931E+01  0.31273735874E+02 -0.29426862197E+02  0.43989201036E+02  0.00000000000E+00 0. -1.
        -12    1    6    6    0    0  0.26627349929E+02 -0.43910479221E+01  0.42002967883E+02  0.49925408131E+02  0.00000000000E+00 0.  1.
         -5    1    5    5    0  503  0.49631770609E+02 -0.49801862227E+02 -0.93742555299E+02  0.11727444227E+03  0.47000000000E+01 0.  1.
<mgrwt>
<rscale>  2 0.19109205E+03</rscale>
<asrwt>0</asrwt>
<pdfrwt beam="1">  1       21 0.13157040E-01 0.19496877E+03</pdfrwt>
<pdfrwt beam="2">  1       21 0.83193683E-01 0.19496877E+03</pdfrwt>
<totfact> 0.62534331E+04</totfact>
</mgrwt>
</event>
<event>
12    1  0.1441827E-001  0.1889782E+03  0.7546771E-02  0.1159542E+00
         21   -1    0    0  504  503  0.00000000000E+00  0.00000000000E+00  0.21183169914E+03  0.21183169914E+03  0.00000000000E+00 0. -1.
         21   -1    0    0  502  504 -0.00000000000E+00 -0.00000000000E+00 -0.20020564081E+03  0.20020564081E+03  0.00000000000E+00 0.  1.
          6    2    1    2  502    0 -0.26462266254E+02  0.71645844757E+02  0.88476703613E+02  0.20866450886E+03  0.17285650571E+03 0.  0.
         24    2    3    3    0    0 -0.58086809056E+02 -0.13078228494E+01  0.17078278662E+02  0.10169640889E+03  0.81698862860E+02 0.  0.
         -6    2    1    2    0  503  0.26462266254E+02 -0.71645844757E+02 -0.76850645275E+02  0.20337283109E+03  0.17210783870E+03 0.  0.
        -24    2    5    5    0    0  0.13697463845E+02  0.23264214956E+02 -0.62487542183E+02  0.10642311038E+03  0.81806731275E+02 0.  0.
          4    1    4    4  501    0 -0.33213201795E+01 -0.26620659207E+02 -0.17621672706E+02  0.32096947103E+02  0.00000000000E+00 0. -1.
         -3    1    4    4    0  501 -0.54765488876E+02  0.25312836358E+02  0.34699951368E+02  0.69599461789E+02  0.00000000000E+00 0.  1.
          5    1    3    3  502    0  0.31624542801E+02  0.72953667607E+02  0.71398424951E+02  0.10696809997E+03  0.47000000000E+01 0. -1.
         11    1    6    6    0    0  0.30615009607E+01 -0.11855442640E+01  0.19724309571E+02  0.19995666816E+02  0.00000000000E+00 0. -1.
        -12    1    6    6    0    0  0.10635962884E+02  0.24449759220E+02 -0.82211851754E+02  0.86427443565E+02  0.00000000000E+00 0.  1.
         -5    1    5    5    0  503  0.12764802409E+02 -0.94910059713E+02 -0.14363103093E+02  0.96949720710E+02  0.47000000000E+01 0.  1.
<mgrwt>
<rscale>  2 0.18880680E+03</rscale>
<asrwt>0</asrwt>
<pdfrwt beam="1">  1       21 0.32589492E-01 0.18897817E+03</pdfrwt>
<pdfrwt beam="2">  1       21 0.30800868E-01 0.18897817E+03</pdfrwt>
<totfact> 0.91849966E+04</totfact>
</mgrwt>
</event>
<event>
12    1  0.1441827E-001  0.2006638E+03  0.7546771E-02  0.1149375E+00
         21   -1    0    0  504  503  0.00000000000E+00  0.00000000000E+00  0.11009328853E+04  0.11009328853E+04  0.00000000000E+00 0. -1.
         21   -1    0    0  502  504 -0.00000000000E+00 -0.00000000000E+00 -0.55581310359E+02  0.55581310359E+02  0.00000000000E+00 0. -1.
          6    2    1    2  502    0 -0.86417817494E+02  0.53556914275E+02  0.18223410926E+03  0.27037778486E+03  0.17192583784E+03 0.  0.
         24    2    3    3    0    0 -0.49082930876E+02 -0.22974279680E+02  0.40344006799E+02  0.10483078674E+03  0.80155494722E+02 0.  0.
         -6    2    1    2    0  503  0.86417817494E+02 -0.53556914275E+02  0.86311746563E+03  0.88613641076E+03  0.17300172469E+03 0.  0.
        -24    2    5    5    0    0  0.78122857631E+02 -0.87824951664E+02  0.46546197943E+03  0.48689327625E+03  0.81202248390E+02 0.  0.
          2    1    4    4  501    0 -0.40318910688E+02 -0.45496029002E+02  0.36585848087E+01  0.60900644141E+02  0.00000000000E+00 0. -1.
         -1    1    4    4    0  501 -0.87640201879E+01  0.22521749321E+02  0.36685421990E+02  0.43930142601E+02  0.00000000000E+00 0.  1.
          5    1    3    3  502    0 -0.37334886618E+02  0.76531193955E+02  0.14189010246E+03  0.16554699811E+03  0.47000000000E+01 0. -1.
         13    1    6    6    0    0  0.37498359987E+02 -0.29928279967E+02  0.33567079456E+03  0.33908216005E+03  0.00000000000E+00 0. -1.
        -14    1    6    6    0    0  0.40624497644E+02 -0.57896671696E+02  0.12979118487E+03  0.14781111620E+03  0.00000000000E+00 0.  1.
         -5    1    5    5    0  503  0.82949598629E+01  0.34268037389E+02  0.39765548620E+03  0.39924313450E+03  0.47000000000E+01 0.  1.
<mgrwt>
<rscale>  2 0.20043174E+03</rscale>
<asrwt>0</asrwt>
<pdfrwt beam="1">  1       21 0.16937427E+00 0.20066385E+03</pdfrwt>
<pdfrwt beam="2">  1       21 0.85509716E-02 0.20066385E+03</pdfrwt>
<totfact> 0.22903129E+04</totfact>
</mgrwt>
</event>
<event>
12    1  0.1441827E-001  0.3226475E+03  0.7546771E-02  0.1074447E+00
         21   -1    0    0  504  503  0.00000000000E+00  0.00000000000E+00  0.11348377140E+03  0.11348377140E+03  0.00000000000E+00 0.  1.
         21   -1    0    0  502  504 -0.00000000000E+00 -0.00000000000E+00 -0.10234388370E+04  0.10234388370E+04  0.00000000000E+00 0.  1.
          6    2    1    2  502    0 -0.21084771665E+03 -0.17234624820E+03 -0.63818181033E+03  0.71506708863E+03  0.17287258119E+03 0.  0.
         24    2    3    3    0    0 -0.18188233154E+03 -0.85026053461E+02 -0.34536223015E+03  0.40809932733E+03  0.83422890493E+02 0.  0.
         -6    2    1    2    0  503  0.21084771665E+03  0.17234624820E+03 -0.27177325529E+03  0.42185551979E+03  0.17303580092E+03 0.  0.
        -24    2    5    5    0    0  0.91887468148E+02  0.83858281527E+02 -0.22001952424E+03  0.26474982400E+03  0.78793147430E+02 0.  0.
          2    1    4    4  501    0 -0.35997563295E+02  0.15843596030E+02 -0.50549754719E+02  0.64047808710E+02  0.00000000000E+00 0. -1.
         -1    1    4    4    0  501 -0.14588476825E+03 -0.10086964949E+03 -0.29481247543E+03  0.34405151862E+03  0.00000000000E+00 0.  1.
          5    1    3    3  502    0 -0.28965385110E+02 -0.87320194742E+02 -0.29281958018E+03  0.30696776130E+03  0.47000000000E+01 0. -1.
         11    1    6    6    0    0  0.28706779230E+02 -0.71253742804E+01 -0.18772597281E+02  0.35032278560E+02  0.00000000000E+00 0. -1.
        -12    1    6    6    0    0  0.63180688918E+02  0.90983655808E+02 -0.20124692695E+03  0.22971754544E+03  0.00000000000E+00 0.  1.
         -5    1    5    5    0  503  0.11896024850E+03  0.88487966676E+02 -0.51753731057E+02  0.15710569579E+03  0.47000000000E+01 0.  1.
<mgrwt>
<rscale>  2 0.32262557E+03</rscale>
<asrwt>0</asrwt>
<pdfrwt beam="1">  1       21 0.17459042E-01 0.32264745E+03</pdfrwt>
<pdfrwt beam="2">  1       21 0.15745212E+00 0.32264745E+03</pdfrwt>
<totfact> 0.71926845E+03</totfact>
</mgrwt>
</event>
<event>
12    1  0.1441827E-001  0.2195444E+03  0.7546771E-02  0.1134228E+00
         21   -1    0    0  504  503  0.00000000000E+00  0.00000000000E+00  0.19464357574E+03  0.19464357574E+03  0.00000000000E+00 0.  1.
         21   -1    0    0  502  504 -0.00000000000E+00 -0.00000000000E+00 -0.26071192802E+03  0.26071192802E+03  0.00000000000E+00 0.  1.
          6    2    1    2  502    0 -0.42858590422E+02  0.12791998632E+03  0.18022263837E+02  0.22025766227E+03  0.17317117001E+03 0.  0.
         24    2    3    3    0    0 -0.62287505566E+02  0.11637650795E+03  0.65390980348E+02  0.16756401996E+03  0.79865483917E+02 0.  0.
         -6    2    1    2    0  503  0.42858590422E+02 -0.12791998632E+03 -0.84090616116E+02  0.23509784149E+03  0.17320329582E+03 0.  0.
        -24    2    5    5    0    0  0.87853927301E+02 -0.12517850505E+03 -0.56755827611E+02  0.18216980806E+03  0.81096512455E+02 0.  0.
          2    1    4    4  501    0 -0.56592775359E+02  0.24845591474E+02  0.34557830720E+02  0.70811646659E+02  0.00000000000E+00 0. -1.
         -1    1    4    4    0  501 -0.56947302069E+01  0.91530916473E+02  0.30833149628E+02  0.96752373296E+02  0.00000000000E+00 0.  1.
          5    1    3    3  502    0  0.19428915144E+02  0.11543478373E+02 -0.47368716511E+02  0.52693642316E+02  0.47000000000E+01 0. -1.
         13    1    6    6    0    0  0.15965344814E+02  0.41083442266E+01  0.10629991584E+02  0.19615490012E+02  0.00000000000E+00 0. -1.
        -14    1    6    6    0    0  0.71888582487E+02 -0.12928684928E+03 -0.67385819195E+02  0.16255431805E+03  0.00000000000E+00 0.  1.
         -5    1    5    5    0  503 -0.44995336879E+02 -0.27414812697E+01 -0.27334788506E+02  0.52928033432E+02  0.47000000000E+01 0.  1.
<mgrwt>
<rscale>  2 0.21953811E+03</rscale>
<asrwt>0</asrwt>
<pdfrwt beam="1">  1       21 0.29945166E-01 0.21954445E+03</pdfrwt>
<pdfrwt beam="2">  1       21 0.40109527E-01 0.21954445E+03</pdfrwt>
<totfact> 0.63298732E+04</totfact>
</mgrwt>
</event>
<event>
12    1  0.1441827E-001  0.2469115E+03  0.7546771E-02  0.1115283E+00
         21   -1    0    0  504  503  0.00000000000E+00  0.00000000000E+00  0.16999926974E+03  0.16999926974E+03  0.00000000000E+00 0. -1.
         21   -1    0    0  502  504 -0.00000000000E+00 -0.00000000000E+00 -0.18403557846E+04  0.18403557846E+04  0.00000000000E+00 0.  1.
          6    2    1    2  502    0  0.13823114347E+02 -0.17529934209E+03 -0.17371243033E+04  0.17545754572E+04  0.17324333196E+03 0.  0.
         24    2    3    3    0    0  0.75598884989E+02 -0.10568902374E+03 -0.11465369879E+04  0.11566813952E+04  0.80494870880E+02 0.  0.
         -6    2    1    2    0  503 -0.13823114347E+02  0.17529934209E+03  0.66767788471E+02  0.25577959712E+03  0.17333299425E+03 0.  0.
        -24    2    5    5    0    0 -0.35685764377E-02  0.33825480263E+02  0.71334376466E+02  0.11348139912E+03  0.81518535031E+02 0.  0.
          2    1    4    4  501    0  0.52876566324E+02 -0.54257217138E+02 -0.34722148083E+03  0.35539067747E+03  0.00000000000E+00 0. -1.
         -1    1    4    4    0  501  0.22722318665E+02 -0.51431806601E+02 -0.79931550706E+03  0.80129071773E+03  0.00000000000E+00 0.  1.
          5    1    3    3  502    0 -0.61775770642E+02 -0.69610318351E+02 -0.59058731542E+03  0.59789406202E+03  0.47000000000E+01 0. -1.
         11    1    6    6    0    0  0.37633904411E+02  0.17669266625E+02  0.15799762145E+02  0.44476355832E+02  0.00000000000E+00 0. -1.
        -12    1    6    6    0    0 -0.37637472987E+02  0.16156213638E+02  0.55534614321E+02  0.69005043292E+02  0.00000000000E+00 0.  1.
         -5    1    5    5    0  503 -0.13819545771E+02  0.14147386183E+03 -0.45665879954E+01  0.14229819799E+03  0.47000000000E+01 0.  1.
<mgrwt>
<rscale>  2 0.24689572E+03</rscale>
<asrwt>0</asrwt>
<pdfrwt beam="1">  1       21 0.26153735E-01 0.24691145E+03</pdfrwt>
<pdfrwt beam="2">  1       21 0.28313165E+00 0.24691145E+03</pdfrwt>
<totfact> 0.55492072E+02</totfact>
</mgrwt>
</event>
<event>
12    1  0.1441827E-001  0.3032857E+03  0.7546771E-02  0.1083649E+00
         21   -1    0    0  504  503  0.00000000000E+00  0.00000000000E+00  0.19594675870E+03  0.19594675870E+03  0.00000000000E+00 0. -1.
         21   -1    0    0  502  504 -0.00000000000E+00 -0.00000000000E+00 -0.94682259107E+03  0.94682259107E+03  0.00000000000E+00 0.  1.
          6    2    1    2  502    0 -0.58434935097E+02  0.24133101652E+03 -0.78127839540E+03  0.83796360823E+03  0.17358506967E+03 0.  0.
         24    2    3    3    0    0 -0.52800375146E+02  0.13088698121E+03 -0.27059110347E+03  0.31541865003E+03  0.79687502404E+02 0.  0.
         -6    2    1    2    0  503  0.58434935097E+02 -0.24133101652E+03  0.30402563034E+02  0.30480574155E+03  0.17414626918E+03 0.  0.
        -24    2    5    5    0    0  0.66936483098E+02 -0.10329906397E+03  0.66006252448E+02  0.16192534071E+03  0.81925583405E+02 0.  0.
          2    1    4    4  501    0 -0.10961705795E+02  0.17383185471E+02 -0.17621331203E+01  0.20626178614E+02  0.00000000000E+00 0. -1.
         -1    1    4    4    0  501 -0.41838669350E+02  0.11350379574E+03 -0.26882897035E+03  0.29479247141E+03  0.00000000000E+00 0.  1.
          5    1    3    3  502    0 -0.56345599510E+01  0.11044403531E+03 -0.51068729193E+03  0.52254495820E+03  0.47000000000E+01 0. -1.
         11    1    6    6    0    0  0.85630753244E+02 -0.86534573319E+02  0.61575222345E+02  0.13642714645E+03  0.00000000000E+00 0. -1.
        -12    1    6    6    0    0 -0.18694270146E+02 -0.16764490652E+02  0.44310301025E+01  0.25498194267E+02  0.00000000000E+00 0.  1.
         -5    1    5    5    0  503 -0.85015480019E+01 -0.13803195255E+03 -0.35603689414E+02  0.14288040084E+03  0.47000000000E+01 0.  1.
<mgrwt>
<rscale>  2 0.30320521E+03</rscale>
<asrwt>0</asrwt>
<pdfrwt beam="1">  1       21 0.30145656E-01 0.30328571E+03</pdfrwt>
<pdfrwt beam="2">  1       21 0.14566501E+00 0.30328571E+03</pdfrwt>
<totfact> 0.31471706E+03</totfact>
</mgrwt>
</event>
<event>
12    1  0.1441827E-001  0.2239965E+03  0.7546771E-02  0.1132605E+00
         21   -1    0    0  504  503  0.00000000000E+00  0.00000000000E+00  0.15415264738E+04  0.15415264738E+04  0.00000000000E+00 0.  1.
         21   -1    0    0  502  504 -0.00000000000E+00 -0.00000000000E+00 -0.17060702739E+03  0.17060702739E+03  0.00000000000E+00 0.  1.
          6    2    1    2  502    0 -0.12757582430E+03 -0.75085993203E+01 -0.85622156039E+02  0.23980322379E+03  0.18396320971E+03 0.  0.
         24    2    3    3    0    0 -0.93105900625E+01  0.41877232608E+02 -0.86344591227E+01  0.90221067431E+02  0.78898019150E+02 0.  0.
         -6    2    1    2    0  503  0.12757582430E+03  0.75085993203E+01  0.14565416024E+04  0.14723302774E+04  0.17294807331E+03 0.  0.
        -24    2    5    5    0    0  0.14723659921E+03  0.42999866505E+02  0.11172832590E+04  0.11306220835E+04  0.80354280437E+02 0.  0.
          4    1    4    4  501    0  0.24157429741E+02  0.32351537022E+02 -0.29175125630E+02  0.49813565571E+02  0.00000000000E+00 0. -1.
         -3    1    4    4    0  501 -0.33468019804E+02  0.95256955867E+01  0.20540666508E+02  0.40407501860E+02  0.00000000000E+00 0.  1.
          5    1    3    3  502    0 -0.11826523424E+03 -0.49385831929E+02 -0.76987696916E+02  0.14958215636E+03  0.47000000000E+01 0. -1.
         11    1    6    6    0    0  0.50903759553E+02  0.52810803176E+02  0.38074082449E+03  0.38774185884E+03  0.00000000000E+00 0. -1.
        -12    1    6    6    0    0  0.96332839659E+02 -0.98109366708E+01  0.73654243447E+03  0.74288022470E+03  0.00000000000E+00 0.  1.
         -5    1    5    5    0  503 -0.19660774912E+02 -0.35491267185E+02  0.33925834345E+03  0.34170819381E+03  0.47000000000E+01 0.  1.
<mgrwt>
<rscale>  2 0.22172348E+03</rscale>
<asrwt>0</asrwt>
<pdfrwt beam="1">  1       21 0.23715791E+00 0.22399650E+03</pdfrwt>
<pdfrwt beam="2">  1       21 0.26247236E-01 0.22399650E+03</pdfrwt>
<totfact> 0.10551344E+03</totfact>
</mgrwt>
</event>
<event>
12    1  0.1441827E-001  0.2927223E+03  0.7546771E-02  0.1089511E+00
         21   -1    0    0  504  503  0.00000000000E+00  0.00000000000E+00  0.45858625427E+03  0.45858625427E+03  0.00000000000E+00 0. -1.
         21   -1    0    0  502  504 -0.00000000000E+00 -0.00000000000E+00 -0.19424541807E+03  0.19424541807E+03  0.00000000000E+00 0.  1.
          6    2    1    2  502    0 -0.22474659702E+03  0.72129041133E+02  0.56388382144E+02  0.29376264847E+03  0.16553915715E+03 0.  0.
         24    2    3    3    0    0 -0.10695966248E+03  0.84262538308E+02 -0.89223325280E+01  0.15845350926E+03  0.80544160684E+02 0.  0.
         -6    2    1    2    0  503  0.22474659702E+03 -0.72129041133E+02  0.20795245406E+03  0.35906902387E+03  0.17312628138E+03 0.  0.
        -24    2    5    5    0    0  0.83512383882E+02  0.10563063147E+02  0.14166385539E+03  0.18242996990E+03  0.78269722313E+02 0.  0.
          2    1    4    4  501    0  0.24992572026E+01  0.14162817376E+02 -0.23609321701E+02  0.27644741883E+02  0.00000000000E+00 0. -1.
         -1    1    4    4    0  501 -0.10945891968E+03  0.70099720931E+02  0.14686989173E+02  0.13080876738E+03  0.00000000000E+00 0.  1.
          5    1    3    3  502    0 -0.11778693454E+03 -0.12133497174E+02  0.65310714672E+02  0.13530913921E+03  0.47000000000E+01 0. -1.
         13    1    6    6    0    0  0.48756674994E+02  0.18272565898E+02  0.13695568981E+03  0.14651949015E+03  0.00000000000E+00 0. -1.
        -14    1    6    6    0    0  0.34755708889E+02 -0.77095027507E+01  0.47081655704E+01  0.35910479752E+02  0.00000000000E+00 0.  1.
         -5    1    5    5    0  503  0.14123421314E+03 -0.82692104280E+02  0.66288598673E+02  0.17663905397E+03  0.47000000000E+01 0.  1.
<mgrwt>
<rscale>  2 0.29161038E+03</rscale>
<asrwt>0</asrwt>
<pdfrwt beam="1">  1       21 0.70551731E-01 0.29272229E+03</pdfrwt>
<pdfrwt beam="2">  1       21 0.29883911E-01 0.29272229E+03</pdfrwt>
<totfact> 0.18578838E+04</totfact>
</mgrwt>
</event>
<event>
12    1  0.1441827E-001  0.1761967E+03  0.7546771E-02  0.1172211E+00
         21   -1    0    0  504  503  0.00000000000E+00  0.00000000000E+00  0.17017853011E+04  0.17017853011E+04  0.00000000000E+00 0.  1.
         21   -1    0    0  502  504 -0.00000000000E+00 -0.00000000000E+00 -0.24758781106E+02  0.24758781106E+02  0.00000000000E+00 0.  1.
          6    2    1    2  502    0 -0.15574370861E+02  0.22381164017E+02  0.39100188874E+03  0.42886800685E+03  0.17407415883E+03 0.  0.
         24    2    3    3    0    0  0.35960929289E+02  0.67428689767E+02  0.26760730944E+03  0.28768203396E+03  0.72852343571E+02 0.  0.
         -6    2    1    2    0  503  0.15574370861E+02 -0.22381164017E+02  0.12860246312E+04  0.12976760753E+04  0.17134867034E+03 0.  0.
        -24    2    5    5    0    0  0.43625299331E+02  0.34303794714E+02  0.81715836189E+03  0.82454004028E+03  0.95071407652E+02 0.  0.
          2    1    4    4  501    0  0.33742902914E+02  0.18920838453E+02  0.20411952460E+03  0.20775312741E+03  0.00000000000E+00 0. -1.
         -1    1    4    4    0  501  0.22180263745E+01  0.48507851313E+02  0.63487784835E+02  0.79928906557E+02  0.00000000000E+00 0.  1.
          5    1    3    3  502    0 -0.51535300150E+02 -0.45047525750E+02  0.12339457930E+03  0.14118597288E+03  0.47000000000E+01 0. -1.
         13    1    6    6    0    0 -0.29895368794E+01  0.12344267190E+02  0.11193432929E+02  0.16929595504E+02  0.00000000000E+00 0. -1.
        -14    1    6    6    0    0  0.46614836211E+02  0.21959527525E+02  0.80596492896E+03  0.80761044478E+03  0.00000000000E+00 0.  1.
         -5    1    5    5    0  503 -0.28050928470E+02 -0.56684958731E+02  0.46886626935E+03  0.47313603505E+03  0.47000000000E+01 0.  1.
<mgrwt>
<rscale>  2 0.17551981E+03</rscale>
<asrwt>0</asrwt>
<pdfrwt beam="1">  1       21 0.26181303E+00 0.17619674E+03</pdfrwt>
<pdfrwt beam="2">  1       21 0.38090446E-02 0.17619674E+03</pdfrwt>
<totfact> 0.24483848E+04</totfact>
</mgrwt>
</event>
<event>
12    1  0.1441827E-001  0.2768066E+03  0.7546771E-02  0.1097724E+00
         21   -1    0    0  504  503  0.00000000000E+00  0.00000000000E+00  0.15961071704E+04  0.15961071704E+04  0.00000000000E+00 0.  1.
         21   -1    0    0  502  504 -0.00000000000E+00 -0.00000000000E+00 -0.99359378005E+02  0.99359378005E+02  0.00000000000E+00 0. -1.
          6    2    1    2  502    0  0.32610717165E+02  0.21231230338E+03  0.13557206949E+03  0.30643045822E+03  0.17140556192E+03 0.  0.
         24    2    3    3    0    0  0.19533831405E+01  0.45374794846E+02  0.46499869397E+01  0.92022702798E+02  0.79899109748E+02 0.  0.
         -6    2    1    2    0  503 -0.32610717165E+02 -0.21231230338E+03  0.13611757229E+04  0.13890360902E+04  0.17459077345E+03 0.  0.
        -24    2    5    5    0    0 -0.59839949329E+02 -0.52707749255E+02  0.65185920468E+03  0.66145993760E+03  0.79056308793E+02 0.  0.
          2    1    4    4  501    0 -0.22772203374E+02  0.45330468042E+02 -0.22330412727E+02  0.55426274563E+02  0.00000000000E+00 0. -1.
         -1    1    4    4    0  501  0.24725586514E+02  0.44326804234E-01  0.26980399667E+02  0.36596428234E+02  0.00000000000E+00 0.  1.
          5    1    3    3  502    0  0.30657334025E+02  0.16693750854E+03  0.13092208255E+03  0.21440775542E+03  0.47000000000E+01 0. -1.
         11    1    6    6    0    0 -0.58144715949E+02 -0.80428750380E+01  0.23535886561E+03  0.24256811714E+03  0.00000000000E+00 0. -1.
        -12    1    6    6    0    0 -0.16952333798E+01 -0.44664874217E+02  0.41650033906E+03  0.41889182046E+03  0.00000000000E+00 0.  1.
         -5    1    5    5    0  503  0.27229232164E+02 -0.15960455413E+03  0.70931651822E+03  0.72757615258E+03  0.47000000000E+01 0.  1.
<mgrwt>
<rscale>  2 0.27630580E+03</rscale>
<asrwt>0</asrwt>
<pdfrwt beam="1">  1       21 0.24555493E+00 0.27680663E+03</pdfrwt>
<pdfrwt beam="2">  1       21 0.15286059E-01 0.27680663E+03</pdfrwt>
<totfact> 0.24749915E+03</totfact>
</mgrwt>
</event>
<event>
12    1  0.1441827E-001  0.1862490E+03  0.7546771E-02  0.1163217E+00
         21   -1    0    0  504  503  0.00000000000E+00  0.00000000000E+00  0.86135095754E+02  0.86135095754E+02  0.00000000000E+00 0. -1.
         21   -1    0    0  502  504 -0.00000000000E+00 -0.00000000000E+00 -0.40959428742E+03  0.40959428742E+03  0.00000000000E+00 0. -1.
          6    2    1    2  502    0  0.49196139577E+02  0.47450558484E+02 -0.21745771691E+03  0.28631548439E+03  0.17325380893E+03 0.  0.
         24    2    3    3    0    0  0.60410203997E+02  0.88652936861E+02 -0.20027862115E+03  0.24004883813E+03  0.77480208045E+02 0.  0.
         -6    2    1    2    0  503 -0.49196139577E+02 -0.47450558484E+02 -0.10600147475E+03  0.20941389878E+03  0.16717072921E+03 0.  0.
        -24    2    5    5    0    0  0.16274973427E+02 -0.43727147261E+02 -0.12885904352E+02  0.95427365017E+02  0.82239876553E+02 0.  0.
          4    1    4    4  501    0  0.55351836848E+02  0.46023381742E+02 -0.17730161607E+03  0.19135788610E+03  0.00000000000E+00 0. -1.
         -3    1    4    4    0  501  0.50583671489E+01  0.42629555119E+02 -0.22977005075E+02  0.48690952035E+02  0.00000000000E+00 0.  1.
          5    1    3    3  502    0 -0.11214064420E+02 -0.41202378377E+02 -0.17179095764E+02  0.46266646258E+02  0.47000000000E+01 0. -1.
         13    1    6    6    0    0  0.32324193215E+02  0.23219928596E+01  0.18613899743E+02  0.37372749183E+02  0.00000000000E+00 0. -1.
        -14    1    6    6    0    0 -0.16049219788E+02 -0.46049140121E+02 -0.31499804095E+02  0.58054615835E+02  0.00000000000E+00 0.  1.
         -5    1    5    5    0  503 -0.65471113004E+02 -0.37234112232E+01 -0.93115570401E+02  0.11398653377E+03  0.47000000000E+01 0.  1.
<mgrwt>
<rscale>  2 0.18482148E+03</rscale>
<asrwt>0</asrwt>
<pdfrwt beam="1">  1       21 0.13251553E-01 0.18624902E+03</pdfrwt>
<pdfrwt beam="2">  1       21 0.63014505E-01 0.18624902E+03</pdfrwt>
<totfact> 0.11474814E+05</totfact>
</mgrwt>
</event>
<event>
12    1  0.1441827E-001  0.2370699E+03  0.7546771E-02  0.1121921E+00
         21   -1    0    0  504  503  0.00000000000E+00  0.00000000000E+00  0.17939396563E+03  0.17939396563E+03  0.00000000000E+00 0.  1.
         21   -1    0    0  502  504 -0.00000000000E+00 -0.00000000000E+00 -0.11445211724E+04  0.11445211724E+04  0.00000000000E+00 0.  1.
          6    2    1    2  502    0  0.14961508339E+03  0.57068442473E+02 -0.10468542716E+04  0.10731534439E+04  0.17353088472E+03 0.  0.
         24    2    3    3    0    0  0.96102746836E+02  0.10584565147E+03 -0.74282906511E+03  0.76058952652E+03  0.79135124982E+02 0.  0.
         -6    2    1    2    0  503 -0.14961508339E+03 -0.57068442473E+02  0.81727064827E+02  0.25076169410E+03  0.17481599984E+03 0.  0.
        -24    2    5    5    0    0 -0.31386230556E+02 -0.52490113662E+02 -0.94059933585E+01  0.10134165853E+03  0.80258031009E+02 0.  0.
          4    1    4    4  501    0  0.97532472479E+01  0.61913672836E+02 -0.21529291332E+03  0.22423083472E+03  0.00000000000E+00 0. -1.
         -3    1    4    4    0  501  0.86349499588E+02  0.43931978638E+02 -0.52753615179E+03  0.53635869180E+03  0.00000000000E+00 0.  1.
          5    1    3    3  502    0  0.53512336555E+02 -0.48777209001E+02 -0.30402520645E+03  0.31256391737E+03  0.47000000000E+01 0. -1.
         11    1    6    6    0    0  0.16054942962E+02  0.20637273347E+01 -0.22652492517E+02  0.27841615996E+02  0.00000000000E+00 0. -1.
        -12    1    6    6    0    0 -0.47441173518E+02 -0.54553840997E+02  0.13246499159E+02  0.73500042533E+02  0.00000000000E+00 0.  1.
         -5    1    5    5    0  503 -0.11822885283E+03 -0.45783288101E+01  0.91133058186E+02  0.14942003558E+03  0.47000000000E+01 0.  1.
<mgrwt>
<rscale>  2 0.23683298E+03</rscale>
<asrwt>0</asrwt>
<pdfrwt beam="1">  1       21 0.27599072E-01 0.23706985E+03</pdfrwt>
<pdfrwt beam="2">  1       21 0.17608018E+00 0.23706985E+03</pdfrwt>
<totfact> 0.23298478E+03</totfact>
</mgrwt>
</event>
<event>
12    1  0.1441827E-001  0.2274481E+03  0.7546771E-02  0.1130595E+00
         21   -1    0    0  504  503  0.00000000000E+00  0.00000000000E+00  0.13632658418E+04  0.13632658418E+04  0.00000000000E+00 0.  1.
         21   -1    0    0  502  504 -0.00000000000E+00 -0.00000000000E+00 -0.36130965866E+02  0.36130965866E+02  0.00000000000E+00 0. -1.
          6    2    1    2  502    0  0.12524213179E+03 -0.30430286348E+02  0.64270393057E+03  0.68176313582E+03  0.18740607538E+03 0.  0.
         24    2    3    3    0    0  0.86121417826E+02  0.23720495021E+02  0.19185869040E+03  0.22597123377E+03  0.79206571192E+02 0.  0.
         -6    2    1    2    0  503 -0.12524213179E+03  0.30430286348E+02  0.68443094534E+03  0.71763367183E+03  0.17303402582E+03 0.  0.
        -24    2    5    5    0    0 -0.95656060531E+02  0.86593238575E+02  0.48896374879E+03  0.51206342168E+03  0.80466945461E+02 0.  0.
          2    1    4    4  501    0  0.48533442915E+02 -0.16423893876E+02  0.41709708934E+02  0.66067686433E+02  0.00000000000E+00 0. -1.
         -1    1    4    4    0  501  0.37587974911E+02  0.40144388897E+02  0.15014898146E+03  0.15990354734E+03  0.00000000000E+00 0.  1.
          5    1    3    3  502    0  0.39120713964E+02 -0.54150781370E+02  0.45084524017E+03  0.45579190204E+03  0.47000000000E+01 0. -1.
         13    1    6    6    0    0 -0.58690906004E+02  0.57109370761E+02  0.42329210204E+03  0.43114070363E+03  0.00000000000E+00 0. -1.
        -14    1    6    6    0    0 -0.36965154527E+02  0.29483867814E+02  0.65671646752E+02  0.80922718056E+02  0.00000000000E+00 0.  1.
         -5    1    5    5    0  503 -0.29586071260E+02 -0.56162952227E+02  0.19546719655E+03  0.20557025014E+03  0.47000000000E+01 0.  1.
<mgrwt>
<rscale>  2 0.22446800E+03</rscale>
<asrwt>0</asrwt>
<pdfrwt beam="1">  1       21 0.20973317E+00 0.22744808E+03</pdfrwt>
<pdfrwt beam="2">  1       21 0.55586112E-02 0.22744808E+03</pdfrwt>
<totfact> 0.25527692E+04</totfact>
</mgrwt>
</event>
<event>
12    1  0.1441827E-001  0.4547200E+03  0.7546771E-02  0.1026343E+00
         21   -1    0    0  504  503  0.00000000000E+00  0.00000000000E+00  0.18814814329E+04  0.18814814329E+04  0.00000000000E+00 0.  1.
         21   -1    0    0  502  504 -0.00000000000E+00 -0.00000000000E+00 -0.16061041347E+03  0.16061041347E+03  0.00000000000E+00 0.  1.
          6    2    1    2  502    0 -0.39189671579E+03  0.15229786975E+03  0.28616023643E+03  0.53704523397E+03  0.17248833421E+03 0.  0.
         24    2    3    3    0    0 -0.23188678642E+03  0.15746533104E+03  0.16415584863E+03  0.33570710843E+03  0.84766194997E+02 0.  0.
         -6    2    1    2    0  503  0.39189671579E+03 -0.15229786975E+03  0.14347107830E+04  0.15050466124E+04  0.17318371082E+03 0.  0.
        -24    2    5    5    0    0  0.20941247738E+03 -0.15339035597E+03  0.81877996986E+03  0.86263354641E+03  0.79710785717E+02 0.  0.
          4    1    4    4  501    0 -0.17868948740E+02  0.49995702605E+02  0.24468039076E+02  0.58459854125E+02  0.00000000000E+00 0. -1.
         -3    1    4    4    0  501 -0.21401783768E+03  0.10746962844E+03  0.13968780955E+03  0.27724725430E+03  0.00000000000E+00 0.  1.
          5    1    3    3  502    0 -0.16000992937E+03 -0.51674612894E+01  0.12200438781E+03  0.20133812554E+03  0.47000000000E+01 0. -1.
         11    1    6    6    0    0  0.46840200224E+02 -0.57344987771E+01  0.92006010948E+02  0.10340210290E+03  0.00000000000E+00 0. -1.
        -12    1    6    6    0    0  0.16257227716E+03 -0.14765585719E+03  0.72677395891E+03  0.75923144351E+03  0.00000000000E+00 0.  1.
         -5    1    5    5    0  503  0.18248423841E+03  0.10924862136E+01  0.61593081316E+03  0.64241306602E+03  0.47000000000E+01 0.  1.
<mgrwt>
<rscale>  2 0.45465389E+03</rscale>
<asrwt>0</asrwt>
<pdfrwt beam="1">  1       21 0.28945867E+00 0.45472000E+03</pdfrwt>
<pdfrwt beam="2">  1       21 0.24709296E-01 0.45472000E+03</pdfrwt>
<totfact> 0.48482576E+02</totfact>
</mgrwt>
</event>
<event>
12    1  0.1441827E-001  0.1944478E+03  0.7546771E-02  0.1154846E+00
         21   -1    0    0  504  503  0.00000000000E+00  0.00000000000E+00  0.14074051400E+03  0.14074051400E+03  0.00000000000E+00 0. -1.
         21   -1    0    0  502  504 -0.00000000000E+00 -0.00000000000E+00 -0.50065859395E+03  0.50065859395E+03  0.00000000000E+00 0. -1.
          6    2    1    2  502    0 -0.70413760062E+02 -0.50211173250E+02 -0.39888313951E+03  0.44308564372E+03  0.17244671398E+03 0.  0.
         24    2    3    3    0    0 -0.10608074066E+03 -0.16184333001E+02 -0.23656522336E+03  0.27338250508E+03  0.85204653659E+02 0.  0.
         -6    2    1    2    0  503  0.70413760062E+02  0.50211173250E+02  0.38965059568E+02  0.19831346423E+03  0.17415709777E+03 0.  0.
        -24    2    5    5    0    0 -0.32885258973E+00  0.60392855616E+01  0.72223754852E+02  0.10840293248E+03  0.80612306082E+02 0.  0.
          4    1    4    4  501    0 -0.93603834476E+02 -0.91659094247E+01 -0.24074908924E+03  0.25846821022E+03  0.00000000000E+00 0. -1.
         -3    1    4    4    0  501 -0.12476906189E+02 -0.70184235766E+01  0.41838658772E+01  0.14914294862E+02  0.00000000000E+00 0.  1.
          5    1    3    3  502    0  0.35666980603E+02 -0.34026840248E+02 -0.16231791615E+03  0.16970313864E+03  0.47000000000E+01 0. -1.
         11    1    6    6    0    0  0.57463806900E+00  0.29266569162E+02  0.78952094243E+02  0.84203892218E+02  0.00000000000E+00 0. -1.
        -12    1    6    6    0    0 -0.90349065873E+00 -0.23227283600E+02 -0.67283393903E+01  0.24199040265E+02  0.00000000000E+00 0.  1.
         -5    1    5    5    0  503  0.70742612651E+02  0.44171887688E+02 -0.33258695284E+02  0.89910531745E+02  0.47000000000E+01 0.  1.
<mgrwt>
<rscale>  2 0.19406408E+03</rscale>
<asrwt>0</asrwt>
<pdfrwt beam="1">  1       21 0.21652386E-01 0.19444782E+03</pdfrwt>
<pdfrwt beam="2">  1       21 0.77024401E-01 0.19444782E+03</pdfrwt>
<totfact> 0.29766350E+04</totfact>
</mgrwt>
</event>
<event>
12    1  0.1441827E-001  0.2659807E+03  0.7546771E-02  0.1103805E+00
         21   -1    0    0  504  503  0.00000000000E+00  0.00000000000E+00  0.23422819892E+03  0.23422819892E+03  0.00000000000E+00 0.  1.
         21   -1    0    0  502  504 -0.00000000000E+00 -0.00000000000E+00 -0.38715096969E+03  0.38715096969E+03  0.00000000000E+00 0.  1.
          6    2    1    2  502    0  0.12951774450E+03 -0.15188846218E+03 -0.22363363126E+03  0.34750214468E+03  0.17578620094E+03 0.  0.
         24    2    3    3    0    0  0.52804882873E+01 -0.97020526025E+02 -0.13926590059E+03  0.18754780673E+03  0.79613583741E+02 0.  0.
         -6    2    1    2    0  503 -0.12951774450E+03  0.15188846218E+03  0.70710860490E+02  0.27387702393E+03  0.17367684752E+03 0.  0.
        -24    2    5    5    0    0  0.22859121235E+01  0.80366163293E+02  0.19910482426E+02  0.11547749253E+03  0.80465386189E+02 0.  0.
          4    1    4    4  501    0  0.27890486746E+02 -0.21675595239E+01 -0.27572518930E+02  0.39278764815E+02  0.00000000000E+00 0. -1.
         -3    1    4    4    0  501 -0.22609998459E+02 -0.94852966501E+02 -0.11169338166E+03  0.14826904192E+03  0.00000000000E+00 0.  1.
          5    1    3    3  502    0  0.12423725621E+03 -0.54867936151E+02 -0.84367730669E+02  0.15995433794E+03  0.47000000000E+01 0. -1.
         11    1    6    6    0    0  0.11152622867E+02  0.23667726852E+02  0.45623139299E+02  0.52592900003E+02  0.00000000000E+00 0. -1.
        -12    1    6    6    0    0 -0.88667107437E+01  0.56698436441E+02 -0.25712656873E+02  0.62884592530E+02  0.00000000000E+00 0.  1.
         -5    1    5    5    0  503 -0.13180365662E+03  0.71522298883E+02  0.50800378064E+02  0.15839953140E+03  0.47000000000E+01 0.  1.
<mgrwt>
<rscale>  2 0.26563270E+03</rscale>
<asrwt>0</asrwt>
<pdfrwt beam="1">  1       21 0.36035108E-01 0.26598071E+03</pdfrwt>
<pdfrwt beam="2">  1       21 0.59561687E-01 0.26598071E+03</pdfrwt>
<totfact> 0.18796671E+04</totfact>
</mgrwt>
</event>
<event>
12    1  0.1441827E-001  0.2470777E+03  0.7546771E-02  0.1115427E+00
         21   -1    0    0  504  503  0.00000000000E+00  0.00000000000E+00  0.38496899485E+03  0.38496899485E+03  0.00000000000E+00 0. -1.
         21   -1    0    0  502  504 -0.00000000000E+00 -0.00000000000E+00 -0.15838295590E+03  0.15838295590E+03  0.00000000000E+00 0. -1.
          6    2    1    2  502    0  0.55656644673E+02  0.16838113507E+03  0.93075996692E+02  0.26250978618E+03  0.16970084837E+03 0.  0.
         24    2    3    3    0    0  0.95310314747E+02  0.66611224557E+02  0.84396148914E+02  0.15284229787E+03  0.52124339142E+02 0.  0.
         -6    2    1    2    0  503 -0.55656644673E+02 -0.16838113507E+03  0.13351004226E+03  0.28084216458E+03  0.17203930155E+03 0.  0.
        -24    2    5    5    0    0 -0.14011604195E+02 -0.15755441242E+03  0.46825846932E+02  0.18395167464E+03  0.81399267434E+02 0.  0.
          4    1    4    4  501    0  0.87071004896E+02  0.55799293492E+02  0.48043313129E+02  0.11403105272E+03  0.00000000000E+00 0. -1.
         -3    1    4    4    0  501  0.82393098509E+01  0.10811931065E+02  0.36352835784E+02  0.38811245145E+02  0.00000000000E+00 0.  1.
          5    1    3    3  502    0 -0.39653670074E+02  0.10176991051E+03  0.86798477784E+01  0.10966748831E+03  0.47000000000E+01 0. -1.
         13    1    6    6    0    0 -0.25682249778E+02 -0.36434387325E+02 -0.15555112312E+02  0.47212329453E+02  0.00000000000E+00 0. -1.
        -14    1    6    6    0    0  0.11670645582E+02 -0.12112002509E+03  0.62380959244E+02  0.13673934519E+03  0.00000000000E+00 0.  1.
         -5    1    5    5    0  503 -0.41645040478E+02 -0.10826722647E+02  0.86684195329E+02  0.96890489934E+02  0.47000000000E+01 0.  1.
<mgrwt>
<rscale>  2 0.24667107E+03</rscale>
<asrwt>0</asrwt>
<pdfrwt beam="1">  1       21 0.59225999E-01 0.24707770E+03</pdfrwt>
<pdfrwt beam="2">  1       21 0.24366609E-01 0.24707770E+03</pdfrwt>
<totfact> 0.41308912E+04</totfact>
</mgrwt>
</event>
<event>
12    1  0.1441827E-001  0.2101198E+03  0.7546771E-02  0.1141638E+00
         21   -1    0    0  504  503  0.00000000000E+00  0.00000000000E+00  0.14816193815E+04  0.14816193815E+04  0.00000000000E+00 0.  1.
         21   -1    0    0  502  504 -0.00000000000E+00 -0.00000000000E+00 -0.39976827225E+02  0.39976827225E+02  0.00000000000E+00 0.  1.
          6    2    1    2  502    0  0.70934315275E+02 -0.92315829194E+02  0.33577021061E+03  0.39609588868E+03  0.17491835036E+03 0.  0.
         24    2    3    3    0    0  0.85231844490E+02 -0.10361355127E+03  0.17754801853E+03  0.23675847960E+03  0.80814871497E+02 0.  0.
         -6    2    1    2    0  503 -0.70934315275E+02  0.92315829194E+02  0.11058723437E+04  0.11255003201E+04  0.17390641317E+03 0.  0.
        -24    2    5    5    0    0  0.15407269337E+02  0.21889295981E+02  0.29476754895E+03  0.30676480487E+03  0.80623894484E+02 0.  0.
          4    1    4    4  501    0  0.97742581883E+02 -0.83370742445E+02  0.12582011610E+03  0.17981933885E+03  0.00000000000E+00 0. -1.
         -3    1    4    4    0  501 -0.12510737392E+02 -0.20242808829E+02  0.51727902432E+02  0.56939140750E+02  0.00000000000E+00 0.  1.
          5    1    3    3  502    0 -0.14297529215E+02  0.11297722081E+02  0.15822219208E+03  0.15933740908E+03  0.47000000000E+01 0. -1.
         13    1    6    6    0    0  0.28256040266E+01 -0.23387437703E+02  0.19574629847E+03  0.19715874225E+03  0.00000000000E+00 0. -1.
        -14    1    6    6    0    0  0.12581665310E+02  0.45276733684E+02  0.99021250477E+02  0.10960606261E+03  0.00000000000E+00 0.  1.
         -5    1    5    5    0  503 -0.86341584612E+02  0.70426533213E+02  0.81110479475E+03  0.81873551522E+03  0.47000000000E+01 0.  1.
<mgrwt>
<rscale>  2 0.20990904E+03</rscale>
<asrwt>0</asrwt>
<pdfrwt beam="1">  1       21 0.22794140E+00 0.21011977E+03</pdfrwt>
<pdfrwt beam="2">  1       21 0.61502823E-02 0.21011977E+03</pdfrwt>
<totfact> 0.16766358E+04</totfact>
</mgrwt>
</event>
<event>
12    1  0.1441827E-001  0.2515791E+03  0.7546771E-02  0.1112329E+00
         21   -1    0    0  504  503  0.00000000000E+00  0.00000000000E+00  0.49878866479E+03  0.49878866479E+03  0.00000000000E+00 0.  1.
         21   -1    0    0  502  504 -0.00000000000E+00 -0.00000000000E+00 -0.12714261707E+03  0.12714261707E+03  0.00000000000E+00 0. -1.
          6    2    1    2  502    0  0.83998059401E+02  0.16203014967E+03  0.20123390034E+03  0.32206891749E+03  0.17298514845E+03 0.  0.
         24    2    3    3    0    0  0.10539775591E+03  0.13556459024E+03  0.97783807134E+02  0.21306256616E+03  0.79671444585E+02 0.  0.
         -6    2    1    2    0  503 -0.83998059401E+02 -0.16203014967E+03  0.17041214739E+03  0.30386236437E+03  0.17315482413E+03 0.  0.
        -24    2    5    5    0    0  0.43628397867E+01 -0.19631080748E+02  0.58581270357E+02  0.10233475239E+03  0.81463013738E+02 0.  0.
          4    1    4    4  501    0  0.10572258820E+03  0.95537366291E+02  0.50658238106E+02  0.15123131654E+03  0.00000000000E+00 0. -1.
         -3    1    4    4    0  501 -0.32483229389E+00  0.40027223953E+02  0.47125569028E+02  0.61831249620E+02  0.00000000000E+00 0.  1.
          5    1    3    3  502    0 -0.21399696509E+02  0.26465559424E+02  0.10345009320E+03  0.10900635133E+03  0.47000000000E+01 0. -1.
         11    1    6    6    0    0 -0.16268238638E+02  0.11906898101E+02 -0.11174176951E+02  0.23049773129E+02  0.00000000000E+00 0. -1.
        -12    1    6    6    0    0  0.20631078424E+02 -0.31537978849E+02  0.69755447308E+02  0.79284979258E+02  0.00000000000E+00 0.  1.
         -5    1    5    5    0  503 -0.88360899188E+02 -0.14239906892E+03  0.11183087703E+03  0.20152761199E+03  0.47000000000E+01 0.  1.
<mgrwt>
<rscale>  2 0.25154989E+03</rscale>
<asrwt>0</asrwt>
<pdfrwt beam="1">  1       21 0.76736717E-01 0.25157909E+03</pdfrwt>
<pdfrwt beam="2">  1       21 0.19560403E-01 0.25157909E+03</pdfrwt>
<totfact> 0.35312325E+04</totfact>
</mgrwt>
</event>
<event>
12    1  0.1441827E-001  0.3678705E+03  0.7546771E-02  0.1055568E+00
         21   -1    0    0  504  503  0.00000000000E+00  0.00000000000E+00  0.42557003606E+03  0.42557003606E+03  0.00000000000E+00 0. -1.
         21   -1    0    0  502  504 -0.00000000000E+00 -0.00000000000E+00 -0.37897871364E+03  0.37897871364E+03  0.00000000000E+00 0.  1.
          6    2    1    2  502    0 -0.32264020759E+03 -0.27779879776E+02 -0.13877445346E+03  0.39261525021E+03  0.17326269214E+03 0.  0.
         24    2    3    3    0    0 -0.57439893627E+02 -0.23568766154E+02 -0.22005951979E+02  0.10277751467E+03  0.78893139633E+02 0.  0.
         -6    2    1    2    0  503  0.32264020759E+03  0.27779879776E+02  0.18536577588E+03  0.41193349948E+03  0.17452882814E+03 0.  0.
        -24    2    5    5    0    0  0.14566830791E+03  0.30120037689E+02  0.16112786651E+03  0.23323236388E+03  0.79427159056E+02 0.  0.
          4    1    4    4  501    0 -0.18897120012E+02 -0.13058809640E+02  0.29630294285E+02  0.37491172206E+02  0.00000000000E+00 0. -1.
         -3    1    4    4    0  501 -0.38542773615E+02 -0.10509956514E+02 -0.51636246265E+02  0.65286342463E+02  0.00000000000E+00 0.  1.
          5    1    3    3  502    0 -0.26520031397E+03 -0.42111136219E+01 -0.11676850148E+03  0.28983773554E+03  0.47000000000E+01 0. -1.
         13    1    6    6    0    0  0.10718572155E+03  0.37823913249E+02  0.68687506107E+02  0.13280587643E+03  0.00000000000E+00 0. -1.
        -14    1    6    6    0    0  0.38482586362E+02 -0.77038755598E+01  0.92440360400E+02  0.10042648746E+03  0.00000000000E+00 0.  1.
         -5    1    5    5    0  503  0.17697189968E+03 -0.23401579136E+01  0.24237909376E+02  0.17870113560E+03  0.47000000000E+01 0.  1.
<mgrwt>
<rscale>  2 0.36772070E+03</rscale>
<asrwt>0</asrwt>
<pdfrwt beam="1">  1       21 0.65472313E-01 0.36787054E+03</pdfrwt>
<pdfrwt beam="2">  1       21 0.58304418E-01 0.36787054E+03</pdfrwt>
<totfact> 0.53638981E+03</totfact>
</mgrwt>
</event>
<event>
12    1  0.1441827E-001  0.2208221E+03  0.7546771E-02  0.1133581E+00
         21   -1    0    0  504  503  0.00000000000E+00  0.00000000000E+00  0.95248457645E+03  0.95248457645E+03  0.00000000000E+00 0.  1.
         21   -1    0    0  502  504 -0.00000000000E+00 -0.00000000000E+00 -0.14011816498E+03  0.14011816498E+03  0.00000000000E+00 0.  1.
          6    2    1    2  502    0  0.56638816100E+02 -0.12235922033E+03 -0.30516826198E+02  0.22127354528E+03  0.17277433511E+03 0.  0.
         24    2    3    3    0    0  0.10353643561E+03 -0.66120041211E+02 -0.12627668458E+02  0.14574643791E+03  0.77400987096E+02 0.  0.
         -6    2    1    2    0  503 -0.56638816100E+02  0.12235922033E+03  0.84288323767E+03  0.87132919614E+03  0.17487904797E+03 0.  0.
        -24    2    5    5    0    0 -0.36418417344E+02  0.47287313843E+02  0.18920933431E+03  0.21303114996E+03  0.77586773956E+02 0.  0.
          2    1    4    4  501    0  0.91341258293E+02 -0.33068581168E+02 -0.35855225282E+02  0.10354879868E+03  0.00000000000E+00 0. -1.
         -1    1    4    4    0  501  0.12195177318E+02 -0.33051460043E+02  0.23227556825E+02  0.42197639233E+02  0.00000000000E+00 0.  1.
          5    1    3    3  502    0 -0.46897619511E+02 -0.56239179120E+02 -0.17889157741E+02  0.75527107376E+02  0.47000000000E+01 0. -1.
         13    1    6    6    0    0  0.22209548079E+02 -0.44701121909E+00  0.46448969725E+02  0.51487577467E+02  0.00000000000E+00 0. -1.
        -14    1    6    6    0    0 -0.58627965423E+02  0.47734325062E+02  0.14276036458E+03  0.16154357250E+03  0.00000000000E+00 0.  1.
         -5    1    5    5    0  503 -0.20220398756E+02  0.75071906489E+02  0.65367390336E+03  0.65829804618E+03  0.47000000000E+01 0.  1.
<mgrwt>
<rscale>  2 0.22040519E+03</rscale>
<asrwt>0</asrwt>
<pdfrwt beam="1">  1       21 0.14653608E+00 0.22082214E+03</pdfrwt>
<pdfrwt beam="2">  1       21 0.21556641E-01 0.22082214E+03</pdfrwt>
<totfact> 0.62358090E+03</totfact>
</mgrwt>
</event>
<event>
12    1  0.1441827E-001  0.2005015E+03  0.7546771E-02  0.1149600E+00
         21   -1    0    0  504  503  0.00000000000E+00  0.00000000000E+00  0.66495024655E+03  0.66495024655E+03  0.00000000000E+00 0.  1.
         21   -1    0    0  502  504 -0.00000000000E+00 -0.00000000000E+00 -0.61999073074E+02  0.61999073074E+02  0.00000000000E+00 0. -1.
          6    2    1    2  502    0  0.95723524299E+02 -0.30515301298E+02  0.23804584005E+03  0.31123408698E+03  0.17351270333E+03 0.  0.
         24    2    3    3    0    0  0.22022487002E+02  0.36304974712E+02  0.65917934641E+02  0.11237006810E+03  0.80491098731E+02 0.  0.
         -6    2    1    2    0  503 -0.95723524299E+02  0.30515301298E+02  0.36490533343E+03  0.41571523265E+03  0.17195660956E+03 0.  0.
        -24    2    5    5    0    0 -0.93493173322E+02  0.30839732062E+02  0.37945037959E+03  0.40026440456E+03  0.80851347845E+02 0.  0.
          2    1    4    4  501    0  0.40668888612E+02  0.38573032203E+02  0.14892101269E+02  0.57996655028E+02  0.00000000000E+00 0. -1.
         -1    1    4    4    0  501 -0.18646401611E+02 -0.22680574904E+01  0.51025833372E+02  0.54373413072E+02  0.00000000000E+00 0.  1.
          5    1    3    3  502    0  0.73701037297E+02 -0.66820276011E+02  0.17212790541E+03  0.19886401888E+03  0.47000000000E+01 0. -1.
         11    1    6    6    0    0 -0.42763158342E+02  0.10802292205E+02  0.51485188386E+02  0.67794556208E+02  0.00000000000E+00 0. -1.
        -12    1    6    6    0    0 -0.50730014979E+02  0.20037439857E+02  0.32796519121E+03  0.33246984835E+03  0.00000000000E+00 0.  1.
         -5    1    5    5    0  503 -0.22303509772E+01 -0.32443076370E+00 -0.14545046164E+02  0.15450828092E+02  0.47000000000E+01 0.  1.
<mgrwt>
<rscale>  2 0.20016433E+03</rscale>
<asrwt>0</asrwt>
<pdfrwt beam="1">  1       21 0.10230003E+00 0.20050146E+03</pdfrwt>
<pdfrwt beam="2">  1       21 0.95383194E-02 0.20050146E+03</pdfrwt>
<totfact> 0.68331580E+04</totfact>
</mgrwt>
</event>
<event>
12    1  0.1441827E-001  0.3557673E+03  0.7546771E-02  0.1060296E+00
         21   -1    0    0  504  503  0.00000000000E+00  0.00000000000E+00  0.81948032020E+03  0.81948032020E+03  0.00000000000E+00 0.  1.
         21   -1    0    0  502  504 -0.00000000000E+00 -0.00000000000E+00 -0.16273913818E+03  0.16273913818E+03  0.00000000000E+00 0.  1.
          6    2    1    2  502    0 -0.30644906586E+03  0.52214383519E+02  0.21697580055E+03  0.41671193354E+03  0.17301146122E+03 0.  0.
         24    2    3    3    0    0 -0.49856115285E+02  0.22412497449E+02  0.52949929282E+02  0.11068142665E+03  0.80366229980E+02 0.  0.
         -6    2    1    2    0  503  0.30644906586E+03 -0.52214383519E+02  0.43976538147E+03  0.56550752485E+03  0.17253346954E+03 0.  0.
        -24    2    5    5    0    0  0.25242173379E+03 -0.20905340370E+02  0.42507168481E+03  0.50118642788E+03  0.79675173804E+02 0.  0.
          2    1    4    4  501    0  0.17003163657E+02  0.12501374703E+02  0.34796239052E+02  0.40696071014E+02  0.00000000000E+00 0. -1.
         -1    1    4    4    0  501 -0.66859278941E+02  0.99111227455E+01  0.18153690231E+02  0.69985355637E+02  0.00000000000E+00 0.  1.
          5    1    3    3  502    0 -0.25659295058E+03  0.29801886070E+02  0.16402587127E+03  0.30603050688E+03  0.47000000000E+01 0. -1.
         11    1    6    6    0    0  0.48669793627E+01 -0.14903469308E+02  0.12696480156E+02  0.20174278027E+02  0.00000000000E+00 0. -1.
        -12    1    6    6    0    0  0.24755475442E+03 -0.60018710615E+01  0.41237520465E+03  0.48101214985E+03  0.00000000000E+00 0.  1.
         -5    1    5    5    0  503  0.54027332075E+02 -0.31309043149E+02  0.14693696658E+02  0.64321096971E+02  0.47000000000E+01 0.  1.
<mgrwt>
<rscale>  2 0.35570919E+03</rscale>
<asrwt>0</asrwt>
<pdfrwt beam="1">  1       21 0.12607389E+00 0.35576725E+03</pdfrwt>
<pdfrwt beam="2">  1       21 0.25036791E-01 0.35576725E+03</pdfrwt>
<totfact> 0.64198308E+03</totfact>
</mgrwt>
</event>
<event>
12    1  0.1441827E-001  0.2051839E+03  0.7546771E-02  0.1145913E+00
         21   -1    0    0  504  503  0.00000000000E+00  0.00000000000E+00  0.83231962567E+03  0.83231962567E+03  0.00000000000E+00 0.  1.
         21   -1    0    0  502  504 -0.00000000000E+00 -0.00000000000E+00 -0.50079154716E+02  0.50079154716E+02  0.00000000000E+00 0.  1.
          6    2    1    2  502    0  0.97844040954E+02  0.42630140442E+02  0.37287979126E+03  0.42449419365E+03  0.17252592990E+03 0.  0.
         24    2    3    3    0    0  0.17001518511E+02  0.71125519827E+02  0.26951781667E+03  0.29013166958E+03  0.78667915907E+02 0.  0.
         -6    2    1    2    0  503 -0.97844040954E+02 -0.42630140442E+02  0.40936067969E+03  0.45790458673E+03  0.17524171664E+03 0.  0.
        -24    2    5    5    0    0 -0.86075713867E+02 -0.53577060702E+02  0.41887229731E+03  0.43864609626E+03  0.81712094368E+02 0.  0.
          4    1    4    4  501    0  0.37285604677E+02  0.35339557730E+02  0.21920137849E+03  0.22514072263E+03  0.00000000000E+00 0. -1.
         -3    1    4    4    0  501 -0.20284086166E+02  0.35785962097E+02  0.50316438180E+02  0.64990946954E+02  0.00000000000E+00 0.  1.
          5    1    3    3  502    0  0.80842522443E+02 -0.28495379386E+02  0.10336197459E+03  0.13436252407E+03  0.47000000000E+01 0. -1.
         13    1    6    6    0    0 -0.14590945383E+02  0.11354011725E+02  0.16283445671E+02  0.24636555610E+02  0.00000000000E+00 0. -1.
        -14    1    6    6    0    0 -0.71484768484E+02 -0.64931072427E+02  0.40258885163E+03  0.41400954065E+03  0.00000000000E+00 0.  1.
         -5    1    5    5    0  503 -0.11768327087E+02  0.10946920260E+02 -0.95116176127E+01  0.19258490471E+02  0.47000000000E+01 0.  1.
<mgrwt>
<rscale>  2 0.20460283E+03</rscale>
<asrwt>0</asrwt>
<pdfrwt beam="1">  1       21 0.12804916E+00 0.20518393E+03</pdfrwt>
<pdfrwt beam="2">  1       21 0.77044860E-02 0.20518393E+03</pdfrwt>
<totfact> 0.57153514E+04</totfact>
</mgrwt>
</event>
<event>
12    1  0.1441827E-001  0.2336543E+03  0.7546771E-02  0.1124153E+00
         21   -1    0    0  504  503  0.00000000000E+00  0.00000000000E+00  0.72508919923E+03  0.72508919923E+03  0.00000000000E+00 0. -1.
         21   -1    0    0  502  504 -0.00000000000E+00 -0.00000000000E+00 -0.84387422942E+02  0.84387422942E+02  0.00000000000E+00 0. -1.
          6    2    1    2  502    0  0.12370877685E+03  0.96490687129E+02  0.18647564807E+03  0.29867754154E+03  0.17268697786E+03 0.  0.
         24    2    3    3    0    0  0.96952993851E+02  0.44123616239E+02  0.19718314455E+03  0.23871986882E+03  0.82214394998E+02 0.  0.
         -6    2    1    2    0  503 -0.12370877685E+03 -0.96490687129E+02  0.45422612822E+03  0.51079908064E+03  0.17314736802E+03 0.  0.
        -24    2    5    5    0    0 -0.29752091370E+02 -0.99065046355E+02  0.32817638207E+03  0.35349328108E+03  0.80985749790E+02 0.  0.
          4    1    4    4  501    0  0.15310058366E+02 -0.23490335540E+02  0.33191653598E+02  0.43449736703E+02  0.00000000000E+00 0. -1.
         -3    1    4    4    0  501  0.81642935485E+02  0.67613951780E+02  0.16399149095E+03  0.19527013211E+03  0.00000000000E+00 0.  1.
          5    1    3    3  502    0  0.26755782995E+02  0.52367070890E+02 -0.10707496479E+02  0.59957672721E+02  0.47000000000E+01 0. -1.
         13    1    6    6    0    0 -0.54976197964E+02 -0.67090807143E+02  0.25991369964E+03  0.27400490873E+03  0.00000000000E+00 0. -1.
        -14    1    6    6    0    0  0.25224106594E+02 -0.31974239212E+02  0.68262682432E+02  0.79488372354E+02  0.00000000000E+00 0.  1.
         -5    1    5    5    0  503 -0.93956685476E+02  0.25743592252E+01  0.12604974614E+03  0.15730579956E+03  0.47000000000E+01 0.  1.
<mgrwt>
<rscale>  2 0.23356900E+03</rscale>
<asrwt>0</asrwt>
<pdfrwt beam="1">  1       21 0.11155218E+00 0.23365429E+03</pdfrwt>
<pdfrwt beam="2">  1       21 0.12982681E-01 0.23365429E+03</pdfrwt>
<totfact> 0.31456338E+04</totfact>
</mgrwt>
</event>
<event>
12    1  0.1441827E-001  0.1864189E+03  0.7546771E-02  0.1161941E+00
         21   -1    0    0  504  503  0.00000000000E+00  0.00000000000E+00  0.37670184478E+03  0.37670184478E+03  0.00000000000E+00 0.  1.
         21   -1    0    0  502  504 -0.00000000000E+00 -0.00000000000E+00 -0.15524470313E+03  0.15524470313E+03  0.00000000000E+00 0. -1.
          6    2    1    2  502    0 -0.88489508625E+01  0.69768712315E+02 -0.59453743797E+02  0.19480723561E+03  0.17166576317E+03 0.  0.
         24    2    3    3    0    0 -0.55191128706E+02  0.30769068272E+02  0.96927083695E+01  0.10276435686E+03  0.80459730264E+02 0.  0.
         -6    2    1    2    0  503  0.88489508625E+01 -0.69768712315E+02  0.28091088545E+03  0.33713931229E+03  0.17264418085E+03 0.  0.
        -24    2    5    5    0    0  0.16646709555E+02 -0.97567446830E+02  0.28018564097E+03  0.30787857647E+03  0.80552497326E+02 0.  0.
          4    1    4    4  501    0 -0.53593088342E+02  0.10703045108E+01 -0.23208928991E+02  0.58412490571E+02  0.00000000000E+00 0. -1.
         -3    1    4    4    0  501 -0.15980403644E+01  0.29698763761E+02  0.32901637360E+02  0.44351866285E+02  0.00000000000E+00 0.  1.
          5    1    3    3  502    0  0.46342177844E+02  0.38999644043E+02 -0.69146452167E+02  0.92042878758E+02  0.47000000000E+01 0. -1.
         11    1    6    6    0    0  0.30921571084E+02 -0.40365473061E+02  0.54153071853E+02  0.74283713994E+02  0.00000000000E+00 0. -1.
        -12    1    6    6    0    0 -0.14274861529E+02 -0.57201973769E+02  0.22603256911E+03  0.23359486248E+03  0.00000000000E+00 0.  1.
         -5    1    5    5    0  503 -0.77977586929E+01  0.27798734515E+02  0.72524447873E+00  0.29260735821E+02  0.47000000000E+01 0.  1.
<mgrwt>
<rscale>  2 0.18619200E+03</rscale>
<asrwt>0</asrwt>
<pdfrwt beam="1">  1       21 0.57954130E-01 0.18641886E+03</pdfrwt>
<pdfrwt beam="2">  1       21 0.23883801E-01 0.18641886E+03</pdfrwt>
<totfact> 0.46255673E+04</totfact>
</mgrwt>
</event>
<event>
12    1  0.1441827E-001  0.2034454E+03  0.7546771E-02  0.1150544E+00
         21   -1    0    0  504  503  0.00000000000E+00  0.00000000000E+00  0.16768404448E+03  0.16768404448E+03  0.00000000000E+00 0.  1.
         21   -1    0    0  502  504 -0.00000000000E+00 -0.00000000000E+00 -0.65689123400E+03  0.65689123400E+03  0.00000000000E+00 0.  1.
          6    2    1    2  502    0 -0.58359147645E+02 -0.33547792160E+02 -0.57448832563E+03  0.60397860098E+03  0.17384495875E+03 0.  0.
         24    2    3    3    0    0 -0.11958432841E+02 -0.65877177470E+01 -0.52347097130E+03  0.52978471720E+03  0.80396434318E+02 0.  0.
         -6    2    1    2    0  503  0.58359147645E+02  0.33547792160E+02  0.85281136111E+02  0.22059667750E+03  0.19198639919E+03 0.  0.
        -24    2    5    5    0    0  0.69205195339E+02  0.87048421529E+02  0.26265646957E+02  0.14006797421E+03  0.81008434348E+02 0.  0.
          2    1    4    4  501    0  0.27405450910E+02  0.19775562717E+02 -0.19331045172E+03  0.19624235619E+03  0.00000000000E+00 0. -1.
         -1    1    4    4    0  501 -0.39363883751E+02 -0.26363280464E+02 -0.33016051958E+03  0.33354236101E+03  0.00000000000E+00 0.  1.
          5    1    3    3  502    0 -0.46400714805E+02 -0.26960074413E+02 -0.51017354335E+02  0.74193883778E+02  0.47000000000E+01 0. -1.
         13    1    6    6    0    0  0.43452684475E+02  0.83971524077E+01  0.35580098205E+02  0.56785485337E+02  0.00000000000E+00 0. -1.
        -14    1    6    6    0    0  0.25752510864E+02  0.78651269122E+02 -0.93144512479E+01  0.83282488869E+02  0.00000000000E+00 0.  1.
         -5    1    5    5    0  503 -0.10846047694E+02 -0.53500629370E+02  0.59015489154E+02  0.80528703291E+02  0.47000000000E+01 0.  1.
<mgrwt>
<rscale>  2 0.19904918E+03</rscale>
<asrwt>0</asrwt>
<pdfrwt beam="1">  1       21 0.25797546E-01 0.20344538E+03</pdfrwt>
<pdfrwt beam="2">  1       21 0.10106019E+00 0.20344538E+03</pdfrwt>
<totfact> 0.11335183E+04</totfact>
</mgrwt>
</event>
<event>
12    1  0.1441827E-001  0.2168773E+03  0.7546771E-02  0.1136419E+00
         21   -1    0    0  504  503  0.00000000000E+00  0.00000000000E+00  0.33942075874E+03  0.33942075874E+03  0.00000000000E+00 0. -1.
         21   -1    0    0  502  504 -0.00000000000E+00 -0.00000000000E+00 -0.15006187285E+03  0.15006187285E+03  0.00000000000E+00 0. -1.
          6    2    1    2  502    0 -0.65648807585E+02  0.11359447463E+03  0.16440043698E+03  0.27214565925E+03  0.17269130136E+03 0.  0.
         24    2    3    3    0    0  0.50170249642E+01  0.18624599612E+00  0.77051178951E+02  0.11243633237E+03  0.81730284675E+02 0.  0.
         -6    2    1    2    0  503  0.65648807585E+02 -0.11359447463E+03  0.24958448911E+02  0.21733697235E+03  0.17146126318E+03 0.  0.
        -24    2    5    5    0    0  0.93139415530E+02 -0.11176487115E+03  0.56509609410E+02  0.17518668524E+03  0.79565706072E+02 0.  0.
          2    1    4    4  501    0  0.14390602874E+02  0.32947256643E+02  0.68409886292E+02  0.77282104745E+02  0.00000000000E+00 0. -1.
         -1    1    4    4    0  501 -0.93735779094E+01 -0.32761010647E+02  0.86412926589E+01  0.35154227630E+02  0.00000000000E+00 0.  1.
          5    1    3    3  502    0 -0.70665832549E+02  0.11340822863E+03  0.87349258032E+02  0.15970932687E+03  0.47000000000E+01 0. -1.
         11    1    6    6    0    0  0.38508590233E+02  0.21712068835E+01  0.56624193982E+01  0.38983184253E+02  0.00000000000E+00 0. -1.
        -12    1    6    6    0    0  0.54630825297E+02 -0.11393607803E+03  0.50847190012E+02  0.13620350099E+03  0.00000000000E+00 0.  1.
         -5    1    5    5    0  503 -0.27490607945E+02 -0.18296034837E+01 -0.31551160499E+02  0.42150287104E+02  0.47000000000E+01 0.  1.
<mgrwt>
<rscale>  2 0.21663233E+03</rscale>
<asrwt>0</asrwt>
<pdfrwt beam="1">  1       21 0.52218578E-01 0.21687728E+03</pdfrwt>
<pdfrwt beam="2">  1       21 0.23086442E-01 0.21687728E+03</pdfrwt>
<totfact> 0.60647647E+04</totfact>
</mgrwt>
</event>
<event>
12    1  0.1441827E-001  0.1729712E+03  0.7546771E-02  0.1174810E+00
         21   -1    0    0  504  503  0.00000000000E+00  0.00000000000E+00  0.17754865487E+03  0.17754865487E+03  0.00000000000E+00 0.  1.
         21   -1    0    0  502  504 -0.00000000000E+00 -0.00000000000E+00 -0.29154351954E+03  0.29154351954E+03  0.00000000000E+00 0.  1.
          6    2    1    2  502    0  0.46316986148E+01  0.65922880308E+01 -0.20941424363E+03  0.27154747126E+03  0.17268118838E+03 0.  0.
         24    2    3    3    0    0  0.44299148842E+01 -0.27504325200E+02 -0.31487774738E+02  0.90322367912E+02  0.79940841481E+02 0.  0.
         -6    2    1    2    0  503 -0.46316986148E+01 -0.65922880308E+01  0.95419378963E+02  0.19754470314E+03  0.17278350895E+03 0.  0.
        -24    2    5    5    0    0  0.33099599597E+02 -0.51019321036E+02  0.14558673128E+02  0.97755145198E+02  0.75136933908E+02 0.  0.
          4    1    4    4  501    0 -0.27793815574E+02 -0.62077861648E+01 -0.41582485382E+02  0.50399760751E+02  0.00000000000E+00 0. -1.
         -3    1    4    4    0  501  0.32223730459E+02 -0.21296539035E+02  0.10094710644E+02  0.39922607161E+02  0.00000000000E+00 0.  1.
          5    1    3    3  502    0  0.20178373060E+00  0.34096613230E+02 -0.17792646890E+03  0.18122510335E+03  0.47000000000E+01 0. -1.
         13    1    6    6    0    0  0.41409309023E+02 -0.15437360224E+01  0.22196520866E+02  0.47008504903E+02  0.00000000000E+00 0. -1.
        -14    1    6    6    0    0 -0.83097094263E+01 -0.49475585013E+02 -0.76378477386E+01  0.50746640295E+02  0.00000000000E+00 0.  1.
         -5    1    5    5    0  503 -0.37731298211E+02  0.44427033005E+02  0.80860705836E+02  0.99789557944E+02  0.47000000000E+01 0.  1.
<mgrwt>
<rscale>  2 0.17294569E+03</rscale>
<asrwt>0</asrwt>
<pdfrwt beam="1">  1       21 0.27315178E-01 0.17297125E+03</pdfrwt>
<pdfrwt beam="2">  1       21 0.44852849E-01 0.17297125E+03</pdfrwt>
<totfact> 0.61511415E+04</totfact>
</mgrwt>
</event>
<event>
12    1  0.1441827E-001  0.2817332E+03  0.7546771E-02  0.1094776E+00
         21   -1    0    0  504  503  0.00000000000E+00  0.00000000000E+00  0.75797541767E+03  0.75797541767E+03  0.00000000000E+00 0. -1.
         21   -1    0    0  502  504 -0.00000000000E+00 -0.00000000000E+00 -0.15301518263E+03  0.15301518263E+03  0.00000000000E+00 0.  1.
          6    2    1    2  502    0  0.12386707009E+03  0.18325992969E+03  0.46279441445E+02  0.28529275199E+03  0.17413476032E+03 0.  0.
         24    2    3    3    0    0  0.12284028518E+03  0.20723824611E+03  0.38188468064E+02  0.25953294229E+03  0.88665453974E+02 0.  0.
         -6    2    1    2    0  503 -0.12386707009E+03 -0.18325992969E+03  0.55868079360E+03  0.62569784832E+03  0.17448872561E+03 0.  0.
        -24    2    5    5    0    0 -0.35868371666E+02 -0.16573958321E+03  0.42151230159E+03  0.46172218346E+03  0.82210733960E+02 0.  0.
          2    1    4    4  501    0  0.15103651973E+02 -0.16064528388E+01  0.18174692030E+02  0.23685869712E+02  0.00000000000E+00 0. -1.
         -1    1    4    4    0  501  0.10773663320E+03  0.20884469895E+03  0.20013776033E+02  0.23584707258E+03  0.00000000000E+00 0.  1.
          5    1    3    3  502    0  0.10267849121E+01 -0.23978316416E+02  0.80909733811E+01  0.25759809698E+02  0.47000000000E+01 0. -1.
         13    1    6    6    0    0 -0.29896455827E+02 -0.53890439713E+02  0.24530778864E+03  0.25293060062E+03  0.00000000000E+00 0. -1.
        -14    1    6    6    0    0 -0.59719158393E+01 -0.11184914349E+03  0.17620451294E+03  0.20879158283E+03  0.00000000000E+00 0.  1.
         -5    1    5    5    0  503 -0.87998698422E+02 -0.17520346484E+02  0.13716849201E+03  0.16397566486E+03  0.47000000000E+01 0.  1.
<mgrwt>
<rscale>  2 0.28167836E+03</rscale>
<asrwt>0</asrwt>
<pdfrwt beam="1">  1       21 0.11661160E+00 0.28173315E+03</pdfrwt>
<pdfrwt beam="2">  1       21 0.23540798E-01 0.28173315E+03</pdfrwt>
<totfact> 0.91086674E+03</totfact>
</mgrwt>
</event>
<event>
12    1  0.1441827E-001  0.2386679E+03  0.7546771E-02  0.1121153E+00
         21   -1    0    0  504  503  0.00000000000E+00  0.00000000000E+00  0.72778505562E+03  0.72778505562E+03  0.00000000000E+00 0.  1.
         21   -1    0    0  502  504 -0.00000000000E+00 -0.00000000000E+00 -0.30981876382E+03  0.30981876382E+03  0.00000000000E+00 0. -1.
          6    2    1    2  502    0 -0.15859394600E+03 -0.36236762728E+02 -0.24009737065E+03  0.33853968932E+03  0.17463456465E+03 0.  0.
         24    2    3    3    0    0 -0.41124773781E+02  0.28158981721E+02 -0.14692049906E+03  0.17529190917E+03  0.81593168250E+02 0.  0.
         -6    2    1    2    0  503  0.15859394600E+03  0.36236762728E+02  0.65806366244E+03  0.69906413012E+03  0.17081490424E+03 0.  0.
        -24    2    5    5    0    0  0.15755719607E+03  0.10659720130E+02  0.39552744595E+03  0.43524105507E+03  0.89749183011E+02 0.  0.
          2    1    4    4  501    0 -0.63945431827E+02  0.18557962095E+02 -0.80870662046E+02  0.10475438028E+03  0.00000000000E+00 0. -1.
         -1    1    4    4    0  501  0.22820658046E+02  0.96010196259E+01 -0.66049837013E+02  0.70537528883E+02  0.00000000000E+00 0.  1.
          5    1    3    3  502    0 -0.11746917222E+03 -0.64395744449E+02 -0.93176871590E+02  0.16324778015E+03  0.47000000000E+01 0. -1.
         11    1    6    6    0    0  0.58733354229E+01 -0.71178673449E+01 -0.19510256989E+01  0.94322110773E+01  0.00000000000E+00 0. -1.
        -12    1    6    6    0    0  0.15168386065E+03  0.17777587475E+02  0.39747847165E+03  0.42580884399E+03  0.00000000000E+00 0.  1.
         -5    1    5    5    0  503  0.10367499306E+01  0.25577042597E+02  0.26253621650E+03  0.26382307505E+03  0.47000000000E+01 0.  1.
<mgrwt>
<rscale>  2 0.23796973E+03</rscale>
<asrwt>0</asrwt>
<pdfrwt beam="1">  1       21 0.11196693E+00 0.23866792E+03</pdfrwt>
<pdfrwt beam="2">  1       21 0.47664426E-01 0.23866792E+03</pdfrwt>
<totfact> 0.25358424E+03</totfact>
</mgrwt>
</event>
<event>
12    1  0.1441827E-001  0.1873227E+03  0.7546771E-02  0.1161244E+00
         21   -1    0    0  504  503  0.00000000000E+00  0.00000000000E+00  0.20280663977E+03  0.20280663977E+03  0.00000000000E+00 0.  1.
         21   -1    0    0  502  504 -0.00000000000E+00 -0.00000000000E+00 -0.17530386476E+03  0.17530386476E+03  0.00000000000E+00 0.  1.
          6    2    1    2  502    0 -0.68518403128E+02  0.79554903266E+01 -0.13627061691E+02  0.18632557447E+03  0.17254988118E+03 0.  0.
         24    2    3    3    0    0 -0.11363693649E+03 -0.35361999377E+01 -0.14318198456E+02  0.13952484084E+03  0.79600957024E+02 0.  0.
         -6    2    1    2    0  503  0.68518403128E+02 -0.79554903266E+01  0.41129836692E+02  0.19178493006E+03  0.17416008308E+03 0.  0.
        -24    2    5    5    0    0  0.82787094955E+01  0.54658584526E+02 -0.55348962608E+01  0.93047751857E+02  0.74640144398E+02 0.  0.
          2    1    4    4  501    0 -0.49917705129E+02 -0.89922650896E+01  0.32523395450E+02  0.60252878507E+02  0.00000000000E+00 0. -1.
         -1    1    4    4    0  501 -0.63719231362E+02  0.54560651519E+01 -0.46841593906E+02  0.79271962332E+02  0.00000000000E+00 0.  1.
          5    1    3    3  502    0  0.45118533364E+02  0.11491690264E+02  0.69113676420E+00  0.46800733627E+02  0.47000000000E+01 0. -1.
         11    1    6    6    0    0 -0.32900090648E+02  0.31743529873E+02 -0.13530508097E+01  0.45737275825E+02  0.00000000000E+00 0. -1.
        -12    1    6    6    0    0  0.41178800143E+02  0.22915054653E+02 -0.41818454512E+01  0.47310476032E+02  0.00000000000E+00 0.  1.
         -5    1    5    5    0  503  0.60239693632E+02 -0.62614074853E+02  0.46664732953E+02  0.98737178206E+02  0.47000000000E+01 0.  1.
<mgrwt>
<rscale>  2 0.18694755E+03</rscale>
<asrwt>0</asrwt>
<pdfrwt beam="1">  1       21 0.31201021E-01 0.18732271E+03</pdfrwt>
<pdfrwt beam="2">  1       21 0.26969826E-01 0.18732271E+03</pdfrwt>
<totfact> 0.12950200E+05</totfact>
</mgrwt>
</event>
<event>
12    1  0.1441827E-001  0.1931385E+03  0.7546771E-02  0.1156166E+00
         21   -1    0    0  504  503  0.00000000000E+00  0.00000000000E+00  0.81833567184E+02  0.81833567184E+02  0.00000000000E+00 0.  1.
         21   -1    0    0  502  504 -0.00000000000E+00 -0.00000000000E+00 -0.75131289814E+03  0.75131289814E+03  0.00000000000E+00 0. -1.
          6    2    1    2  502    0 -0.72693474589E+02  0.34965872474E+02 -0.72333346776E+02  0.20623918548E+03  0.17548656668E+03 0.  0.
         24    2    3    3    0    0 -0.31603875801E+02  0.43455380494E+02  0.25075957218E+02  0.10007379856E+03  0.80615051130E+02 0.  0.
         -6    2    1    2    0  503  0.72693474589E+02 -0.34965872474E+02 -0.59714598418E+03  0.62690727984E+03  0.17298109033E+03 0.  0.
        -24    2    5    5    0    0  0.11252920601E+03 -0.59691756610E+00 -0.49221757589E+03  0.50943314896E+03  0.67681701595E+02 0.  0.
          2    1    4    4  501    0  0.11074506812E+02  0.47591722308E+02 -0.27787952073E+01  0.48942194844E+02  0.00000000000E+00 0. -1.
         -1    1    4    4    0  501 -0.42678382613E+02 -0.41363418136E+01  0.27854752426E+02  0.51131603718E+02  0.00000000000E+00 0.  1.
          5    1    3    3  502    0 -0.41089598788E+02 -0.84895080202E+01 -0.97409303994E+02  0.10616538692E+03  0.47000000000E+01 0. -1.
         13    1    6    6    0    0  0.56035634810E+02  0.19788091365E+02 -0.13937337885E+03  0.15151402463E+03  0.00000000000E+00 0. -1.
        -14    1    6    6    0    0  0.56493571205E+02 -0.20385008931E+02 -0.35284419704E+03  0.35791912433E+03  0.00000000000E+00 0.  1.
         -5    1    5    5    0  503 -0.39835731426E+02 -0.34368954908E+02 -0.10492840829E+03  0.11747413088E+03  0.47000000000E+01 0.  1.
<mgrwt>
<rscale>  2 0.19256759E+03</rscale>
<asrwt>0</asrwt>
<pdfrwt beam="1">  1       21 0.12589780E-01 0.19313852E+03</pdfrwt>
<pdfrwt beam="2">  1       21 0.11558660E+00 0.19313852E+03</pdfrwt>
<totfact> 0.31172208E+04</totfact>
</mgrwt>
</event>
<event>
12    1  0.1441827E-001  0.2524367E+03  0.7546771E-02  0.1111937E+00
         21   -1    0    0  504  503  0.00000000000E+00  0.00000000000E+00  0.38623797194E+03  0.38623797194E+03  0.00000000000E+00 0.  1.
         21   -1    0    0  502  504 -0.00000000000E+00 -0.00000000000E+00 -0.16747098038E+03  0.16747098038E+03  0.00000000000E+00 0. -1.
          6    2    1    2  502    0 -0.58641472837E+02 -0.17376755851E+03  0.71117588610E+02  0.26126299970E+03  0.17194957656E+03 0.  0.
         24    2    3    3    0    0 -0.90880001481E+02 -0.12230927294E+03  0.64256560437E+01  0.17241248467E+03  0.80411708717E+02 0.  0.
         -6    2    1    2    0  503  0.58641472837E+02  0.17376755851E+03  0.14764940295E+03  0.29244595261E+03  0.17346556512E+03 0.  0.
        -24    2    5    5    0    0  0.34894074805E+02  0.19728826000E+03  0.14238200116E+03  0.25828460262E+03  0.79360240076E+02 0.  0.
          4    1    4    4  501    0 -0.85411714766E+02 -0.72079769550E+02 -0.22770069503E+02  0.11405757433E+03  0.00000000000E+00 0. -1.
         -3    1    4    4    0  501 -0.54682867148E+01 -0.50229503391E+02  0.29195725546E+02  0.58354910339E+02  0.00000000000E+00 0.  1.
          5    1    3    3  502    0  0.32238528643E+02 -0.51458285565E+02  0.64691932567E+02  0.88850515033E+02  0.47000000000E+01 0. -1.
         11    1    6    6    0    0  0.53217807155E+02  0.11622971961E+03  0.59810690806E+02  0.14113398405E+03  0.00000000000E+00 0. -1.
        -12    1    6    6    0    0 -0.18323732350E+02  0.81058540384E+02  0.82571310351E+02  0.11715061856E+03  0.00000000000E+00 0.  1.
         -5    1    5    5    0  503  0.23747398032E+02 -0.23520701494E+02  0.52674017954E+01  0.34161349999E+02  0.47000000000E+01 0.  1.
<mgrwt>
<rscale>  2 0.25217647E+03</rscale>
<asrwt>0</asrwt>
<pdfrwt beam="1">  1       21 0.59421226E-01 0.25243670E+03</pdfrwt>
<pdfrwt beam="2">  1       21 0.25764766E-01 0.25243670E+03</pdfrwt>
<totfact> 0.36764510E+04</totfact>
</mgrwt>
</event>
<event>
12    1  0.1441827E-001  0.2485971E+03  0.7546771E-02  0.1114302E+00
         21   -1    0    0  504  503  0.00000000000E+00  0.00000000000E+00  0.12908011884E+04  0.12908011884E+04  0.00000000000E+00 0.  1.
         21   -1    0    0  502  504 -0.00000000000E+00 -0.00000000000E+00 -0.58666445562E+02  0.58666445562E+02  0.00000000000E+00 0.  1.
          6    2    1    2  502    0 -0.17803975784E+03  0.94598620257E+00  0.32565964599E+03  0.40970079660E+03  0.17349780241E+03 0.  0.
         24    2    3    3    0    0 -0.15498349380E+03  0.16792628392E+02  0.14762455268E+03  0.22941964996E+03  0.80860939378E+02 0.  0.
         -6    2    1    2    0  503  0.17803975784E+03 -0.94598620257E+00  0.90647509680E+03  0.93976683732E+03  0.17252697514E+03 0.  0.
        -24    2    5    5    0    0  0.16352088077E+03 -0.56376985854E+02  0.68248971157E+03  0.70852035344E+03  0.79318609734E+02 0.  0.
          2    1    4    4  501    0 -0.49024408661E+02  0.70045367751E+01  0.26617431470E+01  0.49593760258E+02  0.00000000000E+00 0. -1.
         -1    1    4    4    0  501 -0.10595908514E+03  0.97880916174E+01  0.14496280953E+03  0.17982588970E+03  0.00000000000E+00 0.  1.
          5    1    3    3  502    0 -0.23056264041E+02 -0.15846642190E+02  0.17803509332E+03  0.18028114664E+03  0.47000000000E+01 0. -1.
         13    1    6    6    0    0  0.57574220957E+02 -0.59727870423E+02  0.34168087901E+03  0.35160778220E+03  0.00000000000E+00 0. -1.
        -14    1    6    6    0    0  0.10594665981E+03  0.33508845688E+01  0.34080883257E+03  0.35691257124E+03  0.00000000000E+00 0.  1.
         -5    1    5    5    0  503  0.14518877071E+02  0.55430999652E+02  0.22398538522E+03  0.23124648388E+03  0.47000000000E+01 0.  1.
<mgrwt>
<rscale>  2 0.24842782E+03</rscale>
<asrwt>0</asrwt>
<pdfrwt beam="1">  1       21 0.19858478E+00 0.24859714E+03</pdfrwt>
<pdfrwt beam="2">  1       21 0.90256080E-02 0.24859714E+03</pdfrwt>
<totfact> 0.12792750E+04</totfact>
</mgrwt>
</event>
<event>
12    1  0.1441827E-001  0.2109892E+03  0.7546771E-02  0.1141044E+00
         21   -1    0    0  504  503  0.00000000000E+00  0.00000000000E+00  0.70144860601E+03  0.70144860601E+03  0.00000000000E+00 0.  1.
         21   -1    0    0  502  504 -0.00000000000E+00 -0.00000000000E+00 -0.96845567406E+02  0.96845567406E+02  0.00000000000E+00 0.  1.
          6    2    1    2  502    0 -0.34739799608E+02 -0.11536034720E+03  0.65965547469E+02  0.21980753382E+03  0.17160721164E+03 0.  0.
         24    2    3    3    0    0 -0.21646233093E+02 -0.14730733966E+03  0.33686007369E+02  0.17230900205E+03  0.79922671198E+02 0.  0.
         -6    2    1    2    0  503  0.34739799608E+02  0.11536034720E+03  0.53863749113E+03  0.57848663959E+03  0.17320964739E+03 0.  0.
        -24    2    5    5    0    0  0.27072147679E+01 -0.28968879589E+01  0.29062936335E+03  0.30182623113E+03  0.81350636078E+02 0.  0.
          4    1    4    4  501    0 -0.23510831464E+02 -0.39673209899E+02 -0.22015125017E+02  0.51101746637E+02  0.00000000000E+00 0. -1.
         -3    1    4    4    0  501  0.18645983707E+01 -0.10763412976E+03  0.55701132387E+02  0.12120725542E+03  0.00000000000E+00 0.  1.
          5    1    3    3  502    0 -0.13093566515E+02  0.31946992456E+02  0.32279540100E+02  0.47498531768E+02  0.47000000000E+01 0. -1.
         13    1    6    6    0    0 -0.15075700743E+02 -0.17594346765E+01  0.55048726117E+01  0.16145463317E+02  0.00000000000E+00 0. -1.
        -14    1    6    6    0    0  0.17782915511E+02 -0.11374532824E+01  0.28512449073E+03  0.28568076782E+03  0.00000000000E+00 0.  1.
         -5    1    5    5    0  503  0.32032584840E+02  0.11825723516E+03  0.24800812778E+03  0.27666040846E+03  0.47000000000E+01 0.  1.
<mgrwt>
<rscale>  2 0.21066006E+03</rscale>
<asrwt>0</asrwt>
<pdfrwt beam="1">  1       21 0.10791517E+00 0.21098921E+03</pdfrwt>
<pdfrwt beam="2">  1       21 0.14899319E-01 0.21098921E+03</pdfrwt>
<totfact> 0.26873605E+04</totfact>
</mgrwt>
</event>
<event>
12    1  0.1441827E-001  0.1927290E+03  0.7546771E-02  0.1156064E+00
         21   -1    0    0  504  503  0.00000000000E+00  0.00000000000E+00  0.15353233724E+03  0.15353233724E+03  0.00000000000E+00 0. -1.
         21   -1    0    0  502  504 -0.00000000000E+00 -0.00000000000E+00 -0.38916681813E+03  0.38916681813E+03  0.00000000000E+00 0. -1.
          6    2    1    2  502    0  0.36001386770E+02 -0.78298969641E+02 -0.28488690528E+03  0.34395494350E+03  0.17238800963E+03 0.  0.
         24    2    3    3    0    0  0.64138344642E+02 -0.12965862997E+02 -0.23449887862E+03  0.25665576566E+03  0.81244182024E+02 0.  0.
         -6    2    1    2    0  503 -0.36001386770E+02  0.78298969641E+02  0.49252424390E+02  0.19874421186E+03  0.17218197334E+03 0.  0.
        -24    2    5    5    0    0 -0.53878608358E+01  0.11217697860E+03  0.29523377898E+02  0.14878189870E+03  0.93014622318E+02 0.  0.
          4    1    4    4  501    0  0.64814508034E+02 -0.66437778357E+01 -0.85374163792E+02  0.10739556825E+03  0.00000000000E+00 0. -1.
         -3    1    4    4    0  501 -0.67616339182E+00 -0.63220851609E+01 -0.14912471483E+03  0.14926019741E+03  0.00000000000E+00 0.  1.
          5    1    3    3  502    0 -0.28136957872E+02 -0.65333106644E+02 -0.50388026661E+02  0.87299177848E+02  0.47000000000E+01 0. -1.
         11    1    6    6    0    0  0.94882188030E+01  0.61163815334E+02  0.61097698527E+02  0.86971072015E+02  0.00000000000E+00 0. -1.
        -12    1    6    6    0    0 -0.14876079639E+02  0.51013163267E+02 -0.31574320628E+02  0.61810826681E+02  0.00000000000E+00 0.  1.
         -5    1    5    5    0  503 -0.30613525934E+02 -0.33878008960E+02  0.19729046492E+02  0.49962313164E+02  0.47000000000E+01 0.  1.
<mgrwt>
<rscale>  2 0.19268288E+03</rscale>
<asrwt>0</asrwt>
<pdfrwt beam="1">  1       21 0.23620360E-01 0.19272897E+03</pdfrwt>
<pdfrwt beam="2">  1       21 0.59871818E-01 0.19272897E+03</pdfrwt>
<totfact> 0.43929604E+04</totfact>
</mgrwt>
</event>
<event>
12    1  0.1441827E-001  0.2129662E+03  0.7546771E-02  0.1139362E+00
         21   -1    0    0  504  503  0.00000000000E+00  0.00000000000E+00  0.22295318163E+03  0.22295318163E+03  0.00000000000E+00 0.  1.
         21   -1    0    0  502  504 -0.00000000000E+00 -0.00000000000E+00 -0.43276186594E+03  0.43276186594E+03  0.00000000000E+00 0.  1.
          6    2    1    2  502    0  0.12337813872E+03  0.95784492647E+01 -0.34396030243E+03  0.40455322223E+03  0.17332255527E+03 0.  0.
         24    2    3    3    0    0  0.35760218772E+02  0.53643382512E+02 -0.24134423194E+03  0.26252939971E+03  0.80735628388E+02 0.  0.
         -6    2    1    2    0  503 -0.12337813872E+03 -0.95784492647E+01  0.13415161811E+03  0.25116182534E+03  0.17254475959E+03 0.  0.
        -24    2    5    5    0    0 -0.16756384496E+02  0.43781239103E+02  0.55406953808E+02  0.10819935833E+03  0.80247101473E+02 0.  0.
          2    1    4    4  501    0 -0.18968258507E+02  0.38822530616E+02 -0.72276656067E+02  0.84207474291E+02  0.00000000000E+00 0. -1.
         -1    1    4    4    0  501  0.54728477279E+02  0.14820851896E+02 -0.16906757587E+03  0.17832192542E+03  0.00000000000E+00 0.  1.
          5    1    3    3  502    0  0.87617919950E+02 -0.44064933247E+02 -0.10261607049E+03  0.14202382251E+03  0.47000000000E+01 0. -1.
         11    1    6    6    0    0  0.11023030723E+02 -0.70336800448E+01 -0.13089667724E+02  0.18501871863E+02  0.00000000000E+00 0. -1.
        -12    1    6    6    0    0 -0.27779415219E+02  0.50814919148E+02  0.68496621533E+02  0.89697486471E+02  0.00000000000E+00 0.  1.
         -5    1    5    5    0  503 -0.10662175423E+03 -0.53359688368E+02  0.78744664304E+02  0.14296246701E+03  0.47000000000E+01 0.  1.
<mgrwt>
<rscale>  2 0.21280793E+03</rscale>
<asrwt>0</asrwt>
<pdfrwt beam="1">  1       21 0.34300490E-01 0.21296624E+03</pdfrwt>
<pdfrwt beam="2">  1       21 0.66578748E-01 0.21296624E+03</pdfrwt>
<totfact> 0.16730887E+04</totfact>
</mgrwt>
</event>
<event>
12    1  0.1441827E-001  0.2022020E+03  0.7546771E-02  0.1148226E+00
         21   -1    0    0  504  503  0.00000000000E+00  0.00000000000E+00  0.65097278400E+02  0.65097278400E+02  0.00000000000E+00 0. -1.
         21   -1    0    0  502  504 -0.00000000000E+00 -0.00000000000E+00 -0.63828391620E+03  0.63828391620E+03  0.00000000000E+00 0. -1.
          6    2    1    2  502    0 -0.95027399361E+02 -0.33110840030E+02 -0.33965965434E+03  0.39447912144E+03  0.17354700259E+03 0.  0.
         24    2    3    3    0    0 -0.50729848242E+02 -0.88289807116E+02 -0.21150855962E+03  0.24801484415E+03  0.80043017074E+02 0.  0.
         -6    2    1    2    0  503  0.95027399361E+02  0.33110840030E+02 -0.23352698346E+03  0.30890207316E+03  0.17538273702E+03 0.  0.
        -24    2    5    5    0    0  0.82350629723E+02 -0.46297645409E+02 -0.14124034016E+03  0.18640585861E+03  0.76636885697E+02 0.  0.
          4    1    4    4  501    0  0.17113030372E+02 -0.41646711001E+02 -0.97424005312E+02  0.10732539847E+03  0.00000000000E+00 0. -1.
         -3    1    4    4    0  501 -0.67842878613E+02 -0.46643096115E+02 -0.11408455431E+03  0.14068944568E+03  0.00000000000E+00 0.  1.
          5    1    3    3  502    0 -0.44297551120E+02  0.55178967086E+02 -0.12815109472E+03  0.14646427729E+03  0.47000000000E+01 0. -1.
         13    1    6    6    0    0  0.30410512393E+02  0.16883559023E+02 -0.19898773288E+02  0.40072621672E+02  0.00000000000E+00 0. -1.
        -14    1    6    6    0    0  0.51940117331E+02 -0.63181204433E+02 -0.12134156687E+03  0.14633323694E+03  0.00000000000E+00 0.  1.
         -5    1    5    5    0  503  0.12676769638E+02  0.79408485439E+02 -0.92286643296E+02  0.12249621455E+03  0.47000000000E+01 0.  1.
<mgrwt>
<rscale>  2 0.20180325E+03</rscale>
<asrwt>0</asrwt>
<pdfrwt beam="1">  1       21 0.10014966E-01 0.20220198E+03</pdfrwt>
<pdfrwt beam="2">  1       21 0.98197529E-01 0.20220198E+03</pdfrwt>
<totfact> 0.69046195E+04</totfact>
</mgrwt>
</event>
<event>
12    1  0.1441827E-001  0.2503182E+03  0.7546771E-02  0.1113615E+00
         21   -1    0    0  504  503  0.00000000000E+00  0.00000000000E+00  0.10353935617E+03  0.10353935617E+03  0.00000000000E+00 0. -1.
         21   -1    0    0  502  504 -0.00000000000E+00 -0.00000000000E+00 -0.60231699122E+03  0.60231699122E+03  0.00000000000E+00 0.  1.
          6    2    1    2  502    0 -0.70886504587E+02  0.16645728928E+03 -0.21915511315E+03  0.33269832351E+03  0.17299215347E+03 0.  0.
         24    2    3    3    0    0 -0.73883672530E+02  0.11483209593E+03 -0.67244861680E+02  0.17215873928E+03  0.80445961775E+02 0.  0.
         -6    2    1    2    0  503  0.70886504587E+02 -0.16645728928E+03 -0.27962252190E+03  0.37315802387E+03  0.16830101110E+03 0.  0.
        -24    2    5    5    0    0  0.37113607214E+01 -0.81516653615E+02 -0.22217862965E+03  0.25048242606E+03  0.81971722433E+02 0.  0.
          4    1    4    4  501    0 -0.77888869493E+02  0.12487844235E+03 -0.59017439913E+02  0.15856973093E+03  0.00000000000E+00 0. -1.
         -3    1    4    4    0  501  0.40051969633E+01 -0.10046346415E+02 -0.82274217674E+01  0.13589008350E+02  0.00000000000E+00 0.  1.
          5    1    3    3  502    0  0.29971679430E+01  0.51625193349E+02 -0.15191025147E+03  0.16053958423E+03  0.47000000000E+01 0. -1.
         13    1    6    6    0    0  0.14996773934E+02 -0.27143694346E+02 -0.12266198194E+02  0.33348807915E+02  0.00000000000E+00 0. -1.
        -14    1    6    6    0    0 -0.11285413213E+02 -0.54372959270E+02 -0.20991243145E+03  0.21713361815E+03  0.00000000000E+00 0.  1.
         -5    1    5    5    0  503  0.67175143865E+02 -0.84940635665E+02 -0.57443892254E+02  0.12267559781E+03  0.47000000000E+01 0.  1.
<mgrwt>
<rscale>  2 0.24950963E+03</rscale>
<asrwt>0</asrwt>
<pdfrwt beam="1">  1       21 0.15929131E-01 0.25031822E+03</pdfrwt>
<pdfrwt beam="2">  1       21 0.92664154E-01 0.25031822E+03</pdfrwt>
<totfact> 0.33523482E+04</totfact>
</mgrwt>
</event>
<event>
12    1  0.1441827E-001  0.1956205E+03  0.7546771E-02  0.1153656E+00
         21   -1    0    0  504  503  0.00000000000E+00  0.00000000000E+00  0.22285636080E+03  0.22285636080E+03  0.00000000000E+00 0.  1.
         21   -1    0    0  502  504 -0.00000000000E+00 -0.00000000000E+00 -0.17588286990E+03  0.17588286990E+03  0.00000000000E+00 0.  1.
          6    2    1    2  502    0  0.20716332825E+02  0.89155684844E+02 -0.96643171569E+01  0.19508456432E+03  0.17200780687E+03 0.  0.
         24    2    3    3    0    0  0.80956800572E+02  0.67751686421E+02 -0.12021267412E+02  0.13093871241E+03  0.76525426923E+02 0.  0.
         -6    2    1    2    0  503 -0.20716332825E+02 -0.89155684844E+02  0.56637808053E+02  0.20365466637E+03  0.17288574044E+03 0.  0.
        -24    2    5    5    0    0  0.13990382063E+01 -0.11616051896E+02 -0.23884642301E+02  0.89604504933E+02  0.85566355520E+02 0.  0.
          2    1    4    4  501    0  0.82155138372E+01 -0.11856431417E+02  0.13898285453E+02  0.20030775624E+02  0.00000000000E+00 0. -1.
         -1    1    4    4    0  501  0.72741286735E+02  0.79608117838E+02 -0.25919552865E+02  0.11090793679E+03  0.00000000000E+00 0.  1.
          5    1    3    3  502    0 -0.60240467747E+02  0.21403998424E+02  0.23569502548E+01  0.64145851911E+02  0.47000000000E+01 0. -1.
         11    1    6    6    0    0 -0.25784149295E+02  0.27100049889E+02 -0.19407282835E+01  0.37456661425E+02  0.00000000000E+00 0. -1.
        -12    1    6    6    0    0  0.27183187501E+02 -0.38716101785E+02 -0.21943914017E+02  0.52147843508E+02  0.00000000000E+00 0.  1.
         -5    1    5    5    0  503 -0.22115371031E+02 -0.77539632948E+02  0.80522450353E+02  0.11405016144E+03  0.47000000000E+01 0.  1.
<mgrwt>
<rscale>  2 0.19542635E+03</rscale>
<asrwt>0</asrwt>
<pdfrwt beam="1">  1       21 0.34285594E-01 0.19562050E+03</pdfrwt>
<pdfrwt beam="2">  1       21 0.27058903E-01 0.19562050E+03</pdfrwt>
<totfact> 0.10657005E+05</totfact>
</mgrwt>
</event>
<event>
12    1  0.1441827E-001  0.2197087E+03  0.7546771E-02  0.1134304E+00
         21   -1    0    0  504  503  0.00000000000E+00  0.00000000000E+00  0.10500877792E+04  0.10500877792E+04  0.00000000000E+00 0. -1.
         21   -1    0    0  502  504 -0.00000000000E+00 -0.00000000000E+00 -0.59858775452E+02  0.59858775452E+02  0.00000000000E+00 0. -1.
          6    2    1    2  502    0 -0.95260686057E+01 -0.13458357517E+03  0.22654560440E+03  0.31558647585E+03  0.17340250338E+03 0.  0.
         24    2    3    3    0    0  0.95463493264E+01  0.13282931848E+01  0.81923184284E+02  0.11615346082E+03  0.81776042873E+02 0.  0.
         -6    2    1    2    0  503  0.95260686057E+01  0.13458357517E+03  0.76368339935E+03  0.79436007880E+03  0.17202359044E+03 0.  0.
        -24    2    5    5    0    0  0.47514498118E+02  0.14908971025E+03  0.58037911128E+03  0.60654074871E+03  0.81033312923E+02 0.  0.
          4    1    4    4  501    0 -0.29199467031E+02  0.86928476701E+01  0.67679750019E+02  0.74220772282E+02  0.00000000000E+00 0. -1.
         -3    1    4    4    0  501  0.38745816357E+02 -0.73645544853E+01  0.14243434264E+02  0.41932688533E+02  0.00000000000E+00 0.  1.
          5    1    3    3  502    0 -0.19072417932E+02 -0.13591186835E+03  0.14462242011E+03  0.19943301503E+03  0.47000000000E+01 0. -1.
         11    1    6    6    0    0  0.60830238553E+02  0.12776060385E+03  0.39737810769E+03  0.42182040051E+03  0.00000000000E+00 0. -1.
        -12    1    6    6    0    0 -0.13315740435E+02  0.21329106401E+02  0.18300100359E+03  0.18472034820E+03  0.00000000000E+00 0.  1.
         -5    1    5    5    0  503 -0.37988429512E+02 -0.14506135084E+02  0.18330428807E+03  0.18781933009E+03  0.47000000000E+01 0.  1.
<mgrwt>
<rscale>  2 0.21943653E+03</rscale>
<asrwt>0</asrwt>
<pdfrwt beam="1">  1       21 0.16155195E+00 0.21970870E+03</pdfrwt>
<pdfrwt beam="2">  1       21 0.92090431E-02 0.21970870E+03</pdfrwt>
<totfact> 0.22602153E+04</totfact>
</mgrwt>
</event>
<event>
12    1  0.1441827E-001  0.1902105E+03  0.7546771E-02  0.1158280E+00
         21   -1    0    0  504  503  0.00000000000E+00  0.00000000000E+00  0.74163488337E+02  0.74163488337E+02  0.00000000000E+00 0. -1.
         21   -1    0    0  502  504 -0.00000000000E+00 -0.00000000000E+00 -0.48803218626E+03  0.48803218626E+03  0.00000000000E+00 0. -1.
          6    2    1    2  502    0 -0.11320129002E+02  0.76324349272E+02 -0.21369237589E+03  0.28606055138E+03  0.17381788149E+03 0.  0.
         24    2    3    3    0    0 -0.76024082820E+01  0.12478010640E+03 -0.17453582547E+03  0.22347375335E+03  0.62047501942E+02 0.  0.
         -6    2    1    2    0  503  0.11320129002E+02 -0.76324349272E+02 -0.20017632203E+03  0.27613512322E+03  0.17385768537E+03 0.  0.
        -24    2    5    5    0    0 -0.36340847551E+02  0.44150020748E+01 -0.55059020948E+02  0.10330129373E+03  0.79369465508E+02 0.  0.
          2    1    4    4  501    0  0.23164439594E+02  0.26834798760E+02 -0.31601815665E+02  0.47490761623E+02  0.00000000000E+00 0. -1.
         -1    1    4    4    0  501 -0.30766847876E+02  0.97945307642E+02 -0.14293400981E+03  0.17598299173E+03  0.00000000000E+00 0.  1.
          5    1    3    3  502    0 -0.37177207201E+01 -0.48455757130E+02 -0.39156550422E+02  0.62586798028E+02  0.47000000000E+01 0. -1.
         13    1    6    6    0    0 -0.31413776444E+02  0.92962352750E+01  0.12738541094E+02  0.35149904267E+02  0.00000000000E+00 0. -1.
        -14    1    6    6    0    0 -0.49270711068E+01 -0.48812332002E+01 -0.67797562042E+02  0.68151389466E+02  0.00000000000E+00 0.  1.
         -5    1    5    5    0  503  0.47660976553E+02 -0.80739351347E+02 -0.14511730108E+03  0.17283382948E+03  0.47000000000E+01 0.  1.
<mgrwt>
<rscale>  2 0.19020144E+03</rscale>
<asrwt>0</asrwt>
<pdfrwt beam="1">  1       21 0.11409767E-01 0.19021053E+03</pdfrwt>
<pdfrwt beam="2">  1       21 0.75081876E-01 0.19021053E+03</pdfrwt>
<totfact> 0.10194420E+05</totfact>
</mgrwt>
</event>
<event>
12    1  0.1441827E-001  0.2013518E+03  0.7546771E-02  0.1149261E+00
         21   -1    0    0  504  503  0.00000000000E+00  0.00000000000E+00  0.73463418941E+03  0.73463418941E+03  0.00000000000E+00 0. -1.
         21   -1    0    0  502  504 -0.00000000000E+00 -0.00000000000E+00 -0.62394262789E+02  0.62394262789E+02  0.00000000000E+00 0. -1.
          6    2    1    2  502    0  0.92045344689E+02  0.34588457684E+02  0.19062304985E+03  0.27501565933E+03  0.17212715899E+03 0.  0.
         24    2    3    3    0    0  0.45070288758E+02  0.86751314442E+02  0.11032268778E+03  0.16825490974E+03  0.81126430513E+02 0.  0.
         -6    2    1    2    0  503 -0.92045344689E+02 -0.34588457684E+02  0.48161687678E+03  0.52201279287E+03  0.17570951323E+03 0.  0.
        -24    2    5    5    0    0 -0.10817737038E+03  0.24319848803E+02  0.34065810284E+03  0.36831862650E+03  0.85538699359E+02 0.  0.
          4    1    4    4  501    0  0.60843628732E+02  0.52991285516E+02  0.10203488462E+03  0.13008128680E+03  0.00000000000E+00 0. -1.
         -3    1    4    4    0  501 -0.15773339974E+02  0.33760028926E+02  0.82878031614E+01  0.38173622938E+02  0.00000000000E+00 0.  1.
          5    1    3    3  502    0  0.46975055931E+02 -0.52162856758E+02  0.80300362068E+02  0.10676074959E+03  0.47000000000E+01 0. -1.
         11    1    6    6    0    0 -0.41720673562E+02 -0.19370114280E+02  0.54513492712E+02  0.71326971178E+02  0.00000000000E+00 0. -1.
        -12    1    6    6    0    0 -0.66456696819E+02  0.43689963082E+02  0.28614461012E+03  0.29699165532E+03  0.00000000000E+00 0.  1.
         -5    1    5    5    0  503  0.16132025692E+02 -0.58908306487E+02  0.14095877394E+03  0.15369416637E+03  0.47000000000E+01 0.  1.
<mgrwt>
<rscale>  2 0.20056761E+03</rscale>
<asrwt>0</asrwt>
<pdfrwt beam="1">  1       21 0.11302064E+00 0.20135178E+03</pdfrwt>
<pdfrwt beam="2">  1       21 0.95991179E-02 0.20135178E+03</pdfrwt>
<totfact> 0.53100371E+04</totfact>
</mgrwt>
</event>
<event>
12    1  0.1441827E-001  0.1925727E+03  0.7546771E-02  0.1156350E+00
         21   -1    0    0  504  503  0.00000000000E+00  0.00000000000E+00  0.26555591796E+03  0.26555591796E+03  0.00000000000E+00 0.  1.
         21   -1    0    0  502  504 -0.00000000000E+00 -0.00000000000E+00 -0.20537033549E+03  0.20537033549E+03  0.00000000000E+00 0.  1.
          6    2    1    2  502    0 -0.81658178467E+02  0.91231416272E+01 -0.10377861841E+03  0.21800629794E+03  0.17322082577E+03 0.  0.
         24    2    3    3    0    0 -0.13986738265E+01  0.45032980472E+02 -0.14877479172E+02  0.92879933141E+02  0.79846208270E+02 0.  0.
         -6    2    1    2    0  503  0.81658178467E+02 -0.91231416272E+01  0.16396420088E+03  0.25291995551E+03  0.17416358661E+03 0.  0.
        -24    2    5    5    0    0  0.11206623970E+03  0.27186572859E+02  0.14471339375E+03  0.20158060287E+03  0.79967626569E+02 0.  0.
          2    1    4    4  501    0  0.20463036477E+02  0.52459556621E+02  0.11868707227E+02  0.57546565093E+02  0.00000000000E+00 0. -1.
         -1    1    4    4    0  501 -0.21861710304E+02 -0.74265761495E+01 -0.26746186400E+02  0.35333368048E+02  0.00000000000E+00 0.  1.
          5    1    3    3  502    0 -0.80259504640E+02 -0.35909838845E+02 -0.88901139236E+02  0.12512636480E+03  0.47000000000E+01 0. -1.
         11    1    6    6    0    0  0.25232428857E+02  0.11976088059E+02 -0.44811976591E+01  0.28287511090E+02  0.00000000000E+00 0. -1.
        -12    1    6    6    0    0  0.86833810845E+02  0.15210484799E+02  0.14919459141E+03  0.17329309178E+03  0.00000000000E+00 0.  1.
         -5    1    5    5    0  503 -0.30408061235E+02 -0.36309714486E+02  0.19250807128E+02  0.51339352637E+02  0.47000000000E+01 0.  1.
<mgrwt>
<rscale>  2 0.19235929E+03</rscale>
<asrwt>0</asrwt>
<pdfrwt beam="1">  1       21 0.40854756E-01 0.19257270E+03</pdfrwt>
<pdfrwt beam="2">  1       21 0.31595436E-01 0.19257270E+03</pdfrwt>
<totfact> 0.55580935E+04</totfact>
</mgrwt>
</event>
<event>
12    1  0.1441827E-001  0.2218993E+03  0.7546771E-02  0.1132795E+00
         21   -1    0    0  504  503  0.00000000000E+00  0.00000000000E+00  0.28195622151E+03  0.28195622151E+03  0.00000000000E+00 0. -1.
         21   -1    0    0  502  504 -0.00000000000E+00 -0.00000000000E+00 -0.22149631971E+03  0.22149631971E+03  0.00000000000E+00 0. -1.
          6    2    1    2  502    0  0.12179443460E+03  0.63472522818E+02 -0.87127781300E+02  0.23839160150E+03  0.17428901268E+03 0.  0.
         24    2    3    3    0    0  0.55275891474E+02 -0.25765786571E+02 -0.76254398673E+02  0.12646076173E+03  0.80363492982E+02 0.  0.
         -6    2    1    2    0  503 -0.12179443460E+03 -0.63472522818E+02  0.14758768310E+03  0.26506093971E+03  0.17208292218E+03 0.  0.
        -24    2    5    5    0    0 -0.49030133461E+02  0.19332446183E+02  0.22399369167E+02  0.98191199023E+02  0.79762662718E+02 0.  0.
          2    1    4    4  501    0  0.33137616178E+02 -0.33505435179E+02 -0.46603574125E+00  0.47126775635E+02  0.00000000000E+00 0. -1.
         -1    1    4    4    0  501  0.22138275297E+02  0.77396486080E+01 -0.75788362932E+02  0.79333986094E+02  0.00000000000E+00 0.  1.
          5    1    3    3  502    0  0.66518543129E+02  0.89238309389E+02 -0.10873382627E+02  0.11193083977E+03  0.47000000000E+01 0. -1.
         11    1    6    6    0    0 -0.45118947529E+02 -0.41799661373E+00  0.47830717594E+02  0.65754632482E+02  0.00000000000E+00 0. -1.
        -12    1    6    6    0    0 -0.39111859325E+01  0.19750442797E+02 -0.25431348428E+02  0.32436566541E+02  0.00000000000E+00 0.  1.
         -5    1    5    5    0  503 -0.72764301142E+02 -0.82804969001E+02  0.12518831393E+03  0.16686974069E+03  0.47000000000E+01 0.  1.
<mgrwt>
<rscale>  2 0.22146592E+03</rscale>
<asrwt>0</asrwt>
<pdfrwt beam="1">  1       21 0.43377880E-01 0.22189931E+03</pdfrwt>
<pdfrwt beam="2">  1       21 0.34076357E-01 0.22189931E+03</pdfrwt>
<totfact> 0.41784540E+04</totfact>
</mgrwt>
</event>
<event>
12    1  0.1441827E-001  0.1850197E+03  0.7546771E-02  0.1163322E+00
         21   -1    0    0  504  503  0.00000000000E+00  0.00000000000E+00  0.94150051834E+03  0.94150051834E+03  0.00000000000E+00 0.  1.
         21   -1    0    0  502  504 -0.00000000000E+00 -0.00000000000E+00 -0.40363693628E+02  0.40363693628E+02  0.00000000000E+00 0.  1.
          6    2    1    2  502    0 -0.40236078306E+02  0.50813237678E+02  0.28995311135E+03  0.34328936180E+03  0.17197049754E+03 0.  0.
         24    2    3    3    0    0 -0.63743494882E+02  0.90081546018E+02  0.19862765755E+03  0.24102975499E+03  0.80401979903E+02 0.  0.
         -6    2    1    2    0  503  0.40236078306E+02 -0.50813237678E+02  0.61118371337E+03  0.63857485017E+03  0.17329564526E+03 0.  0.
        -24    2    5    5    0    0  0.11575282941E+02 -0.86904455891E+02  0.27653917793E+03  0.30073898422E+03  0.79269464949E+02 0.  0.
          4    1    4    4  501    0 -0.65796291633E+02  0.79841618371E+02  0.20440357038E+03  0.22909529808E+03  0.00000000000E+00 0. -1.
         -3    1    4    4    0  501  0.20527967510E+01  0.10239927647E+02 -0.57759128300E+01  0.11934456910E+02  0.00000000000E+00 0.  1.
          5    1    3    3  502    0  0.23507416576E+02 -0.39268308340E+02  0.91325453799E+02  0.10225960681E+03  0.47000000000E+01 0. -1.
         11    1    6    6    0    0  0.17486979524E+02 -0.24662970943E+02  0.18973933450E+02  0.35694071485E+02  0.00000000000E+00 0. -1.
        -12    1    6    6    0    0 -0.59116965830E+01 -0.62241484947E+02  0.25756524448E+03  0.26504491274E+03  0.00000000000E+00 0.  1.
         -5    1    5    5    0  503  0.28660795365E+02  0.36091218212E+02  0.33464453544E+03  0.33783586595E+03  0.47000000000E+01 0.  1.
<mgrwt>
<rscale>  2 0.18470882E+03</rscale>
<asrwt>0</asrwt>
<pdfrwt beam="1">  1       21 0.14484622E+00 0.18501975E+03</pdfrwt>
<pdfrwt beam="2">  1       21 0.62097997E-02 0.18501975E+03</pdfrwt>
<totfact> 0.61141097E+04</totfact>
</mgrwt>
</event>
<event>
12    1  0.1441827E-001  0.1863664E+03  0.7546771E-02  0.1161820E+00
         21   -1    0    0  504  503  0.00000000000E+00  0.00000000000E+00  0.11311788991E+04  0.11311788991E+04  0.00000000000E+00 0.  1.
         21   -1    0    0  502  504 -0.00000000000E+00 -0.00000000000E+00 -0.30777566272E+02  0.30777566272E+02  0.00000000000E+00 0.  1.
          6    2    1    2  502    0  0.10237898168E+02 -0.68599746331E+02  0.58379967503E+03  0.61282501547E+03  0.17297889834E+03 0.  0.
         24    2    3    3    0    0  0.59868495537E+01 -0.16252454239E+02  0.53620636916E+03  0.54179316932E+03  0.75647758485E+02 0.  0.
         -6    2    1    2    0  503 -0.10237898168E+02  0.68599746331E+02  0.51660165782E+03  0.54913144992E+03  0.17279275643E+03 0.  0.
        -24    2    5    5    0    0 -0.14424666717E+02  0.11435943051E+03  0.40744676467E+03  0.43060567877E+03  0.78244707162E+02 0.  0.
          4    1    4    4  501    0  0.30252713444E+02 -0.32990615998E+02  0.24125456359E+03  0.24537190521E+03  0.00000000000E+00 0. -1.
         -3    1    4    4    0  501 -0.24265863890E+02  0.16738161759E+02  0.29495180556E+03  0.29642126411E+03  0.00000000000E+00 0.  1.
          5    1    3    3  502    0  0.42510486139E+01 -0.52347292092E+02  0.47593305870E+02  0.71031846149E+02  0.47000000000E+01 0. -1.
         13    1    6    6    0    0 -0.27950292826E+02  0.64012978285E+02  0.32957075425E+03  0.33689132122E+03  0.00000000000E+00 0. -1.
        -14    1    6    6    0    0  0.13525626108E+02  0.50346452221E+02  0.77876010419E+02  0.93714357553E+02  0.00000000000E+00 0.  1.
         -5    1    5    5    0  503  0.41867685499E+01 -0.45759684175E+02  0.10915489315E+03  0.11852577115E+03  0.47000000000E+01 0.  1.
<mgrwt>
<rscale>  2 0.18632321E+03</rscale>
<asrwt>0</asrwt>
<pdfrwt beam="1">  1       21 0.17402749E+00 0.18636641E+03</pdfrwt>
<pdfrwt beam="2">  1       21 0.47350111E-02 0.18636641E+03</pdfrwt>
<totfact> 0.59210963E+04</totfact>
</mgrwt>
</event>
<event>
12    1  0.1441827E-001  0.1942754E+03  0.7546771E-02  0.1154748E+00
         21   -1    0    0  504  503  0.00000000000E+00  0.00000000000E+00  0.14028360668E+03  0.14028360668E+03  0.00000000000E+00 0.  1.
         21   -1    0    0  502  504 -0.00000000000E+00 -0.00000000000E+00 -0.27093774422E+03  0.27093774422E+03  0.00000000000E+00 0.  1.
          6    2    1    2  502    0  0.50623489371E+02 -0.71152519708E+02 -0.45745424716E+02  0.19920149162E+03  0.17309873381E+03 0.  0.
         24    2    3    3    0    0 -0.36960081993E+02 -0.33720625851E+02 -0.54718377774E+01  0.95682988661E+02  0.81376686107E+02 0.  0.
         -6    2    1    2    0  503 -0.50623489371E+02  0.71152519708E+02 -0.84908712825E+02  0.21201985929E+03  0.17354397852E+03 0.  0.
        -24    2    5    5    0    0 -0.66809899729E+02  0.10958422341E+03 -0.59309995526E+02  0.16286317045E+03  0.80836081040E+02 0.  0.
          4    1    4    4  501    0  0.12811200515E+02 -0.12927980393E+02  0.27120019929E+02  0.32661215786E+02  0.00000000000E+00 0. -1.
         -3    1    4    4    0  501 -0.49771282508E+02 -0.20792645458E+02 -0.32591857706E+02  0.63021772875E+02  0.00000000000E+00 0.  1.
          5    1    3    3  502    0  0.87583571364E+02 -0.37431893857E+02 -0.40273586938E+02  0.10351850296E+03  0.47000000000E+01 0. -1.
         11    1    6    6    0    0 -0.35118299562E+02  0.61679489346E+02  0.11268806342E+02  0.71865432347E+02  0.00000000000E+00 0. -1.
        -12    1    6    6    0    0 -0.31691600167E+02  0.47904734065E+02 -0.70578801868E+02  0.90997738104E+02  0.00000000000E+00 0.  1.
         -5    1    5    5    0  503  0.16186410358E+02 -0.38431703702E+02 -0.25598717300E+02  0.49156688834E+02  0.47000000000E+01 0.  1.
<mgrwt>
<rscale>  2 0.19417592E+03</rscale>
<asrwt>0</asrwt>
<pdfrwt beam="1">  1       21 0.21582093E-01 0.19427540E+03</pdfrwt>
<pdfrwt beam="2">  1       21 0.41682730E-01 0.19427540E+03</pdfrwt>
<totfact> 0.11082859E+05</totfact>
</mgrwt>
</event>
<event>
12    1  0.1441827E-001  0.1891954E+03  0.7546771E-02  0.1159686E+00
         21   -1    0    0  504  503  0.00000000000E+00  0.00000000000E+00  0.26119193712E+03  0.26119193712E+03  0.00000000000E+00 0. -1.
         21   -1    0    0  502  504 -0.00000000000E+00 -0.00000000000E+00 -0.17328032517E+03  0.17328032517E+03  0.00000000000E+00 0. -1.
          6    2    1    2  502    0 -0.64957367977E+02  0.41459728017E+02 -0.57714129133E+02  0.19572189362E+03  0.17040472481E+03 0.  0.
         24    2    3    3    0    0 -0.10517634700E+03  0.18561138820E+02 -0.19830884674E+02  0.13572904511E+03  0.81378927594E+02 0.  0.
         -6    2    1    2    0  503  0.64957367977E+02 -0.41459728017E+02  0.14562574108E+03  0.23875036867E+03  0.17279037408E+03 0.  0.
        -24    2    5    5    0    0  0.51303607575E+01 -0.24633493953E+02  0.39502622602E+01  0.83971738865E+02  0.80015740515E+02 0.  0.
          2    1    4    4  501    0 -0.86346692980E+02  0.39806630362E+02 -0.37591691610E+02  0.10224213656E+03  0.00000000000E+00 0. -1.
         -1    1    4    4    0  501 -0.18829654023E+02 -0.21245491542E+02  0.17760806937E+02  0.33486908555E+02  0.00000000000E+00 0.  1.
          5    1    3    3  502    0  0.40218979026E+02  0.22898589197E+02 -0.37883244460E+02  0.59992848506E+02  0.47000000000E+01 0. -1.
         13    1    6    6    0    0  0.14463406119E+02 -0.51801518744E+02 -0.46556878884E+01  0.53983913256E+02  0.00000000000E+00 0. -1.
        -14    1    6    6    0    0 -0.93330453617E+01  0.27168024791E+02  0.86059501486E+01  0.29987825608E+02  0.00000000000E+00 0.  1.
         -5    1    5    5    0  503  0.59827007219E+02 -0.16826234064E+02  0.14167547882E+03  0.15477862981E+03  0.47000000000E+01 0.  1.
<mgrwt>
<rscale>  2 0.18864892E+03</rscale>
<asrwt>0</asrwt>
<pdfrwt beam="1">  1       21 0.40183375E-01 0.18919535E+03</pdfrwt>
<pdfrwt beam="2">  1       21 0.26658512E-01 0.18919535E+03</pdfrwt>
<totfact> 0.80045033E+04</totfact>
</mgrwt>
</event>
<event>
12    1  0.1441827E-001  0.2602788E+03  0.7546771E-02  0.1107014E+00
         21   -1    0    0  504  503  0.00000000000E+00  0.00000000000E+00  0.43926998927E+03  0.43926998927E+03  0.00000000000E+00 0. -1.
         21   -1    0    0  502  504 -0.00000000000E+00 -0.00000000000E+00 -0.34758781021E+03  0.34758781021E+03  0.00000000000E+00 0.  1.
          6    2    1    2  502    0 -0.18693324918E+03  0.55565820494E+02 -0.24772728251E+03  0.35913846352E+03  0.17198845725E+03 0.  0.
         24    2    3    3    0    0 -0.85300952157E+02 -0.63535336745E+01 -0.19765312878E+03  0.22993845930E+03  0.80550083315E+02 0.  0.
         -6    2    1    2    0  503  0.18693324918E+03 -0.55565820494E+02  0.33940946156E+03  0.42771933595E+03  0.17237589070E+03 0.  0.
        -24    2    5    5    0    0  0.11239322715E+03  0.35946478228E+02  0.18992199564E+03  0.23719556271E+03  0.79164283218E+02 0.  0.
          4    1    4    4  501    0 -0.34507546506E+02  0.11112686997E+02 -0.16070882361E+03  0.16474704417E+03  0.00000000000E+00 0. -1.
         -3    1    4    4    0  501 -0.50793405652E+02 -0.17466220672E+02 -0.36944305169E+02  0.65191415130E+02  0.00000000000E+00 0.  1.
          5    1    3    3  502    0 -0.10163229702E+03  0.61919354168E+02 -0.50074153736E+02  0.12920000422E+03  0.47000000000E+01 0. -1.
         11    1    6    6    0    0 -0.97137133676E+00 -0.16942593592E+02  0.24321006870E+02  0.29656473409E+02  0.00000000000E+00 0. -1.
        -12    1    6    6    0    0  0.11336459849E+03  0.52889071820E+02  0.16560098876E+03  0.20753908930E+03  0.00000000000E+00 0.  1.
         -5    1    5    5    0  503  0.74540022028E+02 -0.91512298722E+02  0.14948746593E+03  0.19052377324E+03  0.47000000000E+01 0.  1.
<mgrwt>
<rscale>  2 0.26021466E+03</rscale>
<asrwt>0</asrwt>
<pdfrwt beam="1">  1       21 0.67579998E-01 0.26027879E+03</pdfrwt>
<pdfrwt beam="2">  1       21 0.53475048E-01 0.26027879E+03</pdfrwt>
<totfact> 0.63368369E+03</totfact>
</mgrwt>
</event>
<event>
12    1  0.1441827E-001  0.1817756E+03  0.7546771E-02  0.1167536E+00
         21   -1    0    0  504  503  0.00000000000E+00  0.00000000000E+00  0.19268156715E+03  0.19268156715E+03  0.00000000000E+00 0. -1.
         21   -1    0    0  502  504 -0.00000000000E+00 -0.00000000000E+00 -0.16691272798E+03  0.16691272798E+03  0.00000000000E+00 0. -1.
          6    2    1    2  502    0 -0.27696918191E+02  0.15776790530E+02 -0.60561616525E+00  0.18177661185E+03  0.17895905522E+03 0.  0.
         24    2    3    3    0    0  0.31735407215E+02 -0.11847519958E+02  0.49042416815E+02  0.99421763708E+02  0.79574045087E+02 0.  0.
         -6    2    1    2    0  503  0.27696918191E+02 -0.15776790530E+02  0.26374455331E+02  0.17781768328E+03  0.17293782177E+03 0.  0.
        -24    2    5    5    0    0  0.51093475954E+02  0.37277602162E+02 -0.23932028816E+02  0.10090864710E+03  0.74897597751E+02 0.  0.
          4    1    4    4  501    0  0.13949277426E+02 -0.38558932573E+02  0.53084376107E+02  0.67077005065E+02  0.00000000000E+00 0. -1.
         -3    1    4    4    0  501  0.17786129789E+02  0.26711412615E+02 -0.40419592921E+01  0.32344758643E+02  0.00000000000E+00 0.  1.
          5    1    3    3  502    0 -0.59432325406E+02  0.27624310488E+02 -0.49648032980E+02  0.82354848138E+02  0.47000000000E+01 0. -1.
         13    1    6    6    0    0  0.69202104845E+02  0.20798889020E+02 -0.10610071354E+02  0.73034914347E+02  0.00000000000E+00 0. -1.
        -14    1    6    6    0    0 -0.18108628891E+02  0.16478713142E+02 -0.13321957462E+02  0.27873732756E+02  0.00000000000E+00 0.  1.
         -5    1    5    5    0  503 -0.23396557763E+02 -0.53054392692E+02  0.50306484147E+02  0.76909036181E+02  0.47000000000E+01 0.  1.
<mgrwt>
<rscale>  2 0.18027596E+03</rscale>
<asrwt>0</asrwt>
<pdfrwt beam="1">  1       21 0.29643318E-01 0.18177560E+03</pdfrwt>
<pdfrwt beam="2">  1       21 0.25678881E-01 0.18177560E+03</pdfrwt>
<totfact> 0.15749725E+05</totfact>
</mgrwt>
</event>
<event>
12    1  0.1441827E-001  0.3322925E+03  0.7546771E-02  0.1070715E+00
         21   -1    0    0  504  503  0.00000000000E+00  0.00000000000E+00  0.27325374472E+03  0.27325374472E+03  0.00000000000E+00 0. -1.
         21   -1    0    0  502  504 -0.00000000000E+00 -0.00000000000E+00 -0.10951810555E+04  0.10951810555E+04  0.00000000000E+00 0.  1.
          6    2    1    2  502    0  0.23593769618E+03  0.14680435970E+03 -0.95821034715E+03  0.10141919955E+04  0.18220926929E+03 0.  0.
         24    2    3    3    0    0  0.45509958345E+02  0.81308438830E+02 -0.26369670853E+03  0.29105734467E+03  0.80599040072E+02 0.  0.
         -6    2    1    2    0  503 -0.23593769618E+03 -0.14680435970E+03  0.13628303636E+03  0.35424280474E+03  0.17232754338E+03 0.  0.
        -24    2    5    5    0    0 -0.17491407501E+03 -0.50607734602E+02  0.12846224785E+03  0.23995838868E+03  0.89002262552E+02 0.  0.
          4    1    4    4  501    0  0.15796668152E+02  0.20145444930E+01 -0.20581028760E+01  0.16057051462E+02  0.00000000000E+00 0. -1.
         -3    1    4    4    0  501  0.29713290193E+02  0.79293894337E+02 -0.26163860566E+03  0.27500029321E+03  0.00000000000E+00 0.  1.
          5    1    3    3  502    0  0.19042773784E+03  0.65495920874E+02 -0.69451363862E+03  0.72313465082E+03  0.47000000000E+01 0. -1.
         11    1    6    6    0    0 -0.60999453494E+02  0.24821426346E+02  0.36886133760E+02  0.75482603268E+02  0.00000000000E+00 0. -1.
        -12    1    6    6    0    0 -0.11391462152E+03 -0.75429160949E+02  0.91576114085E+02  0.16447578541E+03  0.00000000000E+00 0.  1.
         -5    1    5    5    0  503 -0.61023621171E+02 -0.96196625102E+02  0.78207885131E+01  0.11428441606E+03  0.47000000000E+01 0.  1.
<mgrwt>
<rscale>  2 0.33095597E+03</rscale>
<asrwt>0</asrwt>
<pdfrwt beam="1">  1       21 0.42039038E-01 0.33229254E+03</pdfrwt>
<pdfrwt beam="2">  1       21 0.16848939E+00 0.33229254E+03</pdfrwt>
<totfact> 0.10645075E+03</totfact>
</mgrwt>
</event>
<event>
12    1  0.1441827E-001  0.2409716E+03  0.7546771E-02  0.1119298E+00
         21   -1    0    0  504  503  0.00000000000E+00  0.00000000000E+00  0.35208096029E+03  0.35208096029E+03  0.00000000000E+00 0. -1.
         21   -1    0    0  502  504 -0.00000000000E+00 -0.00000000000E+00 -0.21804902821E+03  0.21804902821E+03  0.00000000000E+00 0.  1.
          6    2    1    2  502    0  0.77431684459E+02  0.14894783420E+03 -0.74411071497E+02  0.25219901174E+03  0.17287628782E+03 0.  0.
         24    2    3    3    0    0  0.24509709325E+02  0.83376872046E+02  0.25686755022E+02  0.12127173649E+03  0.80589056611E+02 0.  0.
         -6    2    1    2    0  503 -0.77431684459E+02 -0.14894783420E+03  0.20844300358E+03  0.31793097676E+03  0.17161147156E+03 0.  0.
        -24    2    5    5    0    0 -0.25872960137E+02 -0.16547874927E+03  0.15423674252E+03  0.24117173012E+03  0.79512289236E+02 0.  0.
          4    1    4    4  501    0 -0.18120929667E+02  0.13259022685E+02 -0.17567665554E+02  0.28509518543E+02  0.00000000000E+00 0. -1.
         -3    1    4    4    0  501  0.42630638992E+02  0.70117849361E+02  0.43254420576E+02  0.92762217952E+02  0.00000000000E+00 0.  1.
          5    1    3    3  502    0  0.52921975134E+02  0.65570962153E+02 -0.10009782652E+03  0.13092727525E+03  0.47000000000E+01 0. -1.
         13    1    6    6    0    0 -0.35587920794E+02 -0.12919700504E+03  0.15327897076E+03  0.20359962941E+03  0.00000000000E+00 0. -1.
        -14    1    6    6    0    0  0.97149606569E+01 -0.36281744233E+02  0.95777175737E+00  0.37572100712E+02  0.00000000000E+00 0.  1.
         -5    1    5    5    0  503 -0.51558724322E+02  0.16530915070E+02  0.54206261057E+02  0.76759246639E+02  0.47000000000E+01 0.  1.
<mgrwt>
<rscale>  2 0.24074488E+03</rscale>
<asrwt>0</asrwt>
<pdfrwt beam="1">  1       21 0.54166302E-01 0.24097165E+03</pdfrwt>
<pdfrwt beam="2">  1       21 0.33546004E-01 0.24097165E+03</pdfrwt>
<totfact> 0.26884355E+04</totfact>
</mgrwt>
</event>
<event>
12    1  0.1441827E-001  0.2477099E+03  0.7546771E-02  0.1114890E+00
         21   -1    0    0  504  503  0.00000000000E+00  0.00000000000E+00  0.72436392110E+02  0.72436392110E+02  0.00000000000E+00 0.  1.
         21   -1    0    0  502  504 -0.00000000000E+00 -0.00000000000E+00 -0.99841656178E+03  0.99841656178E+03  0.00000000000E+00 0. -1.
          6    2    1    2  502    0  0.15091121084E+02 -0.17577156926E+03 -0.25201855508E+03  0.35281086337E+03  0.17273901329E+03 0.  0.
         24    2    3    3    0    0  0.44075174760E+02 -0.39484872261E+02 -0.14862711899E+03  0.17924238063E+03  0.80846362599E+02 0.  0.
         -6    2    1    2    0  503 -0.15091121084E+02  0.17577156926E+03 -0.67396161459E+03  0.71804209052E+03  0.17388731788E+03 0.  0.
        -24    2    5    5    0    0  0.61776054697E+01  0.30426482366E+02 -0.36763941441E+03  0.37828786562E+03  0.83540628494E+02 0.  0.
          2    1    4    4  501    0  0.34752797954E+01  0.24194783298E+02 -0.31352634954E+02  0.39754909471E+02  0.00000000000E+00 0. -1.
         -1    1    4    4    0  501  0.40599894965E+02 -0.63679655559E+02 -0.11727448404E+03  0.13948747116E+03  0.00000000000E+00 0.  1.
          5    1    3    3  502    0 -0.28984053676E+02 -0.13628669700E+03 -0.10339143609E+03  0.17356848275E+03  0.47000000000E+01 0. -1.
         11    1    6    6    0    0 -0.19529752834E+02 -0.19951591144E+02 -0.18490646626E+03  0.18700234892E+03  0.00000000000E+00 0. -1.
        -12    1    6    6    0    0  0.25707358304E+02  0.50378073510E+02 -0.18273294815E+03  0.19128551670E+03  0.00000000000E+00 0.  1.
         -5    1    5    5    0  503 -0.21268726554E+02  0.14534508689E+03 -0.30632220018E+03  0.33975422490E+03  0.47000000000E+01 0.  1.
<mgrwt>
<rscale>  2 0.24750845E+03</rscale>
<asrwt>0</asrwt>
<pdfrwt beam="1">  1       21 0.11144060E-01 0.24770988E+03</pdfrwt>
<pdfrwt beam="2">  1       21 0.15360256E+00 0.24770988E+03</pdfrwt>
<totfact> 0.18160159E+04</totfact>
</mgrwt>
</event>
<event>
12    1  0.1441827E-001  0.2911529E+03  0.7546771E-02  0.1089791E+00
         21   -1    0    0  504  503  0.00000000000E+00  0.00000000000E+00  0.81922108745E+03  0.81922108745E+03  0.00000000000E+00 0. -1.
         21   -1    0    0  502  504 -0.00000000000E+00 -0.00000000000E+00 -0.10952515170E+03  0.10952515170E+03  0.00000000000E+00 0. -1.
          6    2    1    2  502    0 -0.10095409829E+03  0.21128153945E+03  0.24487290047E+03  0.38043758631E+03  0.17302716786E+03 0.  0.
         24    2    3    3    0    0 -0.12957778913E+03  0.19249748742E+03  0.24317577161E+03  0.34583806992E+03  0.81386906880E+02 0.  0.
         -6    2    1    2    0  503  0.10095409829E+03 -0.21128153945E+03  0.46482303529E+03  0.54830865284E+03  0.17248276950E+03 0.  0.
        -24    2    5    5    0    0  0.73901861103E+02 -0.17352839919E+03  0.22360007765E+03  0.30261020265E+03  0.77474832187E+02 0.  0.
          2    1    4    4  501    0 -0.11819912794E+03  0.19986213827E+03  0.22683350204E+03  0.32460644758E+03  0.00000000000E+00 0. -1.
         -1    1    4    4    0  501 -0.11378661190E+02 -0.73646508555E+01  0.16342269573E+02  0.21231622347E+02  0.00000000000E+00 0.  1.
          5    1    3    3  502    0  0.28623690835E+02  0.18784052029E+02  0.16971288576E+01  0.34599516384E+02  0.47000000000E+01 0. -1.
         13    1    6    6    0    0  0.43429493482E+02 -0.83213231037E+02  0.16750474315E+03  0.19201146242E+03  0.00000000000E+00 0. -1.
        -14    1    6    6    0    0  0.30472367621E+02 -0.90315168155E+02  0.56095334499E+02  0.11059874023E+03  0.00000000000E+00 0.  1.
         -5    1    5    5    0  503  0.27052237192E+02 -0.37753140254E+02  0.24122295763E+03  0.24569845019E+03  0.47000000000E+01 0.  1.
<mgrwt>
<rscale>  2 0.29107208E+03</rscale>
<asrwt>0</asrwt>
<pdfrwt beam="1">  1       21 0.12603401E+00 0.29115291E+03</pdfrwt>
<pdfrwt beam="2">  1       21 0.16850024E-01 0.29115291E+03</pdfrwt>
<totfact> 0.14005371E+04</totfact>
</mgrwt>
</event>
<event>
12    1  0.1441827E-001  0.2697077E+03  0.7546771E-02  0.1101529E+00
         21   -1    0    0  504  503  0.00000000000E+00  0.00000000000E+00  0.22101635365E+04  0.22101635365E+04  0.00000000000E+00 0.  1.
         21   -1    0    0  502  504 -0.00000000000E+00 -0.00000000000E+00 -0.33468401296E+02  0.33468401296E+02  0.00000000000E+00 0.  1.
          6    2    1    2  502    0 -0.19603118311E+03 -0.64317415969E+02  0.12428542981E+04  0.12717818385E+04  0.17371610125E+03 0.  0.
         24    2    3    3    0    0 -0.66025744307E+02 -0.78448605308E+02  0.46339657556E+03  0.48141639406E+03  0.80695573872E+02 0.  0.
         -6    2    1    2    0  503  0.19603118311E+03  0.64317415969E+02  0.93384083716E+03  0.97185009929E+03  0.17282636258E+03 0.  0.
        -24    2    5    5    0    0  0.46970015240E+02  0.39179611418E+02  0.23670873973E+03  0.25850138215E+03  0.83968522829E+02 0.  0.
          4    1    4    4  501    0  0.11804078542E+02  0.22477346551E+01  0.15016476066E+02  0.19232346054E+02  0.00000000000E+00 0. -1.
         -3    1    4    4    0  501 -0.77829822849E+02 -0.80696339963E+02  0.44838009950E+03  0.46218404801E+03  0.00000000000E+00 0.  1.
          5    1    3    3  502    0 -0.13000543880E+03  0.14131189339E+02  0.77945772252E+03  0.79036544448E+03  0.47000000000E+01 0. -1.
         13    1    6    6    0    0  0.31116070247E+01 -0.25441103389E+02  0.64757505479E+02  0.69645289545E+02  0.00000000000E+00 0. -1.
        -14    1    6    6    0    0  0.43858408215E+02  0.64620714807E+02  0.17195123425E+03  0.18885609260E+03  0.00000000000E+00 0.  1.
         -5    1    5    5    0  503  0.14906116787E+03  0.25137804551E+02  0.69713209743E+03  0.71334871715E+03  0.47000000000E+01 0.  1.
<mgrwt>
<rscale>  2 0.26956452E+03</rscale>
<asrwt>0</asrwt>
<pdfrwt beam="1">  1       21 0.34002504E+00 0.26970769E+03</pdfrwt>
<pdfrwt beam="2">  1       21 0.51489866E-02 0.26970769E+03</pdfrwt>
<totfact> 0.47208683E+03</totfact>
</mgrwt>
</event>
<event>
12    1  0.1441827E-001  0.1824074E+03  0.7546771E-02  0.1166081E+00
         21   -1    0    0  504  503  0.00000000000E+00  0.00000000000E+00  0.12839997500E+03  0.12839997500E+03  0.00000000000E+00 0. -1.
         21   -1    0    0  502  504 -0.00000000000E+00 -0.00000000000E+00 -0.47948742976E+03  0.47948742976E+03  0.00000000000E+00 0. -1.
          6    2    1    2  502    0 -0.55483282906E+02  0.13352152541E+02 -0.38383854098E+03  0.42497586216E+03  0.17325063698E+03 0.  0.
         24    2    3    3    0    0  0.13274065999E+02 -0.95057286190E+01 -0.31124232575E+03  0.32229988529E+03  0.82090626846E+02 0.  0.
         -6    2    1    2    0  503  0.55483282906E+02 -0.13352152541E+02  0.32751086218E+02  0.18291154260E+03  0.17066729068E+03 0.  0.
        -24    2    5    5    0    0  0.63352807409E+02 -0.49242404005E+02  0.68816657389E+02  0.13121188119E+03  0.77733087371E+02 0.  0.
          2    1    4    4  501    0  0.15600071644E+02  0.34779305927E+02 -0.11671102951E+03  0.12277795717E+03  0.00000000000E+00 0. -1.
         -1    1    4    4    0  501 -0.23260056449E+01 -0.44285034546E+02 -0.19453129624E+03  0.19952192813E+03  0.00000000000E+00 0.  1.
          5    1    3    3  502    0 -0.68757348905E+02  0.22857881160E+02 -0.72596215233E+02  0.10267597687E+03  0.47000000000E+01 0. -1.
         13    1    6    6    0    0 -0.95790415801E+01 -0.60498044994E+01  0.40173888228E+02  0.41740860885E+02  0.00000000000E+00 0. -1.
        -14    1    6    6    0    0  0.72931848990E+02 -0.43192599506E+02  0.28642769161E+02  0.89471020305E+02  0.00000000000E+00 0.  1.
         -5    1    5    5    0  503 -0.78695245037E+01  0.35890251464E+02 -0.36065571171E+02  0.51699661411E+02  0.47000000000E+01 0.  1.
<mgrwt>
<rscale>  2 0.18179132E+03</rscale>
<asrwt>0</asrwt>
<pdfrwt beam="1">  1       21 0.19753843E-01 0.18240740E+03</pdfrwt>
<pdfrwt beam="2">  1       21 0.73767296E-01 0.18240740E+03</pdfrwt>
<totfact> 0.39176649E+04</totfact>
</mgrwt>
</event>
<event>
12    1  0.1441827E-001  0.1846552E+03  0.7546771E-02  0.1164441E+00
         21   -1    0    0  504  503  0.00000000000E+00  0.00000000000E+00  0.35001346016E+03  0.35001346016E+03  0.00000000000E+00 0.  1.
         21   -1    0    0  502  504 -0.00000000000E+00 -0.00000000000E+00 -0.11470604548E+03  0.11470604548E+03  0.00000000000E+00 0.  1.
          6    2    1    2  502    0 -0.53078393573E+02  0.55995001081E+01  0.20278023299E+02  0.18128487899E+03  0.17205911443E+03 0.  0.
         24    2    3    3    0    0  0.33632539174E+02 -0.96989322122E+00  0.26874778587E+02  0.93949033162E+02  0.83498974388E+02 0.  0.
         -6    2    1    2    0  503  0.53078393573E+02 -0.55995001081E+01  0.21502939138E+03  0.28343462665E+03  0.17677352223E+03 0.  0.
        -24    2    5    5    0    0  0.25253102480E+02  0.57731922835E+02  0.17736643119E+03  0.20453149283E+03  0.80022412769E+02 0.  0.
          4    1    4    4  501    0  0.23288895677E+02 -0.30909010163E+02 -0.14946059936E+02  0.41486434876E+02  0.00000000000E+00 0. -1.
         -3    1    4    4    0  501  0.10343643497E+02  0.29939116942E+02  0.41820838524E+02  0.52462598286E+02  0.00000000000E+00 0.  1.
          5    1    3    3  502    0 -0.86710932748E+02  0.65693933293E+01 -0.65967552882E+01  0.87335845831E+02  0.47000000000E+01 0. -1.
         11    1    6    6    0    0  0.54314164370E+02  0.42897465935E+02  0.12214059606E+03  0.14038712990E+03  0.00000000000E+00 0. -1.
        -12    1    6    6    0    0 -0.29061061890E+02  0.14834456901E+02  0.55225835130E+02  0.64144362928E+02  0.00000000000E+00 0.  1.
         -5    1    5    5    0  503  0.27825291093E+02 -0.63331422944E+02  0.37662960186E+02  0.78903133819E+02  0.47000000000E+01 0.  1.
<mgrwt>
<rscale>  2 0.18351774E+03</rscale>
<asrwt>0</asrwt>
<pdfrwt beam="1">  1       21 0.53848224E-01 0.18465521E+03</pdfrwt>
<pdfrwt beam="2">  1       21 0.17647084E-01 0.18465521E+03</pdfrwt>
<totfact> 0.95281008E+04</totfact>
</mgrwt>
</event>
<event>
12    1  0.1441827E-001  0.2001650E+03  0.7546771E-02  0.1149705E+00
         21   -1    0    0  504  503  0.00000000000E+00  0.00000000000E+00  0.60912621809E+03  0.60912621809E+03  0.00000000000E+00 0.  1.
         21   -1    0    0  502  504 -0.00000000000E+00 -0.00000000000E+00 -0.10831286890E+03  0.10831286890E+03  0.00000000000E+00 0. -1.
          6    2    1    2  502    0 -0.95319111582E+02  0.34118460830E+02  0.25364214684E+02  0.20176560225E+03  0.17267371677E+03 0.  0.
         24    2    3    3    0    0 -0.10443997793E+03 -0.25603425768E+02  0.51906364244E+02  0.13561071093E+03  0.64286467239E+02 0.  0.
         -6    2    1    2    0  503  0.95319111582E+02 -0.34118460830E+02  0.47544913451E+03  0.51567348474E+03  0.17209724274E+03 0.  0.
        -24    2    5    5    0    0  0.12659669320E+02  0.29969090852E+02  0.27599431256E+03  0.29040894321E+03  0.84297568730E+02 0.  0.
          4    1    4    4  501    0 -0.52274091676E+02  0.18036518115E+02  0.35284208888E+02  0.65596280711E+02  0.00000000000E+00 0. -1.
         -3    1    4    4    0  501 -0.52165886254E+02 -0.43639943884E+02  0.16622155356E+02  0.70014430223E+02  0.00000000000E+00 0.  1.
          5    1    3    3  502    0  0.91208663473E+01  0.59721886599E+02 -0.26542149560E+02  0.66154891317E+02  0.47000000000E+01 0. -1.
         13    1    6    6    0    0 -0.13872712463E+02 -0.11688616691E+02  0.11806583614E+02  0.21644198481E+02  0.00000000000E+00 0. -1.
        -14    1    6    6    0    0  0.26532381783E+02  0.41657707543E+02  0.26418772895E+03  0.26876474473E+03  0.00000000000E+00 0.  1.
         -5    1    5    5    0  503  0.82659442263E+02 -0.64087551683E+02  0.19945482194E+03  0.22526454153E+03  0.47000000000E+01 0.  1.
<mgrwt>
<rscale>  2 0.20004058E+03</rscale>
<asrwt>0</asrwt>
<pdfrwt beam="1">  1       21 0.93711724E-01 0.20016497E+03</pdfrwt>
<pdfrwt beam="2">  1       21 0.16663519E-01 0.20016497E+03</pdfrwt>
<totfact> 0.30821927E+04</totfact>
</mgrwt>
</event>
<event>
12    1  0.1441827E-001  0.1770151E+03  0.7546771E-02  0.1170755E+00
         21   -1    0    0  504  503  0.00000000000E+00  0.00000000000E+00  0.42640927139E+02  0.42640927139E+02  0.00000000000E+00 0.  1.
         21   -1    0    0  502  504 -0.00000000000E+00 -0.00000000000E+00 -0.74306306684E+03  0.74306306684E+03  0.00000000000E+00 0.  1.
          6    2    1    2  502    0  0.87959420163E+01  0.39793780736E+02 -0.39294824085E+03  0.43097874314E+03  0.17225981387E+03 0.  0.
         24    2    3    3    0    0 -0.18084144399E+02 -0.33258180061E+02 -0.13636685501E+03  0.16280860017E+03  0.80483404033E+02 0.  0.
         -6    2    1    2    0  503 -0.87959420163E+01 -0.39793780736E+02 -0.30747389885E+03  0.35472525084E+03  0.17213044915E+03 0.  0.
        -24    2    5    5    0    0 -0.69856647945E+01 -0.25484723725E+02 -0.31947899486E+03  0.33538000475E+03  0.98562917850E+02 0.  0.
          4    1    4    4  501    0  0.18857551628E+02 -0.38245529703E+02 -0.36217398570E+02  0.55946650971E+02  0.00000000000E+00 0. -1.
         -3    1    4    4    0  501 -0.36941696027E+02  0.49873496418E+01 -0.10014945644E+03  0.10686194920E+03  0.00000000000E+00 0.  1.
          5    1    3    3  502    0  0.26880086416E+02  0.73051960797E+02 -0.25658138584E+03  0.26817014297E+03  0.47000000000E+01 0. -1.
         13    1    6    6    0    0 -0.47966425272E+02 -0.21010266352E+02 -0.10930792911E+03  0.12120409487E+03  0.00000000000E+00 0. -1.
        -14    1    6    6    0    0  0.40980760478E+02 -0.44744573734E+01 -0.21017106574E+03  0.21417590988E+03  0.00000000000E+00 0.  1.
         -5    1    5    5    0  503 -0.18102772218E+01 -0.14309057011E+02  0.12005096004E+02  0.19345246089E+02  0.47000000000E+01 0.  1.
<mgrwt>
<rscale>  2 0.17698365E+03</rscale>
<asrwt>0</asrwt>
<pdfrwt beam="1">  1       21 0.65601433E-02 0.17701513E+03</pdfrwt>
<pdfrwt beam="2">  1       21 0.11431738E+00 0.17701513E+03</pdfrwt>
<totfact> 0.10130316E+05</totfact>
</mgrwt>
</event>
<event>
12    1  0.1441827E-001  0.2921249E+03  0.7546771E-02  0.1089294E+00
         21   -1    0    0  504  503  0.00000000000E+00  0.00000000000E+00  0.31749335538E+03  0.31749335538E+03  0.00000000000E+00 0.  1.
         21   -1    0    0  502  504 -0.00000000000E+00 -0.00000000000E+00 -0.28035858851E+03  0.28035858851E+03  0.00000000000E+00 0.  1.
          6    2    1    2  502    0  0.23455205519E+03  0.17931422524E+02 -0.43095911033E+02  0.29490984253E+03  0.17256406104E+03 0.  0.
         24    2    3    3    0    0  0.17725571252E+03 -0.23559881509E+02  0.23591274410E+02  0.19757706338E+03  0.80656630907E+02 0.  0.
         -6    2    1    2    0  503 -0.23455205519E+03 -0.17931422524E+02  0.80230677909E+02  0.30294210136E+03  0.17320725328E+03 0.  0.
        -24    2    5    5    0    0 -0.14206715627E+03  0.34319297770E+02 -0.27579552268E+01  0.16806142250E+03  0.82922520016E+02 0.  0.
          4    1    4    4  501    0  0.42896510551E+02 -0.22950500007E+02  0.38977408909E+02  0.62338386836E+02  0.00000000000E+00 0. -1.
         -3    1    4    4    0  501  0.13435920197E+03 -0.60938150255E+00 -0.15386134499E+02  0.13523867654E+03  0.00000000000E+00 0.  1.
          5    1    3    3  502    0  0.57296342679E+02  0.41491304033E+02 -0.66687185444E+02  0.97332779150E+02  0.47000000000E+01 0. -1.
         11    1    6    6    0    0 -0.63453010402E+02  0.75119014511E+01 -0.41727828189E+02  0.76314643666E+02  0.00000000000E+00 0. -1.
        -12    1    6    6    0    0 -0.78614145865E+02  0.26807396319E+02  0.38969872962E+02  0.91746778833E+02  0.00000000000E+00 0.  1.
         -5    1    5    5    0  503 -0.92484898927E+02 -0.52250720293E+02  0.82988633135E+02  0.13488067886E+03  0.47000000000E+01 0.  1.
<mgrwt>
<rscale>  2 0.29202962E+03</rscale>
<asrwt>0</asrwt>
<pdfrwt beam="1">  1       21 0.48845132E-01 0.29212490E+03</pdfrwt>
<pdfrwt beam="2">  1       21 0.43132091E-01 0.29212490E+03</pdfrwt>
<totfact> 0.19668707E+04</totfact>
</mgrwt>
</event>
<event>
12    1  0.1441827E-001  0.1787224E+03  0.7546771E-02  0.1169842E+00
         21   -1    0    0  504  503  0.00000000000E+00  0.00000000000E+00  0.45753011803E+02  0.45753011803E+02  0.00000000000E+00 0. -1.
         21   -1    0    0  502  504 -0.00000000000E+00 -0.00000000000E+00 -0.80052674220E+03  0.80052674220E+03  0.00000000000E+00 0. -1.
          6    2    1    2  502    0  0.41246916850E+02  0.14317263430E+02 -0.21409920904E+03  0.27683208744E+03  0.16997423671E+03 0.  0.
         24    2    3    3    0    0  0.60610297817E+02 -0.48025716077E+01 -0.53080042419E+02  0.11346204541E+03  0.79746297406E+02 0.  0.
         -6    2    1    2    0  503 -0.41246916850E+02 -0.14317263430E+02 -0.54067452136E+03  0.56944766656E+03  0.17330728411E+03 0.  0.
        -24    2    5    5    0    0 -0.95458399635E+02 -0.67966159983E+01 -0.37479756723E+03  0.39471158295E+03  0.78520807863E+02 0.  0.
          4    1    4    4  501    0  0.68726908645E+02  0.84100174995E+01 -0.12949863864E+02  0.70440154318E+02  0.00000000000E+00 0. -1.
         -3    1    4    4    0  501 -0.81166108284E+01 -0.13212589107E+02 -0.40130178555E+02  0.43021891092E+02  0.00000000000E+00 0.  1.
          5    1    3    3  502    0 -0.19363380966E+02  0.19119835037E+02 -0.16101916662E+03  0.16337004203E+03  0.47000000000E+01 0. -1.
         13    1    6    6    0    0 -0.96841856208E+02 -0.60365597672E+01 -0.37847225476E+03  0.39071221224E+03  0.00000000000E+00 0. -1.
        -14    1    6    6    0    0  0.13834565727E+01 -0.76005623106E+00  0.36746875392E+01  0.39993707097E+01  0.00000000000E+00 0.  1.
         -5    1    5    5    0  503  0.54211482785E+02 -0.75206474315E+01 -0.16587695413E+03  0.17473608361E+03  0.47000000000E+01 0.  1.
<mgrwt>
<rscale>  2 0.17790936E+03</rscale>
<asrwt>0</asrwt>
<pdfrwt beam="1">  1       21 0.70389252E-02 0.17872243E+03</pdfrwt>
<pdfrwt beam="2">  1       21 0.12315795E+00 0.17872243E+03</pdfrwt>
<totfact> 0.74662645E+04</totfact>
</mgrwt>
</event>
<event>
12    1  0.1441827E-001  0.2257210E+03  0.7546771E-02  0.1129941E+00
         21   -1    0    0  504  503  0.00000000000E+00  0.00000000000E+00  0.36202864300E+02  0.36202864300E+02  0.00000000000E+00 0.  1.
         21   -1    0    0  502  504 -0.00000000000E+00 -0.00000000000E+00 -0.14037982469E+04  0.14037982469E+04  0.00000000000E+00 0. -1.
          6    2    1    2  502    0  0.11944254486E+03  0.78576386576E+02 -0.72532912339E+03  0.75922514370E+03  0.17285748910E+03 0.  0.
         24    2    3    3    0    0  0.20482499399E+02  0.65025701119E+02 -0.33839800526E+03  0.35958218824E+03  0.10068895444E+03 0.  0.
         -6    2    1    2    0  503 -0.11944254486E+03 -0.78576386576E+02 -0.64226625916E+03  0.68077596746E+03  0.17466882994E+03 0.  0.
        -24    2    5    5    0    0 -0.20141462917E+02 -0.93287518106E+02 -0.31904370727E+03  0.34229106333E+03  0.79158356005E+02 0.  0.
          2    1    4    4  501    0 -0.22418862704E+02  0.72794236797E+02 -0.24378223443E+03  0.25540435419E+03  0.00000000000E+00 0. -1.
         -1    1    4    4    0  501  0.42901362103E+02 -0.77685356777E+01 -0.94615770835E+02  0.10417783405E+03  0.00000000000E+00 0.  1.
          5    1    3    3  502    0  0.98960045460E+02  0.13550685457E+02 -0.38693111813E+03  0.39964295546E+03  0.47000000000E+01 0. -1.
         11    1    6    6    0    0  0.11688102428E+02 -0.41636723584E+02 -0.23317437446E+03  0.23715083259E+03  0.00000000000E+00 0. -1.
        -12    1    6    6    0    0 -0.31829565345E+02 -0.51650794523E+02 -0.85869332803E+02  0.10514023074E+03  0.00000000000E+00 0.  1.
         -5    1    5    5    0  503 -0.99301081942E+02  0.14711131531E+02 -0.32322255190E+03  0.33848490413E+03  0.47000000000E+01 0.  1.
<mgrwt>
<rscale>  2 0.22537050E+03</rscale>
<asrwt>0</asrwt>
<pdfrwt beam="1">  1       21 0.55696711E-02 0.22572100E+03</pdfrwt>
<pdfrwt beam="2">  1       21 0.21596897E+00 0.22572100E+03</pdfrwt>
<totfact> 0.23274104E+04</totfact>
</mgrwt>
</event>
<event>
12    1  0.1441827E-001  0.2039968E+03  0.7546771E-02  0.1146461E+00
         21   -1    0    0  504  503  0.00000000000E+00  0.00000000000E+00  0.21367944425E+03  0.21367944425E+03  0.00000000000E+00 0. -1.
         21   -1    0    0  502  504 -0.00000000000E+00 -0.00000000000E+00 -0.22250106478E+03  0.22250106478E+03  0.00000000000E+00 0. -1.
          6    2    1    2  502    0 -0.78508837436E+02 -0.75100798736E+02 -0.81749781723E+02  0.21953979453E+03  0.17236857906E+03 0.  0.
         24    2    3    3    0    0 -0.38882455293E+02 -0.30131757474E+02  0.26724344588E+02  0.95518865201E+02  0.77394411152E+02 0.  0.
         -6    2    1    2    0  503  0.78508837436E+02  0.75100798736E+02  0.72928161193E+02  0.21664071450E+03  0.17265837644E+03 0.  0.
        -24    2    5    5    0    0  0.60316946217E+02  0.15253813421E+02  0.10512007683E+03  0.14613528216E+03  0.80215193783E+02 0.  0.
          2    1    4    4  501    0 -0.11065529284E+02  0.24295503906E+02  0.21304164342E+02  0.34155305103E+02  0.00000000000E+00 0. -1.
         -1    1    4    4    0  501 -0.27816926010E+02 -0.54427261380E+02  0.54201802459E+01  0.61363560098E+02  0.00000000000E+00 0.  1.
          5    1    3    3  502    0 -0.39626382143E+02 -0.44969041262E+02 -0.10847412631E+03  0.12402092933E+03  0.47000000000E+01 0. -1.
         13    1    6    6    0    0  0.13551779263E+02  0.11082025682E+02  0.96902002803E+02  0.98470605572E+02  0.00000000000E+00 0. -1.
        -14    1    6    6    0    0  0.46765166953E+02  0.41717877395E+01  0.82180740238E+01  0.47664676583E+02  0.00000000000E+00 0.  1.
         -5    1    5    5    0  503  0.18191891220E+02  0.59846985315E+02 -0.32191915634E+02  0.70505432341E+02  0.47000000000E+01 0.  1.
<mgrwt>
<rscale>  2 0.20393544E+03</rscale>
<asrwt>0</asrwt>
<pdfrwt beam="1">  1       21 0.32873761E-01 0.20399677E+03</pdfrwt>
<pdfrwt beam="2">  1       21 0.34230933E-01 0.20399677E+03</pdfrwt>
<totfact> 0.72888175E+04</totfact>
</mgrwt>
</event>
<event>
12    1  0.1441827E-001  0.1900641E+03  0.7546771E-02  0.1158583E+00
         21   -1    0    0  504  503  0.00000000000E+00  0.00000000000E+00  0.52535548697E+03  0.52535548697E+03  0.00000000000E+00 0. -1.
         21   -1    0    0  502  504 -0.00000000000E+00 -0.00000000000E+00 -0.68476359806E+02  0.68476359806E+02  0.00000000000E+00 0. -1.
          6    2    1    2  502    0  0.76422325305E+02  0.76283306229E+01  0.22974680465E+03  0.29766728061E+03  0.17298454401E+03 0.  0.
         24    2    3    3    0    0  0.75300415415E+01 -0.41658848708E+02  0.17825549330E+03  0.19842606965E+03  0.76195295279E+02 0.  0.
         -6    2    1    2    0  503 -0.76422325305E+02 -0.76283306229E+01  0.22713232252E+03  0.29616456617E+03  0.17385567316E+03 0.  0.
        -24    2    5    5    0    0 -0.97304232627E+02  0.18046545324E+02  0.22792706465E+03  0.26272843417E+03  0.85332829756E+02 0.  0.
          4    1    4    4  501    0 -0.19044639274E+02 -0.32923950518E+02  0.16128111336E+03  0.16570540827E+03  0.00000000000E+00 0. -1.
         -3    1    4    4    0  501  0.26574680815E+02 -0.87348981903E+01  0.16974379945E+02  0.32720661383E+02  0.00000000000E+00 0.  1.
          5    1    3    3  502    0  0.68892283763E+02  0.49287179331E+02  0.51491311342E+02  0.99241210957E+02  0.47000000000E+01 0. -1.
         11    1    6    6    0    0 -0.61539250968E+02  0.49104140278E+02  0.10690422925E+03  0.13276599803E+03  0.00000000000E+00 0. -1.
        -12    1    6    6    0    0 -0.35764981659E+02 -0.31057594954E+02  0.12102283540E+03  0.12996243614E+03  0.00000000000E+00 0.  1.
         -5    1    5    5    0  503  0.20881907322E+02 -0.25674875947E+02 -0.79474213091E+00  0.33436132004E+02  0.47000000000E+01 0.  1.
<mgrwt>
<rscale>  2 0.18986465E+03</rscale>
<asrwt>0</asrwt>
<pdfrwt beam="1">  1       21 0.80823918E-01 0.19006409E+03</pdfrwt>
<pdfrwt beam="2">  1       21 0.10534825E-01 0.19006409E+03</pdfrwt>
<totfact> 0.99544912E+04</totfact>
</mgrwt>
</event>
<event>
12    1  0.1441827E-001  0.1902842E+03  0.7546771E-02  0.1158657E+00
         21   -1    0    0  504  503  0.00000000000E+00  0.00000000000E+00  0.18008444439E+04  0.18008444439E+04  0.00000000000E+00 0.  1.
         21   -1    0    0  502  504 -0.00000000000E+00 -0.00000000000E+00 -0.33292085369E+02  0.33292085369E+02  0.00000000000E+00 0.  1.
          6    2    1    2  502    0  0.11880684001E+01  0.78990328803E+02  0.29927078193E+03  0.35357620472E+03  0.17091590937E+03 0.  0.
         24    2    3    3    0    0 -0.60281402238E+02  0.47120903140E+02  0.12895232372E+03  0.16966148720E+03  0.79385713316E+02 0.  0.
         -6    2    1    2    0  503 -0.11880684001E+01 -0.78990328803E+02  0.14682815766E+04  0.14805603246E+04  0.17311037777E+03 0.  0.
        -24    2    5    5    0    0  0.60757433349E+02 -0.63919083204E+02  0.72995612998E+03  0.73947264906E+03  0.78782816086E+02 0.  0.
          2    1    4    4  501    0  0.73508737229E+01  0.11428640247E+01 -0.75095582688E+01  0.10570475300E+02  0.00000000000E+00 0. -1.
         -1    1    4    4    0  501 -0.67632275961E+02  0.45978039115E+02  0.13646188199E+03  0.15909101190E+03  0.00000000000E+00 0.  1.
          5    1    3    3  502    0  0.61469470638E+02  0.31869425664E+02  0.17031845821E+03  0.18391471752E+03  0.47000000000E+01 0. -1.
         13    1    6    6    0    0  0.55504628976E+02 -0.52195965288E+01  0.44557403404E+03  0.44904813532E+03  0.00000000000E+00 0. -1.
        -14    1    6    6    0    0  0.52528043726E+01 -0.58699486675E+02  0.28438209594E+03  0.29042451374E+03  0.00000000000E+00 0.  1.
         -5    1    5    5    0  503 -0.61945501749E+02 -0.15071245600E+02  0.73832544663E+03  0.74108767549E+03  0.47000000000E+01 0.  1.
<mgrwt>
<rscale>  2 0.18978370E+03</rscale>
<asrwt>0</asrwt>
<pdfrwt beam="1">  1       21 0.27705291E+00 0.19028423E+03</pdfrwt>
<pdfrwt beam="2">  1       21 0.51218607E-02 0.19028423E+03</pdfrwt>
<totfact> 0.11978483E+04</totfact>
</mgrwt>
</event>
<event>
12    1  0.1441827E-001  0.1904005E+03  0.7546771E-02  0.1158242E+00
         21   -1    0    0  504  503  0.00000000000E+00  0.00000000000E+00  0.80298454030E+03  0.80298454030E+03  0.00000000000E+00 0. -1.
         21   -1    0    0  502  504 -0.00000000000E+00 -0.00000000000E+00 -0.78794925426E+02  0.78794925426E+02  0.00000000000E+00 0.  1.
          6    2    1    2  502    0  0.45181236108E+02 -0.59853426065E+02  0.73009242288E+02  0.20333402400E+03  0.17432899687E+03 0.  0.
         24    2    3    3    0    0  0.51657888660E+02 -0.71822865022E+02 -0.97207530278E+01  0.11936047684E+03  0.79532188399E+02 0.  0.
         -6    2    1    2    0  503 -0.45181236108E+02  0.59853426065E+02  0.65118037259E+03  0.67844544173E+03  0.17501017985E+03 0.  0.
        -24    2    5    5    0    0 -0.12117494876E+02  0.76430798092E+02  0.61830584439E+03  0.62873784822E+03  0.83789402713E+02 0.  0.
          4    1    4    4  501    0  0.39005110873E+01  0.68813366680E+01 -0.24838033430E+02  0.26067118862E+02  0.00000000000E+00 0. -1.
         -3    1    4    4    0  501  0.47757377573E+02 -0.78704201690E+02  0.15117280402E+02  0.93293357980E+02  0.00000000000E+00 0.  1.
          5    1    3    3  502    0 -0.64766525527E+01  0.11969438958E+02  0.82729995316E+02  0.83973547158E+02  0.47000000000E+01 0. -1.
         11    1    6    6    0    0  0.35782569005E+02  0.35959919652E+02  0.30941100782E+03  0.31354215000E+03  0.00000000000E+00 0. -1.
        -12    1    6    6    0    0 -0.47900063881E+02  0.40470878440E+02  0.30889483657E+03  0.31519569823E+03  0.00000000000E+00 0.  1.
         -5    1    5    5    0  503 -0.33063741231E+02 -0.16577372028E+02  0.32874528201E+02  0.49707593504E+02  0.47000000000E+01 0.  1.
<mgrwt>
<rscale>  2 0.19024380E+03</rscale>
<asrwt>0</asrwt>
<pdfrwt beam="1">  1       21 0.12353608E+00 0.19040047E+03</pdfrwt>
<pdfrwt beam="2">  1       21 0.12122297E-01 0.19040047E+03</pdfrwt>
<totfact> 0.28349183E+04</totfact>
</mgrwt>
</event>
<event>
12    1  0.1441827E-001  0.2813375E+03  0.7546771E-02  0.1095003E+00
         21   -1    0    0  504  503  0.00000000000E+00  0.00000000000E+00  0.59841359903E+03  0.59841359903E+03  0.00000000000E+00 0.  1.
         21   -1    0    0  502  504 -0.00000000000E+00 -0.00000000000E+00 -0.32736327951E+03  0.32736327951E+03  0.00000000000E+00 0. -1.
          6    2    1    2  502    0  0.39422615913E+02 -0.21843416104E+03 -0.22192083952E+03  0.35832897941E+03  0.17286750162E+03 0.  0.
         24    2    3    3    0    0 -0.15411599214E+02 -0.11131330649E+03 -0.18789837165E+03  0.23318391579E+03  0.80254413726E+02 0.  0.
         -6    2    1    2    0  503 -0.39422615913E+02  0.21843416104E+03  0.49297115903E+03  0.56744789914E+03  0.17236278380E+03 0.  0.
        -24    2    5    5    0    0  0.27784901125E+02  0.51310752873E+02  0.19083466657E+03  0.21565870945E+03  0.81768055526E+02 0.  0.
          2    1    4    4  501    0 -0.56592448995E+01 -0.10106562109E+03 -0.93717641346E+02  0.13794666766E+03  0.00000000000E+00 0. -1.
         -1    1    4    4    0  501 -0.97523543149E+01 -0.10247685398E+02 -0.94180730301E+02  0.95237248127E+02  0.00000000000E+00 0.  1.
          5    1    3    3  502    0  0.54834215127E+02 -0.10712085455E+03 -0.34022467873E+02  0.12514506362E+03  0.47000000000E+01 0. -1.
         11    1    6    6    0    0 -0.20504140611E+02  0.77340765416E+01  0.11199707106E+02  0.24610346633E+02  0.00000000000E+00 0. -1.
        -12    1    6    6    0    0  0.48289041737E+02  0.43576676331E+02  0.17963495946E+03  0.19104836281E+03  0.00000000000E+00 0.  1.
         -5    1    5    5    0  503 -0.67207517038E+02  0.16712340817E+03  0.30213649247E+03  0.35178918969E+03  0.47000000000E+01 0.  1.
<mgrwt>
<rscale>  2 0.28126002E+03</rscale>
<asrwt>0</asrwt>
<pdfrwt beam="1">  1       21 0.92063630E-01 0.28133752E+03</pdfrwt>
<pdfrwt beam="2">  1       21 0.50363582E-01 0.28133752E+03</pdfrwt>
<totfact> 0.35155824E+03</totfact>
</mgrwt>
</event>
<event>
12    1  0.1441827E-001  0.2052257E+03  0.7546771E-02  0.1145916E+00
         21   -1    0    0  504  503  0.00000000000E+00  0.00000000000E+00  0.22758886620E+03  0.22758886620E+03  0.00000000000E+00 0.  1.
         21   -1    0    0  502  504 -0.00000000000E+00 -0.00000000000E+00 -0.18616446785E+03  0.18616446785E+03  0.00000000000E+00 0.  1.
          6    2    1    2  502    0  0.52298592815E+02  0.93514663947E+02  0.48582566554E+02  0.21089773393E+03  0.17503557701E+03 0.  0.
         24    2    3    3    0    0 -0.98588943223E+01  0.11159304467E+03  0.18863836843E+02  0.13951374446E+03  0.80981696307E+02 0.  0.
         -6    2    1    2    0  503 -0.52298592815E+02 -0.93514663947E+02 -0.71581682051E+01  0.20285560012E+03  0.17210177206E+03 0.  0.
        -24    2    5    5    0    0 -0.69286233655E+02 -0.25923090818E+02 -0.51248362498E+02  0.12025271923E+03  0.79760472736E+02 0.  0.
          2    1    4    4  501    0  0.24633665767E+02  0.11071003313E+02 -0.10939633028E+02  0.29138637138E+02  0.00000000000E+00 0. -1.
         -1    1    4    4    0  501 -0.34492560089E+02  0.10052204136E+03  0.29803469871E+02  0.11037510732E+03  0.00000000000E+00 0.  1.
          5    1    3    3  502    0  0.62157487138E+02 -0.18078380722E+02  0.29718729711E+02  0.71383989468E+02  0.47000000000E+01 0. -1.
         11    1    6    6    0    0 -0.12467573801E+02 -0.23891408411E+02  0.16662661557E+02  0.31684129821E+02  0.00000000000E+00 0. -1.
        -12    1    6    6    0    0 -0.56818659854E+02 -0.20316824065E+01 -0.67911024056E+02  0.88568589405E+02  0.00000000000E+00 0.  1.
         -5    1    5    5    0  503  0.16987640840E+02 -0.67591573129E+02  0.44090194293E+02  0.82602880895E+02  0.47000000000E+01 0.  1.
<mgrwt>
<rscale>  2 0.20459872E+03</rscale>
<asrwt>0</asrwt>
<pdfrwt beam="1">  1       21 0.35013672E-01 0.20522570E+03</pdfrwt>
<pdfrwt beam="2">  1       21 0.28640687E-01 0.20522570E+03</pdfrwt>
<totfact> 0.91221358E+04</totfact>
</mgrwt>
</event>
<event>
12    1  0.1441827E-001  0.1824258E+03  0.7546771E-02  0.1165929E+00
         21   -1    0    0  504  503  0.00000000000E+00  0.00000000000E+00  0.42500362055E+02  0.42500362055E+02  0.00000000000E+00 0. -1.
         21   -1    0    0  502  504 -0.00000000000E+00 -0.00000000000E+00 -0.14681520293E+04  0.14681520293E+04  0.00000000000E+00 0. -1.
          6    2    1    2  502    0  0.32182731778E+02 -0.46780823293E+02 -0.12338126467E+04  0.12472260546E+04  0.17336380954E+03 0.  0.
         24    2    3    3    0    0 -0.39789510069E+02  0.10529385825E+02 -0.52052155346E+03  0.52801069231E+03  0.78476305295E+02 0.  0.
         -6    2    1    2    0  503 -0.32182731778E+02  0.46780823293E+02 -0.19183902057E+03  0.26342633678E+03  0.17136817512E+03 0.  0.
        -24    2    5    5    0    0 -0.78380620045E+02  0.61081985247E+02 -0.16209923507E+03  0.20645868846E+03  0.80464262318E+02 0.  0.
          2    1    4    4  501    0 -0.12072424978E+02  0.35352136174E+02 -0.40328387406E+03  0.40501037031E+03  0.00000000000E+00 0. -1.
         -1    1    4    4    0  501 -0.27717085091E+02 -0.24822750349E+02 -0.11723767940E+03  0.12300032200E+03  0.00000000000E+00 0.  1.
          5    1    3    3  502    0  0.71972241847E+02 -0.57310209117E+02 -0.71329109326E+03  0.71921536231E+03  0.47000000000E+01 0. -1.
         13    1    6    6    0    0  0.62962085687E+01  0.16155576986E+01  0.61435312780E+01  0.89440061260E+01  0.00000000000E+00 0. -1.
        -14    1    6    6    0    0 -0.84676828614E+02  0.59466427548E+02 -0.16824276635E+03  0.19751468233E+03  0.00000000000E+00 0.  1.
         -5    1    5    5    0  503  0.46197888267E+02 -0.14301161954E+02 -0.29739785499E+02  0.56967648320E+02  0.47000000000E+01 0.  1.
<mgrwt>
<rscale>  2 0.18195012E+03</rscale>
<asrwt>0</asrwt>
<pdfrwt beam="1">  1       21 0.65385159E-02 0.18242583E+03</pdfrwt>
<pdfrwt beam="2">  1       21 0.22586959E+00 0.18242583E+03</pdfrwt>
<totfact> 0.15899274E+04</totfact>
</mgrwt>
</event>
<event>
12    1  0.1441827E-001  0.3989625E+03  0.7546771E-02  0.1044221E+00
         21   -1    0    0  504  503  0.00000000000E+00  0.00000000000E+00  0.68092205619E+03  0.68092205619E+03  0.00000000000E+00 0. -1.
         21   -1    0    0  502  504 -0.00000000000E+00 -0.00000000000E+00 -0.16211294004E+04  0.16211294004E+04  0.00000000000E+00 0. -1.
          6    2    1    2  502    0 -0.27225693115E+03 -0.23532012997E+03 -0.15350452085E+04  0.15858090602E+04  0.17007993130E+03 0.  0.
         24    2    3    3    0    0 -0.86148498388E+02 -0.32489422544E+02 -0.42790571804E+03  0.44495123117E+03  0.80007301194E+02 0.  0.
         -6    2    1    2    0  503  0.27225693115E+03  0.23532012997E+03  0.59483786429E+03  0.71624239643E+03  0.17225471117E+03 0.  0.
        -24    2    5    5    0    0  0.85977898830E+02  0.15011481499E+03  0.34058364610E+03  0.38970431128E+03  0.77107544869E+02 0.  0.
          2    1    4    4  501    0 -0.29442061030E+02  0.26487891774E+02 -0.16016302207E+03  0.16498677827E+03  0.00000000000E+00 0. -1.
         -1    1    4    4    0  501 -0.56706437359E+02 -0.58977314319E+02 -0.26774269597E+03  0.27996445290E+03  0.00000000000E+00 0.  1.
          5    1    3    3  502    0 -0.18610843276E+03 -0.20283070742E+03 -0.11071394905E+04  0.11408578290E+04  0.47000000000E+01 0. -1.
         11    1    6    6    0    0  0.89010407243E+02  0.15139442610E+03  0.34318339191E+03  0.38551000679E+03  0.00000000000E+00 0. -1.
        -12    1    6    6    0    0 -0.30325084127E+01 -0.12796111142E+01 -0.25997458122E+01  0.41943044912E+01  0.00000000000E+00 0.  1.
         -5    1    5    5    0  503  0.18627903232E+03  0.85205314978E+02  0.25425421819E+03  0.32653808515E+03  0.47000000000E+01 0.  1.
<mgrwt>
<rscale>  2 0.39872877E+03</rscale>
<asrwt>0</asrwt>
<pdfrwt beam="1">  1       21 0.10475724E+00 0.39896251E+03</pdfrwt>
<pdfrwt beam="2">  1       21 0.24940452E+00 0.39896251E+03</pdfrwt>
<totfact> 0.39228285E+01</totfact>
</mgrwt>
</event>
<event>
12    1  0.1441827E-001  0.2476840E+03  0.7546771E-02  0.1114920E+00
         21   -1    0    0  504  503  0.00000000000E+00  0.00000000000E+00  0.55025497990E+03  0.55025497990E+03  0.00000000000E+00 0. -1.
         21   -1    0    0  502  504 -0.00000000000E+00 -0.00000000000E+00 -0.12610792001E+03  0.12610792001E+03  0.00000000000E+00 0.  1.
          6    2    1    2  502    0  0.20491095346E+02  0.17454524125E+03  0.95703297137E+02  0.26553053765E+03  0.17453200025E+03 0.  0.
         24    2    3    3    0    0  0.73141629549E+02  0.73993246866E+02  0.31348815044E+02  0.13496878333E+03  0.80057015389E+02 0.  0.
         -6    2    1    2    0  503 -0.20491095346E+02 -0.17454524125E+03  0.32844376276E+03  0.41083236226E+03  0.17326857288E+03 0.  0.
        -24    2    5    5    0    0 -0.81474551023E+02 -0.10770003437E+03  0.21287919528E+03  0.26398372315E+03  0.78309989399E+02 0.  0.
          4    1    4    4  501    0  0.26330346913E+02  0.73246990197E+02 -0.13763539510E+01  0.77847948539E+02  0.00000000000E+00 0. -1.
         -3    1    4    4    0  501  0.46811282636E+02  0.74625666894E+00  0.32725168995E+02  0.57120834787E+02  0.00000000000E+00 0.  1.
          5    1    3    3  502    0 -0.52650534203E+02  0.10055199439E+03  0.64354482093E+02  0.13056175433E+03  0.47000000000E+01 0. -1.
         11    1    6    6    0    0 -0.10789639250E+01 -0.58139618675E+02  0.10933772350E+03  0.12383907785E+03  0.00000000000E+00 0. -1.
        -12    1    6    6    0    0 -0.80395587098E+02 -0.49560415698E+02  0.10354147177E+03  0.14014464530E+03  0.00000000000E+00 0.  1.
         -5    1    5    5    0  503  0.60983455677E+02 -0.66845206880E+02  0.11556456748E+03  0.14684863911E+03  0.47000000000E+01 0.  1.
<mgrwt>
<rscale>  2 0.24746150E+03</rscale>
<asrwt>0</asrwt>
<pdfrwt beam="1">  1       21 0.84654611E-01 0.24768396E+03</pdfrwt>
<pdfrwt beam="2">  1       21 0.19401219E-01 0.24768396E+03</pdfrwt>
<totfact> 0.28715209E+04</totfact>
</mgrwt>
</event>
<event>
12    1  0.1441827E-001  0.2014395E+03  0.7546771E-02  0.1148724E+00
         21   -1    0    0  504  503  0.00000000000E+00  0.00000000000E+00  0.28064939538E+03  0.28064939538E+03  0.00000000000E+00 0.  1.
         21   -1    0    0  502  504 -0.00000000000E+00 -0.00000000000E+00 -0.16316751109E+03  0.16316751109E+03  0.00000000000E+00 0.  1.
          6    2    1    2  502    0  0.86345712854E+02  0.52355962266E+02 -0.17588963896E+02  0.20128445861E+03  0.17323201989E+03 0.  0.
         24    2    3    3    0    0  0.81397451989E+02 -0.29790036142E+02 -0.14732448983E+02  0.11880597647E+03  0.79905090874E+02 0.  0.
         -6    2    1    2    0  503 -0.86345712854E+02 -0.52355962266E+02  0.13507084818E+03  0.24253244785E+03  0.17430182248E+03 0.  0.
        -24    2    5    5    0    0 -0.48805554148E+02  0.29016587005E+02  0.11250850542E+03  0.15000188749E+03  0.81353905996E+02 0.  0.
          4    1    4    4  501    0  0.19908750698E+02  0.99526261700E+01  0.26636894481E+02  0.34712206349E+02  0.00000000000E+00 0. -1.
         -3    1    4    4    0  501  0.61488701291E+02 -0.39742662312E+02 -0.41369343463E+02  0.84093770118E+02  0.00000000000E+00 0.  1.
          5    1    3    3  502    0  0.49482608647E+01  0.82145998408E+02 -0.28565149135E+01  0.82478482148E+02  0.47000000000E+01 0. -1.
         13    1    6    6    0    0 -0.25295747465E+02  0.23353593301E+02 -0.50372903369E+00  0.34431365103E+02  0.00000000000E+00 0. -1.
        -14    1    6    6    0    0 -0.23509806684E+02  0.56629937039E+01  0.11301223446E+03  0.11557052239E+03  0.00000000000E+00 0.  1.
         -5    1    5    5    0  503 -0.37540158705E+02 -0.81372549271E+02  0.22562342761E+02  0.92530560365E+02  0.47000000000E+01 0.  1.
<mgrwt>
<rscale>  2 0.20120782E+03</rscale>
<asrwt>0</asrwt>
<pdfrwt beam="1">  1       21 0.43176830E-01 0.20143946E+03</pdfrwt>
<pdfrwt beam="2">  1       21 0.25102694E-01 0.20143946E+03</pdfrwt>
<totfact> 0.77213694E+04</totfact>
</mgrwt>
</event>
<event>
12    1  0.1441827E-001  0.1978207E+03  0.7546771E-02  0.1152101E+00
         21   -1    0    0  504  503  0.00000000000E+00  0.00000000000E+00  0.13461732501E+03  0.13461732501E+03  0.00000000000E+00 0.  1.
         21   -1    0    0  502  504 -0.00000000000E+00 -0.00000000000E+00 -0.30034801484E+03  0.30034801484E+03  0.00000000000E+00 0.  1.
          6    2    1    2  502    0 -0.22901371339E+02  0.89382548502E+02 -0.12783925203E+03  0.23354839549E+03  0.17230283192E+03 0.  0.
         24    2    3    3    0    0 -0.72844117448E+02  0.92907538984E+02 -0.73051138776E+02  0.15918085686E+03  0.77871689777E+02 0.  0.
         -6    2    1    2    0  503  0.22901371339E+02 -0.89382548502E+02 -0.37891437800E+02  0.20141694436E+03  0.17498374676E+03 0.  0.
        -24    2    5    5    0    0  0.46880052470E+02  0.33985622424E+01  0.12418386759E+02  0.93081907984E+02  0.79377173793E+02 0.  0.
          4    1    4    4  501    0 -0.83108065828E+02  0.51692930687E+02 -0.41681200063E+02  0.10637872028E+03  0.00000000000E+00 0. -1.
         -3    1    4    4    0  501  0.10263948380E+02  0.41214608298E+02 -0.31369938714E+02  0.52802136589E+02  0.00000000000E+00 0.  1.
          5    1    3    3  502    0  0.49942746109E+02 -0.35249904827E+01 -0.54788113253E+02  0.74367538622E+02  0.47000000000E+01 0. -1.
         13    1    6    6    0    0  0.30819863668E+02  0.18108806967E+01 -0.32815366368E+02  0.45055427590E+02  0.00000000000E+00 0. -1.
        -14    1    6    6    0    0  0.16060188802E+02  0.15876815457E+01  0.45233753128E+02  0.48026480394E+02  0.00000000000E+00 0.  1.
         -5    1    5    5    0  503 -0.23978681131E+02 -0.92781110744E+02 -0.50309824560E+02  0.10833503638E+03  0.47000000000E+01 0.  1.
<mgrwt>
<rscale>  2 0.19722616E+03</rscale>
<asrwt>0</asrwt>
<pdfrwt beam="1">  1       21 0.20710358E-01 0.19782069E+03</pdfrwt>
<pdfrwt beam="2">  1       21 0.46207387E-01 0.19782069E+03</pdfrwt>
<totfact> 0.96832549E+04</totfact>
</mgrwt>
</event>
<event>
12    1  0.1441827E-001  0.2422513E+03  0.7546771E-02  0.1118391E+00
         21   -1    0    0  504  503  0.00000000000E+00  0.00000000000E+00  0.44641702398E+03  0.44641702398E+03  0.00000000000E+00 0.  1.
         21   -1    0    0  502  504 -0.00000000000E+00 -0.00000000000E+00 -0.16526662096E+03  0.16526662096E+03  0.00000000000E+00 0.  1.
          6    2    1    2  502    0  0.16849394037E+03 -0.13984314771E+02  0.27937847717E+03  0.36942589807E+03  0.17273503308E+03 0.  0.
         24    2    3    3    0    0  0.12057429734E+03  0.58173811221E+02  0.17891907787E+03  0.23669584027E+03  0.78041853406E+02 0.  0.
         -6    2    1    2    0  503 -0.16849394037E+03  0.13984314771E+02  0.17719258513E+01  0.24225774687E+03  0.17349324827E+03 0.  0.
        -24    2    5    5    0    0 -0.13597617904E+02  0.16409603677E+01 -0.16304543952E+02  0.85751907132E+02  0.83066018682E+02 0.  0.
          2    1    4    4  501    0  0.19839445271E+02  0.37961855589E+02  0.94374963183E+02  0.10364043489E+03  0.00000000000E+00 0. -1.
         -1    1    4    4    0  501  0.10073485207E+03  0.20211955632E+02  0.84544114685E+02  0.13305540538E+03  0.00000000000E+00 0.  1.
          5    1    3    3  502    0  0.47919643034E+02 -0.72158125992E+02  0.10045939930E+03  0.13273005780E+03  0.47000000000E+01 0. -1.
         13    1    6    6    0    0  0.33643611425E+02  0.13813209500E+01  0.47960881246E+01  0.34011808222E+02  0.00000000000E+00 0. -1.
        -14    1    6    6    0    0 -0.47241229328E+02  0.25963941762E+00 -0.21100632077E+02  0.51740098909E+02  0.00000000000E+00 0.  1.
         -5    1    5    5    0  503 -0.15489632247E+03  0.12343354403E+02  0.18076469803E+02  0.15650583974E+03  0.47000000000E+01 0.  1.
<mgrwt>
<rscale>  2 0.24211554E+03</rscale>
<asrwt>0</asrwt>
<pdfrwt beam="1">  1       21 0.68679542E-01 0.24225127E+03</pdfrwt>
<pdfrwt beam="2">  1       21 0.25425634E-01 0.24225127E+03</pdfrwt>
<totfact> 0.27613036E+04</totfact>
</mgrwt>
</event>
<event>
12    1  0.1441827E-001  0.2267962E+03  0.7546771E-02  0.1128971E+00
         21   -1    0    0  504  503  0.00000000000E+00  0.00000000000E+00  0.51598180442E+03  0.51598180442E+03  0.00000000000E+00 0. -1.
         21   -1    0    0  502  504 -0.00000000000E+00 -0.00000000000E+00 -0.10115551821E+03  0.10115551821E+03  0.00000000000E+00 0. -1.
          6    2    1    2  502    0 -0.11104857781E+03 -0.96310991302E+02  0.16838741964E+03  0.28222144309E+03  0.17229923437E+03 0.  0.
         24    2    3    3    0    0 -0.47241195887E+02 -0.86240175487E+02  0.17528961983E+03  0.21708670822E+03  0.82043217936E+02 0.  0.
         -6    2    1    2    0  503  0.11104857781E+03  0.96310991302E+02  0.24643886657E+03  0.33491587954E+03  0.17271056058E+03 0.  0.
        -24    2    5    5    0    0  0.10320799859E+02  0.36950914411E+02  0.53410225729E+02  0.10919071443E+03  0.87166914140E+02 0.  0.
          4    1    4    4  501    0 -0.63979638986E+02 -0.60840843816E+02  0.88028546741E+02  0.12467568938E+03  0.00000000000E+00 0. -1.
         -3    1    4    4    0  501  0.16738443098E+02 -0.25399331671E+02  0.87261073088E+02  0.92411018841E+02  0.00000000000E+00 0.  1.
          5    1    3    3  502    0 -0.63807381919E+02 -0.10070815815E+02 -0.69022001850E+01  0.65134734865E+02  0.47000000000E+01 0. -1.
         11    1    6    6    0    0  0.46443762600E+02  0.26909689040E+02  0.15494187744E+02  0.55867918366E+02  0.00000000000E+00 0. -1.
        -12    1    6    6    0    0 -0.36122962741E+02  0.10041225371E+02  0.37916037984E+02  0.53322796069E+02  0.00000000000E+00 0.  1.
         -5    1    5    5    0  503  0.10072777795E+03  0.59360076891E+02  0.19302864084E+03  0.22572516511E+03  0.47000000000E+01 0.  1.
<mgrwt>
<rscale>  2 0.22671792E+03</rscale>
<asrwt>0</asrwt>
<pdfrwt beam="1">  1       21 0.79381814E-01 0.22679623E+03</pdfrwt>
<pdfrwt beam="2">  1       21 0.15562388E-01 0.22679623E+03</pdfrwt>
<totfact> 0.50512301E+04</totfact>
</mgrwt>
</event>
<event>
12    1  0.1441827E-001  0.2389337E+03  0.7546771E-02  0.1121195E+00
         21   -1    0    0  504  503  0.00000000000E+00  0.00000000000E+00  0.16936991649E+03  0.16936991649E+03  0.00000000000E+00 0. -1.
         21   -1    0    0  502  504 -0.00000000000E+00 -0.00000000000E+00 -0.34079831385E+03  0.34079831385E+03  0.00000000000E+00 0.  1.
          6    2    1    2  502    0  0.25391054024E+02  0.15778242531E+03 -0.42495720887E+02  0.23866693513E+03  0.17209305701E+03 0.  0.
         24    2    3    3    0    0 -0.40141876300E+02  0.44853433381E+02  0.14400945513E+00  0.10123419239E+03  0.81394964526E+02 0.  0.
         -6    2    1    2    0  503 -0.25391054024E+02 -0.15778242531E+03 -0.12893267647E+03  0.27150129521E+03  0.17762127936E+03 0.  0.
        -24    2    5    5    0    0 -0.34009377621E+02 -0.15406345972E+03 -0.39890223758E+02  0.18184219310E+03  0.81136710890E+02 0.  0.
          2    1    4    4  501    0  0.48666791470E+01  0.17040087369E+02  0.34055473154E+02  0.38390420618E+02  0.00000000000E+00 0. -1.
         -1    1    4    4    0  501 -0.45008555447E+02  0.27813346012E+02 -0.33911463699E+02  0.62843771768E+02  0.00000000000E+00 0.  1.
          5    1    3    3  502    0  0.65532930324E+02  0.11292899192E+03 -0.42639730342E+02  0.13743274274E+03  0.47000000000E+01 0. -1.
         11    1    6    6    0    0 -0.23136501816E+02 -0.32625386764E+02  0.21420043699E+02  0.45371046383E+02  0.00000000000E+00 0. -1.
        -12    1    6    6    0    0 -0.10872875804E+02 -0.12143807295E+03 -0.61310267457E+02  0.13647114672E+03  0.00000000000E+00 0.  1.
         -5    1    5    5    0  503  0.86183235970E+01 -0.37189655894E+01 -0.89042452712E+02  0.89659102112E+02  0.47000000000E+01 0.  1.
<mgrwt>
<rscale>  2 0.23790698E+03</rscale>
<asrwt>0</asrwt>
<pdfrwt beam="1">  1       21 0.26056911E-01 0.23893371E+03</pdfrwt>
<pdfrwt beam="2">  1       21 0.52430509E-01 0.23893371E+03</pdfrwt>
<totfact> 0.47255986E+04</totfact>
</mgrwt>
</event>
<event>
12    1  0.1441827E-001  0.1860417E+03  0.7546771E-02  0.1162127E+00
         21   -1    0    0  504  503  0.00000000000E+00  0.00000000000E+00  0.21480648065E+03  0.21480648065E+03  0.00000000000E+00 0. -1.
         21   -1    0    0  502  504 -0.00000000000E+00 -0.00000000000E+00 -0.36807686873E+03  0.36807686873E+03  0.00000000000E+00 0.  1.
          6    2    1    2  502    0 -0.52158393870E+01 -0.72795531655E+02 -0.29527617480E+03  0.34899790727E+03  0.17112897319E+03 0.  0.
         24    2    3    3    0    0 -0.54114327838E+01 -0.83203027740E+02 -0.98863034297E+02  0.15225298105E+03  0.80343283844E+02 0.  0.
         -6    2    1    2    0  503  0.52158393870E+01  0.72795531655E+02  0.14200578672E+03  0.23388544212E+03  0.17091039220E+03 0.  0.
        -24    2    5    5    0    0  0.28331488656E+02 -0.67392632379E+01  0.11581359649E+03  0.14688982344E+03  0.85532100289E+02 0.  0.
          4    1    4    4  501    0  0.36638892995E+02 -0.35651881769E+02 -0.33388400378E+02  0.61059400860E+02  0.00000000000E+00 0. -1.
         -3    1    4    4    0  501 -0.42050325779E+02 -0.47551145971E+02 -0.65474633920E+02  0.91193580192E+02  0.00000000000E+00 0.  1.
          5    1    3    3  502    0  0.19559339684E+00  0.10407496085E+02 -0.19641314050E+03  0.19674492622E+03  0.47000000000E+01 0. -1.
         13    1    6    6    0    0  0.20882716267E+02  0.38805743373E+02  0.60601283794E+02  0.74929894935E+02  0.00000000000E+00 0. -1.
        -14    1    6    6    0    0  0.74487723889E+01 -0.45545006611E+02  0.55212312697E+02  0.71959928506E+02  0.00000000000E+00 0.  1.
         -5    1    5    5    0  503 -0.23115649269E+02  0.79534794893E+02  0.26192190224E+02  0.86995618675E+02  0.47000000000E+01 0.  1.
<mgrwt>
<rscale>  2 0.18599143E+03</rscale>
<asrwt>0</asrwt>
<pdfrwt beam="1">  1       21 0.33047151E-01 0.18604172E+03</pdfrwt>
<pdfrwt beam="2">  1       21 0.56627210E-01 0.18604172E+03</pdfrwt>
<totfact> 0.25944745E+04</totfact>
</mgrwt>
</event>
<event>
12    1  0.1441827E-001  0.1869191E+03  0.7546771E-02  0.1161361E+00
         21   -1    0    0  504  503  0.00000000000E+00  0.00000000000E+00  0.44191931963E+03  0.44191931963E+03  0.00000000000E+00 0.  1.
         21   -1    0    0  502  504 -0.00000000000E+00 -0.00000000000E+00 -0.51570687615E+03  0.51570687615E+03  0.00000000000E+00 0.  1.
          6    2    1    2  502    0  0.40100108971E+02  0.55342301770E+02 -0.47755619855E+03  0.51269037772E+03  0.17355319510E+03 0.  0.
         24    2    3    3    0    0 -0.27350594643E+02  0.14776766576E+02 -0.13424301372E+03  0.16043877312E+03  0.82176671453E+02 0.  0.
         -6    2    1    2    0  503 -0.40100108971E+02 -0.55342301770E+02  0.40376864203E+03  0.44493581806E+03  0.17397694330E+03 0.  0.
        -24    2    5    5    0    0 -0.59650246598E+02  0.25126371883E+02  0.19768073259E+03  0.22278332148E+03  0.79782515677E+02 0.  0.
          2    1    4    4  501    0 -0.14401853260E+02 -0.24052587683E+02 -0.10225649472E+02  0.29841317978E+02  0.00000000000E+00 0. -1.
         -1    1    4    4    0  501 -0.12948741383E+02  0.38829354258E+02 -0.12401736425E+03  0.13059745514E+03  0.00000000000E+00 0.  1.
          5    1    3    3  502    0  0.67450703614E+02  0.40565535194E+02 -0.34331318483E+03  0.35225160460E+03  0.47000000000E+01 0. -1.
         13    1    6    6    0    0 -0.51828047190E+02  0.35746068059E+02  0.19974557969E+03  0.20943310260E+03  0.00000000000E+00 0. -1.
        -14    1    6    6    0    0 -0.78221994084E+01 -0.10619696176E+02 -0.20648471059E+01  0.13350218876E+02  0.00000000000E+00 0.  1.
         -5    1    5    5    0  503  0.19550137627E+02 -0.80468673653E+02  0.20608790945E+03  0.22215249659E+03  0.47000000000E+01 0.  1.
<mgrwt>
<rscale>  2 0.18682048E+03</rscale>
<asrwt>0</asrwt>
<pdfrwt beam="1">  1       21 0.67987588E-01 0.18691914E+03</pdfrwt>
<pdfrwt beam="2">  1       21 0.79339519E-01 0.18691914E+03</pdfrwt>
<totfact> 0.27824351E+03</totfact>
</mgrwt>
</event>
<event>
12    1  0.1441827E-001  0.1909818E+03  0.7546771E-02  0.1157925E+00
         21   -1    0    0  504  503  0.00000000000E+00  0.00000000000E+00  0.12523646735E+03  0.12523646735E+03  0.00000000000E+00 0.  1.
         21   -1    0    0  502  504 -0.00000000000E+00 -0.00000000000E+00 -0.34963818301E+03  0.34963818301E+03  0.00000000000E+00 0.  1.
          6    2    1    2  502    0  0.66258271464E+01 -0.77082491719E+02 -0.12865095078E+02  0.18988025717E+03  0.17292596473E+03 0.  0.
         24    2    3    3    0    0  0.52601608606E+02  0.20174261791E+01 -0.20304489239E+02  0.97967232644E+02  0.80089369784E+02 0.  0.
         -6    2    1    2    0  503 -0.66258271464E+01  0.77082491719E+02 -0.21153662059E+03  0.28499439319E+03  0.17460942181E+03 0.  0.
        -24    2    5    5    0    0  0.32488009237E+02  0.94849404910E+02 -0.20289285273E+03  0.24092217831E+03  0.82620251519E+02 0.  0.
          2    1    4    4  501    0 -0.10215903346E+02  0.11118289080E+02 -0.30164664532E+02  0.33732595802E+02  0.00000000000E+00 0. -1.
         -1    1    4    4    0  501  0.62817511952E+02 -0.91008629009E+01  0.98601752931E+01  0.64234636842E+02  0.00000000000E+00 0.  1.
          5    1    3    3  502    0 -0.45975781460E+02 -0.79099917898E+02  0.74393941605E+01  0.91913024527E+02  0.47000000000E+01 0. -1.
         13    1    6    6    0    0  0.39725476384E+02  0.86895283810E+02 -0.10315150917E+03  0.14060276550E+03  0.00000000000E+00 0. -1.
        -14    1    6    6    0    0 -0.72374671474E+01  0.79541210998E+01 -0.99741343555E+02  0.10031941281E+03  0.00000000000E+00 0.  1.
         -5    1    5    5    0  503 -0.39113836383E+02 -0.17766913191E+02 -0.86437678648E+01  0.44072214873E+02  0.47000000000E+01 0.  1.
<mgrwt>
<rscale>  2 0.19059619E+03</rscale>
<asrwt>0</asrwt>
<pdfrwt beam="1">  1       21 0.19267149E-01 0.19098184E+03</pdfrwt>
<pdfrwt beam="2">  1       21 0.53790489E-01 0.19098184E+03</pdfrwt>
<totfact> 0.80960313E+04</totfact>
</mgrwt>
</event>
<event>
12    1  0.1441827E-001  0.2210980E+03  0.7546771E-02  0.1133225E+00
         21   -1    0    0  504  503  0.00000000000E+00  0.00000000000E+00  0.11965026162E+03  0.11965026162E+03  0.00000000000E+00 0. -1.
         21   -1    0    0  502  504 -0.00000000000E+00 -0.00000000000E+00 -0.68088125519E+03  0.68088125519E+03  0.00000000000E+00 0. -1.
          6    2    1    2  502    0  0.13649060072E+03 -0.85938860158E+01 -0.27074543815E+02  0.22274955814E+03  0.17372620922E+03 0.  0.
         24    2    3    3    0    0  0.27580062893E+02 -0.45746696791E+02 -0.43953154787E+02  0.10635018484E+03  0.80777855027E+02 0.  0.
         -6    2    1    2    0  503 -0.13649060072E+03  0.85938860158E+01 -0.53415644975E+03  0.57778195867E+03  0.17264223120E+03 0.  0.
        -24    2    5    5    0    0 -0.11784094232E+03  0.53305526539E+02 -0.48634788849E+03  0.50955667680E+03  0.79911021684E+02 0.  0.
          4    1    4    4  501    0  0.37112716775E+02 -0.45861972099E+02  0.23811731261E+01  0.59045272602E+02  0.00000000000E+00 0. -1.
         -3    1    4    4    0  501 -0.95326538817E+01  0.11527530742E+00 -0.46334327913E+02  0.47304912235E+02  0.00000000000E+00 0.  1.
          5    1    3    3  502    0  0.10891053782E+03  0.37152810775E+02  0.16878610972E+02  0.11639937331E+03  0.47000000000E+01 0. -1.
         13    1    6    6    0    0 -0.20005515898E+02  0.43227162605E+01 -0.22903923459E+03  0.22995190263E+03  0.00000000000E+00 0. -1.
        -14    1    6    6    0    0 -0.97835426424E+02  0.48982810279E+02 -0.25730865390E+03  0.27960477417E+03  0.00000000000E+00 0.  1.
         -5    1    5    5    0  503 -0.18649658396E+02 -0.44711640524E+02 -0.47808561262E+02  0.68225281872E+02  0.47000000000E+01 0.  1.
<mgrwt>
<rscale>  2 0.22088504E+03</rscale>
<asrwt>0</asrwt>
<pdfrwt beam="1">  1       21 0.18407732E-01 0.22109802E+03</pdfrwt>
<pdfrwt beam="2">  1       21 0.10475096E+00 0.22109802E+03</pdfrwt>
<totfact> 0.19452804E+04</totfact>
</mgrwt>
</event>
<event>
12    1  0.1441827E-001  0.2083946E+03  0.7546771E-02  0.1142917E+00
         21   -1    0    0  504  503  0.00000000000E+00  0.00000000000E+00  0.50650318201E+02  0.50650318201E+02  0.00000000000E+00 0.  1.
         21   -1    0    0  502  504 -0.00000000000E+00 -0.00000000000E+00 -0.90724058698E+03  0.90724058698E+03  0.00000000000E+00 0.  1.
          6    2    1    2  502    0  0.48100569434E+02  0.10561417303E+03 -0.54256992833E+03  0.58121463222E+03  0.17309044820E+03 0.  0.
         24    2    3    3    0    0  0.92086909660E+02  0.10460523441E+03 -0.37174261308E+03  0.40474968466E+03  0.78787580585E+02 0.  0.
         -6    2    1    2    0  503 -0.48100569434E+02 -0.10561417303E+03 -0.31402034045E+03  0.37667627296E+03  0.17265057796E+03 0.  0.
        -24    2    5    5    0    0 -0.18734714999E+02  0.98661049101E+01 -0.18026185282E+03  0.19747953467E+03  0.77817102621E+02 0.  0.
          2    1    4    4  501    0  0.42608312911E+02  0.96387711481E+02 -0.20319987318E+03  0.22890226673E+03  0.00000000000E+00 0. -1.
         -1    1    4    4    0  501  0.49478596749E+02  0.82175229321E+01 -0.16854273989E+03  0.17584741792E+03  0.00000000000E+00 0.  1.
          5    1    3    3  502    0 -0.43986340226E+02  0.10089386148E+01 -0.17082731525E+03  0.17646494756E+03  0.47000000000E+01 0. -1.
         13    1    6    6    0    0  0.29088974163E+02 -0.32595002818E+01 -0.47939702896E+02  0.56169456769E+02  0.00000000000E+00 0. -1.
        -14    1    6    6    0    0 -0.47823689162E+02  0.13125605192E+02 -0.13232214993E+03  0.14131007791E+03  0.00000000000E+00 0.  1.
         -5    1    5    5    0  503 -0.29365854435E+02 -0.11548027794E+03 -0.13375848763E+03  0.17919673829E+03  0.47000000000E+01 0.  1.
<mgrwt>
<rscale>  2 0.20830327E+03</rscale>
<asrwt>0</asrwt>
<pdfrwt beam="1">  1       21 0.77923566E-02 0.20839463E+03</pdfrwt>
<pdfrwt beam="2">  1       21 0.13957548E+00 0.20839463E+03</pdfrwt>
<totfact> 0.44905238E+04</totfact>
</mgrwt>
</event>
<event>
12    1  0.1441827E-001  0.2397379E+03  0.7546771E-02  0.1120238E+00
         21   -1    0    0  504  503  0.00000000000E+00  0.00000000000E+00  0.28369116273E+03  0.28369116273E+03  0.00000000000E+00 0.  1.
         21   -1    0    0  502  504 -0.00000000000E+00 -0.00000000000E+00 -0.20424761770E+03  0.20424761770E+03  0.00000000000E+00 0. -1.
          6    2    1    2  502    0 -0.14741835926E+03 -0.77502705113E+02  0.99533563207E+01  0.23833276485E+03  0.17018988088E+03 0.  0.
         24    2    3    3    0    0 -0.10067895538E+03  0.29142207996E+01 -0.41059457027E+02  0.13214495495E+03  0.75044422620E+02 0.  0.
         -6    2    1    2    0  503  0.14741835926E+03  0.77502705113E+02  0.69490188714E+02  0.24960601558E+03  0.17243965536E+03 0.  0.
        -24    2    5    5    0    0  0.66257694683E+02  0.78407747571E+02 -0.23802862973E+02  0.12585806178E+03  0.68817283047E+02 0.  0.
          4    1    4    4  501    0 -0.11236072550E+03  0.52012730470E+01 -0.31307417066E+02  0.11675675672E+03  0.00000000000E+00 0. -1.
         -3    1    4    4    0  501  0.11681770121E+02 -0.22870522473E+01 -0.97520399604E+01  0.15388198223E+02  0.00000000000E+00 0.  1.
          5    1    3    3  502    0 -0.46739403875E+02 -0.80416925913E+02  0.51012813347E+02  0.10618780991E+03  0.47000000000E+01 0. -1.
         11    1    6    6    0    0  0.18896357708E+02  0.71450691844E+02 -0.38825966257E+01  0.74009109278E+02  0.00000000000E+00 0. -1.
        -12    1    6    6    0    0  0.47361336974E+02  0.69570557273E+01 -0.19920266347E+02  0.51848952504E+02  0.00000000000E+00 0.  1.
         -5    1    5    5    0  503  0.81160664574E+02 -0.90504245770E+00  0.93293051687E+02  0.12374795380E+03  0.47000000000E+01 0.  1.
<mgrwt>
<rscale>  2 0.23933364E+03</rscale>
<asrwt>0</asrwt>
<pdfrwt beam="1">  1       21 0.43644794E-01 0.23973793E+03</pdfrwt>
<pdfrwt beam="2">  1       21 0.31422710E-01 0.23973793E+03</pdfrwt>
<totfact> 0.48059227E+04</totfact>
</mgrwt>
</event>
<event>
12    1  0.1441827E-001  0.1800866E+03  0.7546771E-02  0.1167844E+00
         21   -1    0    0  504  503  0.00000000000E+00  0.00000000000E+00  0.12045611557E+03  0.12045611557E+03  0.00000000000E+00 0.  1.
         21   -1    0    0  502  504 -0.00000000000E+00 -0.00000000000E+00 -0.27493940472E+03  0.27493940472E+03  0.00000000000E+00 0.  1.
          6    2    1    2  502    0  0.26421243128E+01  0.47258362418E+02 -0.10768089754E+03  0.20982460208E+03  0.17375515619E+03 0.  0.
         24    2    3    3    0    0  0.36630614070E+02 -0.24246734234E+02 -0.16383816257E+02  0.88888902905E+02  0.75518882515E+02 0.  0.
         -6    2    1    2    0  503 -0.26421243128E+01 -0.47258362418E+02 -0.46802391607E+02  0.18557091821E+03  0.17322173127E+03 0.  0.
        -24    2    5    5    0    0 -0.47898541169E+02 -0.56756530443E+02  0.12896004797E+02  0.10991150375E+03  0.79991610332E+02 0.  0.
          2    1    4    4  501    0  0.57863809015E+02 -0.29335119193E+02 -0.74646595776E+01  0.65303068492E+02  0.00000000000E+00 0. -1.
         -1    1    4    4    0  501 -0.21233194945E+02  0.50883849595E+01 -0.89191566798E+01  0.23585834413E+02  0.00000000000E+00 0.  1.
          5    1    3    3  502    0 -0.33988489757E+02  0.71505096652E+02 -0.91297081283E+02  0.12093569917E+03  0.47000000000E+01 0. -1.
         11    1    6    6    0    0 -0.23476855449E+02 -0.47096357571E+02 -0.29284599642E+02  0.60223063808E+02  0.00000000000E+00 0. -1.
        -12    1    6    6    0    0 -0.24421685721E+02 -0.96601728719E+01  0.42180604439E+02  0.49688439945E+02  0.00000000000E+00 0.  1.
         -5    1    5    5    0  503  0.45256416857E+02  0.94981680250E+01 -0.59698396404E+02  0.75659414455E+02  0.47000000000E+01 0.  1.
<mgrwt>
<rscale>  2 0.17995782E+03</rscale>
<asrwt>0</asrwt>
<pdfrwt beam="1">  1       21 0.18531710E-01 0.18008661E+03</pdfrwt>
<pdfrwt beam="2">  1       21 0.42298369E-01 0.18008661E+03</pdfrwt>
<totfact> 0.14366605E+05</totfact>
</mgrwt>
</event>
<event>
12    1  0.1441827E-001  0.2810213E+03  0.7546771E-02  0.1095144E+00
         21   -1    0    0  504  503  0.00000000000E+00  0.00000000000E+00  0.11303471065E+04  0.11303471065E+04  0.00000000000E+00 0. -1.
         21   -1    0    0  502  504 -0.00000000000E+00 -0.00000000000E+00 -0.74685607546E+02  0.74685607546E+02  0.00000000000E+00 0.  1.
          6    2    1    2  502    0 -0.44948426205E+02 -0.21646489326E+03  0.37451176608E+03  0.46822220595E+03  0.17348071991E+03 0.  0.
         24    2    3    3    0    0 -0.75812156347E+02 -0.19745597578E+03  0.24388617454E+03  0.33257913039E+03  0.79950399741E+02 0.  0.
         -6    2    1    2    0  503  0.44948426205E+02  0.21646489326E+03  0.68114973285E+03  0.73681050807E+03  0.17334172956E+03 0.  0.
        -24    2    5    5    0    0  0.66892177404E+02  0.90107815842E+02  0.46895773130E+03  0.48882830155E+03  0.80235732512E+02 0.  0.
          2    1    4    4  501    0 -0.48379334297E+02 -0.45692070021E+02  0.10891325100E+03  0.12763393551E+03  0.00000000000E+00 0. -1.
         -1    1    4    4    0  501 -0.27432822050E+02 -0.15176390576E+03  0.13497292354E+03  0.20494519488E+03  0.00000000000E+00 0.  1.
          5    1    3    3  502    0  0.30863730142E+02 -0.19008917482E+02  0.13062559154E+03  0.13564307556E+03  0.47000000000E+01 0. -1.
         11    1    6    6    0    0  0.24260469121E+02  0.76258345959E+02  0.38915964530E+03  0.39730232219E+03  0.00000000000E+00 0. -1.
        -12    1    6    6    0    0  0.42631708282E+02  0.13849469883E+02  0.79798086007E+02  0.91525979358E+02  0.00000000000E+00 0.  1.
         -5    1    5    5    0  503 -0.21943751198E+02  0.12635707742E+03  0.21219200155E+03  0.24798220653E+03  0.47000000000E+01 0.  1.
<mgrwt>
<rscale>  2 0.28099985E+03</rscale>
<asrwt>0</asrwt>
<pdfrwt beam="1">  1       21 0.17389954E+00 0.28102130E+03</pdfrwt>
<pdfrwt beam="2">  1       21 0.11490094E-01 0.28102130E+03</pdfrwt>
<totfact> 0.11995556E+04</totfact>
</mgrwt>
</event>
<event>
12    1  0.1441827E-001  0.2150975E+03  0.7546771E-02  0.1137705E+00
         21   -1    0    0  504  503  0.00000000000E+00  0.00000000000E+00  0.18805405909E+03  0.18805405909E+03  0.00000000000E+00 0. -1.
         21   -1    0    0  502  504 -0.00000000000E+00 -0.00000000000E+00 -0.27896171169E+03  0.27896171169E+03  0.00000000000E+00 0. -1.
          6    2    1    2  502    0 -0.17658026557E+02  0.12941095512E+03 -0.12644401726E+03  0.24900259048E+03  0.17016227361E+03 0.  0.
         24    2    3    3    0    0 -0.44183162312E+02  0.64845528784E+02 -0.10215509926E+02  0.11334333712E+03  0.81149621022E+02 0.  0.
         -6    2    1    2    0  503  0.17658026557E+02 -0.12941095512E+03  0.35536364665E+02  0.21801318029E+03  0.17090322514E+03 0.  0.
        -24    2    5    5    0    0  0.11679559316E+02 -0.13987108558E+03  0.68566076032E+02  0.18254194924E+03  0.94445348022E+02 0.  0.
          2    1    4    4  501    0  0.21437774542E+02  0.33090029653E+02  0.17539530210E+01  0.39466499604E+02  0.00000000000E+00 0. -1.
         -1    1    4    4    0  501 -0.65620936854E+02  0.31755499130E+02 -0.11969462947E+02  0.73876837520E+02  0.00000000000E+00 0.  1.
          5    1    3    3  502    0  0.26525135755E+02  0.64565426335E+02 -0.11622850734E+03  0.13565925336E+03  0.47000000000E+01 0. -1.
         11    1    6    6    0    0  0.41145006062E+02 -0.49213410572E+02  0.58269732162E+02  0.86661600436E+02  0.00000000000E+00 0. -1.
        -12    1    6    6    0    0 -0.29465446746E+02 -0.90657675005E+02  0.10296343870E+02  0.95880348801E+02  0.00000000000E+00 0.  1.
         -5    1    5    5    0  503  0.59784672408E+01  0.10460130457E+02 -0.33029711367E+02  0.35471231057E+02  0.47000000000E+01 0.  1.
<mgrwt>
<rscale>  2 0.21495024E+03</rscale>
<asrwt>0</asrwt>
<pdfrwt beam="1">  1       21 0.28931394E-01 0.21509745E+03</pdfrwt>
<pdfrwt beam="2">  1       21 0.42917186E-01 0.21509745E+03</pdfrwt>
<totfact> 0.59095314E+04</totfact>
</mgrwt>
</event>
<event>
12    1  0.1441827E-001  0.2078593E+03  0.7546771E-02  0.1143339E+00
         21   -1    0    0  504  503  0.00000000000E+00  0.00000000000E+00  0.71107104210E+03  0.71107104210E+03  0.00000000000E+00 0. -1.
         21   -1    0    0  502  504 -0.00000000000E+00 -0.00000000000E+00 -0.24920318398E+03  0.24920318398E+03  0.00000000000E+00 0. -1.
          6    2    1    2  502    0  0.34499998436E+02 -0.10738834542E+03 -0.18664892429E+03  0.27936229614E+03  0.17459371393E+03 0.  0.
         24    2    3    3    0    0  0.64077048555E+01 -0.13375028700E+03 -0.13029939588E+03  0.21094089398E+03  0.97917977043E+02 0.  0.
         -6    2    1    2    0  503 -0.34499998436E+02  0.10738834542E+03  0.64851678241E+03  0.68091192993E+03  0.17419682154E+03 0.  0.
        -24    2    5    5    0    0 -0.38165911493E+02  0.10448970939E+03  0.65672810103E+03  0.67035935855E+03  0.75598510148E+02 0.  0.
          2    1    4    4  501    0 -0.29196413289E+02 -0.11122981029E+03 -0.12263893840E+03  0.16812141582E+03  0.00000000000E+00 0. -1.
         -1    1    4    4    0  501  0.35604118145E+02 -0.22520476716E+02 -0.76604574792E+01  0.42819478152E+02  0.00000000000E+00 0.  1.
          5    1    3    3  502    0  0.28092293580E+02  0.26361941589E+02 -0.56349528406E+02  0.68421402168E+02  0.47000000000E+01 0. -1.
         13    1    6    6    0    0 -0.46565432904E+02  0.28732034764E+02  0.20162473754E+03  0.20891721842E+03  0.00000000000E+00 0. -1.
        -14    1    6    6    0    0  0.83995214109E+01  0.75757674630E+02  0.45510336349E+03  0.46144214013E+03  0.00000000000E+00 0.  1.
         -5    1    5    5    0  503  0.36659130573E+01  0.28986360205E+01 -0.82113186227E+01  0.10552571385E+02  0.47000000000E+01 0.  1.
<mgrwt>
<rscale>  2 0.20777589E+03</rscale>
<asrwt>0</asrwt>
<pdfrwt beam="1">  1       21 0.10939554E+00 0.20785926E+03</pdfrwt>
<pdfrwt beam="2">  1       21 0.38338952E-01 0.20785926E+03</pdfrwt>
<totfact> 0.42892328E+03</totfact>
</mgrwt>
</event>
<event>
12    1  0.1441827E-001  0.2228807E+03  0.7546771E-02  0.1132164E+00
         21   -1    0    0  504  503  0.00000000000E+00  0.00000000000E+00  0.21087812571E+03  0.21087812571E+03  0.00000000000E+00 0. -1.
         21   -1    0    0  502  504 -0.00000000000E+00 -0.00000000000E+00 -0.29188669862E+03  0.29188669862E+03  0.00000000000E+00 0. -1.
          6    2    1    2  502    0  0.76767111561E+02 -0.11269586161E+03 -0.15304406871E+03  0.26853221476E+03  0.17347483032E+03 0.  0.
         24    2    3    3    0    0  0.55987223893E+02  0.35279823585E+01 -0.96052098678E+02  0.13734547654E+03  0.80565242912E+02 0.  0.
         -6    2    1    2    0  503 -0.76767111561E+02  0.11269586161E+03  0.72035495810E+02  0.23423260956E+03  0.17630160545E+03 0.  0.
        -24    2    5    5    0    0 -0.84818859122E+02  0.14207141854E+03  0.80675913833E+02  0.20222478541E+03  0.83712208979E+02 0.  0.
          2    1    4    4  501    0  0.67070883390E+02  0.18714070234E+02 -0.95937853230E+02  0.11854447058E+03  0.00000000000E+00 0. -1.
         -1    1    4    4    0  501 -0.11083659497E+02 -0.15186087875E+02 -0.11424544827E+00  0.18801005952E+02  0.00000000000E+00 0.  1.
          5    1    3    3  502    0  0.20779887668E+02 -0.11622384397E+03 -0.56991970036E+02  0.13118673823E+03  0.47000000000E+01 0. -1.
         11    1    6    6    0    0 -0.57650884322E+02  0.24096610922E+02  0.41381973665E+02  0.74944905534E+02  0.00000000000E+00 0. -1.
        -12    1    6    6    0    0 -0.27167974800E+02  0.11797480762E+03  0.39293940168E+02  0.12727987987E+03  0.00000000000E+00 0.  1.
         -5    1    5    5    0  503  0.80517475602E+01 -0.29375556928E+02 -0.86404180231E+01  0.32007824156E+02  0.47000000000E+01 0.  1.
<mgrwt>
<rscale>  2 0.22232128E+03</rscale>
<asrwt>0</asrwt>
<pdfrwt beam="1">  1       21 0.32442789E-01 0.22288069E+03</pdfrwt>
<pdfrwt beam="2">  1       21 0.44905646E-01 0.22288069E+03</pdfrwt>
<totfact> 0.42869976E+04</totfact>
</mgrwt>
</event>
<event>
12    1  0.1441827E-001  0.2928278E+03  0.7546771E-02  0.1088890E+00
         21   -1    0    0  504  503  0.00000000000E+00  0.00000000000E+00  0.12651418311E+04  0.12651418311E+04  0.00000000000E+00 0. -1.
         21   -1    0    0  502  504 -0.00000000000E+00 -0.00000000000E+00 -0.13392958344E+03  0.13392958344E+03  0.00000000000E+00 0.  1.
          6    2    1    2  502    0 -0.18292051614E+03 -0.14960494189E+03  0.73890755243E+02  0.30194933370E+03  0.17283518898E+03 0.  0.
         24    2    3    3    0    0 -0.13702529044E+03 -0.28978365584E+02  0.53500647243E+02  0.17120152624E+03  0.82655716309E+02 0.  0.
         -6    2    1    2    0  503  0.18292051614E+03  0.14960494189E+03  0.10573214924E+04  0.10971220808E+04  0.17293515562E+03 0.  0.
        -24    2    5    5    0    0  0.17709344363E+03  0.78620380948E+02  0.63636361402E+03  0.67015558560E+03  0.81281040709E+02 0.  0.
          4    1    4    4  501    0 -0.84982935024E+02 -0.53492706521E+02  0.13929168042E+02  0.10137845244E+03  0.00000000000E+00 0. -1.
         -3    1    4    4    0  501 -0.52042355418E+02  0.24514340937E+02  0.39571479201E+02  0.69823073802E+02  0.00000000000E+00 0.  1.
          5    1    3    3  502    0 -0.45895225699E+02 -0.12062657630E+03  0.20390107999E+02  0.13074780746E+03  0.47000000000E+01 0. -1.
         13    1    6    6    0    0  0.53903080569E+02  0.66614417356E+02  0.28665650801E+03  0.29919053507E+03  0.00000000000E+00 0. -1.
        -14    1    6    6    0    0  0.12319036306E+03  0.12005963592E+02  0.34970710602E+03  0.37096505052E+03  0.00000000000E+00 0.  1.
         -5    1    5    5    0  503  0.58270725089E+01  0.70984560938E+02  0.42095787840E+03  0.42696649524E+03  0.47000000000E+01 0.  1.
<mgrwt>
<rscale>  2 0.29281304E+03</rscale>
<asrwt>0</asrwt>
<pdfrwt beam="1">  1       21 0.19463720E+00 0.29282780E+03</pdfrwt>
<pdfrwt beam="2">  1       21 0.20604552E-01 0.29282780E+03</pdfrwt>
<totfact> 0.29302795E+03</totfact>
</mgrwt>
</event>
<event>
12    1  0.1441827E-001  0.1801108E+03  0.7546771E-02  0.1167830E+00
         21   -1    0    0  504  503  0.00000000000E+00  0.00000000000E+00  0.12487528548E+04  0.12487528548E+04  0.00000000000E+00 0. -1.
         21   -1    0    0  502  504 -0.00000000000E+00 -0.00000000000E+00 -0.28073088601E+02  0.28073088601E+02  0.00000000000E+00 0. -1.
          6    2    1    2  502    0  0.19496824005E+02 -0.44744193651E+02  0.43177956648E+03  0.46762670053E+03  0.17279747686E+03 0.  0.
         24    2    3    3    0    0 -0.13194183013E+02  0.35366862120E+02  0.17787795986E+03  0.19934587930E+03  0.81690327387E+02 0.  0.
         -6    2    1    2    0  503 -0.19496824005E+02  0.44744193651E+02  0.78890019969E+03  0.80919924284E+03  0.17337162550E+03 0.  0.
        -24    2    5    5    0    0  0.15724606965E+02  0.57725206866E+02  0.74455988700E+03  0.75091365943E+03  0.76957363629E+02 0.  0.
          2    1    4    4  501    0 -0.23490251206E+02  0.18989816592E+02  0.12255602074E+02  0.32597619823E+02  0.00000000000E+00 0. -1.
         -1    1    4    4    0  501  0.10296068193E+02  0.16377045528E+02  0.16562235778E+03  0.16674825948E+03  0.00000000000E+00 0.  1.
          5    1    3    3  502    0  0.32691007019E+02 -0.80111055771E+02  0.25390160662E+03  0.26828082123E+03  0.47000000000E+01 0. -1.
         11    1    6    6    0    0  0.50164759348E+01 -0.88977970423E+01  0.38147435784E+03  0.38161108673E+03  0.00000000000E+00 0. -1.
        -12    1    6    6    0    0  0.10708131030E+02  0.66623003908E+02  0.36308552916E+03  0.36930257270E+03  0.00000000000E+00 0.  1.
         -5    1    5    5    0  503 -0.35221430971E+02 -0.12981013215E+02  0.44340312685E+02  0.58285583404E+02  0.47000000000E+01 0.  1.
<mgrwt>
<rscale>  2 0.17997246E+03</rscale>
<asrwt>0</asrwt>
<pdfrwt beam="1">  1       21 0.19211578E+00 0.18011077E+03</pdfrwt>
<pdfrwt beam="2">  1       21 0.43189377E-02 0.18011077E+03</pdfrwt>
<totfact> 0.52453075E+04</totfact>
</mgrwt>
</event>
<event>
12    1  0.1441827E-001  0.2387327E+03  0.7546771E-02  0.1120640E+00
         21   -1    0    0  504  503  0.00000000000E+00  0.00000000000E+00  0.49371262145E+03  0.49371262145E+03  0.00000000000E+00 0.  1.
         21   -1    0    0  502  504 -0.00000000000E+00 -0.00000000000E+00 -0.18665398703E+03  0.18665398703E+03  0.00000000000E+00 0. -1.
          6    2    1    2  502    0 -0.11233787098E+03 -0.11969774225E+03 -0.56598091241E+02  0.24535001319E+03  0.17333764243E+03 0.  0.
         24    2    3    3    0    0 -0.93154217434E+02 -0.63547635201E+02  0.28574379728E+02  0.14144001898E+03  0.80453549499E+02 0.  0.
         -6    2    1    2    0  503  0.11233787098E+03  0.11969774225E+03  0.36365672567E+03  0.43501659530E+03  0.17333746653E+03 0.  0.
        -24    2    5    5    0    0  0.87494791658E+02  0.16180829833E+02  0.25164809652E+03  0.28041726557E+03  0.85964646972E+02 0.  0.
          4    1    4    4  501    0 -0.54992136332E+02 -0.79868595405E+02  0.21715452748E+02  0.99371467124E+02  0.00000000000E+00 0. -1.
         -3    1    4    4    0  501 -0.38162081101E+02  0.16320960204E+02  0.68589269795E+01  0.42068551856E+02  0.00000000000E+00 0.  1.
          5    1    3    3  502    0 -0.19183653542E+02 -0.56150107051E+02 -0.85172470969E+02  0.10390999421E+03  0.47000000000E+01 0. -1.
         13    1    6    6    0    0 -0.11016206316E+02 -0.35297684864E+01  0.25815670408E+01  0.11852449348E+02  0.00000000000E+00 0. -1.
        -14    1    6    6    0    0  0.98510997975E+02  0.19710598319E+02  0.24906652948E+03  0.26856481623E+03  0.00000000000E+00 0.  1.
         -5    1    5    5    0  503  0.24843079317E+02  0.10351691242E+03  0.11200862915E+03  0.15459932972E+03  0.47000000000E+01 0.  1.
<mgrwt>
<rscale>  2 0.23873263E+03</rscale>
<asrwt>0</asrwt>
<pdfrwt beam="1">  1       21 0.75955788E-01 0.23873266E+03</pdfrwt>
<pdfrwt beam="2">  1       21 0.28715998E-01 0.23873266E+03</pdfrwt>
<totfact> 0.17458496E+04</totfact>
</mgrwt>
</event>
<event>
12    1  0.1441827E-001  0.2166299E+03  0.7546771E-02  0.1136827E+00
         21   -1    0    0  504  503  0.00000000000E+00  0.00000000000E+00  0.49915158262E+03  0.49915158262E+03  0.00000000000E+00 0. -1.
         21   -1    0    0  502  504 -0.00000000000E+00 -0.00000000000E+00 -0.23335680712E+03  0.23335680712E+03  0.00000000000E+00 0. -1.
          6    2    1    2  502    0 -0.10560342861E+03 -0.74065451963E+02 -0.15131146847E+03  0.26250184851E+03  0.17138927817E+03 0.  0.
         24    2    3    3    0    0  0.50178772109E+01 -0.84066957354E+01 -0.81973083003E+02  0.11628951227E+03  0.81901237486E+02 0.  0.
         -6    2    1    2    0  503  0.10560342861E+03  0.74065451963E+02  0.41710624398E+03  0.47000654123E+03  0.17404239348E+03 0.  0.
        -24    2    5    5    0    0  0.63493134668E+02 -0.24447765051E+02  0.23820337504E+03  0.26142452548E+03  0.83503672225E+02 0.  0.
          4    1    4    4  501    0  0.10585712549E+02  0.31898795757E+02 -0.62979652259E+02  0.71386462860E+02  0.00000000000E+00 0. -1.
         -3    1    4    4    0  501 -0.55678353378E+01 -0.40305491492E+02 -0.18993430743E+02  0.44903049409E+02  0.00000000000E+00 0.  1.
          5    1    3    3  502    0 -0.11062130582E+03 -0.65658756227E+02 -0.69338385472E+02  0.14621233624E+03  0.47000000000E+01 0. -1.
         11    1    6    6    0    0  0.41562797849E+02 -0.98950401009E+01  0.22988527867E+03  0.23382176830E+03  0.00000000000E+00 0. -1.
        -12    1    6    6    0    0  0.21930336818E+02 -0.14552724950E+02  0.83180963711E+01  0.27602757175E+02  0.00000000000E+00 0.  1.
         -5    1    5    5    0  503  0.42110293940E+02  0.98513217014E+02  0.17890286894E+03  0.20858201575E+03  0.47000000000E+01 0.  1.
<mgrwt>
<rscale>  2 0.21609654E+03</rscale>
<asrwt>0</asrwt>
<pdfrwt beam="1">  1       21 0.76792551E-01 0.21662994E+03</pdfrwt>
<pdfrwt beam="2">  1       21 0.35901047E-01 0.21662994E+03</pdfrwt>
<totfact> 0.11104988E+04</totfact>
</mgrwt>
</event>
<event>
12    1  0.1441827E-001  0.2484944E+03  0.7546771E-02  0.1114280E+00
         21   -1    0    0  504  503  0.00000000000E+00  0.00000000000E+00  0.18676660096E+04  0.18676660096E+04  0.00000000000E+00 0. -1.
         21   -1    0    0  502  504 -0.00000000000E+00 -0.00000000000E+00 -0.82873450231E+02  0.82873450231E+02  0.00000000000E+00 0.  1.
          6    2    1    2  502    0 -0.83272477777E+02 -0.15793706975E+03  0.13607504375E+03  0.28320058793E+03  0.17264915846E+03 0.  0.
         24    2    3    3    0    0 -0.93639406337E+02 -0.14181990849E+03  0.16386824683E+03  0.24911557315E+03  0.79526986636E+02 0.  0.
         -6    2    1    2    0  503  0.83272477777E+02  0.15793706975E+03  0.16487175156E+04  0.16673388719E+04  0.17283241557E+03 0.  0.
        -24    2    5    5    0    0  0.55712180630E+02  0.16767952294E+03  0.15862383528E+04  0.15981997285E+04  0.82885406168E+02 0.  0.
          2    1    4    4  501    0 -0.32607679747E+02 -0.30474634304E+02  0.94307247555E+02  0.10433513817E+03  0.00000000000E+00 0. -1.
         -1    1    4    4    0  501 -0.61031726590E+02 -0.11134527419E+03  0.69560999276E+02  0.14478043499E+03  0.00000000000E+00 0.  1.
          5    1    3    3  502    0  0.10366928560E+02 -0.16117161255E+02 -0.27793203084E+02  0.34085014778E+02  0.47000000000E+01 0. -1.
         11    1    6    6    0    0 -0.68584763214E+01  0.10100483601E+03  0.70527163531E+03  0.71250059310E+03  0.00000000000E+00 0. -1.
        -12    1    6    6    0    0  0.62570656951E+02  0.66674686936E+02  0.88096671752E+03  0.88569913535E+03  0.00000000000E+00 0.  1.
         -5    1    5    5    0  503  0.27560297147E+02 -0.97424531928E+01  0.62479162773E+02  0.69139143428E+02  0.47000000000E+01 0.  1.
<mgrwt>
<rscale>  2 0.24846254E+03</rscale>
<asrwt>0</asrwt>
<pdfrwt beam="1">  1       21 0.28733320E+00 0.24849440E+03</pdfrwt>
<pdfrwt beam="2">  1       21 0.12749763E-01 0.24849440E+03</pdfrwt>
<totfact> 0.19993205E+03</totfact>
</mgrwt>
</event>
<event>
12    1  0.1441827E-001  0.1768460E+03  0.7546771E-02  0.1171087E+00
         21   -1    0    0  504  503  0.00000000000E+00  0.00000000000E+00  0.60488326593E+02  0.60488326593E+02  0.00000000000E+00 0. -1.
         21   -1    0    0  502  504 -0.00000000000E+00 -0.00000000000E+00 -0.52454206422E+03  0.52454206422E+03  0.00000000000E+00 0. -1.
          6    2    1    2  502    0  0.12223095218E+01  0.37636661857E+02 -0.27154250216E+03  0.32362060257E+03  0.17197950916E+03 0.  0.
         24    2    3    3    0    0 -0.16580083122E+02 -0.43716432749E+02 -0.14202785807E+03  0.16957066190E+03  0.79976691987E+02 0.  0.
         -6    2    1    2    0  503 -0.12223095218E+01 -0.37636661857E+02 -0.19251123546E+03  0.26140978824E+03  0.17279030428E+03 0.  0.
        -24    2    5    5    0    0 -0.55457132235E+02 -0.63355326542E+02 -0.13699631718E+03  0.17951435577E+03  0.79799887774E+02 0.  0.
          4    1    4    4  501    0 -0.47590911187E+02 -0.36749578387E+02 -0.10267368818E+03  0.11898450565E+03  0.00000000000E+00 0. -1.
         -3    1    4    4    0  501  0.31010828065E+02 -0.69668543619E+01 -0.39354169882E+02  0.50586156250E+02  0.00000000000E+00 0.  1.
          5    1    3    3  502    0  0.17802392643E+02  0.81353094606E+02 -0.12951464410E+03  0.15404994067E+03  0.47000000000E+01 0. -1.
         11    1    6    6    0    0  0.60635309988E+01 -0.44981478344E+02 -0.28963413034E+02  0.53842168388E+02  0.00000000000E+00 0. -1.
        -12    1    6    6    0    0 -0.61520663234E+02 -0.18373848198E+02 -0.10803290415E+03  0.12567218738E+03  0.00000000000E+00 0.  1.
         -5    1    5    5    0  503  0.54234822713E+02  0.25718664685E+02 -0.55514918276E+02  0.81895432468E+02  0.47000000000E+01 0.  1.
<mgrwt>
<rscale>  2 0.17664762E+03</rscale>
<asrwt>0</asrwt>
<pdfrwt beam="1">  1       21 0.93058961E-02 0.17684598E+03</pdfrwt>
<pdfrwt beam="2">  1       21 0.80698782E-01 0.17684598E+03</pdfrwt>
<totfact> 0.12494589E+05</totfact>
</mgrwt>
</event>
<event>
12    1  0.1441827E-001  0.1831938E+03  0.7546771E-02  0.1164958E+00
         21   -1    0    0  504  503  0.00000000000E+00  0.00000000000E+00  0.85006182158E+03  0.85006182158E+03  0.00000000000E+00 0.  1.
         21   -1    0    0  502  504 -0.00000000000E+00 -0.00000000000E+00 -0.58059590470E+02  0.58059590470E+02  0.00000000000E+00 0.  1.
          6    2    1    2  502    0  0.34584141047E+02  0.48659677911E+02  0.13847043965E+03  0.22963892337E+03  0.17319395314E+03 0.  0.
         24    2    3    3    0    0 -0.39772098583E+02  0.55226731776E+02  0.63733291504E+02  0.12390478564E+03  0.81600562071E+02 0.  0.
         -6    2    1    2    0  503 -0.34584141047E+02 -0.48659677911E+02  0.65353179146E+03  0.67848248868E+03  0.17225230893E+03 0.  0.
        -24    2    5    5    0    0  0.14487400453E+02 -0.81868886386E+02  0.32718899243E+03  0.34677089679E+03  0.79278110264E+02 0.  0.
          2    1    4    4  501    0 -0.18036351050E+02  0.19966498251E+02  0.76067512065E+02  0.80686042185E+02  0.00000000000E+00 0. -1.
         -1    1    4    4    0  501 -0.21735747533E+02  0.35260233525E+02 -0.12334220561E+02  0.43218743456E+02  0.00000000000E+00 0.  1.
          5    1    3    3  502    0  0.74356239630E+02 -0.65670538645E+01  0.74737148150E+02  0.10573413773E+03  0.47000000000E+01 0. -1.
         13    1    6    6    0    0 -0.99475907025E+00 -0.94531052880E+02  0.25923130653E+03  0.27593111422E+03  0.00000000000E+00 0. -1.
        -14    1    6    6    0    0  0.15482159524E+02  0.12662166494E+02  0.67957685891E+02  0.70839782577E+02  0.00000000000E+00 0.  1.
         -5    1    5    5    0  503 -0.49071541501E+02  0.33209208475E+02  0.32634279903E+03  0.33171159189E+03  0.47000000000E+01 0.  1.
<mgrwt>
<rscale>  2 0.18297091E+03</rscale>
<asrwt>0</asrwt>
<pdfrwt beam="1">  1       21 0.13077873E+00 0.18319381E+03</pdfrwt>
<pdfrwt beam="2">  1       21 0.89322453E-02 0.18319381E+03</pdfrwt>
<totfact> 0.42367003E+04</totfact>
</mgrwt>
</event>
<event>
12    1  0.1441827E-001  0.2700475E+03  0.7546771E-02  0.1101336E+00
         21   -1    0    0  504  503  0.00000000000E+00  0.00000000000E+00  0.36352861757E+03  0.36352861757E+03  0.00000000000E+00 0.  1.
         21   -1    0    0  502  504 -0.00000000000E+00 -0.00000000000E+00 -0.32914761889E+03  0.32914761889E+03  0.00000000000E+00 0.  1.
          6    2    1    2  502    0  0.58104340264E+02 -0.19866741811E+03 -0.19959665405E+03  0.33580422542E+03  0.17343816225E+03 0.  0.
         24    2    3    3    0    0  0.10037986255E+03 -0.18727250923E+03 -0.17332149092E+03  0.28452520504E+03  0.75941711662E+02 0.  0.
         -6    2    1    2    0  503 -0.58104340264E+02  0.19866741811E+03  0.23397765273E+03  0.35687201103E+03  0.17253183156E+03 0.  0.
        -24    2    5    5    0    0  0.27868337039E+02  0.72765490924E+02  0.59925186891E+02  0.12544395012E+03  0.77933918923E+02 0.  0.
          2    1    4    4  501    0  0.82392682977E+02 -0.19031551162E+03 -0.15843219676E+03  0.26097760275E+03  0.00000000000E+00 0. -1.
         -1    1    4    4    0  501  0.17987179577E+02  0.30430023916E+01 -0.14889294169E+02  0.23547602289E+02  0.00000000000E+00 0.  1.
          5    1    3    3  502    0 -0.42275522290E+02 -0.11394908881E+02 -0.26275163130E+02  0.51279020377E+02  0.47000000000E+01 0. -1.
         13    1    6    6    0    0  0.19781729870E+02  0.83035861804E+02  0.68808097921E+02  0.10963952536E+03  0.00000000000E+00 0. -1.
        -14    1    6    6    0    0  0.80866071694E+01 -0.10270370880E+02 -0.88829110300E+01  0.15804424757E+02  0.00000000000E+00 0.  1.
         -5    1    5    5    0  503 -0.85972677303E+02  0.12590192718E+03  0.17405246584E+03  0.23142806091E+03  0.47000000000E+01 0.  1.
<mgrwt>
<rscale>  2 0.26990209E+03</rscale>
<asrwt>0</asrwt>
<pdfrwt beam="1">  1       21 0.55927480E-01 0.27004750E+03</pdfrwt>
<pdfrwt beam="2">  1       21 0.50638095E-01 0.27004750E+03</pdfrwt>
<totfact> 0.10673712E+04</totfact>
</mgrwt>
</event>
<event>
12    1  0.1441827E-001  0.1882931E+03  0.7546771E-02  0.1160104E+00
         21   -1    0    0  504  503  0.00000000000E+00  0.00000000000E+00  0.18329120279E+04  0.18329120279E+04  0.00000000000E+00 0. -1.
         21   -1    0    0  502  504 -0.00000000000E+00 -0.00000000000E+00 -0.21977260349E+02  0.21977260349E+02  0.00000000000E+00 0.  1.
          6    2    1    2  502    0 -0.74691957251E+02  0.83851992582E+01  0.58267884830E+03  0.61234707286E+03  0.17264152846E+03 0.  0.
         24    2    3    3    0    0  0.22868115867E+02 -0.11912837798E+02  0.20202666166E+03  0.21883956929E+03  0.80069461342E+02 0.  0.
         -6    2    1    2    0  503  0.74691957251E+02 -0.83851992582E+01  0.12282559193E+04  0.12425422154E+04  0.17218987713E+03 0.  0.
        -24    2    5    5    0    0  0.57132590180E+02  0.24572062137E+02  0.11613362807E+04  0.11657643509E+04  0.80228709767E+02 0.  0.
          4    1    4    4  501    0  0.40150639773E+02  0.10907481222E+02  0.17352824710E+03  0.17844634925E+03  0.00000000000E+00 0. -1.
         -3    1    4    4    0  501 -0.17282523906E+02 -0.22820319020E+02  0.28498414562E+02  0.40393220041E+02  0.00000000000E+00 0.  1.
          5    1    3    3  502    0 -0.97560073119E+02  0.20298037056E+02  0.38065218664E+03  0.39350750357E+03  0.47000000000E+01 0. -1.
         13    1    6    6    0    0  0.44434828337E-01  0.24236430237E+02  0.76017472881E+03  0.76056099350E+03  0.00000000000E+00 0. -1.
        -14    1    6    6    0    0  0.57088155352E+02  0.33563190066E+00  0.40116155190E+03  0.40520335741E+03  0.00000000000E+00 0.  1.
         -5    1    5    5    0  503  0.17559367071E+02 -0.32957261395E+02  0.66919638591E+02  0.76777864517E+02  0.47000000000E+01 0.  1.
<mgrwt>
<rscale>  2 0.18818952E+03</rscale>
<asrwt>0</asrwt>
<pdfrwt beam="1">  1       21 0.28198635E+00 0.18829312E+03</pdfrwt>
<pdfrwt beam="2">  1       21 0.33811184E-02 0.18829312E+03</pdfrwt>
<totfact> 0.22581700E+04</totfact>
</mgrwt>
</event>
<event>
12    1  0.1441827E-001  0.2121930E+03  0.7546771E-02  0.1140507E+00
         21   -1    0    0  504  503  0.00000000000E+00  0.00000000000E+00  0.85441756956E+03  0.85441756956E+03  0.00000000000E+00 0. -1.
         21   -1    0    0  502  504 -0.00000000000E+00 -0.00000000000E+00 -0.68254283220E+02  0.68254283220E+02  0.00000000000E+00 0. -1.
          6    2    1    2  502    0  0.93645774875E+02  0.70968395196E+02  0.16460570535E+03  0.26589205138E+03  0.17261952521E+03 0.  0.
         24    2    3    3    0    0  0.45684648385E+02  0.52642434846E+02  0.18052840358E+03  0.21193157699E+03  0.86407035490E+02 0.  0.
         -6    2    1    2    0  503 -0.93645774875E+02 -0.70968395196E+02  0.62155758099E+03  0.65677980140E+03  0.17669136021E+03 0.  0.
        -24    2    5    5    0    0 -0.52115099072E+02 -0.83997204438E+02  0.58777396162E+03  0.60148088784E+03  0.80805411809E+02 0.  0.
          4    1    4    4  501    0 -0.11058731244E+02  0.45123834804E+02  0.11973221407E+03  0.12842997738E+03  0.00000000000E+00 0. -1.
         -3    1    4    4    0  501  0.56743379629E+02  0.75186000419E+01  0.60796189509E+02  0.83501599608E+02  0.00000000000E+00 0.  1.
          5    1    3    3  502    0  0.47961126490E+02  0.18325960350E+02 -0.15922698233E+02  0.53960474386E+02  0.47000000000E+01 0. -1.
         11    1    6    6    0    0 -0.63905754369E+02 -0.31687598581E+02  0.39496233945E+03  0.40135183932E+03  0.00000000000E+00 0. -1.
        -12    1    6    6    0    0  0.11790655297E+02 -0.52309605857E+02  0.19281162217E+03  0.20012904852E+03  0.00000000000E+00 0.  1.
         -5    1    5    5    0  503 -0.41530675803E+02  0.13028809242E+02  0.33783619375E+02  0.55298913561E+02  0.47000000000E+01 0.  1.
<mgrwt>
<rscale>  2 0.21134334E+03</rscale>
<asrwt>0</asrwt>
<pdfrwt beam="1">  1       21 0.13144885E+00 0.21219303E+03</pdfrwt>
<pdfrwt beam="2">  1       21 0.10500660E-01 0.21219303E+03</pdfrwt>
<totfact> 0.30923301E+04</totfact>
</mgrwt>
</event>
<event>
12    1  0.1441827E-001  0.1999877E+03  0.7546771E-02  0.1149844E+00
         21   -1    0    0  504  503  0.00000000000E+00  0.00000000000E+00  0.85871481960E+03  0.85871481960E+03  0.00000000000E+00 0. -1.
         21   -1    0    0  502  504 -0.00000000000E+00 -0.00000000000E+00 -0.48012493184E+02  0.48012493184E+02  0.00000000000E+00 0. -1.
          6    2    1    2  502    0  0.80291465297E+02 -0.57545057386E+02  0.32455393596E+03  0.38122215155E+03  0.17388766045E+03 0.  0.
         24    2    3    3    0    0  0.86762125269E+02 -0.15961046173E+02  0.11067074459E+03  0.16318727136E+03  0.81238232686E+02 0.  0.
         -6    2    1    2    0  503 -0.80291465297E+02  0.57545057386E+02  0.48614839046E+03  0.52550516123E+03  0.17337030862E+03 0.  0.
        -24    2    5    5    0    0 -0.68063456717E+02  0.99722150226E+02  0.43183084526E+03  0.45549861104E+03  0.80149637268E+02 0.  0.
          4    1    4    4  501    0  0.86257489878E+02  0.14509550188E+02  0.68203792385E+02  0.11091726152E+03  0.00000000000E+00 0. -1.
         -3    1    4    4    0  501  0.50463539048E+00 -0.30470596361E+02  0.42466952206E+02  0.52270009844E+02  0.00000000000E+00 0.  1.
          5    1    3    3  502    0 -0.64706599713E+01 -0.41584011213E+02  0.21388319137E+03  0.21803488019E+03  0.47000000000E+01 0. -1.
         11    1    6    6    0    0 -0.64733943295E+02  0.27177880193E+02  0.25090009219E+03  0.26053786068E+03  0.00000000000E+00 0. -1.
        -12    1    6    6    0    0 -0.33295134223E+01  0.72544270033E+02  0.18093075307E+03  0.19496075036E+03  0.00000000000E+00 0.  1.
         -5    1    5    5    0  503 -0.12228008580E+02 -0.42177092839E+02  0.54317545199E+02  0.70006550198E+02  0.47000000000E+01 0.  1.
<mgrwt>
<rscale>  2 0.19987517E+03</rscale>
<asrwt>0</asrwt>
<pdfrwt beam="1">  1       21 0.13210996E+00 0.19998768E+03</pdfrwt>
<pdfrwt beam="2">  1       21 0.73865380E-02 0.19998768E+03</pdfrwt>
<totfact> 0.56981644E+04</totfact>
</mgrwt>
</event>
<event>
12    1  0.1441827E-001  0.2105581E+03  0.7546771E-02  0.1141506E+00
         21   -1    0    0  504  503  0.00000000000E+00  0.00000000000E+00  0.65439600858E+02  0.65439600858E+02  0.00000000000E+00 0.  1.
         21   -1    0    0  502  504 -0.00000000000E+00 -0.00000000000E+00 -0.14231378612E+04  0.14231378612E+04  0.00000000000E+00 0.  1.
          6    2    1    2  502    0 -0.78510963670E+02 -0.94782996478E+02 -0.12183493867E+04  0.12360842095E+04  0.16846708017E+03 0.  0.
         24    2    3    3    0    0 -0.34147009659E+01 -0.92177609926E+01 -0.73526262345E+03  0.73974181859E+03  0.80685844082E+02 0.  0.
         -6    2    1    2    0  503  0.78510963670E+02  0.94782996478E+02 -0.13934887362E+03  0.25249325253E+03  0.17084187471E+03 0.  0.
        -24    2    5    5    0    0  0.42026861721E+02  0.60732310711E+02 -0.16230092108E+03  0.19736226869E+03  0.84590811841E+02 0.  0.
          4    1    4    4  501    0 -0.23459997297E+02  0.26663962259E+02 -0.22059714035E+03  0.22343776916E+03  0.00000000000E+00 0. -1.
         -3    1    4    4    0  501  0.20045296331E+02 -0.35881723252E+02 -0.51466548310E+03  0.51630404943E+03  0.00000000000E+00 0.  1.
          5    1    3    3  502    0 -0.75096262704E+02 -0.85565235486E+02 -0.48308676322E+03  0.49634239089E+03  0.47000000000E+01 0. -1.
         13    1    6    6    0    0  0.17202715409E+02 -0.14563350062E+02 -0.80582900494E+01  0.23936595852E+02  0.00000000000E+00 0. -1.
        -14    1    6    6    0    0  0.24824146312E+02  0.75295660773E+02 -0.15424263103E+03  0.17342567284E+03  0.00000000000E+00 0.  1.
         -5    1    5    5    0  503  0.36484101949E+02  0.34050685768E+02  0.22952047458E+02  0.55130983836E+02  0.47000000000E+01 0.  1.
<mgrwt>
<rscale>  2 0.21007594E+03</rscale>
<asrwt>0</asrwt>
<pdfrwt beam="1">  1       21 0.10067631E-01 0.21055815E+03</pdfrwt>
<pdfrwt beam="2">  1       21 0.21894429E+00 0.21055815E+03</pdfrwt>
<totfact> 0.80588723E+03</totfact>
</mgrwt>
</event>
<event>
12    1  0.1441827E-001  0.2049485E+03  0.7546771E-02  0.1145847E+00
         21   -1    0    0  504  503  0.00000000000E+00  0.00000000000E+00  0.73971845704E+02  0.73971845704E+02  0.00000000000E+00 0. -1.
         21   -1    0    0  502  504 -0.00000000000E+00 -0.00000000000E+00 -0.58821376976E+03  0.58821376976E+03  0.00000000000E+00 0. -1.
          6    2    1    2  502    0  0.31316949020E+02 -0.10438807938E+03 -0.19057710204E+03  0.27908929483E+03  0.17231825282E+03 0.  0.
         24    2    3    3    0    0  0.32874930475E+01 -0.13629016458E+03 -0.16787956989E+03  0.23070891236E+03  0.80356926798E+02 0.  0.
         -6    2    1    2    0  503 -0.31316949020E+02  0.10438807938E+03 -0.32366482201E+03  0.38309632063E+03  0.17356915470E+03 0.  0.
        -24    2    5    5    0    0 -0.69714876032E+01 -0.73025001565E+01 -0.18986054622E+03  0.20704757378E+03  0.81974036439E+02 0.  0.
          2    1    4    4  501    0 -0.20622086235E+02 -0.87915610981E+01 -0.58873050807E+01  0.23178057476E+02  0.00000000000E+00 0. -1.
         -1    1    4    4    0  501  0.23909579283E+02 -0.12749860348E+03 -0.16199226481E+03  0.20753085488E+03  0.00000000000E+00 0.  1.
          5    1    3    3  502    0  0.28029455972E+02  0.31902085200E+02 -0.22697532152E+02  0.48380382471E+02  0.47000000000E+01 0. -1.
         13    1    6    6    0    0  0.46073022021E+01  0.14124885776E+02 -0.18025479796E+03  0.18086606044E+03  0.00000000000E+00 0. -1.
        -14    1    6    6    0    0 -0.11578789805E+02 -0.21427385933E+02 -0.96057482623E+01  0.26181513343E+02  0.00000000000E+00 0.  1.
         -5    1    5    5    0  503 -0.24345461417E+02  0.11169057953E+03 -0.13380427579E+03  0.17604874685E+03  0.47000000000E+01 0.  1.
<mgrwt>
<rscale>  2 0.20468338E+03</rscale>
<asrwt>0</asrwt>
<pdfrwt beam="1">  1       21 0.11380284E-01 0.20494847E+03</pdfrwt>
<pdfrwt beam="2">  1       21 0.90494427E-01 0.20494847E+03</pdfrwt>
<totfact> 0.66531187E+04</totfact>
</mgrwt>
</event>
<event>
12    1  0.1441827E-001  0.2097946E+03  0.7546771E-02  0.1142015E+00
         21   -1    0    0  504  503  0.00000000000E+00  0.00000000000E+00  0.42967207057E+03  0.42967207057E+03  0.00000000000E+00 0. -1.
         21   -1    0    0  502  504 -0.00000000000E+00 -0.00000000000E+00 -0.13356026176E+03  0.13356026176E+03  0.00000000000E+00 0. -1.
          6    2    1    2  502    0 -0.10542877817E+03 -0.48835622066E+02  0.10199561987E+02  0.20860637978E+03  0.17295214764E+03 0.  0.
         24    2    3    3    0    0  0.11549078788E+02 -0.22394902028E+01  0.11657473329E+02  0.82593546993E+02  0.80916010673E+02 0.  0.
         -6    2    1    2    0  503  0.10542877817E+03  0.48835622066E+02  0.28591224682E+03  0.35462595254E+03  0.17468144746E+03 0.  0.
        -24    2    5    5    0    0  0.11643037756E+03  0.21847484619E+02  0.12223396535E+03  0.18830678775E+03  0.80529240811E+02 0.  0.
          4    1    4    4  501    0  0.27265602597E+01  0.26604097745E+02 -0.23969467652E+02  0.35913055108E+02  0.00000000000E+00 0. -1.
         -3    1    4    4    0  501  0.88225185286E+01 -0.28843587948E+02  0.35626940982E+02  0.46680491885E+02  0.00000000000E+00 0.  1.
          5    1    3    3  502    0 -0.11697785695E+03 -0.46596131863E+02 -0.14579113421E+01  0.12601283279E+03  0.47000000000E+01 0. -1.
         11    1    6    6    0    0  0.82476480393E+02  0.52047312356E+02  0.88730733234E+02  0.13185004953E+03  0.00000000000E+00 0. -1.
        -12    1    6    6    0    0  0.33953897165E+02 -0.30199827738E+02  0.33503232117E+02  0.56456738219E+02  0.00000000000E+00 0.  1.
         -5    1    5    5    0  503 -0.11001599392E+02  0.26988137447E+02  0.16367828147E+03  0.16631916479E+03  0.47000000000E+01 0.  1.
<mgrwt>
<rscale>  2 0.20943421E+03</rscale>
<asrwt>0</asrwt>
<pdfrwt beam="1">  1       21 0.66103395E-01 0.20979455E+03</pdfrwt>
<pdfrwt beam="2">  1       21 0.20547733E-01 0.20979455E+03</pdfrwt>
<totfact> 0.45714400E+04</totfact>
</mgrwt>
</event>
<event>
12    1  0.1441827E-001  0.1794956E+03  0.7546771E-02  0.1168366E+00
         21   -1    0    0  504  503  0.00000000000E+00  0.00000000000E+00  0.29237290738E+03  0.29237290738E+03  0.00000000000E+00 0. -1.
         21   -1    0    0  502  504 -0.00000000000E+00 -0.00000000000E+00 -0.36547006767E+03  0.36547006767E+03  0.00000000000E+00 0. -1.
          6    2    1    2  502    0  0.26197949171E+02 -0.38222880902E+02 -0.31153536086E+03  0.35939459429E+03  0.17309786878E+03 0.  0.
         24    2    3    3    0    0  0.49465210219E+02 -0.67391880043E+02 -0.13136408229E+03  0.17534032086E+03  0.80617823620E+02 0.  0.
         -6    2    1    2    0  503 -0.26197949171E+02  0.38222880902E+02  0.23843820057E+03  0.29844838075E+03  0.17341089734E+03 0.  0.
        -24    2    5    5    0    0 -0.56321951878E+02 -0.24323164727E+02  0.13219382607E+03  0.17144672534E+03  0.90305001936E+02 0.  0.
          4    1    4    4  501    0  0.60164729710E+02 -0.25070291377E+02 -0.10716123907E+03  0.12542665335E+03  0.00000000000E+00 0. -1.
         -3    1    4    4    0  501 -0.10699519491E+02 -0.42321588666E+02 -0.24202843221E+02  0.49913667512E+02  0.00000000000E+00 0.  1.
          5    1    3    3  502    0 -0.23267261047E+02  0.29168999141E+02 -0.18017127857E+03  0.18405427343E+03  0.47000000000E+01 0. -1.
         13    1    6    6    0    0 -0.54950740227E+02 -0.48699832723E+02  0.12667341549E+03  0.14641520328E+03  0.00000000000E+00 0. -1.
        -14    1    6    6    0    0 -0.13712116510E+01  0.24376667995E+02  0.55204105771E+01  0.25031522065E+02  0.00000000000E+00 0.  1.
         -5    1    5    5    0  503  0.30124002707E+02  0.62546045630E+02  0.10624437450E+03  0.12700165541E+03  0.47000000000E+01 0.  1.
<mgrwt>
<rscale>  2 0.17941992E+03</rscale>
<asrwt>0</asrwt>
<pdfrwt beam="1">  1       21 0.44980447E-01 0.17949557E+03</pdfrwt>
<pdfrwt beam="2">  1       21 0.56226164E-01 0.17949557E+03</pdfrwt>
<totfact> 0.14238756E+04</totfact>
</mgrwt>
</event>
<event>
12    1  0.1441827E-001  0.2117993E+03  0.7546771E-02  0.1140239E+00
         21   -1    0    0  504  503  0.00000000000E+00  0.00000000000E+00  0.98133942615E+02  0.98133942615E+02  0.00000000000E+00 0.  1.
         21   -1    0    0  502  504 -0.00000000000E+00 -0.00000000000E+00 -0.45858706021E+03  0.45858706021E+03  0.00000000000E+00 0.  1.
          6    2    1    2  502    0  0.10521631325E+03  0.62799868083E+02 -0.20081279964E+03  0.29186423434E+03  0.17275605571E+03 0.  0.
         24    2    3    3    0    0  0.13688860255E+03  0.64254589154E+02 -0.12970511421E+03  0.21386652251E+03  0.77771016869E+02 0.  0.
         -6    2    1    2    0  503 -0.10521631325E+03 -0.62799868083E+02 -0.15964031795E+03  0.26485676848E+03  0.17219111675E+03 0.  0.
        -24    2    5    5    0    0 -0.13093523431E+03 -0.72680248200E+02 -0.94785104824E+02  0.19423542977E+03  0.79477871252E+02 0.  0.
          2    1    4    4  501    0  0.82163092840E+02 -0.43571260701E+01 -0.62088395396E+02  0.10307631743E+03  0.00000000000E+00 0. -1.
         -1    1    4    4    0  501  0.54725509711E+02  0.68611715224E+02 -0.67616718810E+02  0.11079020508E+03  0.00000000000E+00 0.  1.
          5    1    3    3  502    0 -0.31672289298E+02 -0.14547210712E+01 -0.71107685436E+02  0.77997711831E+02  0.47000000000E+01 0. -1.
         13    1    6    6    0    0 -0.33069487978E+02 -0.11756536707E+02  0.12005186832E+02  0.37093553366E+02  0.00000000000E+00 0. -1.
        -14    1    6    6    0    0 -0.97865746332E+02 -0.60923711493E+02 -0.10679029166E+03  0.15714187640E+03  0.00000000000E+00 0.  1.
         -5    1    5    5    0  503  0.25718921056E+02  0.98803801170E+01 -0.64855213128E+02  0.70621338712E+02  0.47000000000E+01 0.  1.
<mgrwt>
<rscale>  2 0.21168409E+03</rscale>
<asrwt>0</asrwt>
<pdfrwt beam="1">  1       21 0.15097530E-01 0.21179932E+03</pdfrwt>
<pdfrwt beam="2">  1       21 0.70551855E-01 0.21179932E+03</pdfrwt>
<totfact> 0.69994388E+04</totfact>
</mgrwt>
</event>
<event>
12    1  0.1441827E-001  0.1956347E+03  0.7546771E-02  0.1153802E+00
         21   -1    0    0  504  503  0.00000000000E+00  0.00000000000E+00  0.15846215384E+03  0.15846215384E+03  0.00000000000E+00 0.  1.
         21   -1    0    0  502  504 -0.00000000000E+00 -0.00000000000E+00 -0.27383036667E+03  0.27383036667E+03  0.00000000000E+00 0.  1.
          6    2    1    2  502    0  0.58626807371E+02  0.68040899133E+02 -0.13382160841E+03  0.23578943140E+03  0.17210975156E+03 0.  0.
         24    2    3    3    0    0  0.76784698734E+02  0.35460961219E+02 -0.15535306804E+03  0.19246674535E+03  0.75865028738E+02 0.  0.
         -6    2    1    2    0  503 -0.58626807371E+02 -0.68040899133E+02  0.18453395589E+02  0.19650308912E+03  0.17379951014E+03 0.  0.
        -24    2    5    5    0    0  0.25854928471E+02 -0.51878814154E+02  0.42448499846E+02  0.10708143788E+03  0.79401955358E+02 0.  0.
          4    1    4    4  501    0  0.12297479939E+02  0.41692989642E+02 -0.35096814596E+02  0.55868772968E+02  0.00000000000E+00 0. -1.
         -3    1    4    4    0  501  0.64487218795E+02 -0.62320284227E+01 -0.12025625344E+03  0.13659797238E+03  0.00000000000E+00 0.  1.
          5    1    3    3  502    0 -0.18157891363E+02  0.32579937914E+02  0.21531459624E+02  0.43322686051E+02  0.47000000000E+01 0. -1.
         13    1    6    6    0    0 -0.11965274976E+01 -0.50479949841E+02  0.57150149114E+02  0.76261370023E+02  0.00000000000E+00 0. -1.
        -14    1    6    6    0    0  0.27051455969E+02 -0.13988643128E+01 -0.14701649268E+02  0.30820067855E+02  0.00000000000E+00 0.  1.
         -5    1    5    5    0  503 -0.84481735842E+02 -0.16162084979E+02 -0.23995104257E+02  0.89421651238E+02  0.47000000000E+01 0.  1.
<mgrwt>
<rscale>  2 0.19525872E+03</rscale>
<asrwt>0</asrwt>
<pdfrwt beam="1">  1       21 0.24378793E-01 0.19563470E+03</pdfrwt>
<pdfrwt beam="2">  1       21 0.42127749E-01 0.19563470E+03</pdfrwt>
<totfact> 0.86066924E+04</totfact>
</mgrwt>
</event>
<event>
12    1  0.1441827E-001  0.1922890E+03  0.7546771E-02  0.1156740E+00
         21   -1    0    0  504  503  0.00000000000E+00  0.00000000000E+00  0.25200245735E+03  0.25200245735E+03  0.00000000000E+00 0. -1.
         21   -1    0    0  502  504 -0.00000000000E+00 -0.00000000000E+00 -0.14667188294E+03  0.14667188294E+03  0.00000000000E+00 0. -1.
          6    2    1    2  502    0 -0.81040374667E+02 -0.19740199529E+01  0.69851897115E+02  0.20458338593E+03  0.17436638204E+03 0.  0.
         24    2    3    3    0    0 -0.75144294023E+02  0.33325343362E+02  0.10417307777E+03  0.15477533177E+03  0.79662599507E+02 0.  0.
         -6    2    1    2    0  503  0.81040374667E+02  0.19740199529E+01  0.35478677296E+02  0.19409095436E+03  0.17274583335E+03 0.  0.
        -24    2    5    5    0    0 -0.17032755398E+02 -0.86939593417E+01  0.47386800006E+02  0.94612122391E+02  0.79625656689E+02 0.  0.
          2    1    4    4  501    0 -0.73815045016E+02  0.54953372106E+02  0.90981161023E+02  0.12940674495E+03  0.00000000000E+00 0. -1.
         -1    1    4    4    0  501 -0.13292490066E+01 -0.21628028744E+02  0.13191916743E+02  0.25368586828E+02  0.00000000000E+00 0.  1.
          5    1    3    3  502    0 -0.58960806446E+01 -0.35299363315E+02 -0.34321180652E+02  0.49808054156E+02  0.47000000000E+01 0. -1.
         13    1    6    6    0    0  0.22179711861E+02 -0.28674610662E+02  0.12147676408E+02  0.38232694869E+02  0.00000000000E+00 0. -1.
        -14    1    6    6    0    0 -0.39212467259E+02  0.19980651321E+02  0.35239123598E+02  0.56379427522E+02  0.00000000000E+00 0.  1.
         -5    1    5    5    0  503  0.98073130065E+02  0.10667979295E+02 -0.11908122710E+02  0.99478831967E+02  0.47000000000E+01 0.  1.
<mgrwt>
<rscale>  2 0.19192091E+03</rscale>
<asrwt>0</asrwt>
<pdfrwt beam="1">  1       21 0.38769609E-01 0.19228904E+03</pdfrwt>
<pdfrwt beam="2">  1       21 0.22564905E-01 0.19228904E+03</pdfrwt>
<totfact> 0.11806695E+05</totfact>
</mgrwt>
</event>
<event>
12    1  0.1441827E-001  0.1738212E+03  0.7546771E-02  0.1177066E+00
         21   -1    0    0  504  503  0.00000000000E+00  0.00000000000E+00  0.35978692492E+03  0.35978692492E+03  0.00000000000E+00 0.  1.
         21   -1    0    0  502  504 -0.00000000000E+00 -0.00000000000E+00 -0.20701908476E+03  0.20701908476E+03  0.00000000000E+00 0.  1.
          6    2    1    2  502    0 -0.38090411214E+01  0.73626436244E+00 -0.14806293911E+03  0.21936828490E+03  0.16181705597E+03 0.  0.
         24    2    3    3    0    0  0.69274710351E+01 -0.20619869770E+02 -0.16850029213E+03  0.18756997430E+03  0.79479418254E+02 0.  0.
         -6    2    1    2    0  503  0.38090411214E+01 -0.73626436244E+00  0.30083077926E+03  0.34743772478E+03  0.17377791565E+03 0.  0.
        -24    2    5    5    0    0  0.26572619417E+02 -0.24901001103E+02  0.66276843827E+02  0.11049943402E+03  0.80568858331E+02 0.  0.
          4    1    4    4  501    0  0.69248556479E+01  0.26213761929E+02 -0.10633621951E+03  0.10973835483E+03  0.00000000000E+00 0. -1.
         -3    1    4    4    0  501  0.26153871788E-02 -0.46833631698E+02 -0.62164072617E+02  0.77831619469E+02  0.00000000000E+00 0.  1.
          5    1    3    3  502    0 -0.10736512157E+02  0.21356134132E+02  0.20437353025E+02  0.31798310600E+02  0.47000000000E+01 0. -1.
         13    1    6    6    0    0  0.32065417015E+02  0.22764980425E+02  0.38621797634E+02  0.55118767716E+02  0.00000000000E+00 0. -1.
        -14    1    6    6    0    0 -0.54927975973E+01 -0.47665981528E+02  0.27655046194E+02  0.55380666306E+02  0.00000000000E+00 0.  1.
         -5    1    5    5    0  503 -0.22763578296E+02  0.24164736741E+02  0.23455393543E+03  0.23693829076E+03  0.47000000000E+01 0.  1.
<mgrwt>
<rscale>  2 0.17075143E+03</rscale>
<asrwt>0</asrwt>
<pdfrwt beam="1">  1       21 0.55351835E-01 0.17382122E+03</pdfrwt>
<pdfrwt beam="2">  1       21 0.31849090E-01 0.17382122E+03</pdfrwt>
<totfact> 0.29477504E+04</totfact>
</mgrwt>
</event>
<event>
12    1  0.1441827E-001  0.2472336E+03  0.7546771E-02  0.1115383E+00
         21   -1    0    0  504  503  0.00000000000E+00  0.00000000000E+00  0.11107059937E+04  0.11107059937E+04  0.00000000000E+00 0. -1.
         21   -1    0    0  502  504 -0.00000000000E+00 -0.00000000000E+00 -0.62087889514E+02  0.62087889514E+02  0.00000000000E+00 0.  1.
          6    2    1    2  502    0  0.93482314435E+02 -0.15292094355E+03  0.31874769260E+03  0.40218680027E+03  0.16742273647E+03 0.  0.
         24    2    3    3    0    0  0.57171941053E+02 -0.42787066408E+02  0.23717800773E+03  0.26032906309E+03  0.80115228513E+02 0.  0.
         -6    2    1    2    0  503 -0.93482314435E+02  0.15292094355E+03  0.72987041161E+03  0.77060708296E+03  0.17029592034E+03 0.  0.
        -24    2    5    5    0    0 -0.51314385713E+02  0.17499698822E+03  0.60029802460E+03  0.63248909198E+03  0.80172445760E+02 0.  0.
          2    1    4    4  501    0 -0.49593681143E+01  0.18487712064E+02  0.30841741711E+02  0.36298813496E+02  0.00000000000E+00 0. -1.
         -1    1    4    4    0  501  0.62131309168E+02 -0.61274778472E+02  0.20633626602E+03  0.22403024959E+03  0.00000000000E+00 0.  1.
          5    1    3    3  502    0  0.36310373382E+02 -0.11013387714E+03  0.81569684866E+02  0.14185773718E+03  0.47000000000E+01 0. -1.
         13    1    6    6    0    0 -0.22693759621E+02  0.70442358316E+02  0.12749200844E+03  0.14741555138E+03  0.00000000000E+00 0. -1.
        -14    1    6    6    0    0 -0.28620626091E+02  0.10455462990E+03  0.47280601616E+03  0.48507354060E+03  0.00000000000E+00 0.  1.
         -5    1    5    5    0  503 -0.42167928722E+02 -0.22076044664E+02  0.12957238700E+03  0.13811799099E+03  0.47000000000E+01 0.  1.
<mgrwt>
<rscale>  2 0.24673958E+03</rscale>
<asrwt>0</asrwt>
<pdfrwt beam="1">  1       21 0.17087783E+00 0.24723361E+03</pdfrwt>
<pdfrwt beam="2">  1       21 0.95519839E-02 0.24723361E+03</pdfrwt>
<totfact> 0.17858251E+04</totfact>
</mgrwt>
</event>
<event>
12    1  0.1441827E-001  0.1738165E+03  0.7546771E-02  0.1174004E+00
         21   -1    0    0  504  503  0.00000000000E+00  0.00000000000E+00  0.67213849619E+03  0.67213849619E+03  0.00000000000E+00 0.  1.
         21   -1    0    0  502  504 -0.00000000000E+00 -0.00000000000E+00 -0.16739977782E+03  0.16739977782E+03  0.00000000000E+00 0.  1.
          6    2    1    2  502    0 -0.48144679849E+01 -0.15093309369E+02 -0.10682419617E+03  0.20375420638E+03  0.17278130871E+03 0.  0.
         24    2    3    3    0    0 -0.57549176817E+02 -0.55240314538E+01 -0.15029563510E+02  0.97354651961E+02  0.76874038552E+02 0.  0.
         -6    2    1    2    0  503  0.48144679849E+01  0.15093309369E+02  0.61156291454E+03  0.63578406763E+03  0.17309302447E+03 0.  0.
        -24    2    5    5    0    0 -0.29029226545E+02  0.24253285563E+02  0.15652850840E+03  0.17937668206E+03  0.79018366685E+02 0.  0.
          2    1    4    4  501    0 -0.43153021534E+02  0.28949191394E+02 -0.26425097044E+02  0.58296867014E+02  0.00000000000E+00 0. -1.
         -1    1    4    4    0  501 -0.14396155283E+02 -0.34473222848E+02  0.11395533534E+02  0.39057784947E+02  0.00000000000E+00 0.  1.
          5    1    3    3  502    0  0.52734708833E+02 -0.95692779151E+01 -0.91794632656E+02  0.10639955442E+03  0.47000000000E+01 0. -1.
         13    1    6    6    0    0  0.17256144477E+02 -0.16277299092E+02  0.26745636291E+02  0.35749881798E+02  0.00000000000E+00 0. -1.
        -14    1    6    6    0    0 -0.46285371022E+02  0.40530584655E+02  0.12978287210E+03  0.14362680027E+03  0.00000000000E+00 0.  1.
         -5    1    5    5    0  503  0.33843694530E+02 -0.91599761941E+01  0.45503440615E+03  0.45640738557E+03  0.47000000000E+01 0.  1.
<mgrwt>
<rscale>  2 0.17373886E+03</rscale>
<asrwt>0</asrwt>
<pdfrwt beam="1">  1       21 0.10340592E+00 0.17381652E+03</pdfrwt>
<pdfrwt beam="2">  1       21 0.25753812E-01 0.17381652E+03</pdfrwt>
<totfact> 0.10992402E+04</totfact>
</mgrwt>
</event>
<event>
12    1  0.1441827E-001  0.2035255E+03  0.7546771E-02  0.1147098E+00
         21   -1    0    0  504  503  0.00000000000E+00  0.00000000000E+00  0.11905978546E+03  0.11905978546E+03  0.00000000000E+00 0. -1.
         21   -1    0    0  502  504 -0.00000000000E+00 -0.00000000000E+00 -0.37578237129E+03  0.37578237129E+03  0.00000000000E+00 0. -1.
          6    2    1    2  502    0  0.28628262640E+02  0.10222105115E+03 -0.19908848712E+03  0.28470839858E+03  0.17364885775E+03 0.  0.
         24    2    3    3    0    0  0.75625235163E+02  0.81409852895E+02 -0.18891920085E+03  0.23210302069E+03  0.76384602004E+02 0.  0.
         -6    2    1    2    0  503 -0.28628262640E+02 -0.10222105115E+03 -0.57634098703E+02  0.21013375817E+03  0.17194704495E+03 0.  0.
        -24    2    5    5    0    0  0.34813108330E+02 -0.10504964195E+03 -0.51843985778E+02  0.14619297397E+03  0.80232206692E+02 0.  0.
          4    1    4    4  501    0  0.64777760093E+02  0.95604186640E+02 -0.17395989771E+03  0.20880221435E+03  0.00000000000E+00 0. -1.
         -3    1    4    4    0  501  0.10847475070E+02 -0.14194333745E+02 -0.14959303140E+02  0.23300806345E+02  0.00000000000E+00 0.  1.
          5    1    3    3  502    0 -0.46996972523E+02  0.20811198255E+02 -0.10169286273E+02  0.52605377885E+02  0.47000000000E+01 0. -1.
         11    1    6    6    0    0 -0.12718875777E+02 -0.38091813353E+02  0.12294560718E+02  0.41998955568E+02  0.00000000000E+00 0. -1.
        -12    1    6    6    0    0  0.47531984107E+02 -0.66957828598E+02 -0.64138546496E+02  0.10419401840E+03  0.00000000000E+00 0.  1.
         -5    1    5    5    0  503 -0.63441370970E+02  0.28285908006E+01 -0.57901129252E+01  0.63940784200E+02  0.47000000000E+01 0.  1.
<mgrwt>
<rscale>  2 0.20316206E+03</rscale>
<asrwt>0</asrwt>
<pdfrwt beam="1">  1       21 0.18316890E-01 0.20352554E+03</pdfrwt>
<pdfrwt beam="2">  1       21 0.57812673E-01 0.20352554E+03</pdfrwt>
<totfact> 0.75902008E+04</totfact>
</mgrwt>
</event>
<event>
12    1  0.1441827E-001  0.2078781E+03  0.7546771E-02  0.1143618E+00
         21   -1    0    0  504  503  0.00000000000E+00  0.00000000000E+00  0.77280623278E+02  0.77280623278E+02  0.00000000000E+00 0.  1.
         21   -1    0    0  502  504 -0.00000000000E+00 -0.00000000000E+00 -0.55514715110E+03  0.55514715110E+03  0.00000000000E+00 0.  1.
          6    2    1    2  502    0 -0.11136389337E+03  0.12245967852E+02 -0.22611280569E+03  0.30594158415E+03  0.17297795104E+03 0.  0.
         24    2    3    3    0    0 -0.13880856757E+03  0.13022829084E+02 -0.22639897017E+03  0.27808506704E+03  0.81470229594E+02 0.  0.
         -6    2    1    2    0  503  0.11136389337E+03 -0.12245967852E+02 -0.25175372213E+03  0.32648619022E+03  0.17510401287E+03 0.  0.
        -24    2    5    5    0    0  0.68094124426E+02  0.31511528876E+02 -0.58148715172E+02  0.12328190841E+03  0.78659834939E+02 0.  0.
          2    1    4    4  501    0 -0.10648092605E+03 -0.26653516450E+02 -0.16464289683E+03  0.19787845014E+03  0.00000000000E+00 0. -1.
         -1    1    4    4    0  501 -0.32327641516E+02  0.39676345535E+02 -0.61756073341E+02  0.80206616906E+02  0.00000000000E+00 0.  1.
          5    1    3    3  502    0  0.27444674202E+02 -0.77686123234E+00  0.28616448301E+00  0.27856517111E+02  0.47000000000E+01 0. -1.
         13    1    6    6    0    0  0.11417255579E+02 -0.23612602705E+02 -0.28785650810E+02  0.38942552870E+02  0.00000000000E+00 0. -1.
        -14    1    6    6    0    0  0.56676868847E+02  0.55124131581E+02 -0.29363064361E+02  0.84339355544E+02  0.00000000000E+00 0.  1.
         -5    1    5    5    0  503  0.43269768941E+02 -0.43757496728E+02 -0.19360500696E+03  0.20320428181E+03  0.47000000000E+01 0.  1.
<mgrwt>
<rscale>  2 0.20742971E+03</rscale>
<asrwt>0</asrwt>
<pdfrwt beam="1">  1       21 0.11889326E-01 0.20787808E+03</pdfrwt>
<pdfrwt beam="2">  1       21 0.85407255E-01 0.20787808E+03</pdfrwt>
<totfact> 0.70219113E+04</totfact>
</mgrwt>
</event>
<event>
12    1  0.1441827E-001  0.2205391E+03  0.7546771E-02  0.1133732E+00
         21   -1    0    0  504  503  0.00000000000E+00  0.00000000000E+00  0.10022888651E+04  0.10022888651E+04  0.00000000000E+00 0. -1.
         21   -1    0    0  502  504 -0.00000000000E+00 -0.00000000000E+00 -0.15619494146E+03  0.15619494146E+03  0.00000000000E+00 0. -1.
          6    2    1    2  502    0 -0.12813887996E+03 -0.46423780041E+02 -0.58928657713E+02  0.22697784292E+03  0.17167298730E+03 0.  0.
         24    2    3    3    0    0 -0.92550794211E+02 -0.44605389535E+02  0.27772814381E+02  0.13312128399E+03  0.79966597708E+02 0.  0.
         -6    2    1    2    0  503  0.12813887996E+03  0.46423780041E+02  0.90502258138E+03  0.93150596366E+03  0.17338612293E+03 0.  0.
        -24    2    5    5    0    0  0.11159255647E+03 -0.31040179640E+02  0.64032275898E+03  0.65516825026E+03  0.76261452055E+02 0.  0.
          2    1    4    4  501    0 -0.82725513016E+02 -0.18839168113E+02 -0.10987918925E+02  0.85552084261E+02  0.00000000000E+00 0. -1.
         -1    1    4    4    0  501 -0.98252811940E+01 -0.25766221421E+02  0.38760733305E+02  0.47569199733E+02  0.00000000000E+00 0.  1.
          5    1    3    3  502    0 -0.35588085746E+02 -0.18183905065E+01 -0.86701472093E+02  0.93856558930E+02  0.47000000000E+01 0. -1.
         13    1    6    6    0    0  0.46494531155E+02 -0.51567639868E+02  0.36191161538E+03  0.36851184547E+03  0.00000000000E+00 0. -1.
        -14    1    6    6    0    0  0.65098025317E+02  0.20527460228E+02  0.27841114360E+03  0.28665640479E+03  0.00000000000E+00 0.  1.
         -5    1    5    5    0  503  0.16546323485E+02  0.77463959681E+02  0.26469982240E+03  0.27633771340E+03  0.47000000000E+01 0.  1.
<mgrwt>
<rscale>  2 0.22020224E+03</rscale>
<asrwt>0</asrwt>
<pdfrwt beam="1">  1       21 0.15419828E+00 0.22053908E+03</pdfrwt>
<pdfrwt beam="2">  1       21 0.24029992E-01 0.22053908E+03</pdfrwt>
<totfact> 0.44348320E+03</totfact>
</mgrwt>
</event>
<event>
12    1  0.1441827E-001  0.1914678E+03  0.7546771E-02  0.1157389E+00
         21   -1    0    0  504  503  0.00000000000E+00  0.00000000000E+00  0.81308679902E+03  0.81308679902E+03  0.00000000000E+00 0. -1.
         21   -1    0    0  502  504 -0.00000000000E+00 -0.00000000000E+00 -0.62121510466E+02  0.62121510466E+02  0.00000000000E+00 0. -1.
          6    2    1    2  502    0 -0.66327166131E+02 -0.42353214189E+02  0.14538704106E+03  0.24041073682E+03  0.17454753780E+03 0.  0.
         24    2    3    3    0    0 -0.51092533179E+01 -0.45652617421E+02  0.17521821852E+02  0.98530071490E+02  0.85386736675E+02 0.  0.
         -6    2    1    2    0  503  0.66327166131E+02  0.42353214189E+02  0.60557824749E+03  0.63479757266E+03  0.17334894493E+03 0.  0.
        -24    2    5    5    0    0  0.94025861027E+02 -0.97302167525E+01  0.48262792574E+03  0.49834694754E+03  0.80525932229E+02 0.  0.
          4    1    4    4  501    0 -0.34054367005E+02 -0.53525487302E+02 -0.67798072282E+00  0.63443970249E+02  0.00000000000E+00 0. -1.
         -3    1    4    4    0  501  0.28945113687E+02  0.78728698816E+01  0.18199802575E+02  0.35086101241E+02  0.00000000000E+00 0.  1.
          5    1    3    3  502    0 -0.61217912813E+02  0.32994032320E+01  0.12786521921E+03  0.14188066533E+03  0.47000000000E+01 0. -1.
         11    1    6    6    0    0  0.48523349245E+02  0.14342620614E+02  0.38179825026E+03  0.38513650838E+03  0.00000000000E+00 0. -1.
        -12    1    6    6    0    0  0.45502511782E+02 -0.24072837367E+02  0.10082967548E+03  0.11321043916E+03  0.00000000000E+00 0.  1.
         -5    1    5    5    0  503 -0.27698694896E+02  0.52083430941E+02  0.12295032175E+03  0.13645062512E+03  0.47000000000E+01 0.  1.
<mgrwt>
<rscale>  2 0.19119424E+03</rscale>
<asrwt>0</asrwt>
<pdfrwt beam="1">  1       21 0.12509027E+00 0.19146783E+03</pdfrwt>
<pdfrwt beam="2">  1       21 0.95571560E-02 0.19146783E+03</pdfrwt>
<totfact> 0.41880522E+04</totfact>
</mgrwt>
</event>
<event>
12    1  0.1441827E-001  0.1957808E+03  0.7546771E-02  0.1153424E+00
         21   -1    0    0  504  503  0.00000000000E+00  0.00000000000E+00  0.95251207863E+03  0.95251207863E+03  0.00000000000E+00 0. -1.
         21   -1    0    0  502  504 -0.00000000000E+00 -0.00000000000E+00 -0.50690735460E+02  0.50690735460E+02  0.00000000000E+00 0. -1.
          6    2    1    2  502    0 -0.71219410289E+02  0.53817284652E+02  0.22270504989E+03  0.29652596714E+03  0.17424581892E+03 0.  0.
         24    2    3    3    0    0 -0.51475227994E+02  0.26156679276E+02  0.23977142025E+03  0.25820765791E+03  0.76465611026E+02 0.  0.
         -6    2    1    2    0  503  0.71219410289E+02 -0.53817284652E+02  0.67911629328E+03  0.70667684696E+03  0.17385258610E+03 0.  0.
        -24    2    5    5    0    0 -0.21504445409E+02 -0.17548318042E+02  0.18155403269E+03  0.19922887472E+03  0.77200343913E+02 0.  0.
          2    1    4    4  501    0 -0.23631747223E+02 -0.16498013580E+02  0.16646255352E+03  0.16893911819E+03  0.00000000000E+00 0. -1.
         -1    1    4    4    0  501 -0.27843480771E+02  0.42654692857E+02  0.73308866725E+02  0.89268539725E+02  0.00000000000E+00 0.  1.
          5    1    3    3  502    0 -0.19744182294E+02  0.27660605376E+02 -0.17066370360E+02  0.38318309221E+02  0.47000000000E+01 0. -1.
         13    1    6    6    0    0  0.44642031503E+01 -0.41714240238E+02  0.13037104926E+03  0.13695480069E+03  0.00000000000E+00 0. -1.
        -14    1    6    6    0    0 -0.25968648559E+02  0.24165922196E+02  0.51182983427E+02  0.62274074028E+02  0.00000000000E+00 0.  1.
         -5    1    5    5    0  503  0.92723855697E+02 -0.36268966610E+02  0.49756226060E+03  0.50744797223E+03  0.47000000000E+01 0.  1.
<mgrwt>
<rscale>  2 0.19569324E+03</rscale>
<asrwt>0</asrwt>
<pdfrwt beam="1">  1       21 0.14654031E+00 0.19578077E+03</pdfrwt>
<pdfrwt beam="2">  1       21 0.77985754E-02 0.19578077E+03</pdfrwt>
<totfact> 0.39790235E+04</totfact>
</mgrwt>
</event>
<event>
12    1  0.1441827E-001  0.1904394E+03  0.7546771E-02  0.1160111E+00
         21   -1    0    0  504  503  0.00000000000E+00  0.00000000000E+00  0.13283564519E+03  0.13283564519E+03  0.00000000000E+00 0.  1.
         21   -1    0    0  502  504 -0.00000000000E+00 -0.00000000000E+00 -0.33233725192E+03  0.33233725192E+03  0.00000000000E+00 0.  1.
          6    2    1    2  502    0 -0.95415479352E+01  0.58196664554E+02  0.65285971566E+01  0.19055123837E+03  0.18107804660E+03 0.  0.
         24    2    3    3    0    0 -0.65623799722E+02  0.82967659950E+02  0.41051430496E+01  0.12901438511E+03  0.73741058300E+02 0.  0.
         -6    2    1    2    0  503  0.95415479352E+01 -0.58196664554E+02 -0.20603020389E+03  0.27462165874E+03  0.17172861623E+03 0.  0.
        -24    2    5    5    0    0  0.36532866961E+02 -0.57362746345E+02 -0.21985210082E+03  0.24392375071E+03  0.80862320596E+02 0.  0.
          2    1    4    4  501    0 -0.70569912801E+02  0.33175260213E+02  0.10054663202E+02  0.78624466516E+02  0.00000000000E+00 0. -1.
         -1    1    4    4    0  501  0.49461130788E+01  0.49792399738E+02 -0.59495201521E+01  0.50389918597E+02  0.00000000000E+00 0.  1.
          5    1    3    3  502    0  0.56082251787E+02 -0.24770995396E+02  0.24234541070E+01  0.61536853252E+02  0.47000000000E+01 0. -1.
         13    1    6    6    0    0  0.22517878338E+02  0.17140900465E+01 -0.86756767658E+01  0.24192154035E+02  0.00000000000E+00 0. -1.
        -14    1    6    6    0    0  0.14014988624E+02 -0.59076836391E+02 -0.21117642405E+03  0.21973159668E+03  0.00000000000E+00 0.  1.
         -5    1    5    5    0  503 -0.26991319026E+02 -0.83391820926E+00  0.13821896929E+02  0.30697908024E+02  0.47000000000E+01 0.  1.
<mgrwt>
<rscale>  2 0.18818289E+03</rscale>
<asrwt>0</asrwt>
<pdfrwt beam="1">  1       21 0.20436253E-01 0.19043937E+03</pdfrwt>
<pdfrwt beam="2">  1       21 0.51128807E-01 0.19043937E+03</pdfrwt>
<totfact> 0.80704615E+04</totfact>
</mgrwt>
</event>
<event>
12    1  0.1441827E-001  0.2148205E+03  0.7546771E-02  0.1139948E+00
         21   -1    0    0  504  503  0.00000000000E+00  0.00000000000E+00  0.70082023229E+03  0.70082023229E+03  0.00000000000E+00 0.  1.
         21   -1    0    0  502  504 -0.00000000000E+00 -0.00000000000E+00 -0.12787957610E+03  0.12787957610E+03  0.00000000000E+00 0.  1.
          6    2    1    2  502    0 -0.23015513769E+02  0.10698024185E+03 -0.13230630409E+02  0.20440451460E+03  0.17213851977E+03 0.  0.
         24    2    3    3    0    0 -0.65922001820E+02  0.95059276276E+02 -0.46984947796E+02  0.14832849407E+03  0.80073594290E+02 0.  0.
         -6    2    1    2    0  503  0.23015513769E+02 -0.10698024185E+03  0.58617128660E+03  0.62429529379E+03  0.18486035430E+03 0.  0.
        -24    2    5    5    0    0 -0.56240316565E+02 -0.32465023373E+02  0.33036688202E+03  0.34628092756E+03  0.80939811624E+02 0.  0.
          2    1    4    4  501    0 -0.62227730393E+02  0.28060798844E+02 -0.34630944655E+01  0.68349776041E+02  0.00000000000E+00 0. -1.
         -1    1    4    4    0  501 -0.36942714268E+01  0.66998477432E+02 -0.43521853330E+02  0.79978718025E+02  0.00000000000E+00 0.  1.
          5    1    3    3  502    0  0.42906488051E+02  0.11920965579E+02  0.33754317387E+02  0.56076020539E+02  0.47000000000E+01 0. -1.
         13    1    6    6    0    0 -0.32900140383E+02  0.57597113672E-02  0.28020605936E+03  0.28213091814E+03  0.00000000000E+00 0. -1.
        -14    1    6    6    0    0 -0.23340176182E+02 -0.32470783084E+02  0.50160822667E+02  0.64150009422E+02  0.00000000000E+00 0.  1.
         -5    1    5    5    0  503  0.79255830333E+02 -0.74515218482E+02  0.25580440458E+03  0.27801436623E+03  0.47000000000E+01 0.  1.
<mgrwt>
<rscale>  2 0.21205643E+03</rscale>
<asrwt>0</asrwt>
<pdfrwt beam="1">  1       21 0.10781849E+00 0.21482048E+03</pdfrwt>
<pdfrwt beam="2">  1       21 0.19673782E-01 0.21482048E+03</pdfrwt>
<totfact> 0.16086601E+04</totfact>
</mgrwt>
</event>
<event>
12    1  0.1441827E-001  0.2310191E+03  0.7546771E-02  0.1125997E+00
         21   -1    0    0  504  503  0.00000000000E+00  0.00000000000E+00  0.28267487184E+03  0.28267487184E+03  0.00000000000E+00 0. -1.
         21   -1    0    0  502  504 -0.00000000000E+00 -0.00000000000E+00 -0.14475984116E+04  0.14475984116E+04  0.00000000000E+00 0. -1.
          6    2    1    2  502    0 -0.11397918252E+03  0.10191519961E+03 -0.13892507564E+04  0.14082600179E+04  0.17262865368E+03 0.  0.
         24    2    3    3    0    0 -0.12514237770E+03  0.27636914970E+02 -0.82535251503E+03  0.83936178706E+03  0.83048309771E+02 0.  0.
         -6    2    1    2    0  503  0.11397918252E+03 -0.10191519961E+03  0.22432721660E+03  0.32201326552E+03  0.17318164193E+03 0.  0.
        -24    2    5    5    0    0  0.14383812263E+03 -0.92113451850E+02  0.22001203329E+03  0.28994550334E+03  0.80553128934E+02 0.  0.
          2    1    4    4  501    0 -0.67627173436E+02 -0.22696250454E+02 -0.50528399469E+03  0.51029449307E+03  0.00000000000E+00 0. -1.
         -1    1    4    4    0  501 -0.57515204265E+02  0.50333165423E+02 -0.32006852034E+03  0.32906729399E+03  0.00000000000E+00 0.  1.
          5    1    3    3  502    0  0.11163195182E+02  0.74278284640E+02 -0.56389824132E+03  0.56889823085E+03  0.47000000000E+01 0. -1.
         13    1    6    6    0    0  0.12292878000E+03 -0.10716593260E+03  0.19002804294E+03  0.25041301716E+03  0.00000000000E+00 0. -1.
        -14    1    6    6    0    0  0.20909342636E+02  0.15052480747E+02  0.29983990353E+02  0.39532486181E+02  0.00000000000E+00 0.  1.
         -5    1    5    5    0  503 -0.29858940116E+02 -0.98017477594E+01  0.43151833112E+01  0.32067762176E+02  0.47000000000E+01 0.  1.
<mgrwt>
<rscale>  2 0.23091551E+03</rscale>
<asrwt>0</asrwt>
<pdfrwt beam="1">  1       21 0.43488442E-01 0.23101914E+03</pdfrwt>
<pdfrwt beam="2">  1       21 0.22270745E+00 0.23101914E+03</pdfrwt>
<totfact> 0.47037650E+02</totfact>
</mgrwt>
</event>
<event>
12    1  0.1441827E-001  0.2094490E+03  0.7546771E-02  0.1142360E+00
         21   -1    0    0  504  503  0.00000000000E+00  0.00000000000E+00  0.77532814404E+03  0.77532814404E+03  0.00000000000E+00 0. -1.
         21   -1    0    0  502  504 -0.00000000000E+00 -0.00000000000E+00 -0.17425790037E+03  0.17425790037E+03  0.00000000000E+00 0. -1.
          6    2    1    2  502    0 -0.25796051777E+02 -0.11375656189E+03 -0.90847280222E+02  0.22666229781E+03  0.17180389188E+03 0.  0.
         24    2    3    3    0    0  0.19999336517E+02 -0.10651415857E+02 -0.35771006537E+02  0.10103039641E+03  0.91728675824E+02 0.  0.
         -6    2    1    2    0  503  0.25796051777E+02  0.11375656189E+03  0.69191752389E+03  0.72292374660E+03  0.17396232887E+03 0.  0.
        -24    2    5    5    0    0  0.39831726389E+01  0.10228386242E+03  0.68445056993E+03  0.69674608569E+03  0.80651540993E+02 0.  0.
          4    1    4    4  501    0 -0.91128018762E+01 -0.17932558697E+02  0.25693819261E+02  0.32631153330E+02  0.00000000000E+00 0. -1.
         -3    1    4    4    0  501  0.29112138393E+02  0.72811428405E+01 -0.61464825798E+02  0.68399243076E+02  0.00000000000E+00 0.  1.
          5    1    3    3  502    0 -0.45795388294E+02 -0.10310514603E+03 -0.55076273685E+02  0.12563190140E+03  0.47000000000E+01 0. -1.
         11    1    6    6    0    0 -0.34666630467E+02  0.26554405750E+02  0.18294507404E+03  0.18808458695E+03  0.00000000000E+00 0. -1.
        -12    1    6    6    0    0  0.38649803106E+02  0.75729456673E+02  0.50150549589E+03  0.50866149874E+03  0.00000000000E+00 0.  1.
         -5    1    5    5    0  503  0.21812879138E+02  0.11472699463E+02  0.74669539602E+01  0.26177660909E+02  0.47000000000E+01 0.  1.
<mgrwt>
<rscale>  2 0.20900025E+03</rscale>
<asrwt>0</asrwt>
<pdfrwt beam="1">  1       21 0.11928125E+00 0.20944900E+03</pdfrwt>
<pdfrwt beam="2">  1       21 0.26808908E-01 0.20944900E+03</pdfrwt>
<totfact> 0.70124026E+03</totfact>
</mgrwt>
</event>
<event>
12    1  0.1441827E-001  0.2479967E+03  0.7546771E-02  0.1114763E+00
         21   -1    0    0  504  503  0.00000000000E+00  0.00000000000E+00  0.37235461613E+03  0.37235461613E+03  0.00000000000E+00 0. -1.
         21   -1    0    0  502  504 -0.00000000000E+00 -0.00000000000E+00 -0.22498482898E+03  0.22498482898E+03  0.00000000000E+00 0.  1.
          6    2    1    2  502    0  0.16660556902E+03  0.58144570532E+02 -0.81428603878E+02  0.25992123085E+03  0.17259844148E+03 0.  0.
         24    2    3    3    0    0  0.18760329785E+03  0.23010387060E+02 -0.62178464608E+02  0.21444625612E+03  0.79978497276E+02 0.  0.
         -6    2    1    2    0  503 -0.16660556902E+03 -0.58144570532E+02  0.22879839103E+03  0.33741821426E+03  0.17425309427E+03 0.  0.
        -24    2    5    5    0    0 -0.14949029900E+02 -0.28748135290E+02  0.12630626044E+03  0.15197123236E+03  0.78051619202E+02 0.  0.
          4    1    4    4  501    0  0.74580648562E+02 -0.30008715074E+02 -0.24830204633E+02  0.84138785245E+02  0.00000000000E+00 0. -1.
         -3    1    4    4    0  501  0.11302264929E+03  0.53019102134E+02 -0.37348259975E+02  0.13030747088E+03  0.00000000000E+00 0.  1.
          5    1    3    3  502    0 -0.20997728828E+02  0.35134183472E+02 -0.19250139270E+02  0.45474974723E+02  0.47000000000E+01 0. -1.
         13    1    6    6    0    0 -0.23151050252E+02  0.22661465152E+02  0.45819699956E+02  0.56115577469E+02  0.00000000000E+00 0. -1.
        -14    1    6    6    0    0  0.82020203513E+01 -0.51409600442E+02  0.80486560488E+02  0.95855654891E+02  0.00000000000E+00 0.  1.
         -5    1    5    5    0  503 -0.15165653912E+03 -0.29396435242E+02  0.10249213059E+03  0.18544698190E+03  0.47000000000E+01 0.  1.
<mgrwt>
<rscale>  2 0.24770620E+03</rscale>
<asrwt>0</asrwt>
<pdfrwt beam="1">  1       21 0.57285326E-01 0.24799667E+03</pdfrwt>
<pdfrwt beam="2">  1       21 0.34613051E-01 0.24799667E+03</pdfrwt>
<totfact> 0.22343464E+04</totfact>
</mgrwt>
</event>
<event>
12    1  0.1441827E-001  0.4987457E+03  0.7546771E-02  0.1014138E+00
         21   -1    0    0  504  503  0.00000000000E+00  0.00000000000E+00  0.92829671160E+03  0.92829671160E+03  0.00000000000E+00 0. -1.
         21   -1    0    0  502  504 -0.00000000000E+00 -0.00000000000E+00 -0.42489887266E+03  0.42489887266E+03  0.00000000000E+00 0.  1.
          6    2    1    2  502    0 -0.43867225653E+03 -0.16093966848E+03 -0.15975943500E+03  0.52370829228E+03  0.17439143556E+03 0.  0.
         24    2    3    3    0    0 -0.33537581525E+03 -0.14046117608E+03 -0.18433337521E+03  0.41547016605E+03  0.80189689024E+02 0.  0.
         -6    2    1    2    0  503  0.43867225653E+03  0.16093966848E+03  0.66315727394E+03  0.82948729198E+03  0.17302217211E+03 0.  0.
        -24    2    5    5    0    0  0.21591945116E+03  0.77159873276E+02  0.22518994750E+03  0.33101428829E+03  0.79278566852E+02 0.  0.
          4    1    4    4  501    0 -0.19735497585E+03 -0.44486992494E+02 -0.12158478676E+03  0.23603164908E+03  0.00000000000E+00 0. -1.
         -3    1    4    4    0  501 -0.13802083939E+03 -0.95974183587E+02 -0.62748588456E+02  0.17943851698E+03  0.00000000000E+00 0.  1.
          5    1    3    3  502    0 -0.10329644128E+03 -0.20478492399E+02  0.24573940207E+02  0.10823812623E+03  0.47000000000E+01 0. -1.
         13    1    6    6    0    0  0.16006183375E+03  0.63771535743E+02  0.20992865765E+03  0.27158173852E+03  0.00000000000E+00 0. -1.
        -14    1    6    6    0    0  0.55857617401E+02  0.13388337533E+02  0.15261289854E+02  0.59432549766E+02  0.00000000000E+00 0.  1.
         -5    1    5    5    0  503  0.22275280537E+03  0.83779795205E+02  0.43796732644E+03  0.49847300369E+03  0.47000000000E+01 0.  1.
<mgrwt>
<rscale>  2 0.49862640E+03</rscale>
<asrwt>0</asrwt>
<pdfrwt beam="1">  1       21 0.14281488E+00 0.49874573E+03</pdfrwt>
<pdfrwt beam="2">  1       21 0.65369058E-01 0.49874573E+03</pdfrwt>
<totfact> 0.60001034E+02</totfact>
</mgrwt>
</event>
<event>
12    1  0.1441827E-001  0.3342591E+03  0.7546771E-02  0.1069314E+00
         21   -1    0    0  504  503  0.00000000000E+00  0.00000000000E+00  0.19034333893E+03  0.19034333893E+03  0.00000000000E+00 0.  1.
         21   -1    0    0  502  504 -0.00000000000E+00 -0.00000000000E+00 -0.84328344114E+03  0.84328344114E+03  0.00000000000E+00 0. -1.
          6    2    1    2  502    0  0.15532844646E+03  0.23963744124E+03 -0.61194504611E+03  0.69728464832E+03  0.17371272783E+03 0.  0.
         24    2    3    3    0    0  0.82137315795E+02  0.86736331590E+02 -0.40676293790E+03  0.43109396767E+03  0.78206083175E+02 0.  0.
         -6    2    1    2    0  503 -0.15532844646E+03 -0.23963744124E+03 -0.40995056104E+02  0.33634213175E+03  0.17289420303E+03 0.  0.
        -24    2    5    5    0    0 -0.22833382713E+02 -0.15122355502E+03 -0.40553219168E+02  0.17698642142E+03  0.79307646695E+02 0.  0.
          4    1    4    4  501    0 -0.11051533223E+02  0.34245279180E+01 -0.87018620060E+02  0.87784417838E+02  0.00000000000E+00 0. -1.
         -3    1    4    4    0  501  0.93188849018E+02  0.83311803672E+02 -0.31974431784E+03  0.34330954983E+03  0.00000000000E+00 0.  1.
          5    1    3    3  502    0  0.73191130666E+02  0.15290110965E+03 -0.20518210820E+03  0.26619068065E+03  0.47000000000E+01 0. -1.
         11    1    6    6    0    0  0.73060369243E+01 -0.13109798419E+03 -0.13973075505E+02  0.13204282060E+03  0.00000000000E+00 0. -1.
        -12    1    6    6    0    0 -0.30139419637E+02 -0.20125570827E+02 -0.26580143663E+02  0.44943600816E+02  0.00000000000E+00 0.  1.
         -5    1    5    5    0  503 -0.13249506375E+03 -0.88413886226E+02 -0.44183693571E+00  0.15935571033E+03  0.47000000000E+01 0.  1.
<mgrwt>
<rscale>  2 0.33415288E+03</rscale>
<asrwt>0</asrwt>
<pdfrwt beam="1">  1       21 0.29283591E-01 0.33425909E+03</pdfrwt>
<pdfrwt beam="2">  1       21 0.12973591E+00 0.33425909E+03</pdfrwt>
<totfact> 0.44361512E+03</totfact>
</mgrwt>
</event>
<event>
12    1  0.1441827E-001  0.2578533E+03  0.7546771E-02  0.1108452E+00
         21   -1    0    0  504  503  0.00000000000E+00  0.00000000000E+00  0.32237289486E+02  0.32237289486E+02  0.00000000000E+00 0.  1.
         21   -1    0    0  502  504 -0.00000000000E+00 -0.00000000000E+00 -0.21949069534E+04  0.21949069534E+04  0.00000000000E+00 0.  1.
          6    2    1    2  502    0  0.11160899649E+03 -0.15446125431E+03 -0.80727775683E+03  0.84745839030E+03  0.17370520843E+03 0.  0.
         24    2    3    3    0    0  0.66263265032E+02 -0.54094552784E+02 -0.61290260118E+03  0.62400033770E+03  0.80061114065E+02 0.  0.
         -6    2    1    2    0  503 -0.11160899649E+03  0.15446125431E+03 -0.13553919071E+04  0.13796858526E+04  0.17358278388E+03 0.  0.
        -24    2    5    5    0    0 -0.66536970380E+02  0.16739185173E+03 -0.86305656914E+03  0.88510030602E+03  0.78030184697E+02 0.  0.
          4    1    4    4  501    0  0.11109259160E+02  0.19914416631E+02 -0.80993966121E+02  0.84142867653E+02  0.00000000000E+00 0. -1.
         -3    1    4    4    0  501  0.55154005872E+02 -0.74008969415E+02 -0.53190863506E+03  0.53985747005E+03  0.00000000000E+00 0.  1.
          5    1    3    3  502    0  0.45345731460E+02 -0.10036670152E+03 -0.19437515565E+03  0.22345805259E+03  0.47000000000E+01 0. -1.
         13    1    6    6    0    0 -0.32110643586E+02  0.45490356867E+02 -0.13378933254E+03  0.14491394516E+03  0.00000000000E+00 0. -1.
        -14    1    6    6    0    0 -0.34426326794E+02  0.12190149486E+03 -0.72926723660E+03  0.74018636086E+03  0.00000000000E+00 0.  1.
         -5    1    5    5    0  503 -0.45072026112E+02 -0.12930597419E+02 -0.49233533792E+03  0.49458554655E+03  0.47000000000E+01 0.  1.
<mgrwt>
<rscale>  2 0.25783273E+03</rscale>
<asrwt>0</asrwt>
<pdfrwt beam="1">  1       21 0.49595834E-02 0.25785334E+03</pdfrwt>
<pdfrwt beam="2">  1       21 0.33767797E+00 0.25785334E+03</pdfrwt>
<totfact> 0.52539161E+03</totfact>
</mgrwt>
</event>
<event>
12    1  0.1441827E-001  0.1823385E+03  0.7546771E-02  0.1166456E+00
         21   -1    0    0  504  503  0.00000000000E+00  0.00000000000E+00  0.67150815821E+02  0.67150815821E+02  0.00000000000E+00 0.  1.
         21   -1    0    0  502  504 -0.00000000000E+00 -0.00000000000E+00 -0.51525778494E+03  0.51525778494E+03  0.00000000000E+00 0. -1.
          6    2    1    2  502    0 -0.51533277098E+02 -0.10927671112E+01 -0.29674337292E+03  0.34828720128E+03  0.17490132194E+03 0.  0.
         24    2    3    3    0    0 -0.76695595711E+02 -0.17295153068E+02 -0.10142343270E+03  0.15063187340E+03  0.78879096499E+02 0.  0.
         -6    2    1    2    0  503  0.51533277098E+02  0.10927671112E+01 -0.15136359620E+03  0.23412139948E+03  0.17101175004E+03 0.  0.
        -24    2    5    5    0    0  0.64074008273E+02 -0.47389007318E+02 -0.14098270153E+03  0.18276377722E+03  0.84707022027E+02 0.  0.
          4    1    4    4  501    0 -0.69125472318E+02  0.93125006524E+00 -0.10934467797E+03  0.12936559338E+03  0.00000000000E+00 0. -1.
         -3    1    4    4    0  501 -0.75701233932E+01 -0.18226403134E+02  0.79212452757E+01  0.21266280025E+02  0.00000000000E+00 0.  1.
          5    1    3    3  502    0  0.25162318612E+02  0.16202385957E+02 -0.19531994022E+03  0.19765532787E+03  0.47000000000E+01 0. -1.
         11    1    6    6    0    0  0.43053766288E+02 -0.83584339737E+01 -0.10698023213E+02  0.45143525679E+02  0.00000000000E+00 0. -1.
        -12    1    6    6    0    0  0.21020241985E+02 -0.39030573344E+02 -0.13028467832E+03  0.13762025154E+03  0.00000000000E+00 0.  1.
         -5    1    5    5    0  503 -0.12540731175E+02  0.48481774429E+02 -0.10380894666E+02  0.51357622261E+02  0.47000000000E+01 0.  1.
<mgrwt>
<rscale>  2 0.18139943E+03</rscale>
<asrwt>0</asrwt>
<pdfrwt beam="1">  1       21 0.10330894E-01 0.18233855E+03</pdfrwt>
<pdfrwt beam="2">  1       21 0.79270431E-01 0.18233855E+03</pdfrwt>
<totfact> 0.10798714E+05</totfact>
</mgrwt>
</event>
<event>
12    1  0.1441827E-001  0.2217021E+03  0.7546771E-02  0.1132688E+00
         21   -1    0    0  504  503  0.00000000000E+00  0.00000000000E+00  0.53509952040E+02  0.53509952040E+02  0.00000000000E+00 0. -1.
         21   -1    0    0  502  504 -0.00000000000E+00 -0.00000000000E+00 -0.91968612688E+03  0.91968612688E+03  0.00000000000E+00 0.  1.
          6    2    1    2  502    0  0.26836570871E+02  0.13542355426E+03 -0.40665716151E+03  0.46299066858E+03  0.17300454213E+03 0.  0.
         24    2    3    3    0    0 -0.24781745942E+02  0.13395788118E+03 -0.22644996107E+03  0.27547180574E+03  0.77757842237E+02 0.  0.
         -6    2    1    2    0  503 -0.26836570871E+02 -0.13542355426E+03 -0.45951901333E+03  0.51020541035E+03  0.17347073686E+03 0.  0.
        -24    2    5    5    0    0 -0.51245263559E+02 -0.15291087139E+03 -0.44013251256E+03  0.47415659690E+03  0.71414551333E+02 0.  0.
          4    1    4    4  501    0 -0.46818258847E+02  0.12042598065E+03 -0.17134420353E+03  0.21460009846E+03  0.00000000000E+00 0. -1.
         -3    1    4    4    0  501  0.22036512906E+02  0.13531900523E+02 -0.55105757544E+02  0.60871707281E+02  0.00000000000E+00 0.  1.
          5    1    3    3  502    0  0.51618316812E+02  0.14656730836E+01 -0.18020720044E+03  0.18751886283E+03  0.47000000000E+01 0. -1.
         13    1    6    6    0    0  0.82844777596E+01 -0.30903711326E+02 -0.37718108325E+02  0.49460364344E+02  0.00000000000E+00 0. -1.
        -14    1    6    6    0    0 -0.59529741318E+02 -0.12200716006E+03 -0.40241440424E+03  0.42469623255E+03  0.00000000000E+00 0.  1.
         -5    1    5    5    0  503  0.24408692688E+02  0.17487317124E+02 -0.19386500772E+02  0.36048813450E+02  0.47000000000E+01 0.  1.
<mgrwt>
<rscale>  2 0.22161093E+03</rscale>
<asrwt>0</asrwt>
<pdfrwt beam="1">  1       21 0.82323010E-02 0.22170214E+03</pdfrwt>
<pdfrwt beam="2">  1       21 0.14149016E+00 0.22170214E+03</pdfrwt>
<totfact> 0.39099216E+04</totfact>
</mgrwt>
</event>
<event>
12    1  0.1441827E-001  0.1930910E+03  0.7546771E-02  0.1155740E+00
         21   -1    0    0  504  503  0.00000000000E+00  0.00000000000E+00  0.65787732628E+03  0.65787732628E+03  0.00000000000E+00 0.  1.
         21   -1    0    0  502  504 -0.00000000000E+00 -0.00000000000E+00 -0.56837520620E+02  0.56837520620E+02  0.00000000000E+00 0. -1.
          6    2    1    2  502    0  0.83370178929E+01 -0.86720958724E+02  0.32230795589E+03  0.37563438241E+03  0.17213000979E+03 0.  0.
         24    2    3    3    0    0  0.31525155777E+01 -0.12141124222E+03  0.30193885382E+03  0.33480197920E+03  0.78579041334E+02 0.  0.
         -6    2    1    2    0  503 -0.83370178929E+01  0.86720958724E+02  0.27873184977E+03  0.33908046449E+03  0.17231972253E+03 0.  0.
        -24    2    5    5    0    0 -0.28194369180E+02 -0.75719819924E+01  0.19044406437E+03  0.20830471705E+03  0.79181160158E+02 0.  0.
          4    1    4    4  501    0  0.78990309606E+01 -0.94769778083E+02  0.13181270387E+03  0.16253705556E+03  0.00000000000E+00 0. -1.
         -3    1    4    4    0  501 -0.47465153830E+01 -0.26641464134E+02  0.17012614995E+03  0.17226492364E+03  0.00000000000E+00 0.  1.
          5    1    3    3  502    0  0.51845023152E+01  0.34690283492E+02  0.20369102071E+02  0.40832403214E+02  0.47000000000E+01 0. -1.
         13    1    6    6    0    0 -0.45068357140E+02 -0.24696501903E+02  0.78626670246E+02  0.93932035513E+02  0.00000000000E+00 0. -1.
        -14    1    6    6    0    0  0.16873987960E+02  0.17124519910E+02  0.11181739413E+03  0.11437268153E+03  0.00000000000E+00 0.  1.
         -5    1    5    5    0  503  0.19857351288E+02  0.94292940716E+02  0.88287785395E+02  0.13077574744E+03  0.47000000000E+01 0.  1.
<mgrwt>
<rscale>  2 0.19304862E+03</rscale>
<asrwt>0</asrwt>
<pdfrwt beam="1">  1       21 0.10121189E+00 0.19309096E+03</pdfrwt>
<pdfrwt beam="2">  1       21 0.87442344E-02 0.19309096E+03</pdfrwt>
<totfact> 0.81954114E+04</totfact>
</mgrwt>
</event>
<event>
12    1  0.1441827E-001  0.1929978E+03  0.7546771E-02  0.1155929E+00
         21   -1    0    0  504  503  0.00000000000E+00  0.00000000000E+00  0.11721319594E+04  0.11721319594E+04  0.00000000000E+00 0.  1.
         21   -1    0    0  502  504 -0.00000000000E+00 -0.00000000000E+00 -0.43179766222E+02  0.43179766222E+02  0.00000000000E+00 0.  1.
          6    2    1    2  502    0  0.17073487166E+01  0.85453978462E+02  0.25005999629E+03  0.31547861157E+03  0.17231208647E+03 0.  0.
         24    2    3    3    0    0  0.53653937964E+02  0.39521257235E+02  0.79841300590E+02  0.13161791056E+03  0.80671967044E+02 0.  0.
         -6    2    1    2    0  503 -0.17073487166E+01 -0.85453978462E+02  0.87889219686E+03  0.89983311401E+03  0.17304000089E+03 0.  0.
        -24    2    5    5    0    0 -0.98658795560E+01 -0.18571343522E+02  0.20512321109E+03  0.22268720311E+03  0.84094163406E+02 0.  0.
          2    1    4    4  501    0  0.24346324803E+02  0.58785968028E+02  0.71217134435E+02  0.95500857617E+02  0.00000000000E+00 0. -1.
         -1    1    4    4    0  501  0.29307613161E+02 -0.19264710793E+02  0.86241661549E+01  0.36117052939E+02  0.00000000000E+00 0.  1.
          5    1    3    3  502    0 -0.51946589248E+02  0.45932721227E+02  0.17021869570E+03  0.18386070102E+03  0.47000000000E+01 0. -1.
         11    1    6    6    0    0  0.33334650306E+02 -0.26717828700E+02  0.10049690761E+03  0.10920013608E+03  0.00000000000E+00 0. -1.
        -12    1    6    6    0    0 -0.43200529862E+02  0.81464851781E+01  0.10462630348E+03  0.11348706702E+03  0.00000000000E+00 0.  1.
         -5    1    5    5    0  503  0.81585308394E+01 -0.66882634940E+02  0.67376898576E+03  0.67714591091E+03  0.47000000000E+01 0.  1.
<mgrwt>
<rscale>  2 0.19283447E+03</rscale>
<asrwt>0</asrwt>
<pdfrwt beam="1">  1       21 0.18032797E+00 0.19299777E+03</pdfrwt>
<pdfrwt beam="2">  1       21 0.66430419E-02 0.19299777E+03</pdfrwt>
<totfact> 0.29964358E+04</totfact>
</mgrwt>
</event>
<event>
12    1  0.1441827E-001  0.2851820E+03  0.7546771E-02  0.1093013E+00
         21   -1    0    0  504  503  0.00000000000E+00  0.00000000000E+00  0.73441512374E+03  0.73441512374E+03  0.00000000000E+00 0. -1.
         21   -1    0    0  502  504 -0.00000000000E+00 -0.00000000000E+00 -0.13710323577E+03  0.13710323577E+03  0.00000000000E+00 0. -1.
          6    2    1    2  502    0  0.55192371476E+02  0.22073324204E+03  0.10591458851E+03  0.30336339120E+03  0.17041738484E+03 0.  0.
         24    2    3    3    0    0  0.30951160092E+02  0.21526239231E+03  0.13214505350E+03  0.26692585809E+03  0.80568149388E+02 0.  0.
         -6    2    1    2    0  503 -0.55192371476E+02 -0.22073324204E+03  0.49139729947E+03  0.56815496831E+03  0.17192847375E+03 0.  0.
        -24    2    5    5    0    0 -0.67715290728E+02 -0.12363320221E+03  0.40935548516E+03  0.44033403679E+03  0.80321986015E+02 0.  0.
          4    1    4    4  501    0 -0.17199260185E+02  0.14504990015E+03  0.73253953055E+02  0.16340572120E+03  0.00000000000E+00 0. -1.
         -3    1    4    4    0  501  0.48150420278E+02  0.70212492166E+02  0.58891100442E+02  0.10352013688E+03  0.00000000000E+00 0.  1.
          5    1    3    3  502    0  0.24241211384E+02  0.54708497246E+01 -0.26230464991E+02  0.36437533118E+02  0.47000000000E+01 0. -1.
         11    1    6    6    0    0 -0.47304158902E+02 -0.79159899507E+02  0.14756688551E+03  0.17401137560E+03  0.00000000000E+00 0. -1.
        -12    1    6    6    0    0 -0.20411131826E+02 -0.44473302707E+02  0.26178859966E+03  0.26632266119E+03  0.00000000000E+00 0.  1.
         -5    1    5    5    0  503  0.12522919252E+02 -0.97100039823E+02  0.82041814305E+02  0.12782093152E+03  0.47000000000E+01 0.  1.
<mgrwt>
<rscale>  2 0.28495460E+03</rscale>
<asrwt>0</asrwt>
<pdfrwt beam="1">  1       21 0.11298694E+00 0.28518198E+03</pdfrwt>
<pdfrwt beam="2">  1       21 0.21092806E-01 0.28518198E+03</pdfrwt>
<totfact> 0.12116132E+04</totfact>
</mgrwt>
</event>
<event>
12    1  0.1441827E-001  0.2122682E+03  0.7546771E-02  0.1139942E+00
         21   -1    0    0  504  503  0.00000000000E+00  0.00000000000E+00  0.25241648712E+03  0.25241648712E+03  0.00000000000E+00 0. -1.
         21   -1    0    0  502  504 -0.00000000000E+00 -0.00000000000E+00 -0.18165704227E+03  0.18165704227E+03  0.00000000000E+00 0. -1.
          6    2    1    2  502    0  0.10831553748E+03 -0.59167142672E+02  0.66850056641E+02  0.22176931158E+03  0.17169650856E+03 0.  0.
         24    2    3    3    0    0  0.10741423168E+03 -0.63346821461E+02  0.10628509254E+03  0.18182567474E+03  0.78825237983E+02 0.  0.
         -6    2    1    2    0  503 -0.10831553748E+03  0.59167142672E+02  0.39093882029E+01  0.21230421782E+03  0.17269855574E+03 0.  0.
        -24    2    5    5    0    0  0.12596026956E+02  0.13468605492E+02 -0.59897965277E+01  0.82581256964E+02  0.80272804301E+02 0.  0.
          4    1    4    4  501    0  0.76261667529E+02 -0.67979808409E+02  0.10998652517E+03  0.15011373023E+03  0.00000000000E+00 0. -1.
         -3    1    4    4    0  501  0.31152564150E+02  0.46329869480E+01 -0.37014326277E+01  0.31711944511E+02  0.00000000000E+00 0.  1.
          5    1    3    3  502    0  0.90130579639E+00  0.41796787886E+01 -0.39435035900E+02  0.39943636832E+02  0.47000000000E+01 0. -1.
         11    1    6    6    0    0  0.17891718041E+01  0.17007842322E+01  0.36812000690E+02  0.36894677090E+02  0.00000000000E+00 0. -1.
        -12    1    6    6    0    0  0.10806855152E+02  0.11767821260E+02 -0.42801797218E+02  0.45686579874E+02  0.00000000000E+00 0.  1.
         -5    1    5    5    0  503 -0.12091156443E+03  0.45698537180E+02  0.98991847307E+01  0.12972296085E+03  0.47000000000E+01 0.  1.
<mgrwt>
<rscale>  2 0.21206431E+03</rscale>
<asrwt>0</asrwt>
<pdfrwt beam="1">  1       21 0.38833306E-01 0.21226822E+03</pdfrwt>
<pdfrwt beam="2">  1       21 0.27947237E-01 0.21226822E+03</pdfrwt>
<totfact> 0.77531072E+04</totfact>
</mgrwt>
</event>
<event>
12    1  0.1441827E-001  0.2200021E+03  0.7546771E-02  0.1134341E+00
         21   -1    0    0  504  503  0.00000000000E+00  0.00000000000E+00  0.53608550694E+03  0.53608550694E+03  0.00000000000E+00 0. -1.
         21   -1    0    0  502  504 -0.00000000000E+00 -0.00000000000E+00 -0.10849074134E+03  0.10849074134E+03  0.00000000000E+00 0. -1.
          6    2    1    2  502    0 -0.90041768366E+02  0.95360808769E+02  0.79176854735E+02  0.23381591547E+03  0.17663437972E+03 0.  0.
         24    2    3    3    0    0 -0.73916739769E+02  0.73181712688E+02  0.12454223528E+03  0.18059903279E+03  0.79284265696E+02 0.  0.
         -6    2    1    2    0  503  0.90041768366E+02 -0.95360808769E+02  0.34841791086E+03  0.41076033281E+03  0.17357363424E+03 0.  0.
        -24    2    5    5    0    0  0.57357729449E+02  0.14595514714E+02  0.19254493530E+03  0.21717026596E+03  0.81156848941E+02 0.  0.
          2    1    4    4  501    0 -0.87256253887E+02  0.73915154780E+02  0.12159043375E+03  0.16691715768E+03  0.00000000000E+00 0. -1.
         -1    1    4    4    0  501  0.13339514118E+02 -0.73344209142E+00  0.29518015221E+01  0.13681875107E+02  0.00000000000E+00 0.  1.
          5    1    3    3  502    0 -0.16125028597E+02  0.22179096081E+02 -0.45365380541E+02  0.53216882677E+02  0.47000000000E+01 0. -1.
         11    1    6    6    0    0  0.82636640943E+01 -0.14841954519E+02  0.13478013273E+03  0.13584644249E+03  0.00000000000E+00 0. -1.
        -12    1    6    6    0    0  0.49094065355E+02  0.29437469233E+02  0.57764802568E+02  0.81323823469E+02  0.00000000000E+00 0.  1.
         -5    1    5    5    0  503  0.32684038917E+02 -0.10995632348E+03  0.15587297557E+03  0.19359006686E+03  0.47000000000E+01 0.  1.
<mgrwt>
<rscale>  2 0.21938705E+03</rscale>
<asrwt>0</asrwt>
<pdfrwt beam="1">  1       21 0.82474692E-01 0.22000206E+03</pdfrwt>
<pdfrwt beam="2">  1       21 0.16690884E-01 0.22000206E+03</pdfrwt>
<totfact> 0.40844501E+04</totfact>
</mgrwt>
</event>
