<event>
12    1  0.2762290E-001  0.1877562E+03  0.7546771E-02  0.1160987E+00
         21   -1    0    0  504  503  0.00000000000E+00  0.00000000000E+00  0.21759215914E+03  0.21759215914E+03  0.00000000000E+00 0. -1.
         21   -1    0    0  502  504 -0.00000000000E+00 -0.00000000000E+00 -0.22029480694E+03  0.22029480694E+03  0.00000000000E+00 0. -1.
          6    2    1    2  502    0 -0.47240715713E+02  0.55881054171E+02 -0.11571409592E+03  0.22054965993E+03  0.17291044811E+03 0.  0.
         24    2    3    3    0    0 -0.78367500504E+02  0.67175929658E+02 -0.34559381552E+02  0.13277364608E+03  0.76029070619E+02 0.  0.
         -6    2    1    2    0  503  0.47240715713E+02 -0.55881054171E+02  0.11301144812E+03  0.21733730615E+03  0.17061518045E+03 0.  0.
        -24    2    5    5    0    0  0.68096967995E+02 -0.91174557510E+02  0.64281930217E+02  0.15348379761E+03  0.80468084293E+02 0.  0.
          2    1    4    4  501    0 -0.35796938851E+02  0.50480439980E+02 -0.54899670504E+02  0.82726473834E+02  0.00000000000E+00 0. -1.
         -1    1    4    4    0  501 -0.42570561653E+02  0.16695489678E+02  0.20340288952E+02  0.50047172245E+02  0.00000000000E+00 0.  1.
          5    1    3    3  502    0  0.31126784791E+02 -0.11294875487E+02 -0.81154714369E+02  0.87776013853E+02  0.47000000000E+01 0. -1.
         11    1    6    6    0    0  0.23506862152E+02 -0.55568466668E+02  0.74127303135E+02  0.95578680291E+02  0.00000000000E+00 0. -1.
        -12    1    6    6    0    0  0.44590105843E+02 -0.35606090842E+02 -0.98453729174E+01  0.57905117322E+02  0.00000000000E+00 0.  1.
         -5    1    5    5    0  503 -0.20856252282E+02  0.35293503340E+02  0.48729517904E+02  0.63853508537E+02  0.47000000000E+01 0.  1.
<mgrwt>
<rscale>  2 0.18722608E+03</rscale>
<asrwt>0</asrwt>
<pdfrwt beam="1">  1       21 0.33475717E-01 0.18775623E+03</pdfrwt>
<pdfrwt beam="2">  1       21 0.33891509E-01 0.18775623E+03</pdfrwt>
<totfact> 0.72233896E+04</totfact>
</mgrwt>
</event>
<event>
12    1  0.2762290E-001  0.1775931E+03  0.7546771E-02  0.1170704E+00
         21   -1    0    0  504  503  0.00000000000E+00  0.00000000000E+00  0.57383744475E+02  0.57383744475E+02  0.00000000000E+00 0.  1.
         21   -1    0    0  502  504 -0.00000000000E+00 -0.00000000000E+00 -0.54573846773E+03  0.54573846773E+03  0.00000000000E+00 0.  1.
          6    2    1    2  502    0  0.14826332260E+01  0.31945282695E+02 -0.26492913156E+03  0.31771320399E+03  0.17242835019E+03 0.  0.
         24    2    3    3    0    0 -0.69463339070E+02  0.84596075211E+01 -0.16974924394E+03  0.19660907965E+03  0.70310766950E+02 0.  0.
         -6    2    1    2    0  503 -0.14826332260E+01 -0.31945282695E+02 -0.22342559170E+03  0.28540900822E+03  0.17469003309E+03 0.  0.
        -24    2    5    5    0    0 -0.33471376247E+02 -0.64580577247E+02 -0.79485683622E+02  0.13431589366E+03  0.80198512481E+02 0.  0.
          4    1    4    4  501    0 -0.53076309063E+02  0.83213829033E+00 -0.17044578924E+03  0.17852045852E+03  0.00000000000E+00 0. -1.
         -3    1    4    4    0  501 -0.16387030007E+02  0.76274692308E+01  0.69654530083E+00  0.18088621138E+02  0.00000000000E+00 0.  1.
          5    1    3    3  502    0  0.70945972296E+02  0.23485675174E+02 -0.95179887618E+02  0.12110412433E+03  0.47000000000E+01 0. -1.
         13    1    6    6    0    0 -0.37608932802E+02 -0.52568934463E+02 -0.12120766986E+02  0.65763498153E+02  0.00000000000E+00 0. -1.
        -14    1    6    6    0    0  0.41375565552E+01 -0.12011642784E+02 -0.67364916636E+02  0.68552395509E+02  0.00000000000E+00 0.  1.
         -5    1    5    5    0  503  0.31988743021E+02  0.32635294551E+02 -0.14393990808E+03  0.15109311456E+03  0.47000000000E+01 0.  1.
<mgrwt>
<rscale>  2 0.17703440E+03</rscale>
<asrwt>0</asrwt>
<pdfrwt beam="1">  1       21 0.88282686E-02 0.17759309E+03</pdfrwt>
<pdfrwt beam="2">  1       21 0.83959763E-01 0.17759309E+03</pdfrwt>
<totfact> 0.12521942E+05</totfact>
</mgrwt>
</event>
<event>
12    1  0.2762290E-001  0.2989914E+03  0.7546771E-02  0.1085937E+00
         21   -1    0    0  504  503  0.00000000000E+00  0.00000000000E+00  0.79941091517E+03  0.79941091517E+03  0.00000000000E+00 0. -1.
         21   -1    0    0  502  504 -0.00000000000E+00 -0.00000000000E+00 -0.13425349229E+03  0.13425349229E+03  0.00000000000E+00 0.  1.
          6    2    1    2  502    0 -0.23965887392E+03 -0.41876806702E+02  0.14008605081E+03  0.33018171891E+03  0.17379822520E+03 0.  0.
         24    2    3    3    0    0 -0.19561509316E+03 -0.66964314782E+02  0.47949529042E+02  0.22491792491E+03  0.74427357080E+02 0.  0.
         -6    2    1    2    0  503  0.23965887392E+03  0.41876806702E+02  0.52507137208E+03  0.60348268855E+03  0.17117642015E+03 0.  0.
        -24    2    5    5    0    0  0.20549946194E+03 -0.15037914966E+02  0.32968159432E+03  0.39707191795E+03  0.80746434242E+02 0.  0.
          2    1    4    4  501    0 -0.17487588703E+03 -0.73778397000E+02  0.61147162962E+02  0.19940863388E+03  0.00000000000E+00 0. -1.
         -1    1    4    4    0  501 -0.20739206132E+02  0.68140822175E+01 -0.13197633921E+02  0.25509291024E+02  0.00000000000E+00 0.  1.
          5    1    3    3  502    0 -0.44043780754E+02  0.25087508080E+02  0.92136521764E+02  0.10526379400E+03  0.47000000000E+01 0. -1.
         13    1    6    6    0    0  0.16795495263E+03  0.15123425717E+02  0.28620570823E+03  0.33219164882E+03  0.00000000000E+00 0. -1.
        -14    1    6    6    0    0  0.37544509308E+02 -0.30161340683E+02  0.43475886089E+02  0.64880269128E+02  0.00000000000E+00 0.  1.
         -5    1    5    5    0  503  0.34159411975E+02  0.56914721668E+02  0.19538977776E+03  0.20641077061E+03  0.47000000000E+01 0.  1.
<mgrwt>
<rscale>  2 0.29861160E+03</rscale>
<asrwt>0</asrwt>
<pdfrwt beam="1">  1       21 0.12298629E+00 0.29899141E+03</pdfrwt>
<pdfrwt beam="2">  1       21 0.20654384E-01 0.29899141E+03</pdfrwt>
<totfact> 0.10138808E+04</totfact>
</mgrwt>
</event>
<event>
12    1  0.2762290E-001  0.2439927E+03  0.7546771E-02  0.1118176E+00
         21   -1    0    0  504  503  0.00000000000E+00  0.00000000000E+00  0.30602658032E+03  0.30602658032E+03  0.00000000000E+00 0. -1.
         21   -1    0    0  502  504 -0.00000000000E+00 -0.00000000000E+00 -0.19024475135E+03  0.19024475135E+03  0.00000000000E+00 0. -1.
          6    2    1    2  502    0 -0.59266949894E+02 -0.16072629046E+03  0.72298936553E+02  0.25447901951E+03  0.17374384406E+03 0.  0.
         24    2    3    3    0    0 -0.39295177718E+01 -0.13348273190E+03 -0.12605301496E+01  0.15836695982E+03  0.85120057569E+02 0.  0.
         -6    2    1    2    0  503  0.59266949894E+02  0.16072629046E+03  0.43482892414E+02  0.24179231216E+03  0.16500681347E+03 0.  0.
        -24    2    5    5    0    0  0.32364314158E+02  0.17641295087E+03  0.60843755467E+02  0.20582965527E+03  0.80590981780E+02 0.  0.
          2    1    4    4  501    0 -0.16299242865E+02 -0.88619786760E+02 -0.39258864373E+02  0.98287284809E+02  0.00000000000E+00 0. -1.
         -1    1    4    4    0  501  0.12369725093E+02 -0.44862945142E+02  0.37998334223E+02  0.60079675011E+02  0.00000000000E+00 0.  1.
          5    1    3    3  502    0 -0.55337432122E+02 -0.27243558561E+02  0.73559466703E+02  0.96112059694E+02  0.47000000000E+01 0. -1.
         13    1    6    6    0    0  0.42584709976E+02  0.44489002915E+02  0.35566846794E+02  0.71117715760E+02  0.00000000000E+00 0. -1.
        -14    1    6    6    0    0 -0.10220395818E+02  0.13192394796E+03  0.25276908674E+02  0.13471193951E+03  0.00000000000E+00 0.  1.
         -5    1    5    5    0  503  0.26902635737E+02 -0.15686660409E+02 -0.17360863053E+02  0.35962656886E+02  0.47000000000E+01 0.  1.
<mgrwt>
<rscale>  2 0.24244238E+03</rscale>
<asrwt>0</asrwt>
<pdfrwt beam="1">  1       21 0.47081012E-01 0.24399269E+03</pdfrwt>
<pdfrwt beam="2">  1       21 0.29268423E-01 0.24399269E+03</pdfrwt>
<totfact> 0.47151381E+04</totfact>
</mgrwt>
</event>
<event>
12    1  0.2762290E-001  0.1913152E+03  0.7546771E-02  0.1157487E+00
         21   -1    0    0  504  503  0.00000000000E+00  0.00000000000E+00  0.16207781221E+03  0.16207781221E+03  0.00000000000E+00 0. -1.
         21   -1    0    0  502  504 -0.00000000000E+00 -0.00000000000E+00 -0.24863659823E+03  0.24863659823E+03  0.00000000000E+00 0. -1.
          6    2    1    2  502    0  0.75438478573E+02  0.33304325347E+02 -0.10703854717E+03  0.21922304667E+03  0.17263067942E+03 0.  0.
         24    2    3    3    0    0  0.11383701612E+03  0.47300853626E+02 -0.97849847954E+02  0.17707007901E+03  0.81135584949E+02 0.  0.
         -6    2    1    2    0  503 -0.75438478573E+02 -0.33304325347E+02  0.20479761162E+02  0.19149136377E+03  0.17160821555E+03 0.  0.
        -24    2    5    5    0    0  0.14328916732E+01 -0.55375817892E+02  0.44886537718E+02  0.10774090653E+03  0.80776031624E+02 0.  0.
          2    1    4    4  501    0  0.56380054467E+02  0.66130817751E+02 -0.53011901219E+02  0.10179517311E+03  0.00000000000E+00 0. -1.
         -1    1    4    4    0  501  0.57456961649E+02 -0.18829964125E+02 -0.44837946734E+02  0.75274905900E+02  0.00000000000E+00 0.  1.
          5    1    3    3  502    0 -0.38398537543E+02 -0.13996528279E+02 -0.91886992213E+01  0.42152967662E+02  0.47000000000E+01 0. -1.
         13    1    6    6    0    0  0.16432633730E+00  0.19682158950E+01  0.50106863693E+02  0.50145774160E+02  0.00000000000E+00 0. -1.
        -14    1    6    6    0    0  0.12685653359E+01 -0.57344033787E+02 -0.52203259751E+01  0.57595132366E+02  0.00000000000E+00 0.  1.
         -5    1    5    5    0  503 -0.76871370246E+02  0.22071492545E+02 -0.24406776556E+02  0.83750457243E+02  0.47000000000E+01 0.  1.
<mgrwt>
<rscale>  2 0.19108423E+03</rscale>
<asrwt>0</asrwt>
<pdfrwt beam="1">  1       21 0.24935048E-01 0.19131517E+03</pdfrwt>
<pdfrwt beam="2">  1       21 0.38251784E-01 0.19131517E+03</pdfrwt>
<totfact> 0.10037924E+05</totfact>
</mgrwt>
</event>
<event>
12    1  0.2762290E-001  0.1834252E+03  0.7546771E-02  0.1164810E+00
         21   -1    0    0  504  503  0.00000000000E+00  0.00000000000E+00  0.88832965675E+03  0.88832965675E+03  0.00000000000E+00 0. -1.
         21   -1    0    0  502  504 -0.00000000000E+00 -0.00000000000E+00 -0.38516225686E+02  0.38516225686E+02  0.00000000000E+00 0.  1.
          6    2    1    2  502    0  0.36092502390E+02 -0.41374393164E+02  0.35324276904E+03  0.39748097216E+03  0.17377042385E+03 0.  0.
         24    2    3    3    0    0  0.48485375237E+02 -0.20708209736E+02  0.84310322824E+02  0.12743018977E+03  0.79690408263E+02 0.  0.
         -6    2    1    2    0  503 -0.36092502390E+02  0.41374393164E+02  0.49657066203E+03  0.52936491028E+03  0.17501507569E+03 0.  0.
        -24    2    5    5    0    0 -0.80113931500E+02 -0.40496188890E+01  0.38070587898E+03  0.39727416480E+03  0.80343974862E+02 0.  0.
          2    1    4    4  501    0  0.25780833222E+02 -0.48676319889E+02  0.31347937255E+02  0.63377666805E+02  0.00000000000E+00 0. -1.
         -1    1    4    4    0  501  0.22704542015E+02  0.27968110153E+02  0.52962385569E+02  0.64052522970E+02  0.00000000000E+00 0.  1.
          5    1    3    3  502    0 -0.12392872846E+02 -0.20666183428E+02  0.26893244622E+03  0.27005078238E+03  0.47000000000E+01 0. -1.
         11    1    6    6    0    0 -0.38170862812E+02 -0.60471336528E+01  0.32614004290E+03  0.32842184790E+03  0.00000000000E+00 0. -1.
        -12    1    6    6    0    0 -0.41943068688E+02  0.19975147637E+01  0.54565836078E+02  0.68852316904E+02  0.00000000000E+00 0.  1.
         -5    1    5    5    0  503  0.44021429109E+02  0.45424012053E+02  0.11586478305E+03  0.13209074548E+03  0.47000000000E+01 0.  1.
<mgrwt>
<rscale>  2 0.18312763E+03</rscale>
<asrwt>0</asrwt>
<pdfrwt beam="1">  1       21 0.13666609E+00 0.18342515E+03</pdfrwt>
<pdfrwt beam="2">  1       21 0.59255738E-02 0.18342515E+03</pdfrwt>
<totfact> 0.77040341E+04</totfact>
</mgrwt>
</event>
<event>
12    1  0.2762290E-001  0.2504255E+03  0.7546771E-02  0.1113239E+00
         21   -1    0    0  504  503  0.00000000000E+00  0.00000000000E+00  0.23136714963E+03  0.23136714963E+03  0.00000000000E+00 0. -1.
         21   -1    0    0  502  504 -0.00000000000E+00 -0.00000000000E+00 -0.40994683194E+03  0.40994683194E+03  0.00000000000E+00 0. -1.
          6    2    1    2  502    0 -0.17714344436E+03  0.34488699961E+02 -0.27671529969E+03  0.37234642934E+03  0.17175923865E+03 0.  0.
         24    2    3    3    0    0 -0.18518445097E+03 -0.10548390195E+02 -0.21207098303E+03  0.29301185332E+03  0.80481643400E+02 0.  0.
         -6    2    1    2    0  503  0.17714344436E+03 -0.34488699961E+02  0.98135617375E+02  0.26896755222E+03  0.17361933776E+03 0.  0.
        -24    2    5    5    0    0  0.63172419120E+02 -0.73413715864E+02  0.74439114018E+02  0.14613365735E+03  0.80209325525E+02 0.  0.
          4    1    4    4  501    0 -0.69340848061E+02  0.15500264860E+02 -0.33462763291E+02  0.78537684888E+02  0.00000000000E+00 0. -1.
         -3    1    4    4    0  501 -0.11584360291E+03 -0.26048655056E+02 -0.17860821974E+03  0.21447416843E+03  0.00000000000E+00 0.  1.
          5    1    3    3  502    0  0.80410066158E+01  0.45037090156E+02 -0.64644316658E+02  0.79334576027E+02  0.47000000000E+01 0. -1.
         13    1    6    6    0    0  0.41827107112E+02 -0.47752861335E+02  0.89326540072E+02  0.10958591797E+03  0.00000000000E+00 0. -1.
        -14    1    6    6    0    0  0.21345312008E+02 -0.25660854529E+02 -0.14887426054E+02  0.36547739388E+02  0.00000000000E+00 0.  1.
         -5    1    5    5    0  503  0.11397102524E+03  0.38925015903E+02  0.23696503356E+02  0.12283389486E+03  0.47000000000E+01 0.  1.
<mgrwt>
<rscale>  2 0.25010341E+03</rscale>
<asrwt>0</asrwt>
<pdfrwt beam="1">  1       21 0.35594946E-01 0.25042553E+03</pdfrwt>
<pdfrwt beam="2">  1       21 0.63068743E-01 0.25042553E+03</pdfrwt>
<totfact> 0.17141783E+04</totfact>
</mgrwt>
</event>
<event>
12    1  0.2762290E-001  0.1999181E+03  0.7546771E-02  0.1150477E+00
         21   -1    0    0  504  503  0.00000000000E+00  0.00000000000E+00  0.74336745266E+03  0.74336745266E+03  0.00000000000E+00 0.  1.
         21   -1    0    0  502  504 -0.00000000000E+00 -0.00000000000E+00 -0.59185810668E+02  0.59185810668E+02  0.00000000000E+00 0.  1.
          6    2    1    2  502    0 -0.77613338571E+02  0.59401882285E+02  0.21399145626E+03  0.29284739445E+03  0.17439850670E+03 0.  0.
         24    2    3    3    0    0 -0.48768887891E+02  0.57880966421E+02  0.42203370391E+02  0.11858451267E+03  0.80947831794E+02 0.  0.
         -6    2    1    2    0  503  0.77613338571E+02 -0.59401882285E+02  0.47019018573E+03  0.50970586888E+03  0.17078889914E+03 0.  0.
        -24    2    5    5    0    0  0.51317804698E+02  0.21801577587E+02  0.34043282563E+03  0.35432080043E+03  0.80869617196E+02 0.  0.
          2    1    4    4  501    0  0.18799969151E+02  0.24735417049E+02  0.28349769575E+02  0.42059352487E+02  0.00000000000E+00 0. -1.
         -1    1    4    4    0  501 -0.67568857042E+02  0.33145549372E+02  0.13853600816E+02  0.76525160181E+02  0.00000000000E+00 0.  1.
          5    1    3    3  502    0 -0.28844450680E+02  0.15209158640E+01  0.17178808587E+03  0.17426288178E+03  0.47000000000E+01 0. -1.
         13    1    6    6    0    0 -0.19513182293E+02 -0.11518770856E+01  0.36544673223E+02  0.41443989251E+02  0.00000000000E+00 0. -1.
        -14    1    6    6    0    0  0.70830986990E+02  0.22953454673E+02  0.30388815241E+03  0.31287681118E+03  0.00000000000E+00 0.  1.
         -5    1    5    5    0  503  0.26295533874E+02 -0.81203459873E+02  0.12975736010E+03  0.15538506845E+03  0.47000000000E+01 0.  1.
<mgrwt>
<rscale>  2 0.19912821E+03</rscale>
<asrwt>0</asrwt>
<pdfrwt beam="1">  1       21 0.11436422E+00 0.19991812E+03</pdfrwt>
<pdfrwt beam="2">  1       21 0.91055098E-02 0.19991812E+03</pdfrwt>
<totfact> 0.56659782E+04</totfact>
</mgrwt>
</event>
<event>
12    1  0.2762290E-001  0.2401460E+03  0.7546771E-02  0.1120479E+00
         21   -1    0    0  504  503  0.00000000000E+00  0.00000000000E+00  0.85108141527E+02  0.85108141527E+02  0.00000000000E+00 0. -1.
         21   -1    0    0  502  504 -0.00000000000E+00 -0.00000000000E+00 -0.69095378348E+03  0.69095378348E+03  0.00000000000E+00 0.  1.
          6    2    1    2  502    0  0.71661782534E+02 -0.14441705904E+03 -0.22988935919E+03  0.33244432441E+03  0.17798430646E+03 0.  0.
         24    2    3    3    0    0  0.85837302687E+02 -0.26108067773E+02 -0.12575479236E+03  0.17412799299E+03  0.80353073407E+02 0.  0.
         -6    2    1    2    0  503 -0.71661782534E+02  0.14441705904E+03 -0.37595628276E+03  0.44361760059E+03  0.17164425709E+03 0.  0.
        -24    2    5    5    0    0 -0.14160084598E+02  0.14720809723E+03 -0.20709236458E+03  0.26514814095E+03  0.74468498694E+02 0.  0.
          2    1    4    4  501    0  0.57428503375E+02 -0.44060588944E+02 -0.11984300327E+03  0.14000612105E+03  0.00000000000E+00 0. -1.
         -1    1    4    4    0  501  0.28408799313E+02  0.17952521170E+02 -0.59117890920E+01  0.34121871945E+02  0.00000000000E+00 0.  1.
          5    1    3    3  502    0 -0.14175520153E+02 -0.11830899126E+03 -0.10413456683E+03  0.15831633142E+03  0.47000000000E+01 0. -1.
         11    1    6    6    0    0  0.82084478502E+01  0.94411335173E+02 -0.17607123445E+03  0.19995489098E+03  0.00000000000E+00 0. -1.
        -12    1    6    6    0    0 -0.22368532448E+02  0.52796762062E+02 -0.31021130129E+02  0.65193249977E+02  0.00000000000E+00 0.  1.
         -5    1    5    5    0  503 -0.57501697936E+02 -0.27910381971E+01 -0.16886391818E+03  0.17846945964E+03  0.47000000000E+01 0.  1.
<mgrwt>
<rscale>  2 0.23897233E+03</rscale>
<asrwt>0</asrwt>
<pdfrwt beam="1">  1       21 0.13093560E-01 0.24014602E+03</pdfrwt>
<pdfrwt beam="2">  1       21 0.10630059E+00 0.24014602E+03</pdfrwt>
<totfact> 0.34721188E+04</totfact>
</mgrwt>
</event>
<event>
12    1  0.2762290E-001  0.1752731E+03  0.7546771E-02  0.1172583E+00
         21   -1    0    0  504  503  0.00000000000E+00  0.00000000000E+00  0.12784612123E+03  0.12784612123E+03  0.00000000000E+00 0. -1.
         21   -1    0    0  502  504 -0.00000000000E+00 -0.00000000000E+00 -0.27144881086E+03  0.27144881086E+03  0.00000000000E+00 0. -1.
          6    2    1    2  502    0 -0.36226385345E+02  0.23044826268E+02 -0.33369177749E+01  0.17480626533E+03  0.16941865413E+03 0.  0.
         24    2    3    3    0    0 -0.46776315301E+02 -0.20227744232E+02 -0.51785900263E+02  0.10882740293E+03  0.81021224705E+02 0.  0.
         -6    2    1    2    0  503  0.36226385345E+02 -0.23044826268E+02 -0.14026577186E+03  0.22448866676E+03  0.16993310370E+03 0.  0.
        -24    2    5    5    0    0  0.51772185572E+02 -0.61445379883E+02 -0.14390217275E+03  0.18263669149E+03  0.78692006258E+02 0.  0.
          4    1    4    4  501    0 -0.21899904065E+02 -0.19577886565E+02  0.18194999717E+02  0.34553689458E+02  0.00000000000E+00 0. -1.
         -3    1    4    4    0  501 -0.24876411236E+02 -0.64985766665E+00 -0.69980899981E+02  0.74273713473E+02  0.00000000000E+00 0.  1.
          5    1    3    3  502    0  0.10549929955E+02  0.43272570500E+02  0.48448982488E+02  0.65978862402E+02  0.47000000000E+01 0. -1.
         13    1    6    6    0    0 -0.15455224390E+01 -0.16902111490E+02  0.55238549209E+01  0.17848893120E+02  0.00000000000E+00 0. -1.
        -14    1    6    6    0    0  0.53317708011E+02 -0.44543268393E+02 -0.14942602767E+03  0.16478779837E+03  0.00000000000E+00 0.  1.
         -5    1    5    5    0  503 -0.15545800226E+02  0.38400553616E+02  0.36364008846E+01  0.41851975271E+02  0.47000000000E+01 0.  1.
<mgrwt>
<rscale>  2 0.17514833E+03</rscale>
<asrwt>0</asrwt>
<pdfrwt beam="1">  1       21 0.19668634E-01 0.17527314E+03</pdfrwt>
<pdfrwt beam="2">  1       21 0.41761355E-01 0.17527314E+03</pdfrwt>
<totfact> 0.13223468E+05</totfact>
</mgrwt>
</event>
<event>
12    1  0.2762290E-001  0.2554549E+03  0.7546771E-02  0.1109950E+00
         21   -1    0    0  504  503  0.00000000000E+00  0.00000000000E+00  0.78115660309E+03  0.78115660309E+03  0.00000000000E+00 0.  1.
         21   -1    0    0  502  504 -0.00000000000E+00 -0.00000000000E+00 -0.88332136853E+02  0.88332136853E+02  0.00000000000E+00 0.  1.
          6    2    1    2  502    0  0.14899911331E+03  0.11326208945E+03  0.24395688969E+03  0.35302064208E+03  0.17343463620E+03 0.  0.
         24    2    3    3    0    0  0.62936325882E+02  0.22258047003E+02  0.10726239844E+02  0.88243065334E+02  0.56704361265E+02 0.  0.
         -6    2    1    2    0  503 -0.14899911331E+03 -0.11326208945E+03  0.44886757655E+03  0.51646809786E+03  0.17386246909E+03 0.  0.
        -24    2    5    5    0    0 -0.34159963624E+02 -0.20575448514E+01  0.22558440902E+03  0.24181933318E+03  0.80106976600E+02 0.  0.
          4    1    4    4  501    0  0.15231138032E+02  0.34554977868E+02 -0.28039257438E+00  0.37763907123E+02  0.00000000000E+00 0. -1.
         -3    1    4    4    0  501  0.47705187850E+02 -0.12296930865E+02  0.11006632418E+02  0.50479158211E+02  0.00000000000E+00 0.  1.
          5    1    3    3  502    0  0.86062787433E+02  0.91004042444E+02  0.23323064984E+03  0.26477757675E+03  0.47000000000E+01 0. -1.
         13    1    6    6    0    0 -0.17676222422E+02 -0.36530443980E+02  0.16710932007E+03  0.17196641251E+03  0.00000000000E+00 0. -1.
        -14    1    6    6    0    0 -0.16483741202E+02  0.34472899129E+02  0.58475088948E+02  0.69852920668E+02  0.00000000000E+00 0.  1.
         -5    1    5    5    0  503 -0.11483914969E+03 -0.11120454460E+03  0.22328316753E+03  0.27464876469E+03  0.47000000000E+01 0.  1.
<mgrwt>
<rscale>  2 0.25538210E+03</rscale>
<asrwt>0</asrwt>
<pdfrwt beam="1">  1       21 0.12017793E+00 0.25545488E+03</pdfrwt>
<pdfrwt beam="2">  1       21 0.13589560E-01 0.25545488E+03</pdfrwt>
<totfact> 0.23844345E+04</totfact>
</mgrwt>
</event>
<event>
12    1  0.2762290E-001  0.2393338E+03  0.7546771E-02  0.1122860E+00
         21   -1    0    0  504  503  0.00000000000E+00  0.00000000000E+00  0.22543097184E+03  0.22543097184E+03  0.00000000000E+00 0. -1.
         21   -1    0    0  502  504 -0.00000000000E+00 -0.00000000000E+00 -0.27030070879E+03  0.27030070879E+03  0.00000000000E+00 0. -1.
          6    2    1    2  502    0 -0.14121171978E+03  0.23426520220E+02 -0.10708492991E+03  0.24844362013E+03  0.17253260132E+03 0.  0.
         24    2    3    3    0    0 -0.44946665778E+02 -0.43848409808E+02 -0.24117213095E+02  0.10457350904E+03  0.80069301344E+02 0.  0.
         -6    2    1    2    0  503  0.14121171978E+03 -0.23426520220E+02  0.62215192965E+02  0.24728806050E+03  0.19181007006E+03 0.  0.
        -24    2    5    5    0    0  0.10691437372E+03  0.16070550616E+02  0.11197319550E+03  0.17493976842E+03  0.79855996382E+02 0.  0.
          4    1    4    4  501    0 -0.10523317471E+00 -0.54035327652E+02 -0.34120468134E+01  0.54143049157E+02  0.00000000000E+00 0. -1.
         -3    1    4    4    0  501 -0.44841432603E+02  0.10186917844E+02 -0.20705166281E+02  0.50430459881E+02  0.00000000000E+00 0.  1.
          5    1    3    3  502    0 -0.96265053997E+02  0.67274930028E+02 -0.82967716820E+02  0.14387011109E+03  0.47000000000E+01 0. -1.
         13    1    6    6    0    0  0.52263660764E+01  0.13152779032E+02  0.58152679531E+02  0.59850184922E+02  0.00000000000E+00 0. -1.
        -14    1    6    6    0    0  0.10168800765E+03  0.29177715845E+01  0.53820515967E+02  0.11508958349E+03  0.00000000000E+00 0.  1.
         -5    1    5    5    0  503  0.34297346054E+02 -0.39497070836E+02 -0.49758002533E+02  0.72348292081E+02  0.47000000000E+01 0.  1.
<mgrwt>
<rscale>  2 0.23545212E+03</rscale>
<asrwt>0</asrwt>
<pdfrwt beam="1">  1       21 0.34681688E-01 0.23933377E+03</pdfrwt>
<pdfrwt beam="2">  1       21 0.41584724E-01 0.23933377E+03</pdfrwt>
<totfact> 0.43647946E+04</totfact>
</mgrwt>
</event>
<event>
12    1  0.2762290E-001  0.2088305E+03  0.7546771E-02  0.1142578E+00
         21   -1    0    0  504  503  0.00000000000E+00  0.00000000000E+00  0.45880419793E+03  0.45880419793E+03  0.00000000000E+00 0. -1.
         21   -1    0    0  502  504 -0.00000000000E+00 -0.00000000000E+00 -0.10602588476E+03  0.10602588476E+03  0.00000000000E+00 0.  1.
          6    2    1    2  502    0 -0.84539504345E+02 -0.81537549041E+02  0.26817555566E+03  0.33989458046E+03  0.17266990901E+03 0.  0.
         24    2    3    3    0    0 -0.25595312057E+02 -0.10051404202E+03  0.11646224178E+03  0.17596305605E+03  0.81494482578E+02 0.  0.
         -6    2    1    2    0  503  0.84539504345E+02  0.81537549041E+02  0.84602757517E+02  0.22493550223E+03  0.17217158269E+03 0.  0.
        -24    2    5    5    0    0  0.92510140471E+02  0.86594497568E+02  0.10989184455E+02  0.15057051109E+03  0.80585256311E+02 0.  0.
          4    1    4    4  501    0 -0.12038228528E+02 -0.11290066766E+03  0.10066031029E+03  0.15173654067E+03  0.00000000000E+00 0. -1.
         -3    1    4    4    0  501 -0.13557083529E+02  0.12386625647E+02  0.15801931490E+02  0.24226515382E+02  0.00000000000E+00 0.  1.
          5    1    3    3  502    0 -0.58944192288E+02  0.18976492975E+02  0.15171331387E+03  0.16393152441E+03  0.47000000000E+01 0. -1.
         11    1    6    6    0    0  0.91344654552E+02  0.37842027877E+02 -0.56744817430E+01  0.99035674038E+02  0.00000000000E+00 0. -1.
        -12    1    6    6    0    0  0.11654859187E+01  0.48752469691E+02  0.16663666198E+02  0.51534837048E+02  0.00000000000E+00 0.  1.
         -5    1    5    5    0  503 -0.79706361256E+01 -0.50569485274E+01  0.73613573062E+02  0.74364991142E+02  0.47000000000E+01 0.  1.
<mgrwt>
<rscale>  2 0.20872751E+03</rscale>
<asrwt>0</asrwt>
<pdfrwt beam="1">  1       21 0.70585260E-01 0.20883055E+03</pdfrwt>
<pdfrwt beam="2">  1       21 0.16311675E-01 0.20883055E+03</pdfrwt>
<totfact> 0.60766426E+04</totfact>
</mgrwt>
</event>
<event>
12    1  0.2762290E-001  0.2286602E+03  0.7546771E-02  0.1127869E+00
         21   -1    0    0  504  503  0.00000000000E+00  0.00000000000E+00  0.69085991857E+03  0.69085991857E+03  0.00000000000E+00 0. -1.
         21   -1    0    0  502  504 -0.00000000000E+00 -0.00000000000E+00 -0.78833847277E+02  0.78833847277E+02  0.00000000000E+00 0. -1.
          6    2    1    2  502    0 -0.97768277447E+02 -0.11200150472E+03  0.22187692344E+03  0.31747495178E+03  0.17163333801E+03 0.  0.
         24    2    3    3    0    0 -0.94506523783E+01 -0.43414531792E+02  0.25533488315E+02  0.91472716680E+02  0.75770459086E+02 0.  0.
         -6    2    1    2    0  503  0.97768277447E+02  0.11200150472E+03  0.39014914785E+03  0.45221881406E+03  0.17373118630E+03 0.  0.
        -24    2    5    5    0    0  0.10237311514E+03  0.13046549346E+03  0.24905676582E+03  0.30977137226E+03  0.80171882752E+02 0.  0.
          2    1    4    4  501    0 -0.12724600971E+02 -0.14113218427E+02 -0.25938569066E+02  0.32154436232E+02  0.00000000000E+00 0. -1.
         -1    1    4    4    0  501  0.32739485922E+01 -0.29301313366E+02  0.51472057381E+02  0.59318280448E+02  0.00000000000E+00 0.  1.
          5    1    3    3  502    0 -0.88317625068E+02 -0.68586972924E+02  0.19634343513E+03  0.22600223510E+03  0.47000000000E+01 0. -1.
         11    1    6    6    0    0  0.10299950109E+03  0.78142591718E+02  0.15233759549E+03  0.19980466677E+03  0.00000000000E+00 0. -1.
        -12    1    6    6    0    0 -0.62638595079E+00  0.52322901743E+02  0.96719170333E+02  0.10996670549E+03  0.00000000000E+00 0.  1.
         -5    1    5    5    0  503 -0.46048376900E+01 -0.18463988744E+02  0.14109238202E+03  0.14244744180E+03  0.47000000000E+01 0.  1.
<mgrwt>
<rscale>  2 0.22826173E+03</rscale>
<asrwt>0</asrwt>
<pdfrwt beam="1">  1       21 0.10628614E+00 0.22866022E+03</pdfrwt>
<pdfrwt beam="2">  1       21 0.12128285E-01 0.22866022E+03</pdfrwt>
<totfact> 0.40095505E+04</totfact>
</mgrwt>
</event>
<event>
12    1  0.2762290E-001  0.2116551E+03  0.7546771E-02  0.1140771E+00
         21   -1    0    0  504  503  0.00000000000E+00  0.00000000000E+00  0.96210797697E+02  0.96210797697E+02  0.00000000000E+00 0. -1.
         21   -1    0    0  502  504 -0.00000000000E+00 -0.00000000000E+00 -0.58175454311E+03  0.58175454311E+03  0.00000000000E+00 0.  1.
          6    2    1    2  502    0  0.10125231047E+03 -0.64877651093E+02 -0.86491987960E+02  0.22625725044E+03  0.17102730603E+03 0.  0.
         24    2    3    3    0    0  0.97128647536E+02 -0.93397400244E+02 -0.25780586329E+02  0.15889001081E+03  0.80152032782E+02 0.  0.
         -6    2    1    2    0  503 -0.10125231047E+03  0.64877651093E+02 -0.39905175746E+03  0.45170809037E+03  0.17417449236E+03 0.  0.
        -24    2    5    5    0    0  0.75942175391E+01  0.35721970044E+02 -0.11074168423E+03  0.14212383896E+03  0.81251053475E+02 0.  0.
          4    1    4    4  501    0  0.69340070483E+02 -0.15600309821E+02 -0.27638253406E+02  0.76258036248E+02  0.00000000000E+00 0. -1.
         -3    1    4    4    0  501  0.27788577053E+02 -0.77797090423E+02  0.18576670769E+01  0.82631974561E+02  0.00000000000E+00 0.  1.
          5    1    3    3  502    0  0.41236629325E+01  0.28519749151E+02 -0.60711401631E+02  0.67367239632E+02  0.47000000000E+01 0. -1.
         11    1    6    6    0    0 -0.54674910347E+01 -0.23042387648E+02 -0.12175767546E+02  0.26628826524E+02  0.00000000000E+00 0. -1.
        -12    1    6    6    0    0  0.13061708574E+02  0.58764357692E+02 -0.98565916683E+02  0.11549501243E+03  0.00000000000E+00 0.  1.
         -5    1    5    5    0  503 -0.10884652801E+03  0.29155681048E+02 -0.28831007323E+03  0.30958425141E+03  0.47000000000E+01 0.  1.
<mgrwt>
<rscale>  2 0.21100660E+03</rscale>
<asrwt>0</asrwt>
<pdfrwt beam="1">  1       21 0.14801661E-01 0.21165513E+03</pdfrwt>
<pdfrwt beam="2">  1       21 0.89500698E-01 0.21165513E+03</pdfrwt>
<totfact> 0.42350945E+04</totfact>
</mgrwt>
</event>
<event>
12    1  0.2762290E-001  0.1849732E+03  0.7546771E-02  0.1163519E+00
         21   -1    0    0  504  503  0.00000000000E+00  0.00000000000E+00  0.44269793331E+03  0.44269793331E+03  0.00000000000E+00 0. -1.
         21   -1    0    0  502  504 -0.00000000000E+00 -0.00000000000E+00 -0.15994960717E+03  0.15994960717E+03  0.00000000000E+00 0. -1.
          6    2    1    2  502    0 -0.24780667935E+02  0.62438331845E+02 -0.76620947558E+02  0.19846766243E+03  0.17031152820E+03 0.  0.
         24    2    3    3    0    0  0.15236944657E+02 -0.15338677366E+02 -0.10445342792E+02  0.88686183363E+02  0.85373850960E+02 0.  0.
         -6    2    1    2    0  503  0.24780667935E+02 -0.62438331845E+02  0.35936927371E+03  0.40417987805E+03  0.17234405169E+03 0.  0.
        -24    2    5    5    0    0 -0.12641030862E+02 -0.99305272841E+02  0.21727288682E+03  0.25261131916E+03  0.81139622529E+02 0.  0.
          2    1    4    4  501    0 -0.38615620291E+01 -0.48788373378E+02 -0.11009821892E+02  0.50164062996E+02  0.00000000000E+00 0. -1.
         -1    1    4    4    0  501  0.19098506686E+02  0.33449696012E+02  0.56447910035E+00  0.38522120367E+02  0.00000000000E+00 0.  1.
          5    1    3    3  502    0 -0.40017612592E+02  0.77777009211E+02 -0.66175604766E+02  0.10978147906E+03  0.47000000000E+01 0. -1.
         13    1    6    6    0    0 -0.39851946183E+02 -0.45927550374E+02  0.15351999504E+03  0.16512391219E+03  0.00000000000E+00 0. -1.
        -14    1    6    6    0    0  0.27210915321E+02 -0.53377722467E+02  0.63752891773E+02  0.87487406967E+02  0.00000000000E+00 0.  1.
         -5    1    5    5    0  503  0.37421698797E+02  0.36866940996E+02  0.14209638689E+03  0.15156855890E+03  0.47000000000E+01 0.  1.
<mgrwt>
<rscale>  2 0.18449835E+03</rscale>
<asrwt>0</asrwt>
<pdfrwt beam="1">  1       21 0.68107374E-01 0.18497324E+03</pdfrwt>
<pdfrwt beam="2">  1       21 0.24607632E-01 0.18497324E+03</pdfrwt>
<totfact> 0.30850111E+04</totfact>
</mgrwt>
</event>
<event>
12    1  0.2762290E-001  0.2016404E+03  0.7546771E-02  0.1149028E+00
         21   -1    0    0  504  503  0.00000000000E+00  0.00000000000E+00  0.29900743234E+03  0.29900743234E+03  0.00000000000E+00 0.  1.
         21   -1    0    0  502  504 -0.00000000000E+00 -0.00000000000E+00 -0.13386029584E+03  0.13386029584E+03  0.00000000000E+00 0.  1.
          6    2    1    2  502    0 -0.60102807631E+02 -0.77490640426E+02  0.84441658302E+02  0.21860748584E+03  0.17618652721E+03 0.  0.
         24    2    3    3    0    0 -0.10449409393E+03 -0.79149643397E+02  0.82722814907E+02  0.17390420842E+03  0.78841156025E+02 0.  0.
         -6    2    1    2    0  503  0.60102807631E+02  0.77490640426E+02  0.80705478198E+02  0.21426024234E+03  0.17255993277E+03 0.  0.
        -24    2    5    5    0    0  0.11980768306E+02 -0.24787849920E+02  0.31369664405E+02  0.90839284720E+02  0.80682981419E+02 0.  0.
          4    1    4    4  501    0  0.51511194502E+01 -0.20884858127E+02  0.34597218874E+02  0.40739156648E+02  0.00000000000E+00 0. -1.
         -3    1    4    4    0  501 -0.10964521338E+03 -0.58264785269E+02  0.48125596033E+02  0.13316505177E+03  0.00000000000E+00 0.  1.
          5    1    3    3  502    0  0.44391286294E+02  0.16590029711E+01  0.17188433946E+01  0.44703277422E+02  0.47000000000E+01 0. -1.
         11    1    6    6    0    0  0.19875354378E+02 -0.18688352778E+02 -0.22925527832E+02  0.35635152133E+02  0.00000000000E+00 0. -1.
        -12    1    6    6    0    0 -0.78945860719E+01 -0.60994971427E+01  0.54295192237E+02  0.55204132587E+02  0.00000000000E+00 0.  1.
         -5    1    5    5    0  503  0.48122039325E+02  0.10227849035E+03  0.49335813792E+02  0.12342095762E+03  0.47000000000E+01 0.  1.
<mgrwt>
<rscale>  2 0.20084544E+03</rscale>
<asrwt>0</asrwt>
<pdfrwt beam="1">  1       21 0.46001143E-01 0.20164037E+03</pdfrwt>
<pdfrwt beam="2">  1       21 0.20593892E-01 0.20164037E+03</pdfrwt>
<totfact> 0.98613606E+04</totfact>
</mgrwt>
</event>
<event>
12    1  0.2762290E-001  0.2105544E+03  0.7546771E-02  0.1141132E+00
         21   -1    0    0  504  503  0.00000000000E+00  0.00000000000E+00  0.21081706665E+03  0.21081706665E+03  0.00000000000E+00 0.  1.
         21   -1    0    0  502  504 -0.00000000000E+00 -0.00000000000E+00 -0.36987600069E+03  0.36987600069E+03  0.00000000000E+00 0.  1.
          6    2    1    2  502    0  0.10425977452E+02 -0.11934931283E+03 -0.27025867866E+03  0.34259727831E+03  0.17314786233E+03 0.  0.
         24    2    3    3    0    0  0.44470430669E+02 -0.87850448922E+02 -0.87019805920E+02  0.15352116213E+03  0.79378712644E+02 0.  0.
         -6    2    1    2    0  503 -0.10425977452E+02  0.11934931283E+03  0.11119974463E+03  0.23809578903E+03  0.17312210162E+03 0.  0.
        -24    2    5    5    0    0  0.52774873834E+02  0.55148920988E+02  0.25277458871E+02  0.11351341826E+03  0.80123376142E+02 0.  0.
          2    1    4    4  501    0  0.66987537679E+02 -0.55361152532E+02 -0.57929837173E+02  0.10444162699E+03  0.00000000000E+00 0. -1.
         -1    1    4    4    0  501 -0.22517107010E+02 -0.32489296390E+02 -0.29089968747E+02  0.49079535141E+02  0.00000000000E+00 0.  1.
          5    1    3    3  502    0 -0.34044453217E+02 -0.31498863910E+02 -0.18323887274E+03  0.18907611617E+03  0.47000000000E+01 0. -1.
         13    1    6    6    0    0  0.28648817198E+02  0.70001821794E+01  0.46963881042E+02  0.55455959102E+02  0.00000000000E+00 0. -1.
        -14    1    6    6    0    0  0.24126056636E+02  0.48148738808E+02 -0.21686422171E+02  0.58057459161E+02  0.00000000000E+00 0.  1.
         -5    1    5    5    0  503 -0.63200851286E+02  0.64200391844E+02  0.85922285757E+02  0.12458237077E+03  0.47000000000E+01 0.  1.
<mgrwt>
<rscale>  2 0.21054907E+03</rscale>
<asrwt>0</asrwt>
<pdfrwt beam="1">  1       21 0.32433395E-01 0.21055437E+03</pdfrwt>
<pdfrwt beam="2">  1       21 0.56904000E-01 0.21055437E+03</pdfrwt>
<totfact> 0.26279112E+04</totfact>
</mgrwt>
</event>
<event>
12    1  0.2762290E-001  0.2371961E+03  0.7546771E-02  0.1121852E+00
         21   -1    0    0  504  503  0.00000000000E+00  0.00000000000E+00  0.72478456419E+02  0.72478456419E+02  0.00000000000E+00 0.  1.
         21   -1    0    0  502  504 -0.00000000000E+00 -0.00000000000E+00 -0.91791451509E+03  0.91791451509E+03  0.00000000000E+00 0.  1.
          6    2    1    2  502    0  0.15832493848E+03  0.23886282333E+02 -0.22506324439E+03  0.32622097434E+03  0.17357799255E+03 0.  0.
         24    2    3    3    0    0  0.16574213458E+03  0.53090280929E+02 -0.22607577308E+03  0.29570862362E+03  0.77745107927E+02 0.  0.
         -6    2    1    2    0  503 -0.15832493848E+03 -0.23886282333E+02 -0.62037281428E+03  0.66417199717E+03  0.17499906427E+03 0.  0.
        -24    2    5    5    0    0 -0.44639875891E+02  0.36491184523E+02 -0.36309749371E+03  0.37645266772E+03  0.80947489346E+02 0.  0.
          4    1    4    4  501    0  0.11425875706E+03  0.68769099118E+02 -0.18475929530E+03  0.22786015395E+03  0.00000000000E+00 0. -1.
         -3    1    4    4    0  501  0.51483377521E+02 -0.15678818189E+02 -0.41316477781E+02  0.67848469674E+02  0.00000000000E+00 0.  1.
          5    1    3    3  502    0 -0.74171960978E+01 -0.29203998596E+02  0.10125286946E+01  0.30512350718E+02  0.47000000000E+01 0. -1.
         11    1    6    6    0    0 -0.28429123273E+02 -0.17263131567E+02 -0.22392620533E+03  0.22638280897E+03  0.00000000000E+00 0. -1.
        -12    1    6    6    0    0 -0.16210752617E+02  0.53754316090E+02 -0.13917128838E+03  0.15006985876E+03  0.00000000000E+00 0.  1.
         -5    1    5    5    0  503 -0.11368506259E+03 -0.60377466856E+02 -0.25727532057E+03  0.28771932944E+03  0.47000000000E+01 0.  1.
<mgrwt>
<rscale>  2 0.23693409E+03</rscale>
<asrwt>0</asrwt>
<pdfrwt beam="1">  1       21 0.11150532E-01 0.23719615E+03</pdfrwt>
<pdfrwt beam="2">  1       21 0.14121761E+00 0.23719615E+03</pdfrwt>
<totfact> 0.22784837E+04</totfact>
</mgrwt>
</event>
<event>
12    1  0.2762290E-001  0.2350857E+03  0.7546771E-02  0.1124892E+00
         21   -1    0    0  504  503  0.00000000000E+00  0.00000000000E+00  0.20599962970E+04  0.20599962970E+04  0.00000000000E+00 0. -1.
         21   -1    0    0  502  504 -0.00000000000E+00 -0.00000000000E+00 -0.30610078395E+02  0.30610078395E+02  0.00000000000E+00 0. -1.
          6    2    1    2  502    0 -0.14431578914E+03  0.10074036733E+02  0.14153064140E+04  0.14330660373E+04  0.17221349729E+03 0.  0.
         24    2    3    3    0    0 -0.85880640557E+02 -0.48008579070E+02  0.10955291144E+04  0.11028117895E+04  0.79558120672E+02 0.  0.
         -6    2    1    2    0  503  0.14431578914E+03 -0.10074036733E+02  0.61407980465E+03  0.65754033811E+03  0.18530179854E+03 0.  0.
        -24    2    5    5    0    0  0.12867273172E+03 -0.10670208863E+01  0.24293752352E+03  0.28592963532E+03  0.78608559319E+02 0.  0.
          2    1    4    4  501    0 -0.90782470193E+02 -0.31870500085E+02  0.10474604262E+04  0.10518700158E+04  0.00000000000E+00 0. -1.
         -1    1    4    4    0  501  0.49018296361E+01 -0.16138078985E+02  0.48068688173E+02  0.50941773721E+02  0.00000000000E+00 0.  1.
          5    1    3    3  502    0 -0.58435148582E+02  0.58082615803E+02  0.31977729962E+03  0.33025424782E+03  0.47000000000E+01 0. -1.
         13    1    6    6    0    0  0.67386899161E+02 -0.29831651809E+02  0.17562723904E+03  0.19046219762E+03  0.00000000000E+00 0. -1.
        -14    1    6    6    0    0  0.61285832561E+02  0.28764630922E+02  0.67310284477E+02  0.95467437701E+02  0.00000000000E+00 0.  1.
         -5    1    5    5    0  503  0.15643057417E+02 -0.90070158471E+01  0.37114228113E+03  0.37161070278E+03  0.47000000000E+01 0.  1.
<mgrwt>
<rscale>  2 0.23250028E+03</rscale>
<asrwt>0</asrwt>
<pdfrwt beam="1">  1       21 0.31692240E+00 0.23508571E+03</pdfrwt>
<pdfrwt beam="2">  1       21 0.47092444E-02 0.23508571E+03</pdfrwt>
<totfact> 0.77626134E+03</totfact>
</mgrwt>
</event>
<event>
12    1  0.2762290E-001  0.2093425E+03  0.7546771E-02  0.1142175E+00
         21   -1    0    0  504  503  0.00000000000E+00  0.00000000000E+00  0.10867307211E+03  0.10867307211E+03  0.00000000000E+00 0. -1.
         21   -1    0    0  502  504 -0.00000000000E+00 -0.00000000000E+00 -0.48068631366E+03  0.48068631366E+03  0.00000000000E+00 0.  1.
          6    2    1    2  502    0 -0.64756241939E+02 -0.98741553539E+02 -0.30507805565E+03  0.36999580590E+03  0.17286124806E+03 0.  0.
         24    2    3    3    0    0  0.17261382418E+02 -0.76680834181E+02 -0.10808760360E+03  0.15542438599E+03  0.79346733112E+02 0.  0.
         -6    2    1    2    0  503  0.64756241939E+02  0.98741553539E+02 -0.66935185900E+02  0.21936357986E+03  0.17232758280E+03 0.  0.
        -24    2    5    5    0    0  0.82350151707E+02  0.90376683514E+02 -0.10250199918E+03  0.17853950708E+03  0.80126171388E+02 0.  0.
          2    1    4    4  501    0  0.36438888338E+02 -0.89407442340E+01 -0.57787042366E+02  0.68898996772E+02  0.00000000000E+00 0. -1.
         -1    1    4    4    0  501 -0.19177505919E+02 -0.67740089947E+02 -0.50300561233E+02  0.86525389220E+02  0.00000000000E+00 0.  1.
          5    1    3    3  502    0 -0.82017624357E+02 -0.22060719358E+02 -0.19699045205E+03  0.21457141991E+03  0.47000000000E+01 0. -1.
         11    1    6    6    0    0  0.40879514427E+02  0.95160605297E+02 -0.81601811762E+02  0.13185420427E+03  0.00000000000E+00 0. -1.
        -12    1    6    6    0    0  0.41470637280E+02 -0.47839217838E+01 -0.20900187423E+02  0.46685302809E+02  0.00000000000E+00 0.  1.
         -5    1    5    5    0  503 -0.17593909768E+02  0.83648700255E+01  0.35566813285E+02  0.40824072784E+02  0.47000000000E+01 0.  1.
<mgrwt>
<rscale>  2 0.20923229E+03</rscale>
<asrwt>0</asrwt>
<pdfrwt beam="1">  1       21 0.16718934E-01 0.20934249E+03</pdfrwt>
<pdfrwt beam="2">  1       21 0.73951741E-01 0.20934249E+03</pdfrwt>
<totfact> 0.52348020E+04</totfact>
</mgrwt>
</event>
<event>
12    1  0.2762290E-001  0.2824220E+03  0.7546771E-02  0.1094508E+00
         21   -1    0    0  504  503  0.00000000000E+00  0.00000000000E+00  0.16193601297E+03  0.16193601297E+03  0.00000000000E+00 0. -1.
         21   -1    0    0  502  504 -0.00000000000E+00 -0.00000000000E+00 -0.87892797260E+03  0.87892797260E+03  0.00000000000E+00 0. -1.
          6    2    1    2  502    0 -0.86294142181E+02  0.20447897746E+03 -0.70397252035E+03  0.75814200566E+03  0.17304236514E+03 0.  0.
         24    2    3    3    0    0 -0.81064387257E+02  0.22788279596E+03 -0.61142707581E+03  0.66242451320E+03  0.80381360291E+02 0.  0.
         -6    2    1    2    0  503  0.86294142181E+02 -0.20447897746E+03 -0.13019439273E+02  0.28272197991E+03  0.17465360267E+03 0.  0.
        -24    2    5    5    0    0  0.89183791053E+02 -0.17431651441E+03 -0.57708607268E+02  0.22852478456E+03  0.10272924618E+03 0.  0.
          2    1    4    4  501    0 -0.50321049780E+02  0.21499766344E+03 -0.51288496642E+03  0.55839698433E+03  0.00000000000E+00 0. -1.
         -1    1    4    4    0  501 -0.30743337477E+02  0.12885132522E+02 -0.98542109385E+02  0.10402752886E+03  0.00000000000E+00 0.  1.
          5    1    3    3  502    0 -0.52297549241E+01 -0.23403818494E+02 -0.92545444547E+02  0.95717492461E+02  0.47000000000E+01 0. -1.
         11    1    6    6    0    0  0.98872228702E+02 -0.14396515410E+03 -0.15068013000E+02  0.17529611581E+03  0.00000000000E+00 0. -1.
        -12    1    6    6    0    0 -0.96884376484E+01 -0.30351360317E+02 -0.42640594268E+02  0.53228668748E+02  0.00000000000E+00 0.  1.
         -5    1    5    5    0  503 -0.28896488717E+01 -0.30162463051E+02  0.44689167995E+02  0.54197195352E+02  0.47000000000E+01 0.  1.
<mgrwt>
<rscale>  2 0.28217333E+03</rscale>
<asrwt>0</asrwt>
<pdfrwt beam="1">  1       21 0.24913233E-01 0.28242205E+03</pdfrwt>
<pdfrwt beam="2">  1       21 0.13521969E+00 0.28242205E+03</pdfrwt>
<totfact> 0.56112680E+03</totfact>
</mgrwt>
</event>
<event>
12    1  0.2762290E-001  0.1766344E+03  0.7546771E-02  0.1171137E+00
         21   -1    0    0  504  503  0.00000000000E+00  0.00000000000E+00  0.31236880589E+03  0.31236880589E+03  0.00000000000E+00 0.  1.
         21   -1    0    0  502  504 -0.00000000000E+00 -0.00000000000E+00 -0.10171568089E+03  0.10171568089E+03  0.00000000000E+00 0.  1.
          6    2    1    2  502    0  0.28853405203E+02  0.27623884672E+02  0.76938760432E+02  0.19266365806E+03  0.17205846183E+03 0.  0.
         24    2    3    3    0    0  0.43102660350E+02  0.52299962675E+02  0.10771776881E+03  0.15045717213E+03  0.80256572960E+02 0.  0.
         -6    2    1    2    0  503 -0.28853405203E+02 -0.27623884672E+02  0.13371436457E+03  0.22142082871E+03  0.17190710893E+03 0.  0.
        -24    2    5    5    0    0  0.16194672188E+02  0.27004187229E+02  0.12124014357E+02  0.80637808499E+02  0.73239135033E+02 0.  0.
          4    1    4    4  501    0 -0.12455728246E+02 -0.13409849619E+02  0.25941945488E+02  0.31748287649E+02  0.00000000000E+00 0. -1.
         -3    1    4    4    0  501  0.55558388596E+02  0.65709812294E+02  0.81775823324E+02  0.11870888448E+03  0.00000000000E+00 0.  1.
          5    1    3    3  502    0 -0.14249255147E+02 -0.24676078003E+02 -0.30779008380E+02  0.42206485932E+02  0.47000000000E+01 0. -1.
         13    1    6    6    0    0  0.26645595038E+02 -0.16856837635E+02 -0.59046424436E+01  0.32078115785E+02  0.00000000000E+00 0. -1.
        -14    1    6    6    0    0 -0.10450922850E+02  0.43861024863E+02  0.18028656801E+02  0.48559692714E+02  0.00000000000E+00 0.  1.
         -5    1    5    5    0  503 -0.45048077391E+02 -0.54628071900E+02  0.12159035021E+03  0.14078302021E+03  0.47000000000E+01 0.  1.
<mgrwt>
<rscale>  2 0.17659753E+03</rscale>
<asrwt>0</asrwt>
<pdfrwt beam="1">  1       21 0.48056739E-01 0.17663440E+03</pdfrwt>
<pdfrwt beam="2">  1       21 0.15648566E-01 0.17663440E+03</pdfrwt>
<totfact> 0.15104328E+05</totfact>
</mgrwt>
</event>
<event>
12    1  0.2762290E-001  0.1876951E+03  0.7546771E-02  0.1161188E+00
         21   -1    0    0  504  503  0.00000000000E+00  0.00000000000E+00  0.58749985238E+02  0.58749985238E+02  0.00000000000E+00 0. -1.
         21   -1    0    0  502  504 -0.00000000000E+00 -0.00000000000E+00 -0.13044773848E+04  0.13044773848E+04  0.00000000000E+00 0.  1.
          6    2    1    2  502    0 -0.63007042867E+02  0.15804453683E+02 -0.11248980631E+04  0.11400028829E+04  0.17317982669E+03 0.  0.
         24    2    3    3    0    0 -0.23993796674E+02 -0.30035666628E+02 -0.96000745921E+03  0.96440575516E+03  0.83584061256E+02 0.  0.
         -6    2    1    2    0  503  0.63007042867E+02 -0.15804453683E+02 -0.12082933639E+03  0.22322448710E+03  0.17609592528E+03 0.  0.
        -24    2    5    5    0    0  0.46372709320E+02  0.51909085398E+02 -0.34769753009E+02  0.11236346456E+03  0.81065597675E+02 0.  0.
          2    1    4    4  501    0 -0.46020380689E+02 -0.17140483844E+02 -0.85237026846E+03  0.85378378187E+03  0.00000000000E+00 0. -1.
         -1    1    4    4    0  501  0.22026584014E+02 -0.12895182784E+02 -0.10763719075E+03  0.11062197329E+03  0.00000000000E+00 0.  1.
          5    1    3    3  502    0 -0.39013246193E+02  0.45840120311E+02 -0.16489060392E+03  0.17559712774E+03  0.47000000000E+01 0. -1.
         13    1    6    6    0    0  0.34302766534E+02  0.10327811448E+02  0.21180366998E+02  0.41616720526E+02  0.00000000000E+00 0. -1.
        -14    1    6    6    0    0  0.12069942786E+02  0.41581273950E+02 -0.55950120007E+02  0.70746744031E+02  0.00000000000E+00 0.  1.
         -5    1    5    5    0  503  0.16634333548E+02 -0.67713539081E+02 -0.86059583381E+02  0.11086102254E+03  0.47000000000E+01 0.  1.
<mgrwt>
<rscale>  2 0.18700803E+03</rscale>
<asrwt>0</asrwt>
<pdfrwt beam="1">  1       21 0.90384592E-02 0.18769508E+03</pdfrwt>
<pdfrwt beam="2">  1       21 0.20068883E+00 0.18769508E+03</pdfrwt>
<totfact> 0.12938568E+04</totfact>
</mgrwt>
</event>
<event>
12    1  0.2762290E-001  0.1826282E+03  0.7546771E-02  0.1165419E+00
         21   -1    0    0  504  503  0.00000000000E+00  0.00000000000E+00  0.92826957301E+02  0.92826957301E+02  0.00000000000E+00 0. -1.
         21   -1    0    0  502  504 -0.00000000000E+00 -0.00000000000E+00 -0.36931779792E+03  0.36931779792E+03  0.00000000000E+00 0.  1.
          6    2    1    2  502    0 -0.58261161590E+02  0.78288589531E+01 -0.17815408600E+03  0.25472446178E+03  0.17230791939E+03 0.  0.
         24    2    3    3    0    0  0.32050240505E+02  0.19729104870E+02 -0.10861384508E+03  0.14002616053E+03  0.79961883383E+02 0.  0.
         -6    2    1    2    0  503  0.58261161590E+02 -0.78288589531E+01 -0.98336754620E+02  0.20742029345E+03  0.17290866619E+03 0.  0.
        -24    2    5    5    0    0  0.75301132141E+01  0.43455897825E+02 -0.89040605340E+01  0.92424370398E+02  0.80733291080E+02 0.  0.
          4    1    4    4  501    0  0.37088558883E+02  0.40175532442E+02 -0.38641284637E+02  0.66953592028E+02  0.00000000000E+00 0. -1.
         -3    1    4    4    0  501 -0.50383183781E+01 -0.20446427572E+02 -0.69972560444E+02  0.73072568502E+02  0.00000000000E+00 0.  1.
          5    1    3    3  502    0 -0.90311402095E+02 -0.11900245917E+02 -0.69540240922E+02  0.11469830125E+03  0.47000000000E+01 0. -1.
         13    1    6    6    0    0  0.21585666526E+02  0.48122079203E+02 -0.34379218132E+02  0.62957177077E+02  0.00000000000E+00 0. -1.
        -14    1    6    6    0    0 -0.14055553312E+02 -0.46661813782E+01  0.25475157598E+02  0.29467193320E+02  0.00000000000E+00 0.  1.
         -5    1    5    5    0  503  0.50731048376E+02 -0.51284756778E+02 -0.89432694086E+02  0.11499592305E+03  0.47000000000E+01 0.  1.
<mgrwt>
<rscale>  2 0.18248587E+03</rscale>
<asrwt>0</asrwt>
<pdfrwt beam="1">  1       21 0.14281071E-01 0.18262820E+03</pdfrwt>
<pdfrwt beam="2">  1       21 0.56818121E-01 0.18262820E+03</pdfrwt>
<totfact> 0.12530645E+05</totfact>
</mgrwt>
</event>
<event>
12    1  0.2762290E-001  0.1919585E+03  0.7546771E-02  0.1157100E+00
         21   -1    0    0  504  503  0.00000000000E+00  0.00000000000E+00  0.29098268505E+03  0.29098268505E+03  0.00000000000E+00 0.  1.
         21   -1    0    0  502  504 -0.00000000000E+00 -0.00000000000E+00 -0.15089813159E+04  0.15089813159E+04  0.00000000000E+00 0.  1.
          6    2    1    2  502    0  0.77624882540E+02 -0.37619503943E+02 -0.14709843097E+04  0.14834564033E+04  0.17148531043E+03 0.  0.
         24    2    3    3    0    0 -0.23163369525E+02 -0.29808887109E+02 -0.81712222397E+03  0.82180922041E+03  0.79098384387E+02 0.  0.
         -6    2    1    2    0  503 -0.77624882540E+02  0.37619503943E+02  0.25298567887E+03  0.31650759762E+03  0.16951240714E+03 0.  0.
        -24    2    5    5    0    0  0.13254172814E+02 -0.31711134123E+00  0.76631818916E+02  0.11446561337E+03  0.83989090464E+02 0.  0.
          4    1    4    4  501    0 -0.43458503830E+02 -0.92858854131E+01 -0.24762343031E+03  0.25157947544E+03  0.00000000000E+00 0. -1.
         -3    1    4    4    0  501  0.20295134305E+02 -0.20523001696E+02 -0.56949879366E+03  0.57022974497E+03  0.00000000000E+00 0.  1.
          5    1    3    3  502    0  0.10078825206E+03 -0.78106168334E+01 -0.65386208576E+03  0.66164718294E+03  0.47000000000E+01 0. -1.
         11    1    6    6    0    0 -0.16562257908E+02  0.30461686090E+02  0.11556960956E+02  0.36548406983E+02  0.00000000000E+00 0. -1.
        -12    1    6    6    0    0  0.29816430722E+02 -0.30778797432E+02  0.65074857960E+02  0.77917206385E+02  0.00000000000E+00 0.  1.
         -5    1    5    5    0  503 -0.90879055354E+02  0.37936615284E+02  0.17635385995E+03  0.20204198425E+03  0.47000000000E+01 0.  1.
<mgrwt>
<rscale>  2 0.19151686E+03</rscale>
<asrwt>0</asrwt>
<pdfrwt beam="1">  1       21 0.44766567E-01 0.19195849E+03</pdfrwt>
<pdfrwt beam="2">  1       21 0.23215097E+00 0.19195849E+03</pdfrwt>
<totfact> 0.40692948E+02</totfact>
</mgrwt>
</event>
<event>
12    1  0.2762290E-001  0.2256630E+03  0.7546771E-02  0.1130664E+00
         21   -1    0    0  504  503  0.00000000000E+00  0.00000000000E+00  0.12367567104E+04  0.12367567104E+04  0.00000000000E+00 0. -1.
         21   -1    0    0  502  504 -0.00000000000E+00 -0.00000000000E+00 -0.55193772707E+03  0.55193772707E+03  0.00000000000E+00 0.  1.
          6    2    1    2  502    0  0.42619043110E+02  0.13863657046E+03 -0.51899465950E+03  0.56391237753E+03  0.16614822129E+03 0.  0.
         24    2    3    3    0    0  0.12430637864E+02  0.13527851128E+03 -0.26651090313E+03  0.30956467535E+03  0.79670762297E+02 0.  0.
         -6    2    1    2    0  503 -0.42619043110E+02 -0.13863657046E+03  0.12038136428E+04  0.12247820599E+04  0.17287951354E+03 0.  0.
        -24    2    5    5    0    0 -0.86104221893E+02 -0.11634878082E+03  0.10590314240E+04  0.10719040458E+04  0.80496896893E+02 0.  0.
          2    1    4    4  501    0 -0.14629756642E+01  0.11786773860E+03 -0.14914174854E+03  0.19010051357E+03  0.00000000000E+00 0. -1.
         -1    1    4    4    0  501  0.13893613529E+02  0.17410772689E+02 -0.11736915459E+03  0.11946416179E+03  0.00000000000E+00 0.  1.
          5    1    3    3  502    0  0.30188405246E+02  0.33580591716E+01 -0.25248375637E+03  0.25434770218E+03  0.47000000000E+01 0. -1.
         11    1    6    6    0    0  0.12557707372E+02 -0.15602075691E+02  0.23893415012E+03  0.23977207693E+03  0.00000000000E+00 0. -1.
        -12    1    6    6    0    0 -0.98661929265E+02 -0.10074670513E+03  0.82009727393E+03  0.83213196885E+03  0.00000000000E+00 0.  1.
         -5    1    5    5    0  503  0.43485178782E+02 -0.22287789633E+02  0.14478221878E+03  0.15287801416E+03  0.47000000000E+01 0.  1.
<mgrwt>
<rscale>  2 0.22437343E+03</rscale>
<asrwt>0</asrwt>
<pdfrwt beam="1">  1       21 0.19027026E+00 0.22566304E+03</pdfrwt>
<pdfrwt beam="2">  1       21 0.84913497E-01 0.22566304E+03</pdfrwt>
<totfact> 0.17898388E+02</totfact>
</mgrwt>
</event>
<event>
12    1  0.2762290E-001  0.2186909E+03  0.7546771E-02  0.1135263E+00
         21   -1    0    0  504  503  0.00000000000E+00  0.00000000000E+00  0.12090967861E+03  0.12090967861E+03  0.00000000000E+00 0.  1.
         21   -1    0    0  502  504 -0.00000000000E+00 -0.00000000000E+00 -0.39611404038E+03  0.39611404038E+03  0.00000000000E+00 0.  1.
          6    2    1    2  502    0  0.41759247279E+02 -0.12547059062E+03 -0.11104098586E+03  0.24526681496E+03  0.17418095802E+03 0.  0.
         24    2    3    3    0    0 -0.27756800930E+02 -0.18685341034E+02 -0.68926211746E+02  0.11098608408E+03  0.80296364968E+02 0.  0.
         -6    2    1    2    0  503 -0.41759247279E+02  0.12547059062E+03 -0.16416337591E+03  0.27175690403E+03  0.17150946636E+03 0.  0.
        -24    2    5    5    0    0 -0.35646397506E+02  0.65940375567E+02 -0.17878743187E+03  0.20997368261E+03  0.80654837473E+02 0.  0.
          2    1    4    4  501    0 -0.84618762558E+01  0.30706313172E+02 -0.38064030040E+02  0.49632160957E+02  0.00000000000E+00 0. -1.
         -1    1    4    4    0  501 -0.19294924674E+02 -0.49391654206E+02 -0.30862181706E+02  0.61353923127E+02  0.00000000000E+00 0.  1.
          5    1    3    3  502    0  0.69516048209E+02 -0.10678524958E+03 -0.42114774117E+02  0.13428073088E+03  0.47000000000E+01 0. -1.
         11    1    6    6    0    0  0.40524242984E+01 -0.16601438690E+02 -0.42100376558E+02  0.45436456899E+02  0.00000000000E+00 0. -1.
        -12    1    6    6    0    0 -0.39698821804E+02  0.82541814258E+02 -0.13668705531E+03  0.16453722571E+03  0.00000000000E+00 0.  1.
         -5    1    5    5    0  503 -0.61128497736E+01  0.59530215049E+02  0.14624055960E+02  0.61783221418E+02  0.47000000000E+01 0.  1.
<mgrwt>
<rscale>  2 0.21815852E+03</rscale>
<asrwt>0</asrwt>
<pdfrwt beam="1">  1       21 0.18601489E-01 0.21869090E+03</pdfrwt>
<pdfrwt beam="2">  1       21 0.60940623E-01 0.21869090E+03</pdfrwt>
<totfact> 0.65435673E+04</totfact>
</mgrwt>
</event>
<event>
12    1  0.2762290E-001  0.2521518E+03  0.7546771E-02  0.1111971E+00
         21   -1    0    0  504  503  0.00000000000E+00  0.00000000000E+00  0.34130146397E+03  0.34130146397E+03  0.00000000000E+00 0. -1.
         21   -1    0    0  502  504 -0.00000000000E+00 -0.00000000000E+00 -0.23126829466E+03  0.23126829466E+03  0.00000000000E+00 0.  1.
          6    2    1    2  502    0  0.18353159559E+03  0.27405515420E+01 -0.71372129773E+02  0.26194394357E+03  0.17271158461E+03 0.  0.
         24    2    3    3    0    0  0.15520185424E+03  0.53513122059E+02 -0.87667878987E+02  0.20137935322E+03  0.76920199583E+02 0.  0.
         -6    2    1    2    0  503 -0.18353159559E+03 -0.27405515420E+01  0.18140529908E+03  0.31062581507E+03  0.17288480918E+03 0.  0.
        -24    2    5    5    0    0 -0.17171926079E+03 -0.52959922164E+02  0.12434700479E+03  0.23355925041E+03  0.82434749791E+02 0.  0.
          2    1    4    4  501    0 -0.71273315955E+01  0.71436748090E+01  0.19003377911E+01  0.10268506667E+02  0.00000000000E+00 0. -1.
         -1    1    4    4    0  501  0.16232918583E+03  0.46369447250E+02 -0.89568216778E+02  0.19111084655E+03  0.00000000000E+00 0.  1.
          5    1    3    3  502    0  0.28329741351E+02 -0.50772570517E+02  0.16295749214E+02  0.60564590351E+02  0.47000000000E+01 0. -1.
         13    1    6    6    0    0 -0.14329884519E+03 -0.43230612555E+02  0.13512090501E+03  0.20164598649E+03  0.00000000000E+00 0. -1.
        -14    1    6    6    0    0 -0.28420415598E+02 -0.97293096085E+01 -0.10773900229E+02  0.31913263925E+02  0.00000000000E+00 0.  1.
         -5    1    5    5    0  503 -0.11812334802E+02  0.50219370622E+02  0.57058294299E+02  0.77066564653E+02  0.47000000000E+01 0.  1.
<mgrwt>
<rscale>  2 0.25212208E+03</rscale>
<asrwt>0</asrwt>
<pdfrwt beam="1">  1       21 0.52507918E-01 0.25215177E+03</pdfrwt>
<pdfrwt beam="2">  1       21 0.35579738E-01 0.25215177E+03</pdfrwt>
<totfact> 0.25404569E+04</totfact>
</mgrwt>
</event>
<event>
12    1  0.2762290E-001  0.1801731E+03  0.7546771E-02  0.1168187E+00
         21   -1    0    0  504  503  0.00000000000E+00  0.00000000000E+00  0.15250940888E+03  0.15250940888E+03  0.00000000000E+00 0. -1.
         21   -1    0    0  502  504 -0.00000000000E+00 -0.00000000000E+00 -0.21384489346E+03  0.21384489346E+03  0.00000000000E+00 0. -1.
          6    2    1    2  502    0  0.48002780634E+02  0.13629719583E+02 -0.54440407201E+02  0.18604930270E+03  0.17076460082E+03 0.  0.
         24    2    3    3    0    0  0.77377165572E+02 -0.25148797404E+02 -0.71790009792E+02  0.13418672871E+03  0.78946721866E+02 0.  0.
         -6    2    1    2    0  503 -0.48002780634E+02 -0.13629719583E+02 -0.68950773701E+01  0.18030499965E+03  0.17312514145E+03 0.  0.
        -24    2    5    5    0    0 -0.40794949399E+02 -0.64258303366E+02 -0.42238649133E+02  0.11796348545E+03  0.79611073170E+02 0.  0.
          2    1    4    4  501    0  0.11871839604E+02 -0.66154508650E+01 -0.64275464154E+02  0.65696575695E+02  0.00000000000E+00 0. -1.
         -1    1    4    4    0  501  0.65505325968E+02 -0.18533346539E+02 -0.75145456375E+01  0.68490153017E+02  0.00000000000E+00 0.  1.
          5    1    3    3  502    0 -0.29374384938E+02  0.38778516987E+02  0.17349602591E+02  0.51862573984E+02  0.47000000000E+01 0. -1.
         11    1    6    6    0    0 -0.24554079111E+02 -0.51208838751E+02  0.13572438221E+02  0.58390573268E+02  0.00000000000E+00 0. -1.
        -12    1    6    6    0    0 -0.16240870287E+02 -0.13049464615E+02 -0.55811087354E+02  0.59572912184E+02  0.00000000000E+00 0.  1.
         -5    1    5    5    0  503 -0.72078312357E+01  0.50628583784E+02  0.35343571762E+02  0.62341514194E+02  0.47000000000E+01 0.  1.
<mgrwt>
<rscale>  2 0.17960367E+03</rscale>
<asrwt>0</asrwt>
<pdfrwt beam="1">  1       21 0.23462986E-01 0.18017311E+03</pdfrwt>
<pdfrwt beam="2">  1       21 0.32899214E-01 0.18017311E+03</pdfrwt>
<totfact> 0.15261029E+05</totfact>
</mgrwt>
</event>
<event>
12    1  0.2762290E-001  0.1916756E+03  0.7546771E-02  0.1157154E+00
         21   -1    0    0  504  503  0.00000000000E+00  0.00000000000E+00  0.10136854603E+03  0.10136854603E+03  0.00000000000E+00 0. -1.
         21   -1    0    0  502  504 -0.00000000000E+00 -0.00000000000E+00 -0.36410157698E+03  0.36410157698E+03  0.00000000000E+00 0.  1.
          6    2    1    2  502    0  0.13572047864E+02 -0.78223651541E+02 -0.15387283605E+03  0.24579741707E+03  0.17446025455E+03 0.  0.
         24    2    3    3    0    0  0.76616048754E+02 -0.49996540600E+02 -0.10991899815E+03  0.16378921195E+03  0.79843890176E+02 0.  0.
         -6    2    1    2    0  503 -0.13572047864E+02  0.78223651541E+02 -0.10886019489E+03  0.21967270595E+03  0.17350047712E+03 0.  0.
        -24    2    5    5    0    0  0.37902995782E+02 -0.88302170760E+01 -0.52557929812E+02  0.10382758860E+03  0.80642559144E+02 0.  0.
          2    1    4    4  501    0  0.63080175529E+02 -0.71043035945E+02 -0.76143909387E+02  0.12175432821E+03  0.00000000000E+00 0. -1.
         -1    1    4    4    0  501  0.13535873225E+02  0.21046495344E+02 -0.33775088760E+02  0.42034883740E+02  0.00000000000E+00 0.  1.
          5    1    3    3  502    0 -0.63044000890E+02 -0.28227110941E+02 -0.43953837906E+02  0.82008205119E+02  0.47000000000E+01 0. -1.
         11    1    6    6    0    0  0.17432454488E+01  0.25938676416E+02 -0.46533850583E+02  0.53303405979E+02  0.00000000000E+00 0. -1.
        -12    1    6    6    0    0  0.36159750334E+02 -0.34768893492E+02 -0.60240792291E+01  0.50524182620E+02  0.00000000000E+00 0.  1.
         -5    1    5    5    0  503 -0.51475043646E+02  0.87053868617E+02 -0.56302265082E+02  0.11584511735E+03  0.47000000000E+01 0.  1.
<mgrwt>
<rscale>  2 0.19145690E+03</rscale>
<asrwt>0</asrwt>
<pdfrwt beam="1">  1       21 0.15595161E-01 0.19167556E+03</pdfrwt>
<pdfrwt beam="2">  1       21 0.56015626E-01 0.19167556E+03</pdfrwt>
<totfact> 0.10968877E+05</totfact>
</mgrwt>
</event>
<event>
12    1  0.2762290E-001  0.2022298E+03  0.7546771E-02  0.1148146E+00
         21   -1    0    0  504  503  0.00000000000E+00  0.00000000000E+00  0.17573323546E+03  0.17573323546E+03  0.00000000000E+00 0.  1.
         21   -1    0    0  502  504 -0.00000000000E+00 -0.00000000000E+00 -0.26904740453E+03  0.26904740453E+03  0.00000000000E+00 0. -1.
          6    2    1    2  502    0  0.10286957640E+03  0.20196406436E+02 -0.12992498608E+03  0.23926362237E+03  0.17139584126E+03 0.  0.
         24    2    3    3    0    0  0.41003610732E+02 -0.50782402676E+02 -0.45795406810E+02  0.11290989208E+03  0.79945455963E+02 0.  0.
         -6    2    1    2    0  503 -0.10286957640E+03 -0.20196406436E+02  0.36610817006E+02  0.20551701762E+03  0.17293596511E+03 0.  0.
        -24    2    5    5    0    0  0.13906261992E+02 -0.21703322955E+02  0.55478173827E+01  0.84579566123E+02  0.80364832968E+02 0.  0.
          2    1    4    4  501    0  0.51309576796E+01  0.15439483115E+01 -0.49090754077E+02  0.49382310992E+02  0.00000000000E+00 0. -1.
         -1    1    4    4    0  501  0.35872653052E+02 -0.52326350988E+02  0.32953472675E+01  0.63527581084E+02  0.00000000000E+00 0.  1.
          5    1    3    3  502    0  0.61865965666E+02  0.70978809112E+02 -0.84129579268E+02  0.12635373029E+03  0.47000000000E+01 0. -1.
         13    1    6    6    0    0  0.16409630766E+02 -0.51392762797E+02  0.85950209115E+01  0.54629355060E+02  0.00000000000E+00 0. -1.
        -14    1    6    6    0    0 -0.25033687736E+01  0.29689439843E+02 -0.30472035288E+01  0.29950211063E+02  0.00000000000E+00 0.  1.
         -5    1    5    5    0  503 -0.11677583839E+03  0.15069165188E+01  0.31062999623E+02  0.12093745150E+03  0.47000000000E+01 0.  1.
<mgrwt>
<rscale>  2 0.20190014E+03</rscale>
<asrwt>0</asrwt>
<pdfrwt beam="1">  1       21 0.27035882E-01 0.20222980E+03</pdfrwt>
<pdfrwt beam="2">  1       21 0.41391908E-01 0.20222980E+03</pdfrwt>
<totfact> 0.72957127E+04</totfact>
</mgrwt>
</event>
<event>
12    1  0.2762290E-001  0.2614047E+03  0.7546771E-02  0.1106933E+00
         21   -1    0    0  504  503  0.00000000000E+00  0.00000000000E+00  0.27708750235E+03  0.27708750235E+03  0.00000000000E+00 0. -1.
         21   -1    0    0  502  504 -0.00000000000E+00 -0.00000000000E+00 -0.44491636806E+03  0.44491636806E+03  0.00000000000E+00 0.  1.
          6    2    1    2  502    0  0.13294760779E+03 -0.14571091153E+03  0.15910521825E+03  0.30601777918E+03  0.17153913415E+03 0.  0.
         24    2    3    3    0    0  0.77780093694E+02 -0.65329224871E+02  0.12639611716E+02  0.13000944399E+03  0.80156379308E+02 0.  0.
         -6    2    1    2    0  503 -0.13294760779E+03  0.14571091153E+03 -0.32693408396E+03  0.41598609123E+03  0.16508118211E+03 0.  0.
        -24    2    5    5    0    0 -0.12104300121E+03  0.16410768457E+03 -0.23550346519E+03  0.32184890960E+03  0.80883238171E+02 0.  0.
          4    1    4    4  501    0  0.63702112041E+02 -0.53268979024E+02  0.43701215522E+02  0.93836770206E+02  0.00000000000E+00 0. -1.
         -3    1    4    4    0  501  0.14077981654E+02 -0.12060245847E+02 -0.31061603806E+02  0.36172673779E+02  0.00000000000E+00 0.  1.
          5    1    3    3  502    0  0.55167514096E+02 -0.80381686662E+02  0.14646560653E+03  0.17600833520E+03  0.47000000000E+01 0. -1.
         13    1    6    6    0    0 -0.23643982943E+02 -0.41113359293E+01 -0.17075072505E+02  0.29453337902E+02  0.00000000000E+00 0. -1.
        -14    1    6    6    0    0 -0.97399018270E+02  0.16821902050E+03 -0.21842839269E+03  0.29239557170E+03  0.00000000000E+00 0.  1.
         -5    1    5    5    0  503 -0.11904606577E+02 -0.18396773042E+02 -0.91430618769E+02  0.94137181626E+02  0.47000000000E+01 0.  1.
<mgrwt>
<rscale>  2 0.26035041E+03</rscale>
<asrwt>0</asrwt>
<pdfrwt beam="1">  1       21 0.42628847E-01 0.26140469E+03</pdfrwt>
<pdfrwt beam="2">  1       21 0.68448671E-01 0.26140469E+03</pdfrwt>
<totfact> 0.98809711E+03</totfact>
</mgrwt>
</event>
<event>
12    1  0.2762290E-001  0.2369513E+03  0.7546771E-02  0.1121984E+00
         21   -1    0    0  504  503  0.00000000000E+00  0.00000000000E+00  0.16157859190E+04  0.16157859190E+04  0.00000000000E+00 0.  1.
         21   -1    0    0  502  504 -0.00000000000E+00 -0.00000000000E+00 -0.24588282290E+03  0.24588282290E+03  0.00000000000E+00 0. -1.
          6    2    1    2  502    0  0.85892252177E+02 -0.13632008589E+03 -0.17803040140E+03  0.29570448562E+03  0.17258526644E+03 0.  0.
         24    2    3    3    0    0  0.27220078574E+02  0.11690079521E+01 -0.80015136312E+02  0.11688961747E+03  0.80736988894E+02 0.  0.
         -6    2    1    2    0  503 -0.85892252177E+02  0.13632008589E+03  0.15479334975E+04  0.15659642563E+04  0.17373915628E+03 0.  0.
        -24    2    5    5    0    0  0.18870955540E+02  0.34271340880E+02  0.49868506186E+03  0.50656176159E+03  0.79921146189E+02 0.  0.
          2    1    4    4  501    0 -0.27404578854E+02  0.98234898533E+00 -0.12759148449E+02  0.30245195004E+02  0.00000000000E+00 0. -1.
         -1    1    4    4    0  501  0.54624657428E+02  0.18665896676E+00 -0.67255987864E+02  0.86644422465E+02  0.00000000000E+00 0.  1.
          5    1    3    3  502    0  0.58672173603E+02 -0.13748909385E+03 -0.98015265089E+02  0.17881486815E+03  0.47000000000E+01 0. -1.
         13    1    6    6    0    0  0.18833349257E+02 -0.12162745050E+02  0.42784358874E+02  0.48302471734E+02  0.00000000000E+00 0. -1.
        -14    1    6    6    0    0  0.37606282668E-01  0.46434085930E+02  0.45590070299E+03  0.45825928985E+03  0.00000000000E+00 0.  1.
         -5    1    5    5    0  503 -0.10476320772E+03  0.10204874501E+03  0.10492484357E+04  0.10594024947E+04  0.47000000000E+01 0.  1.
<mgrwt>
<rscale>  2 0.23673987E+03</rscale>
<asrwt>0</asrwt>
<pdfrwt beam="1">  1       21 0.24858244E+00 0.23695134E+03</pdfrwt>
<pdfrwt beam="2">  1       21 0.37828128E-01 0.23695134E+03</pdfrwt>
<totfact> 0.43281832E+02</totfact>
</mgrwt>
</event>
<event>
12    1  0.2762290E-001  0.2042060E+03  0.7546771E-02  0.1146459E+00
         21   -1    0    0  504  503  0.00000000000E+00  0.00000000000E+00  0.20798912253E+02  0.20798912253E+02  0.00000000000E+00 0.  1.
         21   -1    0    0  502  504 -0.00000000000E+00 -0.00000000000E+00 -0.24047850030E+04  0.24047850030E+04  0.00000000000E+00 0. -1.
          6    2    1    2  502    0  0.10751794242E+03 -0.11399531255E+02 -0.68838883208E+03  0.71773434920E+03  0.17196905139E+03 0.  0.
         24    2    3    3    0    0  0.12259160306E+03  0.29990125391E+02 -0.60381671329E+03  0.62226261412E+03  0.81780370023E+02 0.  0.
         -6    2    1    2    0  503 -0.10751794242E+03  0.11399531255E+02 -0.16955972587E+04  0.17078495660E+04  0.17323400189E+03 0.  0.
        -24    2    5    5    0    0 -0.81004873916E+02  0.71568442692E+02 -0.12788968722E+04  0.12859674228E+04  0.80319183379E+02 0.  0.
          4    1    4    4  501    0  0.39212650230E+02  0.20183855436E+02 -0.39108961709E+03  0.39356842932E+03  0.00000000000E+00 0. -1.
         -3    1    4    4    0  501  0.83378952832E+02  0.98062699550E+01 -0.21272709620E+03  0.22869418480E+03  0.00000000000E+00 0.  1.
          5    1    3    3  502    0 -0.15073660646E+02 -0.41389656647E+02 -0.84572118790E+02  0.95471735080E+02  0.47000000000E+01 0. -1.
         11    1    6    6    0    0 -0.96924269553E+02  0.57170824665E+02 -0.11169877198E+04  0.11226416986E+04  0.00000000000E+00 0. -1.
        -12    1    6    6    0    0  0.15919395637E+02  0.14397618027E+02 -0.16190915241E+03  0.16332572423E+03  0.00000000000E+00 0.  1.
         -5    1    5    5    0  503 -0.26513068500E+02 -0.60168911436E+02 -0.41670038643E+03  0.42188214321E+03  0.47000000000E+01 0.  1.
<mgrwt>
<rscale>  2 0.20393744E+03</rscale>
<asrwt>0</asrwt>
<pdfrwt beam="1">  1       21 0.31998316E-02 0.20420597E+03</pdfrwt>
<pdfrwt beam="2">  1       21 0.36996704E+00 0.20420597E+03</pdfrwt>
<totfact> 0.74545960E+03</totfact>
</mgrwt>
</event>
<event>
12    1  0.2762290E-001  0.2334419E+03  0.7546771E-02  0.1124457E+00
         21   -1    0    0  504  503  0.00000000000E+00  0.00000000000E+00  0.14510354280E+04  0.14510354280E+04  0.00000000000E+00 0. -1.
         21   -1    0    0  502  504 -0.00000000000E+00 -0.00000000000E+00 -0.38483179591E+02  0.38483179591E+02  0.00000000000E+00 0.  1.
          6    2    1    2  502    0 -0.86869279703E+02  0.12949283513E+03  0.58059220514E+03  0.62576548002E+03  0.17372524632E+03 0.  0.
         24    2    3    3    0    0 -0.11373983811E+03  0.53403132091E+02  0.31512808513E+03  0.34826780646E+03  0.78715371369E+02 0.  0.
         -6    2    1    2    0  503  0.86869279703E+02 -0.12949283513E+03  0.83196004323E+03  0.86375312753E+03  0.17203861684E+03 0.  0.
        -24    2    5    5    0    0  0.96644463789E+02 -0.46125473283E+02  0.34360209919E+03  0.36821176422E+03  0.77780390047E+02 0.  0.
          4    1    4    4  501    0 -0.56145088012E+02  0.68289068804E+02  0.20041926695E+03  0.21905147886E+03  0.00000000000E+00 0. -1.
         -3    1    4    4    0  501 -0.57594750100E+02 -0.14885936712E+02  0.11470881818E+03  0.12921632760E+03  0.00000000000E+00 0.  1.
          5    1    3    3  502    0  0.26870558408E+02  0.76089703038E+02  0.26546412000E+03  0.27749767355E+03  0.47000000000E+01 0. -1.
         11    1    6    6    0    0  0.34357023013E+02 -0.43178819203E+02  0.24804450039E+03  0.25410802749E+03  0.00000000000E+00 0. -1.
        -12    1    6    6    0    0  0.62287440776E+02 -0.29466540795E+01  0.95557598798E+02  0.11410373673E+03  0.00000000000E+00 0.  1.
         -5    1    5    5    0  503 -0.97751840858E+01 -0.83367361846E+02  0.48835794404E+03  0.49554136331E+03  0.47000000000E+01 0.  1.
<mgrwt>
<rscale>  2 0.23312817E+03</rscale>
<asrwt>0</asrwt>
<pdfrwt beam="1">  1       21 0.22323618E+00 0.23344191E+03</pdfrwt>
<pdfrwt beam="2">  1       21 0.59204903E-02 0.23344191E+03</pdfrwt>
<totfact> 0.18792657E+04</totfact>
</mgrwt>
</event>
<event>
12    1  0.2762290E-001  0.1991445E+03  0.7546771E-02  0.1151319E+00
         21   -1    0    0  504  503  0.00000000000E+00  0.00000000000E+00  0.55113362306E+02  0.55113362306E+02  0.00000000000E+00 0.  1.
         21   -1    0    0  502  504 -0.00000000000E+00 -0.00000000000E+00 -0.84857565665E+03  0.84857565665E+03  0.00000000000E+00 0.  1.
          6    2    1    2  502    0 -0.36818485016E+02  0.81550454718E+02 -0.57909645804E+03  0.61109499900E+03  0.17343100239E+03 0.  0.
         24    2    3    3    0    0  0.24101885374E+02  0.94778466757E+02 -0.45373320280E+03  0.47100821306E+03  0.80069087729E+02 0.  0.
         -6    2    1    2    0  503  0.36818485016E+02 -0.81550454718E+02 -0.21436583631E+03  0.29259401996E+03  0.17791141401E+03 0.  0.
        -24    2    5    5    0    0  0.65973201128E+02 -0.51880699195E+02 -0.21944582598E+03  0.25042545157E+03  0.86673906337E+02 0.  0.
          4    1    4    4  501    0 -0.15643669303E+02  0.10898854102E+02 -0.19863826550E+03  0.19955117121E+03  0.00000000000E+00 0. -1.
         -3    1    4    4    0  501  0.39745554677E+02  0.83879612655E+02 -0.25509493730E+03  0.27145704185E+03  0.00000000000E+00 0.  1.
          5    1    3    3  502    0 -0.60920370390E+02 -0.13228012039E+02 -0.12536325524E+03  0.14008678595E+03  0.47000000000E+01 0. -1.
         11    1    6    6    0    0  0.38123530037E+02  0.70025270006E+01 -0.26955086887E+02  0.47212452128E+02  0.00000000000E+00 0. -1.
        -12    1    6    6    0    0  0.27849671091E+02 -0.58883226196E+02 -0.19249073909E+03  0.20321299945E+03  0.00000000000E+00 0.  1.
         -5    1    5    5    0  503 -0.29154716112E+02 -0.29669755522E+02  0.50799896723E+01  0.42168568382E+02  0.47000000000E+01 0.  1.
<mgrwt>
<rscale>  2 0.19813887E+03</rscale>
<asrwt>0</asrwt>
<pdfrwt beam="1">  1       21 0.84789789E-02 0.19914454E+03</pdfrwt>
<pdfrwt beam="2">  1       21 0.13055010E+00 0.19914454E+03</pdfrwt>
<totfact> 0.46206120E+04</totfact>
</mgrwt>
</event>
<event>
12    1  0.2762290E-001  0.2048483E+03  0.7546771E-02  0.1149617E+00
         21   -1    0    0  504  503  0.00000000000E+00  0.00000000000E+00  0.46730747628E+03  0.46730747628E+03  0.00000000000E+00 0.  1.
         21   -1    0    0  502  504 -0.00000000000E+00 -0.00000000000E+00 -0.10820211806E+03  0.10820211806E+03  0.00000000000E+00 0.  1.
          6    2    1    2  502    0 -0.47076779636E+02  0.55412013892E+02  0.31763176838E+02  0.18935454823E+03  0.17192885467E+03 0.  0.
         24    2    3    3    0    0  0.23040147821E+02  0.28368577438E+02 -0.13010735396E+02  0.10175018654E+03  0.94064853304E+02 0.  0.
         -6    2    1    2    0  503  0.47076779636E+02 -0.55412013892E+02  0.32734218139E+03  0.38615504610E+03  0.19151005575E+03 0.  0.
        -24    2    5    5    0    0  0.10598120532E+03 -0.33703508141E+02  0.25921928240E+03  0.29339832153E+03  0.80746494471E+02 0.  0.
          2    1    4    4  501    0  0.29967347277E+01 -0.29687871993E+02 -0.25291657197E+02  0.39115445623E+02  0.00000000000E+00 0. -1.
         -1    1    4    4    0  501  0.20043413093E+02  0.58056449431E+02  0.12280921800E+02  0.62634740913E+02  0.00000000000E+00 0.  1.
          5    1    3    3  502    0 -0.70116927457E+02  0.27043436454E+02  0.44773912235E+02  0.87604361695E+02  0.47000000000E+01 0. -1.
         11    1    6    6    0    0  0.42775739384E+02  0.24543731877E+02  0.70607391687E+02  0.86125271640E+02  0.00000000000E+00 0. -1.
        -12    1    6    6    0    0  0.63205465932E+02 -0.58247240019E+02  0.18861189072E+03  0.20727304989E+03  0.00000000000E+00 0.  1.
         -5    1    5    5    0  503 -0.58904425680E+02 -0.21708505750E+02  0.68122898985E+02  0.92756724569E+02  0.47000000000E+01 0.  1.
<mgrwt>
<rscale>  2 0.20014453E+03</rscale>
<asrwt>0</asrwt>
<pdfrwt beam="1">  1       21 0.71893457E-01 0.20484828E+03</pdfrwt>
<pdfrwt beam="2">  1       21 0.16646480E-01 0.20484828E+03</pdfrwt>
<totfact> 0.56308966E+04</totfact>
</mgrwt>
</event>
<event>
12    1  0.2762290E-001  0.1724317E+03  0.7546771E-02  0.1175818E+00
         21   -1    0    0  504  503  0.00000000000E+00  0.00000000000E+00  0.12941265511E+04  0.12941265511E+04  0.00000000000E+00 0.  1.
         21   -1    0    0  502  504 -0.00000000000E+00 -0.00000000000E+00 -0.14616008375E+03  0.14616008375E+03  0.00000000000E+00 0.  1.
          6    2    1    2  502    0 -0.35578164798E+01 -0.85515133555E+01 -0.88295891882E+02  0.19205696655E+03  0.17030539463E+03 0.  0.
         24    2    3    3    0    0 -0.65785616060E+02 -0.18303786434E+02 -0.62266092990E+02  0.12374118286E+03  0.82292394067E+02 0.  0.
         -6    2    1    2    0  503  0.35578164798E+01  0.85515133555E+01  0.12362623592E+04  0.12482296683E+04  0.17218274457E+03 0.  0.
        -24    2    5    5    0    0  0.49386035655E+02  0.43308577309E+02  0.97596483418E+03  0.98161164431E+03  0.82094149008E+02 0.  0.
          2    1    4    4  501    0 -0.73508099541E+02 -0.16958226072E+02 -0.16388187206E+02  0.77198411962E+02  0.00000000000E+00 0. -1.
         -1    1    4    4    0  501  0.77224834805E+01 -0.13455603617E+01 -0.45877905783E+02  0.46542770898E+02  0.00000000000E+00 0.  1.
          5    1    3    3  502    0  0.62227799580E+02  0.97522730781E+01 -0.26029798893E+02  0.68315783690E+02  0.47000000000E+01 0. -1.
         11    1    6    6    0    0 -0.18588770034E+02  0.12842643326E+02  0.10171580467E+03  0.10419491724E+03  0.00000000000E+00 0. -1.
        -12    1    6    6    0    0  0.67974805689E+02  0.30465933983E+02  0.87424902951E+03  0.87741672707E+03  0.00000000000E+00 0.  1.
         -5    1    5    5    0  503 -0.45828219176E+02 -0.34757063954E+02  0.26029752507E+03  0.26661802400E+03  0.47000000000E+01 0.  1.
<mgrwt>
<rscale>  2 0.17196110E+03</rscale>
<asrwt>0</asrwt>
<pdfrwt beam="1">  1       21 0.19909639E+00 0.17243168E+03</pdfrwt>
<pdfrwt beam="2">  1       21 0.22486168E-01 0.17243168E+03</pdfrwt>
<totfact> 0.25748798E+03</totfact>
</mgrwt>
</event>
<event>
12    1  0.2762290E-001  0.2117595E+03  0.7546771E-02  0.1140232E+00
         21   -1    0    0  504  503  0.00000000000E+00  0.00000000000E+00  0.70701257345E+03  0.70701257345E+03  0.00000000000E+00 0. -1.
         21   -1    0    0  502  504 -0.00000000000E+00 -0.00000000000E+00 -0.63664821626E+02  0.63664821626E+02  0.00000000000E+00 0. -1.
          6    2    1    2  502    0 -0.90248355985E+02 -0.83180414455E+02  0.34878854938E+03  0.40790034110E+03  0.17223672369E+03 0.  0.
         24    2    3    3    0    0 -0.24543004453E+02 -0.49327062800E+02  0.72251243989E+02  0.12161689081E+03  0.80838775849E+02 0.  0.
         -6    2    1    2    0  503  0.90248355985E+02  0.83180414455E+02  0.29455920244E+03  0.36277705397E+03  0.17256395926E+03 0.  0.
        -24    2    5    5    0    0  0.42414012893E+02  0.12078474528E+03  0.20432500224E+03  0.25384353772E+03  0.79372110465E+02 0.  0.
          4    1    4    4  501    0  0.17705189904E+02 -0.71759211222E+01  0.56861727620E+02  0.59985195352E+02  0.00000000000E+00 0. -1.
         -3    1    4    4    0  501 -0.42248194357E+02 -0.42151141678E+02  0.15389516368E+02  0.61631695459E+02  0.00000000000E+00 0.  1.
          5    1    3    3  502    0 -0.65705351533E+02 -0.33853351655E+02  0.27653730539E+03  0.28628345029E+03  0.47000000000E+01 0. -1.
         11    1    6    6    0    0  0.96650897567E+01  0.19762470981E+02 -0.16934099671E+01  0.22064379814E+02  0.00000000000E+00 0. -1.
        -12    1    6    6    0    0  0.32748923136E+02  0.10102227430E+03  0.20601841221E+03  0.23177915791E+03  0.00000000000E+00 0.  1.
         -5    1    5    5    0  503  0.47834343093E+02 -0.37604330828E+02  0.90234200204E+02  0.10893351625E+03  0.47000000000E+01 0.  1.
<mgrwt>
<rscale>  2 0.21169278E+03</rscale>
<asrwt>0</asrwt>
<pdfrwt beam="1">  1       21 0.10877116E+00 0.21175946E+03</pdfrwt>
<pdfrwt beam="2">  1       21 0.97945884E-02 0.21175946E+03</pdfrwt>
<totfact> 0.55949288E+04</totfact>
</mgrwt>
</event>
<event>
12    1  0.2762290E-001  0.1785879E+03  0.7546771E-02  0.1169586E+00
         21   -1    0    0  504  503  0.00000000000E+00  0.00000000000E+00  0.16755598387E+03  0.16755598387E+03  0.00000000000E+00 0.  1.
         21   -1    0    0  502  504 -0.00000000000E+00 -0.00000000000E+00 -0.33264698033E+03  0.33264698033E+03  0.00000000000E+00 0.  1.
          6    2    1    2  502    0  0.31001258558E+02  0.30079533678E+02 -0.24735727557E+03  0.30508896571E+03  0.17328531052E+03 0.  0.
         24    2    3    3    0    0  0.60149837572E+02  0.33833929219E+02 -0.74190720085E+02  0.12938329966E+03  0.80455189745E+02 0.  0.
         -6    2    1    2    0  503 -0.31001258558E+02 -0.30079533678E+02  0.82266279120E+02  0.19511399849E+03  0.17156886474E+03 0.  0.
        -24    2    5    5    0    0 -0.48768785261E+02 -0.55147908346E+02  0.11612988747E+02  0.11792536037E+03  0.91388417761E+02 0.  0.
          4    1    4    4  501    0  0.65006539493E+02  0.50337435405E+02 -0.40716425514E+02  0.91747124678E+02  0.00000000000E+00 0. -1.
         -3    1    4    4    0  501 -0.48567019204E+01 -0.16503506187E+02 -0.33474294572E+02  0.37636174979E+02  0.00000000000E+00 0.  1.
          5    1    3    3  502    0 -0.29148579014E+02 -0.37543955407E+01 -0.17316655549E+03  0.17570566606E+03  0.47000000000E+01 0. -1.
         13    1    6    6    0    0 -0.72421991546E+02 -0.40369588191E+02  0.25530768081E+02  0.86755222489E+02  0.00000000000E+00 0. -1.
        -14    1    6    6    0    0  0.23653206285E+02 -0.14778320155E+02 -0.13917779334E+02  0.31170137885E+02  0.00000000000E+00 0.  1.
         -5    1    5    5    0  503  0.17767526703E+02  0.25068374668E+02  0.70653290374E+02  0.77188638116E+02  0.47000000000E+01 0.  1.
<mgrwt>
<rscale>  2 0.17817024E+03</rscale>
<asrwt>0</asrwt>
<pdfrwt beam="1">  1       21 0.25777844E-01 0.17858795E+03</pdfrwt>
<pdfrwt beam="2">  1       21 0.51176458E-01 0.17858795E+03</pdfrwt>
<totfact> 0.52192127E+04</totfact>
</mgrwt>
</event>
<event>
12    1  0.2762290E-001  0.2347440E+03  0.7546771E-02  0.1123471E+00
         21   -1    0    0  504  503  0.00000000000E+00  0.00000000000E+00  0.92760324961E+03  0.92760324961E+03  0.00000000000E+00 0.  1.
         21   -1    0    0  502  504 -0.00000000000E+00 -0.00000000000E+00 -0.52868975799E+03  0.52868975799E+03  0.00000000000E+00 0.  1.
          6    2    1    2  502    0 -0.58637400271E+02  0.14836240204E+03 -0.48666332634E+03  0.54032023166E+03  0.17220630792E+03 0.  0.
         24    2    3    3    0    0  0.15014229609E+02  0.10525405638E+03 -0.38401524945E+03  0.40674774295E+03  0.81683358860E+02 0.  0.
         -6    2    1    2    0  503  0.58637400271E+02 -0.14836240204E+03  0.88557681796E+03  0.91597277594E+03  0.17120186539E+03 0.  0.
        -24    2    5    5    0    0 -0.22282066286E+02 -0.12347937900E+03  0.56197440135E+03  0.58144663506E+03  0.80754653898E+02 0.  0.
          2    1    4    4  501    0  0.95165200742E+01  0.25332766674E+02 -0.24351106575E+03  0.24501010666E+03  0.00000000000E+00 0. -1.
         -1    1    4    4    0  501  0.54977095351E+01  0.79921289703E+02 -0.14050418370E+03  0.16173763629E+03  0.00000000000E+00 0.  1.
          5    1    3    3  502    0 -0.73651629880E+02  0.43108345666E+02 -0.10264807689E+03  0.13357248871E+03  0.47000000000E+01 0. -1.
         11    1    6    6    0    0  0.16862445221E+01 -0.12320350852E+03  0.42965061244E+03  0.44696934649E+03  0.00000000000E+00 0. -1.
        -12    1    6    6    0    0 -0.23968310808E+02 -0.27587047752E+00  0.13232378892E+03  0.13447728857E+03  0.00000000000E+00 0.  1.
         -5    1    5    5    0  503  0.80919466557E+02 -0.24883023043E+02  0.32360241661E+03  0.33452614089E+03  0.47000000000E+01 0.  1.
<mgrwt>
<rscale>  2 0.23455985E+03</rscale>
<asrwt>0</asrwt>
<pdfrwt beam="1">  1       21 0.14270819E+00 0.23474403E+03</pdfrwt>
<pdfrwt beam="2">  1       21 0.81336886E-01 0.23474403E+03</pdfrwt>
<totfact> 0.43129318E+02</totfact>
</mgrwt>
</event>
<event>
12    1  0.2762290E-001  0.1848393E+03  0.7546771E-02  0.1163646E+00
         21   -1    0    0  504  503  0.00000000000E+00  0.00000000000E+00  0.33011829404E+03  0.33011829404E+03  0.00000000000E+00 0.  1.
         21   -1    0    0  502  504 -0.00000000000E+00 -0.00000000000E+00 -0.10833993736E+03  0.10833993736E+03  0.00000000000E+00 0.  1.
          6    2    1    2  502    0 -0.66871413615E+02 -0.10665700599E+01  0.59168493657E+02  0.19227222603E+03  0.17027852105E+03 0.  0.
         24    2    3    3    0    0 -0.27419019992E+02 -0.54401180134E+00  0.10255617292E+03  0.13343902842E+03  0.80846194063E+02 0.  0.
         -6    2    1    2    0  503  0.66871413615E+02  0.10665700599E+01  0.16260986303E+03  0.24618600536E+03  0.17231557722E+03 0.  0.
        -24    2    5    5    0    0  0.70369305870E+02  0.37362425063E+02  0.17404769910E+03  0.20768225964E+03  0.80570027875E+02 0.  0.
          2    1    4    4  501    0  0.28618426628E+02  0.34190375265E+01  0.29027722309E+02  0.40906146515E+02  0.00000000000E+00 0. -1.
         -1    1    4    4    0  501 -0.56037446620E+02 -0.39630493278E+01  0.73528450614E+02  0.92532881903E+02  0.00000000000E+00 0.  1.
          5    1    3    3  502    0 -0.39452393623E+02 -0.52255825854E+00 -0.43387679265E+02  0.58833197616E+02  0.47000000000E+01 0. -1.
         11    1    6    6    0    0 -0.32267807288E+01 -0.19279169554E+02  0.21228971398E+02  0.28857715072E+02  0.00000000000E+00 0. -1.
        -12    1    6    6    0    0  0.73596086599E+02  0.56641594616E+02  0.15281872770E+03  0.17882454457E+03  0.00000000000E+00 0.  1.
         -5    1    5    5    0  503 -0.34978922552E+01 -0.36295855003E+02 -0.11437836075E+02  0.38503745723E+02  0.47000000000E+01 0.  1.
<mgrwt>
<rscale>  2 0.18436312E+03</rscale>
<asrwt>0</asrwt>
<pdfrwt beam="1">  1       21 0.50787429E-01 0.18483934E+03</pdfrwt>
<pdfrwt beam="2">  1       21 0.16667683E-01 0.18483934E+03</pdfrwt>
<totfact> 0.11964141E+05</totfact>
</mgrwt>
</event>
<event>
12    1  0.2762290E-001  0.2161897E+03  0.7546771E-02  0.1139334E+00
         21   -1    0    0  504  503  0.00000000000E+00  0.00000000000E+00  0.11252883179E+03  0.11252883179E+03  0.00000000000E+00 0.  1.
         21   -1    0    0  502  504 -0.00000000000E+00 -0.00000000000E+00 -0.40931622182E+03  0.40931622182E+03  0.00000000000E+00 0.  1.
          6    2    1    2  502    0  0.11631062467E+03  0.59484166873E+02 -0.20858039231E+03  0.30040602884E+03  0.17225409891E+03 0.  0.
         24    2    3    3    0    0  0.65769176504E+02  0.10475618684E+03 -0.14731888940E+03  0.20886884780E+03  0.81387327934E+02 0.  0.
         -6    2    1    2    0  503 -0.11631062467E+03 -0.59484166873E+02 -0.88206997720E+02  0.22143902477E+03  0.15552568832E+03 0.  0.
        -24    2    5    5    0    0 -0.76632800169E+02  0.11586244001E+01 -0.50109681543E+01  0.11100557320E+03  0.80144862641E+02 0.  0.
          2    1    4    4  501    0 -0.19114122697E+02  0.22826159815E+02 -0.24365624100E+02  0.38471637555E+02  0.00000000000E+00 0. -1.
         -1    1    4    4    0  501  0.84883299201E+02  0.81930027025E+02 -0.12295326530E+03  0.17039721025E+03  0.00000000000E+00 0.  1.
          5    1    3    3  502    0  0.50541448161E+02 -0.45272019967E+02 -0.61261502907E+02  0.91537181039E+02  0.47000000000E+01 0. -1.
         13    1    6    6    0    0 -0.50689205414E+02  0.39732418889E+02 -0.30447701191E+01  0.64477370305E+02  0.00000000000E+00 0. -1.
        -14    1    6    6    0    0 -0.25943594755E+02 -0.38573794489E+02 -0.19661980352E+01  0.46528202897E+02  0.00000000000E+00 0.  1.
         -5    1    5    5    0  503 -0.39677824497E+02 -0.60642791273E+02 -0.83196029565E+02  0.11043345157E+03  0.47000000000E+01 0.  1.
<mgrwt>
<rscale>  2 0.21284359E+03</rscale>
<asrwt>0</asrwt>
<pdfrwt beam="1">  1       21 0.17312128E-01 0.21618974E+03</pdfrwt>
<pdfrwt beam="2">  1       21 0.62971726E-01 0.21618974E+03</pdfrwt>
<totfact> 0.69706314E+04</totfact>
</mgrwt>
</event>
<event>
12    1  0.2762290E-001  0.2451923E+03  0.7546771E-02  0.1116410E+00
         21   -1    0    0  504  503  0.00000000000E+00  0.00000000000E+00  0.10405035300E+03  0.10405035300E+03  0.00000000000E+00 0. -1.
         21   -1    0    0  502  504 -0.00000000000E+00 -0.00000000000E+00 -0.10158514942E+04  0.10158514942E+04  0.00000000000E+00 0.  1.
          6    2    1    2  502    0  0.16312266006E+03  0.57636029662E+02 -0.82368982022E+03  0.85935840447E+03  0.17349649349E+03 0.  0.
         24    2    3    3    0    0  0.17088547500E+03  0.90736717879E+02 -0.68222101950E+03  0.71378564454E+03  0.81421307794E+02 0.  0.
         -6    2    1    2    0  503 -0.16312266006E+03 -0.57636029662E+02 -0.88111320990E+02  0.26054344274E+03  0.17374799719E+03 0.  0.
        -24    2    5    5    0    0 -0.11461642285E+03  0.25632694855E+02 -0.23516703561E+02  0.14443534599E+03  0.80712913413E+02 0.  0.
          4    1    4    4  501    0  0.16713841919E+03  0.87012044677E+02 -0.54857506902E+03  0.58003530362E+03  0.00000000000E+00 0. -1.
         -3    1    4    4    0  501  0.37470558120E+01  0.37246732029E+01 -0.13364595048E+03  0.13375034092E+03  0.00000000000E+00 0.  1.
          5    1    3    3  502    0 -0.77628149380E+01 -0.33100688218E+02 -0.14146880072E+03  0.14557275993E+03  0.47000000000E+01 0. -1.
         13    1    6    6    0    0 -0.10758437659E+02 -0.24766481779E+02 -0.27540475130E+01  0.27142353957E+02  0.00000000000E+00 0. -1.
        -14    1    6    6    0    0 -0.10385798519E+03  0.50399176634E+02 -0.20762656048E+02  0.11729299203E+03  0.00000000000E+00 0.  1.
         -5    1    5    5    0  503 -0.48506237209E+02 -0.83268724517E+02 -0.64594617429E+02  0.11610809675E+03  0.47000000000E+01 0.  1.
<mgrwt>
<rscale>  2 0.24514778E+03</rscale>
<asrwt>0</asrwt>
<pdfrwt beam="1">  1       21 0.16007747E-01 0.24519233E+03</pdfrwt>
<pdfrwt beam="2">  1       21 0.15628484E+00 0.24519233E+03</pdfrwt>
<totfact> 0.89977108E+03</totfact>
</mgrwt>
</event>
<event>
12    1  0.2762290E-001  0.1902063E+03  0.7546771E-02  0.1158277E+00
         21   -1    0    0  504  503  0.00000000000E+00  0.00000000000E+00  0.43016657770E+03  0.43016657770E+03  0.00000000000E+00 0. -1.
         21   -1    0    0  502  504 -0.00000000000E+00 -0.00000000000E+00 -0.31641396879E+03  0.31641396879E+03  0.00000000000E+00 0. -1.
          6    2    1    2  502    0  0.28192105034E+02 -0.71944447764E+02 -0.26298070639E+03  0.32455705883E+03  0.17380343540E+03 0.  0.
         24    2    3    3    0    0  0.69173910324E+02 -0.26000033286E+02 -0.11359860038E+03  0.16291702300E+03  0.90422800091E+02 0.  0.
         -6    2    1    2    0  503 -0.28192105034E+02  0.71944447764E+02  0.37673331530E+03  0.42202348766E+03  0.17379595775E+03 0.  0.
        -24    2    5    5    0    0 -0.64342999914E+02  0.84002740893E+02  0.35200822967E+03  0.37635391909E+03  0.80845510375E+02 0.  0.
          2    1    4    4  501    0  0.29996560670E+01  0.22002077199E+02 -0.62940642203E+02  0.66742893094E+02  0.00000000000E+00 0. -1.
         -1    1    4    4    0  501  0.66174254257E+02 -0.48002110485E+02 -0.50657958175E+02  0.96174129910E+02  0.00000000000E+00 0.  1.
          5    1    3    3  502    0 -0.40981805290E+02 -0.45944414477E+02 -0.14938210601E+03  0.16164003583E+03  0.47000000000E+01 0. -1.
         13    1    6    6    0    0 -0.38795865160E+02  0.90090960243E+02  0.20797394508E+03  0.22994491102E+03  0.00000000000E+00 0. -1.
        -14    1    6    6    0    0 -0.25547134755E+02 -0.60882193500E+01  0.14403428458E+03  0.14640900807E+03  0.00000000000E+00 0.  1.
         -5    1    5    5    0  503  0.36150894880E+02 -0.12058293130E+02  0.24725085634E+02  0.45669568571E+02  0.47000000000E+01 0.  1.
<mgrwt>
<rscale>  2 0.19020458E+03</rscale>
<asrwt>0</asrwt>
<pdfrwt beam="1">  1       21 0.66179474E-01 0.19020629E+03</pdfrwt>
<pdfrwt beam="2">  1       21 0.48679072E-01 0.19020629E+03</pdfrwt>
<totfact> 0.84579972E+03</totfact>
</mgrwt>
</event>
<event>
12    1  0.2762290E-001  0.1977054E+03  0.7546771E-02  0.1151997E+00
         21   -1    0    0  504  503  0.00000000000E+00  0.00000000000E+00  0.12622174181E+03  0.12622174181E+03  0.00000000000E+00 0. -1.
         21   -1    0    0  502  504 -0.00000000000E+00 -0.00000000000E+00 -0.31575313156E+03  0.31575313156E+03  0.00000000000E+00 0.  1.
          6    2    1    2  502    0 -0.66021687731E+02  0.64148869852E+02 -0.13029087501E+03  0.23558480079E+03  0.17335093163E+03 0.  0.
         24    2    3    3    0    0 -0.46084452521E+02  0.16124568737E+02  0.10106336897E+01  0.94283693107E+02  0.80651192950E+02 0.  0.
         -6    2    1    2    0  503  0.66021687731E+02 -0.64148869852E+02 -0.59240514742E+02  0.20639007259E+03  0.17496709040E+03 0.  0.
        -24    2    5    5    0    0  0.63347860361E+02  0.19593884137E+02 -0.62854690757E+02  0.12239512949E+03  0.81443132700E+02 0.  0.
          2    1    4    4  501    0  0.38362898958E+01 -0.25202190262E+02  0.12619294966E+02  0.28444931352E+02  0.00000000000E+00 0. -1.
         -1    1    4    4    0  501 -0.49920742417E+02  0.41326758999E+02 -0.11608661277E+02  0.65838761755E+02  0.00000000000E+00 0.  1.
          5    1    3    3  502    0 -0.19937235210E+02  0.48024301114E+02 -0.13130150870E+03  0.14130110768E+03  0.47000000000E+01 0. -1.
         13    1    6    6    0    0  0.26335216375E+01  0.50337478918E+01  0.18780503983E+02  0.19620942482E+02  0.00000000000E+00 0. -1.
        -14    1    6    6    0    0  0.60714338724E+02  0.14560136245E+02 -0.81635194740E+02  0.10277418700E+03  0.00000000000E+00 0.  1.
         -5    1    5    5    0  503  0.26738273700E+01 -0.83742753989E+02  0.36141760152E+01  0.83994943102E+02  0.47000000000E+01 0.  1.
<mgrwt>
<rscale>  2 0.19734721E+03</rscale>
<asrwt>0</asrwt>
<pdfrwt beam="1">  1       21 0.19418730E-01 0.19770540E+03</pdfrwt>
<pdfrwt beam="2">  1       21 0.48577405E-01 0.19770540E+03</pdfrwt>
<totfact> 0.98482298E+04</totfact>
</mgrwt>
</event>
<event>
12    1  0.2762290E-001  0.2331914E+03  0.7546771E-02  0.1124596E+00
         21   -1    0    0  504  503  0.00000000000E+00  0.00000000000E+00  0.61641018581E+02  0.61641018581E+02  0.00000000000E+00 0. -1.
         21   -1    0    0  502  504 -0.00000000000E+00 -0.00000000000E+00 -0.13193182861E+04  0.13193182861E+04  0.00000000000E+00 0. -1.
          6    2    1    2  502    0  0.90182571858E+02  0.12583073076E+03 -0.10290458179E+04  0.10551367298E+04  0.17439023544E+03 0.  0.
         24    2    3    3    0    0  0.22120856534E+02  0.12796255007E+03 -0.85263519374E+03  0.86598139667E+03  0.77931118623E+02 0.  0.
         -6    2    1    2    0  503 -0.90182571858E+02 -0.12583073076E+03 -0.22863144966E+03  0.32582257490E+03  0.17297902031E+03 0.  0.
        -24    2    5    5    0    0 -0.10133491036E+03 -0.27928396425E+02 -0.10121071484E+03  0.16467861632E+03  0.76332682978E+02 0.  0.
          2    1    4    4  501    0  0.48524833919E+02  0.98331316052E+02 -0.55666273888E+03  0.56735977305E+03  0.00000000000E+00 0. -1.
         -1    1    4    4    0  501 -0.26403977385E+02  0.29631234020E+02 -0.29597245486E+03  0.29862162361E+03  0.00000000000E+00 0.  1.
          5    1    3    3  502    0  0.68061715323E+02 -0.21318193073E+01 -0.17641062412E+03  0.18915533312E+03  0.47000000000E+01 0. -1.
         13    1    6    6    0    0 -0.85669832406E+02  0.53595581428E+01 -0.93804534785E+02  0.12715083875E+03  0.00000000000E+00 0. -1.
        -14    1    6    6    0    0 -0.15665077954E+02 -0.33287954568E+02 -0.74061800547E+01  0.37527777574E+02  0.00000000000E+00 0.  1.
         -5    1    5    5    0  503  0.11152338502E+02 -0.97902334340E+02 -0.12742073482E+03  0.16114395858E+03  0.47000000000E+01 0.  1.
<mgrwt>
<rscale>  2 0.23292757E+03</rscale>
<asrwt>0</asrwt>
<pdfrwt beam="1">  1       21 0.94832334E-02 0.23319139E+03</pdfrwt>
<pdfrwt beam="2">  1       21 0.20297205E+00 0.23319139E+03</pdfrwt>
<totfact> 0.11093837E+04</totfact>
</mgrwt>
</event>
<event>
12    1  0.2762290E-001  0.1828962E+03  0.7546771E-02  0.1165205E+00
         21   -1    0    0  504  503  0.00000000000E+00  0.00000000000E+00  0.88795173484E+03  0.88795173484E+03  0.00000000000E+00 0. -1.
         21   -1    0    0  502  504 -0.00000000000E+00 -0.00000000000E+00 -0.63869868681E+02  0.63869868681E+02  0.00000000000E+00 0. -1.
          6    2    1    2  502    0  0.53969710013E+02 -0.21148784541E+02  0.10685096608E+03  0.21182104745E+03  0.17346765261E+03 0.  0.
         24    2    3    3    0    0 -0.82563396478E+01 -0.10727175640E+02 -0.81105268087E+01  0.80600141963E+02  0.79040260613E+02 0.  0.
         -6    2    1    2    0  503 -0.53969710013E+02  0.21148784541E+02  0.71723090008E+03  0.74000055607E+03  0.17268658974E+03 0.  0.
        -24    2    5    5    0    0 -0.22137474401E+02 -0.33517247818E+02  0.17807059882E+03  0.19712157621E+03  0.74392902697E+02 0.  0.
          4    1    4    4  501    0  0.41847069854E+01 -0.14837706590E+02 -0.41746586457E+02  0.44502211071E+02  0.00000000000E+00 0. -1.
         -3    1    4    4    0  501 -0.12441046633E+02  0.41105309498E+01  0.33636059648E+02  0.36097930892E+02  0.00000000000E+00 0.  1.
          5    1    3    3  502    0  0.62226049661E+02 -0.10421608901E+02  0.11496149289E+03  0.13122090549E+03  0.47000000000E+01 0. -1.
         13    1    6    6    0    0  0.70224709061E+00  0.19659419646E+02  0.87161665496E+02  0.89354025448E+02  0.00000000000E+00 0. -1.
        -14    1    6    6    0    0 -0.22839721492E+02 -0.53176667463E+02  0.90908933319E+02  0.10776755076E+03  0.00000000000E+00 0.  1.
         -5    1    5    5    0  503 -0.31832235612E+02  0.54666032359E+02  0.53916030126E+03  0.54287897986E+03  0.47000000000E+01 0.  1.
<mgrwt>
<rscale>  2 0.18271078E+03</rscale>
<asrwt>0</asrwt>
<pdfrwt beam="1">  1       21 0.13660795E+00 0.18289622E+03</pdfrwt>
<pdfrwt beam="2">  1       21 0.98261343E-02 0.18289622E+03</pdfrwt>
<totfact> 0.32087794E+04</totfact>
</mgrwt>
</event>
<event>
12    1  0.2762290E-001  0.2033054E+03  0.7546771E-02  0.1147351E+00
         21   -1    0    0  504  503  0.00000000000E+00  0.00000000000E+00  0.23865694392E+03  0.23865694392E+03  0.00000000000E+00 0.  1.
         21   -1    0    0  502  504 -0.00000000000E+00 -0.00000000000E+00 -0.20966730100E+03  0.20966730100E+03  0.00000000000E+00 0. -1.
          6    2    1    2  502    0  0.33653277232E+02 -0.96823710980E+02 -0.80986183658E+02  0.21717975338E+03  0.17349613615E+03 0.  0.
         24    2    3    3    0    0  0.85478551807E+02 -0.91149677543E+02 -0.62248337863E+02  0.16158073716E+03  0.81354978448E+02 0.  0.
         -6    2    1    2    0  503 -0.33653277232E+02  0.96823710980E+02  0.10997582658E+03  0.23114449154E+03  0.17557254757E+03 0.  0.
        -24    2    5    5    0    0 -0.76430134494E+02  0.19901584632E+02  0.46823634684E+02  0.12271404203E+03  0.81416489834E+02 0.  0.
          2    1    4    4  501    0  0.47893568700E+02 -0.99602261687E+02 -0.44033668020E+02  0.11896793003E+03  0.00000000000E+00 0. -1.
         -1    1    4    4    0  501  0.37584983108E+02  0.84525841438E+01 -0.18214669843E+02  0.42612807129E+02  0.00000000000E+00 0.  1.
          5    1    3    3  502    0 -0.51825274575E+02 -0.56740334369E+01 -0.18737845795E+02  0.55599016226E+02  0.47000000000E+01 0. -1.
         11    1    6    6    0    0 -0.28588707062E+02 -0.17082712110E+02 -0.14739881309E+02  0.36419738131E+02  0.00000000000E+00 0. -1.
        -12    1    6    6    0    0 -0.47841427432E+02  0.36984296742E+02  0.61563515993E+02  0.86294303900E+02  0.00000000000E+00 0.  1.
         -5    1    5    5    0  503  0.42776857262E+02  0.76922126348E+02  0.63152191891E+02  0.10843044950E+03  0.47000000000E+01 0.  1.
<mgrwt>
<rscale>  2 0.20285632E+03</rscale>
<asrwt>0</asrwt>
<pdfrwt beam="1">  1       21 0.36716453E-01 0.20330542E+03</pdfrwt>
<pdfrwt beam="2">  1       21 0.32256508E-01 0.20330542E+03</pdfrwt>
<totfact> 0.65827654E+04</totfact>
</mgrwt>
</event>
<event>
12    1  0.2762290E-001  0.2069239E+03  0.7546771E-02  0.1144831E+00
         21   -1    0    0  504  503  0.00000000000E+00  0.00000000000E+00  0.13733790710E+03  0.13733790710E+03  0.00000000000E+00 0. -1.
         21   -1    0    0  502  504 -0.00000000000E+00 -0.00000000000E+00 -0.30844969630E+03  0.30844969630E+03  0.00000000000E+00 0. -1.
          6    2    1    2  502    0  0.19661503692E+02 -0.11189060923E+03 -0.10523564554E+03  0.22863058798E+03  0.16820024229E+03 0.  0.
         24    2    3    3    0    0 -0.42138023466E+02 -0.48140729734E+02 -0.16557365546E+02  0.10305528772E+03  0.79076564742E+02 0.  0.
         -6    2    1    2    0  503 -0.19661503692E+02  0.11189060923E+03 -0.65876143651E+02  0.21715701542E+03  0.17294918294E+03 0.  0.
        -24    2    5    5    0    0  0.37478005019E+02  0.10359912878E+03 -0.47094131786E+01  0.13291254367E+03  0.74203674753E+02 0.  0.
          2    1    4    4  501    0 -0.31365775806E+02 -0.67312987148E+02 -0.26596268587E+02  0.78880996656E+02  0.00000000000E+00 0. -1.
         -1    1    4    4    0  501 -0.10772247661E+02  0.19172257414E+02  0.10038903041E+02  0.24174291060E+02  0.00000000000E+00 0.  1.
          5    1    3    3  502    0  0.61799527159E+02 -0.63749879497E+02 -0.88678279999E+02  0.12557530026E+03  0.47000000000E+01 0. -1.
         13    1    6    6    0    0  0.26959364738E+02  0.10022925834E+03 -0.27684445326E+02  0.10742038953E+03  0.00000000000E+00 0. -1.
        -14    1    6    6    0    0  0.10518640280E+02  0.33698704410E+01  0.22975032147E+02  0.25492154132E+02  0.00000000000E+00 0.  1.
         -5    1    5    5    0  503 -0.57139508711E+02  0.82914804488E+01 -0.61166730472E+02  0.84244471750E+02  0.47000000000E+01 0.  1.
<mgrwt>
<rscale>  2 0.20592863E+03</rscale>
<asrwt>0</asrwt>
<pdfrwt beam="1">  1       21 0.21128909E-01 0.20692391E+03</pdfrwt>
<pdfrwt beam="2">  1       21 0.47453799E-01 0.20692391E+03</pdfrwt>
<totfact> 0.87935198E+04</totfact>
</mgrwt>
</event>
<event>
12    1  0.2762290E-001  0.2101213E+03  0.7546771E-02  0.1142831E+00
         21   -1    0    0  504  503  0.00000000000E+00  0.00000000000E+00  0.45376665464E+02  0.45376665464E+02  0.00000000000E+00 0.  1.
         21   -1    0    0  502  504 -0.00000000000E+00 -0.00000000000E+00 -0.96121921263E+03  0.96121921263E+03  0.00000000000E+00 0. -1.
          6    2    1    2  502    0  0.37862223519E+02 -0.99018962511E+02 -0.53652189381E+03  0.57620022447E+03  0.18141844790E+03 0.  0.
         24    2    3    3    0    0  0.84546858680E+02 -0.82742727991E+02 -0.46917120364E+03  0.49251882609E+03  0.91970894151E+02 0.  0.
         -6    2    1    2    0  503 -0.37862223519E+02  0.99018962511E+02 -0.37932065336E+03  0.43039565362E+03  0.17354526121E+03 0.  0.
        -24    2    5    5    0    0  0.40440776250E+01  0.76548184569E+02 -0.10774782460E+03  0.15465126971E+03  0.80196274190E+02 0.  0.
          2    1    4    4  501    0  0.84127781039E+02 -0.19208911481E+02 -0.26668285758E+03  0.28029665062E+03  0.00000000000E+00 0. -1.
         -1    1    4    4    0  501  0.41907764126E+00 -0.63533816510E+02 -0.20248834606E+03  0.21222217546E+03  0.00000000000E+00 0.  1.
          5    1    3    3  502    0 -0.46684635161E+02 -0.16276234520E+02 -0.67350690166E+02  0.83681398387E+02  0.47000000000E+01 0. -1.
         11    1    6    6    0    0  0.33726767115E+02  0.45957414384E+02 -0.93871968528E+02  0.10982497545E+03  0.00000000000E+00 0. -1.
        -12    1    6    6    0    0 -0.29682689490E+02  0.30590770185E+02 -0.13875856068E+02  0.44826294265E+02  0.00000000000E+00 0.  1.
         -5    1    5    5    0  503 -0.41906301145E+02  0.22470777942E+02 -0.27157282876E+03  0.27574438391E+03  0.47000000000E+01 0.  1.
<mgrwt>
<rscale>  2 0.20841079E+03</rscale>
<asrwt>0</asrwt>
<pdfrwt beam="1">  1       21 0.69810254E-02 0.21012129E+03</pdfrwt>
<pdfrwt beam="2">  1       21 0.14787988E+00 0.21012129E+03</pdfrwt>
<totfact> 0.46692220E+04</totfact>
</mgrwt>
</event>
<event>
12    1  0.2762290E-001  0.2260125E+03  0.7546771E-02  0.1129894E+00
         21   -1    0    0  504  503  0.00000000000E+00  0.00000000000E+00  0.46313046526E+03  0.46313046526E+03  0.00000000000E+00 0. -1.
         21   -1    0    0  502  504 -0.00000000000E+00 -0.00000000000E+00 -0.21276631247E+03  0.21276631247E+03  0.00000000000E+00 0. -1.
          6    2    1    2  502    0  0.10726247569E+03 -0.93377119666E+02 -0.11095004754E+03  0.24971651393E+03  0.17269597306E+03 0.  0.
         24    2    3    3    0    0  0.85180175524E+02 -0.82970561193E+01 -0.10951850695E+03  0.16168024582E+03  0.82593553514E+02 0.  0.
         -6    2    1    2    0  503 -0.10726247569E+03  0.93377119666E+02  0.36131420033E+03  0.42618026381E+03  0.17566200707E+03 0.  0.
        -24    2    5    5    0    0 -0.14610863468E+03  0.81215265921E+02  0.28671209974E+03  0.34106564598E+03  0.78602125847E+02 0.  0.
          2    1    4    4  501    0  0.57082607960E+01 -0.33883344057E+02 -0.22412963445E+02  0.41024458268E+02  0.00000000000E+00 0. -1.
         -1    1    4    4    0  501  0.79471914728E+02  0.25586287938E+02 -0.87105543500E+02  0.12065578755E+03  0.00000000000E+00 0.  1.
          5    1    3    3  502    0  0.22082300164E+02 -0.85080063546E+02 -0.14315405941E+01  0.88036268106E+02  0.47000000000E+01 0. -1.
         13    1    6    6    0    0 -0.79551193596E+02  0.34203307179E+02  0.21767463443E+03  0.23426588548E+03  0.00000000000E+00 0. -1.
        -14    1    6    6    0    0 -0.66557441079E+02  0.47011958742E+02  0.69037465312E+02  0.10679976051E+03  0.00000000000E+00 0.  1.
         -5    1    5    5    0  503  0.38846158987E+02  0.12161853745E+02  0.74602100593E+02  0.85114617825E+02  0.47000000000E+01 0.  1.
<mgrwt>
<rscale>  2 0.22543596E+03</rscale>
<asrwt>0</asrwt>
<pdfrwt beam="1">  1       21 0.71250840E-01 0.22601253E+03</pdfrwt>
<pdfrwt beam="2">  1       21 0.32733279E-01 0.22601253E+03</pdfrwt>
<totfact> 0.15685103E+04</totfact>
</mgrwt>
</event>
<event>
12    1  0.2762290E-001  0.2330698E+03  0.7546771E-02  0.1124580E+00
         21   -1    0    0  504  503  0.00000000000E+00  0.00000000000E+00  0.26601669149E+03  0.26601669149E+03  0.00000000000E+00 0. -1.
         21   -1    0    0  502  504 -0.00000000000E+00 -0.00000000000E+00 -0.39084536609E+03  0.39084536609E+03  0.00000000000E+00 0.  1.
          6    2    1    2  502    0 -0.28092990045E+02  0.15304661420E+03 -0.28965990790E+03  0.37178543958E+03  0.17351964912E+03 0.  0.
         24    2    3    3    0    0 -0.60401008288E+02  0.16344542496E+03 -0.27325437560E+03  0.33379629905E+03  0.79933264241E+02 0.  0.
         -6    2    1    2    0  503  0.28092990045E+02 -0.15304661420E+03  0.16483123331E+03  0.28507661799E+03  0.17287816648E+03 0.  0.
        -24    2    5    5    0    0 -0.48076194497E+02 -0.10469658667E+03  0.11805380640E+03  0.18334320409E+03  0.80033327709E+02 0.  0.
          4    1    4    4  501    0 -0.61391843562E+02  0.54852436855E+02 -0.13291336984E+03  0.15634485015E+03  0.00000000000E+00 0. -1.
         -3    1    4    4    0  501  0.99083527388E+00  0.10859298811E+03 -0.14034100575E+03  0.17745144890E+03  0.00000000000E+00 0.  1.
          5    1    3    3  502    0  0.32308018244E+02 -0.10398810768E+02 -0.16405532308E+02  0.37989140534E+02  0.47000000000E+01 0. -1.
         13    1    6    6    0    0  0.18111898172E+02 -0.24525089243E+01  0.18860143952E+02  0.26263295401E+02  0.00000000000E+00 0. -1.
        -14    1    6    6    0    0 -0.66188092669E+02 -0.10224407775E+03  0.99193662450E+02  0.15707990869E+03  0.00000000000E+00 0.  1.
         -5    1    5    5    0  503  0.76169184542E+02 -0.48350027526E+02  0.46777426907E+02  0.10173341390E+03  0.47000000000E+01 0.  1.
<mgrwt>
<rscale>  2 0.23295045E+03</rscale>
<asrwt>0</asrwt>
<pdfrwt beam="1">  1       21 0.40925645E-01 0.23306984E+03</pdfrwt>
<pdfrwt beam="2">  1       21 0.60130056E-01 0.23306984E+03</pdfrwt>
<totfact> 0.14474514E+04</totfact>
</mgrwt>
</event>
<event>
12    1  0.2762290E-001  0.2674437E+03  0.7546771E-02  0.1103060E+00
         21   -1    0    0  504  503  0.00000000000E+00  0.00000000000E+00  0.20321849591E+03  0.20321849591E+03  0.00000000000E+00 0. -1.
         21   -1    0    0  502  504 -0.00000000000E+00 -0.00000000000E+00 -0.35018617081E+03  0.35018617081E+03  0.00000000000E+00 0.  1.
          6    2    1    2  502    0 -0.20005849376E+03 -0.34861828009E+02 -0.88591571557E+02  0.28173493606E+03  0.17403263966E+03 0.  0.
         24    2    3    3    0    0 -0.44746752191E+02 -0.29372942563E+02 -0.81527059308E+02  0.12609476686E+03  0.79926136179E+02 0.  0.
         -6    2    1    2    0  503  0.20005849376E+03  0.34861828009E+02 -0.58376103343E+02  0.27166973065E+03  0.17075691826E+03 0.  0.
        -24    2    5    5    0    0  0.15500948528E+03  0.94099964831E+02 -0.50133606199E+02  0.19664574263E+03  0.57213859484E+02 0.  0.
          4    1    4    4  501    0  0.22125351534E+02  0.40210642377E+00 -0.12172937906E+02  0.25256153455E+02  0.00000000000E+00 0. -1.
         -3    1    4    4    0  501 -0.66872103724E+02 -0.29775048987E+02 -0.69354121402E+02  0.10083861341E+03  0.00000000000E+00 0.  1.
          5    1    3    3  502    0 -0.15531174157E+03 -0.54888854460E+01 -0.70645122496E+01  0.15564016920E+03  0.47000000000E+01 0. -1.
         11    1    6    6    0    0  0.28897846054E+02  0.92150845441E+01  0.11731379740E+02  0.32521201705E+02  0.00000000000E+00 0. -1.
        -12    1    6    6    0    0  0.12611163922E+03  0.84884880287E+02 -0.61864985938E+02  0.16412454092E+03  0.00000000000E+00 0.  1.
         -5    1    5    5    0  503  0.45049008488E+02 -0.59238136822E+02 -0.82424971448E+01  0.75023988025E+02  0.47000000000E+01 0.  1.
<mgrwt>
<rscale>  2 0.26691209E+03</rscale>
<asrwt>0</asrwt>
<pdfrwt beam="1">  1       21 0.31264384E-01 0.26744365E+03</pdfrwt>
<pdfrwt beam="2">  1       21 0.53874796E-01 0.26744365E+03</pdfrwt>
<totfact> 0.30901903E+04</totfact>
</mgrwt>
</event>
<event>
12    1  0.2762290E-001  0.3059387E+03  0.7546771E-02  0.1082345E+00
         21   -1    0    0  504  503  0.00000000000E+00  0.00000000000E+00  0.38185180995E+03  0.38185180995E+03  0.00000000000E+00 0.  1.
         21   -1    0    0  502  504 -0.00000000000E+00 -0.00000000000E+00 -0.36025396631E+03  0.36025396631E+03  0.00000000000E+00 0. -1.
          6    2    1    2  502    0 -0.10669820966E+03 -0.22796825723E+03 -0.19918070846E+03  0.36506361098E+03  0.17390931887E+03 0.  0.
         24    2    3    3    0    0 -0.54714101795E+02 -0.23341626680E+03 -0.17272633769E+03  0.30629327823E+03  0.80649848225E+02 0.  0.
         -6    2    1    2    0  503  0.10669820966E+03  0.22796825723E+03  0.22077855210E+03  0.37704216528E+03  0.17338855522E+03 0.  0.
        -24    2    5    5    0    0  0.13155195540E+03  0.16424250466E+03  0.12056747508E+03  0.25562128497E+03  0.80772569461E+02 0.  0.
          4    1    4    4  501    0 -0.73722479404E+02 -0.16009294735E+03 -0.13269307905E+03  0.22061778937E+03  0.00000000000E+00 0. -1.
         -3    1    4    4    0  501  0.19008377610E+02 -0.73323319445E+02 -0.40033258644E+02  0.85675488860E+02  0.00000000000E+00 0.  1.
          5    1    3    3  502    0 -0.51984107863E+02  0.54480095635E+01 -0.26454370771E+02  0.58770332749E+02  0.47000000000E+01 0. -1.
         11    1    6    6    0    0  0.56005791077E+02  0.15686208993E+02  0.23319757463E+02  0.62661925241E+02  0.00000000000E+00 0. -1.
        -12    1    6    6    0    0  0.75546164318E+02  0.14855629567E+03  0.97247717619E+02  0.19295935973E+03  0.00000000000E+00 0.  1.
         -5    1    5    5    0  503 -0.24853745737E+02  0.63725752575E+02  0.10021107701E+03  0.12142088031E+03  0.47000000000E+01 0.  1.
<mgrwt>
<rscale>  2 0.30586474E+03</rscale>
<asrwt>0</asrwt>
<pdfrwt beam="1">  1       21 0.58746432E-01 0.30593870E+03</pdfrwt>
<pdfrwt beam="2">  1       21 0.55423687E-01 0.30593870E+03</pdfrwt>
<totfact> 0.77908296E+03</totfact>
</mgrwt>
</event>
<event>
12    1  0.2762290E-001  0.3429175E+03  0.7546771E-02  0.1065706E+00
         21   -1    0    0  504  503  0.00000000000E+00  0.00000000000E+00  0.96774540343E+03  0.96774540343E+03  0.00000000000E+00 0. -1.
         21   -1    0    0  502  504 -0.00000000000E+00 -0.00000000000E+00 -0.15604348933E+03  0.15604348933E+03  0.00000000000E+00 0. -1.
          6    2    1    2  502    0 -0.29442845418E+03  0.38919500026E+01  0.13902059343E+03  0.36874413294E+03  0.17303828557E+03 0.  0.
         24    2    3    3    0    0 -0.18175291816E+03  0.65941574321E+01  0.15801974665E+03  0.25434948199E+03  0.81521852809E+02 0.  0.
         -6    2    1    2    0  503  0.29442845418E+03 -0.38919500026E+01  0.67268132066E+03  0.75504475982E+03  0.17575314578E+03 0.  0.
        -24    2    5    5    0    0  0.23903558125E+03 -0.51712477854E+02  0.59336340959E+03  0.64702349213E+03  0.82140574998E+02 0.  0.
          4    1    4    4  501    0 -0.24045740453E+02 -0.13868839278E+02 -0.31412322941E+01  0.27935813523E+02  0.00000000000E+00 0. -1.
         -3    1    4    4    0  501 -0.15770717771E+03  0.20462996710E+02  0.16116097894E+03  0.22641366847E+03  0.00000000000E+00 0.  1.
          5    1    3    3  502    0 -0.11267553602E+03 -0.27022074295E+01 -0.18999153218E+02  0.11439465095E+03  0.47000000000E+01 0. -1.
         13    1    6    6    0    0  0.17743705092E+03 -0.10679558302E-01  0.39855581449E+03  0.43626900465E+03  0.00000000000E+00 0. -1.
        -14    1    6    6    0    0  0.61598530333E+02 -0.51701798296E+02  0.19480759510E+03  0.21075448748E+03  0.00000000000E+00 0.  1.
         -5    1    5    5    0  503  0.55392872927E+02  0.47820527852E+02  0.79317911076E+02  0.10802126769E+03  0.47000000000E+01 0.  1.
<mgrwt>
<rscale>  2 0.34257113E+03</rscale>
<asrwt>0</asrwt>
<pdfrwt beam="1">  1       21 0.14888390E+00 0.34291753E+03</pdfrwt>
<pdfrwt beam="2">  1       21 0.24006691E-01 0.34291753E+03</pdfrwt>
<totfact> 0.45309682E+03</totfact>
</mgrwt>
</event>
<event>
12    1  0.2762290E-001  0.2761212E+03  0.7546771E-02  0.1097833E+00
         21   -1    0    0  504  503  0.00000000000E+00  0.00000000000E+00  0.39519099794E+03  0.39519099794E+03  0.00000000000E+00 0.  1.
         21   -1    0    0  502  504 -0.00000000000E+00 -0.00000000000E+00 -0.30622148132E+03  0.30622148132E+03  0.00000000000E+00 0.  1.
          6    2    1    2  502    0 -0.19346946102E+03  0.94663596643E+02 -0.16886291453E+03  0.32366277931E+03  0.17277523529E+03 0.  0.
         24    2    3    3    0    0 -0.13767633258E+03  0.23236741598E+02 -0.17166886154E+03  0.23286282258E+03  0.72527080509E+02 0.  0.
         -6    2    1    2    0  503  0.19346946102E+03 -0.94663596643E+02  0.25783243115E+03  0.37774969995E+03  0.17270102600E+03 0.  0.
        -24    2    5    5    0    0  0.16546604549E+03 -0.17171976952E+02  0.21981710213E+03  0.28688497828E+03  0.79432634173E+02 0.  0.
          4    1    4    4  501    0 -0.12964589839E+03 -0.24410401711E+01 -0.13294827063E+03  0.18571284369E+03  0.00000000000E+00 0. -1.
         -3    1    4    4    0  501 -0.80304341907E+01  0.25677781769E+02 -0.38720590907E+02  0.47149978898E+02  0.00000000000E+00 0.  1.
          5    1    3    3  502    0 -0.55793128445E+02  0.71426855045E+02  0.28059470066E+01  0.90799956729E+02  0.47000000000E+01 0. -1.
         11    1    6    6    0    0  0.49177104965E+02 -0.14926634627E+01  0.13035336512E+03  0.13932916240E+03  0.00000000000E+00 0. -1.
        -12    1    6    6    0    0  0.11628894053E+03 -0.15679313489E+02  0.89463737005E+02  0.14755581588E+03  0.00000000000E+00 0.  1.
         -5    1    5    5    0  503  0.28003415532E+02 -0.77491619691E+02  0.38015329023E+02  0.90864721672E+02  0.47000000000E+01 0.  1.
<mgrwt>
<rscale>  2 0.27610958E+03</rscale>
<asrwt>0</asrwt>
<pdfrwt beam="1">  1       21 0.60798615E-01 0.27612119E+03</pdfrwt>
<pdfrwt beam="2">  1       21 0.47110997E-01 0.27612119E+03</pdfrwt>
<totfact> 0.10340404E+04</totfact>
</mgrwt>
</event>
<event>
12    1  0.2762290E-001  0.4713994E+03  0.7546771E-02  0.1021581E+00
         21   -1    0    0  504  503  0.00000000000E+00  0.00000000000E+00  0.28473458626E+04  0.28473458626E+04  0.00000000000E+00 0.  1.
         21   -1    0    0  502  504 -0.00000000000E+00 -0.00000000000E+00 -0.80396944997E+02  0.80396944997E+02  0.00000000000E+00 0. -1.
          6    2    1    2  502    0 -0.65815937137E+02 -0.43289154851E+03  0.11251838737E+04  0.12196415620E+04  0.17251075284E+03 0.  0.
         24    2    3    3    0    0 -0.29088764676E+01 -0.14239086071E+03  0.28575099955E+03  0.32912621231E+03  0.79917526905E+02 0.  0.
         -6    2    1    2    0  503  0.65815937137E+02  0.43289154851E+03  0.16417650440E+04  0.17081012456E+04  0.17461550725E+03 0.  0.
        -24    2    5    5    0    0  0.37337283238E+02  0.42782166774E+03  0.14596566038E+04  0.15236498661E+04  0.80536087752E+02 0.  0.
          4    1    4    4  501    0 -0.39336807356E+02 -0.98312522956E+02  0.19389648830E+03  0.22092665018E+03  0.00000000000E+00 0. -1.
         -3    1    4    4    0  501  0.36427930888E+02 -0.44078337753E+02  0.91854511249E+02  0.10819956213E+03  0.00000000000E+00 0.  1.
          5    1    3    3  502    0 -0.62907060670E+02 -0.29050068780E+03  0.83943287410E+03  0.89051534968E+03  0.47000000000E+01 0. -1.
         11    1    6    6    0    0 -0.11223962086E+02  0.33729656337E+02  0.19188970245E+03  0.19515461805E+03  0.00000000000E+00 0. -1.
        -12    1    6    6    0    0  0.48561245324E+02  0.39409201140E+03  0.12677669014E+04  0.13284952481E+04  0.00000000000E+00 0.  1.
         -5    1    5    5    0  503  0.28478653900E+02  0.50698807697E+01  0.18210844018E+03  0.18445137951E+03  0.47000000000E+01 0.  1.
<mgrwt>
<rscale>  2 0.47120540E+03</rscale>
<asrwt>0</asrwt>
<pdfrwt beam="1">  1       21 0.43805313E+00 0.47139941E+03</pdfrwt>
<pdfrwt beam="2">  1       21 0.12368763E-01 0.47139941E+03</pdfrwt>
<totfact> 0.20764509E+02</totfact>
</mgrwt>
</event>
<event>
12    1  0.2762290E-001  0.1780838E+03  0.7546771E-02  0.1169684E+00
         21   -1    0    0  504  503  0.00000000000E+00  0.00000000000E+00  0.18364745296E+03  0.18364745296E+03  0.00000000000E+00 0. -1.
         21   -1    0    0  502  504 -0.00000000000E+00 -0.00000000000E+00 -0.32795715350E+03  0.32795715350E+03  0.00000000000E+00 0. -1.
          6    2    1    2  502    0 -0.34144393632E+01 -0.35169256164E+02 -0.24818999824E+03  0.30543730000E+03  0.17448534046E+03 0.  0.
         24    2    3    3    0    0  0.14956606237E+02 -0.57801440382E+02 -0.66612229573E+02  0.12147456695E+03  0.82183786159E+02 0.  0.
         -6    2    1    2    0  503  0.34144393632E+01  0.35169256164E+02  0.10388029769E+03  0.20616730646E+03  0.17454313802E+03 0.  0.
        -24    2    5    5    0    0 -0.46600598750E+01  0.62740789917E+02  0.12941022047E+03  0.16744710542E+03  0.85635302719E+02 0.  0.
          4    1    4    4  501    0  0.44283182118E+02 -0.21257424729E+02 -0.53898376567E+02  0.72924024307E+02  0.00000000000E+00 0. -1.
         -3    1    4    4    0  501 -0.29326575881E+02 -0.36544015653E+02 -0.12713853006E+02  0.48550542646E+02  0.00000000000E+00 0.  1.
          5    1    3    3  502    0 -0.18371045600E+02  0.22632184218E+02 -0.18157776866E+03  0.18396273305E+03  0.47000000000E+01 0. -1.
         13    1    6    6    0    0 -0.33920319060E+02  0.21778727103E+01  0.69529605038E+02  0.77393133749E+02  0.00000000000E+00 0. -1.
        -14    1    6    6    0    0  0.29260259185E+02  0.60562917207E+02  0.59880615437E+02  0.90053971668E+02  0.00000000000E+00 0.  1.
         -5    1    5    5    0  503  0.80744992382E+01 -0.27571533753E+02 -0.25529922783E+02  0.38720201042E+02  0.47000000000E+01 0.  1.
<mgrwt>
<rscale>  2 0.17806964E+03</rscale>
<asrwt>0</asrwt>
<pdfrwt beam="1">  1       21 0.28253455E-01 0.17808381E+03</pdfrwt>
<pdfrwt beam="2">  1       21 0.50454946E-01 0.17808381E+03</pdfrwt>
<totfact> 0.45086719E+04</totfact>
</mgrwt>
</event>
<event>
12    1  0.2762290E-001  0.4031097E+03  0.7546771E-02  0.1042735E+00
         21   -1    0    0  504  503  0.00000000000E+00  0.00000000000E+00  0.29444046395E+03  0.29444046395E+03  0.00000000000E+00 0.  1.
         21   -1    0    0  502  504 -0.00000000000E+00 -0.00000000000E+00 -0.61687936229E+03  0.61687936229E+03  0.00000000000E+00 0. -1.
          6    2    1    2  502    0  0.22832387337E+03  0.28321877836E+03 -0.30954776364E+03  0.50800405397E+03  0.17292667033E+03 0.  0.
         24    2    3    3    0    0  0.24979871745E+03  0.27075470176E+03 -0.28245727024E+03  0.47095669285E+03  0.79439217392E+02 0.  0.
         -6    2    1    2    0  503 -0.22832387337E+03 -0.28321877836E+03 -0.12891134701E+02  0.40331577227E+03  0.17364551027E+03 0.  0.
        -24    2    5    5    0    0 -0.11883342266E+03 -0.10247202802E+03  0.49091227678E+02  0.18303992292E+03  0.80447286358E+02 0.  0.
          4    1    4    4  501    0  0.98930856420E+02  0.11538015287E+03 -0.69145666716E+02  0.16697609785E+03  0.00000000000E+00 0. -1.
         -3    1    4    4    0  501  0.15086786103E+03  0.15537454889E+03 -0.21331160353E+03  0.30398059499E+03  0.00000000000E+00 0.  1.
          5    1    3    3  502    0 -0.21474844082E+02  0.12464076605E+02 -0.27090493398E+02  0.37047361127E+02  0.47000000000E+01 0. -1.
         13    1    6    6    0    0 -0.13775820808E+02 -0.54846592678E+02  0.35796771761E+02  0.66927803160E+02  0.00000000000E+00 0. -1.
        -14    1    6    6    0    0 -0.10505760185E+03 -0.47625435337E+02  0.13294455917E+02  0.11611211976E+03  0.00000000000E+00 0.  1.
         -5    1    5    5    0  503 -0.10949045071E+03 -0.18074675035E+03 -0.61982362380E+02  0.22027584934E+03  0.47000000000E+01 0.  1.
<mgrwt>
<rscale>  2 0.40303240E+03</rscale>
<asrwt>0</asrwt>
<pdfrwt beam="1">  1       21 0.45298533E-01 0.40310970E+03</pdfrwt>
<pdfrwt beam="2">  1       21 0.94904518E-01 0.40310970E+03</pdfrwt>
<totfact> 0.38587442E+03</totfact>
</mgrwt>
</event>
<event>
12    1  0.2762290E-001  0.2016538E+03  0.7546771E-02  0.1150170E+00
         21   -1    0    0  504  503  0.00000000000E+00  0.00000000000E+00  0.22578959471E+03  0.22578959471E+03  0.00000000000E+00 0. -1.
         21   -1    0    0  502  504 -0.00000000000E+00 -0.00000000000E+00 -0.22174625871E+03  0.22174625871E+03  0.00000000000E+00 0. -1.
          6    2    1    2  502    0  0.65236847457E+01 -0.10233062336E+03 -0.10329892324E+03  0.22657214871E+03  0.17363800300E+03 0.  0.
         24    2    3    3    0    0  0.22796669266E+02  0.18534316788E+01 -0.88570420506E+01  0.84937102648E+02  0.81318760897E+02 0.  0.
         -6    2    1    2    0  503 -0.65236847457E+01  0.10233062336E+03  0.10734225923E+03  0.22096370471E+03  0.16367187675E+03 0.  0.
        -24    2    5    5    0    0  0.42768668472E+02  0.15359088602E+02  0.62710555970E+02  0.11138331011E+03  0.80053527937E+02 0.  0.
          2    1    4    4  501    0  0.94242227718E+01 -0.10649906980E+02 -0.43493874109E+02  0.45759737527E+02  0.00000000000E+00 0. -1.
         -1    1    4    4    0  501  0.13372446494E+02  0.12503338659E+02  0.34636832058E+02  0.39177365122E+02  0.00000000000E+00 0.  1.
          5    1    3    3  502    0 -0.16272984520E+02 -0.10418405504E+03 -0.94441881188E+02  0.14163504606E+03  0.47000000000E+01 0. -1.
         11    1    6    6    0    0  0.33613850420E+02  0.24382926207E+02  0.79824247574E+02  0.89979600640E+02  0.00000000000E+00 0. -1.
        -12    1    6    6    0    0  0.91548180517E+01 -0.90238376051E+01 -0.17113691604E+02  0.21403709469E+02  0.00000000000E+00 0.  1.
         -5    1    5    5    0  503 -0.49292353218E+02  0.86971534759E+02  0.44631703265E+02  0.10958039460E+03  0.47000000000E+01 0.  1.
<mgrwt>
<rscale>  2 0.19949052E+03</rscale>
<asrwt>0</asrwt>
<pdfrwt beam="1">  1       21 0.34736861E-01 0.20165384E+03</pdfrwt>
<pdfrwt beam="2">  1       21 0.34114809E-01 0.20165384E+03</pdfrwt>
<totfact> 0.65865463E+04</totfact>
</mgrwt>
</event>
<event>
12    1  0.2762290E-001  0.2827556E+03  0.7546771E-02  0.1095872E+00
         21   -1    0    0  504  503  0.00000000000E+00  0.00000000000E+00  0.28020474338E+03  0.28020474338E+03  0.00000000000E+00 0. -1.
         21   -1    0    0  502  504 -0.00000000000E+00 -0.00000000000E+00 -0.30330959301E+03  0.30330959301E+03  0.00000000000E+00 0. -1.
          6    2    1    2  502    0 -0.11934997172E+03  0.18909566300E+03 -0.10369669651E+03  0.30117061302E+03  0.17305822074E+03 0.  0.
         24    2    3    3    0    0 -0.21049254982E+02  0.40196855446E+02 -0.77912257783E+02  0.12083533338E+03  0.80448738694E+02 0.  0.
         -6    2    1    2    0  503  0.11934997172E+03 -0.18909566300E+03  0.80591846894E+02  0.28234372337E+03  0.15238552039E+03 0.  0.
        -24    2    5    5    0    0  0.79652165258E+02 -0.19677361769E+03  0.52938060326E+02  0.23313306662E+03  0.80524930746E+02 0.  0.
          4    1    4    4  501    0  0.66853136032E+01  0.37986200946E+02 -0.49802887316E+00  0.38573214969E+02  0.00000000000E+00 0. -1.
         -3    1    4    4    0  501 -0.27734568585E+02  0.22106544999E+01 -0.77414228910E+02  0.82262118412E+02  0.00000000000E+00 0.  1.
          5    1    3    3  502    0 -0.98300716738E+02  0.14889880755E+03 -0.25784438732E+02  0.18033527964E+03  0.47000000000E+01 0. -1.
         11    1    6    6    0    0  0.17595042440E+02 -0.46310378322E+02  0.49944916943E+02  0.70347220181E+02  0.00000000000E+00 0. -1.
        -12    1    6    6    0    0  0.62057122818E+02 -0.15046323937E+03  0.29931433828E+01  0.16278584644E+03  0.00000000000E+00 0.  1.
         -5    1    5    5    0  503  0.39697806463E+02  0.76779546888E+01  0.27653786569E+02  0.49210656750E+02  0.47000000000E+01 0.  1.
<mgrwt>
<rscale>  2 0.27966577E+03</rscale>
<asrwt>0</asrwt>
<pdfrwt beam="1">  1       21 0.43108422E-01 0.28275561E+03</pdfrwt>
<pdfrwt beam="2">  1       21 0.46663015E-01 0.28275561E+03</pdfrwt>
<totfact> 0.21749432E+04</totfact>
</mgrwt>
</event>
<event>
12    1  0.2762290E-001  0.2319305E+03  0.7546771E-02  0.1125338E+00
         21   -1    0    0  504  503  0.00000000000E+00  0.00000000000E+00  0.40240493036E+03  0.40240493036E+03  0.00000000000E+00 0. -1.
         21   -1    0    0  502  504 -0.00000000000E+00 -0.00000000000E+00 -0.15414763070E+03  0.15414763070E+03  0.00000000000E+00 0. -1.
          6    2    1    2  502    0  0.10942115863E+03  0.10783045384E+03  0.22600887907E+03  0.32383911285E+03  0.17375661386E+03 0.  0.
         24    2    3    3    0    0  0.91627805609E+02  0.37962031595E+02  0.58967893193E+02  0.14184191287E+03  0.82493304057E+02 0.  0.
         -6    2    1    2    0  503 -0.10942115863E+03 -0.10783045384E+03  0.22248420582E+02  0.23271344821E+03  0.17337866082E+03 0.  0.
        -24    2    5    5    0    0 -0.94699988718E+02 -0.28178240257E+02 -0.36890225867E+02  0.13231097077E+03  0.79894950625E+02 0.  0.
          2    1    4    4  501    0  0.29252622161E+01 -0.11783484133E+02  0.35432338345E+02  0.37454749472E+02  0.00000000000E+00 0. -1.
         -1    1    4    4    0  501  0.88702543393E+02  0.49745515728E+02  0.23535554847E+02  0.10438716339E+03  0.00000000000E+00 0.  1.
          5    1    3    3  502    0  0.17793353025E+02  0.69868422241E+02  0.16704098588E+03  0.18199719998E+03  0.47000000000E+01 0. -1.
         11    1    6    6    0    0 -0.10289304644E+02  0.65871074987E+01 -0.39131023895E+02  0.40993863032E+02  0.00000000000E+00 0. -1.
        -12    1    6    6    0    0 -0.84410684074E+02 -0.34765347756E+02  0.22407980282E+01  0.91317107741E+02  0.00000000000E+00 0.  1.
         -5    1    5    5    0  503 -0.14721169917E+02 -0.79652213579E+02  0.59138646449E+02  0.10040247744E+03  0.47000000000E+01 0.  1.
<mgrwt>
<rscale>  2 0.23185971E+03</rscale>
<asrwt>0</asrwt>
<pdfrwt beam="1">  1       21 0.61908450E-01 0.23193050E+03</pdfrwt>
<pdfrwt beam="2">  1       21 0.23715020E-01 0.23193050E+03</pdfrwt>
<totfact> 0.39791651E+04</totfact>
</mgrwt>
</event>
<event>
12    1  0.2762290E-001  0.1745587E+03  0.7546771E-02  0.1173755E+00
         21   -1    0    0  504  503  0.00000000000E+00  0.00000000000E+00  0.11673396347E+04  0.11673396347E+04  0.00000000000E+00 0. -1.
         21   -1    0    0  502  504 -0.00000000000E+00 -0.00000000000E+00 -0.37059718720E+02  0.37059718720E+02  0.00000000000E+00 0. -1.
          6    2    1    2  502    0 -0.26308426833E+02 -0.10276336974E+01  0.23006265023E+03  0.28741415420E+03  0.17024947474E+03 0.  0.
         24    2    3    3    0    0 -0.69585265446E+02  0.45420744772E+02  0.18025146381E+03  0.20658358501E+03  0.57280312218E+02 0.  0.
         -6    2    1    2    0  503  0.26308426833E+02  0.10276336974E+01  0.90021726574E+03  0.91698519921E+03  0.17256170108E+03 0.  0.
        -24    2    5    5    0    0 -0.18191562612E+02  0.58179332380E+02  0.45131799634E+03  0.46225537855E+03  0.79223314229E+02 0.  0.
          4    1    4    4  501    0 -0.11527713967E+02 -0.43915905789E+01  0.77538653104E+02  0.78513801221E+02  0.00000000000E+00 0. -1.
         -3    1    4    4    0  501 -0.58057551480E+02  0.49812335351E+02  0.10271281071E+03  0.12806978379E+03  0.00000000000E+00 0.  1.
          5    1    3    3  502    0  0.43276838613E+02 -0.46448378469E+02  0.49811186417E+02  0.80830569187E+02  0.47000000000E+01 0. -1.
         11    1    6    6    0    0  0.23727546768E+02  0.45898576941E+02  0.17369679623E+03  0.18121879831E+03  0.00000000000E+00 0. -1.
        -12    1    6    6    0    0 -0.41919109380E+02  0.12280755439E+02  0.27762120011E+03  0.28103658024E+03  0.00000000000E+00 0.  1.
         -5    1    5    5    0  503  0.44499989445E+02 -0.57151698683E+02  0.44889926941E+03  0.45472982066E+03  0.47000000000E+01 0.  1.
<mgrwt>
<rscale>  2 0.17398449E+03</rscale>
<asrwt>0</asrwt>
<pdfrwt beam="1">  1       21 0.17959068E+00 0.17455867E+03</pdfrwt>
<pdfrwt beam="2">  1       21 0.57014961E-02 0.17455867E+03</pdfrwt>
<totfact> 0.39867790E+04</totfact>
</mgrwt>
</event>
<event>
12    1  0.2762290E-001  0.1930867E+03  0.7546771E-02  0.1156011E+00
         21   -1    0    0  504  503  0.00000000000E+00  0.00000000000E+00  0.68187313901E+02  0.68187313901E+02  0.00000000000E+00 0. -1.
         21   -1    0    0  502  504 -0.00000000000E+00 -0.00000000000E+00 -0.56547786249E+03  0.56547786249E+03  0.00000000000E+00 0.  1.
          6    2    1    2  502    0  0.37196633938E+01 -0.84673518254E+02 -0.18615931935E+03  0.26821213327E+03  0.17349067889E+03 0.  0.
         24    2    3    3    0    0 -0.61000954461E+02 -0.66808162635E+02 -0.89686147055E+02  0.15058096274E+03  0.80290561880E+02 0.  0.
         -6    2    1    2    0  503 -0.37196633938E+01  0.84673518254E+02 -0.31113122923E+03  0.36545304312E+03  0.17195884487E+03 0.  0.
        -24    2    5    5    0    0  0.10324075178E+02  0.96353438382E+02 -0.32151930452E+03  0.34392052734E+03  0.74270413568E+02 0.  0.
          2    1    4    4  501    0 -0.11519866150E+02 -0.59111105861E+02 -0.79068670804E+02  0.99391573360E+02  0.00000000000E+00 0. -1.
         -1    1    4    4    0  501 -0.49481088311E+02 -0.76970567739E+01 -0.10617476251E+02  0.51189389383E+02  0.00000000000E+00 0.  1.
          5    1    3    3  502    0  0.64720617855E+02 -0.17865355619E+02 -0.96473172299E+02  0.11763117053E+03  0.47000000000E+01 0. -1.
         11    1    6    6    0    0 -0.29131268370E+02  0.37402516647E+02 -0.89243607442E+02  0.10105444333E+03  0.00000000000E+00 0. -1.
        -12    1    6    6    0    0  0.39455343548E+02  0.58950921735E+02 -0.23227569708E+03  0.24286608401E+03  0.00000000000E+00 0.  1.
         -5    1    5    5    0  503 -0.14043738572E+02 -0.11679920128E+02  0.10388075289E+02  0.21532515773E+02  0.47000000000E+01 0.  1.
<mgrwt>
<rscale>  2 0.19274193E+03</rscale>
<asrwt>0</asrwt>
<pdfrwt beam="1">  1       21 0.10490356E-01 0.19308665E+03</pdfrwt>
<pdfrwt beam="2">  1       21 0.86996597E-01 0.19308665E+03</pdfrwt>
<totfact> 0.84693684E+04</totfact>
</mgrwt>
</event>
<event>
12    1  0.2762290E-001  0.1867738E+03  0.7546771E-02  0.1163090E+00
         21   -1    0    0  504  503  0.00000000000E+00  0.00000000000E+00  0.11090043735E+03  0.11090043735E+03  0.00000000000E+00 0.  1.
         21   -1    0    0  502  504 -0.00000000000E+00 -0.00000000000E+00 -0.67008477668E+03  0.67008477668E+03  0.00000000000E+00 0.  1.
          6    2    1    2  502    0  0.70664322768E+02 -0.99196286082E+01 -0.57121246961E+03  0.60097265225E+03  0.17260532369E+03 0.  0.
         24    2    3    3    0    0  0.38158744915E+02 -0.34369299132E+02 -0.54263165454E+03  0.55103917680E+03  0.80979771052E+02 0.  0.
         -6    2    1    2    0  503 -0.70664322768E+02  0.99196286082E+01  0.12028130283E+02  0.18001256178E+03  0.16482718507E+03 0.  0.
        -24    2    5    5    0    0  0.20444478360E+02  0.29141010485E+02  0.21865575515E+01  0.86261712622E+02  0.78543789334E+02 0.  0.
          4    1    4    4  501    0 -0.15734361808E+02 -0.38714175337E+02 -0.24380660976E+03  0.24736212417E+03  0.00000000000E+00 0. -1.
         -3    1    4    4    0  501  0.53893106723E+02  0.43448762052E+01 -0.29882504478E+03  0.30367705263E+03  0.00000000000E+00 0.  1.
          5    1    3    3  502    0  0.32505577853E+02  0.24449670524E+02 -0.28580815066E+02  0.49933475446E+02  0.47000000000E+01 0. -1.
         13    1    6    6    0    0  0.10930955437E+02  0.47187887303E+02  0.25943232210E+02  0.54947554927E+02  0.00000000000E+00 0. -1.
        -14    1    6    6    0    0  0.95135229229E+01 -0.18046876818E+02 -0.23756674659E+02  0.31314157695E+02  0.00000000000E+00 0.  1.
         -5    1    5    5    0  503 -0.91108801128E+02 -0.19221381877E+02  0.98415727313E+01  0.93750849160E+02  0.47000000000E+01 0.  1.
<mgrwt>
<rscale>  2 0.18495655E+03</rscale>
<asrwt>0</asrwt>
<pdfrwt beam="1">  1       21 0.17061606E-01 0.18677378E+03</pdfrwt>
<pdfrwt beam="2">  1       21 0.10308997E+00 0.18677378E+03</pdfrwt>
<totfact> 0.23743123E+04</totfact>
</mgrwt>
</event>
<event>
12    1  0.2762290E-001  0.2022858E+03  0.7546771E-02  0.1149797E+00
         21   -1    0    0  504  503  0.00000000000E+00  0.00000000000E+00  0.49552200952E+03  0.49552200952E+03  0.00000000000E+00 0.  1.
         21   -1    0    0  502  504 -0.00000000000E+00 -0.00000000000E+00 -0.97603925121E+02  0.97603925121E+02  0.00000000000E+00 0.  1.
          6    2    1    2  502    0  0.17893029962E+01 -0.83061039797E+02  0.65211573776E+02  0.20375060460E+03  0.17423955230E+03 0.  0.
         24    2    3    3    0    0  0.17972020077E+02 -0.10903690662E+02 -0.21616164896E+02  0.89602851366E+02  0.84377297968E+02 0.  0.
         -6    2    1    2    0  503 -0.17893029962E+01  0.83061039797E+02  0.33270651063E+03  0.38937533004E+03  0.18443748939E+03 0.  0.
        -24    2    5    5    0    0 -0.34061128662E+02  0.11304241675E+03  0.17820942234E+03  0.22865260612E+03  0.81145964797E+02 0.  0.
          4    1    4    4  501    0  0.38054159881E+02  0.15390073037E+02  0.11665584240E+02  0.42673871256E+02  0.00000000000E+00 0. -1.
         -3    1    4    4    0  501 -0.20082139804E+02 -0.26293763699E+02 -0.33281749136E+02  0.46928980109E+02  0.00000000000E+00 0.  1.
          5    1    3    3  502    0 -0.16182717081E+02 -0.72157349135E+02  0.86827738672E+02  0.11414775324E+03  0.47000000000E+01 0. -1.
         13    1    6    6    0    0  0.13372704136E+01 -0.10162102527E+02  0.15223461371E+01  0.10362150245E+02  0.00000000000E+00 0. -1.
        -14    1    6    6    0    0 -0.35398399075E+02  0.12320451928E+03  0.17668707620E+03  0.21829045587E+03  0.00000000000E+00 0.  1.
         -5    1    5    5    0  503  0.32271825665E+02 -0.29981376956E+02  0.15449708829E+03  0.16072272392E+03  0.47000000000E+01 0.  1.
<mgrwt>
<rscale>  2 0.19993181E+03</rscale>
<asrwt>0</asrwt>
<pdfrwt beam="1">  1       21 0.76234154E-01 0.20228575E+03</pdfrwt>
<pdfrwt beam="2">  1       21 0.15015989E-01 0.20228575E+03</pdfrwt>
<totfact> 0.59742969E+04</totfact>
</mgrwt>
</event>
<event>
12    1  0.2762290E-001  0.2672336E+03  0.7546771E-02  0.1102981E+00
         21   -1    0    0  504  503  0.00000000000E+00  0.00000000000E+00  0.24121383539E+03  0.24121383539E+03  0.00000000000E+00 0.  1.
         21   -1    0    0  502  504 -0.00000000000E+00 -0.00000000000E+00 -0.39637758867E+03  0.39637758867E+03  0.00000000000E+00 0. -1.
          6    2    1    2  502    0  0.30817772718E+02  0.20118307027E+03 -0.23869464389E+03  0.35831403813E+03  0.17317463445E+03 0.  0.
         24    2    3    3    0    0 -0.18550891472E+00  0.96478621175E+02 -0.39911202075E+02  0.13146348849E+03  0.79884829576E+02 0.  0.
         -6    2    1    2    0  503 -0.30817772718E+02 -0.20118307027E+03  0.83530890615E+02  0.27927738593E+03  0.17202931647E+03 0.  0.
        -24    2    5    5    0    0 -0.32756451129E+02 -0.15250317044E+03 -0.59826918453E+01  0.17725649314E+03  0.83987318518E+02 0.  0.
          2    1    4    4  501    0  0.31768968688E+02  0.10390815681E+02 -0.11249592297E+02  0.35267403489E+02  0.00000000000E+00 0. -1.
         -1    1    4    4    0  501 -0.31954477603E+02  0.86087805494E+02 -0.28661609778E+02  0.96196084996E+02  0.00000000000E+00 0.  1.
          5    1    3    3  502    0  0.31003281633E+02  0.10470444909E+03 -0.19878344182E+03  0.22685054964E+03  0.47000000000E+01 0. -1.
         11    1    6    6    0    0 -0.53574297473E+02 -0.14561055901E+03 -0.69131462681E+01  0.15530753954E+03  0.00000000000E+00 0. -1.
        -12    1    6    6    0    0  0.20817846345E+02 -0.68926114321E+01  0.93045442284E+00  0.21948953602E+02  0.00000000000E+00 0.  1.
         -5    1    5    5    0  503  0.19386784105E+01 -0.48679899826E+02  0.89513582460E+02  0.10202089279E+03  0.47000000000E+01 0.  1.
<mgrwt>
<rscale>  2 0.26704825E+03</rscale>
<asrwt>0</asrwt>
<pdfrwt beam="1">  1       21 0.37109821E-01 0.26723364E+03</pdfrwt>
<pdfrwt beam="2">  1       21 0.60981168E-01 0.26723364E+03</pdfrwt>
<totfact> 0.16826626E+04</totfact>
</mgrwt>
</event>
<event>
12    1  0.2762290E-001  0.1934261E+03  0.7546771E-02  0.1155628E+00
         21   -1    0    0  504  503  0.00000000000E+00  0.00000000000E+00  0.23440781357E+03  0.23440781357E+03  0.00000000000E+00 0.  1.
         21   -1    0    0  502  504 -0.00000000000E+00 -0.00000000000E+00 -0.19351802230E+03  0.19351802230E+03  0.00000000000E+00 0.  1.
          6    2    1    2  502    0  0.70100223526E+02  0.53939847812E+02 -0.70158366141E+02  0.20575679020E+03  0.17201776610E+03 0.  0.
         24    2    3    3    0    0  0.46545092911E+02  0.82036522748E+02  0.33952984855E+01  0.12343729736E+03  0.79553765406E+02 0.  0.
         -6    2    1    2    0  503 -0.70100223526E+02 -0.53939847812E+02  0.11104815741E+03  0.22216904566E+03  0.17089131946E+03 0.  0.
        -24    2    5    5    0    0  0.19694160419E+02 -0.49036885750E+02  0.89854507420E+02  0.12965779648E+03  0.77102759786E+02 0.  0.
          2    1    4    4  501    0  0.45329220914E+02  0.57836985646E+02  0.36789609685E+02  0.82178650257E+02  0.00000000000E+00 0. -1.
         -1    1    4    4    0  501  0.12158719967E+01  0.24199537102E+02 -0.33394311199E+02  0.41258647107E+02  0.00000000000E+00 0.  1.
          5    1    3    3  502    0  0.23555130615E+02 -0.28096674936E+02 -0.73553664626E+02  0.82319492836E+02  0.47000000000E+01 0. -1.
         11    1    6    6    0    0 -0.30345992808E+01  0.19927226442E+02  0.13333030089E+02  0.24167598925E+02  0.00000000000E+00 0. -1.
        -12    1    6    6    0    0  0.22728759700E+02 -0.68964112192E+02  0.76521477331E+02  0.10549019756E+03  0.00000000000E+00 0.  1.
         -5    1    5    5    0  503 -0.89794383945E+02 -0.49029620621E+01  0.21193649991E+02  0.92511249180E+02  0.47000000000E+01 0.  1.
<mgrwt>
<rscale>  2 0.19317535E+03</rscale>
<asrwt>0</asrwt>
<pdfrwt beam="1">  1       21 0.36062741E-01 0.19342611E+03</pdfrwt>
<pdfrwt beam="2">  1       21 0.29772003E-01 0.19342611E+03</pdfrwt>
<totfact> 0.80177835E+04</totfact>
</mgrwt>
</event>
<event>
12    1  0.2762290E-001  0.2277320E+03  0.7546771E-02  0.1128545E+00
         21   -1    0    0  504  503  0.00000000000E+00  0.00000000000E+00  0.10257881859E+03  0.10257881859E+03  0.00000000000E+00 0.  1.
         21   -1    0    0  502  504 -0.00000000000E+00 -0.00000000000E+00 -0.68488519453E+03  0.68488519453E+03  0.00000000000E+00 0.  1.
          6    2    1    2  502    0 -0.50327827943E+02  0.13781045934E+03 -0.86842488166E+02  0.24216927914E+03  0.17198758397E+03 0.  0.
         24    2    3    3    0    0 -0.12139893079E+02  0.14547317590E+03 -0.25941696123E+02  0.16972597672E+03  0.82608193698E+02 0.  0.
         -6    2    1    2    0  503  0.50327827943E+02 -0.13781045934E+03 -0.49546388778E+03  0.54529473398E+03  0.17417597377E+03 0.  0.
        -24    2    5    5    0    0  0.55240354606E+02 -0.10591966532E+03 -0.19074532259E+03  0.23883649925E+03  0.79928862151E+02 0.  0.
          2    1    4    4  501    0  0.33822183771E+02  0.51417787571E+02 -0.20616020037E+02  0.64905695250E+02  0.00000000000E+00 0. -1.
         -1    1    4    4    0  501 -0.45962076850E+02  0.94055388326E+02 -0.53256760859E+01  0.10482028147E+03  0.00000000000E+00 0.  1.
          5    1    3    3  502    0 -0.38187934864E+02 -0.76627165524E+01 -0.60900792043E+02  0.72443302421E+02  0.47000000000E+01 0. -1.
         13    1    6    6    0    0  0.65380868046E+00 -0.63068620596E+02 -0.45207769635E+02  0.77600391784E+02  0.00000000000E+00 0. -1.
        -14    1    6    6    0    0  0.54586545926E+02 -0.42851044722E+02 -0.14553755295E+03  0.16123610746E+03  0.00000000000E+00 0.  1.
         -5    1    5    5    0  503 -0.49125266636E+01 -0.31890794027E+02 -0.30471856519E+03  0.30645823473E+03  0.47000000000E+01 0.  1.
<mgrwt>
<rscale>  2 0.22731355E+03</rscale>
<asrwt>0</asrwt>
<pdfrwt beam="1">  1       21 0.15781357E-01 0.22773204E+03</pdfrwt>
<pdfrwt beam="2">  1       21 0.10536695E+00 0.22773204E+03</pdfrwt>
<totfact> 0.25393450E+04</totfact>
</mgrwt>
</event>
<event>
12    1  0.2762290E-001  0.2266857E+03  0.7546771E-02  0.1129220E+00
         21   -1    0    0  504  503  0.00000000000E+00  0.00000000000E+00  0.90853079032E+02  0.90853079032E+02  0.00000000000E+00 0.  1.
         21   -1    0    0  502  504 -0.00000000000E+00 -0.00000000000E+00 -0.83473281906E+03  0.83473281906E+03  0.00000000000E+00 0. -1.
          6    2    1    2  502    0 -0.12614994790E+02 -0.14729460644E+03 -0.63554755314E+03  0.67434448364E+03  0.17019092555E+03 0.  0.
         24    2    3    3    0    0  0.28377164043E+02 -0.82022135781E+02 -0.19307451962E+03  0.22518379090E+03  0.76792417345E+02 0.  0.
         -6    2    1    2    0  503  0.12614994790E+02  0.14729460644E+03 -0.10833218689E+03  0.25124141445E+03  0.17184745107E+03 0.  0.
        -24    2    5    5    0    0 -0.14730281707E+01  0.12911686891E+03 -0.87251823304E+01  0.14890594704E+03  0.73644528708E+02 0.  0.
          4    1    4    4  501    0  0.45945973896E+02 -0.86126879256E+02 -0.16784561276E+03  0.19416750905E+03  0.00000000000E+00 0. -1.
         -3    1    4    4    0  501 -0.17568809853E+02  0.41047434751E+01 -0.25228906853E+02  0.31016281848E+02  0.00000000000E+00 0.  1.
          5    1    3    3  502    0 -0.40992158833E+02 -0.65272470657E+02 -0.44247303352E+03  0.44916069274E+03  0.47000000000E+01 0. -1.
         13    1    6    6    0    0  0.34884370270E+02  0.46001774844E+02  0.35005159291E+00  0.57733916497E+02  0.00000000000E+00 0. -1.
        -14    1    6    6    0    0 -0.36357398441E+02  0.83115094064E+02 -0.90752339233E+01  0.91172030543E+02  0.00000000000E+00 0.  1.
         -5    1    5    5    0  503  0.14088022961E+02  0.18177737530E+02 -0.99607004561E+02  0.10233546741E+03  0.47000000000E+01 0.  1.
<mgrwt>
<rscale>  2 0.22637170E+03</rscale>
<asrwt>0</asrwt>
<pdfrwt beam="1">  1       21 0.13977397E-01 0.22668565E+03</pdfrwt>
<pdfrwt beam="2">  1       21 0.12842043E+00 0.22668565E+03</pdfrwt>
<totfact> 0.19462870E+04</totfact>
</mgrwt>
</event>
<event>
12    1  0.2762290E-001  0.1791711E+03  0.7546771E-02  0.1168673E+00
         21   -1    0    0  504  503  0.00000000000E+00  0.00000000000E+00  0.41813348661E+03  0.41813348661E+03  0.00000000000E+00 0.  1.
         21   -1    0    0  502  504 -0.00000000000E+00 -0.00000000000E+00 -0.94489173368E+02  0.94489173368E+02  0.00000000000E+00 0.  1.
          6    2    1    2  502    0 -0.38937232006E+02  0.95641557962E+01  0.50582407354E+02  0.18617424304E+03  0.17462728231E+03 0.  0.
         24    2    3    3    0    0 -0.13360052447E+02  0.61895830893E+01 -0.40880922445E+02  0.91025882294E+02  0.79985370458E+02 0.  0.
         -6    2    1    2    0  503  0.38937232006E+02 -0.95641557962E+01  0.27306190588E+03  0.32644841693E+03  0.17435074809E+03 0.  0.
        -24    2    5    5    0    0  0.26846933300E+02 -0.27965532322E+02  0.50407758164E+02  0.10265890539E+03  0.80592058831E+02 0.  0.
          4    1    4    4  501    0 -0.18473667105E+02 -0.33421163703E+02 -0.73736710125E+01  0.38892436073E+02  0.00000000000E+00 0. -1.
         -3    1    4    4    0  501  0.51136146575E+01  0.39610746792E+02 -0.33507251432E+02  0.52133446220E+02  0.00000000000E+00 0.  1.
          5    1    3    3  502    0 -0.25577179559E+02  0.33745727069E+01  0.91463329799E+02  0.95148360748E+02  0.47000000000E+01 0. -1.
         11    1    6    6    0    0 -0.82121074970E+01  0.19958203636E+02  0.35322848691E+02  0.41394108778E+02  0.00000000000E+00 0. -1.
        -12    1    6    6    0    0  0.35059040797E+02 -0.47923735958E+02  0.15084909473E+02  0.61264796609E+02  0.00000000000E+00 0.  1.
         -5    1    5    5    0  503  0.12090298706E+02  0.18401376526E+02  0.22265414772E+03  0.22378951155E+03  0.47000000000E+01 0.  1.
<mgrwt>
<rscale>  2 0.17910364E+03</rscale>
<asrwt>0</asrwt>
<pdfrwt beam="1">  1       21 0.64328228E-01 0.17917106E+03</pdfrwt>
<pdfrwt beam="2">  1       21 0.14536796E-01 0.17917106E+03</pdfrwt>
<totfact> 0.93078959E+04</totfact>
</mgrwt>
</event>
<event>
12    1  0.2762290E-001  0.1908289E+03  0.7546771E-02  0.1157760E+00
         21   -1    0    0  504  503  0.00000000000E+00  0.00000000000E+00  0.23805531346E+02  0.23805531346E+02  0.00000000000E+00 0.  1.
         21   -1    0    0  502  504 -0.00000000000E+00 -0.00000000000E+00 -0.15281564266E+04  0.15281564266E+04  0.00000000000E+00 0.  1.
          6    2    1    2  502    0 -0.80439462336E+02  0.32481792909E+01 -0.75317560294E+03  0.77692649387E+03  0.17280112915E+03 0.  0.
         24    2    3    3    0    0 -0.92379551095E+02  0.48427974133E+02 -0.42006655529E+03  0.44052270790E+03  0.82006677585E+02 0.  0.
         -6    2    1    2    0  503  0.80439462336E+02 -0.32481792909E+01 -0.75117529230E+03  0.77503546407E+03  0.17301616407E+03 0.  0.
        -24    2    5    5    0    0  0.10206014445E+03 -0.36169256109E+02 -0.50951460408E+03  0.53014114109E+03  0.98590108700E+02 0.  0.
          4    1    4    4  501    0  0.12372385818E+02  0.15074046523E+02 -0.34947816038E+02  0.40020652859E+02  0.00000000000E+00 0. -1.
         -3    1    4    4    0  501 -0.10475193691E+03  0.33353927610E+02 -0.38511873925E+03  0.40050205504E+03  0.00000000000E+00 0.  1.
          5    1    3    3  502    0  0.11940088758E+02 -0.45179794842E+02 -0.33310904766E+03  0.33640378597E+03  0.47000000000E+01 0. -1.
         13    1    6    6    0    0 -0.62014181870E+01  0.12763054819E+02 -0.16709626360E+03  0.16769768772E+03  0.00000000000E+00 0. -1.
        -14    1    6    6    0    0  0.10826156264E+03 -0.48932310929E+02 -0.34241834048E+03  0.36244345338E+03  0.00000000000E+00 0.  1.
         -5    1    5    5    0  503 -0.21620682118E+02  0.32921076818E+02 -0.24166068822E+03  0.24489432298E+03  0.47000000000E+01 0.  1.
<mgrwt>
<rscale>  2 0.19078010E+03</rscale>
<asrwt>0</asrwt>
<pdfrwt beam="1">  1       21 0.36623893E-02 0.19082885E+03</pdfrwt>
<pdfrwt beam="2">  1       21 0.23510100E+00 0.19082885E+03</pdfrwt>
<totfact> 0.37061015E+04</totfact>
</mgrwt>
</event>
<event>
12    1  0.2762290E-001  0.1973722E+03  0.7546771E-02  0.1152596E+00
         21   -1    0    0  504  503  0.00000000000E+00  0.00000000000E+00  0.14010999953E+03  0.14010999953E+03  0.00000000000E+00 0.  1.
         21   -1    0    0  502  504 -0.00000000000E+00 -0.00000000000E+00 -0.39614614834E+03  0.39614614834E+03  0.00000000000E+00 0.  1.
          6    2    1    2  502    0 -0.81451912986E+02  0.41284144275E+02  0.21507996822E+02  0.19568819061E+03  0.17173374542E+03 0.  0.
         24    2    3    3    0    0 -0.38443154046E+02  0.71335867988E+02 -0.30733670711E+02  0.12149829055E+03  0.85150419474E+02 0.  0.
         -6    2    1    2    0  503  0.81451912986E+02 -0.41284144275E+02 -0.27754414563E+03  0.34056795727E+03  0.17497710150E+03 0.  0.
        -24    2    5    5    0    0  0.73970767207E+02  0.27179691147E+02 -0.22822540908E+03  0.25572874418E+03  0.84261160912E+02 0.  0.
          4    1    4    4  501    0 -0.33863006210E+02  0.64229368356E+02 -0.58013020088E+02  0.92938826379E+02  0.00000000000E+00 0. -1.
         -3    1    4    4    0  501 -0.45801478360E+01  0.71064996312E+01  0.27279349378E+02  0.28559464170E+02  0.00000000000E+00 0.  1.
          5    1    3    3  502    0 -0.43008758940E+02 -0.30051723713E+02  0.52241667533E+02  0.74189900056E+02  0.47000000000E+01 0. -1.
         13    1    6    6    0    0  0.98229446693E+00  0.34905288276E+02 -0.36875192244E+02  0.50785075122E+02  0.00000000000E+00 0. -1.
        -14    1    6    6    0    0  0.72988472740E+02 -0.77255971296E+01 -0.19135021684E+03  0.20494366906E+03  0.00000000000E+00 0.  1.
         -5    1    5    5    0  503  0.74811457789E+01 -0.68463835422E+02 -0.49318736547E+02  0.84839213088E+02  0.47000000000E+01 0.  1.
<mgrwt>
<rscale>  2 0.19665085E+03</rscale>
<asrwt>0</asrwt>
<pdfrwt beam="1">  1       21 0.21555385E-01 0.19737219E+03</pdfrwt>
<pdfrwt beam="2">  1       21 0.60945561E-01 0.19737219E+03</pdfrwt>
<totfact> 0.50144609E+04</totfact>
</mgrwt>
</event>
<event>
12    1  0.2762290E-001  0.1913976E+03  0.7546771E-02  0.1157477E+00
         21   -1    0    0  504  503  0.00000000000E+00  0.00000000000E+00  0.88920971280E+02  0.88920971280E+02  0.00000000000E+00 0.  1.
         21   -1    0    0  502  504 -0.00000000000E+00 -0.00000000000E+00 -0.41620429745E+03  0.41620429745E+03  0.00000000000E+00 0.  1.
          6    2    1    2  502    0 -0.12568776492E+02  0.80211030844E+02 -0.13079696986E+03  0.23082631752E+03  0.17199173795E+03 0.  0.
         24    2    3    3    0    0 -0.19272596478E+02  0.63653302930E+02 -0.67352168760E+01  0.10539702226E+03  0.81486153458E+02 0.  0.
         -6    2    1    2    0  503  0.12568776492E+02 -0.80211030844E+02 -0.19648635630E+03  0.27429895121E+03  0.17332409760E+03 0.  0.
        -24    2    5    5    0    0 -0.41837156413E+02 -0.30564929674E+02 -0.17036421476E+03  0.19600976181E+03  0.81922515062E+02 0.  0.
          4    1    4    4  501    0  0.12493259576E+02  0.66728780710E+02  0.11172982925E+02  0.68801506214E+02  0.00000000000E+00 0. -1.
         -3    1    4    4    0  501 -0.31765856053E+02 -0.30754777793E+01 -0.17908199801E+02  0.36595516044E+02  0.00000000000E+00 0.  1.
          5    1    3    3  502    0  0.67038199854E+01  0.16557727914E+02 -0.12406175299E+03  0.12542929527E+03  0.47000000000E+01 0. -1.
         13    1    6    6    0    0 -0.10985503982E+02  0.18977937971E+02 -0.10953983940E+03  0.11171311402E+03  0.00000000000E+00 0. -1.
        -14    1    6    6    0    0 -0.30851652431E+02 -0.49542867646E+02 -0.60824375352E+02  0.84296647794E+02  0.00000000000E+00 0.  1.
         -5    1    5    5    0  503  0.54405932906E+02 -0.49646101170E+02 -0.26122141548E+02  0.78289189393E+02  0.47000000000E+01 0.  1.
<mgrwt>
<rscale>  2 0.19109542E+03</rscale>
<asrwt>0</asrwt>
<pdfrwt beam="1">  1       21 0.13680149E-01 0.19139756E+03</pdfrwt>
<pdfrwt beam="2">  1       21 0.64031431E-01 0.19139756E+03</pdfrwt>
<totfact> 0.10445347E+05</totfact>
</mgrwt>
</event>
<event>
12    1  0.2762290E-001  0.2401303E+03  0.7546771E-02  0.1119783E+00
         21   -1    0    0  504  503  0.00000000000E+00  0.00000000000E+00  0.56870709376E+02  0.56870709376E+02  0.00000000000E+00 0. -1.
         21   -1    0    0  502  504 -0.00000000000E+00 -0.00000000000E+00 -0.11143949764E+04  0.11143949764E+04  0.00000000000E+00 0. -1.
          6    2    1    2  502    0 -0.20060439425E+02 -0.16468658568E+03 -0.70677425458E+03  0.74645321855E+03  0.17360434272E+03 0.  0.
         24    2    3    3    0    0  0.79534920369E+01 -0.23924324315E+02 -0.38623112887E+03  0.39521429699E+03  0.79901341065E+02 0.  0.
         -6    2    1    2    0  503  0.20060439425E+02  0.16468658568E+03 -0.35075001241E+03  0.42481246720E+03  0.17296233216E+03 0.  0.
        -24    2    5    5    0    0  0.78210169498E+02  0.11829030611E+03 -0.22169315194E+03  0.27577633366E+03  0.82433642748E+02 0.  0.
          2    1    4    4  501    0 -0.63749444963E+01 -0.46652630173E+02 -0.32437906600E+03  0.32777871541E+03  0.00000000000E+00 0. -1.
         -1    1    4    4    0  501  0.14328436533E+02  0.22728305858E+02 -0.61852062875E+02  0.67435581577E+02  0.00000000000E+00 0.  1.
          5    1    3    3  502    0 -0.28013931462E+02 -0.14076226136E+03 -0.32054312571E+03  0.35123892156E+03  0.47000000000E+01 0. -1.
         11    1    6    6    0    0  0.44582466532E+02  0.10838741729E+03 -0.11797220649E+03  0.16629152129E+03  0.00000000000E+00 0. -1.
        -12    1    6    6    0    0  0.33627702966E+02  0.99028888157E+01 -0.10372094546E+03  0.10948481237E+03  0.00000000000E+00 0.  1.
         -5    1    5    5    0  503 -0.58149730073E+02  0.46396279573E+02 -0.12905686047E+03  0.14903613354E+03  0.47000000000E+01 0.  1.
<mgrwt>
<rscale>  2 0.24001428E+03</rscale>
<asrwt>0</asrwt>
<pdfrwt beam="1">  1       21 0.87493413E-02 0.24013030E+03</pdfrwt>
<pdfrwt beam="2">  1       21 0.17144535E+00 0.24013030E+03</pdfrwt>
<totfact> 0.20744576E+04</totfact>
</mgrwt>
</event>
<event>
12    1  0.2762290E-001  0.1895133E+03  0.7546771E-02  0.1159443E+00
         21   -1    0    0  504  503  0.00000000000E+00  0.00000000000E+00  0.91580495057E+03  0.91580495057E+03  0.00000000000E+00 0. -1.
         21   -1    0    0  502  504 -0.00000000000E+00 -0.00000000000E+00 -0.41639480902E+02  0.41639480902E+02  0.00000000000E+00 0. -1.
          6    2    1    2  502    0  0.49822665632E+02 -0.52651978410E+02  0.56112930369E+03  0.59151149325E+03  0.17252600484E+03 0.  0.
         24    2    3    3    0    0  0.67345152883E+02 -0.29818193166E+01  0.19038253331E+03  0.21701260138E+03  0.79402136656E+02 0.  0.
         -6    2    1    2    0  503 -0.49822665632E+02  0.52651978410E+02  0.31303616598E+03  0.36593293822E+03  0.17510209943E+03 0.  0.
        -24    2    5    5    0    0 -0.11338880731E+02 -0.25735777754E+02  0.77442494319E+02  0.11463210229E+03  0.79701182395E+02 0.  0.
          2    1    4    4  501    0  0.41874066828E+02  0.27579611417E+02  0.15784501407E+03  0.16561739313E+03  0.00000000000E+00 0. -1.
         -1    1    4    4    0  501  0.25471086055E+02 -0.30561430733E+02  0.32537519234E+02  0.51395208251E+02  0.00000000000E+00 0.  1.
          5    1    3    3  502    0 -0.17522487252E+02 -0.49670159093E+02  0.37074677038E+03  0.37449889187E+03  0.47000000000E+01 0. -1.
         13    1    6    6    0    0 -0.33308616811E+02 -0.49274153327E+01  0.24446071116E+01  0.33759731628E+02  0.00000000000E+00 0. -1.
        -14    1    6    6    0    0  0.21969736079E+02 -0.20808362421E+02  0.74997887207E+02  0.80872370657E+02  0.00000000000E+00 0.  1.
         -5    1    5    5    0  503 -0.38483784901E+02  0.78387756164E+02  0.23559367166E+03  0.25130083594E+03  0.47000000000E+01 0.  1.
<mgrwt>
<rscale>  2 0.18891604E+03</rscale>
<asrwt>0</asrwt>
<pdfrwt beam="1">  1       21 0.14089305E+00 0.18951326E+03</pdfrwt>
<pdfrwt beam="2">  1       21 0.64060747E-02 0.18951326E+03</pdfrwt>
<totfact> 0.62133087E+04</totfact>
</mgrwt>
</event>
<event>
12    1  0.2762290E-001  0.1757973E+03  0.7546771E-02  0.1173985E+00
         21   -1    0    0  504  503  0.00000000000E+00  0.00000000000E+00  0.33792811266E+03  0.33792811266E+03  0.00000000000E+00 0.  1.
         21   -1    0    0  502  504 -0.00000000000E+00 -0.00000000000E+00 -0.90356422653E+02  0.90356422653E+02  0.00000000000E+00 0.  1.
          6    2    1    2  502    0  0.29534443930E+02  0.66891308957E+01  0.87395662198E+02  0.19632289548E+03  0.17316942475E+03 0.  0.
         24    2    3    3    0    0  0.46667786850E+02 -0.47508656312E+02  0.15073125952E+02  0.10421648514E+03  0.78733232462E+02 0.  0.
         -6    2    1    2    0  503 -0.29534443930E+02 -0.66891308957E+01  0.16017602781E+03  0.23196163983E+03  0.16502367896E+03 0.  0.
        -24    2    5    5    0    0 -0.45002373685E+02  0.30804437385E+01  0.25485463373E+02  0.95953038679E+02  0.80763692446E+02 0.  0.
          4    1    4    4  501    0 -0.75479533365E+01 -0.38730653270E+02 -0.14254275719E+02  0.41954969653E+02  0.00000000000E+00 0. -1.
         -3    1    4    4    0  501  0.54215740186E+02 -0.87780030418E+01  0.29327401671E+02  0.62261515482E+02  0.00000000000E+00 0.  1.
          5    1    3    3  502    0 -0.17133342920E+02  0.54197787208E+02  0.72322536246E+02  0.92106410346E+02  0.47000000000E+01 0. -1.
         13    1    6    6    0    0  0.13183194647E+02 -0.10217134156E+02 -0.16121240654E+02  0.23196569826E+02  0.00000000000E+00 0. -1.
        -14    1    6    6    0    0 -0.58185568332E+02  0.13297577895E+02  0.41606704027E+02  0.72756468853E+02  0.00000000000E+00 0.  1.
         -5    1    5    5    0  503  0.15467929754E+02 -0.97695746342E+01  0.13469056444E+03  0.13600860115E+03  0.47000000000E+01 0.  1.
<mgrwt>
<rscale>  2 0.17375751E+03</rscale>
<asrwt>0</asrwt>
<pdfrwt beam="1">  1       21 0.51988940E-01 0.17579726E+03</pdfrwt>
<pdfrwt beam="2">  1       21 0.13900988E-01 0.17579726E+03</pdfrwt>
<totfact> 0.15903315E+05</totfact>
</mgrwt>
</event>
<event>
12    1  0.2762290E-001  0.1755315E+03  0.7546771E-02  0.1172262E+00
         21   -1    0    0  504  503  0.00000000000E+00  0.00000000000E+00  0.46071372090E+03  0.46071372090E+03  0.00000000000E+00 0. -1.
         21   -1    0    0  502  504 -0.00000000000E+00 -0.00000000000E+00 -0.11966086995E+03  0.11966086995E+03  0.00000000000E+00 0. -1.
          6    2    1    2  502    0  0.27754820071E+02 -0.21479986988E+02 -0.22310576527E+02  0.17694369358E+03  0.17198717683E+03 0.  0.
         24    2    3    3    0    0 -0.27864662710E+02 -0.55587432927E+02  0.78006717994E+01  0.10493243051E+03  0.84163901793E+02 0.  0.
         -6    2    1    2    0  503 -0.27754820071E+02  0.21479986988E+02  0.36336342748E+03  0.40343089726E+03  0.17173173428E+03 0.  0.
        -24    2    5    5    0    0 -0.24540834332E+02 -0.37473736249E+02  0.31074765341E+03  0.32420728419E+03  0.80868569681E+02 0.  0.
          4    1    4    4  501    0 -0.16417226500E+02 -0.75858568755E+02 -0.60388551076E+01  0.77849313102E+02  0.00000000000E+00 0. -1.
         -3    1    4    4    0  501 -0.11447436211E+02  0.20271135828E+02  0.13839526907E+02  0.27083117409E+02  0.00000000000E+00 0.  1.
          5    1    3    3  502    0  0.55619482781E+02  0.34107445939E+02 -0.30111248327E+02  0.72011263071E+02  0.47000000000E+01 0. -1.
         11    1    6    6    0    0  0.18102802757E+02 -0.17799598069E+02  0.22511478788E+03  0.22654183914E+03  0.00000000000E+00 0. -1.
        -12    1    6    6    0    0 -0.42643637089E+02 -0.19674138180E+02  0.85632865532E+02  0.97665445049E+02  0.00000000000E+00 0.  1.
         -5    1    5    5    0  503 -0.32139857393E+01  0.58953723237E+02  0.52615774065E+02  0.79223613073E+02  0.47000000000E+01 0.  1.
<mgrwt>
<rscale>  2 0.17546890E+03</rscale>
<asrwt>0</asrwt>
<pdfrwt beam="1">  1       21 0.70879033E-01 0.17553150E+03</pdfrwt>
<pdfrwt beam="2">  1       21 0.18409365E-01 0.17553150E+03</pdfrwt>
<totfact> 0.48951184E+04</totfact>
</mgrwt>
</event>
<event>
12    1  0.2762290E-001  0.2114886E+03  0.7546771E-02  0.1140560E+00
         21   -1    0    0  504  503  0.00000000000E+00  0.00000000000E+00  0.16523569125E+04  0.16523569125E+04  0.00000000000E+00 0. -1.
         21   -1    0    0  502  504 -0.00000000000E+00 -0.00000000000E+00 -0.30548609317E+02  0.30548609317E+02  0.00000000000E+00 0.  1.
          6    2    1    2  502    0  0.10992820424E+03 -0.46370546414E+02  0.52394302309E+03  0.56501654988E+03  0.17462237123E+03 0.  0.
         24    2    3    3    0    0  0.78190834265E+02 -0.95501622818E+02  0.42738161165E+03  0.45202398597E+03  0.80226400807E+02 0.  0.
         -6    2    1    2    0  503 -0.10992820424E+03  0.46370546414E+02  0.10978652801E+04  0.11178889719E+04  0.17358900504E+03 0.  0.
        -24    2    5    5    0    0 -0.43239365986E+02 -0.42566843123E+01  0.25170950526E+03  0.26758772948E+03  0.79735536594E+02 0.  0.
          2    1    4    4  501    0  0.25548871488E+02 -0.76272905295E+02  0.33004704614E+03  0.33970774731E+03  0.00000000000E+00 0. -1.
         -1    1    4    4    0  501  0.52641962777E+02 -0.19228717523E+02  0.97334565515E+02  0.11231623866E+03  0.00000000000E+00 0.  1.
          5    1    3    3  502    0  0.31737369980E+02  0.49131076404E+02  0.96561411438E+02  0.11299256392E+03  0.47000000000E+01 0. -1.
         11    1    6    6    0    0  0.25754030736E+00  0.12812754061E+01  0.19908650770E+03  0.19909079723E+03  0.00000000000E+00 0. -1.
        -12    1    6    6    0    0 -0.43496906294E+02 -0.55379597185E+01  0.52622997562E+02  0.68496932248E+02  0.00000000000E+00 0.  1.
         -5    1    5    5    0  503 -0.66688838258E+02  0.50627230726E+02  0.84615577481E+03  0.85030124243E+03  0.47000000000E+01 0.  1.
<mgrwt>
<rscale>  2 0.21127513E+03</rscale>
<asrwt>0</asrwt>
<pdfrwt beam="1">  1       21 0.25420869E+00 0.21148856E+03</pdfrwt>
<pdfrwt beam="2">  1       21 0.46997873E-02 0.21148856E+03</pdfrwt>
<totfact> 0.18460028E+04</totfact>
</mgrwt>
</event>
<event>
12    1  0.2762290E-001  0.1806188E+03  0.7546771E-02  0.1167853E+00
         21   -1    0    0  504  503  0.00000000000E+00  0.00000000000E+00  0.47256485127E+03  0.47256485127E+03  0.00000000000E+00 0.  1.
         21   -1    0    0  502  504 -0.00000000000E+00 -0.00000000000E+00 -0.78402988537E+02  0.78402988537E+02  0.00000000000E+00 0.  1.
          6    2    1    2  502    0  0.32948501450E+02  0.26200974621E+02  0.98099403383E+02  0.20553992123E+03  0.17564473079E+03 0.  0.
         24    2    3    3    0    0  0.42732394594E+01 -0.27471207545E+02 -0.12323942563E+02  0.79371862199E+02  0.73314972067E+02 0.  0.
         -6    2    1    2    0  503 -0.32948501450E+02 -0.26200974621E+02  0.29606245935E+03  0.34542791858E+03  0.17290278274E+03 0.  0.
        -24    2    5    5    0    0 -0.76269321093E+02 -0.29553610949E+02  0.27278688636E+03  0.29591250802E+03  0.80380978919E+02 0.  0.
          4    1    4    4  501    0  0.12339080732E+02  0.23615408438E+02 -0.54680245013E+01  0.27199994871E+02  0.00000000000E+00 0. -1.
         -3    1    4    4    0  501 -0.80658412731E+01 -0.51086615983E+02 -0.68559180616E+01  0.52171867328E+02  0.00000000000E+00 0.  1.
          5    1    3    3  502    0  0.28675261990E+02  0.53672182166E+02  0.11042334595E+03  0.12616805903E+03  0.47000000000E+01 0. -1.
         11    1    6    6    0    0 -0.88809759379E+01  0.44992906129E+01 -0.26598994526E+01  0.10304873348E+02  0.00000000000E+00 0. -1.
        -12    1    6    6    0    0 -0.67388345156E+02 -0.34052901562E+02  0.27544678582E+03  0.28560763467E+03  0.00000000000E+00 0.  1.
         -5    1    5    5    0  503  0.43320819644E+02  0.33526363283E+01  0.23275572987E+02  0.49515410559E+02  0.47000000000E+01 0.  1.
<mgrwt>
<rscale>  2 0.17994880E+03</rscale>
<asrwt>0</asrwt>
<pdfrwt beam="1">  1       21 0.72702283E-01 0.18061884E+03</pdfrwt>
<pdfrwt beam="2">  1       21 0.12061999E-01 0.18061884E+03</pdfrwt>
<totfact> 0.99540029E+04</totfact>
</mgrwt>
</event>
<event>
12    1  0.2762290E-001  0.3370248E+03  0.7546771E-02  0.1068137E+00
         21   -1    0    0  504  503  0.00000000000E+00  0.00000000000E+00  0.13821739828E+04  0.13821739828E+04  0.00000000000E+00 0. -1.
         21   -1    0    0  502  504 -0.00000000000E+00 -0.00000000000E+00 -0.82086864032E+02  0.82086864032E+02  0.00000000000E+00 0.  1.
          6    2    1    2  502    0  0.23527050932E+03 -0.16821339199E+03  0.62977749344E+03  0.71399373487E+03  0.17181211947E+03 0.  0.
         24    2    3    3    0    0  0.12304780476E+03 -0.90197178820E+02  0.19612119678E+03  0.25928466462E+03  0.74085897167E+02 0.  0.
         -6    2    1    2    0  503 -0.23527050932E+03  0.16821339199E+03  0.67030962530E+03  0.75026711193E+03  0.17302539603E+03 0.  0.
        -24    2    5    5    0    0 -0.15466791710E+03  0.13617496932E+03  0.59668505397E+03  0.63639918008E+03  0.80654050910E+02 0.  0.
          2    1    4    4  501    0  0.10540625205E+03 -0.43440705380E+02  0.16450783524E+03  0.20015094481E+03  0.00000000000E+00 0. -1.
         -1    1    4    4    0  501  0.17641552709E+02 -0.46756473440E+02  0.31613361545E+02  0.59133719811E+02  0.00000000000E+00 0.  1.
          5    1    3    3  502    0  0.11222270456E+03 -0.78016213171E+02  0.43365629666E+03  0.45470907025E+03  0.47000000000E+01 0. -1.
         13    1    6    6    0    0 -0.32186369437E+02  0.78784289556E+02  0.25935579324E+03  0.27296218446E+03  0.00000000000E+00 0. -1.
        -14    1    6    6    0    0 -0.12248154766E+03  0.57390679769E+02  0.33732926073E+03  0.36343699562E+03  0.00000000000E+00 0.  1.
         -5    1    5    5    0  503 -0.80602592221E+02  0.32038422666E+02  0.73624571330E+02  0.11386793185E+03  0.47000000000E+01 0.  1.
<mgrwt>
<rscale>  2 0.33686942E+03</rscale>
<asrwt>0</asrwt>
<pdfrwt beam="1">  1       21 0.21264213E+00 0.33702484E+03</pdfrwt>
<pdfrwt beam="2">  1       21 0.12628749E-01 0.33702484E+03</pdfrwt>
<totfact> 0.53990876E+03</totfact>
</mgrwt>
</event>
<event>
12    1  0.2762290E-001  0.1947879E+03  0.7546771E-02  0.1154302E+00
         21   -1    0    0  504  503  0.00000000000E+00  0.00000000000E+00  0.44131679850E+02  0.44131679850E+02  0.00000000000E+00 0. -1.
         21   -1    0    0  502  504 -0.00000000000E+00 -0.00000000000E+00 -0.99666851287E+03  0.99666851287E+03  0.00000000000E+00 0. -1.
          6    2    1    2  502    0 -0.20374292687E+02 -0.85711830219E+02 -0.67084748207E+03  0.69855470372E+03  0.17372593432E+03 0.  0.
         24    2    3    3    0    0  0.24435525818E+02  0.10456772784E+02 -0.24536436521E+03  0.26001816845E+03  0.81849478867E+02 0.  0.
         -6    2    1    2    0  503  0.20374292687E+02  0.85711830219E+02 -0.28168935096E+03  0.34224548900E+03  0.17326700395E+03 0.  0.
        -24    2    5    5    0    0  0.17465294214E+02  0.35249916419E+02 -0.27674178977E+03  0.29124122076E+03  0.81779198819E+02 0.  0.
          2    1    4    4  501    0  0.69880940686E+01  0.73105665333E+01 -0.24170391051E+03  0.24191539471E+03  0.00000000000E+00 0. -1.
         -1    1    4    4    0  501  0.17447431749E+02  0.31462062506E+01 -0.36604546958E+01  0.18102773737E+02  0.00000000000E+00 0.  1.
          5    1    3    3  502    0 -0.44809818505E+02 -0.96168603003E+02 -0.42548311686E+03  0.43853653527E+03  0.47000000000E+01 0. -1.
         13    1    6    6    0    0  0.50200219334E+02  0.26613762916E+02 -0.17910890232E+03  0.18790517100E+03  0.00000000000E+00 0. -1.
        -14    1    6    6    0    0 -0.32734925121E+02  0.86361535033E+01 -0.97632887446E+02  0.10333604976E+03  0.00000000000E+00 0.  1.
         -5    1    5    5    0  503  0.29089984736E+01  0.50461913800E+02 -0.49475611896E+01  0.51004268235E+02  0.47000000000E+01 0.  1.
<mgrwt>
<rscale>  2 0.19468553E+03</rscale>
<asrwt>0</asrwt>
<pdfrwt beam="1">  1       21 0.67894893E-02 0.19478791E+03</pdfrwt>
<pdfrwt beam="2">  1       21 0.15333361E+00 0.19478791E+03</pdfrwt>
<totfact> 0.44917731E+04</totfact>
</mgrwt>
</event>
<event>
12    1  0.2762290E-001  0.1739738E+03  0.7546771E-02  0.1173785E+00
         21   -1    0    0  504  503  0.00000000000E+00  0.00000000000E+00  0.75214568274E+03  0.75214568274E+03  0.00000000000E+00 0. -1.
         21   -1    0    0  502  504 -0.00000000000E+00 -0.00000000000E+00 -0.81005201487E+02  0.81005201487E+02  0.00000000000E+00 0. -1.
          6    2    1    2  502    0 -0.12911849813E+02  0.16824195219E+02  0.39957348731E+02  0.17843032320E+03  0.17260075640E+03 0.  0.
         24    2    3    3    0    0 -0.10867468440E+02 -0.55875275013E+02  0.34846662882E+02  0.10537143204E+03  0.81539564317E+02 0.  0.
         -6    2    1    2    0  503  0.12911849813E+02 -0.16824195219E+02  0.63118313253E+03  0.65472056103E+03  0.17267627758E+03 0.  0.
        -24    2    5    5    0    0  0.39415561753E+02 -0.62612076839E+02  0.53305360625E+03  0.54313888342E+03  0.73347398577E+02 0.  0.
          4    1    4    4  501    0 -0.30373611111E+02 -0.17841774854E+01 -0.10451810587E+02  0.32171103273E+02  0.00000000000E+00 0. -1.
         -3    1    4    4    0  501  0.19506142671E+02 -0.54091097527E+02  0.45298473469E+02  0.73200328772E+02  0.00000000000E+00 0.  1.
          5    1    3    3  502    0 -0.20443813727E+01  0.72699470232E+02  0.51106858490E+01  0.73058891157E+02  0.47000000000E+01 0. -1.
         11    1    6    6    0    0 -0.15994413541E+02 -0.39665696955E+02  0.26747985856E+03  0.27087758031E+03  0.00000000000E+00 0. -1.
        -12    1    6    6    0    0  0.55409975294E+02 -0.22946379884E+02  0.26557374768E+03  0.27226130311E+03  0.00000000000E+00 0.  1.
         -5    1    5    5    0  503 -0.26503711941E+02  0.45787881620E+02  0.98129526281E+02  0.11158167761E+03  0.47000000000E+01 0.  1.
<mgrwt>
<rscale>  2 0.17395501E+03</rscale>
<asrwt>0</asrwt>
<pdfrwt beam="1">  1       21 0.11571472E+00 0.17397375E+03</pdfrwt>
<pdfrwt beam="2">  1       21 0.12462339E-01 0.17397375E+03</pdfrwt>
<totfact> 0.32012685E+04</totfact>
</mgrwt>
</event>
<event>
12    1  0.2762290E-001  0.1775457E+03  0.7546771E-02  0.1170779E+00
         21   -1    0    0  504  503  0.00000000000E+00  0.00000000000E+00  0.87505086179E+03  0.87505086179E+03  0.00000000000E+00 0. -1.
         21   -1    0    0  502  504 -0.00000000000E+00 -0.00000000000E+00 -0.11699455226E+03  0.11699455226E+03  0.00000000000E+00 0. -1.
          6    2    1    2  502    0  0.98900213847E+01 -0.27674844807E+02 -0.34059977228E+02  0.18078314998E+03  0.17509641833E+03 0.  0.
         24    2    3    3    0    0 -0.23976365180E+02  0.39190367226E+02 -0.46881897583E+02  0.10459666588E+03  0.81435859551E+02 0.  0.
         -6    2    1    2    0  503 -0.98900213847E+01  0.27674844807E+02  0.79211628676E+03  0.81126226407E+03  0.17272677788E+03 0.  0.
        -24    2    5    5    0    0 -0.28264968087E+02  0.71068010426E+02  0.35181484009E+03  0.36842136778E+03  0.78173217928E+02 0.  0.
          4    1    4    4  501    0 -0.94169295557E+01  0.96728072923E+01 -0.65436098094E+02  0.66814105524E+02  0.00000000000E+00 0. -1.
         -3    1    4    4    0  501 -0.14559435624E+02  0.29517559933E+02  0.18554200511E+02  0.37782560352E+02  0.00000000000E+00 0.  1.
          5    1    3    3  502    0  0.33866386565E+02 -0.66865212033E+02  0.12821920356E+02  0.76186484108E+02  0.47000000000E+01 0. -1.
         11    1    6    6    0    0  0.94255814330E+01  0.66181475882E+02  0.27088492478E+03  0.27901159798E+03  0.00000000000E+00 0. -1.
        -12    1    6    6    0    0 -0.37690549520E+02  0.48865345436E+01  0.80929915310E+02  0.89409769797E+02  0.00000000000E+00 0.  1.
         -5    1    5    5    0  503  0.18374946702E+02 -0.43393165618E+02  0.44030144667E+03  0.44284089629E+03  0.47000000000E+01 0.  1.
<mgrwt>
<rscale>  2 0.17695864E+03</rscale>
<asrwt>0</asrwt>
<pdfrwt beam="1">  1       21 0.13462321E+00 0.17754567E+03</pdfrwt>
<pdfrwt beam="2">  1       21 0.17999162E-01 0.17754567E+03</pdfrwt>
<totfact> 0.11232853E+04</totfact>
</mgrwt>
</event>
<event>
12    1  0.2762290E-001  0.2420523E+03  0.7546771E-02  0.1118620E+00
         21   -1    0    0  504  503  0.00000000000E+00  0.00000000000E+00  0.30712194605E+03  0.30712194605E+03  0.00000000000E+00 0. -1.
         21   -1    0    0  502  504 -0.00000000000E+00 -0.00000000000E+00 -0.28060118252E+03  0.28060118252E+03  0.00000000000E+00 0.  1.
          6    2    1    2  502    0  0.16803177648E+03 -0.15281044857E+01  0.18032963116E+03  0.30093667559E+03  0.17264731052E+03 0.  0.
         24    2    3    3    0    0  0.16627620156E+03  0.23433162516E+02  0.19696272047E+03  0.27052456363E+03  0.78691409706E+02 0.  0.
         -6    2    1    2    0  503 -0.16803177648E+03  0.15281044857E+01 -0.15380886763E+03  0.28678645298E+03  0.17421908289E+03 0.  0.
        -24    2    5    5    0    0 -0.78652318554E+02 -0.53330933472E+02 -0.39484251726E+02  0.13157559851E+03  0.81992416173E+02 0.  0.
          2    1    4    4  501    0  0.15083942371E+03  0.31671370420E+01  0.19263318974E+03  0.24468369029E+03  0.00000000000E+00 0. -1.
         -1    1    4    4    0  501  0.15436777845E+02  0.20266025474E+02  0.43295307310E+01  0.25840873342E+02  0.00000000000E+00 0.  1.
          5    1    3    3  502    0  0.17555749238E+01 -0.24961267002E+02 -0.16633089315E+02  0.30412111959E+02  0.47000000000E+01 0. -1.
         13    1    6    6    0    0 -0.34359587731E+02  0.49390107459E+01  0.17444547343E+02  0.38849547336E+02  0.00000000000E+00 0. -1.
        -14    1    6    6    0    0 -0.44292730823E+02 -0.58269944218E+02 -0.56928799069E+02  0.92726051174E+02  0.00000000000E+00 0.  1.
         -5    1    5    5    0  503 -0.89379457929E+02  0.54859037957E+02 -0.11432461590E+03  0.15521085447E+03  0.47000000000E+01 0.  1.
<mgrwt>
<rscale>  2 0.24176957E+03</rscale>
<asrwt>0</asrwt>
<pdfrwt beam="1">  1       21 0.47249530E-01 0.24205227E+03</pdfrwt>
<pdfrwt beam="2">  1       21 0.43169413E-01 0.24205227E+03</pdfrwt>
<totfact> 0.21521236E+04</totfact>
</mgrwt>
</event>
<event>
12    1  0.2762290E-001  0.2603630E+03  0.7546771E-02  0.1107180E+00
         21   -1    0    0  504  503  0.00000000000E+00  0.00000000000E+00  0.16312279045E+03  0.16312279045E+03  0.00000000000E+00 0. -1.
         21   -1    0    0  502  504 -0.00000000000E+00 -0.00000000000E+00 -0.45295811984E+03  0.45295811984E+03  0.00000000000E+00 0.  1.
          6    2    1    2  502    0 -0.12365843171E+03 -0.14716958019E+03 -0.23698945641E+03  0.35206944406E+03  0.17560921937E+03 0.  0.
         24    2    3    3    0    0 -0.51193690799E+01 -0.81797496691E+02 -0.15769027625E+03  0.19511254347E+03  0.80533489873E+02 0.  0.
         -6    2    1    2    0  503  0.12365843171E+03  0.14716958019E+03 -0.52845872980E+02  0.26401146623E+03  0.17308689999E+03 0.  0.
        -24    2    5    5    0    0  0.20540558903E+02  0.44013356081E+02  0.28023293062E+02  0.97168982797E+02  0.79356261191E+02 0.  0.
          4    1    4    4  501    0  0.21408001796E+02  0.59615418676E+01 -0.21369477137E+02  0.30830132589E+02  0.00000000000E+00 0. -1.
         -3    1    4    4    0  501 -0.26527370876E+02 -0.87759038558E+02 -0.13632079911E+03  0.16428241088E+03  0.00000000000E+00 0.  1.
          5    1    3    3  502    0 -0.11853906263E+03 -0.65372083496E+02 -0.79299180157E+02  0.15695690059E+03  0.47000000000E+01 0. -1.
         13    1    6    6    0    0  0.17855387595E+02 -0.16243866986E+02 -0.97134775858E+01  0.26019794919E+02  0.00000000000E+00 0. -1.
        -14    1    6    6    0    0  0.26851713084E+01  0.60257223068E+02  0.37736770648E+02  0.71149187878E+02  0.00000000000E+00 0.  1.
         -5    1    5    5    0  503  0.10311787280E+03  0.10315622411E+03 -0.80869166042E+02  0.16684248344E+03  0.47000000000E+01 0.  1.
<mgrwt>
<rscale>  2 0.25993832E+03</rscale>
<asrwt>0</asrwt>
<pdfrwt beam="1">  1       21 0.25095814E-01 0.26036300E+03</pdfrwt>
<pdfrwt beam="2">  1       21 0.69685864E-01 0.26036300E+03</pdfrwt>
<totfact> 0.27193847E+04</totfact>
</mgrwt>
</event>
<event>
12    1  0.2762290E-001  0.3843338E+03  0.7546771E-02  0.1049441E+00
         21   -1    0    0  504  503  0.00000000000E+00  0.00000000000E+00  0.13092524970E+04  0.13092524970E+04  0.00000000000E+00 0.  1.
         21   -1    0    0  502  504 -0.00000000000E+00 -0.00000000000E+00 -0.37399236865E+03  0.37399236865E+03  0.00000000000E+00 0.  1.
          6    2    1    2  502    0  0.75155938739E+02 -0.33471587886E+03 -0.23629746427E+03  0.45025676812E+03  0.17091381142E+03 0.  0.
         24    2    3    3    0    0  0.70279582517E+02 -0.85018487008E+02 -0.61447481811E+02  0.14535158169E+03  0.71999489082E+02 0.  0.
         -6    2    1    2    0  503 -0.75155938739E+02  0.33471587886E+03  0.11715575926E+04  0.12329880975E+04  0.17328970292E+03 0.  0.
        -24    2    5    5    0    0 -0.10167887198E+03  0.21608195759E+03  0.91417411148E+03  0.94830262262E+03  0.80830393754E+02 0.  0.
          2    1    4    4  501    0  0.92340145643E+00  0.12212987047E+02 -0.68168529613E+01  0.14017104093E+02  0.00000000000E+00 0. -1.
         -1    1    4    4    0  501  0.69356181061E+02 -0.97231474055E+02 -0.54630628849E+02  0.13133447760E+03  0.00000000000E+00 0.  1.
          5    1    3    3  502    0  0.48763562220E+01 -0.24969739185E+03 -0.17484998246E+03  0.30490518643E+03  0.47000000000E+01 0. -1.
         11    1    6    6    0    0 -0.64922306038E+02  0.98294534878E+02  0.58545011210E+03  0.59718385374E+03  0.00000000000E+00 0. -1.
        -12    1    6    6    0    0 -0.36756565947E+02  0.11778742271E+03  0.32872399938E+03  0.35111876888E+03  0.00000000000E+00 0.  1.
         -5    1    5    5    0  503  0.26522933245E+02  0.11863392127E+03  0.25738348114E+03  0.28468547492E+03  0.47000000000E+01 0.  1.
<mgrwt>
<rscale>  2 0.38406716E+03</rscale>
<asrwt>0</asrwt>
<pdfrwt beam="1">  1       21 0.20142346E+00 0.38433378E+03</pdfrwt>
<pdfrwt beam="2">  1       21 0.57537288E-01 0.38433378E+03</pdfrwt>
<totfact> 0.31512781E+02</totfact>
</mgrwt>
</event>
<event>
12    1  0.2762290E-001  0.1805042E+03  0.7546771E-02  0.1167620E+00
         21   -1    0    0  504  503  0.00000000000E+00  0.00000000000E+00  0.80317513975E+02  0.80317513975E+02  0.00000000000E+00 0. -1.
         21   -1    0    0  502  504 -0.00000000000E+00 -0.00000000000E+00 -0.13529493521E+04  0.13529493521E+04  0.00000000000E+00 0. -1.
          6    2    1    2  502    0 -0.46178845622E+02 -0.25531205314E+02 -0.12375172371E+04  0.12506121232E+04  0.17261935718E+03 0.  0.
         24    2    3    3    0    0  0.38425624932E+02 -0.16501253657E+02 -0.79959728067E+03  0.80447824793E+03  0.77978331097E+02 0.  0.
         -6    2    1    2    0  503  0.46178845622E+02  0.25531205314E+02 -0.35114601078E+02  0.18265474288E+03  0.17130496683E+03 0.  0.
        -24    2    5    5    0    0  0.74256293064E+02 -0.21967419760E+02  0.85930237384E+01  0.11210753240E+03  0.80608276089E+02 0.  0.
          4    1    4    4  501    0  0.20559253419E+02  0.18571238489E+02 -0.61998312240E+03  0.62060184165E+03  0.00000000000E+00 0. -1.
         -3    1    4    4    0  501  0.17866371514E+02 -0.35072492147E+02 -0.17961415827E+03  0.18387640628E+03  0.00000000000E+00 0.  1.
          5    1    3    3  502    0 -0.84604470555E+02 -0.90299516563E+01 -0.43791995642E+03  0.44613387530E+03  0.47000000000E+01 0. -1.
         13    1    6    6    0    0  0.56966746441E+02  0.19529869984E+02  0.23648638026E+02  0.64698408807E+02  0.00000000000E+00 0. -1.
        -14    1    6    6    0    0  0.17289546623E+02 -0.41497289744E+02 -0.15055614288E+02  0.47409123596E+02  0.00000000000E+00 0.  1.
         -5    1    5    5    0  503 -0.28077447442E+02  0.47498625074E+02 -0.43707624816E+02  0.70547210475E+02  0.47000000000E+01 0.  1.
<mgrwt>
<rscale>  2 0.18018925E+03</rscale>
<asrwt>0</asrwt>
<pdfrwt beam="1">  1       21 0.12356541E-01 0.18050421E+03</pdfrwt>
<pdfrwt beam="2">  1       21 0.20814604E+00 0.18050421E+03</pdfrwt>
<totfact> 0.67122510E+03</totfact>
</mgrwt>
</event>
<event>
12    1  0.2762290E-001  0.2555292E+03  0.7546771E-02  0.1110085E+00
         21   -1    0    0  504  503  0.00000000000E+00  0.00000000000E+00  0.25193238594E+03  0.25193238594E+03  0.00000000000E+00 0.  1.
         21   -1    0    0  502  504 -0.00000000000E+00 -0.00000000000E+00 -0.30966011996E+03  0.30966011996E+03  0.00000000000E+00 0. -1.
          6    2    1    2  502    0 -0.92783043423E+02 -0.16313368260E+03 -0.14382249840E+03  0.29194929326E+03  0.17125474372E+03 0.  0.
         24    2    3    3    0    0 -0.12481472162E+03 -0.12477075458E+03 -0.14399776008E+03  0.24175105255E+03  0.81004694731E+02 0.  0.
         -6    2    1    2    0  503  0.92783043423E+02  0.16313368260E+03  0.86094764379E+02  0.26964321264E+03  0.17341817126E+03 0.  0.
        -24    2    5    5    0    0  0.56074024567E+02  0.17667908351E+03  0.36085110513E+02  0.20597151225E+03  0.82233410960E+02 0.  0.
          4    1    4    4  501    0 -0.12645793618E+03 -0.88933072087E+02 -0.13379033946E+03  0.20445184242E+03  0.00000000000E+00 0. -1.
         -3    1    4    4    0  501  0.16432145640E+01 -0.35837682494E+02 -0.10207420616E+02  0.37299210129E+02  0.00000000000E+00 0.  1.
          5    1    3    3  502    0  0.32031678195E+02 -0.38362928023E+02  0.17526168208E+00  0.50198240718E+02  0.47000000000E+01 0. -1.
         11    1    6    6    0    0  0.32194044922E+02  0.16570264016E+03  0.50241759166E+02  0.17611943632E+03  0.00000000000E+00 0. -1.
        -12    1    6    6    0    0  0.23879979645E+02  0.10976443344E+02 -0.14156648653E+02  0.29852075932E+02  0.00000000000E+00 0.  1.
         -5    1    5    5    0  503  0.36709018856E+02 -0.13545400904E+02  0.50009653867E+02  0.63671700392E+02  0.47000000000E+01 0.  1.
<mgrwt>
<rscale>  2 0.25516256E+03</rscale>
<asrwt>0</asrwt>
<pdfrwt beam="1">  1       21 0.38758829E-01 0.25552916E+03</pdfrwt>
<pdfrwt beam="2">  1       21 0.47640018E-01 0.25552916E+03</pdfrwt>
<totfact> 0.26190748E+04</totfact>
</mgrwt>
</event>
<event>
12    1  0.2762290E-001  0.1992204E+03  0.7546771E-02  0.1150529E+00
         21   -1    0    0  504  503  0.00000000000E+00  0.00000000000E+00  0.13497976432E+04  0.13497976432E+04  0.00000000000E+00 0. -1.
         21   -1    0    0  502  504 -0.00000000000E+00 -0.00000000000E+00 -0.43925583127E+02  0.43925583127E+02  0.00000000000E+00 0.  1.
          6    2    1    2  502    0  0.80793123256E+02  0.53192789841E+02  0.25032415757E+03  0.31953974705E+03  0.17345450247E+03 0.  0.
         24    2    3    3    0    0  0.11532434781E+03  0.96158271029E+01  0.19867801421E+03  0.24350836356E+03  0.80194765833E+02 0.  0.
         -6    2    1    2    0  503 -0.80793123256E+02 -0.53192789841E+02  0.10555479025E+04  0.10741834793E+04  0.17416018779E+03 0.  0.
        -24    2    5    5    0    0 -0.12249832833E+03 -0.32544376480E+02  0.87246910255E+03  0.88522417652E+03  0.79715311659E+02 0.  0.
          4    1    4    4  501    0  0.96942956278E+02 -0.18566457019E+02  0.17931849605E+03  0.20468945533E+03  0.00000000000E+00 0. -1.
         -3    1    4    4    0  501  0.18381391535E+02  0.28182284122E+02  0.19359518155E+02  0.38818908231E+02  0.00000000000E+00 0.  1.
          5    1    3    3  502    0 -0.34531224557E+02  0.43576962738E+02  0.51646143360E+02  0.76031383486E+02  0.47000000000E+01 0. -1.
         11    1    6    6    0    0 -0.15493775740E+02 -0.34277610993E+02  0.34236896951E+03  0.34442927138E+03  0.00000000000E+00 0. -1.
        -12    1    6    6    0    0 -0.10700455259E+03  0.17332345127E+01  0.53010013303E+03  0.54079490513E+03  0.00000000000E+00 0.  1.
         -5    1    5    5    0  503  0.41705205071E+02 -0.20648413361E+02  0.18307879998E+03  0.18895930278E+03  0.47000000000E+01 0.  1.
<mgrwt>
<rscale>  2 0.19906608E+03</rscale>
<asrwt>0</asrwt>
<pdfrwt beam="1">  1       21 0.20766114E+00 0.19922041E+03</pdfrwt>
<pdfrwt beam="2">  1       21 0.67577831E-02 0.19922041E+03</pdfrwt>
<totfact> 0.19195237E+04</totfact>
</mgrwt>
</event>
<event>
12    1  0.2762290E-001  0.1866638E+03  0.7546771E-02  0.1164116E+00
         21   -1    0    0  504  503  0.00000000000E+00  0.00000000000E+00  0.62075346472E+02  0.62075346472E+02  0.00000000000E+00 0.  1.
         21   -1    0    0  502  504 -0.00000000000E+00 -0.00000000000E+00 -0.15731744725E+04  0.15731744725E+04  0.00000000000E+00 0.  1.
          6    2    1    2  502    0 -0.52130948967E+02  0.33929902441E+02 -0.14139359924E+04  0.14248120567E+04  0.16433360038E+03 0.  0.
         24    2    3    3    0    0  0.64697019714E+00 -0.21645966019E+02 -0.45300516731E+03  0.46081811144E+03  0.81674254232E+02 0.  0.
         -6    2    1    2    0  503  0.52130948967E+02 -0.33929902441E+02 -0.97163133596E+02  0.21043776223E+03  0.17599574746E+03 0.  0.
        -24    2    5    5    0    0  0.38127017009E+02  0.12271252382E+02  0.12806149995E+02  0.90246289364E+02  0.79850749559E+02 0.  0.
          4    1    4    4  501    0  0.12277896773E+02 -0.46040843630E+02 -0.17081021556E+03  0.17733199309E+03  0.00000000000E+00 0. -1.
         -3    1    4    4    0  501 -0.11630926575E+02  0.24394877610E+02 -0.28219495175E+03  0.28348611835E+03  0.00000000000E+00 0.  1.
          5    1    3    3  502    0 -0.52777919164E+02  0.55575868461E+02 -0.96093082510E+03  0.96399394528E+03  0.47000000000E+01 0. -1.
         13    1    6    6    0    0  0.24228508824E+02  0.33145899557E+02 -0.22594016208E+02  0.46863214419E+02  0.00000000000E+00 0. -1.
        -14    1    6    6    0    0  0.13898508186E+02 -0.20874647175E+02  0.35400166203E+02  0.43383074945E+02  0.00000000000E+00 0.  1.
         -5    1    5    5    0  503  0.14003931957E+02 -0.46201154823E+02 -0.10996928359E+03  0.12019147287E+03  0.47000000000E+01 0.  1.
<mgrwt>
<rscale>  2 0.18386324E+03</rscale>
<asrwt>0</asrwt>
<pdfrwt beam="1">  1       21 0.95500535E-02 0.18666381E+03</pdfrwt>
<pdfrwt beam="2">  1       21 0.24202684E+00 0.18666381E+03</pdfrwt>
<totfact> 0.65611570E+03</totfact>
</mgrwt>
</event>
<event>
12    1  0.2762290E-001  0.1817080E+03  0.7546771E-02  0.1166667E+00
         21   -1    0    0  504  503  0.00000000000E+00  0.00000000000E+00  0.12297856826E+04  0.12297856826E+04  0.00000000000E+00 0. -1.
         21   -1    0    0  502  504 -0.00000000000E+00 -0.00000000000E+00 -0.26537995186E+02  0.26537995186E+02  0.00000000000E+00 0. -1.
          6    2    1    2  502    0 -0.19364975892E+02  0.44391409991E+02  0.60526890690E+03  0.63195587889E+03  0.17513475851E+03 0.  0.
         24    2    3    3    0    0 -0.72787639700E+02  0.10879338401E+02  0.47207544651E+03  0.48451223596E+03  0.80501422990E+02 0.  0.
         -6    2    1    2    0  503  0.19364975892E+02 -0.44391409991E+02  0.59797878051E+03  0.62436779889E+03  0.17294775735E+03 0.  0.
        -24    2    5    5    0    0 -0.10837374426E+02  0.24140618053E+02  0.45571806901E+03  0.46352930576E+03  0.80499942594E+02 0.  0.
          2    1    4    4  501    0 -0.73123161250E+02  0.20329195169E+02  0.22892924279E+03  0.24118223627E+03  0.00000000000E+00 0. -1.
         -1    1    4    4    0  501  0.33552154981E+00 -0.94498567686E+01  0.24314620372E+03  0.24332999969E+03  0.00000000000E+00 0.  1.
          5    1    3    3  502    0  0.53422663809E+02  0.33512071590E+02  0.13319346038E+03  0.14744364293E+03  0.47000000000E+01 0. -1.
         13    1    6    6    0    0  0.13763014486E+01 -0.92185653012E+01  0.37757718305E+03  0.37769220976E+03  0.00000000000E+00 0. -1.
        -14    1    6    6    0    0 -0.12213675875E+02  0.33359183355E+02  0.78140885953E+02  0.85837096002E+02  0.00000000000E+00 0.  1.
         -5    1    5    5    0  503  0.30202350318E+02 -0.68532028044E+02  0.14226071151E+03  0.16083849312E+03  0.47000000000E+01 0.  1.
<mgrwt>
<rscale>  2 0.18117892E+03</rscale>
<asrwt>0</asrwt>
<pdfrwt beam="1">  1       21 0.18919775E+00 0.18170796E+03</pdfrwt>
<pdfrwt beam="2">  1       21 0.40827694E-02 0.18170796E+03</pdfrwt>
<totfact> 0.60178840E+04</totfact>
</mgrwt>
</event>
<event>
12    1  0.2762290E-001  0.2321808E+03  0.7546771E-02  0.1125225E+00
         21   -1    0    0  504  503  0.00000000000E+00  0.00000000000E+00  0.29697203572E+02  0.29697203572E+02  0.00000000000E+00 0.  1.
         21   -1    0    0  502  504 -0.00000000000E+00 -0.00000000000E+00 -0.24880037166E+04  0.24880037166E+04  0.00000000000E+00 0.  1.
          6    2    1    2  502    0 -0.12324083135E+03 -0.94998972711E+02 -0.18873825631E+04  0.19016100761E+04  0.17232189303E+03 0.  0.
         24    2    3    3    0    0 -0.14419974583E+03 -0.92922273612E+02 -0.18387303921E+04  0.18483868432E+04  0.78589769335E+02 0.  0.
         -6    2    1    2    0  503  0.12324083135E+03  0.94998972711E+02 -0.57092394989E+03  0.61609084400E+03  0.17146621877E+03 0.  0.
        -24    2    5    5    0    0  0.73428442562E+02  0.79299955710E+02 -0.53692762782E+03  0.55359625923E+03  0.80605964821E+02 0.  0.
          4    1    4    4  501    0 -0.12188283934E+03 -0.10440110894E+03 -0.14517100497E+04  0.14605536917E+04  0.00000000000E+00 0. -1.
         -3    1    4    4    0  501 -0.22316906489E+02  0.11478835324E+02 -0.38702034239E+03  0.38783315150E+03  0.00000000000E+00 0.  1.
          5    1    3    3  502    0  0.20958914479E+02 -0.20766990990E+01 -0.48652171031E+02  0.53223232910E+02  0.47000000000E+01 0. -1.
         11    1    6    6    0    0 -0.48242597080E+01 -0.64018495257E+01 -0.56904584580E+01  0.98304870959E+01  0.00000000000E+00 0. -1.
        -12    1    6    6    0    0  0.78252702270E+02  0.85701805235E+02 -0.53123716936E+03  0.54376577214E+03  0.00000000000E+00 0.  1.
         -5    1    5    5    0  503  0.49812388788E+02  0.15699017002E+02 -0.33996322066E+02  0.62494584770E+02  0.47000000000E+01 0.  1.
<mgrwt>
<rscale>  2 0.23202209E+03</rscale>
<asrwt>0</asrwt>
<pdfrwt beam="1">  1       21 0.45688000E-02 0.23218084E+03</pdfrwt>
<pdfrwt beam="2">  1       21 0.38276985E+00 0.23218084E+03</pdfrwt>
<totfact> 0.33144003E+03</totfact>
</mgrwt>
</event>
<event>
12    1  0.2762290E-001  0.1895512E+03  0.7546771E-02  0.1162447E+00
         21   -1    0    0  504  503  0.00000000000E+00  0.00000000000E+00  0.42562959212E+03  0.42562959212E+03  0.00000000000E+00 0. -1.
         21   -1    0    0  502  504 -0.00000000000E+00 -0.00000000000E+00 -0.11013577051E+03  0.11013577051E+03  0.00000000000E+00 0. -1.
          6    2    1    2  502    0  0.71177366235E+01 -0.32689310042E+02  0.17336942639E+02  0.19034243488E+03  0.18657550689E+03 0.  0.
         24    2    3    3    0    0 -0.56145310031E+02  0.25943005213E+02  0.26333296230E+01  0.10271682390E+03  0.81966310938E+02 0.  0.
         -6    2    1    2    0  503 -0.71177366235E+01  0.32689310042E+02  0.29815687898E+03  0.34542292775E+03  0.17117307431E+03 0.  0.
        -24    2    5    5    0    0 -0.62112905921E+02 -0.14379916470E+02  0.18676833520E+03  0.21249633743E+03  0.78787608840E+02 0.  0.
          2    1    4    4  501    0 -0.49295721068E+02  0.37461763088E+02 -0.28993946464E+02  0.68367395305E+02  0.00000000000E+00 0. -1.
         -1    1    4    4    0  501 -0.68495889629E+01 -0.11518757875E+02  0.31627276087E+02  0.34349428592E+02  0.00000000000E+00 0.  1.
          5    1    3    3  502    0  0.63263046655E+02 -0.58632315256E+02  0.14703613016E+02  0.87625610982E+02  0.47000000000E+01 0. -1.
         11    1    6    6    0    0 -0.29346671600E+02 -0.36029536048E+02  0.15550453499E+03  0.16229915281E+03  0.00000000000E+00 0. -1.
        -12    1    6    6    0    0 -0.32766234321E+02  0.21649619578E+02  0.31263800211E+02  0.50197184613E+02  0.00000000000E+00 0.  1.
         -5    1    5    5    0  503  0.54995169297E+02  0.47069226513E+02  0.11138854378E+03  0.13292659032E+03  0.47000000000E+01 0.  1.
<mgrwt>
<rscale>  2 0.18564743E+03</rscale>
<asrwt>0</asrwt>
<pdfrwt beam="1">  1       21 0.65481475E-01 0.18955124E+03</pdfrwt>
<pdfrwt beam="2">  1       21 0.16943965E-01 0.18955124E+03</pdfrwt>
<totfact> 0.67409419E+04</totfact>
</mgrwt>
</event>
<event>
12    1  0.2762290E-001  0.2226021E+03  0.7546771E-02  0.1131972E+00
         21   -1    0    0  504  503  0.00000000000E+00  0.00000000000E+00  0.10603237765E+04  0.10603237765E+04  0.00000000000E+00 0. -1.
         21   -1    0    0  502  504 -0.00000000000E+00 -0.00000000000E+00 -0.18956650492E+03  0.18956650492E+03  0.00000000000E+00 0. -1.
          6    2    1    2  502    0 -0.13094384146E+03  0.51614378401E+02 -0.10710513650E+03  0.24702872156E+03  0.17245679266E+03 0.  0.
         24    2    3    3    0    0 -0.91097812365E+02  0.15788761760E+02  0.13176554801E+02  0.11526774059E+03  0.67564295373E+02 0.  0.
         -6    2    1    2    0  503  0.13094384146E+03 -0.51614378401E+02  0.97786240806E+03  0.10028615599E+04  0.17235453418E+03 0.  0.
        -24    2    5    5    0    0  0.95669635723E+01 -0.23041692580E+02  0.57270674409E+03  0.57892530649E+03  0.80864388854E+02 0.  0.
          2    1    4    4  501    0 -0.30923250666E+02 -0.23027230620E+02 -0.10304561301E+02  0.39908454810E+02  0.00000000000E+00 0. -1.
         -1    1    4    4    0  501 -0.60174561699E+02  0.38815992380E+02  0.23481116103E+02  0.75359285782E+02  0.00000000000E+00 0.  1.
          5    1    3    3  502    0 -0.39846029096E+02  0.35825616641E+02 -0.12028169130E+03  0.13176098097E+03  0.47000000000E+01 0. -1.
         11    1    6    6    0    0  0.37848312585E+02 -0.33922546559E+02  0.27302672738E+03  0.27771717231E+03  0.00000000000E+00 0. -1.
        -12    1    6    6    0    0 -0.28281349012E+02  0.10880853978E+02  0.29968001671E+03  0.30120813419E+03  0.00000000000E+00 0.  1.
         -5    1    5    5    0  503  0.12137687789E+03 -0.28572685821E+02  0.40515566397E+03  0.42393625336E+03  0.47000000000E+01 0.  1.
<mgrwt>
<rscale>  2 0.22258226E+03</rscale>
<asrwt>0</asrwt>
<pdfrwt beam="1">  1       21 0.16312673E+00 0.22260206E+03</pdfrwt>
<pdfrwt beam="2">  1       21 0.29164078E-01 0.22260206E+03</pdfrwt>
<totfact> 0.26177777E+03</totfact>
</mgrwt>
</event>
<event>
12    1  0.2762290E-001  0.1809752E+03  0.7546771E-02  0.1167064E+00
         21   -1    0    0  504  503  0.00000000000E+00  0.00000000000E+00  0.26115745496E+04  0.26115745496E+04  0.00000000000E+00 0. -1.
         21   -1    0    0  502  504 -0.00000000000E+00 -0.00000000000E+00 -0.21480236063E+02  0.21480236063E+02  0.00000000000E+00 0. -1.
          6    2    1    2  502    0  0.11788412977E+02 -0.53048106225E+02  0.44474966277E+03  0.48016069327E+03  0.17262375436E+03 0.  0.
         24    2    3    3    0    0 -0.20293377513E+02 -0.91499265458E+02  0.38148638920E+03  0.39933950353E+03  0.71806943846E+02 0.  0.
         -6    2    1    2    0  503 -0.11788412977E+02  0.53048106225E+02  0.21453446508E+04  0.21528940924E+04  0.17174467751E+03 0.  0.
        -24    2    5    5    0    0 -0.35045153334E+01  0.63478477105E+02  0.21281580045E+04  0.21306480499E+04  0.81011244750E+02 0.  0.
          2    1    4    4  501    0  0.11914535151E+02 -0.43449676825E+02  0.27006574667E+03  0.27379798773E+03  0.00000000000E+00 0. -1.
         -1    1    4    4    0  501 -0.32207912663E+02 -0.48049588634E+02  0.11142064253E+03  0.12554151579E+03  0.00000000000E+00 0.  1.
          5    1    3    3  502    0  0.32081790490E+02  0.38451159233E+02  0.63263273574E+02  0.80821189739E+02  0.47000000000E+01 0. -1.
         11    1    6    6    0    0 -0.11936285338E+01  0.76171585072E+02  0.12080749711E+04  0.12104745644E+04  0.00000000000E+00 0. -1.
        -12    1    6    6    0    0 -0.23108867996E+01 -0.12693107967E+02  0.92008303334E+03  0.92017348551E+03  0.00000000000E+00 0.  1.
         -5    1    5    5    0  503 -0.82838976440E+01 -0.10430370880E+02  0.17186646299E+02  0.22246042522E+02  0.47000000000E+01 0.  1.
<mgrwt>
<rscale>  2 0.18076527E+03</rscale>
<asrwt>0</asrwt>
<pdfrwt beam="1">  1       21 0.40178045E+00 0.18097522E+03</pdfrwt>
<pdfrwt beam="2">  1       21 0.33046538E-02 0.18097522E+03</pdfrwt>
<totfact> 0.46543675E+03</totfact>
</mgrwt>
</event>
<event>
12    1  0.2762290E-001  0.3867259E+03  0.7546771E-02  0.1048589E+00
         21   -1    0    0  504  503  0.00000000000E+00  0.00000000000E+00  0.19776617231E+03  0.19776617231E+03  0.00000000000E+00 0. -1.
         21   -1    0    0  502  504 -0.00000000000E+00 -0.00000000000E+00 -0.76830738035E+03  0.76830738035E+03  0.00000000000E+00 0. -1.
          6    2    1    2  502    0 -0.33221464506E+03 -0.94049152163E+02 -0.35215670645E+03  0.52304041520E+03  0.17419849775E+03 0.  0.
         24    2    3    3    0    0 -0.15220157339E+03 -0.94433778012E+02 -0.24167340045E+03  0.31177398433E+03  0.81938558969E+02 0.  0.
         -6    2    1    2    0  503  0.33221464506E+03  0.94049152163E+02 -0.21838450159E+03  0.44303313746E+03  0.17139065592E+03 0.  0.
        -24    2    5    5    0    0  0.14241184981E+03  0.95445065453E+02 -0.69201888676E+02  0.20156969995E+03  0.80315297768E+02 0.  0.
          2    1    4    4  501    0 -0.47934944262E+02  0.92823880846E+01 -0.75010906105E+02  0.89501718669E+02  0.00000000000E+00 0. -1.
         -1    1    4    4    0  501 -0.10426662913E+03 -0.10371616610E+03 -0.16666249434E+03  0.22227226566E+03  0.00000000000E+00 0.  1.
          5    1    3    3  502    0 -0.18001307167E+03  0.38462584940E+00 -0.11048330601E+03  0.21126643088E+03  0.47000000000E+01 0. -1.
         11    1    6    6    0    0  0.80158482102E+02  0.36734011428E+02 -0.75062409432E+02  0.11579782018E+03  0.00000000000E+00 0. -1.
        -12    1    6    6    0    0  0.62253367709E+02  0.58711054026E+02  0.58605207554E+01  0.85771879771E+02  0.00000000000E+00 0.  1.
         -5    1    5    5    0  503  0.18980279525E+03 -0.13959132906E+01 -0.14918261291E+03  0.24146343751E+03  0.47000000000E+01 0.  1.
<mgrwt>
<rscale>  2 0.38641137E+03</rscale>
<asrwt>0</asrwt>
<pdfrwt beam="1">  1       21 0.30425566E-01 0.38672591E+03</pdfrwt>
<pdfrwt beam="2">  1       21 0.11820113E+00 0.38672591E+03</pdfrwt>
<totfact> 0.50965698E+03</totfact>
</mgrwt>
</event>
<event>
12    1  0.2762290E-001  0.2143965E+03  0.7546771E-02  0.1138522E+00
         21   -1    0    0  504  503  0.00000000000E+00  0.00000000000E+00  0.74136486874E+02  0.74136486874E+02  0.00000000000E+00 0.  1.
         21   -1    0    0  502  504 -0.00000000000E+00 -0.00000000000E+00 -0.13587243811E+04  0.13587243811E+04  0.00000000000E+00 0.  1.
          6    2    1    2  502    0  0.11749734749E+03  0.42843818686E+02 -0.11739970730E+04  0.11934131655E+04  0.17413970452E+03 0.  0.
         24    2    3    3    0    0  0.23104069028E+02 -0.10883564717E+02 -0.76710358129E+03  0.77224677754E+03  0.85234564623E+02 0.  0.
         -6    2    1    2    0  503 -0.11749734749E+03 -0.42843818686E+02 -0.11059082120E+03  0.23944770246E+03  0.17164979759E+03 0.  0.
        -24    2    5    5    0    0 -0.35559147312E+02 -0.18780289306E+02  0.12026530435E+02  0.89948448225E+02  0.79554595592E+02 0.  0.
          2    1    4    4  501    0 -0.25736269876E+02  0.16132410628E+02 -0.36925234602E+03  0.37049953482E+03  0.00000000000E+00 0. -1.
         -1    1    4    4    0  501  0.48840338904E+02 -0.27015975345E+02 -0.39785123527E+03  0.40174724273E+03  0.00000000000E+00 0.  1.
          5    1    3    3  502    0  0.94393278458E+02  0.53727383403E+02 -0.40689349175E+03  0.42116638799E+03  0.47000000000E+01 0. -1.
         11    1    6    6    0    0 -0.13801900891E+02 -0.31557410657E+02 -0.26801322572E+02  0.43642565543E+02  0.00000000000E+00 0. -1.
        -12    1    6    6    0    0 -0.21757246421E+02  0.12777121351E+02  0.38827853007E+02  0.46305882682E+02  0.00000000000E+00 0.  1.
         -5    1    5    5    0  503 -0.81938200175E+02 -0.24063529380E+02 -0.12261735164E+03  0.14949925424E+03  0.47000000000E+01 0.  1.
<mgrwt>
<rscale>  2 0.21389035E+03</rscale>
<asrwt>0</asrwt>
<pdfrwt beam="1">  1       21 0.11405614E-01 0.21439649E+03</pdfrwt>
<pdfrwt beam="2">  1       21 0.20903452E+00 0.21439649E+03</pdfrwt>
<totfact> 0.74192298E+03</totfact>
</mgrwt>
</event>
<event>
12    1  0.2762290E-001  0.1962701E+03  0.7546771E-02  0.1153009E+00
         21   -1    0    0  504  503  0.00000000000E+00  0.00000000000E+00  0.78637101659E+03  0.78637101659E+03  0.00000000000E+00 0.  1.
         21   -1    0    0  502  504 -0.00000000000E+00 -0.00000000000E+00 -0.52298213574E+02  0.52298213574E+02  0.00000000000E+00 0.  1.
          6    2    1    2  502    0 -0.52910459417E+02 -0.74996851835E+02  0.26032636923E+03  0.32602418596E+03  0.17348748316E+03 0.  0.
         24    2    3    3    0    0  0.41861967216E+01  0.84471056566E+01  0.59509096178E+02  0.10114068425E+03  0.81235630395E+02 0.  0.
         -6    2    1    2    0  503  0.52910459417E+02  0.74996851835E+02  0.47374643378E+03  0.51264504421E+03  0.17304685297E+03 0.  0.
        -24    2    5    5    0    0  0.16534798135E+02 -0.12726796965E+02  0.32951200944E+03  0.33989005453E+03  0.80695191253E+02 0.  0.
          2    1    4    4  501    0 -0.84659353504E+00  0.43319508013E+02  0.18603238834E+02  0.47152698652E+02  0.00000000000E+00 0. -1.
         -1    1    4    4    0  501  0.50327902566E+01 -0.34872402356E+02  0.40905857344E+02  0.53987985598E+02  0.00000000000E+00 0.  1.
          5    1    3    3  502    0 -0.57096656138E+02 -0.83443957491E+02  0.20081727305E+03  0.22488350171E+03  0.47000000000E+01 0. -1.
         13    1    6    6    0    0  0.29033798469E+02 -0.30772834759E+02  0.90820904692E+02  0.10019164407E+03  0.00000000000E+00 0. -1.
        -14    1    6    6    0    0 -0.12499000334E+02  0.18046037794E+02  0.23869110475E+03  0.23969841046E+03  0.00000000000E+00 0.  1.
         -5    1    5    5    0  503  0.36375661282E+02  0.87723648800E+02  0.14423442434E+03  0.17275498968E+03  0.47000000000E+01 0.  1.
<mgrwt>
<rscale>  2 0.19617268E+03</rscale>
<asrwt>0</asrwt>
<pdfrwt beam="1">  1       21 0.12098015E+00 0.19627010E+03</pdfrwt>
<pdfrwt beam="2">  1       21 0.80458796E-02 0.19627010E+03</pdfrwt>
<totfact> 0.61378747E+04</totfact>
</mgrwt>
</event>
<event>
12    1  0.2762290E-001  0.2223423E+03  0.7546771E-02  0.1132220E+00
         21   -1    0    0  504  503  0.00000000000E+00  0.00000000000E+00  0.77605100155E+03  0.77605100155E+03  0.00000000000E+00 0. -1.
         21   -1    0    0  502  504 -0.00000000000E+00 -0.00000000000E+00 -0.84498094977E+02  0.84498094977E+02  0.00000000000E+00 0.  1.
          6    2    1    2  502    0  0.13609609364E+03 -0.30517289148E+02  0.13197621205E+03  0.25856107180E+03  0.17315500472E+03 0.  0.
         24    2    3    3    0    0  0.13658578479E+03 -0.11877425365E+02  0.37062011867E+02  0.16171852064E+03  0.77346863882E+02 0.  0.
         -6    2    1    2    0  503 -0.13609609364E+03  0.30517289148E+02  0.55957669452E+03  0.60198802473E+03  0.17265588094E+03 0.  0.
        -24    2    5    5    0    0 -0.72787838695E+02  0.28282872097E+02  0.50894921431E+03  0.52075896886E+03  0.77862767685E+02 0.  0.
          4    1    4    4  501    0  0.78713211135E+02 -0.15706224321E+02  0.59097720204E+02  0.99674448194E+02  0.00000000000E+00 0. -1.
         -3    1    4    4    0  501  0.57872573658E+02  0.38287989564E+01 -0.22035708337E+02  0.62044072442E+02  0.00000000000E+00 0.  1.
          5    1    3    3  502    0 -0.48969115034E+00 -0.18639863783E+02  0.94914200183E+02  0.96842551162E+02  0.47000000000E+01 0. -1.
         13    1    6    6    0    0 -0.57175297168E+02 -0.18623372237E+02  0.24970107793E+03  0.25683939130E+03  0.00000000000E+00 0. -1.
        -14    1    6    6    0    0 -0.15612541527E+02  0.46906244334E+02  0.25924813637E+03  0.26391957757E+03  0.00000000000E+00 0.  1.
         -5    1    5    5    0  503 -0.63308254947E+02  0.22344170508E+01  0.50627480216E+02  0.81229055866E+02  0.47000000000E+01 0.  1.
<mgrwt>
<rscale>  2 0.22224514E+03</rscale>
<asrwt>0</asrwt>
<pdfrwt beam="1">  1       21 0.11939246E+00 0.22234232E+03</pdfrwt>
<pdfrwt beam="2">  1       21 0.12999707E-01 0.22234232E+03</pdfrwt>
<totfact> 0.26718682E+04</totfact>
</mgrwt>
</event>
<event>
12    1  0.2762290E-001  0.2050086E+03  0.7546771E-02  0.1146465E+00
         21   -1    0    0  504  503  0.00000000000E+00  0.00000000000E+00  0.33072013495E+03  0.33072013495E+03  0.00000000000E+00 0.  1.
         21   -1    0    0  502  504 -0.00000000000E+00 -0.00000000000E+00 -0.13953457350E+03  0.13953457350E+03  0.00000000000E+00 0. -1.
          6    2    1    2  502    0  0.24529582709E+02 -0.10386307808E+03  0.17370168905E+02  0.20147913773E+03  0.17000847260E+03 0.  0.
         24    2    3    3    0    0 -0.67217571955E+01 -0.13368158569E+03  0.22110993245E+02  0.15777152905E+03  0.80541982741E+02 0.  0.
         -6    2    1    2    0  503 -0.24529582709E+02  0.10386307808E+03  0.17381539255E+03  0.26877557071E+03  0.17504078756E+03 0.  0.
        -24    2    5    5    0    0 -0.42800495937E+02  0.15898257610E+02  0.27863471522E+02  0.97323859839E+02  0.81307586369E+02 0.  0.
          2    1    4    4  501    0  0.26092811534E+02 -0.11007241524E+03  0.32666264258E+01  0.11316997065E+03  0.00000000000E+00 0. -1.
         -1    1    4    4    0  501 -0.32814568729E+02 -0.23609170452E+02  0.18844366820E+02  0.44601558394E+02  0.00000000000E+00 0.  1.
          5    1    3    3  502    0  0.31251339905E+02  0.29818507603E+02 -0.47408243400E+01  0.43707608685E+02  0.47000000000E+01 0. -1.
         11    1    6    6    0    0 -0.46739508357E+02 -0.22347966386E+02  0.27969163383E+02  0.58875184445E+02  0.00000000000E+00 0. -1.
        -12    1    6    6    0    0  0.39390124203E+01  0.38246223996E+02 -0.10569186049E+00  0.38448675394E+02  0.00000000000E+00 0.  1.
         -5    1    5    5    0  503  0.18270913228E+02  0.87964820475E+02  0.14595192102E+03  0.17145171087E+03  0.47000000000E+01 0.  1.
<mgrwt>
<rscale>  2 0.20393020E+03</rscale>
<asrwt>0</asrwt>
<pdfrwt beam="1">  1       21 0.50880021E-01 0.20500858E+03</pdfrwt>
<pdfrwt beam="2">  1       21 0.21466858E-01 0.20500858E+03</pdfrwt>
<totfact> 0.73870536E+04</totfact>
</mgrwt>
</event>
<event>
12    1  0.2762290E-001  0.2275752E+03  0.7546771E-02  0.1129458E+00
         21   -1    0    0  504  503  0.00000000000E+00  0.00000000000E+00  0.57720894080E+03  0.57720894080E+03  0.00000000000E+00 0.  1.
         21   -1    0    0  502  504 -0.00000000000E+00 -0.00000000000E+00 -0.95272208124E+02  0.95272208124E+02  0.00000000000E+00 0.  1.
          6    2    1    2  502    0  0.76484529487E+02 -0.11466829944E+03  0.14100542411E+03  0.26257305883E+03  0.17338794493E+03 0.  0.
         24    2    3    3    0    0  0.88093837710E+02 -0.13734239868E+03  0.14921455931E+03  0.23540008117E+03  0.80775954252E+02 0.  0.
         -6    2    1    2    0  503 -0.76484529487E+02  0.11466829944E+03  0.34093130857E+03  0.40990809010E+03  0.18108501600E+03 0.  0.
        -24    2    5    5    0    0 -0.11788187059E+03  0.11751913021E+03  0.29319231604E+03  0.34648121493E+03  0.79878762742E+02 0.  0.
          2    1    4    4  501    0  0.33275203315E+02 -0.95005216091E+02  0.12824000496E+03  0.16302984117E+03  0.00000000000E+00 0. -1.
         -1    1    4    4    0  501  0.54818634395E+02 -0.42337182591E+02  0.20974554348E+02  0.72370239994E+02  0.00000000000E+00 0.  1.
          5    1    3    3  502    0 -0.11609308223E+02  0.22674099243E+02 -0.82091352062E+01  0.27172977657E+02  0.47000000000E+01 0. -1.
         11    1    6    6    0    0 -0.46057276890E+01 -0.12150627001E+01  0.66265326212E+02  0.66436304555E+02  0.00000000000E+00 0. -1.
        -12    1    6    6    0    0 -0.11327614290E+03  0.11873419291E+03  0.22692698983E+03  0.28004491037E+03  0.00000000000E+00 0.  1.
         -5    1    5    5    0  503  0.41397341098E+02 -0.28508307668E+01  0.47738992535E+02  0.63426875174E+02  0.47000000000E+01 0.  1.
<mgrwt>
<rscale>  2 0.22604088E+03</rscale>
<asrwt>0</asrwt>
<pdfrwt beam="1">  1       21 0.88801373E-01 0.22757523E+03</pdfrwt>
<pdfrwt beam="2">  1       21 0.14657263E-01 0.22757523E+03</pdfrwt>
<totfact> 0.43570396E+04</totfact>
</mgrwt>
</event>
<event>
12    1  0.2762290E-001  0.1769006E+03  0.7546771E-02  0.1171024E+00
         21   -1    0    0  504  503  0.00000000000E+00  0.00000000000E+00  0.12422065437E+04  0.12422065437E+04  0.00000000000E+00 0.  1.
         21   -1    0    0  502  504 -0.00000000000E+00 -0.00000000000E+00 -0.40254529799E+02  0.40254529799E+02  0.00000000000E+00 0.  1.
          6    2    1    2  502    0  0.26610855311E+02  0.21076350771E+02  0.20653666359E+03  0.27144893872E+03  0.17284323170E+03 0.  0.
         24    2    3    3    0    0  0.23938488470E+02 -0.20542795635E+02  0.32771019320E+02  0.92686850964E+02  0.80758002400E+02 0.  0.
         -6    2    1    2    0  503 -0.26610855311E+02 -0.21076350771E+02  0.99541535034E+03  0.10110121348E+04  0.17361298006E+03 0.  0.
        -24    2    5    5    0    0 -0.74969547699E+02 -0.14031596496E+02  0.85717265203E+03  0.86431065108E+03  0.80440210034E+02 0.  0.
          4    1    4    4  501    0  0.13746990082E+02  0.31075778394E+02  0.10647143467E+02  0.35609625147E+02  0.00000000000E+00 0. -1.
         -3    1    4    4    0  501  0.10191498388E+02 -0.51618574029E+02  0.22123875854E+02  0.57077225817E+02  0.00000000000E+00 0.  1.
          5    1    3    3  502    0  0.26723668408E+01  0.41619146406E+02  0.17376564426E+03  0.17876208776E+03  0.47000000000E+01 0. -1.
         11    1    6    6    0    0 -0.52371134290E+01 -0.28848330126E+01  0.21154386146E+01  0.63422944674E+01  0.00000000000E+00 0. -1.
        -12    1    6    6    0    0 -0.69732434270E+02 -0.11146763483E+02  0.85505721342E+03  0.85796835661E+03  0.00000000000E+00 0.  1.
         -5    1    5    5    0  503  0.48358692388E+02 -0.70447542749E+01  0.13824269830E+03  0.14670148372E+03  0.47000000000E+01 0.  1.
<mgrwt>
<rscale>  2 0.17671144E+03</rscale>
<asrwt>0</asrwt>
<pdfrwt beam="1">  1       21 0.19110867E+00 0.17690059E+03</pdfrwt>
<pdfrwt beam="2">  1       21 0.61930055E-02 0.17690059E+03</pdfrwt>
<totfact> 0.28968097E+04</totfact>
</mgrwt>
</event>
<event>
12    1  0.2762290E-001  0.2589965E+03  0.7546771E-02  0.1107786E+00
         21   -1    0    0  504  503  0.00000000000E+00  0.00000000000E+00  0.10885006402E+03  0.10885006402E+03  0.00000000000E+00 0.  1.
         21   -1    0    0  502  504 -0.00000000000E+00 -0.00000000000E+00 -0.62330065462E+03  0.62330065462E+03  0.00000000000E+00 0. -1.
          6    2    1    2  502    0  0.17989709807E+03 -0.70342639805E+02 -0.29792869489E+03  0.39476661433E+03  0.17253440146E+03 0.  0.
         24    2    3    3    0    0  0.15524936653E+03 -0.70710572159E+02 -0.13936731886E+03  0.23423173958E+03  0.79617255892E+02 0.  0.
         -6    2    1    2    0  503 -0.17989709807E+03  0.70342639805E+02 -0.21652189571E+03  0.33738410431E+03  0.17214891708E+03 0.  0.
        -24    2    5    5    0    0 -0.18533580960E+03  0.47383467271E+02 -0.12607152240E+03  0.24378889494E+03  0.83333314120E+02 0.  0.
          2    1    4    4  501    0  0.47066827118E+02 -0.41376510191E+01 -0.22258601369E+01  0.47300748665E+02  0.00000000000E+00 0. -1.
         -1    1    4    4    0  501  0.10818253942E+03 -0.66572921140E+02 -0.13714145872E+03  0.18693099091E+03  0.00000000000E+00 0.  1.
          5    1    3    3  502    0  0.24647731536E+02  0.36793235447E+00 -0.15856137603E+03  0.16053487475E+03  0.47000000000E+01 0. -1.
         13    1    6    6    0    0 -0.13762485210E+03  0.39399436351E+02 -0.13241023807E+03  0.19500099140E+03  0.00000000000E+00 0. -1.
        -14    1    6    6    0    0 -0.47710957501E+02  0.79840309205E+01  0.63387156668E+01  0.48787903539E+02  0.00000000000E+00 0.  1.
         -5    1    5    5    0  503  0.54387115299E+01  0.22959172533E+02 -0.90450373310E+02  0.93595209378E+02  0.47000000000E+01 0.  1.
<mgrwt>
<rscale>  2 0.25893229E+03</rscale>
<asrwt>0</asrwt>
<pdfrwt beam="1">  1       21 0.16746164E-01 0.25899647E+03</pdfrwt>
<pdfrwt beam="2">  1       21 0.95892405E-01 0.25899647E+03</pdfrwt>
<totfact> 0.28088940E+04</totfact>
</mgrwt>
</event>
<event>
12    1  0.2762290E-001  0.2003504E+03  0.7546771E-02  0.1149546E+00
         21   -1    0    0  504  503  0.00000000000E+00  0.00000000000E+00  0.78267610370E+02  0.78267610370E+02  0.00000000000E+00 0.  1.
         21   -1    0    0  502  504 -0.00000000000E+00 -0.00000000000E+00 -0.97248462387E+03  0.97248462387E+03  0.00000000000E+00 0.  1.
          6    2    1    2  502    0 -0.10140127032E+03 -0.42068377260E+01 -0.80907095997E+03  0.83350831423E+03  0.17274367285E+03 0.  0.
         24    2    3    3    0    0 -0.12299993361E+03 -0.33714295187E+02 -0.50151289682E+03  0.52374833536E+03  0.80817669742E+02 0.  0.
         -6    2    1    2    0  503  0.10140127032E+03  0.42068377260E+01 -0.85146053527E+02  0.21724392001E+03  0.17217768509E+03 0.  0.
        -24    2    5    5    0    0  0.12053345352E+03 -0.30248972753E+02 -0.32105479348E+02  0.15099714033E+03  0.79536537597E+02 0.  0.
          2    1    4    4  501    0 -0.39925768095E+02 -0.50799599338E+02 -0.18031295878E+03  0.19153962868E+03  0.00000000000E+00 0. -1.
         -1    1    4    4    0  501 -0.83074165514E+02  0.17085304151E+02 -0.32119993804E+03  0.33220870667E+03  0.00000000000E+00 0.  1.
          5    1    3    3  502    0  0.21598663285E+02  0.29507457461E+02 -0.30755806315E+03  0.30975997887E+03  0.47000000000E+01 0. -1.
         13    1    6    6    0    0 -0.50137638291E+00  0.48232426933E+01  0.15538265514E+02  0.16277369060E+02  0.00000000000E+00 0. -1.
        -14    1    6    6    0    0  0.12103482990E+03 -0.35072215447E+02 -0.47643744861E+02  0.13471977127E+03  0.00000000000E+00 0.  1.
         -5    1    5    5    0  503 -0.19132183193E+02  0.34455810479E+02 -0.53040574180E+02  0.66246779687E+02  0.47000000000E+01 0.  1.
<mgrwt>
<rscale>  2 0.20022836E+03</rscale>
<asrwt>0</asrwt>
<pdfrwt beam="1">  1       21 0.12041171E-01 0.20035042E+03</pdfrwt>
<pdfrwt beam="2">  1       21 0.14961302E+00 0.20035042E+03</pdfrwt>
<totfact> 0.17458735E+04</totfact>
</mgrwt>
</event>
<event>
12    1  0.2762290E-001  0.3125446E+03  0.7546771E-02  0.1079134E+00
         21   -1    0    0  504  503  0.00000000000E+00  0.00000000000E+00  0.17359839781E+03  0.17359839781E+03  0.00000000000E+00 0. -1.
         21   -1    0    0  502  504 -0.00000000000E+00 -0.00000000000E+00 -0.61608369928E+03  0.61608369928E+03  0.00000000000E+00 0. -1.
          6    2    1    2  502    0  0.25377337078E+03  0.59141247608E+02 -0.33749792252E+03  0.45998804186E+03  0.17258487785E+03 0.  0.
         24    2    3    3    0    0  0.13774713072E+02 -0.14000419848E+02 -0.64107388459E+02  0.88890300915E+02  0.58360721942E+02 0.  0.
         -6    2    1    2    0  503 -0.25377337078E+03 -0.59141247608E+02 -0.10498737895E+03  0.32969405523E+03  0.17256074129E+03 0.  0.
        -24    2    5    5    0    0 -0.19077500648E+03  0.16064555119E+02 -0.38134831782E+02  0.21088302994E+03  0.79776023309E+02 0.  0.
          2    1    4    4  501    0  0.15862630973E+02 -0.26667014685E+02 -0.89996786030E+01  0.32307072733E+02  0.00000000000E+00 0. -1.
         -1    1    4    4    0  501 -0.20879179013E+01  0.12666594837E+02 -0.55107709856E+02  0.56583228182E+02  0.00000000000E+00 0.  1.
          5    1    3    3  502    0  0.23999865770E+03  0.73141667456E+02 -0.27339053407E+03  0.37109774095E+03  0.47000000000E+01 0. -1.
         11    1    6    6    0    0 -0.15136152590E+03  0.15034982632E+01  0.39409458231E+01  0.15142028624E+03  0.00000000000E+00 0. -1.
        -12    1    6    6    0    0 -0.39413480578E+02  0.14561056855E+02 -0.42075777605E+02  0.59462743706E+02  0.00000000000E+00 0.  1.
         -5    1    5    5    0  503 -0.62998364297E+02 -0.75205802727E+02 -0.66852547165E+02  0.11881102529E+03  0.47000000000E+01 0.  1.
<mgrwt>
<rscale>  2 0.31254131E+03</rscale>
<asrwt>0</asrwt>
<pdfrwt beam="1">  1       21 0.26707446E-01 0.31254464E+03</pdfrwt>
<pdfrwt beam="2">  1       21 0.94782108E-01 0.31254464E+03</pdfrwt>
<totfact> 0.11642783E+04</totfact>
</mgrwt>
</event>
<event>
12    1  0.2762290E-001  0.1863313E+03  0.7546771E-02  0.1161938E+00
         21   -1    0    0  504  503  0.00000000000E+00  0.00000000000E+00  0.11907866350E+04  0.11907866350E+04  0.00000000000E+00 0. -1.
         21   -1    0    0  502  504 -0.00000000000E+00 -0.00000000000E+00 -0.88610261687E+02  0.88610261687E+02  0.00000000000E+00 0. -1.
          6    2    1    2  502    0  0.69968257317E+02  0.12205041693E+01  0.26989427972E+02  0.18827577703E+03  0.17269132095E+03 0.  0.
         24    2    3    3    0    0 -0.23792829538E+02 -0.18438763234E+02  0.33922888816E+02  0.92110341020E+02  0.80171477535E+02 0.  0.
         -6    2    1    2    0  503 -0.69968257317E+02 -0.12205041693E+01  0.10751869453E+04  0.10911211196E+04  0.17210834865E+03 0.  0.
        -24    2    5    5    0    0 -0.25433162471E+01 -0.53984266116E+02  0.46893519635E+03  0.47883572019E+03  0.80390665539E+02 0.  0.
          4    1    4    4  501    0  0.18732376176E+02 -0.29643786222E+01  0.42053764686E+02  0.46132511118E+02  0.00000000000E+00 0. -1.
         -3    1    4    4    0  501 -0.42525205713E+02 -0.15474384612E+02 -0.81308758696E+01  0.45977829902E+02  0.00000000000E+00 0.  1.
          5    1    3    3  502    0  0.93761086854E+02  0.19659267403E+02 -0.69334608440E+01  0.96165436006E+02  0.47000000000E+01 0. -1.
         11    1    6    6    0    0  0.19352067473E+02  0.15004759780E+02  0.11900885167E+03  0.12150206626E+03  0.00000000000E+00 0. -1.
        -12    1    6    6    0    0 -0.21895383720E+02 -0.68989025896E+02  0.34992634469E+03  0.35733365393E+03  0.00000000000E+00 0.  1.
         -5    1    5    5    0  503 -0.67424941070E+02  0.52763761947E+02  0.60625174895E+03  0.61228539944E+03  0.47000000000E+01 0.  1.
<mgrwt>
<rscale>  2 0.18619607E+03</rscale>
<asrwt>0</asrwt>
<pdfrwt beam="1">  1       21 0.18319793E+00 0.18633126E+03</pdfrwt>
<pdfrwt beam="2">  1       21 0.13632349E-01 0.18633126E+03</pdfrwt>
<totfact> 0.81201374E+03</totfact>
</mgrwt>
</event>
<event>
12    1  0.2762290E-001  0.2202575E+03  0.7546771E-02  0.1134311E+00
         21   -1    0    0  504  503  0.00000000000E+00  0.00000000000E+00  0.18258301405E+03  0.18258301405E+03  0.00000000000E+00 0.  1.
         21   -1    0    0  502  504 -0.00000000000E+00 -0.00000000000E+00 -0.46224532842E+03  0.46224532842E+03  0.00000000000E+00 0.  1.
          6    2    1    2  502    0 -0.10659444024E+03  0.76457703727E+02 -0.35157501948E+03  0.41312856752E+03  0.17280643457E+03 0.  0.
         24    2    3    3    0    0 -0.94380719930E+02 -0.47772607429E+01 -0.14790666185E+03  0.19346704537E+03  0.81379201930E+02 0.  0.
         -6    2    1    2    0  503  0.10659444024E+03 -0.76457703727E+02  0.71912705110E+02  0.23169977494E+03  0.17693273695E+03 0.  0.
        -24    2    5    5    0    0  0.98614814222E+02 -0.57807023572E+01  0.93168616056E+02  0.15731686895E+03  0.79434930194E+02 0.  0.
          2    1    4    4  501    0 -0.27348361534E+02  0.60529647854E+01  0.28199221929E+01  0.28151788974E+02  0.00000000000E+00 0. -1.
         -1    1    4    4    0  501 -0.67032358396E+02 -0.10830225528E+02 -0.15072658405E+03  0.16531525639E+03  0.00000000000E+00 0.  1.
          5    1    3    3  502    0 -0.12213720305E+02  0.81234964470E+02 -0.20366835763E+03  0.21966152216E+03  0.47000000000E+01 0. -1.
         13    1    6    6    0    0  0.81996881593E+02 -0.91779886026E+01  0.10721949334E+03  0.13529132943E+03  0.00000000000E+00 0. -1.
        -14    1    6    6    0    0  0.16617932629E+02  0.33972862454E+01 -0.14050877288E+02  0.22025539523E+02  0.00000000000E+00 0.  1.
         -5    1    5    5    0  503  0.79796260130E+01 -0.70677001370E+02 -0.21255910946E+02  0.74382905994E+02  0.47000000000E+01 0.  1.
<mgrwt>
<rscale>  2 0.21942760E+03</rscale>
<asrwt>0</asrwt>
<pdfrwt beam="1">  1       21 0.28089695E-01 0.22025746E+03</pdfrwt>
<pdfrwt beam="2">  1       21 0.71114665E-01 0.22025746E+03</pdfrwt>
<totfact> 0.21323018E+04</totfact>
</mgrwt>
</event>
<event>
12    1  0.2762290E-001  0.2029565E+03  0.7546771E-02  0.1147410E+00
         21   -1    0    0  504  503  0.00000000000E+00  0.00000000000E+00  0.53751195080E+03  0.53751195080E+03  0.00000000000E+00 0. -1.
         21   -1    0    0  502  504 -0.00000000000E+00 -0.00000000000E+00 -0.80434123440E+02  0.80434123440E+02  0.00000000000E+00 0.  1.
          6    2    1    2  502    0  0.27712909009E+02  0.10319108632E+03  0.15876778220E+03  0.25714109079E+03  0.17174960346E+03 0.  0.
         24    2    3    3    0    0  0.53380594515E+02  0.16307060693E+01  0.92043267974E+02  0.13285274977E+03  0.79534538843E+02 0.  0.
         -6    2    1    2    0  503 -0.27712909009E+02 -0.10319108632E+03  0.29831004517E+03  0.36080498345E+03  0.17255418689E+03 0.  0.
        -24    2    5    5    0    0  0.27306918429E+02 -0.10656861355E+03  0.15479838674E+03  0.20699901736E+03  0.82362099659E+02 0.  0.
          4    1    4    4  501    0 -0.13788239692E+02 -0.14192251569E+02  0.27125741358E+01  0.19972321268E+02  0.00000000000E+00 0. -1.
         -3    1    4    4    0  501  0.67168834207E+02  0.15822957638E+02  0.89330693838E+02  0.11288042850E+03  0.00000000000E+00 0.  1.
          5    1    3    3  502    0 -0.25667685506E+02  0.10156038025E+03  0.66724514221E+02  0.12428834102E+03  0.47000000000E+01 0. -1.
         13    1    6    6    0    0  0.86357359411E+00 -0.18490786976E+02  0.96176722916E+02  0.97941906216E+02  0.00000000000E+00 0. -1.
        -14    1    6    6    0    0  0.26443344835E+02 -0.88077826577E+02  0.58621663823E+02  0.10905711114E+03  0.00000000000E+00 0.  1.
         -5    1    5    5    0  503 -0.55019827438E+02  0.33775272304E+01  0.14351165843E+03  0.15380596609E+03  0.47000000000E+01 0.  1.
<mgrwt>
<rscale>  2 0.20278541E+03</rscale>
<asrwt>0</asrwt>
<pdfrwt beam="1">  1       21 0.82694144E-01 0.20295653E+03</pdfrwt>
<pdfrwt beam="2">  1       21 0.12374481E-01 0.20295653E+03</pdfrwt>
<totfact> 0.70524089E+04</totfact>
</mgrwt>
</event>
<event>
12    1  0.2762290E-001  0.2400166E+03  0.7546771E-02  0.1121916E+00
         21   -1    0    0  504  503  0.00000000000E+00  0.00000000000E+00  0.95109259715E+02  0.95109259715E+02  0.00000000000E+00 0.  1.
         21   -1    0    0  502  504 -0.00000000000E+00 -0.00000000000E+00 -0.71573490067E+03  0.71573490067E+03  0.00000000000E+00 0. -1.
          6    2    1    2  502    0 -0.88890030906E+02  0.11722342780E+03 -0.48360784256E+03  0.53447153209E+03  0.17361020593E+03 0.  0.
         24    2    3    3    0    0 -0.12626932151E+03  0.81530619891E+02 -0.30187902604E+03  0.34547777384E+03  0.75051730949E+02 0.  0.
         -6    2    1    2    0  503  0.88890030906E+02 -0.11722342780E+03 -0.13701779839E+03  0.27637262830E+03  0.18964488650E+03 0.  0.
        -24    2    5    5    0    0  0.13379992858E+03 -0.11375734959E+03 -0.12474239946E+03  0.22945047973E+03  0.79017092804E+02 0.  0.
          2    1    4    4  501    0 -0.69065986426E+02  0.35940067107E+01 -0.15379779483E+03  0.16863211159E+03  0.00000000000E+00 0. -1.
         -1    1    4    4    0  501 -0.57203335086E+02  0.77936613180E+02 -0.14808123122E+03  0.17684566225E+03  0.00000000000E+00 0.  1.
          5    1    3    3  502    0  0.37379290605E+02  0.35692807914E+02 -0.18172881652E+03  0.18899375825E+03  0.47000000000E+01 0. -1.
         13    1    6    6    0    0  0.12655318315E+03 -0.10349297662E+03 -0.78164455662E+02  0.18120757850E+03  0.00000000000E+00 0. -1.
        -14    1    6    6    0    0  0.72467454206E+01 -0.10264372975E+02 -0.46577943794E+02  0.48242901237E+02  0.00000000000E+00 0.  1.
         -5    1    5    5    0  503 -0.44909897669E+02 -0.34660782117E+01 -0.12275398938E+02  0.46922148564E+02  0.47000000000E+01 0.  1.
<mgrwt>
<rscale>  2 0.23683975E+03</rscale>
<asrwt>0</asrwt>
<pdfrwt beam="1">  1       21 0.14632193E-01 0.24001657E+03</pdfrwt>
<pdfrwt beam="2">  1       21 0.11011306E+00 0.24001657E+03</pdfrwt>
<totfact> 0.26042533E+04</totfact>
</mgrwt>
</event>
<event>
12    1  0.2762290E-001  0.2012684E+03  0.7546771E-02  0.1148695E+00
         21   -1    0    0  504  503  0.00000000000E+00  0.00000000000E+00  0.22981563141E+03  0.22981563141E+03  0.00000000000E+00 0. -1.
         21   -1    0    0  502  504 -0.00000000000E+00 -0.00000000000E+00 -0.34167342078E+03  0.34167342078E+03  0.00000000000E+00 0. -1.
          6    2    1    2  502    0  0.19325820908E+02  0.10121530479E+03 -0.25480504501E+03  0.32470692337E+03  0.17288999347E+03 0.  0.
         24    2    3    3    0    0  0.79601573929E+02  0.56012634661E+02 -0.17023066595E+03  0.21134306942E+03  0.78826312523E+02 0.  0.
         -6    2    1    2    0  503 -0.19325820908E+02 -0.10121530479E+03  0.14294725565E+03  0.24678212882E+03  0.17277000877E+03 0.  0.
        -24    2    5    5    0    0 -0.29417686852E+02 -0.40090843031E+01  0.12043064032E+03  0.14638301017E+03  0.77736564647E+02 0.  0.
          4    1    4    4  501    0  0.82875627402E+02  0.56499128952E+02 -0.17720534133E+03  0.20362282334E+03  0.00000000000E+00 0. -1.
         -3    1    4    4    0  501 -0.32740534733E+01 -0.48649429059E+00  0.69746753773E+01  0.77202460750E+01  0.00000000000E+00 0.  1.
          5    1    3    3  502    0 -0.60275753021E+02  0.45202670128E+02 -0.84574379061E+02  0.11336385395E+03  0.47000000000E+01 0. -1.
         13    1    6    6    0    0 -0.48877454054E+02 -0.24674603805E+02  0.82225401931E+02  0.98786933906E+02  0.00000000000E+00 0. -1.
        -14    1    6    6    0    0  0.19459767202E+02  0.20665519501E+02  0.38205238384E+02  0.47596076265E+02  0.00000000000E+00 0.  1.
         -5    1    5    5    0  503  0.10091865944E+02 -0.97206220486E+02  0.22516615335E+02  0.10039911865E+03  0.47000000000E+01 0.  1.
<mgrwt>
<rscale>  2 0.20124265E+03</rscale>
<asrwt>0</asrwt>
<pdfrwt beam="1">  1       21 0.35356251E-01 0.20126842E+03</pdfrwt>
<pdfrwt beam="2">  1       21 0.52565141E-01 0.20126842E+03</pdfrwt>
<totfact> 0.26337680E+04</totfact>
</mgrwt>
</event>
<event>
12    1  0.2762290E-001  0.2192247E+03  0.7546771E-02  0.1134771E+00
         21   -1    0    0  504  503  0.00000000000E+00  0.00000000000E+00  0.59426245468E+03  0.59426245468E+03  0.00000000000E+00 0. -1.
         21   -1    0    0  502  504 -0.00000000000E+00 -0.00000000000E+00 -0.11506173469E+03  0.11506173469E+03  0.00000000000E+00 0.  1.
          6    2    1    2  502    0  0.33609595094E+02 -0.13095104691E+03  0.45199569312E+02  0.22383579569E+03  0.17257369671E+03 0.  0.
         24    2    3    3    0    0 -0.19780950791E+02 -0.14329532518E+03  0.39299690236E+02  0.16852006403E+03  0.77004610872E+02 0.  0.
         -6    2    1    2    0  503 -0.33609595094E+02  0.13095104691E+03  0.43400115068E+03  0.48548839368E+03  0.17048225724E+03 0.  0.
        -24    2    5    5    0    0 -0.34098200693E+02  0.99422211374E+01  0.24843651163E+03  0.26390387274E+03  0.81627315817E+02 0.  0.
          2    1    4    4  501    0  0.78445487382E+01 -0.18374635823E+02  0.35248711853E+02  0.40517105941E+02  0.00000000000E+00 0. -1.
         -1    1    4    4    0  501 -0.27625499529E+02 -0.12492068936E+03  0.40509783822E+01  0.12800295809E+03  0.00000000000E+00 0.  1.
          5    1    3    3  502    0  0.53390545885E+02  0.12344278268E+02  0.58998790758E+01  0.55315731659E+02  0.47000000000E+01 0. -1.
         13    1    6    6    0    0 -0.17933139762E+01  0.14971551180E+02  0.22016704257E+03  0.22068278128E+03  0.00000000000E+00 0. -1.
        -14    1    6    6    0    0 -0.32304886717E+02 -0.50293300421E+01  0.28269469059E+02  0.43221091465E+02  0.00000000000E+00 0.  1.
         -5    1    5    5    0  503  0.48860559970E+00  0.12100882578E+03  0.18556463906E+03  0.22158452094E+03  0.47000000000E+01 0.  1.
<mgrwt>
<rscale>  2 0.21881289E+03</rscale>
<asrwt>0</asrwt>
<pdfrwt beam="1">  1       21 0.91424991E-01 0.21922468E+03</pdfrwt>
<pdfrwt beam="2">  1       21 0.17701806E-01 0.21922468E+03</pdfrwt>
<totfact> 0.28902852E+04</totfact>
</mgrwt>
</event>
<event>
12    1  0.2762290E-001  0.2032687E+03  0.7546771E-02  0.1147305E+00
         21   -1    0    0  504  503  0.00000000000E+00  0.00000000000E+00  0.78063568511E+03  0.78063568511E+03  0.00000000000E+00 0.  1.
         21   -1    0    0  502  504 -0.00000000000E+00 -0.00000000000E+00 -0.65425597612E+02  0.65425597612E+02  0.00000000000E+00 0. -1.
          6    2    1    2  502    0  0.90868711698E+02 -0.51655664350E+02  0.17101488955E+03  0.26563934258E+03  0.17433512971E+03 0.  0.
         24    2    3    3    0    0  0.10303663652E+03  0.15805592475E+02  0.13372111128E+03  0.18746009044E+03  0.79959894241E+02 0.  0.
         -6    2    1    2    0  503 -0.90868711698E+02  0.51655664350E+02  0.54419519794E+03  0.58042194014E+03  0.17267247815E+03 0.  0.
        -24    2    5    5    0    0 -0.31070088322E+02  0.34282688128E+02  0.73908167315E+02  0.10600685097E+03  0.60285837167E+02 0.  0.
          4    1    4    4  501    0  0.11099270739E+03 -0.28661777453E+01  0.11491215692E+03  0.15978860997E+03  0.00000000000E+00 0. -1.
         -3    1    4    4    0  501 -0.79560708768E+01  0.18671770221E+02  0.18808954361E+02  0.27671480465E+02  0.00000000000E+00 0.  1.
          5    1    3    3  502    0 -0.12167924819E+02 -0.67461256825E+02  0.37293778273E+02  0.78179252138E+02  0.47000000000E+01 0. -1.
         13    1    6    6    0    0 -0.68816087165E+01 -0.17446613773E+02  0.21051098328E+02  0.28193786753E+02  0.00000000000E+00 0. -1.
        -14    1    6    6    0    0 -0.24188479605E+02  0.51729301901E+02  0.52857068987E+02  0.77813064216E+02  0.00000000000E+00 0.  1.
         -5    1    5    5    0  503 -0.59798623376E+02  0.17372976223E+02  0.47028703062E+03  0.47441508917E+03  0.47000000000E+01 0.  1.
<mgrwt>
<rscale>  2 0.20291173E+03</rscale>
<asrwt>0</asrwt>
<pdfrwt beam="1">  1       21 0.12009779E+00 0.20326871E+03</pdfrwt>
<pdfrwt beam="2">  1       21 0.10065477E-01 0.20326871E+03</pdfrwt>
<totfact> 0.42029032E+04</totfact>
</mgrwt>
</event>
<event>
12    1  0.2762290E-001  0.2181668E+03  0.7546771E-02  0.1136240E+00
         21   -1    0    0  504  503  0.00000000000E+00  0.00000000000E+00  0.63314767005E+03  0.63314767005E+03  0.00000000000E+00 0.  1.
         21   -1    0    0  502  504 -0.00000000000E+00 -0.00000000000E+00 -0.75579612584E+02  0.75579612584E+02  0.00000000000E+00 0.  1.
          6    2    1    2  502    0 -0.11090725775E+03 -0.73501416631E+02  0.33557006728E+03  0.39747196693E+03  0.16635449008E+03 0.  0.
         24    2    3    3    0    0 -0.50001223091E+02 -0.99136565812E+02  0.27618303764E+03  0.30850222364E+03  0.81045485494E+02 0.  0.
         -6    2    1    2    0  503  0.11090725775E+03  0.73501416631E+02  0.22199799019E+03  0.31125531571E+03  0.17289848421E+03 0.  0.
        -24    2    5    5    0    0  0.93596630682E+02  0.98337381630E+02  0.10420915007E+03  0.18954753525E+03  0.81474850488E+02 0.  0.
          2    1    4    4  501    0  0.79091004464E+01 -0.17784430490E+02  0.58633501651E+01  0.20327781799E+02  0.00000000000E+00 0. -1.
         -1    1    4    4    0  501 -0.57910323537E+02 -0.81352135322E+02  0.27031968747E+03  0.28817444184E+03  0.00000000000E+00 0.  1.
          5    1    3    3  502    0 -0.60906034657E+02  0.25635149181E+02  0.59387029647E+02  0.88969743292E+02  0.47000000000E+01 0. -1.
         11    1    6    6    0    0  0.73341715001E+02  0.68832219342E+02  0.26533306419E+02  0.10402354507E+03  0.00000000000E+00 0. -1.
        -12    1    6    6    0    0  0.20254915681E+02  0.29505162289E+02  0.77675843649E+02  0.85523990187E+02  0.00000000000E+00 0.  1.
         -5    1    5    5    0  503  0.17310627066E+02 -0.24835964999E+02  0.11778884012E+03  0.12170778046E+03  0.47000000000E+01 0.  1.
<mgrwt>
<rscale>  2 0.21686808E+03</rscale>
<asrwt>0</asrwt>
<pdfrwt beam="1">  1       21 0.97407330E-01 0.21816683E+03</pdfrwt>
<pdfrwt beam="2">  1       21 0.11627633E-01 0.21816683E+03</pdfrwt>
<totfact> 0.53554139E+04</totfact>
</mgrwt>
</event>
<event>
12    1  0.2762290E-001  0.2008045E+03  0.7546771E-02  0.1152030E+00
         21   -1    0    0  504  503  0.00000000000E+00  0.00000000000E+00  0.77759274190E+02  0.77759274190E+02  0.00000000000E+00 0. -1.
         21   -1    0    0  502  504 -0.00000000000E+00 -0.00000000000E+00 -0.20491237819E+04  0.20491237819E+04  0.00000000000E+00 0. -1.
          6    2    1    2  502    0 -0.15295136413E+01  0.10109395302E+03 -0.19067835808E+04  0.19159490780E+04  0.15752751713E+03 0.  0.
         24    2    3    3    0    0  0.11045295683E+02  0.80567945499E+02 -0.71554110202E+03  0.72445414468E+03  0.78876781590E+02 0.  0.
         -6    2    1    2    0  503  0.15295136413E+01 -0.10109395302E+03 -0.64580926944E+02  0.21093397814E+03  0.17349386232E+03 0.  0.
        -24    2    5    5    0    0  0.51257369756E+01  0.10803735749E+02 -0.54347316091E+02  0.98413569481E+02  0.81170228570E+02 0.  0.
          2    1    4    4  501    0  0.35191565000E+01  0.42689973823E+00  0.77578135606E+00  0.36288486563E+01  0.00000000000E+00 0. -1.
         -1    1    4    4    0  501  0.75261391835E+01  0.80141045760E+02 -0.71631688337E+03  0.72082529603E+03  0.00000000000E+00 0.  1.
          5    1    3    3  502    0 -0.12574809325E+02  0.20526007523E+02 -0.11912424788E+04  0.11914949333E+04  0.47000000000E+01 0. -1.
         11    1    6    6    0    0  0.22876237309E+02 -0.29210038097E+02 -0.16741522225E+02  0.40704141380E+02  0.00000000000E+00 0. -1.
        -12    1    6    6    0    0 -0.17750500334E+02  0.40013773846E+02 -0.37605793865E+02  0.57709428101E+02  0.00000000000E+00 0.  1.
         -5    1    5    5    0  503 -0.35962233343E+01 -0.11189768877E+03 -0.10233610853E+02  0.11252040866E+03  0.47000000000E+01 0.  1.
<mgrwt>
<rscale>  2 0.19730874E+03</rscale>
<asrwt>0</asrwt>
<pdfrwt beam="1">  1       21 0.11962965E-01 0.20080450E+03</pdfrwt>
<pdfrwt beam="2">  1       21 0.31524983E+00 0.20080450E+03</pdfrwt>
<totfact> 0.16277999E+03</totfact>
</mgrwt>
</event>
<event>
12    1  0.2762290E-001  0.1756163E+03  0.7546771E-02  0.1172211E+00
         21   -1    0    0  504  503  0.00000000000E+00  0.00000000000E+00  0.39455874476E+02  0.39455874476E+02  0.00000000000E+00 0.  1.
         21   -1    0    0  502  504 -0.00000000000E+00 -0.00000000000E+00 -0.78762429554E+03  0.78762429554E+03  0.00000000000E+00 0.  1.
          6    2    1    2  502    0 -0.11773836710E+02  0.25604698838E+02 -0.33283584309E+03  0.37614531224E+03  0.17294904926E+03 0.  0.
         24    2    3    3    0    0 -0.15375242129E+02 -0.52166388416E+02 -0.19490006491E+03  0.21768496693E+03  0.80268171614E+02 0.  0.
         -6    2    1    2    0  503  0.11773836710E+02 -0.25604698838E+02 -0.41533257797E+03  0.45093485777E+03  0.17334033517E+03 0.  0.
        -24    2    5    5    0    0 -0.37872040764E+02 -0.18038573401E+02 -0.37611864649E+03  0.38704603381E+03  0.81115439063E+02 0.  0.
          2    1    4    4  501    0 -0.42256680186E+02 -0.29748850492E+02 -0.64393208370E+02  0.82565770208E+02  0.00000000000E+00 0. -1.
         -1    1    4    4    0  501  0.26881438057E+02 -0.22417537925E+02 -0.13050685654E+03  0.13511919672E+03  0.00000000000E+00 0.  1.
          5    1    3    3  502    0  0.36014054193E+01  0.77771087255E+02 -0.13793577818E+03  0.15846034531E+03  0.47000000000E+01 0. -1.
         13    1    6    6    0    0 -0.54859230350E+02 -0.22553388872E+02 -0.16756963943E+03  0.17775762871E+03  0.00000000000E+00 0. -1.
        -14    1    6    6    0    0  0.16987189586E+02  0.45148154714E+01 -0.20854900705E+03  0.20928840510E+03  0.00000000000E+00 0.  1.
         -5    1    5    5    0  503  0.49645877474E+02 -0.75661254378E+01 -0.39213931485E+02  0.63888823958E+02  0.47000000000E+01 0.  1.
<mgrwt>
<rscale>  2 0.17551970E+03</rscale>
<asrwt>0</asrwt>
<pdfrwt beam="1">  1       21 0.60701349E-02 0.17561633E+03</pdfrwt>
<pdfrwt beam="2">  1       21 0.12117296E+00 0.17561633E+03</pdfrwt>
<totfact> 0.10038797E+05</totfact>
</mgrwt>
</event>
<event>
12    1  0.2762290E-001  0.2610622E+03  0.7546771E-02  0.1106589E+00
         21   -1    0    0  504  503  0.00000000000E+00  0.00000000000E+00  0.10528222459E+03  0.10528222459E+03  0.00000000000E+00 0. -1.
         21   -1    0    0  502  504 -0.00000000000E+00 -0.00000000000E+00 -0.66011530794E+03  0.66011530794E+03  0.00000000000E+00 0.  1.
          6    2    1    2  502    0 -0.17127486601E+03  0.94622035132E+02 -0.33313967384E+03  0.42290455490E+03  0.17198200782E+03 0.  0.
         24    2    3    3    0    0 -0.17349173804E+03  0.12529328840E+03 -0.30298133109E+03  0.37957724324E+03  0.80519595807E+02 0.  0.
         -6    2    1    2    0  503  0.17127486601E+03 -0.94622035132E+02 -0.22169340952E+03  0.34249297762E+03  0.17281511114E+03 0.  0.
        -24    2    5    5    0    0  0.86244706159E+02 -0.10303047209E+03 -0.76391023604E+02  0.17386408553E+03  0.79622259649E+02 0.  0.
          4    1    4    4  501    0 -0.14256138559E+03  0.82703309358E+02 -0.27329827683E+03  0.31914813827E+03  0.00000000000E+00 0. -1.
         -3    1    4    4    0  501 -0.30930352452E+02  0.42589979043E+02 -0.29683054259E+02  0.60429104973E+02  0.00000000000E+00 0.  1.
          5    1    3    3  502    0  0.22168720335E+01 -0.30671253269E+02 -0.30158342744E+02  0.43327311661E+02  0.47000000000E+01 0. -1.
         13    1    6    6    0    0  0.94412381013E+02 -0.64324037425E+02 -0.42897766716E+02  0.12203072510E+03  0.00000000000E+00 0. -1.
        -14    1    6    6    0    0 -0.81676748532E+01 -0.38706434661E+02 -0.33493256888E+02  0.51833360432E+02  0.00000000000E+00 0.  1.
         -5    1    5    5    0  503  0.85030159851E+02  0.84084369540E+01 -0.14530238591E+03  0.16862889209E+03  0.47000000000E+01 0.  1.
<mgrwt>
<rscale>  2 0.26092441E+03</rscale>
<asrwt>0</asrwt>
<pdfrwt beam="1">  1       21 0.16197265E-01 0.26106220E+03</pdfrwt>
<pdfrwt beam="2">  1       21 0.10155620E+00 0.26106220E+03</pdfrwt>
<totfact> 0.26028299E+04</totfact>
</mgrwt>
</event>
<event>
12    1  0.2762290E-001  0.1880693E+03  0.7546771E-02  0.1160716E+00
         21   -1    0    0  504  503  0.00000000000E+00  0.00000000000E+00  0.62015168103E+03  0.62015168103E+03  0.00000000000E+00 0. -1.
         21   -1    0    0  502  504 -0.00000000000E+00 -0.00000000000E+00 -0.69521879681E+02  0.69521879681E+02  0.00000000000E+00 0. -1.
          6    2    1    2  502    0  0.20663578832E+01  0.66554820481E+02  0.12666339844E+03  0.22674585575E+03  0.17588704510E+03 0.  0.
         24    2    3    3    0    0  0.69840431153E+02  0.51052216332E+02  0.85996635749E+02  0.14606418912E+03  0.80344952345E+02 0.  0.
         -6    2    1    2    0  503 -0.20663578832E+01 -0.66554820481E+02  0.42396640292E+03  0.46292770496E+03  0.17355326346E+03 0.  0.
        -24    2    5    5    0    0  0.54331597404E+02 -0.49522227489E+02  0.17064065232E+03  0.20279915116E+03  0.81270474331E+02 0.  0.
          4    1    4    4  501    0  0.45452347205E+01 -0.97044600902E+01  0.47890749432E+02  0.49075040351E+02  0.00000000000E+00 0. -1.
         -3    1    4    4    0  501  0.65295196432E+02  0.60756676422E+02  0.38105886317E+02  0.96989148769E+02  0.00000000000E+00 0.  1.
          5    1    3    3  502    0 -0.67774073270E+02  0.15502604149E+02  0.40666762689E+02  0.80681666632E+02  0.47000000000E+01 0. -1.
         13    1    6    6    0    0  0.28973013907E+02  0.20250321577E+02  0.55316489786E+02  0.65646211627E+02  0.00000000000E+00 0. -1.
        -14    1    6    6    0    0  0.25358583497E+02 -0.69772549066E+02  0.11532416253E+03  0.13715293954E+03  0.00000000000E+00 0.  1.
         -5    1    5    5    0  503 -0.56397955287E+02 -0.17032592992E+02  0.25332575060E+03  0.26012855380E+03  0.47000000000E+01 0.  1.
<mgrwt>
<rscale>  2 0.18752173E+03</rscale>
<asrwt>0</asrwt>
<pdfrwt beam="1">  1       21 0.95407947E-01 0.18806931E+03</pdfrwt>
<pdfrwt beam="2">  1       21 0.10695674E-01 0.18806931E+03</pdfrwt>
<totfact> 0.66202240E+04</totfact>
</mgrwt>
</event>
<event>
12    1  0.2762290E-001  0.2176023E+03  0.7546771E-02  0.1135734E+00
         21   -1    0    0  504  503  0.00000000000E+00  0.00000000000E+00  0.88563187446E+02  0.88563187446E+02  0.00000000000E+00 0. -1.
         21   -1    0    0  502  504 -0.00000000000E+00 -0.00000000000E+00 -0.81245027799E+03  0.81245027799E+03  0.00000000000E+00 0.  1.
          6    2    1    2  502    0 -0.95415330608E+02  0.97860308496E+02 -0.98051163638E+02  0.23842657326E+03  0.16897477578E+03 0.  0.
         24    2    3    3    0    0  0.13463233683E+02  0.61622337425E+02 -0.50306863613E+02  0.11405076977E+03  0.80611577500E+02 0.  0.
         -6    2    1    2    0  503  0.95415330608E+02 -0.97860308496E+02 -0.62583592691E+03  0.66258689218E+03  0.16932234638E+03 0.  0.
        -24    2    5    5    0    0  0.21619140806E+02  0.54807052343E+01 -0.19905335579E+03  0.21728845769E+03  0.84229507983E+02 0.  0.
          2    1    4    4  501    0 -0.11180579209E+02  0.36429004887E+02  0.14100999424E+02  0.40631464818E+02  0.00000000000E+00 0. -1.
         -1    1    4    4    0  501  0.24643812892E+02  0.25193332538E+02 -0.64407863038E+02  0.73419304950E+02  0.00000000000E+00 0.  1.
          5    1    3    3  502    0 -0.10887856429E+03  0.36237971071E+02 -0.47744300025E+02  0.12437580349E+03  0.47000000000E+01 0. -1.
         13    1    6    6    0    0 -0.51631411244E+01 -0.98940128013E+01 -0.18134860234E+03  0.18169167589E+03  0.00000000000E+00 0. -1.
        -14    1    6    6    0    0  0.26782281930E+02  0.15374718036E+02 -0.17704753449E+02  0.35596781803E+02  0.00000000000E+00 0.  1.
         -5    1    5    5    0  503  0.73796189802E+02 -0.10334101373E+03 -0.42678257112E+03  0.44529843449E+03  0.47000000000E+01 0.  1.
<mgrwt>
<rscale>  2 0.21753473E+03</rscale>
<asrwt>0</asrwt>
<pdfrwt beam="1">  1       21 0.13625106E-01 0.21760235E+03</pdfrwt>
<pdfrwt beam="2">  1       21 0.12499235E+00 0.21760235E+03</pdfrwt>
<totfact> 0.21941543E+04</totfact>
</mgrwt>
</event>
<event>
12    1  0.2762290E-001  0.2296391E+03  0.7546771E-02  0.1127158E+00
         21   -1    0    0  504  503  0.00000000000E+00  0.00000000000E+00  0.46834711286E+03  0.46834711286E+03  0.00000000000E+00 0.  1.
         21   -1    0    0  502  504 -0.00000000000E+00 -0.00000000000E+00 -0.13361016908E+03  0.13361016908E+03  0.00000000000E+00 0.  1.
          6    2    1    2  502    0  0.82985305078E+01  0.15063568485E+03  0.45492595980E+02  0.23263846369E+03  0.17114643829E+03 0.  0.
         24    2    3    3    0    0 -0.43342366091E+02  0.15033742909E+03  0.26638814723E+02  0.17746214426E+03  0.79393217045E+02 0.  0.
         -6    2    1    2    0  503 -0.82985305078E+01 -0.15063568485E+03  0.28924434780E+03  0.36931881825E+03  0.17313036018E+03 0.  0.
        -24    2    5    5    0    0  0.21648950342E+02 -0.61219292618E+02  0.24264275218E+03  0.26402902043E+03  0.81359324016E+02 0.  0.
          2    1    4    4  501    0 -0.49352853307E+02  0.38661606077E+02  0.89273026247E+00  0.62699448812E+02  0.00000000000E+00 0. -1.
         -1    1    4    4    0  501  0.60104872161E+01  0.11167582301E+03  0.25746084461E+02  0.11476269545E+03  0.00000000000E+00 0.  1.
          5    1    3    3  502    0  0.51640896599E+02  0.29825576286E+00  0.18853781257E+02  0.55176319429E+02  0.47000000000E+01 0. -1.
         13    1    6    6    0    0  0.51188296478E+02 -0.27747617422E+02  0.11692155461E+03  0.13061708120E+03  0.00000000000E+00 0. -1.
        -14    1    6    6    0    0 -0.29539346136E+02 -0.33471675197E+02  0.12572119757E+03  0.13341193923E+03  0.00000000000E+00 0.  1.
         -5    1    5    5    0  503 -0.29947480850E+02 -0.89416392232E+02  0.46601595622E+02  0.10528979781E+03  0.47000000000E+01 0.  1.
<mgrwt>
<rscale>  2 0.22926514E+03</rscale>
<asrwt>0</asrwt>
<pdfrwt beam="1">  1       21 0.72053401E-01 0.22963906E+03</pdfrwt>
<pdfrwt beam="2">  1       21 0.20555411E-01 0.22963906E+03</pdfrwt>
<totfact> 0.37414266E+04</totfact>
</mgrwt>
</event>
<event>
12    1  0.2762290E-001  0.2079890E+03  0.7546771E-02  0.1143413E+00
         21   -1    0    0  504  503  0.00000000000E+00  0.00000000000E+00  0.96264211635E+02  0.96264211635E+02  0.00000000000E+00 0.  1.
         21   -1    0    0  502  504 -0.00000000000E+00 -0.00000000000E+00 -0.44884222638E+03  0.44884222638E+03  0.00000000000E+00 0.  1.
          6    2    1    2  502    0  0.74062638114E+01 -0.11188331713E+03 -0.15823665900E+03  0.26133938870E+03  0.17517621540E+03 0.  0.
         24    2    3    3    0    0 -0.28274219534E+02 -0.13060393380E+03 -0.84199697992E+02  0.17691711690E+03  0.79707327758E+02 0.  0.
         -6    2    1    2    0  503 -0.74062638114E+01  0.11188331713E+03 -0.19434135574E+03  0.28376704931E+03  0.17373095961E+03 0.  0.
        -24    2    5    5    0    0 -0.50003244322E+02  0.23059794283E+02 -0.59836915868E+02  0.11698079297E+03  0.84095010954E+02 0.  0.
          4    1    4    4  501    0 -0.38469823972E+02 -0.20484453491E+02 -0.34903071415E+02  0.55836946420E+02  0.00000000000E+00 0. -1.
         -3    1    4    4    0  501  0.10195604439E+02 -0.11011948031E+03 -0.49296626577E+02  0.12108017048E+03  0.00000000000E+00 0.  1.
          5    1    3    3  502    0  0.35680483345E+02  0.18720616668E+02 -0.74036961011E+02  0.84422271801E+02  0.47000000000E+01 0. -1.
         11    1    6    6    0    0  0.15847160201E+02  0.13996058350E+02 -0.43749436605E+02  0.48590486096E+02  0.00000000000E+00 0. -1.
        -12    1    6    6    0    0 -0.65850404522E+02  0.90637359327E+01 -0.16087479263E+02  0.68390306870E+02  0.00000000000E+00 0.  1.
         -5    1    5    5    0  503  0.42596980510E+02  0.88823522846E+02 -0.13450443987E+03  0.16678625634E+03  0.47000000000E+01 0.  1.
<mgrwt>
<rscale>  2 0.20768441E+03</rscale>
<asrwt>0</asrwt>
<pdfrwt beam="1">  1       21 0.14809879E-01 0.20798903E+03</pdfrwt>
<pdfrwt beam="2">  1       21 0.69052648E-01 0.20798903E+03</pdfrwt>
<totfact> 0.76141714E+04</totfact>
</mgrwt>
</event>
<event>
12    1  0.2762290E-001  0.2432912E+03  0.7546771E-02  0.1117655E+00
         21   -1    0    0  504  503  0.00000000000E+00  0.00000000000E+00  0.79009585961E+02  0.79009585961E+02  0.00000000000E+00 0.  1.
         21   -1    0    0  502  504 -0.00000000000E+00 -0.00000000000E+00 -0.79770444912E+03  0.79770444912E+03  0.00000000000E+00 0. -1.
          6    2    1    2  502    0 -0.17075160079E+03  0.36521020684E+01 -0.46838388615E+03  0.52780118874E+03  0.17326622005E+03 0.  0.
         24    2    3    3    0    0 -0.79411872511E+02  0.56599669829E+02 -0.17082679493E+03  0.21203433895E+03  0.79164379025E+02 0.  0.
         -6    2    1    2    0  503  0.17075160079E+03 -0.36521020684E+01 -0.25031097701E+03  0.34891284634E+03  0.17295994366E+03 0.  0.
        -24    2    5    5    0    0  0.12496775625E+03 -0.28824164094E+02 -0.25628213174E+03  0.29611570801E+03  0.74539982184E+02 0.  0.
          2    1    4    4  501    0  0.11990961456E+02  0.97157812501E+01 -0.55430088147E+02  0.57538458737E+02  0.00000000000E+00 0. -1.
         -1    1    4    4    0  501 -0.91402833967E+02  0.46883888579E+02 -0.11539670678E+03  0.15449588021E+03  0.00000000000E+00 0.  1.
          5    1    3    3  502    0 -0.91339728275E+02 -0.52947567761E+02 -0.29755709122E+03  0.31576684979E+03  0.47000000000E+01 0. -1.
         13    1    6    6    0    0  0.65521692881E+02 -0.50274889543E+02 -0.17171470938E+03  0.19054290376E+03  0.00000000000E+00 0. -1.
        -14    1    6    6    0    0  0.59446063373E+02  0.21450725449E+02 -0.84567422361E+02  0.10557280425E+03  0.00000000000E+00 0.  1.
         -5    1    5    5    0  503  0.45783844531E+02  0.25172062026E+02  0.59711547302E+01  0.52797138327E+02  0.47000000000E+01 0.  1.
<mgrwt>
<rscale>  2 0.24323672E+03</rscale>
<asrwt>0</asrwt>
<pdfrwt beam="1">  1       21 0.12155322E-01 0.24329125E+03</pdfrwt>
<pdfrwt beam="2">  1       21 0.12272375E+00 0.24329125E+03</pdfrwt>
<totfact> 0.27846624E+04</totfact>
</mgrwt>
</event>
<event>
12    1  0.2762290E-001  0.1952870E+03  0.7546771E-02  0.1153852E+00
         21   -1    0    0  504  503  0.00000000000E+00  0.00000000000E+00  0.27618302348E+03  0.27618302348E+03  0.00000000000E+00 0. -1.
         21   -1    0    0  502  504 -0.00000000000E+00 -0.00000000000E+00 -0.18171680923E+03  0.18171680923E+03  0.00000000000E+00 0. -1.
          6    2    1    2  502    0  0.78328121337E+02 -0.43605173338E+02 -0.65233459274E+02  0.20589415066E+03  0.17349435533E+03 0.  0.
         24    2    3    3    0    0  0.38348403307E+02  0.12572795910E+02 -0.97227856835E+02  0.12973593667E+03  0.75825338023E+02 0.  0.
         -6    2    1    2    0  503 -0.78328121337E+02  0.43605173338E+02  0.15969967352E+03  0.25200568204E+03  0.17310740113E+03 0.  0.
        -24    2    5    5    0    0  0.23699682553E+02  0.36384989496E+01  0.85323024726E+02  0.11948782018E+03  0.80139921354E+02 0.  0.
          4    1    4    4  501    0  0.54993071424E+02  0.20862056749E+02 -0.93968045061E+02  0.11085782250E+03  0.00000000000E+00 0. -1.
         -3    1    4    4    0  501 -0.16644668117E+02 -0.82892608388E+01 -0.32598117741E+01  0.18878114174E+02  0.00000000000E+00 0.  1.
          5    1    3    3  502    0  0.39979718030E+02 -0.56177969248E+02  0.31994397560E+02  0.76158213988E+02  0.47000000000E+01 0. -1.
         11    1    6    6    0    0 -0.19207300750E+02 -0.23390286875E+02  0.18038799702E+02  0.35233850440E+02  0.00000000000E+00 0. -1.
        -12    1    6    6    0    0  0.42906983303E+02  0.27028785824E+02  0.67284225025E+02  0.84253969737E+02  0.00000000000E+00 0.  1.
         -5    1    5    5    0  503 -0.10202780389E+03  0.39966674389E+02  0.74376648793E+02  0.13251786187E+03  0.47000000000E+01 0.  1.
<mgrwt>
<rscale>  2 0.19520098E+03</rscale>
<asrwt>0</asrwt>
<pdfrwt beam="1">  1       21 0.42489696E-01 0.19528696E+03</pdfrwt>
<pdfrwt beam="2">  1       21 0.27956432E-01 0.19528696E+03</pdfrwt>
<totfact> 0.65046345E+04</totfact>
</mgrwt>
</event>
<event>
12    1  0.2762290E-001  0.2395420E+03  0.7546771E-02  0.1120743E+00
         21   -1    0    0  504  503  0.00000000000E+00  0.00000000000E+00  0.11595852006E+03  0.11595852006E+03  0.00000000000E+00 0.  1.
         21   -1    0    0  502  504 -0.00000000000E+00 -0.00000000000E+00 -0.54465720972E+03  0.54465720972E+03  0.00000000000E+00 0.  1.
          6    2    1    2  502    0 -0.62580217159E+02  0.14756183405E+03 -0.32031187424E+03  0.39769351106E+03  0.17282839326E+03 0.  0.
         24    2    3    3    0    0 -0.37998766926E+02  0.16925922336E+03 -0.30774690945E+03  0.36226763438E+03  0.80231463060E+02 0.  0.
         -6    2    1    2    0  503  0.62580217159E+02 -0.14756183405E+03 -0.10838681542E+03  0.26292221872E+03  0.17801576585E+03 0.  0.
        -24    2    5    5    0    0  0.60187517437E+01  0.16321620022E+01 -0.46164250960E+02  0.91598591170E+02  0.78868716943E+02 0.  0.
          2    1    4    4  501    0 -0.32797784325E+01  0.13901842695E+03 -0.18696985037E+03  0.23301202743E+03  0.00000000000E+00 0. -1.
         -1    1    4    4    0  501 -0.34718988494E+02  0.30240796413E+02 -0.12077705908E+03  0.12925560696E+03  0.00000000000E+00 0.  1.
          5    1    3    3  502    0 -0.24581450233E+02 -0.21697389311E+02 -0.12564964790E+02  0.35425876681E+02  0.47000000000E+01 0. -1.
         13    1    6    6    0    0  0.27592484561E+02  0.48328614703E+01  0.11245628637E+02  0.30185524969E+02  0.00000000000E+00 0. -1.
        -14    1    6    6    0    0 -0.21573732817E+02 -0.32006994682E+01 -0.57409879598E+02  0.61413066201E+02  0.00000000000E+00 0.  1.
         -5    1    5    5    0  503  0.56561465415E+02 -0.14919399605E+03 -0.62222564457E+02  0.17132362755E+03  0.47000000000E+01 0.  1.
<mgrwt>
<rscale>  2 0.23857889E+03</rscale>
<asrwt>0</asrwt>
<pdfrwt beam="1">  1       21 0.17839772E-01 0.23954205E+03</pdfrwt>
<pdfrwt beam="2">  1       21 0.83793416E-01 0.23954205E+03</pdfrwt>
<totfact> 0.34506419E+04</totfact>
</mgrwt>
</event>
<event>
12    1  0.2762290E-001  0.2006662E+03  0.7546771E-02  0.1150736E+00
         21   -1    0    0  504  503  0.00000000000E+00  0.00000000000E+00  0.16803223400E+03  0.16803223400E+03  0.00000000000E+00 0. -1.
         21   -1    0    0  502  504 -0.00000000000E+00 -0.00000000000E+00 -0.23435573029E+03  0.23435573029E+03  0.00000000000E+00 0. -1.
          6    2    1    2  502    0  0.30847828228E+02 -0.87624743276E+02 -0.56518619750E+02  0.20148235018E+03  0.16962045547E+03 0.  0.
         24    2    3    3    0    0  0.65928334960E+02 -0.16210718137E+02 -0.17501285285E+01  0.10477514998E+03  0.79783684869E+02 0.  0.
         -6    2    1    2    0  503 -0.30847828228E+02  0.87624743276E+02 -0.98048765463E+01  0.20090561411E+03  0.17786862015E+03 0.  0.
        -24    2    5    5    0    0 -0.59844812940E+02  0.98593991769E+02 -0.50725620475E+02  0.14935227456E+03  0.80192496497E+02 0.  0.
          4    1    4    4  501    0  0.77138053452E+02  0.28664132797E+01 -0.15489032266E+02  0.78729954503E+02  0.00000000000E+00 0. -1.
         -3    1    4    4    0  501 -0.11209718492E+02 -0.19077131417E+02  0.13738903737E+02  0.26045195481E+02  0.00000000000E+00 0.  1.
          5    1    3    3  502    0 -0.35080506732E+02 -0.71414025139E+02 -0.54768491222E+02  0.96707200196E+02  0.47000000000E+01 0. -1.
         11    1    6    6    0    0 -0.73933969119E+02  0.73124809417E+02 -0.58381970910E+02  0.11925570875E+03  0.00000000000E+00 0. -1.
        -12    1    6    6    0    0  0.14089156179E+02  0.25469182352E+02  0.76563504352E+01  0.30096565809E+02  0.00000000000E+00 0.  1.
         -5    1    5    5    0  503  0.28996984712E+02 -0.10969248493E+02  0.40920743929E+02  0.51553339548E+02  0.47000000000E+01 0.  1.
<mgrwt>
<rscale>  2 0.19882262E+03</rscale>
<asrwt>0</asrwt>
<pdfrwt beam="1">  1       21 0.25851113E-01 0.20066622E+03</pdfrwt>
<pdfrwt beam="2">  1       21 0.36054727E-01 0.20066622E+03</pdfrwt>
<totfact> 0.10505935E+05</totfact>
</mgrwt>
</event>
<event>
12    1  0.2762290E-001  0.2007115E+03  0.7546771E-02  0.1149222E+00
         21   -1    0    0  504  503  0.00000000000E+00  0.00000000000E+00  0.88088703988E+02  0.88088703988E+02  0.00000000000E+00 0. -1.
         21   -1    0    0  502  504 -0.00000000000E+00 -0.00000000000E+00 -0.68237614195E+03  0.68237614195E+03  0.00000000000E+00 0. -1.
          6    2    1    2  502    0  0.75759587048E+02 -0.72067780574E+02 -0.51861939792E+03  0.55596364475E+03  0.17086899766E+03 0.  0.
         24    2    3    3    0    0  0.94646998687E+02 -0.34184218087E+02 -0.22294255918E+03  0.25723503616E+03  0.79623262979E+02 0.  0.
         -6    2    1    2    0  503 -0.75759587048E+02  0.72067780574E+02 -0.75668040044E+02  0.21450120119E+03  0.17132376659E+03 0.  0.
        -24    2    5    5    0    0 -0.81141214114E+02  0.10462507449E+03 -0.26418333023E+02  0.15503219297E+03  0.76202032109E+02 0.  0.
          4    1    4    4  501    0  0.30673666434E+02 -0.39322531769E+02 -0.41843481477E+02  0.65100017353E+02  0.00000000000E+00 0. -1.
         -3    1    4    4    0  501  0.63973332253E+02  0.51383136816E+01 -0.18109907770E+03  0.19213501880E+03  0.00000000000E+00 0.  1.
          5    1    3    3  502    0 -0.18887411639E+02 -0.37883562487E+02 -0.29567683874E+03  0.29872860860E+03  0.47000000000E+01 0. -1.
         11    1    6    6    0    0 -0.73845726303E+02  0.69052197507E+02 -0.48917764118E+02  0.11231360078E+03  0.00000000000E+00 0. -1.
        -12    1    6    6    0    0 -0.72954878116E+01  0.35572876979E+02  0.22499431095E+02  0.42718592189E+02  0.00000000000E+00 0.  1.
         -5    1    5    5    0  503  0.53816270667E+01 -0.32557293912E+02 -0.49249707021E+02  0.59469008218E+02  0.47000000000E+01 0.  1.
<mgrwt>
<rscale>  2 0.20061444E+03</rscale>
<asrwt>0</asrwt>
<pdfrwt beam="1">  1       21 0.13552108E-01 0.20071152E+03</pdfrwt>
<pdfrwt beam="2">  1       21 0.10498095E+00 0.20071152E+03</pdfrwt>
<totfact> 0.34312931E+04</totfact>
</mgrwt>
</event>
<event>
12    1  0.2762290E-001  0.1953175E+03  0.7546771E-02  0.1153768E+00
         21   -1    0    0  504  503  0.00000000000E+00  0.00000000000E+00  0.12319326224E+03  0.12319326224E+03  0.00000000000E+00 0. -1.
         21   -1    0    0  502  504 -0.00000000000E+00 -0.00000000000E+00 -0.58759510949E+03  0.58759510949E+03  0.00000000000E+00 0. -1.
          6    2    1    2  502    0 -0.85222450504E+02 -0.31601901469E+02  0.12298793481E+02  0.19562585771E+03  0.17279082626E+03 0.  0.
         24    2    3    3    0    0 -0.28917958323E+02 -0.13782509898E+02  0.71311758699E+02  0.11200560526E+03  0.80210241173E+02 0.  0.
         -6    2    1    2    0  503  0.85222450504E+02  0.31601901469E+02 -0.47670064073E+03  0.51516251402E+03  0.17287963656E+03 0.  0.
        -24    2    5    5    0    0  0.65493155011E+02 -0.16805311732E+02 -0.14248918535E+03  0.17685512378E+03  0.80017466892E+02 0.  0.
          4    1    4    4  501    0 -0.36974389492E+02  0.13275045202E+02  0.73861553268E+02  0.83659197668E+02  0.00000000000E+00 0. -1.
         -3    1    4    4    0  501  0.80564311686E+01 -0.27057555101E+02 -0.25497945689E+01  0.28346407595E+02  0.00000000000E+00 0.  1.
          5    1    3    3  502    0 -0.56304492181E+02 -0.17819391571E+02 -0.59012965218E+02  0.83620252448E+02  0.47000000000E+01 0. -1.
         13    1    6    6    0    0  0.49402536641E+01 -0.30880967179E+02 -0.90706481272E+02  0.95946370358E+02  0.00000000000E+00 0. -1.
        -14    1    6    6    0    0  0.60552901347E+02  0.14075655447E+02 -0.51782704082E+02  0.80908753419E+02  0.00000000000E+00 0.  1.
         -5    1    5    5    0  503  0.19729295493E+02  0.48407213201E+02 -0.33421145538E+03  0.33830739025E+03  0.47000000000E+01 0.  1.
<mgrwt>
<rscale>  2 0.19529782E+03</rscale>
<asrwt>0</asrwt>
<pdfrwt beam="1">  1       21 0.18952809E-01 0.19531747E+03</pdfrwt>
<pdfrwt beam="2">  1       21 0.90399249E-01 0.19531747E+03</pdfrwt>
<totfact> 0.26493119E+04</totfact>
</mgrwt>
</event>
<event>
12    1  0.2762290E-001  0.2016567E+03  0.7546771E-02  0.1148976E+00
         21   -1    0    0  504  503  0.00000000000E+00  0.00000000000E+00  0.11420745395E+04  0.11420745395E+04  0.00000000000E+00 0.  1.
         21   -1    0    0  502  504 -0.00000000000E+00 -0.00000000000E+00 -0.36291858929E+02  0.36291858929E+02  0.00000000000E+00 0.  1.
          6    2    1    2  502    0 -0.78809022277E+02  0.60160461197E+02  0.44132011416E+03  0.48397752525E+03  0.17216462676E+03 0.  0.
         24    2    3    3    0    0 -0.72407257691E+02  0.32071512046E+02  0.12339991859E+03  0.16472008618E+03  0.75058470752E+02 0.  0.
         -6    2    1    2    0  503  0.78809022277E+02 -0.60160461197E+02  0.66446256643E+03  0.69438887319E+03  0.17559972080E+03 0.  0.
        -24    2    5    5    0    0  0.11093460923E+02  0.19867652560E+02  0.17816563225E+03  0.19689847687E+03  0.80673596579E+02 0.  0.
          2    1    4    4  501    0 -0.16467694173E+02 -0.17732571143E+02  0.51431287166E+01  0.24740266848E+02  0.00000000000E+00 0. -1.
         -1    1    4    4    0  501 -0.55939563518E+02  0.49804083189E+02  0.11825678987E+03  0.13997981933E+03  0.00000000000E+00 0.  1.
          5    1    3    3  502    0 -0.64017645859E+01  0.28088949151E+02  0.31792019557E+03  0.31925743907E+03  0.47000000000E+01 0. -1.
         11    1    6    6    0    0  0.18336935976E+02  0.45073960283E+02  0.15299685447E+03  0.16054887914E+03  0.00000000000E+00 0. -1.
        -12    1    6    6    0    0 -0.72434750524E+01 -0.25206307723E+02  0.25168777780E+02  0.36349597726E+02  0.00000000000E+00 0.  1.
         -5    1    5    5    0  503  0.67715561354E+02 -0.80028113757E+02  0.48629693418E+03  0.49749039633E+03  0.47000000000E+01 0.  1.
<mgrwt>
<rscale>  2 0.20090646E+03</rscale>
<asrwt>0</asrwt>
<pdfrwt beam="1">  1       21 0.17570375E+00 0.20165665E+03</pdfrwt>
<pdfrwt beam="2">  1       21 0.55833638E-02 0.20165665E+03</pdfrwt>
<totfact> 0.43175176E+04</totfact>
</mgrwt>
</event>
<event>
12    1  0.2762290E-001  0.1815156E+03  0.7546771E-02  0.1166604E+00
         21   -1    0    0  504  503  0.00000000000E+00  0.00000000000E+00  0.54415922383E+03  0.54415922383E+03  0.00000000000E+00 0.  1.
         21   -1    0    0  502  504 -0.00000000000E+00 -0.00000000000E+00 -0.91034753255E+02  0.91034753255E+02  0.00000000000E+00 0.  1.
          6    2    1    2  502    0  0.30762867168E+01  0.54718781663E+02  0.41242162973E+02  0.18508849695E+03  0.17191052059E+03 0.  0.
         24    2    3    3    0    0  0.84217406076E+01 -0.13535043712E+00 -0.37075126891E+02  0.89207124530E+02  0.80699454759E+02 0.  0.
         -6    2    1    2    0  503 -0.30762867168E+01 -0.54718781663E+02  0.41188230760E+03  0.45010548013E+03  0.17304421205E+03 0.  0.
        -24    2    5    5    0    0  0.32244626813E+01 -0.10436538116E+03  0.27596154019E+03  0.30518816130E+03  0.77990462175E+02 0.  0.
          4    1    4    4  501    0  0.31987978167E+02 -0.13610581555E+02 -0.48568492205E+02  0.59727523911E+02  0.00000000000E+00 0. -1.
         -3    1    4    4    0  501 -0.23566237560E+02  0.13475231118E+02  0.11493365315E+02  0.29479600619E+02  0.00000000000E+00 0.  1.
          5    1    3    3  502    0 -0.53454538909E+01  0.54854132100E+02  0.78317289864E+02  0.95881372421E+02  0.47000000000E+01 0. -1.
         13    1    6    6    0    0 -0.37040295745E+02 -0.51097377909E+02  0.14667471079E+03  0.15967591027E+03  0.00000000000E+00 0. -1.
        -14    1    6    6    0    0  0.40264758426E+02 -0.53268003247E+02  0.12928682940E+03  0.14551225102E+03  0.00000000000E+00 0.  1.
         -5    1    5    5    0  503 -0.63007493981E+01  0.49646599493E+02  0.13592076741E+03  0.14491731883E+03  0.47000000000E+01 0.  1.
<mgrwt>
<rscale>  2 0.18124487E+03</rscale>
<asrwt>0</asrwt>
<pdfrwt beam="1">  1       21 0.83716802E-01 0.18151559E+03</pdfrwt>
<pdfrwt beam="2">  1       21 0.14005347E-01 0.18151559E+03</pdfrwt>
<totfact> 0.55415414E+04</totfact>
</mgrwt>
</event>
<event>
12    1  0.2762290E-001  0.2755740E+03  0.7546771E-02  0.1098182E+00
         21   -1    0    0  504  503  0.00000000000E+00  0.00000000000E+00  0.11693520637E+03  0.11693520637E+03  0.00000000000E+00 0.  1.
         21   -1    0    0  502  504 -0.00000000000E+00 -0.00000000000E+00 -0.74204142472E+03  0.74204142472E+03  0.00000000000E+00 0.  1.
          6    2    1    2  502    0  0.77131865095E+02  0.19935065826E+03 -0.46480046300E+03  0.54016794965E+03  0.17335493608E+03 0.  0.
         24    2    3    3    0    0 -0.27137202761E+02  0.73001421595E+02 -0.19220456054E+03  0.22210068608E+03  0.79501486382E+02 0.  0.
         -6    2    1    2    0  503 -0.77131865095E+02 -0.19935065826E+03 -0.16030575535E+03  0.31880868144E+03  0.17392823405E+03 0.  0.
        -24    2    5    5    0    0 -0.10720611063E+02 -0.18948729742E+03 -0.13736934678E+03  0.24770376327E+03  0.80414237054E+02 0.  0.
          2    1    4    4  501    0 -0.25772303339E+02 -0.44462008560E+00 -0.13962727939E+02  0.29314963379E+02  0.00000000000E+00 0. -1.
         -1    1    4    4    0  501 -0.13648994212E+01  0.73446041680E+02 -0.17824183260E+03  0.19278572270E+03  0.00000000000E+00 0.  1.
          5    1    3    3  502    0  0.10426906786E+03  0.12634923667E+03 -0.27259590247E+03  0.31806726358E+03  0.47000000000E+01 0. -1.
         11    1    6    6    0    0 -0.34541537710E+02 -0.14746065063E+03 -0.12843107213E+03  0.19857568230E+03  0.00000000000E+00 0. -1.
        -12    1    6    6    0    0  0.23820926647E+02 -0.42026646790E+02 -0.89382746465E+01  0.49128080976E+02  0.00000000000E+00 0.  1.
         -5    1    5    5    0  503 -0.66411254032E+02 -0.98633608426E+01 -0.22936408573E+02  0.71104918167E+02  0.47000000000E+01 0.  1.
<mgrwt>
<rscale>  2 0.27548361E+03</rscale>
<asrwt>0</asrwt>
<pdfrwt beam="1">  1       21 0.17990032E-01 0.27557402E+03</pdfrwt>
<pdfrwt beam="2">  1       21 0.11416021E+00 0.27557402E+03</pdfrwt>
<totfact> 0.16002745E+04</totfact>
</mgrwt>
</event>
<event>
12    1  0.2762290E-001  0.1992283E+03  0.7546771E-02  0.1150417E+00
         21   -1    0    0  504  503  0.00000000000E+00  0.00000000000E+00  0.14287434608E+03  0.14287434608E+03  0.00000000000E+00 0. -1.
         21   -1    0    0  502  504 -0.00000000000E+00 -0.00000000000E+00 -0.27764675108E+03  0.27764675108E+03  0.00000000000E+00 0.  1.
          6    2    1    2  502    0 -0.10356268673E+03 -0.46261234788E+02 -0.67153264405E+02  0.21024143044E+03  0.16378817487E+03 0.  0.
         24    2    3    3    0    0 -0.66962357836E+02 -0.66095561693E+01 -0.10160072724E+03  0.14604986255E+03  0.80499757609E+02 0.  0.
         -6    2    1    2    0  503  0.10356268673E+03  0.46261234788E+02 -0.67619140593E+02  0.21027966672E+03  0.16364552586E+03 0.  0.
        -24    2    5    5    0    0  0.79520872740E+02  0.15322593259E+02 -0.10689450330E+03  0.15460334792E+03  0.76924698808E+02 0.  0.
          4    1    4    4  501    0  0.13018614189E+02 -0.14842264315E+02 -0.50001530691E+01  0.20366115391E+02  0.00000000000E+00 0. -1.
         -3    1    4    4    0  501 -0.79980972025E+02  0.82327081459E+01 -0.96600574176E+02  0.12568374716E+03  0.00000000000E+00 0.  1.
          5    1    3    3  502    0 -0.36600328894E+02 -0.39651678619E+02  0.34447462840E+02  0.64191567893E+02  0.47000000000E+01 0. -1.
         11    1    6    6    0    0  0.21668027737E+02  0.13832903943E+02  0.71780697436E+01  0.26690397951E+02  0.00000000000E+00 0. -1.
        -12    1    6    6    0    0  0.57852845003E+02  0.14896893153E+01 -0.11407257304E+03  0.12791294997E+03  0.00000000000E+00 0.  1.
         -5    1    5    5    0  503  0.24041813991E+02  0.30938641530E+02  0.39275362703E+02  0.55676318800E+02  0.47000000000E+01 0.  1.
<mgrwt>
<rscale>  2 0.19919894E+03</rscale>
<asrwt>0</asrwt>
<pdfrwt beam="1">  1       21 0.21980669E-01 0.19922826E+03</pdfrwt>
<pdfrwt beam="2">  1       21 0.42714884E-01 0.19922826E+03</pdfrwt>
<totfact> 0.10166447E+05</totfact>
</mgrwt>
</event>
<event>
12    1  0.2762290E-001  0.1747802E+03  0.7546771E-02  0.1174184E+00
         21   -1    0    0  504  503  0.00000000000E+00  0.00000000000E+00  0.21370837215E+04  0.21370837215E+04  0.00000000000E+00 0. -1.
         21   -1    0    0  502  504 -0.00000000000E+00 -0.00000000000E+00 -0.18280374463E+02  0.18280374463E+02  0.00000000000E+00 0. -1.
          6    2    1    2  502    0  0.55025181905E+01 -0.16200911409E+02  0.52076535799E+03  0.54779651528E+03  0.16909085376E+03 0.  0.
         24    2    3    3    0    0 -0.47923521010E+02  0.29451443443E+02  0.29766157675E+03  0.31383953980E+03  0.82029208709E+02 0.  0.
         -6    2    1    2    0  503 -0.55025181905E+01  0.16200911409E+02  0.15980379890E+04  0.16075675807E+04  0.17394069340E+03 0.  0.
        -24    2    5    5    0    0 -0.46965837109E+02 -0.32152736485E+02  0.64507960473E+03  0.65247122204E+03  0.79695739077E+02 0.  0.
          4    1    4    4  501    0 -0.46656074149E+02 -0.79718041365E+01  0.79782863100E+02  0.92766611238E+02  0.00000000000E+00 0. -1.
         -3    1    4    4    0  501 -0.12674468612E+01  0.37423247579E+02  0.21787871365E+03  0.22107292856E+03  0.00000000000E+00 0.  1.
          5    1    3    3  502    0  0.53426039200E+02 -0.45652354852E+02  0.22310378124E+03  0.23395697547E+03  0.47000000000E+01 0. -1.
         11    1    6    6    0    0 -0.48921714869E+02  0.18961016668E+01  0.53485187967E+03  0.53708794678E+03  0.00000000000E+00 0. -1.
        -12    1    6    6    0    0  0.19558777597E+01 -0.34048838152E+02  0.11022772506E+03  0.11538327526E+03  0.00000000000E+00 0.  1.
         -5    1    5    5    0  503  0.41463318919E+02  0.48353647895E+02  0.95295838427E+03  0.95509635861E+03  0.47000000000E+01 0.  1.
<mgrwt>
<rscale>  2 0.17356101E+03</rscale>
<asrwt>0</asrwt>
<pdfrwt beam="1">  1       21 0.32878191E+00 0.17478018E+03</pdfrwt>
<pdfrwt beam="2">  1       21 0.28123670E-02 0.17478018E+03</pdfrwt>
<totfact> 0.16724018E+04</totfact>
</mgrwt>
</event>
<event>
12    1  0.2762290E-001  0.2147455E+03  0.7546771E-02  0.1138053E+00
         21   -1    0    0  504  503  0.00000000000E+00  0.00000000000E+00  0.84003662291E+03  0.84003662291E+03  0.00000000000E+00 0. -1.
         21   -1    0    0  502  504 -0.00000000000E+00 -0.00000000000E+00 -0.64338839196E+02  0.64338839196E+02  0.00000000000E+00 0. -1.
          6    2    1    2  502    0 -0.16367860328E+02 -0.12527915404E+03  0.56261494675E+03  0.60185282490E+03  0.17241946310E+03 0.  0.
         24    2    3    3    0    0 -0.53459484246E+02 -0.13295580572E+03  0.51674989603E+03  0.54218363333E+03  0.79984213904E+02 0.  0.
         -6    2    1    2    0  503  0.16367860328E+02  0.12527915404E+03  0.21308283696E+03  0.30252263720E+03  0.17364583876E+03 0.  0.
        -24    2    5    5    0    0  0.62037094622E+02  0.13262368523E+03  0.17233587085E+03  0.24070009805E+03  0.82457515280E+02 0.  0.
          4    1    4    4  501    0 -0.70589386051E+02 -0.12290020975E+03  0.41560756591E+03  0.43910929371E+03  0.00000000000E+00 0. -1.
         -3    1    4    4    0  501  0.17129901805E+02 -0.10055595964E+02  0.10114233012E+03  0.10307433962E+03  0.00000000000E+00 0.  1.
          5    1    3    3  502    0  0.37091623918E+02  0.76766516796E+01  0.45865050715E+02  0.59669191573E+02  0.47000000000E+01 0. -1.
         11    1    6    6    0    0  0.72480524785E+02  0.83595618050E+02  0.83192904819E+02  0.13842945222E+03  0.00000000000E+00 0. -1.
        -12    1    6    6    0    0 -0.10443430162E+02  0.49028067177E+02  0.89142966036E+02  0.10227064583E+03  0.00000000000E+00 0.  1.
         -5    1    5    5    0  503 -0.45669234295E+02 -0.73445311892E+01  0.40746966109E+02  0.61822539147E+02  0.47000000000E+01 0.  1.
<mgrwt>
<rscale>  2 0.21449751E+03</rscale>
<asrwt>0</asrwt>
<pdfrwt beam="1">  1       21 0.12923640E+00 0.21474555E+03</pdfrwt>
<pdfrwt beam="2">  1       21 0.98982835E-02 0.21474555E+03</pdfrwt>
<totfact> 0.35796103E+04</totfact>
</mgrwt>
</event>
<event>
12    1  0.2762290E-001  0.1949350E+03  0.7546771E-02  0.1154252E+00
         21   -1    0    0  504  503  0.00000000000E+00  0.00000000000E+00  0.12226233821E+04  0.12226233821E+04  0.00000000000E+00 0. -1.
         21   -1    0    0  502  504 -0.00000000000E+00 -0.00000000000E+00 -0.35655704268E+02  0.35655704268E+02  0.00000000000E+00 0. -1.
          6    2    1    2  502    0  0.39274181779E+02  0.81496931156E+02  0.36411546139E+03  0.41265184197E+03  0.17180588557E+03 0.  0.
         24    2    3    3    0    0  0.71128983250E+02  0.10789963290E+03  0.28285519157E+03  0.32134383308E+03  0.80951446078E+02 0.  0.
         -6    2    1    2    0  503 -0.39274181779E+02 -0.81496931156E+02  0.82285221648E+03  0.84562724444E+03  0.17267152406E+03 0.  0.
        -24    2    5    5    0    0  0.30100986700E+02 -0.90401706351E+02  0.54264485401E+03  0.55678392184E+03  0.80413681227E+02 0.  0.
          4    1    4    4  501    0  0.57910888065E+02  0.95886086719E+02  0.14956545363E+03  0.18686261666E+03  0.00000000000E+00 0. -1.
         -3    1    4    4    0  501  0.13218095185E+02  0.12013546185E+02  0.13328973793E+03  0.13448121642E+03  0.00000000000E+00 0.  1.
          5    1    3    3  502    0 -0.31854801471E+02 -0.26402701748E+02  0.81260269827E+02  0.91308008897E+02  0.47000000000E+01 0. -1.
         11    1    6    6    0    0 -0.17466018134E+02 -0.61456405041E+02  0.36714647320E+03  0.37266403675E+03  0.00000000000E+00 0. -1.
        -12    1    6    6    0    0  0.47567004834E+02 -0.28945301310E+02  0.17549838081E+03  0.18411988509E+03  0.00000000000E+00 0.  1.
         -5    1    5    5    0  503 -0.69375168479E+02  0.89047751953E+01  0.28020736248E+03  0.28884332260E+03  0.47000000000E+01 0.  1.
<mgrwt>
<rscale>  2 0.19474316E+03</rscale>
<asrwt>0</asrwt>
<pdfrwt beam="1">  1       21 0.18809587E+00 0.19493503E+03</pdfrwt>
<pdfrwt beam="2">  1       21 0.54854939E-02 0.19493503E+03</pdfrwt>
<totfact> 0.36838899E+04</totfact>
</mgrwt>
</event>
<event>
12    1  0.2762290E-001  0.2349889E+03  0.7546771E-02  0.1123240E+00
         21   -1    0    0  504  503  0.00000000000E+00  0.00000000000E+00  0.57437298192E+03  0.57437298192E+03  0.00000000000E+00 0. -1.
         21   -1    0    0  502  504 -0.00000000000E+00 -0.00000000000E+00 -0.23570304711E+03  0.23570304711E+03  0.00000000000E+00 0. -1.
          6    2    1    2  502    0 -0.13820005857E+02 -0.15818695384E+03 -0.14245316449E+03  0.27479573474E+03  0.17322149644E+03 0.  0.
         24    2    3    3    0    0 -0.21446970947E+02 -0.15527288092E+02 -0.56274527131E+02  0.10788618329E+03  0.88156320829E+02 0.  0.
         -6    2    1    2    0  503  0.13820005857E+02  0.15818695384E+03  0.48112309930E+03  0.53528029429E+03  0.17271783880E+03 0.  0.
        -24    2    5    5    0    0 -0.23883430704E+02  0.18046331788E+02  0.22763013063E+03  0.24314724541E+03  0.80056344078E+02 0.  0.
          2    1    4    4  501    0 -0.19103554557E+02  0.34008871093E+02 -0.39552228746E+02  0.55551128778E+02  0.00000000000E+00 0. -1.
         -1    1    4    4    0  501 -0.23434163896E+01 -0.49536159185E+02 -0.16722298385E+02  0.52335054509E+02  0.00000000000E+00 0.  1.
          5    1    3    3  502    0  0.76269650896E+01 -0.14265966575E+03 -0.86178637364E+02  0.16690955145E+03  0.47000000000E+01 0. -1.
         11    1    6    6    0    0 -0.44541356916E+01 -0.27973501947E+02  0.40217233641E+02  0.49191279894E+02  0.00000000000E+00 0. -1.
        -12    1    6    6    0    0 -0.19429295013E+02  0.46019833735E+02  0.18741289699E+03  0.19395596552E+03  0.00000000000E+00 0.  1.
         -5    1    5    5    0  503  0.37703436562E+02  0.14014062205E+03  0.25349296867E+03  0.29213304888E+03  0.47000000000E+01 0.  1.
<mgrwt>
<rscale>  2 0.23489611E+03</rscale>
<asrwt>0</asrwt>
<pdfrwt beam="1">  1       21 0.88365074E-01 0.23498892E+03</pdfrwt>
<pdfrwt beam="2">  1       21 0.36262007E-01 0.23498892E+03</pdfrwt>
<totfact> 0.78094511E+03</totfact>
</mgrwt>
</event>
<event>
12    1  0.2762290E-001  0.2949240E+03  0.7546771E-02  0.1088155E+00
         21   -1    0    0  504  503  0.00000000000E+00  0.00000000000E+00  0.10730427263E+04  0.10730427263E+04  0.00000000000E+00 0.  1.
         21   -1    0    0  502  504 -0.00000000000E+00 -0.00000000000E+00 -0.92831388650E+02  0.92831388650E+02  0.00000000000E+00 0. -1.
          6    2    1    2  502    0  0.15322987399E+03 -0.18340641592E+03  0.70220090584E+03  0.76057179487E+03  0.16812505855E+03 0.  0.
         24    2    3    3    0    0  0.23020980413E+02 -0.42366621527E+02  0.30242883074E+03  0.31707841093E+03  0.82162186308E+02 0.  0.
         -6    2    1    2    0  503 -0.15322987399E+03  0.18340641592E+03  0.27801043182E+03  0.40530232008E+03  0.17280874625E+03 0.  0.
        -24    2    5    5    0    0 -0.95676816052E+02  0.17471643424E+03  0.27205591287E+03  0.34660464930E+03  0.80252586661E+02 0.  0.
          2    1    4    4  501    0 -0.21709625954E+02 -0.42208089520E+02  0.11550189117E+03  0.12487400667E+03  0.00000000000E+00 0. -1.
         -1    1    4    4    0  501  0.44730606367E+02 -0.15853200653E+00  0.18692693957E+03  0.19220440426E+03  0.00000000000E+00 0.  1.
          5    1    3    3  502    0  0.13020889357E+03 -0.14103979440E+03  0.39977207510E+03  0.44349338394E+03  0.47000000000E+01 0. -1.
         13    1    6    6    0    0 -0.41918828049E+02  0.12042693768E+03  0.11396567054E+03  0.17102049446E+03  0.00000000000E+00 0. -1.
        -14    1    6    6    0    0 -0.53757988004E+02  0.54289496561E+02  0.15809024233E+03  0.17558415484E+03  0.00000000000E+00 0.  1.
         -5    1    5    5    0  503 -0.57553057934E+02  0.86899816869E+01  0.59545189437E+01  0.58697670781E+02  0.47000000000E+01 0.  1.
<mgrwt>
<rscale>  2 0.29424171E+03</rscale>
<asrwt>0</asrwt>
<pdfrwt beam="1">  1       21 0.16508349E+00 0.29492401E+03</pdfrwt>
<pdfrwt beam="2">  1       21 0.14281753E-01 0.29492401E+03</pdfrwt>
<totfact> 0.92808422E+03</totfact>
</mgrwt>
</event>
<event>
12    1  0.2762290E-001  0.1951426E+03  0.7546771E-02  0.1154378E+00
         21   -1    0    0  504  503  0.00000000000E+00  0.00000000000E+00  0.64698055161E+03  0.64698055161E+03  0.00000000000E+00 0. -1.
         21   -1    0    0  502  504 -0.00000000000E+00 -0.00000000000E+00 -0.66955413907E+02  0.66955413907E+02  0.00000000000E+00 0. -1.
          6    2    1    2  502    0 -0.30889658071E+02  0.85709070702E+02  0.16238805353E+03  0.25387103310E+03  0.17257000244E+03 0.  0.
         24    2    3    3    0    0  0.37491737020E+02  0.12790493650E+02  0.10479537062E+03  0.13840614147E+03  0.81270924819E+02 0.  0.
         -6    2    1    2    0  503  0.30889658071E+02 -0.85709070702E+02  0.41763708417E+03  0.46006493241E+03  0.17011405641E+03 0.  0.
        -24    2    5    5    0    0  0.24129731727E+02 -0.11292488307E+03  0.22453959996E+03  0.26488520638E+03  0.80074137157E+02 0.  0.
          4    1    4    4  501    0 -0.72016299028E+01  0.37372804817E+02  0.56767380132E+02  0.68345632341E+02  0.00000000000E+00 0. -1.
         -3    1    4    4    0  501  0.44693366923E+02 -0.24582311166E+02  0.48027990486E+02  0.70060509129E+02  0.00000000000E+00 0.  1.
          5    1    3    3  502    0 -0.68381395092E+02  0.72918577052E+02  0.57592682915E+02  0.11546489163E+03  0.47000000000E+01 0. -1.
         13    1    6    6    0    0 -0.20958039073E+02 -0.69483413364E+02  0.15598595906E+03  0.17204302822E+03  0.00000000000E+00 0. -1.
        -14    1    6    6    0    0  0.45087770801E+02 -0.43441469703E+02  0.68553640898E+02  0.92842178163E+02  0.00000000000E+00 0.  1.
         -5    1    5    5    0  503  0.67599263441E+01  0.27215812365E+02  0.19309748421E+03  0.19517972603E+03  0.47000000000E+01 0.  1.
<mgrwt>
<rscale>  2 0.19459818E+03</rscale>
<asrwt>0</asrwt>
<pdfrwt beam="1">  1       21 0.99535465E-01 0.19514257E+03</pdfrwt>
<pdfrwt beam="2">  1       21 0.10300833E-01 0.19514257E+03</pdfrwt>
<totfact> 0.63841753E+04</totfact>
</mgrwt>
</event>
<event>
12    1  0.2762290E-001  0.2002877E+03  0.7546771E-02  0.1150078E+00
         21   -1    0    0  504  503  0.00000000000E+00  0.00000000000E+00  0.88753636076E+03  0.88753636076E+03  0.00000000000E+00 0. -1.
         21   -1    0    0  502  504 -0.00000000000E+00 -0.00000000000E+00 -0.48840835912E+02  0.48840835912E+02  0.00000000000E+00 0.  1.
          6    2    1    2  502    0 -0.34460823001E+02  0.96288063668E+02  0.27845121378E+03  0.34140756352E+03  0.16901214883E+03 0.  0.
         24    2    3    3    0    0 -0.62242455743E+01  0.12902505575E+03  0.19739706569E+03  0.24942452228E+03  0.80998669908E+02 0.  0.
         -6    2    1    2    0  503  0.34460823001E+02 -0.96288063668E+02  0.56024431107E+03  0.59496963315E+03  0.17220986253E+03 0.  0.
        -24    2    5    5    0    0  0.58922695626E+02 -0.10469062519E+03  0.54643138685E+03  0.56527328442E+03  0.80713161732E+02 0.  0.
          4    1    4    4  501    0 -0.29249043445E+02  0.10101624278E+03  0.18164635082E+03  0.20989326958E+03  0.00000000000E+00 0. -1.
         -3    1    4    4    0  501  0.23024797871E+02  0.28008812970E+02  0.15750714864E+02  0.39531252696E+02  0.00000000000E+00 0.  1.
          5    1    3    3  502    0 -0.28236577426E+02 -0.32736992078E+02  0.81054148088E+02  0.91983041248E+02  0.47000000000E+01 0. -1.
         13    1    6    6    0    0 -0.12494338608E+02 -0.46741812344E+02  0.25920045613E+03  0.26367742030E+03  0.00000000000E+00 0. -1.
        -14    1    6    6    0    0  0.71417034234E+02 -0.57948812843E+02  0.28723093073E+03  0.30159586412E+03  0.00000000000E+00 0.  1.
         -5    1    5    5    0  503 -0.24461872625E+02  0.84025615199E+01  0.13812924218E+02  0.29696348729E+02  0.47000000000E+01 0.  1.
<mgrwt>
<rscale>  2 0.19959851E+03</rscale>
<asrwt>0</asrwt>
<pdfrwt beam="1">  1       21 0.13654404E+00 0.20028773E+03</pdfrwt>
<pdfrwt beam="2">  1       21 0.75139754E-02 0.20028773E+03</pdfrwt>
<totfact> 0.50850033E+04</totfact>
</mgrwt>
</event>
<event>
12    1  0.2762290E-001  0.2108385E+03  0.7546771E-02  0.1141112E+00
         21   -1    0    0  504  503  0.00000000000E+00  0.00000000000E+00  0.42995881213E+02  0.42995881213E+02  0.00000000000E+00 0. -1.
         21   -1    0    0  502  504 -0.00000000000E+00 -0.00000000000E+00 -0.10296440416E+04  0.10296440416E+04  0.00000000000E+00 0. -1.
          6    2    1    2  502    0  0.95038537216E+02 -0.71012488801E+02 -0.51061495330E+03  0.55243142824E+03  0.17429215489E+03 0.  0.
         24    2    3    3    0    0  0.63126223345E+02  0.11055954987E+02 -0.38914517550E+03  0.40232938908E+03  0.79547567446E+02 0.  0.
         -6    2    1    2    0  503 -0.95038537216E+02  0.71012488801E+02 -0.47603320704E+03  0.52020849453E+03  0.17301493128E+03 0.  0.
        -24    2    5    5    0    0 -0.81667736414E+02  0.14434587946E+01 -0.40177700900E+03  0.41747241908E+03  0.78655915142E+02 0.  0.
          4    1    4    4  501    0  0.48997529753E+02  0.38849343715E+02 -0.17313786598E+03  0.18408354099E+03  0.00000000000E+00 0. -1.
         -3    1    4    4    0  501  0.14128693592E+02 -0.27793388728E+02 -0.21600730953E+03  0.21824584809E+03  0.00000000000E+00 0.  1.
          5    1    3    3  502    0  0.31912313871E+02 -0.82068443788E+02 -0.12146977779E+03  0.15010203916E+03  0.47000000000E+01 0. -1.
         11    1    6    6    0    0 -0.97393582109E+02  0.35179391227E+01 -0.34003936588E+03  0.35372963698E+03  0.00000000000E+00 0. -1.
        -12    1    6    6    0    0  0.15725845695E+02 -0.20744803281E+01 -0.61737643121E+02  0.63742782098E+02  0.00000000000E+00 0.  1.
         -5    1    5    5    0  503 -0.13370800802E+02  0.69569030006E+02 -0.74256198041E+02  0.10273607544E+03  0.47000000000E+01 0.  1.
<mgrwt>
<rscale>  2 0.21057430E+03</rscale>
<asrwt>0</asrwt>
<pdfrwt beam="1">  1       21 0.66147515E-02 0.21083845E+03</pdfrwt>
<pdfrwt beam="2">  1       21 0.15840676E+00 0.21083845E+03</pdfrwt>
<totfact> 0.42662095E+04</totfact>
</mgrwt>
</event>
<event>
12    1  0.2762290E-001  0.2646862E+03  0.7546771E-02  0.1105061E+00
         21   -1    0    0  504  503  0.00000000000E+00  0.00000000000E+00  0.17637375935E+03  0.17637375935E+03  0.00000000000E+00 0.  1.
         21   -1    0    0  502  504 -0.00000000000E+00 -0.00000000000E+00 -0.44560650642E+03  0.44560650642E+03  0.00000000000E+00 0.  1.
          6    2    1    2  502    0  0.40387552564E+02  0.19185473179E+03 -0.23848552213E+02  0.26104785692E+03  0.17069808917E+03 0.  0.
         24    2    3    3    0    0  0.33161309825E+02  0.88240340526E+02  0.51344933884E+02  0.13273452553E+03  0.78077665606E+02 0.  0.
         -6    2    1    2    0  503 -0.40387552564E+02 -0.19185473179E+03 -0.24538419485E+03  0.36093240885E+03  0.17781846968E+03 0.  0.
        -24    2    5    5    0    0 -0.66461615460E+02 -0.18795333603E+03 -0.25394259010E+03  0.33281811045E+03  0.80854515812E+02 0.  0.
          2    1    4    4  501    0  0.58566408122E+01 -0.14413064906E+02  0.22660610525E+01  0.15721695656E+02  0.00000000000E+00 0. -1.
         -1    1    4    4    0  501  0.27304669013E+02  0.10265340543E+03  0.49078872832E+02  0.11701282987E+03  0.00000000000E+00 0.  1.
          5    1    3    3  502    0  0.72262427384E+01  0.10361439126E+03 -0.75193486098E+02  0.12831333139E+03  0.47000000000E+01 0. -1.
         11    1    6    6    0    0 -0.49195208930E+02 -0.48777094187E+02 -0.50538734623E+02  0.85752767863E+02  0.00000000000E+00 0. -1.
        -12    1    6    6    0    0 -0.17266406531E+02 -0.13917624184E+03 -0.20340385548E+03  0.24706534259E+03  0.00000000000E+00 0.  1.
         -5    1    5    5    0  503  0.26074062897E+02 -0.39013957630E+01  0.85583952459E+01  0.28114298391E+02  0.47000000000E+01 0.  1.
<mgrwt>
<rscale>  2 0.26349572E+03</rscale>
<asrwt>0</asrwt>
<pdfrwt beam="1">  1       21 0.27134425E-01 0.26468623E+03</pdfrwt>
<pdfrwt beam="2">  1       21 0.68554846E-01 0.26468623E+03</pdfrwt>
<totfact> 0.24203685E+04</totfact>
</mgrwt>
</event>
<event>
12    1  0.2762290E-001  0.2765179E+03  0.7546771E-02  0.1097642E+00
         21   -1    0    0  504  503  0.00000000000E+00  0.00000000000E+00  0.80634117348E+03  0.80634117348E+03  0.00000000000E+00 0. -1.
         21   -1    0    0  502  504 -0.00000000000E+00 -0.00000000000E+00 -0.13253878729E+03  0.13253878729E+03  0.00000000000E+00 0.  1.
          6    2    1    2  502    0  0.13947191337E+03 -0.16339915586E+03  0.86088780547E+02  0.28936519621E+03  0.17369294714E+03 0.  0.
         24    2    3    3    0    0  0.10434242762E+03 -0.30677880348E+02  0.22002700626E+02  0.13777979657E+03  0.81674224604E+02 0.  0.
         -6    2    1    2    0  503 -0.13947191337E+03  0.16339915586E+03  0.58771360565E+03  0.64951476457E+03  0.17409896143E+03 0.  0.
        -24    2    5    5    0    0 -0.13674681776E+03  0.11608484792E+03  0.56328548794E+03  0.59599007104E+03  0.75751170058E+02 0.  0.
          4    1    4    4  501    0  0.42590403514E+02 -0.69044547936E+01  0.49902147815E+02  0.65968464618E+02  0.00000000000E+00 0. -1.
         -3    1    4    4    0  501  0.61752024102E+02 -0.23773425555E+02 -0.27899447189E+02  0.71811331953E+02  0.00000000000E+00 0.  1.
          5    1    3    3  502    0  0.35129485751E+02 -0.13272127552E+03  0.64086079921E+02  0.15158539964E+03  0.47000000000E+01 0. -1.
         13    1    6    6    0    0 -0.85890011455E+02  0.73863230125E+02  0.45697030937E+03  0.47080222438E+03  0.00000000000E+00 0. -1.
        -14    1    6    6    0    0 -0.50856806306E+02  0.42221617791E+02  0.10631517857E+03  0.12518784666E+03  0.00000000000E+00 0.  1.
         -5    1    5    5    0  503 -0.27250956070E+01  0.47314307949E+02  0.24428117705E+02  0.53524693529E+02  0.47000000000E+01 0.  1.
<mgrwt>
<rscale>  2 0.27645401E+03</rscale>
<asrwt>0</asrwt>
<pdfrwt beam="1">  1       21 0.12405248E+00 0.27651790E+03</pdfrwt>
<pdfrwt beam="2">  1       21 0.20390583E-01 0.27651790E+03</pdfrwt>
<totfact> 0.10277202E+04</totfact>
</mgrwt>
</event>
<event>
12    1  0.2762290E-001  0.1750718E+03  0.7546771E-02  0.1173075E+00
         21   -1    0    0  504  503  0.00000000000E+00  0.00000000000E+00  0.59206153463E+03  0.59206153463E+03  0.00000000000E+00 0.  1.
         21   -1    0    0  502  504 -0.00000000000E+00 -0.00000000000E+00 -0.22371775737E+03  0.22371775737E+03  0.00000000000E+00 0.  1.
          6    2    1    2  502    0  0.28248517277E+01 -0.28815782808E+02 -0.17412817441E+03  0.24575651211E+03  0.17098921895E+03 0.  0.
         24    2    3    3    0    0 -0.44968931211E+02  0.14963932177E+02 -0.14835868737E+03  0.17584896177E+03  0.81648228392E+02 0.  0.
         -6    2    1    2    0  503 -0.28248517277E+01  0.28815782808E+02  0.54247195167E+03  0.57002277988E+03  0.17266100345E+03 0.  0.
        -24    2    5    5    0    0  0.62144844340E+02  0.17315966872E+02  0.39379410302E+03  0.40729447917E+03  0.81566983531E+02 0.  0.
          4    1    4    4  501    0 -0.74959131647E+01  0.40133927319E+02 -0.34798850244E+02  0.53645883481E+02  0.00000000000E+00 0. -1.
         -3    1    4    4    0  501 -0.37473018046E+02 -0.25169995142E+02 -0.11355983712E+03  0.12220307829E+03  0.00000000000E+00 0.  1.
          5    1    3    3  502    0  0.47793782939E+02 -0.43779714985E+02 -0.25769487046E+02  0.69907550339E+02  0.47000000000E+01 0. -1.
         13    1    6    6    0    0  0.73342183078E+02  0.25458453471E+02  0.22664312466E+03  0.23957110558E+03  0.00000000000E+00 0. -1.
        -14    1    6    6    0    0 -0.11197338738E+02 -0.81424865981E+01  0.16715097836E+03  0.16772337359E+03  0.00000000000E+00 0.  1.
         -5    1    5    5    0  503 -0.64969696068E+02  0.11499815936E+02  0.14867784865E+03  0.16272830071E+03  0.47000000000E+01 0.  1.
<mgrwt>
<rscale>  2 0.17465825E+03</rscale>
<asrwt>0</asrwt>
<pdfrwt beam="1">  1       21 0.91086389E-01 0.17507185E+03</pdfrwt>
<pdfrwt beam="2">  1       21 0.34418117E-01 0.17507185E+03</pdfrwt>
<totfact> 0.84209764E+03</totfact>
</mgrwt>
</event>
<event>
12    1  0.2762290E-001  0.1971217E+03  0.7546771E-02  0.1152827E+00
         21   -1    0    0  504  503  0.00000000000E+00  0.00000000000E+00  0.21555952641E+03  0.21555952641E+03  0.00000000000E+00 0.  1.
         21   -1    0    0  502  504 -0.00000000000E+00 -0.00000000000E+00 -0.32282623530E+03  0.32282623530E+03  0.00000000000E+00 0.  1.
          6    2    1    2  502    0  0.75879062099E+02  0.46073784780E+02 -0.23441407546E+03  0.30627918673E+03  0.17600157879E+03 0.  0.
         24    2    3    3    0    0  0.54581245671E+02  0.75158993210E+02 -0.24041599431E+03  0.26943275727E+03  0.78524987952E+02 0.  0.
         -6    2    1    2    0  503 -0.75879062099E+02 -0.46073784780E+02  0.12714736658E+03  0.23210657498E+03  0.17270374521E+03 0.  0.
        -24    2    5    5    0    0 -0.98728575091E+02 -0.12640592219E+02  0.36491272623E+02  0.13270589097E+03  0.79825587443E+02 0.  0.
          2    1    4    4  501    0 -0.16172782007E+02  0.32426422252E+02 -0.10163577283E+03  0.10790209478E+03  0.00000000000E+00 0. -1.
         -1    1    4    4    0  501  0.70754027679E+02  0.42732570958E+02 -0.13878022147E+03  0.16153066249E+03  0.00000000000E+00 0.  1.
          5    1    3    3  502    0  0.21297816427E+02 -0.29085208431E+02  0.60019188408E+01  0.36846429458E+02  0.47000000000E+01 0. -1.
         11    1    6    6    0    0 -0.70731770339E+02 -0.44558487211E+02  0.14339757226E+02  0.84817868136E+02  0.00000000000E+00 0. -1.
        -12    1    6    6    0    0 -0.27996804752E+02  0.31917894992E+02  0.22151515397E+02  0.47888022839E+02  0.00000000000E+00 0.  1.
         -5    1    5    5    0  503  0.22849512993E+02 -0.33433192560E+02  0.90656093956E+02  0.99400684002E+02  0.47000000000E+01 0.  1.
<mgrwt>
<rscale>  2 0.19638290E+03</rscale>
<asrwt>0</asrwt>
<pdfrwt beam="1">  1       21 0.33163004E-01 0.19712174E+03</pdfrwt>
<pdfrwt beam="2">  1       21 0.49665575E-01 0.19712174E+03</pdfrwt>
<totfact> 0.33750107E+04</totfact>
</mgrwt>
</event>
<event>
12    1  0.2762290E-001  0.2074360E+03  0.7546771E-02  0.1144042E+00
         21   -1    0    0  504  503  0.00000000000E+00  0.00000000000E+00  0.18119176121E+03  0.18119176121E+03  0.00000000000E+00 0.  1.
         21   -1    0    0  502  504 -0.00000000000E+00 -0.00000000000E+00 -0.43930651907E+03  0.43930651907E+03  0.00000000000E+00 0.  1.
          6    2    1    2  502    0 -0.44032859442E+02  0.10015044872E+03 -0.34024835258E+03  0.39739378246E+03  0.17373506213E+03 0.  0.
         24    2    3    3    0    0 -0.86119017621E+02  0.11084806500E+03 -0.27698465499E+03  0.32051680842E+03  0.79415028003E+02 0.  0.
         -6    2    1    2    0  503  0.44032859442E+02 -0.10015044872E+03  0.82133594720E+02  0.22310449782E+03  0.17624041669E+03 0.  0.
        -24    2    5    5    0    0 -0.18139930073E+01 -0.66630713881E+02  0.11342774744E+03  0.15808972644E+03  0.87655947395E+02 0.  0.
          4    1    4    4  501    0 -0.43687050051E+02  0.35676896916E+01 -0.10083984998E+03  0.10995436369E+03  0.00000000000E+00 0. -1.
         -3    1    4    4    0  501 -0.42431967570E+02  0.10728037531E+03 -0.17614480501E+03  0.21056244473E+03  0.00000000000E+00 0.  1.
          5    1    3    3  502    0  0.42086158178E+02 -0.10697616275E+02 -0.63263697597E+02  0.76876974042E+02  0.47000000000E+01 0. -1.
         13    1    6    6    0    0 -0.36120985469E+02 -0.11011838981E+01  0.35974759188E+02  0.50991386487E+02  0.00000000000E+00 0. -1.
        -14    1    6    6    0    0  0.34306992462E+02 -0.65529529983E+02  0.77452988247E+02  0.10709833995E+03  0.00000000000E+00 0.  1.
         -5    1    5    5    0  503  0.45846852450E+02 -0.33519734843E+02 -0.31294152716E+02  0.65014771381E+02  0.47000000000E+01 0.  1.
<mgrwt>
<rscale>  2 0.20690285E+03</rscale>
<asrwt>0</asrwt>
<pdfrwt beam="1">  1       21 0.27875655E-01 0.20743599E+03</pdfrwt>
<pdfrwt beam="2">  1       21 0.67585619E-01 0.20743599E+03</pdfrwt>
<totfact> 0.24387509E+04</totfact>
</mgrwt>
</event>
<event>
12    1  0.2762290E-001  0.1851821E+03  0.7546771E-02  0.1163458E+00
         21   -1    0    0  504  503  0.00000000000E+00  0.00000000000E+00  0.37571654937E+02  0.37571654937E+02  0.00000000000E+00 0. -1.
         21   -1    0    0  502  504 -0.00000000000E+00 -0.00000000000E+00 -0.90770366807E+03  0.90770366807E+03  0.00000000000E+00 0. -1.
          6    2    1    2  502    0 -0.55167203150E+02 -0.30969986930E+02 -0.47968945180E+03  0.51419294441E+03  0.17403980439E+03 0.  0.
         24    2    3    3    0    0  0.15833555868E+02  0.29031089149E+02 -0.17348426726E+03  0.19415397498E+03  0.80656490037E+02 0.  0.
         -6    2    1    2    0  503  0.55167203150E+02  0.30969986930E+02 -0.39044256133E+03  0.43108237860E+03  0.17141780260E+03 0.  0.
        -24    2    5    5    0    0  0.58898268571E+02  0.30556039256E+02 -0.40345833292E+03  0.41674388105E+03  0.80586341380E+02 0.  0.
          4    1    4    4  501    0  0.64278243882E+01 -0.22413565026E+02 -0.10728452960E+03  0.10978913933E+03  0.00000000000E+00 0. -1.
         -3    1    4    4    0  501  0.94057314794E+01  0.51444654174E+02 -0.66199737659E+02  0.84364835648E+02  0.00000000000E+00 0.  1.
          5    1    3    3  502    0 -0.71000759017E+02 -0.60001076078E+02 -0.30620518454E+03  0.32003896943E+03  0.47000000000E+01 0. -1.
         11    1    6    6    0    0  0.54718914658E+02  0.56167269060E+02 -0.29932580113E+03  0.30942665845E+03  0.00000000000E+00 0. -1.
        -12    1    6    6    0    0  0.41793539139E+01 -0.25611229803E+02 -0.10413253179E+03  0.10731722261E+03  0.00000000000E+00 0.  1.
         -5    1    5    5    0  503 -0.37310654217E+01  0.41394767333E+00  0.13015771589E+02  0.14338497547E+02  0.47000000000E+01 0.  1.
<mgrwt>
<rscale>  2 0.18456351E+03</rscale>
<asrwt>0</asrwt>
<pdfrwt beam="1">  1       21 0.57802548E-02 0.18518211E+03</pdfrwt>
<pdfrwt beam="2">  1       21 0.13964671E+00 0.18518211E+03</pdfrwt>
<totfact> 0.75974957E+04</totfact>
</mgrwt>
</event>
<event>
12    1  0.2762290E-001  0.1865696E+03  0.7546771E-02  0.1162694E+00
         21   -1    0    0  504  503  0.00000000000E+00  0.00000000000E+00  0.94913907001E+02  0.94913907001E+02  0.00000000000E+00 0. -1.
         21   -1    0    0  502  504 -0.00000000000E+00 -0.00000000000E+00 -0.36202437838E+03  0.36202437838E+03  0.00000000000E+00 0.  1.
          6    2    1    2  502    0 -0.47689724463E+02 -0.44253986158E+02 -0.10982378417E+03  0.21649357794E+03  0.17485845879E+03 0.  0.
         24    2    3    3    0    0  0.33197113064E+02 -0.34476850709E+02 -0.21803297819E+02  0.96460378862E+02  0.80861111443E+02 0.  0.
         -6    2    1    2    0  503  0.47689724463E+02  0.44253986158E+02 -0.15728668720E+03  0.24044470744E+03  0.16982882633E+03 0.  0.
        -24    2    5    5    0    0  0.90061383818E+02  0.31928975823E+02 -0.15124934744E+03  0.19565851685E+03  0.79217281962E+02 0.  0.
          2    1    4    4  501    0  0.46901209268E+02  0.72298544749E+01 -0.25850910756E-01  0.47455188281E+02  0.00000000000E+00 0. -1.
         -1    1    4    4    0  501 -0.13704096204E+02 -0.41706705184E+02 -0.21777446908E+02  0.49005190581E+02  0.00000000000E+00 0.  1.
          5    1    3    3  502    0 -0.80886837527E+02 -0.97771354489E+01 -0.88020486354E+02  0.12003319908E+03  0.47000000000E+01 0. -1.
         11    1    6    6    0    0  0.25477730437E+02 -0.24439690387E+02 -0.65501875369E+02  0.74410408487E+02  0.00000000000E+00 0. -1.
        -12    1    6    6    0    0  0.64583653381E+02  0.56368666209E+02 -0.85747472072E+02  0.12124810836E+03  0.00000000000E+00 0.  1.
         -5    1    5    5    0  503 -0.42371659355E+02  0.12325010335E+02 -0.60373397627E+01  0.44786190591E+02  0.47000000000E+01 0.  1.
<mgrwt>
<rscale>  2 0.18538192E+03</rscale>
<asrwt>0</asrwt>
<pdfrwt beam="1">  1       21 0.14602139E-01 0.18656957E+03</pdfrwt>
<pdfrwt beam="2">  1       21 0.55696059E-01 0.18656957E+03</pdfrwt>
<totfact> 0.12538207E+05</totfact>
</mgrwt>
</event>
<event>
12    1  0.2762290E-001  0.1887684E+03  0.7546771E-02  0.1160199E+00
         21   -1    0    0  504  503  0.00000000000E+00  0.00000000000E+00  0.10926118175E+04  0.10926118175E+04  0.00000000000E+00 0.  1.
         21   -1    0    0  502  504 -0.00000000000E+00 -0.00000000000E+00 -0.32260131314E+02  0.32260131314E+02  0.00000000000E+00 0.  1.
          6    2    1    2  502    0  0.75738281834E+01  0.74843766938E+02  0.50052023187E+03  0.53493364460E+03  0.17313159529E+03 0.  0.
         24    2    3    3    0    0  0.32824983226E+02  0.88738024465E+02  0.48749354974E+03  0.50295778385E+03  0.79778786571E+02 0.  0.
         -6    2    1    2    0  503 -0.75738281834E+01 -0.74843766938E+02  0.55983145427E+03  0.58993830417E+03  0.17016754455E+03 0.  0.
        -24    2    5    5    0    0  0.59704576719E+02 -0.53319888519E+02  0.40128375843E+03  0.41630327612E+03  0.76629732748E+02 0.  0.
          4    1    4    4  501    0  0.56944118563E+02  0.66031943643E+02  0.29430984499E+03  0.30695461403E+03  0.00000000000E+00 0. -1.
         -3    1    4    4    0  501 -0.24119135337E+02  0.22706080822E+02  0.19318370476E+03  0.19600316982E+03  0.00000000000E+00 0.  1.
          5    1    3    3  502    0 -0.25251155043E+02 -0.13894257527E+02  0.13026682132E+02  0.31975860748E+02  0.47000000000E+01 0. -1.
         13    1    6    6    0    0  0.28663902802E+02  0.12172171146E+02  0.19912749979E+03  0.20154786589E+03  0.00000000000E+00 0. -1.
        -14    1    6    6    0    0  0.31040673917E+02 -0.65492059665E+02  0.20215625864E+03  0.21475541023E+03  0.00000000000E+00 0.  1.
         -5    1    5    5    0  503 -0.67278404903E+02 -0.21523878419E+02  0.15854769584E+03  0.17363502805E+03  0.47000000000E+01 0.  1.
<mgrwt>
<rscale>  2 0.18808600E+03</rscale>
<asrwt>0</asrwt>
<pdfrwt beam="1">  1       21 0.16809410E+00 0.18876838E+03</pdfrwt>
<pdfrwt beam="2">  1       21 0.49630980E-02 0.18876838E+03</pdfrwt>
<totfact> 0.60082382E+04</totfact>
</mgrwt>
</event>
<event>
12    1  0.2762290E-001  0.3461432E+03  0.7546771E-02  0.1064231E+00
         21   -1    0    0  504  503  0.00000000000E+00  0.00000000000E+00  0.45084669358E+03  0.45084669358E+03  0.00000000000E+00 0. -1.
         21   -1    0    0  502  504 -0.00000000000E+00 -0.00000000000E+00 -0.29802001903E+03  0.29802001903E+03  0.00000000000E+00 0.  1.
          6    2    1    2  502    0  0.18173431028E+03 -0.23898339503E+03 -0.47106978935E+02  0.34913106183E+03  0.17185170419E+03 0.  0.
         24    2    3    3    0    0  0.78759437593E+02 -0.81845843965E+02 -0.77642316178E+02  0.15873533924E+03  0.79163043630E+02 0.  0.
         -6    2    1    2    0  503 -0.18173431028E+03  0.23898339503E+03  0.19993365348E+03  0.39973565079E+03  0.17226346705E+03 0.  0.
        -24    2    5    5    0    0 -0.50729472962E+02  0.30724779672E+02  0.73572054410E+02  0.12310726831E+03  0.78899054538E+02 0.  0.
          2    1    4    4  501    0  0.85210486068E+02 -0.76086138285E+02 -0.41449448541E+02  0.12152359507E+03  0.00000000000E+00 0. -1.
         -1    1    4    4    0  501 -0.64510484748E+01 -0.57597056803E+01 -0.36192867637E+02  0.37211744164E+02  0.00000000000E+00 0.  1.
          5    1    3    3  502    0  0.10297487269E+03 -0.15713755107E+03  0.30535337243E+02  0.19039572259E+03  0.47000000000E+01 0. -1.
         11    1    6    6    0    0  0.59114746215E+01  0.40711117161E+02  0.28720605707E+02  0.50171842550E+02  0.00000000000E+00 0. -1.
        -12    1    6    6    0    0 -0.56640947583E+02 -0.99863374888E+01  0.44851448703E+02  0.72935425757E+02  0.00000000000E+00 0.  1.
         -5    1    5    5    0  503 -0.13100483732E+03  0.20825861536E+03  0.12636159907E+03  0.27662838248E+03  0.47000000000E+01 0.  1.
<mgrwt>
<rscale>  2 0.34609202E+03</rscale>
<asrwt>0</asrwt>
<pdfrwt beam="1">  1       21 0.69361030E-01 0.34614321E+03</pdfrwt>
<pdfrwt beam="2">  1       21 0.45849234E-01 0.34614321E+03</pdfrwt>
<totfact> 0.79359055E+03</totfact>
</mgrwt>
</event>
<event>
12    1  0.2762290E-001  0.3308356E+03  0.7546771E-02  0.1070883E+00
         21   -1    0    0  504  503  0.00000000000E+00  0.00000000000E+00  0.11680294748E+03  0.11680294748E+03  0.00000000000E+00 0. -1.
         21   -1    0    0  502  504 -0.00000000000E+00 -0.00000000000E+00 -0.13514531180E+04  0.13514531180E+04  0.00000000000E+00 0. -1.
          6    2    1    2  502    0  0.27789906604E+03 -0.41591214128E+02 -0.10246076047E+04  0.10763759141E+04  0.17264600991E+03 0.  0.
         24    2    3    3    0    0  0.71564142087E+02  0.24111871131E+02 -0.29585870596E+03  0.31612066502E+03  0.81835763581E+02 0.  0.
         -6    2    1    2    0  503 -0.27789906604E+03  0.41591214128E+02 -0.21004256575E+03  0.39188015136E+03  0.17462661198E+03 0.  0.
        -24    2    5    5    0    0 -0.95481932163E+02  0.59571029102E+02 -0.13600427230E+03  0.19413525668E+03  0.80782602859E+02 0.  0.
          2    1    4    4  501    0  0.48374892486E+02  0.46072314867E+02 -0.25839676052E+03  0.26689262686E+03  0.00000000000E+00 0. -1.
         -1    1    4    4    0  501  0.23189249601E+02 -0.21960443736E+02 -0.37461945435E+02  0.49228038168E+02  0.00000000000E+00 0.  1.
          5    1    3    3  502    0  0.20633492395E+03 -0.65703085258E+02 -0.72874889878E+03  0.76025524907E+03  0.47000000000E+01 0. -1.
         11    1    6    6    0    0 -0.44671231144E+02 -0.14586106783E+02 -0.33007031049E+02  0.57425930569E+02  0.00000000000E+00 0. -1.
        -12    1    6    6    0    0 -0.50810701019E+02  0.74157135885E+02 -0.10299724125E+03  0.13670932611E+03  0.00000000000E+00 0.  1.
         -5    1    5    5    0  503 -0.18241713387E+03 -0.17979814974E+02 -0.74038293451E+02  0.19774489468E+03  0.47000000000E+01 0.  1.
<mgrwt>
<rscale>  2 0.33057498E+03</rscale>
<asrwt>0</asrwt>
<pdfrwt beam="1">  1       21 0.17969685E-01 0.33083557E+03</pdfrwt>
<pdfrwt beam="2">  1       21 0.20791585E+00 0.33083557E+03</pdfrwt>
<totfact> 0.30316930E+03</totfact>
</mgrwt>
</event>
<event>
12    1  0.2762290E-001  0.1759477E+03  0.7546771E-02  0.1172401E+00
         21   -1    0    0  504  503  0.00000000000E+00  0.00000000000E+00  0.15087865803E+03  0.15087865803E+03  0.00000000000E+00 0. -1.
         21   -1    0    0  502  504 -0.00000000000E+00 -0.00000000000E+00 -0.46767877485E+03  0.46767877485E+03  0.00000000000E+00 0. -1.
          6    2    1    2  502    0 -0.31971785419E+02 -0.65668698398E+00 -0.39184390483E+03  0.42953376442E+03  0.17301729025E+03 0.  0.
         24    2    3    3    0    0 -0.27551684536E+02  0.60538958658E+02 -0.15654224663E+03  0.18631903484E+03  0.76060810704E+02 0.  0.
         -6    2    1    2    0  503  0.31971785419E+02  0.65668698398E+00  0.75043788013E+02  0.18902366846E+03  0.17051613067E+03 0.  0.
        -24    2    5    5    0    0  0.71568074392E+02 -0.17924180783E+02  0.90596316356E+01  0.10971973640E+03  0.80703643665E+02 0.  0.
          4    1    4    4  501    0 -0.52084188732E+02  0.26806030335E+02 -0.80045139451E+02  0.99189466819E+02  0.00000000000E+00 0. -1.
         -3    1    4    4    0  501  0.24532504197E+02  0.33732928323E+02 -0.76497107184E+02  0.87129568018E+02  0.00000000000E+00 0.  1.
          5    1    3    3  502    0 -0.44201008832E+01 -0.61195645642E+02 -0.23530165819E+03  0.24321472958E+03  0.47000000000E+01 0. -1.
         11    1    6    6    0    0  0.74114768331E+02  0.84013535027E+01  0.25204809863E+02  0.78732865219E+02  0.00000000000E+00 0. -1.
        -12    1    6    6    0    0 -0.25466939387E+01 -0.26325534285E+02 -0.16145178227E+02  0.30986871178E+02  0.00000000000E+00 0.  1.
         -5    1    5    5    0  503 -0.39596288973E+02  0.18580867767E+02  0.65984156377E+02  0.79303932061E+02  0.47000000000E+01 0.  1.
<mgrwt>
<rscale>  2 0.17532977E+03</rscale>
<asrwt>0</asrwt>
<pdfrwt beam="1">  1       21 0.23212101E-01 0.17594775E+03</pdfrwt>
<pdfrwt beam="2">  1       21 0.71950580E-01 0.17594775E+03</pdfrwt>
<totfact> 0.30694841E+04</totfact>
</mgrwt>
</event>
<event>
12    1  0.2762290E-001  0.1920680E+03  0.7546771E-02  0.1157503E+00
         21   -1    0    0  504  503  0.00000000000E+00  0.00000000000E+00  0.18344391235E+04  0.18344391235E+04  0.00000000000E+00 0. -1.
         21   -1    0    0  502  504 -0.00000000000E+00 -0.00000000000E+00 -0.24663406710E+02  0.24663406710E+02  0.00000000000E+00 0. -1.
          6    2    1    2  502    0  0.66051245138E+02  0.48614623917E+02  0.49527776808E+03  0.53121575696E+03  0.17367775980E+03 0.  0.
         24    2    3    3    0    0 -0.12286295480E+02  0.45585738683E+02  0.38439577614E+03  0.39533768459E+03  0.79389920740E+02 0.  0.
         -6    2    1    2    0  503 -0.66051245138E+02 -0.48614623917E+02  0.13144979487E+04  0.13278867732E+04  0.16926983415E+03 0.  0.
        -24    2    5    5    0    0 -0.83121521593E+02 -0.21823375822E+02  0.53412743647E+03  0.54685579327E+03  0.79835412913E+02 0.  0.
          4    1    4    4  501    0  0.14929327085E+02  0.11310690158E+02  0.29705494688E+03  0.29764485211E+03  0.00000000000E+00 0. -1.
         -3    1    4    4    0  501 -0.27215622565E+02  0.34275048525E+02  0.87340829254E+02  0.97692832479E+02  0.00000000000E+00 0.  1.
          5    1    3    3  502    0  0.78337540618E+02  0.30288852344E+01  0.11088199194E+03  0.13587807238E+03  0.47000000000E+01 0. -1.
         11    1    6    6    0    0 -0.74906792336E+02 -0.32000376876E+02  0.52405577509E+03  0.53034847700E+03  0.00000000000E+00 0. -1.
        -12    1    6    6    0    0 -0.82147292564E+01  0.10177001055E+02  0.10071661386E+02  0.16507316266E+02  0.00000000000E+00 0.  1.
         -5    1    5    5    0  503  0.17070276455E+02 -0.26791248096E+02  0.78037051222E+03  0.78103097996E+03  0.47000000000E+01 0.  1.
<mgrwt>
<rscale>  2 0.19106606E+03</rscale>
<asrwt>0</asrwt>
<pdfrwt beam="1">  1       21 0.28222130E+00 0.19206799E+03</pdfrwt>
<pdfrwt beam="2">  1       21 0.37943717E-02 0.19206799E+03</pdfrwt>
<totfact> 0.18505879E+04</totfact>
</mgrwt>
</event>
<event>
12    1  0.2762290E-001  0.2270112E+03  0.7546771E-02  0.1128819E+00
         21   -1    0    0  504  503  0.00000000000E+00  0.00000000000E+00  0.59027209221E+03  0.59027209221E+03  0.00000000000E+00 0. -1.
         21   -1    0    0  502  504 -0.00000000000E+00 -0.00000000000E+00 -0.38786625515E+03  0.38786625515E+03  0.00000000000E+00 0. -1.
          6    2    1    2  502    0 -0.14639215858E+03  0.18275657771E+02 -0.32939137364E+03  0.40004095919E+03  0.17253819357E+03 0.  0.
         24    2    3    3    0    0 -0.12837481306E+03 -0.40578794313E+02 -0.18349761564E+03  0.24162520905E+03  0.81145767150E+02 0.  0.
         -6    2    1    2    0  503  0.14639215858E+03 -0.18275657771E+02  0.53179721070E+03  0.57809738818E+03  0.17211523217E+03 0.  0.
        -24    2    5    5    0    0  0.48815794328E+02 -0.43005997197E+02  0.39551970802E+03  0.40860879184E+03  0.79327219603E+02 0.  0.
          4    1    4    4  501    0 -0.13011276990E+03 -0.14420001355E+02 -0.15008517930E+03  0.19915529210E+03  0.00000000000E+00 0. -1.
         -3    1    4    4    0  501  0.17379568323E+01 -0.26158792958E+02 -0.33412436348E+02  0.42469916949E+02  0.00000000000E+00 0.  1.
          5    1    3    3  502    0 -0.18017345518E+02  0.58854452085E+02 -0.14589375799E+03  0.15841575014E+03  0.47000000000E+01 0. -1.
         11    1    6    6    0    0 -0.14680919243E+02 -0.41709135847E+01  0.17906883100E+03  0.17971803512E+03  0.00000000000E+00 0. -1.
        -12    1    6    6    0    0  0.63496713571E+02 -0.38835083613E+02  0.21645087702E+03  0.22889075673E+03  0.00000000000E+00 0.  1.
         -5    1    5    5    0  503  0.97576364253E+02  0.24730339426E+02  0.13627750268E+03  0.16948859633E+03  0.47000000000E+01 0.  1.
<mgrwt>
<rscale>  2 0.22693085E+03</rscale>
<asrwt>0</asrwt>
<pdfrwt beam="1">  1       21 0.90811091E-01 0.22701122E+03</pdfrwt>
<pdfrwt beam="2">  1       21 0.59671732E-01 0.22701122E+03</pdfrwt>
<totfact> 0.26224671E+03</totfact>
</mgrwt>
</event>
<event>
12    1  0.2762290E-001  0.2697800E+03  0.7546771E-02  0.1101697E+00
         21   -1    0    0  504  503  0.00000000000E+00  0.00000000000E+00  0.15078832658E+03  0.15078832658E+03  0.00000000000E+00 0.  1.
         21   -1    0    0  502  504 -0.00000000000E+00 -0.00000000000E+00 -0.60070371218E+03  0.60070371218E+03  0.00000000000E+00 0.  1.
          6    2    1    2  502    0 -0.16743605409E+03 -0.11750509755E+03 -0.55192188445E+02  0.27338360281E+03  0.17277192034E+03 0.  0.
         24    2    3    3    0    0 -0.86240972980E+02  0.52742715228E+01 -0.36338744239E+02  0.12490816031E+03  0.82560407087E+02 0.  0.
         -6    2    1    2    0  503  0.16743605409E+03  0.11750509755E+03 -0.39472319715E+03  0.47810843596E+03  0.17589483792E+03 0.  0.
        -24    2    5    5    0    0  0.11697351100E+03  0.15014484120E+01 -0.17132947935E+03  0.22133975013E+03  0.77152043858E+02 0.  0.
          2    1    4    4  501    0 -0.24107626424E+02  0.25306633115E+02 -0.47195894222E+02  0.58728662192E+02  0.00000000000E+00 0. -1.
         -1    1    4    4    0  501 -0.62133346557E+02 -0.20032361593E+02  0.10857149984E+02  0.66179498118E+02  0.00000000000E+00 0.  1.
          5    1    3    3  502    0 -0.81195081110E+02 -0.12277936907E+03 -0.18853444206E+02  0.14847544250E+03  0.47000000000E+01 0. -1.
         11    1    6    6    0    0  0.39859302105E+02  0.16968964427E+02 -0.11959654960E+03  0.12720080343E+03  0.00000000000E+00 0. -1.
        -12    1    6    6    0    0  0.77114208895E+02 -0.15467516015E+02 -0.51732929752E+02  0.94138946701E+02  0.00000000000E+00 0.  1.
         -5    1    5    5    0  503  0.50462543090E+02  0.11600364914E+03 -0.22339371780E+03  0.25676868583E+03  0.47000000000E+01 0.  1.
<mgrwt>
<rscale>  2 0.26927220E+03</rscale>
<asrwt>0</asrwt>
<pdfrwt beam="1">  1       21 0.23198204E-01 0.26978005E+03</pdfrwt>
<pdfrwt beam="2">  1       21 0.92415957E-01 0.26978005E+03</pdfrwt>
<totfact> 0.16527598E+04</totfact>
</mgrwt>
</event>
<event>
12    1  0.2762290E-001  0.1926333E+03  0.7546771E-02  0.1156915E+00
         21   -1    0    0  504  503  0.00000000000E+00  0.00000000000E+00  0.55855619150E+02  0.55855619150E+02  0.00000000000E+00 0. -1.
         21   -1    0    0  502  504 -0.00000000000E+00 -0.00000000000E+00 -0.65196915672E+03  0.65196915672E+03  0.00000000000E+00 0.  1.
          6    2    1    2  502    0 -0.15058989949E+02 -0.74579574357E+02 -0.29687071424E+03  0.35194013967E+03  0.17303397021E+03 0.  0.
         24    2    3    3    0    0 -0.18739916341E+02  0.20265845745E+02 -0.80310211851E+02  0.11544543755E+03  0.78205050707E+02 0.  0.
         -6    2    1    2    0  503  0.15058989949E+02  0.74579574357E+02 -0.29924282332E+03  0.35588463619E+03  0.17697096056E+03 0.  0.
        -24    2    5    5    0    0 -0.37770691032E+02  0.30635834261E+02 -0.73682005691E+02  0.12004189211E+03  0.81337804599E+02 0.  0.
          2    1    4    4  501    0  0.26170709464E+02  0.61956351287E+01 -0.56781460622E+02  0.62828546051E+02  0.00000000000E+00 0. -1.
         -1    1    4    4    0  501 -0.44910625805E+02  0.14070210616E+02 -0.23528751229E+02  0.52616891502E+02  0.00000000000E+00 0.  1.
          5    1    3    3  502    0  0.36809263917E+01 -0.94845420102E+02 -0.21656050239E+03  0.23649470212E+03  0.47000000000E+01 0. -1.
         13    1    6    6    0    0 -0.50171529306E+02 -0.72411116177E+01 -0.58464308955E+02  0.77380174929E+02  0.00000000000E+00 0. -1.
        -14    1    6    6    0    0  0.12400838274E+02  0.37876945879E+02 -0.15217696735E+02  0.42661717182E+02  0.00000000000E+00 0.  1.
         -5    1    5    5    0  503  0.52829680981E+02  0.43943740096E+02 -0.22556081763E+03  0.23584274408E+03  0.47000000000E+01 0.  1.
<mgrwt>
<rscale>  2 0.19172431E+03</rscale>
<asrwt>0</asrwt>
<pdfrwt beam="1">  1       21 0.85931726E-02 0.19263335E+03</pdfrwt>
<pdfrwt beam="2">  1       21 0.10030294E+00 0.19263335E+03</pdfrwt>
<totfact> 0.86342965E+04</totfact>
</mgrwt>
</event>
<event>
12    1  0.2762290E-001  0.2376798E+03  0.7546771E-02  0.1121895E+00
         21   -1    0    0  504  503  0.00000000000E+00  0.00000000000E+00  0.52425432015E+03  0.52425432015E+03  0.00000000000E+00 0.  1.
         21   -1    0    0  502  504 -0.00000000000E+00 -0.00000000000E+00 -0.11843840462E+03  0.11843840462E+03  0.00000000000E+00 0.  1.
          6    2    1    2  502    0  0.15627834523E+03  0.37176505882E+02  0.10128801763E+03  0.25836201656E+03  0.17517606944E+03 0.  0.
         24    2    3    3    0    0  0.17029116136E+03  0.38461434476E+02  0.12580443132E+03  0.22970622137E+03  0.80373077714E+02 0.  0.
         -6    2    1    2    0  503 -0.15627834523E+03 -0.37176505882E+02  0.30452789791E+03  0.38433070821E+03  0.17078594465E+03 0.  0.
        -24    2    5    5    0    0 -0.11600632062E+02 -0.70711590231E+00  0.14064083767E+03  0.16264914468E+03  0.80869180590E+02 0.  0.
          4    1    4    4  501    0  0.32589540182E+02  0.37205439902E+02  0.57954902523E+02  0.76191164934E+02  0.00000000000E+00 0. -1.
         -3    1    4    4    0  501  0.13770162117E+03  0.12559945736E+01  0.67849528795E+02  0.15351505644E+03  0.00000000000E+00 0.  1.
          5    1    3    3  502    0 -0.14012816123E+02 -0.12849285934E+01 -0.24516413692E+02  0.28655795182E+02  0.47000000000E+01 0. -1.
         13    1    6    6    0    0  0.10073678888E+02  0.14676234328E+02  0.13410160574E+03  0.13527790478E+03  0.00000000000E+00 0. -1.
        -14    1    6    6    0    0 -0.21674310951E+02 -0.15383350230E+02  0.65392319267E+01  0.27371239900E+02  0.00000000000E+00 0.  1.
         -5    1    5    5    0  503 -0.14467771317E+03 -0.36469389980E+02  0.16388706024E+03  0.22168156353E+03  0.47000000000E+01 0.  1.
<mgrwt>
<rscale>  2 0.23687143E+03</rscale>
<asrwt>0</asrwt>
<pdfrwt beam="1">  1       21 0.80654509E-01 0.23767976E+03</pdfrwt>
<pdfrwt beam="2">  1       21 0.18221293E-01 0.23767976E+03</pdfrwt>
<totfact> 0.36231686E+04</totfact>
</mgrwt>
</event>
<event>
12    1  0.2762290E-001  0.2512268E+03  0.7546771E-02  0.1112578E+00
         21   -1    0    0  504  503  0.00000000000E+00  0.00000000000E+00  0.30652600772E+03  0.30652600772E+03  0.00000000000E+00 0. -1.
         21   -1    0    0  502  504 -0.00000000000E+00 -0.00000000000E+00 -0.28390292307E+03  0.28390292307E+03  0.00000000000E+00 0.  1.
          6    2    1    2  502    0 -0.10292850075E+03  0.15010672454E+03 -0.14366202643E+03  0.28940229039E+03  0.17317217683E+03 0.  0.
         24    2    3    3    0    0  0.44072705011E+01  0.26881143044E+02 -0.25633204934E+02  0.87762997527E+02  0.79393089467E+02 0.  0.
         -6    2    1    2    0  503  0.10292850075E+03 -0.15010672454E+03  0.16628511107E+03  0.30102664039E+03  0.17274256871E+03 0.  0.
        -24    2    5    5    0    0  0.61675820011E+02 -0.17407448266E+03  0.14671406872E+03  0.24924485985E+03  0.80573878604E+02 0.  0.
          4    1    4    4  501    0  0.79722749223E-01  0.13005947248E+02  0.28705236994E+02  0.31514308661E+02  0.00000000000E+00 0. -1.
         -3    1    4    4    0  501  0.43275477519E+01  0.13875195796E+02 -0.54338441928E+02  0.56248688865E+02  0.00000000000E+00 0.  1.
          5    1    3    3  502    0 -0.10733577125E+03  0.12322558149E+03 -0.11802882150E+03  0.20163929286E+03  0.47000000000E+01 0. -1.
         13    1    6    6    0    0  0.37467999793E+02 -0.92423379540E+02  0.12762197654E+03  0.16196697500E+03  0.00000000000E+00 0. -1.
        -14    1    6    6    0    0  0.24207820217E+02 -0.81651103123E+02  0.19092092184E+02  0.87277884855E+02  0.00000000000E+00 0.  1.
         -5    1    5    5    0  503  0.41252680735E+02  0.23967758128E+02  0.19571042354E+02  0.51781780544E+02  0.47000000000E+01 0.  1.
<mgrwt>
<rscale>  2 0.25115279E+03</rscale>
<asrwt>0</asrwt>
<pdfrwt beam="1">  1       21 0.47157847E-01 0.25122681E+03</pdfrwt>
<pdfrwt beam="2">  1       21 0.43677373E-01 0.25122681E+03</pdfrwt>
<totfact> 0.21002209E+04</totfact>
</mgrwt>
</event>
<event>
12    1  0.2762290E-001  0.1961011E+03  0.7546771E-02  0.1153225E+00
         21   -1    0    0  504  503  0.00000000000E+00  0.00000000000E+00  0.90000087564E+02  0.90000087564E+02  0.00000000000E+00 0.  1.
         21   -1    0    0  502  504 -0.00000000000E+00 -0.00000000000E+00 -0.53779883549E+03  0.53779883549E+03  0.00000000000E+00 0.  1.
          6    2    1    2  502    0  0.56110984291E+02  0.74262652290E+02 -0.80293225688E+02  0.21124645326E+03  0.17179836390E+03 0.  0.
         24    2    3    3    0    0  0.98348190767E+02  0.79366036122E+02 -0.47126266915E+02  0.15709699997E+03  0.80543454413E+02 0.  0.
         -6    2    1    2    0  503 -0.56110984291E+02 -0.74262652290E+02 -0.36750552224E+03  0.41655246980E+03  0.17260436592E+03 0.  0.
        -24    2    5    5    0    0 -0.88225044425E+02 -0.82622311560E+02 -0.21087266542E+03  0.25637401121E+03  0.81549051308E+02 0.  0.
          2    1    4    4  501    0  0.96635855110E+01  0.79414920020E+01 -0.41217494701E+02  0.43073588770E+02  0.00000000000E+00 0. -1.
         -1    1    4    4    0  501  0.88684605256E+02  0.71424544120E+02 -0.59087722147E+01  0.11402341120E+03  0.00000000000E+00 0.  1.
          5    1    3    3  502    0 -0.42237206476E+02 -0.51033838317E+01 -0.33166958773E+02  0.54149453290E+02  0.47000000000E+01 0. -1.
         11    1    6    6    0    0  0.11642062036E+02 -0.16627491758E+02 -0.10213384903E+02  0.22722770997E+02  0.00000000000E+00 0. -1.
        -12    1    6    6    0    0 -0.99867106460E+02 -0.65994819802E+02 -0.20065928052E+03  0.23365124021E+03  0.00000000000E+00 0.  1.
         -5    1    5    5    0  503  0.32114060134E+02  0.83596592698E+01 -0.15663285682E+03  0.16017845859E+03  0.47000000000E+01 0.  1.
<mgrwt>
<rscale>  2 0.19592362E+03</rscale>
<asrwt>0</asrwt>
<pdfrwt beam="1">  1       21 0.13846168E-01 0.19610112E+03</pdfrwt>
<pdfrwt beam="2">  1       21 0.82738281E-01 0.19610112E+03</pdfrwt>
<totfact> 0.57710246E+04</totfact>
</mgrwt>
</event>
<event>
12    1  0.2762290E-001  0.1792174E+03  0.7546771E-02  0.1168893E+00
         21   -1    0    0  504  503  0.00000000000E+00  0.00000000000E+00  0.19620468710E+04  0.19620468710E+04  0.00000000000E+00 0. -1.
         21   -1    0    0  502  504 -0.00000000000E+00 -0.00000000000E+00 -0.22575753835E+02  0.22575753835E+02  0.00000000000E+00 0. -1.
          6    2    1    2  502    0  0.18849128516E+02  0.43469418344E+02  0.44697530410E+03  0.48156597773E+03  0.17284093397E+03 0.  0.
         24    2    3    3    0    0  0.62358948118E+02  0.66827678006E+02  0.24554950997E+03  0.27412164005E+03  0.80582471654E+02 0.  0.
         -6    2    1    2    0  503 -0.18849128516E+02 -0.43469418344E+02  0.14924958131E+04  0.15030566471E+04  0.17143702169E+03 0.  0.
        -24    2    5    5    0    0 -0.44089590568E+02 -0.22488329665E+02  0.14226700747E+04  0.14257584534E+04  0.79670628975E+02 0.  0.
          2    1    4    4  501    0  0.96041536211E+01  0.56775334319E+02  0.70542583574E+02  0.91060059582E+02  0.00000000000E+00 0. -1.
         -1    1    4    4    0  501  0.52754794497E+02  0.10052343687E+02  0.17500692640E+03  0.18306158047E+03  0.00000000000E+00 0.  1.
          5    1    3    3  502    0 -0.43509819602E+02 -0.23358259662E+02  0.20142579412E+03  0.20744433768E+03  0.47000000000E+01 0. -1.
         13    1    6    6    0    0  0.16210444496E+02 -0.13555069029E+02  0.75917336535E+03  0.75946739039E+03  0.00000000000E+00 0. -1.
        -14    1    6    6    0    0 -0.60300035064E+02 -0.89332606357E+01  0.66349670933E+03  0.66629106302E+03  0.00000000000E+00 0.  1.
         -5    1    5    5    0  503  0.25240462052E+02 -0.20981088679E+02  0.69825738391E+02  0.77298193696E+02  0.47000000000E+01 0.  1.
<mgrwt>
<rscale>  2 0.17887802E+03</rscale>
<asrwt>0</asrwt>
<pdfrwt beam="1">  1       21 0.30185323E+00 0.17921738E+03</pdfrwt>
<pdfrwt beam="2">  1       21 0.34731945E-02 0.17921738E+03</pdfrwt>
<totfact> 0.16761999E+04</totfact>
</mgrwt>
</event>
<event>
12    1  0.2762290E-001  0.3323940E+03  0.7546771E-02  0.1070322E+00
         21   -1    0    0  504  503  0.00000000000E+00  0.00000000000E+00  0.22177889374E+03  0.22177889374E+03  0.00000000000E+00 0. -1.
         21   -1    0    0  502  504 -0.00000000000E+00 -0.00000000000E+00 -0.49959811055E+03  0.49959811055E+03  0.00000000000E+00 0. -1.
          6    2    1    2  502    0  0.26200579417E+03  0.10660300391E+03 -0.17336207956E+03  0.37295620778E+03  0.17038393607E+03 0.  0.
         24    2    3    3    0    0  0.12899540531E+03 -0.76792819702E+01 -0.58803083886E+02  0.16343757400E+03  0.80964510491E+02 0.  0.
         -6    2    1    2    0  503 -0.26200579417E+03 -0.10660300391E+03 -0.10445713726E+03  0.34842079651E+03  0.17456953141E+03 0.  0.
        -24    2    5    5    0    0 -0.13998356852E+03  0.52840662138E+01 -0.20259360556E+02  0.16262656728E+03  0.80085191418E+02 0.  0.
          4    1    4    4  501    0  0.89341323137E+02  0.16728741300E+02 -0.70960052208E+02  0.11531284323E+03  0.00000000000E+00 0. -1.
         -3    1    4    4    0  501  0.39654082168E+02 -0.24408023270E+02  0.12156968322E+02  0.48124730766E+02  0.00000000000E+00 0.  1.
          5    1    3    3  502    0  0.13301038886E+03  0.11428228588E+03 -0.11455899567E+03  0.20951863378E+03  0.47000000000E+01 0. -1.
         13    1    6    6    0    0 -0.87738128845E+02 -0.33375932001E+02 -0.25926032358E+02  0.97386299057E+02  0.00000000000E+00 0. -1.
        -14    1    6    6    0    0 -0.52245439676E+02  0.38659998215E+02  0.56666718021E+01  0.65240268226E+02  0.00000000000E+00 0.  1.
         -5    1    5    5    0  503 -0.12202222565E+03 -0.11188707012E+03 -0.84197776704E+02  0.18579422923E+03  0.47000000000E+01 0.  1.
<mgrwt>
<rscale>  2 0.33184788E+03</rscale>
<asrwt>0</asrwt>
<pdfrwt beam="1">  1       21 0.34119830E-01 0.33239398E+03</pdfrwt>
<pdfrwt beam="2">  1       21 0.76861248E-01 0.33239398E+03</pdfrwt>
<totfact> 0.11584063E+04</totfact>
</mgrwt>
</event>
<event>
12    1  0.2762290E-001  0.3126261E+03  0.7546771E-02  0.1079178E+00
         21   -1    0    0  504  503  0.00000000000E+00  0.00000000000E+00  0.19164489591E+03  0.19164489591E+03  0.00000000000E+00 0.  1.
         21   -1    0    0  502  504 -0.00000000000E+00 -0.00000000000E+00 -0.10952323123E+04  0.10952323123E+04  0.00000000000E+00 0. -1.
          6    2    1    2  502    0  0.25967498769E+03 -0.11942445941E+00 -0.92285164093E+03  0.97436658838E+03  0.17408039488E+03 0.  0.
         24    2    3    3    0    0  0.22434010034E+03  0.26993893937E+02 -0.87951381695E+03  0.91204529758E+03  0.84999527707E+02 0.  0.
         -6    2    1    2    0  503 -0.25967498769E+03  0.11942445941E+00  0.19264224571E+02  0.31251061981E+03  0.17280238323E+03 0.  0.
        -24    2    5    5    0    0 -0.15778123462E+03 -0.66917648108E+02  0.25127276680E+01  0.18930750028E+03  0.80362467825E+02 0.  0.
          2    1    4    4  501    0  0.18476633517E+03  0.39737504478E+01 -0.57125894613E+03  0.60040917119E+03  0.00000000000E+00 0. -1.
         -1    1    4    4    0  501  0.39573765172E+02  0.23020143489E+02 -0.30825487081E+03  0.31163612640E+03  0.00000000000E+00 0.  1.
          5    1    3    3  502    0  0.35334887353E+02 -0.27113318397E+02 -0.43337823980E+02  0.62321290792E+02  0.47000000000E+01 0. -1.
         13    1    6    6    0    0  0.19001034327E+01  0.18919847138E+01 -0.14365991853E+02  0.14614093236E+02  0.00000000000E+00 0. -1.
        -14    1    6    6    0    0 -0.15968133805E+03 -0.68809632821E+02  0.16878719521E+02  0.17469340704E+03  0.00000000000E+00 0.  1.
         -5    1    5    5    0  503 -0.10189375307E+03  0.67037072567E+02  0.16751496903E+02  0.12320311953E+03  0.47000000000E+01 0.  1.
<mgrwt>
<rscale>  2 0.31244852E+03</rscale>
<asrwt>0</asrwt>
<pdfrwt beam="1">  1       21 0.29483830E-01 0.31262613E+03</pdfrwt>
<pdfrwt beam="2">  1       21 0.16849728E+00 0.31262613E+03</pdfrwt>
<totfact> 0.21990587E+03</totfact>
</mgrwt>
</event>
<event>
12    1  0.2762290E-001  0.2052878E+03  0.7546771E-02  0.1145365E+00
         21   -1    0    0  504  503  0.00000000000E+00  0.00000000000E+00  0.16127979528E+04  0.16127979528E+04  0.00000000000E+00 0.  1.
         21   -1    0    0  502  504 -0.00000000000E+00 -0.00000000000E+00 -0.29344187833E+02  0.29344187833E+02  0.00000000000E+00 0. -1.
          6    2    1    2  502    0 -0.91844405897E+02  0.60645130430E+02  0.51957322928E+03  0.55863632332E+03  0.17321944002E+03 0.  0.
         24    2    3    3    0    0 -0.96976633504E+02  0.46487535052E+02  0.21839414850E+03  0.25704437056E+03  0.82524214483E+02 0.  0.
         -6    2    1    2    0  503  0.91844405897E+02 -0.60645130430E+02  0.10638805356E+04  0.10835058173E+04  0.17329118618E+03 0.  0.
        -24    2    5    5    0    0 -0.86791793186E+01 -0.49439044999E+02  0.36960901066E+03  0.38188939219E+03  0.81909338831E+02 0.  0.
          2    1    4    4  501    0 -0.67942489802E+02 -0.51722832898E+01  0.72099552609E+02  0.99203225357E+02  0.00000000000E+00 0. -1.
         -1    1    4    4    0  501 -0.29034143702E+02  0.51659818342E+02  0.14629459589E+03  0.15784114520E+03  0.00000000000E+00 0.  1.
          5    1    3    3  502    0  0.51322276062E+01  0.14157595378E+02  0.30117908078E+03  0.30159195276E+03  0.47000000000E+01 0. -1.
         13    1    6    6    0    0 -0.21414631702E+02 -0.26384359043E+02  0.45895688280E+02  0.57106348647E+02  0.00000000000E+00 0. -1.
        -14    1    6    6    0    0  0.12735452383E+02 -0.23054685956E+02  0.32371332238E+03  0.32478304355E+03  0.00000000000E+00 0.  1.
         -5    1    5    5    0  503  0.10052358522E+03 -0.11206085431E+02  0.69427152499E+03  0.70161642508E+03  0.47000000000E+01 0.  1.
<mgrwt>
<rscale>  2 0.20527261E+03</rscale>
<asrwt>0</asrwt>
<pdfrwt beam="1">  1       21 0.24812269E+00 0.20528775E+03</pdfrwt>
<pdfrwt beam="2">  1       21 0.45144917E-02 0.20528775E+03</pdfrwt>
<totfact> 0.21574567E+04</totfact>
</mgrwt>
</event>
<event>
12    1  0.2762290E-001  0.1816759E+03  0.7546771E-02  0.1166384E+00
         21   -1    0    0  504  503  0.00000000000E+00  0.00000000000E+00  0.76397138604E+02  0.76397138604E+02  0.00000000000E+00 0. -1.
         21   -1    0    0  502  504 -0.00000000000E+00 -0.00000000000E+00 -0.85862395852E+03  0.85862395852E+03  0.00000000000E+00 0. -1.
          6    2    1    2  502    0  0.51892220757E+02  0.13161222571E+02 -0.72094643180E+03  0.74328841489E+03  0.17276541852E+03 0.  0.
         24    2    3    3    0    0  0.45068485459E+02  0.73456696206E+02 -0.53118373567E+03  0.54400450098E+03  0.79735070337E+02 0.  0.
         -6    2    1    2    0  503 -0.51892220757E+02 -0.13161222571E+02 -0.61280388117E+02  0.19173268223E+03  0.17360908707E+03 0.  0.
        -24    2    5    5    0    0 -0.18776974447E+02 -0.15238983079E+02  0.34372106583E+02  0.90379703146E+02  0.80014046612E+02 0.  0.
          2    1    4    4  501    0  0.61849384729E+02  0.26077821017E+02 -0.30908165194E+03  0.31628605202E+03  0.00000000000E+00 0. -1.
         -1    1    4    4    0  501 -0.16780899270E+02  0.47378875189E+02 -0.22210208373E+03  0.22771844895E+03  0.00000000000E+00 0.  1.
          5    1    3    3  502    0  0.68237352983E+01 -0.60295473635E+02 -0.18976269613E+03  0.19928391392E+03  0.47000000000E+01 0. -1.
         11    1    6    6    0    0 -0.43318504769E+02  0.12340191886E+02  0.27660501780E+02  0.52857133387E+02  0.00000000000E+00 0. -1.
        -12    1    6    6    0    0  0.24541530322E+02 -0.27579174966E+02  0.67116048037E+01  0.37522569760E+02  0.00000000000E+00 0.  1.
         -5    1    5    5    0  503 -0.33115246310E+02  0.20777605085E+01 -0.95652494701E+02  0.10135297908E+03  0.47000000000E+01 0.  1.
<mgrwt>
<rscale>  2 0.18147406E+03</rscale>
<asrwt>0</asrwt>
<pdfrwt beam="1">  1       21 0.11753407E-01 0.18167591E+03</pdfrwt>
<pdfrwt beam="2">  1       21 0.13209598E+00 0.18167591E+03</pdfrwt>
<totfact> 0.25454173E+04</totfact>
</mgrwt>
</event>
<event>
12    1  0.2762290E-001  0.2818958E+03  0.7546771E-02  0.1094823E+00
         21   -1    0    0  504  503  0.00000000000E+00  0.00000000000E+00  0.40811562411E+03  0.40811562411E+03  0.00000000000E+00 0.  1.
         21   -1    0    0  502  504 -0.00000000000E+00 -0.00000000000E+00 -0.19482326771E+03  0.19482326771E+03  0.00000000000E+00 0. -1.
          6    2    1    2  502    0 -0.22162938075E+03 -0.15944159738E+01  0.12744348931E+03  0.30826059618E+03  0.17222261065E+03 0.  0.
         24    2    3    3    0    0 -0.22039006485E+03  0.31879277179E+02  0.13766363781E+03  0.27292555023E+03  0.77129824290E+02 0.  0.
         -6    2    1    2    0  503  0.22162938075E+03  0.15944159738E+01  0.85848867084E+02  0.29467829564E+03  0.17419283959E+03 0.  0.
        -24    2    5    5    0    0  0.11993897643E+03 -0.65030501381E+02  0.61451003038E+02  0.17059298743E+03  0.81923240952E+02 0.  0.
          4    1    4    4  501    0 -0.14467309555E+03 -0.16378566763E+02  0.78677220601E+02  0.16549521766E+03  0.00000000000E+00 0. -1.
         -3    1    4    4    0  501 -0.75716969300E+02  0.48257843942E+02  0.58986417207E+02  0.10743033257E+03  0.00000000000E+00 0.  1.
          5    1    3    3  502    0 -0.12393158974E+01 -0.33473693153E+02 -0.10220148501E+02  0.35335045954E+02  0.47000000000E+01 0. -1.
         11    1    6    6    0    0  0.34481649514E+02 -0.27807127111E+01 -0.17379004289E+02  0.38713644965E+02  0.00000000000E+00 0. -1.
        -12    1    6    6    0    0  0.85457326918E+02 -0.62249788670E+02  0.78830007327E+02  0.13187934246E+03  0.00000000000E+00 0.  1.
         -5    1    5    5    0  503  0.10169040432E+03  0.66624917354E+02  0.24397864046E+02  0.12408530821E+03  0.47000000000E+01 0.  1.
<mgrwt>
<rscale>  2 0.28159206E+03</rscale>
<asrwt>0</asrwt>
<pdfrwt beam="1">  1       21 0.62787019E-01 0.28189585E+03</pdfrwt>
<pdfrwt beam="2">  1       21 0.29972811E-01 0.28189585E+03</pdfrwt>
<totfact> 0.24000578E+04</totfact>
</mgrwt>
</event>
<event>
12    1  0.2762290E-001  0.2174349E+03  0.7546771E-02  0.1136227E+00
         21   -1    0    0  504  503  0.00000000000E+00  0.00000000000E+00  0.19291442676E+04  0.19291442676E+04  0.00000000000E+00 0.  1.
         21   -1    0    0  502  504 -0.00000000000E+00 -0.00000000000E+00 -0.24343313663E+02  0.24343313663E+02  0.00000000000E+00 0. -1.
          6    2    1    2  502    0  0.10679742407E+03  0.77886933699E+02  0.90027403405E+03  0.92615941436E+03  0.17264373778E+03 0.  0.
         24    2    3    3    0    0  0.12186879611E+03  0.16317655987E+02  0.71711641416E+03  0.73228645096E+03  0.82880790533E+02 0.  0.
         -6    2    1    2    0  503 -0.10679742407E+03 -0.77886933699E+02  0.10045269199E+04  0.10273281670E+04  0.16987279214E+03 0.  0.
        -24    2    5    5    0    0  0.65456070795E+01 -0.46741759646E+02  0.34350045240E+03  0.35591566680E+03  0.80347769159E+02 0.  0.
          2    1    4    4  501    0  0.31574440628E+02 -0.26526599269E+02  0.12060711916E+03  0.12746247668E+03  0.00000000000E+00 0. -1.
         -1    1    4    4    0  501  0.90294355485E+02  0.42844255256E+02  0.59650929499E+03  0.60482397427E+03  0.00000000000E+00 0.  1.
          5    1    3    3  502    0 -0.15071372048E+02  0.61569277713E+02  0.18315761989E+03  0.19387296340E+03  0.47000000000E+01 0. -1.
         13    1    6    6    0    0  0.95207297995E+01  0.22198070280E+02  0.92873511880E+02  0.95962950293E+02  0.00000000000E+00 0. -1.
        -14    1    6    6    0    0 -0.29751227199E+01 -0.68939829926E+02  0.25062694052E+03  0.25995271650E+03  0.00000000000E+00 0.  1.
         -5    1    5    5    0  503 -0.11334303114E+03 -0.31145174053E+02  0.66102646754E+03  0.67141250015E+03  0.47000000000E+01 0.  1.
<mgrwt>
<rscale>  2 0.21688440E+03</rscale>
<asrwt>0</asrwt>
<pdfrwt beam="1">  1       21 0.29679131E+00 0.21743487E+03</pdfrwt>
<pdfrwt beam="2">  1       21 0.37451267E-02 0.21743487E+03</pdfrwt>
<totfact> 0.15211541E+04</totfact>
</mgrwt>
</event>
<event>
12    1  0.2762290E-001  0.1813966E+03  0.7546771E-02  0.1167829E+00
         21   -1    0    0  504  503  0.00000000000E+00  0.00000000000E+00  0.11350207055E+03  0.11350207055E+03  0.00000000000E+00 0. -1.
         21   -1    0    0  502  504 -0.00000000000E+00 -0.00000000000E+00 -0.38377829960E+03  0.38377829960E+03  0.00000000000E+00 0. -1.
          6    2    1    2  502    0  0.32431154588E+02  0.42568817366E+02 -0.26536726782E+03  0.32144130137E+03  0.17332293384E+03 0.  0.
         24    2    3    3    0    0  0.24843758947E+02 -0.26479684358E+02 -0.22580942245E+03  0.24136522945E+03  0.77129065078E+02 0.  0.
         -6    2    1    2    0  503 -0.32431154588E+02 -0.42568817366E+02 -0.49089612357E+01  0.17583906879E+03  0.16742579315E+03 0.  0.
        -24    2    5    5    0    0 -0.64205132085E+02  0.20522605372E+02  0.41270704812E+01  0.10446783412E+03  0.79705830009E+02 0.  0.
          4    1    4    4  501    0  0.25282953558E+02 -0.34141276244E+02 -0.50953091769E+02  0.66340576158E+02  0.00000000000E+00 0. -1.
         -3    1    4    4    0  501 -0.43919461071E+00  0.76615918859E+01 -0.17485633068E+03  0.17502465329E+03  0.00000000000E+00 0.  1.
          5    1    3    3  502    0  0.75873956410E+01  0.69048501724E+02 -0.39557845369E+02  0.80076071914E+02  0.47000000000E+01 0. -1.
         11    1    6    6    0    0 -0.89802499555E+01 -0.27987263906E+02 -0.67622044574E+01  0.30160557676E+02  0.00000000000E+00 0. -1.
        -12    1    6    6    0    0 -0.55224882130E+02  0.48509869278E+02  0.10889274939E+02  0.74307276443E+02  0.00000000000E+00 0.  1.
         -5    1    5    5    0  503  0.31773977497E+02 -0.63091422738E+02 -0.90360317168E+01  0.71371234670E+02  0.47000000000E+01 0.  1.
<mgrwt>
<rscale>  2 0.17997342E+03</rscale>
<asrwt>0</asrwt>
<pdfrwt beam="1">  1       21 0.17461857E-01 0.18139659E+03</pdfrwt>
<pdfrwt beam="2">  1       21 0.59042814E-01 0.18139659E+03</pdfrwt>
<totfact> 0.80012194E+04</totfact>
</mgrwt>
</event>
<event>
12    1  0.2762290E-001  0.2281812E+03  0.7546771E-02  0.1127963E+00
         21   -1    0    0  504  503  0.00000000000E+00  0.00000000000E+00  0.58945418836E+02  0.58945418836E+02  0.00000000000E+00 0. -1.
         21   -1    0    0  502  504 -0.00000000000E+00 -0.00000000000E+00 -0.96989978624E+03  0.96989978624E+03  0.00000000000E+00 0. -1.
          6    2    1    2  502    0  0.44159066168E+02  0.14208764367E+03 -0.30087269563E+03  0.37748790789E+03  0.17272469429E+03 0.  0.
         24    2    3    3    0    0 -0.11818450242E+02  0.53199790213E+02 -0.23457690141E+03  0.25318281883E+03  0.78136570372E+02 0.  0.
         -6    2    1    2    0  503 -0.44159066168E+02 -0.14208764367E+03 -0.61008167178E+03  0.65135729719E+03  0.17299641833E+03 0.  0.
        -24    2    5    5    0    0  0.28799278958E+02 -0.26113315102E+02 -0.27478562077E+03  0.28911635965E+03  0.81054477604E+02 0.  0.
          2    1    4    4  501    0 -0.15753080670E+02 -0.45113417013E+01 -0.14894797096E+03  0.14984662094E+03  0.00000000000E+00 0. -1.
         -1    1    4    4    0  501  0.39346304281E+01  0.57711131914E+02 -0.85628930449E+02  0.10333619788E+03  0.00000000000E+00 0.  1.
          5    1    3    3  502    0  0.55977516410E+02  0.88887853456E+02 -0.66295794221E+02  0.12430508906E+03  0.47000000000E+01 0. -1.
         11    1    6    6    0    0 -0.11873407831E+02 -0.27137620178E+02 -0.34770500305E+02  0.45677302174E+02  0.00000000000E+00 0. -1.
        -12    1    6    6    0    0  0.40672686789E+02  0.10243050758E+01 -0.24001512047E+03  0.24343905748E+03  0.00000000000E+00 0.  1.
         -5    1    5    5    0  503 -0.72958345126E+02 -0.11597432857E+03 -0.33529605101E+03  0.36224093754E+03  0.47000000000E+01 0.  1.
<mgrwt>
<rscale>  2 0.22812975E+03</rscale>
<asrwt>0</asrwt>
<pdfrwt beam="1">  1       21 0.90685258E-02 0.22818125E+03</pdfrwt>
<pdfrwt beam="2">  1       21 0.14921535E+00 0.22818125E+03</pdfrwt>
<totfact> 0.28592853E+04</totfact>
</mgrwt>
</event>
<event>
12    1  0.2762290E-001  0.2410939E+03  0.7546771E-02  0.1119669E+00
         21   -1    0    0  504  503  0.00000000000E+00  0.00000000000E+00  0.33070485104E+03  0.33070485104E+03  0.00000000000E+00 0. -1.
         21   -1    0    0  502  504 -0.00000000000E+00 -0.00000000000E+00 -0.17395536106E+03  0.17395536106E+03  0.00000000000E+00 0. -1.
          6    2    1    2  502    0 -0.10864785710E+03 -0.12420896170E+03  0.95030280431E+02  0.25579176219E+03  0.17078187370E+03 0.  0.
         24    2    3    3    0    0 -0.63523221509E+02 -0.18210884122E+02  0.92999926043E+02  0.14047464496E+03  0.81959158494E+02 0.  0.
         -6    2    1    2    0  503  0.10864785710E+03  0.12420896170E+03  0.61719209551E+02  0.24886844991E+03  0.17576695229E+03 0.  0.
        -24    2    5    5    0    0  0.28815111443E+01  0.92410541550E+02  0.13705808761E+01  0.12292518315E+03  0.80998215189E+02 0.  0.
          2    1    4    4  501    0 -0.50777255709E+02  0.61993009348E+01  0.88251997987E+01  0.51909971883E+02  0.00000000000E+00 0. -1.
         -1    1    4    4    0  501 -0.12745965800E+02 -0.24410185057E+02  0.84174726245E+02  0.88564673076E+02  0.00000000000E+00 0.  1.
          5    1    3    3  502    0 -0.45124635591E+02 -0.10599807757E+03  0.20303543877E+01  0.11531711723E+03  0.47000000000E+01 0. -1.
         13    1    6    6    0    0  0.35637981115E+02  0.54801522972E+02  0.21971469093E+02  0.68963889624E+02  0.00000000000E+00 0. -1.
        -14    1    6    6    0    0 -0.32756469971E+02  0.37609018578E+02 -0.20600888217E+02  0.53961293523E+02  0.00000000000E+00 0.  1.
         -5    1    5    5    0  503  0.10576634596E+03  0.31798420145E+02  0.60348628675E+02  0.12594326677E+03  0.47000000000E+01 0.  1.
<mgrwt>
<rscale>  2 0.24018629E+03</rscale>
<asrwt>0</asrwt>
<pdfrwt beam="1">  1       21 0.50877669E-01 0.24109385E+03</pdfrwt>
<pdfrwt beam="2">  1       21 0.26762363E-01 0.24109385E+03</pdfrwt>
<totfact> 0.47772999E+04</totfact>
</mgrwt>
</event>
<event>
12    1  0.2762290E-001  0.1746477E+03  0.7546771E-02  0.1173532E+00
         21   -1    0    0  504  503  0.00000000000E+00  0.00000000000E+00  0.72824161031E+03  0.72824161031E+03  0.00000000000E+00 0.  1.
         21   -1    0    0  502  504 -0.00000000000E+00 -0.00000000000E+00 -0.76983372101E+02  0.76983372101E+02  0.00000000000E+00 0.  1.
          6    2    1    2  502    0 -0.80063581009E+00  0.22652856193E+02  0.53038257870E+02  0.18252358625E+03  0.17317046466E+03 0.  0.
         24    2    3    3    0    0 -0.28775504548E+01  0.29143640470E+02 -0.37473497483E+02  0.91634028482E+02  0.78325603003E+02 0.  0.
         -6    2    1    2    0  503  0.80063581009E+00 -0.22652856193E+02  0.59821998034E+03  0.62270139616E+03  0.17139454772E+03 0.  0.
        -24    2    5    5    0    0  0.22676291740E+02  0.23167604378E+01  0.57761050508E+03  0.58334575428E+03  0.78350442694E+02 0.  0.
          4    1    4    4  501    0  0.32643903950E+02  0.52663350698E+01 -0.35895641033E+02  0.48804260013E+02  0.00000000000E+00 0. -1.
         -3    1    4    4    0  501 -0.35521454405E+02  0.23877305400E+02 -0.15778564493E+01  0.42829768470E+02  0.00000000000E+00 0.  1.
          5    1    3    3  502    0  0.20769146447E+01 -0.64907842765E+01  0.90511755353E+02  0.90889557772E+02  0.47000000000E+01 0. -1.
         13    1    6    6    0    0  0.39276213033E+02  0.20176667227E+02  0.19402135209E+03  0.19898242102E+03  0.00000000000E+00 0. -1.
        -14    1    6    6    0    0 -0.16599921293E+02 -0.17859906790E+02  0.38358915300E+03  0.38436333326E+03  0.00000000000E+00 0.  1.
         -5    1    5    5    0  503 -0.21875655930E+02 -0.24969616631E+02  0.20609475256E+02  0.39355641875E+02  0.47000000000E+01 0.  1.
<mgrwt>
<rscale>  2 0.17420579E+03</rscale>
<asrwt>0</asrwt>
<pdfrwt beam="1">  1       21 0.11203717E+00 0.17464765E+03</pdfrwt>
<pdfrwt beam="2">  1       21 0.11843596E-01 0.17464765E+03</pdfrwt>
<totfact> 0.37904068E+04</totfact>
</mgrwt>
</event>
<event>
12    1  0.2762290E-001  0.2096517E+03  0.7546771E-02  0.1141964E+00
         21   -1    0    0  504  503  0.00000000000E+00  0.00000000000E+00  0.14050978905E+03  0.14050978905E+03  0.00000000000E+00 0.  1.
         21   -1    0    0  502  504 -0.00000000000E+00 -0.00000000000E+00 -0.48277853976E+03  0.48277853976E+03  0.00000000000E+00 0. -1.
          6    2    1    2  502    0  0.97511018512E+02 -0.65905183880E+02 -0.35638044799E+03  0.41316219769E+03  0.17275440920E+03 0.  0.
         24    2    3    3    0    0  0.10687920061E+03 -0.88113110743E+02 -0.20594748389E+03  0.26073804757E+03  0.79892925360E+02 0.  0.
         -6    2    1    2    0  503 -0.97511018512E+02  0.65905183880E+02  0.14111697278E+02  0.21012613112E+03  0.17349916134E+03 0.  0.
        -24    2    5    5    0    0 -0.44422977337E+02  0.98529734569E+02 -0.23807235813E+02  0.13703278730E+03  0.80806502269E+02 0.  0.
          2    1    4    4  501    0  0.72406832193E+02 -0.42349235998E+02 -0.17846041765E+03  0.19719109464E+03  0.00000000000E+00 0. -1.
         -1    1    4    4    0  501  0.34472368421E+02 -0.45763874745E+02 -0.27487066236E+02  0.63546952928E+02  0.00000000000E+00 0.  1.
          5    1    3    3  502    0 -0.93681821017E+01  0.22207926863E+02 -0.15043296410E+03  0.15242415012E+03  0.47000000000E+01 0. -1.
         11    1    6    6    0    0  0.21086650554E+01  0.70643925389E+02  0.12478027535E+02  0.71768459882E+02  0.00000000000E+00 0. -1.
        -12    1    6    6    0    0 -0.46531642393E+02  0.27885809180E+02 -0.36285263348E+02  0.65264327420E+02  0.00000000000E+00 0.  1.
         -5    1    5    5    0  503 -0.53088041175E+02 -0.32624550689E+02  0.37918933091E+02  0.73093343816E+02  0.47000000000E+01 0.  1.
<mgrwt>
<rscale>  2 0.20949759E+03</rscale>
<asrwt>0</asrwt>
<pdfrwt beam="1">  1       21 0.21616891E-01 0.20965174E+03</pdfrwt>
<pdfrwt beam="2">  1       21 0.74273621E-01 0.20965174E+03</pdfrwt>
<totfact> 0.32120508E+04</totfact>
</mgrwt>
</event>
<event>
12    1  0.2762290E-001  0.1813194E+03  0.7546771E-02  0.1166619E+00
         21   -1    0    0  504  503  0.00000000000E+00  0.00000000000E+00  0.53152033303E+02  0.53152033303E+02  0.00000000000E+00 0.  1.
         21   -1    0    0  502  504 -0.00000000000E+00 -0.00000000000E+00 -0.90588653421E+03  0.90588653421E+03  0.00000000000E+00 0.  1.
          6    2    1    2  502    0  0.49378184946E+02 -0.21947491738E+02 -0.69730602852E+03  0.72049456795E+03  0.17308040757E+03 0.  0.
         24    2    3    3    0    0 -0.24059639079E+02 -0.41948232836E+02 -0.36574164050E+03  0.38027379102E+03  0.92210021563E+02 0.  0.
         -6    2    1    2    0  503 -0.49378184946E+02  0.21947491738E+02 -0.15542847239E+03  0.23854399957E+03  0.17270012206E+03 0.  0.
        -24    2    5    5    0    0  0.26737252449E+02 -0.27462167614E+02 -0.11425702982E+03  0.13878402799E+03  0.68827946666E+02 0.  0.
          2    1    4    4  501    0  0.33532281791E+02 -0.30638824374E+02 -0.16180799135E+03  0.16806242157E+03  0.00000000000E+00 0. -1.
         -1    1    4    4    0  501 -0.57591920871E+02 -0.11309408462E+02 -0.20393364915E+03  0.21221136945E+03  0.00000000000E+00 0.  1.
          5    1    3    3  502    0  0.73437824025E+02  0.20000741098E+02 -0.33156438803E+03  0.34022077692E+03  0.47000000000E+01 0. -1.
         11    1    6    6    0    0 -0.33762170567E+01 -0.43954041166E+02 -0.70769605372E+02  0.83376817047E+02  0.00000000000E+00 0. -1.
        -12    1    6    6    0    0  0.30113469506E+02  0.16491873552E+02 -0.43487424451E+02  0.55407210941E+02  0.00000000000E+00 0.  1.
         -5    1    5    5    0  503 -0.76115437395E+02  0.49409659352E+02 -0.41171442567E+02  0.99759971583E+02  0.47000000000E+01 0.  1.
<mgrwt>
<rscale>  2 0.18122859E+03</rscale>
<asrwt>0</asrwt>
<pdfrwt beam="1">  1       21 0.81772357E-02 0.18131940E+03</pdfrwt>
<pdfrwt beam="2">  1       21 0.13936716E+00 0.18131940E+03</pdfrwt>
<totfact> 0.42087756E+04</totfact>
</mgrwt>
</event>
<event>
12    1  0.2762290E-001  0.1856545E+03  0.7546771E-02  0.1163069E+00
         21   -1    0    0  504  503  0.00000000000E+00  0.00000000000E+00  0.26579722218E+03  0.26579722218E+03  0.00000000000E+00 0.  1.
         21   -1    0    0  502  504 -0.00000000000E+00 -0.00000000000E+00 -0.14621995831E+03  0.14621995831E+03  0.00000000000E+00 0.  1.
          6    2    1    2  502    0 -0.57133652241E+02 -0.11057828354E+02  0.13250950667E+03  0.22591279875E+03  0.17346842218E+03 0.  0.
         24    2    3    3    0    0 -0.67086757769E+02 -0.68066858593E+02  0.75905443313E+02  0.14482516820E+03  0.77967703015E+02 0.  0.
         -6    2    1    2    0  503  0.57133652241E+02  0.11057828354E+02 -0.12932242806E+02  0.18610438175E+03  0.17629823656E+03 0.  0.
        -24    2    5    5    0    0 -0.33649696255E+02 -0.59020951589E+01 -0.33049828108E+02  0.91467905651E+02  0.78146975891E+02 0.  0.
          2    1    4    4  501    0 -0.36436034564E+01 -0.47812462994E+02  0.59163309281E+02  0.76155135275E+02  0.00000000000E+00 0. -1.
         -1    1    4    4    0  501 -0.63443154312E+02 -0.20254395599E+02  0.16742134032E+02  0.68670032926E+02  0.00000000000E+00 0.  1.
          5    1    3    3  502    0  0.99531055271E+01  0.57009030239E+02  0.56604063359E+02  0.81087630544E+02  0.47000000000E+01 0. -1.
         13    1    6    6    0    0 -0.46272434121E+02 -0.48232535299E+01  0.91439766758E+01  0.47413228571E+02  0.00000000000E+00 0. -1.
        -14    1    6    6    0    0  0.12622737866E+02 -0.10788416289E+01 -0.42193804784E+02  0.44054677080E+02  0.00000000000E+00 0.  1.
         -5    1    5    5    0  503  0.90783348496E+02  0.16959923513E+02  0.20117585302E+02  0.94636476098E+02  0.47000000000E+01 0.  1.
<mgrwt>
<rscale>  2 0.18497958E+03</rscale>
<asrwt>0</asrwt>
<pdfrwt beam="1">  1       21 0.40891880E-01 0.18565451E+03</pdfrwt>
<pdfrwt beam="2">  1       21 0.22495378E-01 0.18565451E+03</pdfrwt>
<totfact> 0.10689614E+05</totfact>
</mgrwt>
</event>
<event>
12    1  0.2762290E-001  0.2002913E+03  0.7546771E-02  0.1151129E+00
         21   -1    0    0  504  503  0.00000000000E+00  0.00000000000E+00  0.22690432064E+04  0.22690432064E+04  0.00000000000E+00 0. -1.
         21   -1    0    0  502  504 -0.00000000000E+00 -0.00000000000E+00 -0.21862777547E+02  0.21862777547E+02  0.00000000000E+00 0. -1.
          6    2    1    2  502    0 -0.10028729339E+03 -0.16790908783E+02  0.60120440380E+03  0.63369026763E+03  0.17256055255E+03 0.  0.
         24    2    3    3    0    0 -0.57965273087E+02 -0.64845809955E+02  0.23530968646E+03  0.26220478862E+03  0.76261069249E+02 0.  0.
         -6    2    1    2    0  503  0.10028729339E+03  0.16790908783E+02  0.16459760250E+04  0.16572157163E+04  0.16366850506E+03 0.  0.
        -24    2    5    5    0    0  0.56609180547E+02  0.18939534878E+02  0.15286994831E+04  0.15319628863E+04  0.80155287280E+02 0.  0.
          4    1    4    4  501    0 -0.65895134660E+02 -0.76216463818E+02  0.21690926126E+03  0.23916677392E+03  0.00000000000E+00 0. -1.
         -3    1    4    4    0  501  0.79298615732E+01  0.11370653862E+02  0.18400425203E+02  0.23038014703E+02  0.00000000000E+00 0.  1.
          5    1    3    3  502    0 -0.42322020307E+02  0.48054901173E+02  0.36589471734E+03  0.37148547900E+03  0.47000000000E+01 0. -1.
         13    1    6    6    0    0  0.70872052918E+02  0.13349922498E+02  0.83916418063E+03  0.84225743711E+03  0.00000000000E+00 0. -1.
        -14    1    6    6    0    0 -0.14262872371E+02  0.55896123800E+01  0.68953530244E+03  0.68970544916E+03  0.00000000000E+00 0.  1.
         -5    1    5    5    0  503  0.43678112847E+02 -0.21486260950E+01  0.11727654197E+03  0.12525283004E+03  0.47000000000E+01 0.  1.
<mgrwt>
<rscale>  2 0.19836162E+03</rscale>
<asrwt>0</asrwt>
<pdfrwt beam="1">  1       21 0.34908339E+00 0.20029134E+03</pdfrwt>
<pdfrwt beam="2">  1       21 0.33635060E-02 0.20029134E+03</pdfrwt>
<totfact> 0.91837194E+03</totfact>
</mgrwt>
</event>
<event>
12    1  0.2762290E-001  0.2463861E+03  0.7546771E-02  0.1115652E+00
         21   -1    0    0  504  503  0.00000000000E+00  0.00000000000E+00  0.11566752019E+04  0.11566752019E+04  0.00000000000E+00 0. -1.
         21   -1    0    0  502  504 -0.00000000000E+00 -0.00000000000E+00 -0.10647319757E+03  0.10647319757E+03  0.00000000000E+00 0.  1.
          6    2    1    2  502    0 -0.10792804838E+03  0.13838418654E+03  0.74993078409E+02  0.25729624979E+03  0.17256520980E+03 0.  0.
         24    2    3    3    0    0 -0.51534504240E+02  0.12965376668E+02  0.70999464257E+02  0.11964397540E+03  0.80310963170E+02 0.  0.
         -6    2    1    2    0  503  0.10792804838E+03 -0.13838418654E+03  0.97520892595E+03  0.10058521497E+04  0.17293770880E+03 0.  0.
        -24    2    5    5    0    0  0.13554705756E+03 -0.10288152880E+03  0.89596237653E+03  0.91460877204E+03  0.69303765829E+02 0.  0.
          2    1    4    4  501    0 -0.19691136027E+02  0.10835295152E+02  0.82663733881E+02  0.85664679759E+02  0.00000000000E+00 0. -1.
         -1    1    4    4    0  501 -0.31843368213E+02  0.21300815160E+01 -0.11664269624E+02  0.33979295641E+02  0.00000000000E+00 0.  1.
          5    1    3    3  502    0 -0.56393544139E+02  0.12541880987E+03  0.39936141519E+01  0.13765227439E+03  0.47000000000E+01 0. -1.
         11    1    6    6    0    0  0.94142032814E+02 -0.99602359574E+02  0.76620705118E+03  0.77836790636E+03  0.00000000000E+00 0. -1.
        -12    1    6    6    0    0  0.41405024744E+02 -0.32791692296E+01  0.12975532535E+03  0.13624086568E+03  0.00000000000E+00 0.  1.
         -5    1    5    5    0  503 -0.27619009178E+02 -0.35502657738E+02  0.79246549423E+02  0.91243377677E+02  0.47000000000E+01 0.  1.
<mgrwt>
<rscale>  2 0.24632072E+03</rscale>
<asrwt>0</asrwt>
<pdfrwt beam="1">  1       21 0.17795002E+00 0.24638607E+03</pdfrwt>
<pdfrwt beam="2">  1       21 0.16380493E-01 0.24638607E+03</pdfrwt>
<totfact> 0.60183729E+03</totfact>
</mgrwt>
</event>
<event>
12    1  0.2762290E-001  0.2164587E+03  0.7546771E-02  0.1136584E+00
         21   -1    0    0  504  503  0.00000000000E+00  0.00000000000E+00  0.13919357027E+04  0.13919357027E+04  0.00000000000E+00 0.  1.
         21   -1    0    0  502  504 -0.00000000000E+00 -0.00000000000E+00 -0.10467310452E+03  0.10467310452E+03  0.00000000000E+00 0. -1.
          6    2    1    2  502    0 -0.13082943010E+03 -0.91590407913E+01  0.27082215239E+02  0.21797322092E+03  0.17198444944E+03 0.  0.
         24    2    3    3    0    0 -0.91251454381E+01  0.31861778705E+02  0.21930706148E+02  0.89352582672E+02  0.80028038440E+02 0.  0.
         -6    2    1    2    0  503  0.13082943010E+03  0.91590407913E+01  0.12601803830E+04  0.12786355863E+04  0.17220376650E+03 0.  0.
        -24    2    5    5    0    0  0.75242075166E+02  0.16781181077E+02  0.11430946058E+04  0.11487155330E+04  0.83301380175E+02 0.  0.
          2    1    4    4  501    0 -0.16581995499E+02 -0.10479002696E+02 -0.20902175851E+02  0.28664839570E+02  0.00000000000E+00 0. -1.
         -1    1    4    4    0  501  0.74568500613E+01  0.42340781401E+02  0.42832881999E+02  0.60687743102E+02  0.00000000000E+00 0.  1.
          5    1    3    3  502    0 -0.12170428466E+03 -0.41020819496E+02  0.51515090904E+01  0.12862063825E+03  0.47000000000E+01 0. -1.
         13    1    6    6    0    0  0.43714069564E+02  0.29570123572E+02  0.27878151333E+03  0.28373305105E+03  0.00000000000E+00 0. -1.
        -14    1    6    6    0    0  0.31528005602E+02 -0.12788942495E+02  0.86431309250E+03  0.86498248193E+03  0.00000000000E+00 0.  1.
         -5    1    5    5    0  503  0.55587354936E+02 -0.76221402857E+01  0.11708577713E+03  0.12992005333E+03  0.47000000000E+01 0.  1.
<mgrwt>
<rscale>  2 0.21641507E+03</rscale>
<asrwt>0</asrwt>
<pdfrwt beam="1">  1       21 0.21414394E+00 0.21645869E+03</pdfrwt>
<pdfrwt beam="2">  1       21 0.16103555E-01 0.21645869E+03</pdfrwt>
<totfact> 0.36827588E+03</totfact>
</mgrwt>
</event>
<event>
12    1  0.2762290E-001  0.2044161E+03  0.7546771E-02  0.1147497E+00
         21   -1    0    0  504  503  0.00000000000E+00  0.00000000000E+00  0.18461535136E+03  0.18461535136E+03  0.00000000000E+00 0.  1.
         21   -1    0    0  502  504 -0.00000000000E+00 -0.00000000000E+00 -0.23880359290E+03  0.23880359290E+03  0.00000000000E+00 0. -1.
          6    2    1    2  502    0  0.71888526474E+02  0.68181801131E+02 -0.88758954028E+02  0.22285444072E+03  0.17879941718E+03 0.  0.
         24    2    3    3    0    0 -0.40387903390E+01  0.55736993889E+01  0.11599897221E+02  0.82217600357E+02  0.81103626557E+02 0.  0.
         -6    2    1    2    0  503 -0.71888526474E+02 -0.68181801131E+02  0.34570712488E+02  0.20056450355E+03  0.17092181744E+03 0.  0.
        -24    2    5    5    0    0 -0.90476532883E+02  0.34277976918E+01  0.39482881347E+02  0.12627003519E+03  0.78660479709E+02 0.  0.
          2    1    4    4  501    0 -0.15874704357E+02  0.24367676457E+02  0.37913757323E+02  0.47783290894E+02  0.00000000000E+00 0. -1.
         -1    1    4    4    0  501  0.11835914019E+02 -0.18793977068E+02 -0.26313860102E+02  0.34434309463E+02  0.00000000000E+00 0.  1.
          5    1    3    3  502    0  0.75927316813E+02  0.62608101742E+02 -0.10035885125E+03  0.14063684036E+03  0.47000000000E+01 0. -1.
         11    1    6    6    0    0 -0.40646344007E+02  0.34216077954E+02 -0.40578408112E+01  0.53285376453E+02  0.00000000000E+00 0. -1.
        -12    1    6    6    0    0 -0.49830188876E+02 -0.30788280262E+02  0.43540722158E+02  0.72984658737E+02  0.00000000000E+00 0.  1.
         -5    1    5    5    0  503  0.18588006409E+02 -0.71609598823E+02 -0.49121688589E+01  0.74294468359E+02  0.47000000000E+01 0.  1.
<mgrwt>
<rscale>  2 0.20268077E+03</rscale>
<asrwt>0</asrwt>
<pdfrwt beam="1">  1       21 0.28402362E-01 0.20441612E+03</pdfrwt>
<pdfrwt beam="2">  1       21 0.36739014E-01 0.20441612E+03</pdfrwt>
<totfact> 0.84262319E+04</totfact>
</mgrwt>
</event>
<event>
12    1  0.2762290E-001  0.1939428E+03  0.7546771E-02  0.1155169E+00
         21   -1    0    0  504  503  0.00000000000E+00  0.00000000000E+00  0.44821844682E+02  0.44821844682E+02  0.00000000000E+00 0.  1.
         21   -1    0    0  502  504 -0.00000000000E+00 -0.00000000000E+00 -0.96678620534E+03  0.96678620534E+03  0.00000000000E+00 0.  1.
          6    2    1    2  502    0  0.41694674480E+02  0.75915138533E+02 -0.64878105854E+03  0.67714892575E+03  0.17352882062E+03 0.  0.
         24    2    3    3    0    0 -0.30684976772E+02  0.44674737292E+02 -0.49149937109E+03  0.50115348322E+03  0.81521665880E+02 0.  0.
         -6    2    1    2    0  503 -0.41694674480E+02 -0.75915138533E+02 -0.27318330212E+03  0.33445912428E+03  0.17243037759E+03 0.  0.
        -24    2    5    5    0    0  0.28046309336E+02  0.15637566292E+01 -0.14238824208E+03  0.16713840903E+03  0.82896293575E+02 0.  0.
          2    1    4    4  501    0 -0.36811371881E+02  0.24573258674E+02 -0.10325832243E+03  0.11234412887E+03  0.00000000000E+00 0. -1.
         -1    1    4    4    0  501  0.61263951091E+01  0.20101478618E+02 -0.38824104866E+03  0.38880935434E+03  0.00000000000E+00 0.  1.
          5    1    3    3  502    0  0.72379651251E+02  0.31240401241E+02 -0.15728168745E+03  0.17599544253E+03  0.47000000000E+01 0. -1.
         11    1    6    6    0    0 -0.16839945321E+01 -0.34711447702E+01 -0.13632705307E+03  0.13638163397E+03  0.00000000000E+00 0. -1.
        -12    1    6    6    0    0  0.29730303868E+02  0.50349013993E+01 -0.60611890064E+01  0.30756775064E+02  0.00000000000E+00 0.  1.
         -5    1    5    5    0  503 -0.69740983815E+02 -0.77478895163E+02 -0.13079506004E+03  0.16732071525E+03  0.47000000000E+01 0.  1.
<mgrwt>
<rscale>  2 0.19369677E+03</rscale>
<asrwt>0</asrwt>
<pdfrwt beam="1">  1       21 0.68956686E-02 0.19394279E+03</pdfrwt>
<pdfrwt beam="2">  1       21 0.14873634E+00 0.19394279E+03</pdfrwt>
<totfact> 0.47411606E+04</totfact>
</mgrwt>
</event>
<event>
12    1  0.2762290E-001  0.1881199E+03  0.7546771E-02  0.1161464E+00
         21   -1    0    0  504  503  0.00000000000E+00  0.00000000000E+00  0.19010153592E+03  0.19010153592E+03  0.00000000000E+00 0.  1.
         21   -1    0    0  502  504 -0.00000000000E+00 -0.00000000000E+00 -0.18470215724E+03  0.18470215724E+03  0.00000000000E+00 0.  1.
          6    2    1    2  502    0 -0.38424981216E+02 -0.64343285587E+02 -0.24931222136E+02  0.18976478249E+03  0.17254729571E+03 0.  0.
         24    2    3    3    0    0  0.21618409233E+02  0.17278556660E+02 -0.17636546711E+02  0.88066030494E+02  0.81723153445E+02 0.  0.
         -6    2    1    2    0  503  0.38424981216E+02  0.64343285587E+02  0.30330600818E+02  0.18503891066E+03  0.16644192840E+03 0.  0.
        -24    2    5    5    0    0  0.42027270175E+02  0.10004724695E+03 -0.40357784456E+01  0.13513012019E+03  0.80424615727E+02 0.  0.
          4    1    4    4  501    0 -0.42704718448E+01  0.10564744882E+02  0.30742445785E+02  0.32786410859E+02  0.00000000000E+00 0. -1.
         -3    1    4    4    0  501  0.25888881078E+02  0.67138117778E+01 -0.48378992496E+02  0.55279619635E+02  0.00000000000E+00 0.  1.
          5    1    3    3  502    0 -0.60043390450E+02 -0.81621842247E+02 -0.72946754251E+01  0.10169875200E+03  0.47000000000E+01 0. -1.
         13    1    6    6    0    0  0.60034171412E+02  0.47258293261E+02  0.11421642724E+02  0.77252197001E+02  0.00000000000E+00 0. -1.
        -14    1    6    6    0    0 -0.18006901237E+02  0.52788953686E+02 -0.15457421170E+02  0.57877923189E+02  0.00000000000E+00 0.  1.
         -5    1    5    5    0  503 -0.36022889587E+01 -0.35703961360E+02  0.34366379263E+02  0.49908790470E+02  0.47000000000E+01 0.  1.
<mgrwt>
<rscale>  2 0.18670817E+03</rscale>
<asrwt>0</asrwt>
<pdfrwt beam="1">  1       21 0.29246390E-01 0.18811993E+03</pdfrwt>
<pdfrwt beam="2">  1       21 0.28415717E-01 0.18811993E+03</pdfrwt>
<totfact> 0.13278738E+05</totfact>
</mgrwt>
</event>
<event>
12    1  0.2762290E-001  0.1940144E+03  0.7546771E-02  0.1154895E+00
         21   -1    0    0  504  503  0.00000000000E+00  0.00000000000E+00  0.85656668239E+03  0.85656668239E+03  0.00000000000E+00 0.  1.
         21   -1    0    0  502  504 -0.00000000000E+00 -0.00000000000E+00 -0.44845861846E+02  0.44845861846E+02  0.00000000000E+00 0.  1.
          6    2    1    2  502    0  0.78570177009E+02 -0.40248950289E+02  0.46996796761E+03  0.50844024462E+03  0.17276672437E+03 0.  0.
         24    2    3    3    0    0  0.14732487245E+02 -0.72656914769E+02  0.37635142488E+03  0.39049248555E+03  0.73129425102E+02 0.  0.
         -6    2    1    2    0  503 -0.78570177009E+02  0.40248950289E+02  0.34175285293E+03  0.39297229962E+03  0.17273958743E+03 0.  0.
        -24    2    5    5    0    0 -0.24364803516E+02  0.83838766976E+02  0.16346947285E+03  0.20154255207E+03  0.79212052378E+02 0.  0.
          2    1    4    4  501    0 -0.20634223380E+02  0.19341109605E+01  0.97513593680E+02  0.99691588974E+02  0.00000000000E+00 0. -1.
         -1    1    4    4    0  501  0.35366710625E+02 -0.74591025730E+02  0.27883783120E+03  0.29080089658E+03  0.00000000000E+00 0.  1.
          5    1    3    3  502    0  0.63837689764E+02  0.32407964480E+02  0.93616542731E+02  0.11794775907E+03  0.47000000000E+01 0. -1.
         13    1    6    6    0    0  0.13934314883E+02  0.20300452829E+02  0.30652795148E+01  0.24812687376E+02  0.00000000000E+00 0. -1.
        -14    1    6    6    0    0 -0.38299118399E+02  0.63538314147E+02  0.16040419333E+03  0.17672986469E+03  0.00000000000E+00 0.  1.
         -5    1    5    5    0  503 -0.54205373493E+02 -0.43589816687E+02  0.17828338008E+03  0.19142974755E+03  0.47000000000E+01 0.  1.
<mgrwt>
<rscale>  2 0.19400837E+03</rscale>
<asrwt>0</asrwt>
<pdfrwt beam="1">  1       21 0.13177948E+00 0.19401441E+03</pdfrwt>
<pdfrwt beam="2">  1       21 0.68993640E-02 0.19401441E+03</pdfrwt>
<totfact> 0.64733906E+04</totfact>
</mgrwt>
</event>
<event>
12    1  0.2762290E-001  0.2286058E+03  0.7546771E-02  0.1128338E+00
         21   -1    0    0  504  503  0.00000000000E+00  0.00000000000E+00  0.39085481382E+02  0.39085481382E+02  0.00000000000E+00 0. -1.
         21   -1    0    0  502  504 -0.00000000000E+00 -0.00000000000E+00 -0.13225975647E+04  0.13225975647E+04  0.00000000000E+00 0.  1.
          6    2    1    2  502    0 -0.11270533365E+03 -0.96564278969E+02 -0.58095199794E+03  0.62286556054E+03  0.16860940185E+03 0.  0.
         24    2    3    3    0    0 -0.14623454434E+03 -0.67774875457E+02 -0.45823647937E+03  0.49235032687E+03  0.80313122449E+02 0.  0.
         -6    2    1    2    0  503  0.11270533365E+03  0.96564278969E+02 -0.70256008542E+03  0.73881748558E+03  0.17387769026E+03 0.  0.
        -24    2    5    5    0    0  0.46619511382E+02  0.12393945383E+03 -0.48425256036E+03  0.50904150424E+03  0.84192302312E+02 0.  0.
          4    1    4    4  501    0 -0.53869390772E+02  0.61188780941E+01 -0.84998105413E+02  0.10081681336E+03  0.00000000000E+00 0. -1.
         -3    1    4    4    0  501 -0.92365153565E+02 -0.73893753552E+02 -0.37323837396E+03  0.39153351351E+03  0.00000000000E+00 0.  1.
          5    1    3    3  502    0  0.33529210688E+02 -0.28789403511E+02 -0.12271551857E+03  0.13051523368E+03  0.47000000000E+01 0. -1.
         13    1    6    6    0    0  0.24579131388E+01 -0.10724345377E+02 -0.13480635773E+02  0.17400587967E+02  0.00000000000E+00 0. -1.
        -14    1    6    6    0    0  0.44161598243E+02  0.13466379920E+03 -0.47077192458E+03  0.49164091627E+03  0.00000000000E+00 0.  1.
         -5    1    5    5    0  503  0.66085822268E+02 -0.27375174858E+02 -0.21830752506E+03  0.22977598134E+03  0.47000000000E+01 0.  1.
<mgrwt>
<rscale>  2 0.22760396E+03</rscale>
<asrwt>0</asrwt>
<pdfrwt beam="1">  1       21 0.60131505E-02 0.22860578E+03</pdfrwt>
<pdfrwt beam="2">  1       21 0.20347657E+00 0.22860578E+03</pdfrwt>
<totfact> 0.24432075E+04</totfact>
</mgrwt>
</event>
<event>
12    1  0.2762290E-001  0.1822154E+03  0.7546771E-02  0.1165818E+00
         21   -1    0    0  504  503  0.00000000000E+00  0.00000000000E+00  0.17821764013E+03  0.17821764013E+03  0.00000000000E+00 0. -1.
         21   -1    0    0  502  504 -0.00000000000E+00 -0.00000000000E+00 -0.39586712170E+03  0.39586712170E+03  0.00000000000E+00 0.  1.
          6    2    1    2  502    0 -0.38759975706E+01 -0.52998633967E+02 -0.31805841044E+03  0.36655641477E+03  0.17429450421E+03 0.  0.
         24    2    3    3    0    0 -0.53221990686E+02 -0.66526007160E+02 -0.14768353453E+03  0.18860219256E+03  0.80635418678E+02 0.  0.
         -6    2    1    2    0  503  0.38759975706E+01  0.52998633967E+02  0.10040892887E+03  0.20752834707E+03  0.17367263250E+03 0.  0.
        -24    2    5    5    0    0 -0.44592084332E+02  0.70929047157E+01  0.10731962945E+03  0.14025027691E+03  0.78191265661E+02 0.  0.
          4    1    4    4  501    0  0.12843398058E+02 -0.38987154666E+02 -0.29927118905E+02  0.50799444372E+02  0.00000000000E+00 0. -1.
         -3    1    4    4    0  501 -0.66065388744E+02 -0.27538852494E+02 -0.11775641563E+03  0.13780274819E+03  0.00000000000E+00 0.  1.
          5    1    3    3  502    0  0.49345993115E+02  0.13527373193E+02 -0.17037487591E+03  0.17795422221E+03  0.47000000000E+01 0. -1.
         11    1    6    6    0    0 -0.44548597587E+01  0.15157973816E+02  0.96664248807E+02  0.97946857750E+02  0.00000000000E+00 0. -1.
        -12    1    6    6    0    0 -0.40137224573E+02 -0.80650691007E+01  0.10655380644E+02  0.42303419161E+02  0.00000000000E+00 0.  1.
         -5    1    5    5    0  503  0.48468081903E+02  0.45905729251E+02 -0.69107005848E+01  0.67278070157E+02  0.47000000000E+01 0.  1.
<mgrwt>
<rscale>  2 0.18206653E+03</rscale>
<asrwt>0</asrwt>
<pdfrwt beam="1">  1       21 0.27418098E-01 0.18221540E+03</pdfrwt>
<pdfrwt beam="2">  1       21 0.60902634E-01 0.18221540E+03</pdfrwt>
<totfact> 0.32015639E+04</totfact>
</mgrwt>
</event>
<event>
12    1  0.2762290E-001  0.2459047E+03  0.7546771E-02  0.1115949E+00
         21   -1    0    0  504  503  0.00000000000E+00  0.00000000000E+00  0.27343207819E+03  0.27343207819E+03  0.00000000000E+00 0. -1.
         21   -1    0    0  502  504 -0.00000000000E+00 -0.00000000000E+00 -0.22292637601E+03  0.22292637601E+03  0.00000000000E+00 0.  1.
          6    2    1    2  502    0 -0.14346472638E+03  0.97494179472E+02  0.21469137455E+01  0.24591408646E+03  0.17430400436E+03 0.  0.
         24    2    3    3    0    0 -0.11043392947E+03  0.10160642630E+03 -0.54395514228E+02  0.18013354010E+03  0.83484739060E+02 0.  0.
         -6    2    1    2    0  503  0.14346472638E+03 -0.97494179472E+02  0.48358788434E+02  0.25044436774E+03  0.17405908815E+03 0.  0.
        -24    2    5    5    0    0  0.17266925316E+03 -0.70782053691E+02  0.26250205629E+02  0.20486672539E+03  0.80352546712E+02 0.  0.
          4    1    4    4  501    0 -0.77569240492E+01 -0.13825096970E+02  0.13127886515E+01  0.15906809579E+02  0.00000000000E+00 0. -1.
         -3    1    4    4    0  501 -0.10267700542E+03  0.11543152327E+03 -0.55708302880E+02  0.16422673052E+03  0.00000000000E+00 0.  1.
          5    1    3    3  502    0 -0.33030796907E+02 -0.41122468301E+01  0.56542427974E+02  0.65780546360E+02  0.47000000000E+01 0. -1.
         11    1    6    6    0    0  0.16897948440E+03 -0.48234943763E+02  0.37055515412E+02  0.17959339401E+03  0.00000000000E+00 0. -1.
        -12    1    6    6    0    0  0.36897687623E+01 -0.22547109928E+02 -0.10805309783E+02  0.25273331382E+02  0.00000000000E+00 0.  1.
         -5    1    5    5    0  503 -0.29204526787E+02 -0.26712125781E+02  0.22108582805E+02  0.45577642350E+02  0.47000000000E+01 0.  1.
<mgrwt>
<rscale>  2 0.24586132E+03</rscale>
<asrwt>0</asrwt>
<pdfrwt beam="1">  1       21 0.42066474E-01 0.24590471E+03</pdfrwt>
<pdfrwt beam="2">  1       21 0.34296365E-01 0.24590471E+03</pdfrwt>
<totfact> 0.43472243E+04</totfact>
</mgrwt>
</event>
<event>
12    1  0.2762290E-001  0.1799892E+03  0.7546771E-02  0.1168476E+00
         21   -1    0    0  504  503  0.00000000000E+00  0.00000000000E+00  0.14173156203E+03  0.14173156203E+03  0.00000000000E+00 0.  1.
         21   -1    0    0  502  504 -0.00000000000E+00 -0.00000000000E+00 -0.24226056620E+03  0.24226056620E+03  0.00000000000E+00 0. -1.
          6    2    1    2  502    0 -0.44835959341E+02 -0.20915241231E+02 -0.10165985100E+03  0.20671438645E+03  0.17305606517E+03 0.  0.
         24    2    3    3    0    0 -0.18811724825E+02 -0.74052852581E+02 -0.30822415116E+02  0.11429740291E+03  0.79222276367E+02 0.  0.
         -6    2    1    2    0  503  0.44835959341E+02  0.20915241231E+02  0.11308468330E+01  0.17727774179E+03  0.17023045660E+03 0.  0.
        -24    2    5    5    0    0  0.25400931085E+02 -0.16754669785E+02  0.61440673581E+02  0.10341227136E+03  0.77415859087E+02 0.  0.
          4    1    4    4  501    0  0.13217304209E+02 -0.57493591132E+02 -0.46365854805E+02  0.75033343546E+02  0.00000000000E+00 0. -1.
         -3    1    4    4    0  501 -0.32029029035E+02 -0.16559261449E+02  0.15543439689E+02  0.39264059367E+02  0.00000000000E+00 0.  1.
          5    1    3    3  502    0 -0.26024234516E+02  0.53137611350E+02 -0.70837435889E+02  0.92416983534E+02  0.47000000000E+01 0. -1.
         13    1    6    6    0    0  0.62298416962E+01 -0.28931529292E+02 -0.77474296922E+01  0.30591943083E+02  0.00000000000E+00 0. -1.
        -14    1    6    6    0    0  0.19171089389E+02  0.12176859508E+02  0.69188103273E+02  0.72820328277E+02  0.00000000000E+00 0.  1.
         -5    1    5    5    0  503  0.19435028256E+02  0.37669911015E+02 -0.60309826748E+02  0.73865470428E+02  0.47000000000E+01 0.  1.
<mgrwt>
<rscale>  2 0.17930656E+03</rscale>
<asrwt>0</asrwt>
<pdfrwt beam="1">  1       21 0.21804856E-01 0.17998920E+03</pdfrwt>
<pdfrwt beam="2">  1       21 0.37270856E-01 0.17998920E+03</pdfrwt>
<totfact> 0.13686511E+05</totfact>
</mgrwt>
</event>
<event>
12    1  0.2762290E-001  0.1825071E+03  0.7546771E-02  0.1165896E+00
         21   -1    0    0  504  503  0.00000000000E+00  0.00000000000E+00  0.21177843869E+03  0.21177843869E+03  0.00000000000E+00 0.  1.
         21   -1    0    0  502  504 -0.00000000000E+00 -0.00000000000E+00 -0.15763543512E+03  0.15763543512E+03  0.00000000000E+00 0.  1.
          6    2    1    2  502    0 -0.19643021229E+02  0.50347361790E+02  0.48444867117E+02  0.18681784816E+03  0.17214324884E+03 0.  0.
         24    2    3    3    0    0 -0.42880696643E+02  0.28759016818E+01 -0.27853506788E+02  0.93882058801E+02  0.78682896294E+02 0.  0.
         -6    2    1    2    0  503  0.19643021229E+02 -0.50347361790E+02  0.56981364493E+01  0.18259602565E+03  0.17432192835E+03 0.  0.
        -24    2    5    5    0    0  0.44849100156E+02  0.22726520610E+02 -0.26801032141E+02  0.98611356438E+02  0.80485823416E+02 0.  0.
          2    1    4    4  501    0  0.22574554989E+01 -0.31162914240E+02 -0.91500296802E+00  0.31257967940E+02  0.00000000000E+00 0. -1.
         -1    1    4    4    0  501 -0.45138152142E+02  0.34038815922E+02 -0.26938503820E+02  0.62624090861E+02  0.00000000000E+00 0.  1.
          5    1    3    3  502    0  0.23237675414E+02  0.47471460108E+02  0.76298373906E+02  0.92935789361E+02  0.47000000000E+01 0. -1.
         11    1    6    6    0    0 -0.10239987075E+02  0.17486151122E+02 -0.37147172770E+02  0.42314716839E+02  0.00000000000E+00 0. -1.
        -12    1    6    6    0    0  0.55089087231E+02  0.52403694882E+01  0.10346140629E+02  0.56296639600E+02  0.00000000000E+00 0.  1.
         -5    1    5    5    0  503 -0.25206078927E+02 -0.73073882400E+02  0.32499168590E+02  0.83984669214E+02  0.47000000000E+01 0.  1.
<mgrwt>
<rscale>  2 0.18198490E+03</rscale>
<asrwt>0</asrwt>
<pdfrwt beam="1">  1       21 0.32581298E-01 0.18250710E+03</pdfrwt>
<pdfrwt beam="2">  1       21 0.24251605E-01 0.18250710E+03</pdfrwt>
<totfact> 0.14598473E+05</totfact>
</mgrwt>
</event>
<event>
12    1  0.2762290E-001  0.1855938E+03  0.7546771E-02  0.1162911E+00
         21   -1    0    0  504  503  0.00000000000E+00  0.00000000000E+00  0.23979123581E+03  0.23979123581E+03  0.00000000000E+00 0.  1.
         21   -1    0    0  502  504 -0.00000000000E+00 -0.00000000000E+00 -0.23599951183E+03  0.23599951183E+03  0.00000000000E+00 0.  1.
          6    2    1    2  502    0 -0.44439349087E+02 -0.49822572732E+02  0.15181770524E+03  0.23977837919E+03  0.17317017932E+03 0.  0.
         24    2    3    3    0    0 -0.96547233163E+02 -0.33612047578E+02  0.11973937229E+03  0.17630301269E+03  0.79335345416E+02 0.  0.
         -6    2    1    2    0  503  0.44439349087E+02  0.49822572732E+02 -0.14802598125E+03  0.23601236845E+03  0.17126880169E+03 0.  0.
        -24    2    5    5    0    0 -0.12640999862E+02  0.76263311217E+02 -0.12544012290E+03  0.16900871269E+03  0.82781839889E+02 0.  0.
          4    1    4    4  501    0 -0.35491848044E+02 -0.53728710037E+01 -0.33282617632E+01  0.36050192048E+02  0.00000000000E+00 0. -1.
         -3    1    4    4    0  501 -0.61055385119E+02 -0.28239176574E+02  0.12306763405E+03  0.14025282064E+03  0.00000000000E+00 0.  1.
          5    1    3    3  502    0  0.52107884076E+02 -0.16210525154E+02  0.32078332947E+02  0.63475366508E+02  0.47000000000E+01 0. -1.
         13    1    6    6    0    0 -0.41632655807E+02  0.13320804522E+02 -0.43076607557E+02  0.61370318406E+02  0.00000000000E+00 0. -1.
        -14    1    6    6    0    0  0.28991655945E+02  0.62942506695E+02 -0.82363515348E+02  0.10763839428E+03  0.00000000000E+00 0.  1.
         -5    1    5    5    0  503  0.57080348949E+02 -0.26440738484E+02 -0.22585858346E+02  0.67003655758E+02  0.47000000000E+01 0.  1.
<mgrwt>
<rscale>  2 0.18514899E+03</rscale>
<asrwt>0</asrwt>
<pdfrwt beam="1">  1       21 0.36890959E-01 0.18559379E+03</pdfrwt>
<pdfrwt beam="2">  1       21 0.36307617E-01 0.18559379E+03</pdfrwt>
<totfact> 0.52011528E+04</totfact>
</mgrwt>
</event>
<event>
12    1  0.2762290E-001  0.1805223E+03  0.7546771E-02  0.1167434E+00
         21   -1    0    0  504  503  0.00000000000E+00  0.00000000000E+00  0.36105113462E+03  0.36105113462E+03  0.00000000000E+00 0.  1.
         21   -1    0    0  502  504 -0.00000000000E+00 -0.00000000000E+00 -0.17961400244E+03  0.17961400244E+03  0.00000000000E+00 0.  1.
          6    2    1    2  502    0  0.23423073548E+02 -0.40023379357E+02 -0.10018104579E+03  0.20645707984E+03  0.17446424450E+03 0.  0.
         24    2    3    3    0    0  0.38882972574E+02 -0.40656860466E+02  0.64860543098E+01  0.98571167780E+02  0.80680483128E+02 0.  0.
         -6    2    1    2    0  503 -0.23423073548E+02  0.40023379357E+02  0.28161817797E+03  0.33420805722E+03  0.17388420308E+03 0.  0.
        -24    2    5    5    0    0 -0.20907223442E+02 -0.39526856854E+02  0.19916064078E+03  0.21950886358E+03  0.80744634179E+02 0.  0.
          2    1    4    4  501    0  0.49152375762E+02  0.58149405005E+01  0.11196281084E+02  0.50745702145E+02  0.00000000000E+00 0. -1.
         -1    1    4    4    0  501 -0.10269403188E+02 -0.46471800966E+02 -0.47102267739E+01  0.47825465634E+02  0.00000000000E+00 0.  1.
          5    1    3    3  502    0 -0.15459899025E+02  0.63348110893E+00 -0.10666710010E+03  0.10788591206E+03  0.47000000000E+01 0. -1.
         11    1    6    6    0    0  0.25158503199E+02 -0.19376659005E+02  0.13109398635E+03  0.13488527887E+03  0.00000000000E+00 0. -1.
        -12    1    6    6    0    0 -0.46065726641E+02 -0.20150197849E+02  0.68066654428E+02  0.84623584711E+02  0.00000000000E+00 0.  1.
         -5    1    5    5    0  503 -0.25158501058E+01  0.79550236211E+02  0.82457537187E+02  0.11469919364E+03  0.47000000000E+01 0.  1.
<mgrwt>
<rscale>  2 0.18038196E+03</rscale>
<asrwt>0</asrwt>
<pdfrwt beam="1">  1       21 0.55546328E-01 0.18052225E+03</pdfrwt>
<pdfrwt beam="2">  1       21 0.27632924E-01 0.18052225E+03</pdfrwt>
<totfact> 0.38412639E+04</totfact>
</mgrwt>
</event>
<event>
12    1  0.2762290E-001  0.2049393E+03  0.7546771E-02  0.1146217E+00
         21   -1    0    0  504  503  0.00000000000E+00  0.00000000000E+00  0.86999303604E+03  0.86999303604E+03  0.00000000000E+00 0. -1.
         21   -1    0    0  502  504 -0.00000000000E+00 -0.00000000000E+00 -0.49316930739E+02  0.49316930739E+02  0.00000000000E+00 0. -1.
          6    2    1    2  502    0 -0.24262460725E+02 -0.99868868143E+02  0.49297975496E+03  0.53280639225E+03  0.17404354339E+03 0.  0.
         24    2    3    3    0    0  0.29094157622E+02 -0.12531133206E+02  0.32547372472E+03  0.33645169067E+03  0.79139720527E+02 0.  0.
         -6    2    1    2    0  503  0.24262460725E+02  0.99868868143E+02  0.32769635034E+03  0.38650357453E+03  0.17730667577E+03 0.  0.
        -24    2    5    5    0    0  0.54481438239E+02  0.51884580680E+02  0.89878716008E+02  0.14197342170E+03  0.80112621053E+02 0.  0.
          4    1    4    4  501    0  0.91661591286E+01  0.19878753857E+01 -0.64578804215E+00  0.94014447781E+01  0.00000000000E+00 0. -1.
         -3    1    4    4    0  501  0.19927998493E+02 -0.14519008591E+02  0.32611951276E+03  0.32705024589E+03  0.00000000000E+00 0.  1.
          5    1    3    3  502    0 -0.53356618346E+02 -0.87337734937E+02  0.16750603025E+03  0.19635470158E+03  0.47000000000E+01 0. -1.
         11    1    6    6    0    0  0.47859757964E+02  0.62990306824E+02  0.98573051616E+02  0.12639217417E+03  0.00000000000E+00 0. -1.
        -12    1    6    6    0    0  0.66216802747E+01 -0.11105726145E+02 -0.86943356078E+01  0.15581247528E+02  0.00000000000E+00 0.  1.
         -5    1    5    5    0  503 -0.30218977514E+02  0.47984287463E+02  0.23781763433E+03  0.24453015283E+03  0.47000000000E+01 0.  1.
<mgrwt>
<rscale>  2 0.20423151E+03</rscale>
<asrwt>0</asrwt>
<pdfrwt beam="1">  1       21 0.13384507E+00 0.20493930E+03</pdfrwt>
<pdfrwt beam="2">  1       21 0.75872207E-02 0.20493930E+03</pdfrwt>
<totfact> 0.52479488E+04</totfact>
</mgrwt>
</event>
<event>
12    1  0.2762290E-001  0.2746813E+03  0.7546771E-02  0.1098741E+00
         21   -1    0    0  504  503  0.00000000000E+00  0.00000000000E+00  0.22258473068E+03  0.22258473068E+03  0.00000000000E+00 0. -1.
         21   -1    0    0  502  504 -0.00000000000E+00 -0.00000000000E+00 -0.43362183674E+03  0.43362183674E+03  0.00000000000E+00 0.  1.
          6    2    1    2  502    0  0.39296432981E+02  0.20970152548E+03 -0.25971792156E+03  0.37802542192E+03  0.17300543750E+03 0.  0.
         24    2    3    3    0    0  0.76818754213E+02  0.14423061535E+03 -0.23582270192E+03  0.29873206668E+03  0.83216041235E+02 0.  0.
         -6    2    1    2    0  503 -0.39296432981E+02 -0.20970152548E+03  0.48680815507E+02  0.27818114550E+03  0.17174396199E+03 0.  0.
        -24    2    5    5    0    0  0.41518338925E+02 -0.90967054787E+02  0.45251879249E+02  0.13443571256E+03  0.77630217771E+02 0.  0.
          4    1    4    4  501    0  0.76706722185E+02  0.85637906293E+02 -0.10633316388E+03  0.15660304583E+03  0.00000000000E+00 0. -1.
         -3    1    4    4    0  501  0.11203202724E+00  0.58592709053E+02 -0.12948953804E+03  0.14212902084E+03  0.00000000000E+00 0.  1.
          5    1    3    3  502    0 -0.37522321231E+02  0.65470910130E+02 -0.23895219643E+02  0.79293355243E+02  0.47000000000E+01 0. -1.
         11    1    6    6    0    0 -0.16945481839E+02  0.13910520246E+01  0.92292327245E+01  0.19345881143E+02  0.00000000000E+00 0. -1.
        -12    1    6    6    0    0  0.58463820764E+02 -0.92358106812E+02  0.36022646524E+02  0.11508983141E+03  0.00000000000E+00 0.  1.
         -5    1    5    5    0  503 -0.80814771906E+02 -0.11873447069E+03  0.34289362581E+01  0.14374543294E+03  0.47000000000E+01 0.  1.
<mgrwt>
<rscale>  2 0.27448290E+03</rscale>
<asrwt>0</asrwt>
<pdfrwt beam="1">  1       21 0.34243805E-01 0.27468131E+03</pdfrwt>
<pdfrwt beam="2">  1       21 0.66711051E-01 0.27468131E+03</pdfrwt>
<totfact> 0.16186776E+04</totfact>
</mgrwt>
</event>
<event>
12    1  0.2762290E-001  0.1973784E+03  0.7546771E-02  0.1152092E+00
         21   -1    0    0  504  503  0.00000000000E+00  0.00000000000E+00  0.16307141696E+04  0.16307141696E+04  0.00000000000E+00 0.  1.
         21   -1    0    0  502  504 -0.00000000000E+00 -0.00000000000E+00 -0.24121406905E+02  0.24121406905E+02  0.00000000000E+00 0.  1.
          6    2    1    2  502    0  0.95529213437E+02  0.13447479350E+02  0.89672986895E+03  0.91819535200E+03  0.17219634505E+03 0.  0.
         24    2    3    3    0    0  0.93820892330E+02 -0.47385796731E+02  0.68984407358E+03  0.70249317731E+03  0.81018792549E+02 0.  0.
         -6    2    1    2    0  503 -0.95529213437E+02 -0.13447479350E+02  0.70986289376E+03  0.73664022452E+03  0.17154249363E+03 0.  0.
        -24    2    5    5    0    0 -0.13462875249E+03 -0.10037239724E+02  0.55668269186E+03  0.57844203255E+03  0.80460663828E+02 0.  0.
          4    1    4    4  501    0  0.14742537285E+02  0.61362016337E+01  0.32398563855E+03  0.32437892867E+03  0.00000000000E+00 0. -1.
         -3    1    4    4    0  501  0.79078355046E+02 -0.53521998365E+02  0.36585843502E+03  0.37811424864E+03  0.00000000000E+00 0.  1.
          5    1    3    3  502    0  0.17083211070E+01  0.60833276081E+02  0.20688579537E+03  0.21570217469E+03  0.47000000000E+01 0. -1.
         13    1    6    6    0    0 -0.70063833231E+02  0.17345297181E+02  0.40433938699E+03  0.41073122591E+03  0.00000000000E+00 0. -1.
        -14    1    6    6    0    0 -0.64564919261E+02 -0.27382536905E+02  0.15234330487E+03  0.16771080664E+03  0.00000000000E+00 0.  1.
         -5    1    5    5    0  503  0.39099539054E+02 -0.34102396255E+01  0.15318020190E+03  0.15819819197E+03  0.47000000000E+01 0.  1.
<mgrwt>
<rscale>  2 0.19723574E+03</rscale>
<asrwt>0</asrwt>
<pdfrwt beam="1">  1       21 0.25087902E+00 0.19737843E+03</pdfrwt>
<pdfrwt beam="2">  1       21 0.37109870E-02 0.19737843E+03</pdfrwt>
<totfact> 0.29075926E+04</totfact>
</mgrwt>
</event>
<event>
12    1  0.2762290E-001  0.2185068E+03  0.7546771E-02  0.1135050E+00
         21   -1    0    0  504  503  0.00000000000E+00  0.00000000000E+00  0.80946373444E+03  0.80946373444E+03  0.00000000000E+00 0. -1.
         21   -1    0    0  502  504 -0.00000000000E+00 -0.00000000000E+00 -0.59027489891E+02  0.59027489891E+02  0.00000000000E+00 0. -1.
          6    2    1    2  502    0 -0.12950971538E+03 -0.31437172917E+02  0.35640136536E+03  0.41805163735E+03  0.17315939491E+03 0.  0.
         24    2    3    3    0    0 -0.19075235498E+02 -0.41345894975E+02  0.87357651064E+02  0.12701801847E+03  0.80180235566E+02 0.  0.
         -6    2    1    2    0  503  0.12950971538E+03  0.31437172917E+02  0.39403487918E+03  0.45043958698E+03  0.17283307925E+03 0.  0.
        -24    2    5    5    0    0  0.33181569574E+02  0.19870164303E+02  0.30969010982E+03  0.32179652466E+03  0.78416829675E+02 0.  0.
          2    1    4    4  501    0 -0.69757770264E+00  0.21570793872E+02  0.57271906347E+01  0.22329050035E+02  0.00000000000E+00 0. -1.
         -1    1    4    4    0  501 -0.18377657796E+02 -0.62916688847E+02  0.81630460429E+02  0.10468896843E+03  0.00000000000E+00 0.  1.
          5    1    3    3  502    0 -0.11043447988E+03  0.99087220580E+01  0.26904371430E+03  0.29103361889E+03  0.47000000000E+01 0. -1.
         13    1    6    6    0    0  0.25844497564E+02 -0.23679790692E+02  0.72489066193E+02  0.80519160819E+02  0.00000000000E+00 0. -1.
        -14    1    6    6    0    0  0.73370720093E+01  0.43549954995E+02  0.23720104363E+03  0.24127736384E+03  0.00000000000E+00 0.  1.
         -5    1    5    5    0  503  0.96328145802E+02  0.11567008614E+02  0.84344769367E+02  0.12864306231E+03  0.47000000000E+01 0.  1.
<mgrwt>
<rscale>  2 0.21844218E+03</rscale>
<asrwt>0</asrwt>
<pdfrwt beam="1">  1       21 0.12453287E+00 0.21850684E+03</pdfrwt>
<pdfrwt beam="2">  1       21 0.90811529E-02 0.21850684E+03</pdfrwt>
<totfact> 0.45667386E+04</totfact>
</mgrwt>
</event>
<event>
12    1  0.2762290E-001  0.1805468E+03  0.7546771E-02  0.1167399E+00
         21   -1    0    0  504  503  0.00000000000E+00  0.00000000000E+00  0.76709803840E+02  0.76709803840E+02  0.00000000000E+00 0. -1.
         21   -1    0    0  502  504 -0.00000000000E+00 -0.00000000000E+00 -0.43021909599E+03  0.43021909599E+03  0.00000000000E+00 0.  1.
          6    2    1    2  502    0  0.47651317919E+02  0.15598206409E+02 -0.14539232145E+03  0.23141150985E+03  0.17291156009E+03 0.  0.
         24    2    3    3    0    0  0.85534823596E+02 -0.80585488615E+01 -0.56157748421E+02  0.13151305593E+03  0.82224357185E+02 0.  0.
         -6    2    1    2    0  503 -0.47651317919E+02 -0.15598206409E+02 -0.20811697070E+03  0.27551738998E+03  0.17344511104E+03 0.  0.
        -24    2    5    5    0    0 -0.24339093401E+02  0.56682913493E+02 -0.94433219475E+02  0.13871788194E+03  0.80744496290E+02 0.  0.
          4    1    4    4  501    0 -0.17200686699E+01  0.12865493736E+01 -0.42675483978E+02  0.42729507115E+02  0.00000000000E+00 0. -1.
         -3    1    4    4    0  501  0.87254892266E+02 -0.93450982351E+01 -0.13482264443E+02  0.88783548813E+02  0.00000000000E+00 0.  1.
          5    1    3    3  502    0 -0.37883505677E+02  0.23656755270E+02 -0.89234573034E+02  0.99898453926E+02  0.47000000000E+01 0. -1.
         13    1    6    6    0    0 -0.53223359683E+02  0.25305232061E+02 -0.53086239910E+02  0.79317272100E+02  0.00000000000E+00 0. -1.
        -14    1    6    6    0    0  0.28884266283E+02  0.31377681432E+02 -0.41346979565E+02  0.59400609844E+02  0.00000000000E+00 0.  1.
         -5    1    5    5    0  503 -0.23312224518E+02 -0.72281119901E+02 -0.11368375122E+03  0.13679950803E+03  0.47000000000E+01 0.  1.
<mgrwt>
<rscale>  2 0.18041857E+03</rscale>
<asrwt>0</asrwt>
<pdfrwt beam="1">  1       21 0.11801508E-01 0.18054683E+03</pdfrwt>
<pdfrwt beam="2">  1       21 0.66187553E-01 0.18054683E+03</pdfrwt>
<totfact> 0.12721416E+05</totfact>
</mgrwt>
</event>
<event>
12    1  0.2762290E-001  0.3476097E+03  0.7546771E-02  0.1063718E+00
         21   -1    0    0  504  503  0.00000000000E+00  0.00000000000E+00  0.81750203117E+03  0.81750203117E+03  0.00000000000E+00 0. -1.
         21   -1    0    0  502  504 -0.00000000000E+00 -0.00000000000E+00 -0.17918213379E+03  0.17918213379E+03  0.00000000000E+00 0. -1.
          6    2    1    2  502    0  0.82980043284E+02 -0.28877041759E+03  0.10946019048E+03  0.36443660364E+03  0.17480979123E+03 0.  0.
         24    2    3    3    0    0  0.12066006869E+03 -0.25821998268E+03  0.78630900945E+02  0.30676816789E+03  0.81777005415E+02 0.  0.
         -6    2    1    2    0  503 -0.82980043284E+02  0.28877041759E+03  0.52885970690E+03  0.63224756132E+03  0.17254085764E+03 0.  0.
        -24    2    5    5    0    0 -0.42621870110E+02  0.16625941426E+03  0.18570514624E+03  0.26562122487E+03  0.81298321751E+02 0.  0.
          2    1    4    4  501    0  0.13301727064E+02 -0.11788778071E+03  0.45139475446E+02  0.12693319907E+03  0.00000000000E+00 0. -1.
         -1    1    4    4    0  501  0.10735834163E+03 -0.14033220197E+03  0.33491425499E+02  0.17983496882E+03  0.00000000000E+00 0.  1.
          5    1    3    3  502    0 -0.37680025410E+02 -0.30550434915E+02  0.30829289537E+02  0.57668435749E+02  0.47000000000E+01 0. -1.
         13    1    6    6    0    0 -0.48841861133E+02  0.42978835367E+02  0.49099876655E+02  0.81507702556E+02  0.00000000000E+00 0. -1.
        -14    1    6    6    0    0  0.62199910222E+01  0.12328057889E+03  0.13660526958E+03  0.18411352231E+03  0.00000000000E+00 0.  1.
         -5    1    5    5    0  503 -0.40358173173E+02  0.12251100334E+03  0.34315456066E+03  0.36662633646E+03  0.47000000000E+01 0.  1.
<mgrwt>
<rscale>  2 0.34732548E+03</rscale>
<asrwt>0</asrwt>
<pdfrwt beam="1">  1       21 0.12576954E+00 0.34760970E+03</pdfrwt>
<pdfrwt beam="2">  1       21 0.27566483E-01 0.34760970E+03</pdfrwt>
<totfact> 0.53751109E+03</totfact>
</mgrwt>
</event>
<event>
12    1  0.2762290E-001  0.1748685E+03  0.7546771E-02  0.1172898E+00
         21   -1    0    0  504  503  0.00000000000E+00  0.00000000000E+00  0.28634945456E+03  0.28634945456E+03  0.00000000000E+00 0. -1.
         21   -1    0    0  502  504 -0.00000000000E+00 -0.00000000000E+00 -0.40233989387E+03  0.40233989387E+03  0.00000000000E+00 0. -1.
          6    2    1    2  502    0  0.35158762210E+01  0.22789163000E+02 -0.35316010038E+03  0.39402268148E+03  0.17320539739E+03 0.  0.
         24    2    3    3    0    0  0.30925224530E+01 -0.51415017917E+02 -0.13924471013E+03  0.16755342555E+03  0.77665908561E+02 0.  0.
         -6    2    1    2    0  503 -0.35158762210E+01 -0.22789163000E+02  0.23716966107E+03  0.29466666695E+03  0.17334153900E+03 0.  0.
        -24    2    5    5    0    0  0.94927455963E+01 -0.81269920918E+02  0.14397950397E+03  0.18378060530E+03  0.79688776217E+02 0.  0.
          2    1    4    4  501    0 -0.35522769520E+02 -0.15671265383E+02 -0.75486693180E+02  0.84886374409E+02  0.00000000000E+00 0. -1.
         -1    1    4    4    0  501  0.38615291973E+02 -0.35743752534E+02 -0.63758016951E+02  0.82667051144E+02  0.00000000000E+00 0.  1.
          5    1    3    3  502    0  0.42335376799E+00  0.74204180918E+02 -0.21391539025E+03  0.22646925593E+03  0.47000000000E+01 0. -1.
         11    1    6    6    0    0  0.33095874878E+02 -0.80343380366E+02  0.91259545938E+02  0.12601071553E+03  0.00000000000E+00 0. -1.
        -12    1    6    6    0    0 -0.23603129281E+02 -0.92654055211E+00  0.52719958035E+02  0.57769889774E+02  0.00000000000E+00 0.  1.
         -5    1    5    5    0  503 -0.13008621817E+02  0.58480757918E+02  0.93190157100E+02  0.11088606165E+03  0.47000000000E+01 0.  1.
<mgrwt>
<rscale>  2 0.17483476E+03</rscale>
<asrwt>0</asrwt>
<pdfrwt beam="1">  1       21 0.44053763E-01 0.17486851E+03</pdfrwt>
<pdfrwt beam="2">  1       21 0.61898445E-01 0.17486851E+03</pdfrwt>
<totfact> 0.12138619E+04</totfact>
</mgrwt>
</event>
<event>
12    1  0.2762290E-001  0.2596400E+03  0.7546771E-02  0.1107927E+00
         21   -1    0    0  504  503  0.00000000000E+00  0.00000000000E+00  0.92163301969E+03  0.92163301969E+03  0.00000000000E+00 0.  1.
         21   -1    0    0  502  504 -0.00000000000E+00 -0.00000000000E+00 -0.33457046635E+03  0.33457046635E+03  0.00000000000E+00 0. -1.
          6    2    1    2  502    0  0.81612448943E+02 -0.17632866330E+03 -0.26233384686E+03  0.36909614078E+03  0.17222231158E+03 0.  0.
         24    2    3    3    0    0  0.34880538429E+02 -0.13524811691E+03 -0.26090918335E+03  0.30668137957E+03  0.80443530028E+02 0.  0.
         -6    2    1    2    0  503 -0.81612448943E+02  0.17632866330E+03  0.84939640019E+03  0.88710734526E+03  0.16653170278E+03 0.  0.
        -24    2    5    5    0    0 -0.80009859387E+01  0.11097642792E+03  0.65940440142E+03  0.67307788058E+03  0.76419142755E+02 0.  0.
          4    1    4    4  501    0  0.49296408796E+02 -0.56693131414E+02 -0.16882787597E+03  0.18478933621E+03  0.00000000000E+00 0. -1.
         -3    1    4    4    0  501 -0.14415870367E+02 -0.78554985500E+02 -0.92081307382E+02  0.12189204336E+03  0.00000000000E+00 0.  1.
          5    1    3    3  502    0  0.46731910514E+02 -0.41080546381E+02 -0.14246635070E+01  0.62414761213E+02  0.47000000000E+01 0. -1.
         13    1    6    6    0    0 -0.10373714391E+02 -0.59738024718E+01  0.22162446728E+02  0.25188773515E+02  0.00000000000E+00 0. -1.
        -14    1    6    6    0    0  0.23727284519E+01  0.11695023039E+03  0.63724195470E+03  0.64788910706E+03  0.00000000000E+00 0.  1.
         -5    1    5    5    0  503 -0.73611463004E+02  0.65352235379E+02  0.18999199877E+03  0.21402946468E+03  0.47000000000E+01 0.  1.
<mgrwt>
<rscale>  2 0.25870008E+03</rscale>
<asrwt>0</asrwt>
<pdfrwt beam="1">  1       21 0.14178969E+00 0.25963997E+03</pdfrwt>
<pdfrwt beam="2">  1       21 0.51472380E-01 0.25963997E+03</pdfrwt>
<totfact> 0.11700651E+03</totfact>
</mgrwt>
</event>
<event>
12    1  0.2762290E-001  0.3040000E+03  0.7546771E-02  0.1083313E+00
         21   -1    0    0  504  503  0.00000000000E+00  0.00000000000E+00  0.16054953198E+03  0.16054953198E+03  0.00000000000E+00 0. -1.
         21   -1    0    0  502  504 -0.00000000000E+00 -0.00000000000E+00 -0.70386737014E+03  0.70386737014E+03  0.00000000000E+00 0. -1.
          6    2    1    2  502    0 -0.21895478206E+03 -0.12027737744E+03 -0.45659334530E+03  0.54828850357E+03  0.17243826742E+03 0.  0.
         24    2    3    3    0    0 -0.26153956323E+02 -0.33883762147E+02 -0.15363357811E+03  0.17890695869E+03  0.81069629181E+02 0.  0.
         -6    2    1    2    0  503  0.21895478206E+03  0.12027737744E+03 -0.86724492869E+02  0.31612839855E+03  0.17322870027E+03 0.  0.
        -24    2    5    5    0    0  0.23268066408E+03  0.86975157596E+02 -0.52168956962E+02  0.26599245590E+03  0.79532490527E+02 0.  0.
          2    1    4    4  501    0 -0.40817438229E+02 -0.22761531837E+02 -0.15354757654E+03  0.16050236402E+03  0.00000000000E+00 0. -1.
         -1    1    4    4    0  501  0.14663481906E+02 -0.11122230311E+02 -0.86001573599E-01  0.18404594670E+02  0.00000000000E+00 0.  1.
          5    1    3    3  502    0 -0.19280082574E+03 -0.86393615292E+02 -0.30295976718E+03  0.36938154488E+03  0.47000000000E+01 0. -1.
         11    1    6    6    0    0  0.42350658855E+02  0.51661996008E+02 -0.66344158028E+01  0.67130884175E+02  0.00000000000E+00 0. -1.
        -12    1    6    6    0    0  0.19033000523E+03  0.35313161588E+02 -0.45534541159E+02  0.19886157173E+03  0.00000000000E+00 0.  1.
         -5    1    5    5    0  503 -0.13725882023E+02  0.33302219842E+02 -0.34555535907E+02  0.50135942652E+02  0.47000000000E+01 0.  1.
<mgrwt>
<rscale>  2 0.30388755E+03</rscale>
<asrwt>0</asrwt>
<pdfrwt beam="1">  1       21 0.24699928E-01 0.30400004E+03</pdfrwt>
<pdfrwt beam="2">  1       21 0.10828729E+00 0.30400004E+03</pdfrwt>
<totfact> 0.98588149E+03</totfact>
</mgrwt>
</event>
<event>
12    1  0.2762290E-001  0.1831039E+03  0.7546771E-02  0.1165078E+00
         21   -1    0    0  504  503  0.00000000000E+00  0.00000000000E+00  0.20092914457E+03  0.20092914457E+03  0.00000000000E+00 0.  1.
         21   -1    0    0  502  504 -0.00000000000E+00 -0.00000000000E+00 -0.52797656147E+03  0.52797656147E+03  0.00000000000E+00 0. -1.
          6    2    1    2  502    0  0.36066116885E+02  0.47523155589E+02 -0.46518090236E+03  0.49954159099E+03  0.17201544729E+03 0.  0.
         24    2    3    3    0    0  0.73540154538E+02  0.32090159912E+02 -0.19113608599E+03  0.22247637803E+03  0.80776250972E+02 0.  0.
         -6    2    1    2    0  503 -0.36066116885E+02 -0.47523155589E+02  0.13813348546E+03  0.22936411504E+03  0.17311216698E+03 0.  0.
        -24    2    5    5    0    0  0.16432548896E+02  0.34140774436E+02  0.87258811665E+02  0.11965800851E+03  0.72583177425E+02 0.  0.
          4    1    4    4  501    0  0.75092895641E+02  0.86522837703E+01 -0.18235230755E+03  0.19739850319E+03  0.00000000000E+00 0. -1.
         -3    1    4    4    0  501 -0.15527411033E+01  0.23437876142E+02 -0.87837784337E+01  0.25077874841E+02  0.00000000000E+00 0.  1.
          5    1    3    3  502    0 -0.37474037652E+02  0.15432995677E+02 -0.27404481638E+03  0.27706521297E+03  0.47000000000E+01 0. -1.
         11    1    6    6    0    0 -0.73578797637E+00  0.47395219619E+02  0.24709089016E+02  0.53454534949E+02  0.00000000000E+00 0. -1.
        -12    1    6    6    0    0  0.17168336872E+02 -0.13254445182E+02  0.62549722649E+02  0.66203473561E+02  0.00000000000E+00 0.  1.
         -5    1    5    5    0  503 -0.52498665781E+02 -0.81663930026E+02  0.50874673798E+02  0.10970610653E+03  0.47000000000E+01 0.  1.
<mgrwt>
<rscale>  2 0.18284422E+03</rscale>
<asrwt>0</asrwt>
<pdfrwt beam="1">  1       21 0.30912176E-01 0.18310390E+03</pdfrwt>
<pdfrwt beam="2">  1       21 0.81227163E-01 0.18310390E+03</pdfrwt>
<totfact> 0.13439289E+04</totfact>
</mgrwt>
</event>
<event>
12    1  0.2762290E-001  0.1872009E+03  0.7546771E-02  0.1161090E+00
         21   -1    0    0  504  503  0.00000000000E+00  0.00000000000E+00  0.15729389201E+03  0.15729389201E+03  0.00000000000E+00 0. -1.
         21   -1    0    0  502  504 -0.00000000000E+00 -0.00000000000E+00 -0.30790961403E+03  0.30790961403E+03  0.00000000000E+00 0. -1.
          6    2    1    2  502    0  0.91646524978E+01 -0.71722049989E+02 -0.19794947519E+03  0.27244848425E+03  0.17267350269E+03 0.  0.
         24    2    3    3    0    0  0.57857865243E+02 -0.84448993720E+02 -0.11050265108E+03  0.17144333036E+03  0.81870718330E+02 0.  0.
         -6    2    1    2    0  503 -0.91646524978E+01  0.71722049989E+02  0.47333753164E+02  0.19275502179E+03  0.17229617212E+03 0.  0.
        -24    2    5    5    0    0  0.15575199449E+02  0.11665007847E+02  0.85083390617E+02  0.11748196079E+03  0.78639484391E+02 0.  0.
          4    1    4    4  501    0 -0.17610182244E+01 -0.68983371228E+02 -0.51031844651E+02  0.85825729590E+02  0.00000000000E+00 0. -1.
         -3    1    4    4    0  501  0.59618883468E+02 -0.15465622492E+02 -0.59470806429E+02  0.85617600774E+02  0.00000000000E+00 0.  1.
          5    1    3    3  502    0 -0.48693212746E+02  0.12726943732E+02 -0.87446824110E+02  0.10100515388E+03  0.47000000000E+01 0. -1.
         11    1    6    6    0    0  0.32773181266E+02  0.36098148322E+02  0.38429854339E+02  0.62080684814E+02  0.00000000000E+00 0. -1.
        -12    1    6    6    0    0 -0.17197981817E+02 -0.24433140475E+02  0.46653536278E+02  0.55401275972E+02  0.00000000000E+00 0.  1.
         -5    1    5    5    0  503 -0.24739851947E+02  0.60057042142E+02 -0.37749637453E+02  0.75273061005E+02  0.47000000000E+01 0.  1.
<mgrwt>
<rscale>  2 0.18711385E+03</rscale>
<asrwt>0</asrwt>
<pdfrwt beam="1">  1       21 0.24199061E-01 0.18720091E+03</pdfrwt>
<pdfrwt beam="2">  1       21 0.47370709E-01 0.18720091E+03</pdfrwt>
<totfact> 0.68861873E+04</totfact>
</mgrwt>
</event>
<event>
12    1  0.2762290E-001  0.2429984E+03  0.7546771E-02  0.1117817E+00
         21   -1    0    0  504  503  0.00000000000E+00  0.00000000000E+00  0.22136034161E+03  0.22136034161E+03  0.00000000000E+00 0. -1.
         21   -1    0    0  502  504 -0.00000000000E+00 -0.00000000000E+00 -0.32100122501E+03  0.32100122501E+03  0.00000000000E+00 0. -1.
          6    2    1    2  502    0 -0.12354212801E+03  0.11894599340E+03 -0.16134374977E+03  0.29168478035E+03  0.17215515897E+03 0.  0.
         24    2    3    3    0    0 -0.11269221395E+02  0.15224076564E+02 -0.89667886946E+02  0.12279735955E+03  0.81731840222E+02 0.  0.
         -6    2    1    2    0  503  0.12354212801E+03 -0.11894599340E+03  0.61702866365E+02  0.25067678626E+03  0.17210694557E+03 0.  0.
        -24    2    5    5    0    0  0.60971716189E+01 -0.90225393077E+02  0.46347435515E+02  0.12870929091E+03  0.78994934843E+02 0.  0.
          4    1    4    4  501    0 -0.27538185292E+02 -0.91809158517E+01 -0.61086714253E+00  0.29034703783E+02  0.00000000000E+00 0. -1.
         -3    1    4    4    0  501  0.16268963898E+02  0.24404992415E+02 -0.89057019803E+02  0.93762655772E+02  0.00000000000E+00 0.  1.
          5    1    3    3  502    0 -0.11227290662E+03  0.10372191684E+03 -0.71675862822E+02  0.16888742080E+03  0.47000000000E+01 0. -1.
         11    1    6    6    0    0  0.12390375100E+02 -0.91646212903E+02  0.62296223595E+02  0.11150501876E+03  0.00000000000E+00 0. -1.
        -12    1    6    6    0    0 -0.62932034813E+01  0.14208198266E+01 -0.15948788081E+02  0.17204272152E+02  0.00000000000E+00 0.  1.
         -5    1    5    5    0  503  0.11744495639E+03 -0.28720600326E+02  0.15355430850E+02  0.12196749535E+03  0.47000000000E+01 0.  1.
<mgrwt>
<rscale>  2 0.24298983E+03</rscale>
<asrwt>0</asrwt>
<pdfrwt beam="1">  1       21 0.34055437E-01 0.24299837E+03</pdfrwt>
<pdfrwt beam="2">  1       21 0.49384804E-01 0.24299837E+03</pdfrwt>
<totfact> 0.31672559E+04</totfact>
</mgrwt>
</event>
<event>
12    1  0.2762290E-001  0.1922273E+03  0.7546771E-02  0.1157525E+00
         21   -1    0    0  504  503  0.00000000000E+00  0.00000000000E+00  0.11623796793E+04  0.11623796793E+04  0.00000000000E+00 0. -1.
         21   -1    0    0  502  504 -0.00000000000E+00 -0.00000000000E+00 -0.46920531116E+02  0.46920531116E+02  0.00000000000E+00 0.  1.
          6    2    1    2  502    0  0.46656208897E+02  0.67998055820E+02  0.21028922739E+03  0.28490857841E+03  0.17363986141E+03 0.  0.
         24    2    3    3    0    0  0.31236520652E+02  0.10735629712E+03  0.11043426185E+03  0.17637313680E+03  0.80066612511E+02 0.  0.
         -6    2    1    2    0  503 -0.46656208897E+02 -0.67998055820E+02  0.90516992078E+03  0.92439163199E+03  0.16842436400E+03 0.  0.
        -24    2    5    5    0    0 -0.67246841193E+02 -0.28683875185E+01  0.70743947391E+03  0.71514233701E+03  0.80172237344E+02 0.  0.
          4    1    4    4  501    0  0.35356844554E+02  0.10286517047E+03  0.12190886753E+03  0.16338029788E+03  0.00000000000E+00 0. -1.
         -3    1    4    4    0  501 -0.41203239022E+01  0.44911266473E+01 -0.11474605678E+02  0.12992838916E+02  0.00000000000E+00 0.  1.
          5    1    3    3  502    0  0.15419688245E+02 -0.39358241298E+02  0.99854965543E+02  0.10853544162E+03  0.47000000000E+01 0. -1.
         13    1    6    6    0    0 -0.50466755201E+02 -0.65003994285E+01  0.17055898444E+03  0.17798740334E+03  0.00000000000E+00 0. -1.
        -14    1    6    6    0    0 -0.16780085992E+02  0.36320119100E+01  0.53688048947E+03  0.53715493368E+03  0.00000000000E+00 0.  1.
         -5    1    5    5    0  503  0.20590632295E+02 -0.65129668302E+02  0.19773044687E+03  0.20924929498E+03  0.47000000000E+01 0.  1.
<mgrwt>
<rscale>  2 0.19104193E+03</rscale>
<asrwt>0</asrwt>
<pdfrwt beam="1">  1       21 0.17882762E+00 0.19222731E+03</pdfrwt>
<pdfrwt beam="2">  1       21 0.72185441E-02 0.19222731E+03</pdfrwt>
<totfact> 0.26593209E+04</totfact>
</mgrwt>
</event>
<event>
12    1  0.2762290E-001  0.2510472E+03  0.7546771E-02  0.1112717E+00
         21   -1    0    0  504  503  0.00000000000E+00  0.00000000000E+00  0.13179943926E+03  0.13179943926E+03  0.00000000000E+00 0. -1.
         21   -1    0    0  502  504 -0.00000000000E+00 -0.00000000000E+00 -0.50676904684E+03  0.50676904684E+03  0.00000000000E+00 0.  1.
          6    2    1    2  502    0  0.18094076679E+03 -0.22292463100E+01 -0.26462535530E+03  0.36476191785E+03  0.17401191747E+03 0.  0.
         24    2    3    3    0    0  0.16395859708E+03  0.36051681846E+02 -0.26112565317E+03  0.32247525963E+03  0.87301437601E+02 0.  0.
         -6    2    1    2    0  503 -0.18094076679E+03  0.22292463100E+01 -0.11034425229E+03  0.27380656825E+03  0.17334835499E+03 0.  0.
        -24    2    5    5    0    0 -0.71205278978E+02 -0.51999083093E+02 -0.17631980491E+02  0.12018285805E+03  0.79742938467E+02 0.  0.
          2    1    4    4  501    0  0.10816725208E+03  0.48971593077E+02 -0.11402806622E+03  0.16462311878E+03  0.00000000000E+00 0. -1.
         -1    1    4    4    0  501  0.55791345001E+02 -0.12919911231E+02 -0.14709758695E+03  0.15785214085E+03  0.00000000000E+00 0.  1.
          5    1    3    3  502    0  0.16982169708E+02 -0.38280928156E+02 -0.34997021270E+01  0.42286658220E+02  0.47000000000E+01 0. -1.
         13    1    6    6    0    0 -0.31724168536E+02  0.16690854115E+02  0.83440081204E+01  0.36805297878E+02  0.00000000000E+00 0. -1.
        -14    1    6    6    0    0 -0.39481110442E+02 -0.68689937207E+02 -0.25975988612E+02  0.83377560168E+02  0.00000000000E+00 0.  1.
         -5    1    5    5    0  503 -0.10973548782E+03  0.54228329402E+02 -0.92712271795E+02  0.15362371020E+03  0.47000000000E+01 0.  1.
<mgrwt>
<rscale>  2 0.25093221E+03</rscale>
<asrwt>0</asrwt>
<pdfrwt beam="1">  1       21 0.20276837E-01 0.25104716E+03</pdfrwt>
<pdfrwt beam="2">  1       21 0.77964468E-01 0.25104716E+03</pdfrwt>
<totfact> 0.31848128E+04</totfact>
</mgrwt>
</event>
<event>
12    1  0.2762290E-001  0.1811668E+03  0.7546771E-02  0.1168415E+00
         21   -1    0    0  504  503  0.00000000000E+00  0.00000000000E+00  0.15672445165E+03  0.15672445165E+03  0.00000000000E+00 0. -1.
         21   -1    0    0  502  504 -0.00000000000E+00 -0.00000000000E+00 -0.26473259042E+03  0.26473259042E+03  0.00000000000E+00 0. -1.
          6    2    1    2  502    0  0.17501437105E+02 -0.84548662512E+01 -0.15631223689E+03  0.23396122518E+03  0.17299293171E+03 0.  0.
         24    2    3    3    0    0 -0.56813977204E+02 -0.87790294931E+01 -0.79073283984E+02  0.12667268091E+03  0.80551129630E+02 0.  0.
         -6    2    1    2    0  503 -0.17501437105E+02  0.84548662512E+01  0.48304098122E+02  0.18749581690E+03  0.18012109925E+03 0.  0.
        -24    2    5    5    0    0 -0.19481749999E+02 -0.62415880157E+02  0.53417940767E+02  0.11625800585E+03  0.79919752566E+02 0.  0.
          2    1    4    4  501    0  0.26579984974E+01 -0.33633500814E+02 -0.34838366310E+02  0.48497310237E+02  0.00000000000E+00 0. -1.
         -1    1    4    4    0  501 -0.59471975701E+02  0.24854471321E+02 -0.44234917674E+02  0.78175370675E+02  0.00000000000E+00 0.  1.
          5    1    3    3  502    0  0.74315414309E+02  0.32416324196E+00 -0.77238952907E+02  0.10728854427E+03  0.47000000000E+01 0. -1.
         13    1    6    6    0    0  0.51142965242E+01  0.15499726757E+02  0.24793093511E+02  0.29683245178E+02  0.00000000000E+00 0. -1.
        -14    1    6    6    0    0 -0.24596046523E+02 -0.77915606914E+02  0.28624847256E+02  0.86574760674E+02  0.00000000000E+00 0.  1.
         -5    1    5    5    0  503  0.19803128944E+01  0.70870746408E+02 -0.51138426455E+01  0.71237811043E+02  0.47000000000E+01 0.  1.
<mgrwt>
<rscale>  2 0.17936884E+03</rscale>
<asrwt>0</asrwt>
<pdfrwt beam="1">  1       21 0.24111454E-01 0.18116676E+03</pdfrwt>
<pdfrwt beam="2">  1       21 0.40728090E-01 0.18116676E+03</pdfrwt>
<totfact> 0.94663044E+04</totfact>
</mgrwt>
</event>
<event>
12    1  0.2762290E-001  0.1979782E+03  0.7546771E-02  0.1154326E+00
         21   -1    0    0  504  503  0.00000000000E+00  0.00000000000E+00  0.12914610277E+03  0.12914610277E+03  0.00000000000E+00 0.  1.
         21   -1    0    0  502  504 -0.00000000000E+00 -0.00000000000E+00 -0.45995835471E+03  0.45995835471E+03  0.00000000000E+00 0. -1.
          6    2    1    2  502    0 -0.92428424402E+02 -0.18573675449E+02 -0.34408890366E+03  0.39068159689E+03  0.15920722807E+03 0.  0.
         24    2    3    3    0    0 -0.22037719659E+01  0.27571220359E+02 -0.21592867134E+03  0.22722831774E+03  0.65134387796E+02 0.  0.
         -6    2    1    2    0  503  0.92428424402E+02  0.18573675449E+02  0.13276651721E+02  0.19842286058E+03  0.17409011190E+03 0.  0.
        -24    2    5    5    0    0  0.11840413638E+03  0.71947156976E+01  0.46168264905E+02  0.15474029477E+03  0.87987196195E+02 0.  0.
          4    1    4    4  501    0  0.82101838111E+01  0.23424815393E+02 -0.21449671194E+03  0.21592815594E+03  0.00000000000E+00 0. -1.
         -3    1    4    4    0  501 -0.10413955777E+02  0.41464049662E+01 -0.14319594036E+01  0.11300161804E+02  0.00000000000E+00 0.  1.
          5    1    3    3  502    0 -0.90224652436E+02 -0.46144895809E+02 -0.12816023232E+03  0.16345327915E+03  0.47000000000E+01 0. -1.
         11    1    6    6    0    0  0.79655475281E+02  0.21469488220E+02 -0.12039995239E+02  0.83372028595E+02  0.00000000000E+00 0. -1.
        -12    1    6    6    0    0  0.38748661104E+02 -0.14274772523E+02  0.58208260144E+02  0.71368266175E+02  0.00000000000E+00 0.  1.
         -5    1    5    5    0  503 -0.25975711983E+02  0.11378959752E+02 -0.32891613183E+02  0.43682565811E+02  0.47000000000E+01 0.  1.
<mgrwt>
<rscale>  2 0.19465775E+03</rscale>
<asrwt>0</asrwt>
<pdfrwt beam="1">  1       21 0.19868631E-01 0.19797819E+03</pdfrwt>
<pdfrwt beam="2">  1       21 0.70762823E-01 0.19797819E+03</pdfrwt>
<totfact> 0.42161328E+04</totfact>
</mgrwt>
</event>
<event>
12    1  0.2762290E-001  0.1826776E+03  0.7546771E-02  0.1167467E+00
         21   -1    0    0  504  503  0.00000000000E+00  0.00000000000E+00  0.15717556042E+04  0.15717556042E+04  0.00000000000E+00 0. -1.
         21   -1    0    0  502  504 -0.00000000000E+00 -0.00000000000E+00 -0.20341022308E+02  0.20341022308E+02  0.00000000000E+00 0. -1.
          6    2    1    2  502    0  0.14431392560E+02 -0.64109172062E+01  0.72519139268E+03  0.74784600504E+03  0.18199375340E+03 0.  0.
         24    2    3    3    0    0 -0.41684019153E+02  0.38184720154E+02  0.26886892101E+03  0.28590445196E+03  0.79090003545E+02 0.  0.
         -6    2    1    2    0  503 -0.14431392560E+02  0.64109172062E+01  0.82622318921E+03  0.84425062147E+03  0.17281489669E+03 0.  0.
        -24    2    5    5    0    0 -0.56660015398E+02 -0.41785976697E+02  0.46824815716E+03  0.48055512969E+03  0.81978477652E+02 0.  0.
          4    1    4    4  501    0 -0.29116591476E+02 -0.11265362917E+02  0.36641726560E+02  0.48138346732E+02  0.00000000000E+00 0. -1.
         -3    1    4    4    0  501 -0.12567427677E+02  0.49450083071E+02  0.23222719445E+03  0.23776610523E+03  0.00000000000E+00 0.  1.
          5    1    3    3  502    0  0.56115411713E+02 -0.44595637360E+02  0.45632247168E+03  0.46194155308E+03  0.47000000000E+01 0. -1.
         13    1    6    6    0    0  0.29471712566E+00  0.12006918387E+02  0.21800190986E+03  0.21833251166E+03  0.00000000000E+00 0. -1.
        -14    1    6    6    0    0 -0.56954732524E+02 -0.53792895084E+02  0.25024624730E+03  0.26222261803E+03  0.00000000000E+00 0.  1.
         -5    1    5    5    0  503  0.42228622838E+02  0.48196893904E+02  0.35797503205E+03  0.36369549178E+03  0.47000000000E+01 0.  1.
<mgrwt>
<rscale>  2 0.18034770E+03</rscale>
<asrwt>0</asrwt>
<pdfrwt beam="1">  1       21 0.24180846E+00 0.18267756E+03</pdfrwt>
<pdfrwt beam="2">  1       21 0.31293893E-02 0.18267756E+03</pdfrwt>
<totfact> 0.44192378E+04</totfact>
</mgrwt>
</event>
<event>
12    1  0.2762290E-001  0.2498422E+03  0.7546771E-02  0.1113505E+00
         21   -1    0    0  504  503  0.00000000000E+00  0.00000000000E+00  0.55028843180E+03  0.55028843180E+03  0.00000000000E+00 0.  1.
         21   -1    0    0  502  504 -0.00000000000E+00 -0.00000000000E+00 -0.11454292441E+03  0.11454292441E+03  0.00000000000E+00 0.  1.
          6    2    1    2  502    0 -0.59405242035E+02 -0.16936792048E+03  0.25430684697E+03  0.35605782127E+03  0.17288934150E+03 0.  0.
         24    2    3    3    0    0 -0.75520016297E+01 -0.48877733581E+02  0.34626790220E+02  0.10015146923E+03  0.79907675603E+02 0.  0.
         -6    2    1    2    0  503  0.59405242035E+02  0.16936792048E+03  0.18143866042E+03  0.30877353493E+03  0.17380055556E+03 0.  0.
        -24    2    5    5    0    0 -0.34507839939E+02  0.10535826093E+03  0.10582153428E+03  0.17218311343E+03  0.78470843434E+02 0.  0.
          4    1    4    4  501    0  0.11463300670E+02  0.10402498734E+02 -0.14220492631E+02  0.21020029801E+02  0.00000000000E+00 0. -1.
         -3    1    4    4    0  501 -0.19015302300E+02 -0.59280232315E+02  0.48847282851E+02  0.79131439434E+02  0.00000000000E+00 0.  1.
          5    1    3    3  502    0 -0.51853240406E+02 -0.12049018690E+03  0.21968005675E+03  0.25590635204E+03  0.47000000000E+01 0. -1.
         13    1    6    6    0    0 -0.24081825038E+01  0.23772530520E+02 -0.10849640766E+02  0.26242089380E+02  0.00000000000E+00 0. -1.
        -14    1    6    6    0    0 -0.32099657436E+02  0.81585730414E+02  0.11667117504E+03  0.14594102405E+03  0.00000000000E+00 0.  1.
         -5    1    5    5    0  503  0.93913081975E+02  0.64009659543E+02  0.75617126140E+02  0.13659042150E+03  0.47000000000E+01 0.  1.
<mgrwt>
<rscale>  2 0.24968376E+03</rscale>
<asrwt>0</asrwt>
<pdfrwt beam="1">  1       21 0.84659757E-01 0.24984217E+03</pdfrwt>
<pdfrwt beam="2">  1       21 0.17621989E-01 0.24984217E+03</pdfrwt>
<totfact> 0.34318961E+04</totfact>
</mgrwt>
</event>
<event>
12    1  0.2762290E-001  0.2060869E+03  0.7546771E-02  0.1144924E+00
         21   -1    0    0  504  503  0.00000000000E+00  0.00000000000E+00  0.30465065938E+03  0.30465065938E+03  0.00000000000E+00 0. -1.
         21   -1    0    0  502  504 -0.00000000000E+00 -0.00000000000E+00 -0.25878905012E+03  0.25878905012E+03  0.00000000000E+00 0.  1.
          6    2    1    2  502    0 -0.39851415623E+02 -0.10263856480E+03 -0.16902990780E+03  0.26569791365E+03  0.17292039000E+03 0.  0.
         24    2    3    3    0    0 -0.66678755473E+01 -0.12405049317E+03 -0.80048652179E+02  0.16823319255E+03  0.80384295345E+02 0.  0.
         -6    2    1    2    0  503  0.39851415623E+02  0.10263856480E+03  0.21489151705E+03  0.29774179585E+03  0.17420965124E+03 0.  0.
        -24    2    5    5    0    0  0.55529145615E+02  0.12148695839E+03  0.11499794338E+03  0.19477641712E+03  0.82890039277E+02 0.  0.
          2    1    4    4  501    0 -0.60046283827E+01 -0.11334970812E+03 -0.30495915967E+02  0.11753387930E+03  0.00000000000E+00 0. -1.
         -1    1    4    4    0  501 -0.66324716457E+00 -0.10700785054E+02 -0.49552736213E+02  0.50699313247E+02  0.00000000000E+00 0.  1.
          5    1    3    3  502    0 -0.33183540076E+02  0.21411928371E+02 -0.88981255617E+02  0.97464721103E+02  0.47000000000E+01 0. -1.
         13    1    6    6    0    0  0.57053405911E+02  0.54227880755E+02  0.97412756234E+02  0.12523976706E+03  0.00000000000E+00 0. -1.
        -14    1    6    6    0    0 -0.15242602965E+01  0.67259077632E+02  0.17585187150E+02  0.69536650052E+02  0.00000000000E+00 0.  1.
         -5    1    5    5    0  503 -0.15677729992E+02 -0.18848393585E+02  0.99893573664E+02  0.10296537873E+03  0.47000000000E+01 0.  1.
<mgrwt>
<rscale>  2 0.20581419E+03</rscale>
<asrwt>0</asrwt>
<pdfrwt beam="1">  1       21 0.46869332E-01 0.20608691E+03</pdfrwt>
<pdfrwt beam="2">  1       21 0.39813700E-01 0.20608691E+03</pdfrwt>
<totfact> 0.26296716E+04</totfact>
</mgrwt>
</event>
<event>
12    1  0.2762290E-001  0.2039672E+03  0.7546771E-02  0.1146502E+00
         21   -1    0    0  504  503  0.00000000000E+00  0.00000000000E+00  0.35507648832E+02  0.35507648832E+02  0.00000000000E+00 0.  1.
         21   -1    0    0  502  504 -0.00000000000E+00 -0.00000000000E+00 -0.16095532445E+04  0.16095532445E+04  0.00000000000E+00 0.  1.
          6    2    1    2  502    0 -0.53778453809E+02 -0.87036877708E+02 -0.12174287968E+04  0.12343968109E+04  0.17645132828E+03 0.  0.
         24    2    3    3    0    0  0.36391523075E+02 -0.64131710792E+02 -0.65208503184E+03  0.66143002826E+03  0.82689626047E+02 0.  0.
         -6    2    1    2    0  503  0.53778453809E+02  0.87036877708E+02 -0.35661679883E+03  0.41066408242E+03  0.17607358463E+03 0.  0.
        -24    2    5    5    0    0  0.19852617634E+02  0.23682714771E+02 -0.31654374512E+03  0.32824653601E+03  0.81184040439E+02 0.  0.
          2    1    4    4  501    0  0.52709720414E+02 -0.10464699652E+02 -0.27573864089E+03  0.28092636517E+03  0.00000000000E+00 0. -1.
         -1    1    4    4    0  501 -0.16318197338E+02 -0.53667011140E+02 -0.37634639094E+03  0.38050366309E+03  0.00000000000E+00 0.  1.
          5    1    3    3  502    0 -0.90169976884E+02 -0.22905166916E+02 -0.56534376495E+03  0.57296678261E+03  0.47000000000E+01 0. -1.
         11    1    6    6    0    0 -0.15510237840E+02  0.34499896324E+02 -0.24302398251E+03  0.24595012990E+03  0.00000000000E+00 0. -1.
        -12    1    6    6    0    0  0.35362855474E+02 -0.10817181553E+02 -0.73519762618E+02  0.82296406115E+02  0.00000000000E+00 0.  1.
         -5    1    5    5    0  503  0.33925836175E+02  0.63354162937E+02 -0.40073053708E+02  0.82417546403E+02  0.47000000000E+01 0.  1.
<mgrwt>
<rscale>  2 0.20388546E+03</rscale>
<asrwt>0</asrwt>
<pdfrwt beam="1">  1       21 0.54627152E-02 0.20396718E+03</pdfrwt>
<pdfrwt beam="2">  1       21 0.24762357E+00 0.20396718E+03</pdfrwt>
<totfact> 0.15734690E+04</totfact>
</mgrwt>
</event>
<event>
12    1  0.2762290E-001  0.1776679E+03  0.7546771E-02  0.1170233E+00
         21   -1    0    0  504  503  0.00000000000E+00  0.00000000000E+00  0.28968633632E+03  0.28968633632E+03  0.00000000000E+00 0.  1.
         21   -1    0    0  502  504 -0.00000000000E+00 -0.00000000000E+00 -0.11865411882E+03  0.11865411882E+03  0.00000000000E+00 0. -1.
          6    2    1    2  502    0  0.29515606311E+02 -0.21858953420E+02  0.25900588266E+02  0.17893016272E+03  0.17319404665E+03 0.  0.
         24    2    3    3    0    0  0.11246846077E+02 -0.56348157277E+02  0.70843442255E+02  0.11922084261E+03  0.76767243184E+02 0.  0.
         -6    2    1    2    0  503 -0.29515606311E+02  0.21858953420E+02  0.14513162923E+03  0.22941029242E+03  0.17383011133E+03 0.  0.
        -24    2    5    5    0    0  0.33556602598E+02  0.63448817719E+01  0.13934018898E+03  0.16403123816E+03  0.79525189248E+02 0.  0.
          4    1    4    4  501    0 -0.27561264397E+02 -0.34555574507E+01  0.93638182096E+01  0.29312885630E+02  0.00000000000E+00 0. -1.
         -3    1    4    4    0  501  0.38808110474E+02 -0.52892599826E+02  0.61479624046E+02  0.89907956977E+02  0.00000000000E+00 0.  1.
          5    1    3    3  502    0  0.18268760234E+02  0.34489203857E+02 -0.44942853989E+02  0.59709320109E+02  0.47000000000E+01 0. -1.
         13    1    6    6    0    0 -0.10205127299E+02 -0.35166025935E+01 -0.57039962533E+01  0.12208467973E+02  0.00000000000E+00 0. -1.
        -14    1    6    6    0    0  0.43761729897E+02  0.98614843653E+01  0.14504418524E+03  0.15182277019E+03  0.00000000000E+00 0.  1.
         -5    1    5    5    0  503 -0.63072208909E+02  0.15514071648E+02  0.57914402470E+01  0.65379054259E+02  0.47000000000E+01 0.  1.
<mgrwt>
<rscale>  2 0.17751215E+03</rscale>
<asrwt>0</asrwt>
<pdfrwt beam="1">  1       21 0.44567128E-01 0.17766793E+03</pdfrwt>
<pdfrwt beam="2">  1       21 0.18254480E-01 0.17766793E+03</pdfrwt>
<totfact> 0.13290441E+05</totfact>
</mgrwt>
</event>
<event>
12    1  0.2762290E-001  0.1808251E+03  0.7546771E-02  0.1167226E+00
         21   -1    0    0  504  503  0.00000000000E+00  0.00000000000E+00  0.30131609763E+03  0.30131609763E+03  0.00000000000E+00 0.  1.
         21   -1    0    0  502  504 -0.00000000000E+00 -0.00000000000E+00 -0.13718351272E+03  0.13718351272E+03  0.00000000000E+00 0.  1.
          6    2    1    2  502    0  0.21592349636E+02 -0.40345332769E+02 -0.18942625889E+02  0.18181457492E+03  0.17493924985E+03 0.  0.
         24    2    3    3    0    0  0.56463970831E+02 -0.47163027830E+02 -0.62137291612E+02  0.12568632822E+03  0.80768056164E+02 0.  0.
         -6    2    1    2    0  503 -0.21592349636E+02  0.40345332769E+02  0.18307521081E+03  0.25668503543E+03  0.17400200908E+03 0.  0.
        -24    2    5    5    0    0 -0.45924696125E+02  0.38805473807E+02  0.34671454989E+02  0.10621843119E+03  0.80407106791E+02 0.  0.
          2    1    4    4  501    0  0.37133759734E+02 -0.64409389928E+02 -0.21322241114E+02  0.77344189110E+02  0.00000000000E+00 0. -1.
         -1    1    4    4    0  501  0.19330211097E+02  0.17246362098E+02 -0.40815050498E+02  0.48342139111E+02  0.00000000000E+00 0.  1.
          5    1    3    3  502    0 -0.34871621195E+02  0.68176950614E+01  0.43194665723E+02  0.56128246700E+02  0.47000000000E+01 0. -1.
         11    1    6    6    0    0 -0.65576688991E+02  0.43078831900E+02  0.19016530480E+02  0.80732374723E+02  0.00000000000E+00 0. -1.
        -12    1    6    6    0    0  0.19651992866E+02 -0.42733580931E+01  0.15654924509E+02  0.25486056470E+02  0.00000000000E+00 0.  1.
         -5    1    5    5    0  503  0.24332346488E+02  0.15398589619E+01  0.14840375582E+03  0.15046660424E+03  0.47000000000E+01 0.  1.
<mgrwt>
<rscale>  2 0.18059803E+03</rscale>
<asrwt>0</asrwt>
<pdfrwt beam="1">  1       21 0.46356322E-01 0.18082510E+03</pdfrwt>
<pdfrwt beam="2">  1       21 0.21105156E-01 0.18082510E+03</pdfrwt>
<totfact> 0.93465316E+04</totfact>
</mgrwt>
</event>
<event>
12    1  0.2762290E-001  0.2388584E+03  0.7546771E-02  0.1122988E+00
         21   -1    0    0  504  503  0.00000000000E+00  0.00000000000E+00  0.54234471032E+02  0.54234471032E+02  0.00000000000E+00 0.  1.
         21   -1    0    0  502  504 -0.00000000000E+00 -0.00000000000E+00 -0.10565626655E+04  0.10565626655E+04  0.00000000000E+00 0.  1.
          6    2    1    2  502    0 -0.60322293644E+02 -0.13014426254E+03 -0.62521064267E+03  0.66439934797E+03  0.17309488062E+03 0.  0.
         24    2    3    3    0    0  0.16544733933E+02 -0.11913837484E+03 -0.44275205328E+03  0.46604890977E+03  0.81881164109E+02 0.  0.
         -6    2    1    2    0  503  0.60322293644E+02  0.13014426254E+03 -0.37711755176E+03  0.44639778852E+03  0.19098960591E+03 0.  0.
        -24    2    5    5    0    0  0.30542302571E+02  0.16596682757E+03 -0.33252080756E+03  0.38173664387E+03  0.81700414390E+02 0.  0.
          2    1    4    4  501    0  0.14490465513E+02  0.53565866647E+01 -0.10395131086E+03  0.10509301424E+03  0.00000000000E+00 0. -1.
         -1    1    4    4    0  501  0.20542684203E+01 -0.12449496150E+03 -0.33880074242E+03  0.36095589553E+03  0.00000000000E+00 0.  1.
          5    1    3    3  502    0 -0.76867027577E+02 -0.11005887701E+02 -0.18245858939E+03  0.19835043820E+03  0.47000000000E+01 0. -1.
         13    1    6    6    0    0  0.10651856429E+02  0.20571257856E+02 -0.62675582326E+01  0.23998353722E+02  0.00000000000E+00 0. -1.
        -14    1    6    6    0    0  0.19890446141E+02  0.14539556972E+03 -0.32625324933E+03  0.35773829015E+03  0.00000000000E+00 0.  1.
         -5    1    5    5    0  503  0.29779991074E+02 -0.35822565035E+02 -0.44596744197E+02  0.64661144647E+02  0.47000000000E+01 0.  1.
<mgrwt>
<rscale>  2 0.23526526E+03</rscale>
<asrwt>0</asrwt>
<pdfrwt beam="1">  1       21 0.83437642E-02 0.23885841E+03</pdfrwt>
<pdfrwt beam="2">  1       21 0.16254811E+00 0.23885841E+03</pdfrwt>
<totfact> 0.26139497E+04</totfact>
</mgrwt>
</event>
<event>
12    1  0.2762290E-001  0.2262583E+03  0.7546771E-02  0.1129458E+00
         21   -1    0    0  504  503  0.00000000000E+00  0.00000000000E+00  0.10599417602E+03  0.10599417602E+03  0.00000000000E+00 0. -1.
         21   -1    0    0  502  504 -0.00000000000E+00 -0.00000000000E+00 -0.54625763934E+03  0.54625763934E+03  0.00000000000E+00 0.  1.
          6    2    1    2  502    0  0.39865009998E+02  0.14024971103E+03 -0.10714156041E+03  0.24955711774E+03  0.17187274531E+03 0.  0.
         24    2    3    3    0    0  0.61195323802E+02  0.10274686166E+03 -0.11934589327E+02  0.14492488876E+03  0.80987676373E+02 0.  0.
         -6    2    1    2    0  503 -0.39865009998E+02 -0.14024971103E+03 -0.33312190291E+03  0.40269469762E+03  0.17301334291E+03 0.  0.
        -24    2    5    5    0    0  0.22890112110E+01 -0.11031809906E+03 -0.11479400170E+03  0.17827984663E+03  0.80191759758E+02 0.  0.
          2    1    4    4  501    0  0.34409760117E+02  0.74362348196E+02  0.30354112163E+02  0.87379417175E+02  0.00000000000E+00 0. -1.
         -1    1    4    4    0  501  0.26785563685E+02  0.28384513461E+02 -0.42288701491E+02  0.57545471587E+02  0.00000000000E+00 0.  1.
          5    1    3    3  502    0 -0.21330313804E+02  0.37502849372E+02 -0.95206971079E+02  0.10463222897E+03  0.47000000000E+01 0. -1.
         13    1    6    6    0    0  0.35460195375E+02 -0.22350129567E+02 -0.42409983577E+02  0.59628520480E+02  0.00000000000E+00 0. -1.
        -14    1    6    6    0    0 -0.33171184164E+02 -0.87967969497E+02 -0.72384018127E+02  0.11865132615E+03  0.00000000000E+00 0.  1.
         -5    1    5    5    0  503 -0.42154021209E+02 -0.29931611966E+02 -0.21832790121E+03  0.22441485099E+03  0.47000000000E+01 0.  1.
<mgrwt>
<rscale>  2 0.22604024E+03</rscale>
<asrwt>0</asrwt>
<pdfrwt beam="1">  1       21 0.16306797E-01 0.22625830E+03</pdfrwt>
<pdfrwt beam="2">  1       21 0.84039635E-01 0.22625830E+03</pdfrwt>
<totfact> 0.40717650E+04</totfact>
</mgrwt>
</event>
<event>
12    1  0.2762290E-001  0.1771454E+03  0.7546771E-02  0.1170598E+00
         21   -1    0    0  504  503  0.00000000000E+00  0.00000000000E+00  0.69029952053E+02  0.69029952053E+02  0.00000000000E+00 0. -1.
         21   -1    0    0  502  504 -0.00000000000E+00 -0.00000000000E+00 -0.47899585685E+03  0.47899585685E+03  0.00000000000E+00 0. -1.
          6    2    1    2  502    0 -0.30694803527E+02 -0.20543920020E+02 -0.26688818977E+03  0.32032761758E+03  0.17325199315E+03 0.  0.
         24    2    3    3    0    0 -0.20664772686E+02 -0.80050023565E+02 -0.16595625167E+03  0.20263766896E+03  0.81764957711E+02 0.  0.
         -6    2    1    2    0  503  0.30694803527E+02  0.20543920020E+02 -0.14307771502E+03  0.22769819132E+03  0.17323686150E+03 0.  0.
        -24    2    5    5    0    0  0.31082366108E+02 -0.53799879544E+02 -0.10112569608E+03  0.14220425802E+03  0.78326905138E+02 0.  0.
          4    1    4    4  501    0 -0.10713220424E+01 -0.30857797300E+02 -0.14056058303E+03  0.14391187889E+03  0.00000000000E+00 0. -1.
         -3    1    4    4    0  501 -0.19593450644E+02 -0.49192226265E+02 -0.25395668641E+02  0.58725790065E+02  0.00000000000E+00 0.  1.
          5    1    3    3  502    0 -0.10030030841E+02  0.59506103545E+02 -0.10093193810E+03  0.11768994862E+03  0.47000000000E+01 0. -1.
         13    1    6    6    0    0 -0.41872348090E+00  0.13331920392E+02  0.36618728390E+01  0.13832018774E+02  0.00000000000E+00 0. -1.
        -14    1    6    6    0    0  0.31501089589E+02 -0.67131799936E+02 -0.10478756892E+03  0.12837223925E+03  0.00000000000E+00 0.  1.
         -5    1    5    5    0  503 -0.38756258089E+00  0.74343799564E+02 -0.41952018938E+02  0.85493933301E+02  0.47000000000E+01 0.  1.
<mgrwt>
<rscale>  2 0.17714165E+03</rscale>
<asrwt>0</asrwt>
<pdfrwt beam="1">  1       21 0.10619992E-01 0.17714535E+03</pdfrwt>
<pdfrwt beam="2">  1       21 0.73691673E-01 0.17714535E+03</pdfrwt>
<totfact> 0.12131170E+05</totfact>
</mgrwt>
</event>
<event>
12    1  0.2762290E-001  0.3057628E+03  0.7546771E-02  0.1082420E+00
         21   -1    0    0  504  503  0.00000000000E+00  0.00000000000E+00  0.12278907168E+04  0.12278907168E+04  0.00000000000E+00 0. -1.
         21   -1    0    0  502  504 -0.00000000000E+00 -0.00000000000E+00 -0.19234175092E+03  0.19234175092E+03  0.00000000000E+00 0.  1.
          6    2    1    2  502    0 -0.25060705920E+03 -0.31454530168E+02 -0.34369521293E+02  0.30748070803E+03  0.17195882132E+03 0.  0.
         24    2    3    3    0    0 -0.17085881844E+03  0.35883841517E+02 -0.57841731602E+02  0.20039535487E+03  0.79575413403E+02 0.  0.
         -6    2    1    2    0  503  0.25060705920E+03  0.31454530168E+02  0.10699184872E+04  0.11127517597E+04  0.17232998547E+03 0.  0.
        -24    2    5    5    0    0  0.75221359742E+02  0.63518939457E+02  0.44005239517E+03  0.45812083025E+03  0.80843527762E+02 0.  0.
          2    1    4    4  501    0 -0.14767223001E+03  0.18143649230E+02 -0.74910700590E+02  0.16657698697E+03  0.00000000000E+00 0. -1.
         -1    1    4    4    0  501 -0.23186588424E+02  0.17740192287E+02  0.17068968988E+02  0.33818367900E+02  0.00000000000E+00 0.  1.
          5    1    3    3  502    0 -0.79748240763E+02 -0.67338371685E+02  0.23472210309E+02  0.10708535317E+03  0.47000000000E+01 0. -1.
         11    1    6    6    0    0  0.85504974527E+02  0.27327791288E+02  0.30897652871E+03  0.32175208490E+03  0.00000000000E+00 0. -1.
        -12    1    6    6    0    0 -0.10283614785E+02  0.36191148169E+02  0.13107586646E+03  0.13636874535E+03  0.00000000000E+00 0.  1.
         -5    1    5    5    0  503  0.17538569946E+03 -0.32064409289E+02  0.62986609202E+03  0.65463092945E+03  0.47000000000E+01 0.  1.
<mgrwt>
<rscale>  2 0.30571056E+03</rscale>
<asrwt>0</asrwt>
<pdfrwt beam="1">  1       21 0.18890626E+00 0.30576283E+03</pdfrwt>
<pdfrwt beam="2">  1       21 0.29591039E-01 0.30576283E+03</pdfrwt>
<totfact> 0.15799616E+03</totfact>
</mgrwt>
</event>
<event>
12    1  0.2762290E-001  0.2738243E+03  0.7546771E-02  0.1099114E+00
         21   -1    0    0  504  503  0.00000000000E+00  0.00000000000E+00  0.45271739127E+03  0.45271739127E+03  0.00000000000E+00 0.  1.
         21   -1    0    0  502  504 -0.00000000000E+00 -0.00000000000E+00 -0.20717941828E+03  0.20717941828E+03  0.00000000000E+00 0. -1.
          6    2    1    2  502    0  0.47511289244E+02  0.20656779019E+03 -0.25033692092E+02  0.27494389212E+03  0.17332017634E+03 0.  0.
         24    2    3    3    0    0  0.99022730272E+02  0.13720328366E+03 -0.33691153122E+02  0.18798467781E+03  0.74651879639E+02 0.  0.
         -6    2    1    2    0  503 -0.47511289244E+02 -0.20656779019E+03  0.27057166508E+03  0.38495291742E+03  0.17335555409E+03 0.  0.
        -24    2    5    5    0    0  0.91878080645E+01 -0.28744182291E+02  0.10400540482E+03  0.13474813685E+03  0.80182867996E+02 0.  0.
          2    1    4    4  501    0  0.72856366335E+02  0.82647764657E+02 -0.55882277517E+02  0.12353757347E+03  0.00000000000E+00 0. -1.
         -1    1    4    4    0  501  0.26166363937E+02  0.54555519006E+02  0.22191124395E+02  0.64447104338E+02  0.00000000000E+00 0.  1.
          5    1    3    3  502    0 -0.51511441027E+02  0.69364506531E+02  0.86574610299E+01  0.86959214316E+02  0.47000000000E+01 0. -1.
         11    1    6    6    0    0  0.14235184154E+02 -0.41759500385E+02  0.18053460183E+02  0.47669946139E+02  0.00000000000E+00 0. -1.
        -12    1    6    6    0    0 -0.50473760897E+01  0.13015318094E+02  0.85951944641E+02  0.87078190714E+02  0.00000000000E+00 0.  1.
         -5    1    5    5    0  503 -0.56699097309E+02 -0.17782360790E+03  0.16656626026E+03  0.25020478057E+03  0.47000000000E+01 0.  1.
<mgrwt>
<rscale>  2 0.27381866E+03</rscale>
<asrwt>0</asrwt>
<pdfrwt beam="1">  1       21 0.69648829E-01 0.27382426E+03</pdfrwt>
<pdfrwt beam="2">  1       21 0.31873757E-01 0.27382426E+03</pdfrwt>
<totfact> 0.16974563E+04</totfact>
</mgrwt>
</event>
<event>
12    1  0.2762290E-001  0.1985754E+03  0.7546771E-02  0.1151157E+00
         21   -1    0    0  504  503  0.00000000000E+00  0.00000000000E+00  0.18934379564E+03  0.18934379564E+03  0.00000000000E+00 0.  1.
         21   -1    0    0  502  504 -0.00000000000E+00 -0.00000000000E+00 -0.22089265955E+03  0.22089265955E+03  0.00000000000E+00 0.  1.
          6    2    1    2  502    0 -0.62527285975E+02 -0.74012646839E+02 -0.66760653883E+02  0.20856335271E+03  0.17220381472E+03 0.  0.
         24    2    3    3    0    0 -0.68346670568E+02 -0.11323403727E+03 -0.37342630890E+02  0.15896806280E+03  0.79894670235E+02 0.  0.
         -6    2    1    2    0  503  0.62527285975E+02  0.74012646839E+02  0.35211789975E+02  0.20167310248E+03  0.17333388799E+03 0.  0.
        -24    2    5    5    0    0 -0.24993680000E+02  0.67893408490E+02  0.35628106555E+02  0.11381168954E+03  0.80309026537E+02 0.  0.
          4    1    4    4  501    0 -0.47106228652E+02 -0.12222266230E+03 -0.27241037374E+02  0.13378882642E+03  0.00000000000E+00 0. -1.
         -3    1    4    4    0  501 -0.21240441916E+02  0.89886250301E+01 -0.10101593516E+02  0.25179236372E+02  0.00000000000E+00 0.  1.
          5    1    3    3  502    0  0.58193845931E+01  0.39221390436E+02 -0.29418022993E+02  0.49595289913E+02  0.47000000000E+01 0. -1.
         13    1    6    6    0    0 -0.41300985073E+02  0.85284396781E+01  0.30477640210E+02  0.52032607124E+02  0.00000000000E+00 0. -1.
        -14    1    6    6    0    0  0.16307305073E+02  0.59364968812E+02  0.51504663454E+01  0.61779082418E+02  0.00000000000E+00 0.  1.
         -5    1    5    5    0  503  0.87520965975E+02  0.61192383482E+01 -0.41631658003E+00  0.87861412933E+02  0.47000000000E+01 0.  1.
<mgrwt>
<rscale>  2 0.19832848E+03</rscale>
<asrwt>0</asrwt>
<pdfrwt beam="1">  1       21 0.29129815E-01 0.19857535E+03</pdfrwt>
<pdfrwt beam="2">  1       21 0.33983486E-01 0.19857535E+03</pdfrwt>
<totfact> 0.93913342E+04</totfact>
</mgrwt>
</event>
<event>
12    1  0.2762290E-001  0.2678475E+03  0.7546771E-02  0.1102819E+00
         21   -1    0    0  504  503  0.00000000000E+00  0.00000000000E+00  0.15385775089E+04  0.15385775089E+04  0.00000000000E+00 0. -1.
         21   -1    0    0  502  504 -0.00000000000E+00 -0.00000000000E+00 -0.65781478776E+02  0.65781478776E+02  0.00000000000E+00 0.  1.
          6    2    1    2  502    0  0.15104299526E+03 -0.13406810178E+03  0.30151384250E+03  0.40330244346E+03  0.17593754958E+03 0.  0.
         24    2    3    3    0    0  0.72892673790E+02 -0.15230963122E+03  0.23099365470E+03  0.29636595282E+03  0.77221394897E+02 0.  0.
         -6    2    1    2    0  503 -0.15104299526E+03  0.13406810178E+03  0.11712821876E+04  0.12010565442E+04  0.17276173485E+03 0.  0.
        -24    2    5    5    0    0 -0.98502618341E+02  0.11128709224E+03  0.10799942679E+04  0.10931907022E+04  0.81183186584E+02 0.  0.
          2    1    4    4  501    0  0.87191103147E+02 -0.14597997381E+03  0.21139899783E+03  0.27129684389E+03  0.00000000000E+00 0. -1.
         -1    1    4    4    0  501 -0.14298429357E+02 -0.63296574042E+01  0.19594656864E+02  0.25069108930E+02  0.00000000000E+00 0.  1.
          5    1    3    3  502    0  0.78150321467E+02  0.18241529438E+02  0.70520187810E+02  0.10693649064E+03  0.47000000000E+01 0. -1.
         13    1    6    6    0    0 -0.17412437278E+02  0.52268973450E+02  0.61718415067E+03  0.61963821250E+03  0.00000000000E+00 0. -1.
        -14    1    6    6    0    0 -0.81090181063E+02  0.59018118792E+02  0.46281011727E+03  0.47355248966E+03  0.00000000000E+00 0.  1.
         -5    1    5    5    0  503 -0.52540376917E+02  0.22781009539E+02  0.91287919669E+02  0.10786584204E+03  0.47000000000E+01 0.  1.
<mgrwt>
<rscale>  2 0.26732713E+03</rscale>
<asrwt>0</asrwt>
<pdfrwt beam="1">  1       21 0.23670421E+00 0.26784746E+03</pdfrwt>
<pdfrwt beam="2">  1       21 0.10120229E-01 0.26784746E+03</pdfrwt>
<totfact> 0.59433902E+03</totfact>
</mgrwt>
</event>
<event>
12    1  0.2762290E-001  0.2536272E+03  0.7546771E-02  0.1111044E+00
         21   -1    0    0  504  503  0.00000000000E+00  0.00000000000E+00  0.49255043653E+02  0.49255043653E+02  0.00000000000E+00 0.  1.
         21   -1    0    0  502  504 -0.00000000000E+00 -0.00000000000E+00 -0.14083621486E+04  0.14083621486E+04  0.00000000000E+00 0. -1.
          6    2    1    2  502    0  0.18595876246E+03 -0.52193844570E+01 -0.87628046045E+03  0.91222896778E+03  0.17229724605E+03 0.  0.
         24    2    3    3    0    0  0.39199767651E+02  0.43511442901E+02 -0.34364834260E+03  0.35758317175E+03  0.79634627538E+02 0.  0.
         -6    2    1    2    0  503 -0.18595876246E+03  0.52193844570E+01 -0.48282664453E+03  0.54538822450E+03  0.17239154109E+03 0.  0.
        -24    2    5    5    0    0 -0.19096805844E+03 -0.27224513568E+02 -0.34404072822E+03  0.40269512680E+03  0.81174928330E+02 0.  0.
          4    1    4    4  501    0  0.42631728771E+02  0.23686620196E+01 -0.26820125879E+03  0.27157869960E+03  0.00000000000E+00 0. -1.
         -3    1    4    4    0  501 -0.34319611196E+01  0.41142780882E+02 -0.75447083807E+02  0.86004472156E+02  0.00000000000E+00 0.  1.
          5    1    3    3  502    0  0.14675899481E+03 -0.48730827359E+02 -0.53263211785E+03  0.55464579603E+03  0.47000000000E+01 0. -1.
         11    1    6    6    0    0 -0.32517005347E+01  0.59841442183E+01  0.24400134495E+01  0.72344456613E+01  0.00000000000E+00 0. -1.
        -12    1    6    6    0    0 -0.18771635790E+03 -0.33208657786E+02 -0.34648074167E+03  0.39546068114E+03  0.00000000000E+00 0.  1.
         -5    1    5    5    0  503  0.50092959754E+01  0.32443898025E+02 -0.13878591631E+03  0.14269309770E+03  0.47000000000E+01 0.  1.
<mgrwt>
<rscale>  2 0.25361116E+03</rscale>
<asrwt>0</asrwt>
<pdfrwt beam="1">  1       21 0.75776996E-02 0.25362718E+03</pdfrwt>
<pdfrwt beam="2">  1       21 0.21667108E+00 0.25362718E+03</pdfrwt>
<totfact> 0.13283697E+04</totfact>
</mgrwt>
</event>
<event>
12    1  0.2762290E-001  0.3144656E+03  0.7546771E-02  0.1078475E+00
         21   -1    0    0  504  503  0.00000000000E+00  0.00000000000E+00  0.14306816209E+03  0.14306816209E+03  0.00000000000E+00 0.  1.
         21   -1    0    0  502  504 -0.00000000000E+00 -0.00000000000E+00 -0.70319480309E+03  0.70319480309E+03  0.00000000000E+00 0.  1.
          6    2    1    2  502    0  0.20128951556E+01 -0.26201744740E+03 -0.34607337279E+03  0.46760602588E+03  0.17387185395E+03 0.  0.
         24    2    3    3    0    0  0.50647684680E+02 -0.22641476155E+03 -0.31502553636E+03  0.39964315264E+03  0.81515205226E+02 0.  0.
         -6    2    1    2    0  503 -0.20128951556E+01  0.26201744740E+03 -0.21405326822E+03  0.37865693930E+03  0.17001494510E+03 0.  0.
        -24    2    5    5    0    0 -0.68568287335E+02  0.16261761123E+03 -0.12868124338E+03  0.23161809993E+03  0.77084267577E+02 0.  0.
          4    1    4    4  501    0  0.70691417062E+02 -0.13589900109E+03 -0.19379285495E+03  0.24702527314E+03  0.00000000000E+00 0. -1.
         -3    1    4    4    0  501 -0.20043732383E+02 -0.90515760469E+02 -0.12123268141E+03  0.15261787950E+03  0.00000000000E+00 0.  1.
          5    1    3    3  502    0 -0.48634789524E+02 -0.35602685843E+02 -0.31047836431E+02  0.67962873235E+02  0.47000000000E+01 0. -1.
         13    1    6    6    0    0 -0.28009336359E+02  0.67817310630E+01 -0.34943375271E+02  0.45294086532E+02  0.00000000000E+00 0. -1.
        -14    1    6    6    0    0 -0.40558950977E+02  0.15583588016E+03 -0.93737868110E+02  0.18632401340E+03  0.00000000000E+00 0.  1.
         -5    1    5    5    0  503  0.66555392180E+02  0.99399836169E+02 -0.85372024835E+02  0.14703883937E+03  0.47000000000E+01 0.  1.
<mgrwt>
<rscale>  2 0.31393526E+03</rscale>
<asrwt>0</asrwt>
<pdfrwt beam="1">  1       21 0.22010486E-01 0.31446560E+03</pdfrwt>
<pdfrwt beam="2">  1       21 0.10818382E+00 0.31446560E+03</pdfrwt>
<totfact> 0.12268004E+04</totfact>
</mgrwt>
</event>
<event>
12    1  0.2762290E-001  0.4410440E+03  0.7546771E-02  0.1030475E+00
         21   -1    0    0  504  503  0.00000000000E+00  0.00000000000E+00  0.12647660367E+04  0.12647660367E+04  0.00000000000E+00 0. -1.
         21   -1    0    0  502  504 -0.00000000000E+00 -0.00000000000E+00 -0.60560623668E+03  0.60560623668E+03  0.00000000000E+00 0.  1.
          6    2    1    2  502    0 -0.15316727687E+03  0.37528947669E+03 -0.47842981883E+03  0.65027802065E+03  0.17223242020E+03 0.  0.
         24    2    3    3    0    0 -0.16982577716E+03  0.25803165732E+03 -0.31607719074E+03  0.44926218126E+03  0.80688203824E+02 0.  0.
         -6    2    1    2    0  503  0.15316727687E+03 -0.37528947669E+03  0.11375896188E+04  0.12200942527E+04  0.17383163873E+03 0.  0.
        -24    2    5    5    0    0  0.13945974527E+03 -0.31477761774E+03  0.77048167820E+03  0.84775044443E+03  0.80652528829E+02 0.  0.
          4    1    4    4  501    0 -0.75230622889E+02  0.11327315058E+03 -0.83959980341E+02  0.15981155015E+03  0.00000000000E+00 0. -1.
         -3    1    4    4    0  501 -0.94595154275E+02  0.14475850673E+03 -0.23211721040E+03  0.28945063111E+03  0.00000000000E+00 0.  1.
          5    1    3    3  502    0  0.16658500292E+02  0.11725781937E+03 -0.16235262809E+03  0.20101583938E+03  0.47000000000E+01 0. -1.
         13    1    6    6    0    0  0.77182454114E+02 -0.11605760741E+03  0.23534473426E+03  0.27352082810E+03  0.00000000000E+00 0. -1.
        -14    1    6    6    0    0  0.62277291159E+02 -0.19872001033E+03  0.53513694394E+03  0.57422961633E+03  0.00000000000E+00 0.  1.
         -5    1    5    5    0  503  0.13707531600E+02 -0.60511858950E+02  0.36710794063E+03  0.37234380829E+03  0.47000000000E+01 0.  1.
<mgrwt>
<rscale>  2 0.44088699E+03</rscale>
<asrwt>0</asrwt>
<pdfrwt beam="1">  1       21 0.19457939E+00 0.44104404E+03</pdfrwt>
<pdfrwt beam="2">  1       21 0.93170190E-01 0.44104404E+03</pdfrwt>
<totfact> 0.11335209E+02</totfact>
</mgrwt>
</event>
<event>
12    1  0.2762290E-001  0.3078805E+03  0.7546771E-02  0.1081544E+00
         21   -1    0    0  504  503  0.00000000000E+00  0.00000000000E+00  0.72876552982E+02  0.72876552982E+02  0.00000000000E+00 0.  1.
         21   -1    0    0  502  504 -0.00000000000E+00 -0.00000000000E+00 -0.14072361434E+04  0.14072361434E+04  0.00000000000E+00 0. -1.
          6    2    1    2  502    0 -0.21628857284E+03  0.13134425289E+03 -0.45625692293E+03  0.54959956582E+03  0.17279248689E+03 0.  0.
         24    2    3    3    0    0 -0.22062011106E+03  0.92116425909E+02 -0.35000013667E+03  0.43615275336E+03  0.10281273882E+03 0.  0.
         -6    2    1    2    0  503  0.21628857284E+03 -0.13134425289E+03 -0.87810266745E+03  0.93051313052E+03  0.17538053476E+03 0.  0.
        -24    2    5    5    0    0  0.11603672148E+03 -0.14785379088E+03 -0.54741443882E+03  0.58453655169E+03  0.81823885384E+02 0.  0.
          4    1    4    4  501    0 -0.11133464819E+03  0.10988411132E+02 -0.22534722078E+03  0.25158998187E+03  0.00000000000E+00 0. -1.
         -3    1    4    4    0  501 -0.10928546288E+03  0.81128014778E+02 -0.12465291590E+03  0.18456277149E+03  0.00000000000E+00 0.  1.
          5    1    3    3  502    0  0.43315382283E+01  0.39227826984E+02 -0.10625678625E+03  0.11344681246E+03  0.47000000000E+01 0. -1.
         11    1    6    6    0    0  0.18681368085E+02 -0.68949465508E+02 -0.28379468276E+03  0.29264730354E+03  0.00000000000E+00 0. -1.
        -12    1    6    6    0    0  0.97355353397E+02 -0.78904325371E+02 -0.26361975606E+03  0.29188924814E+03  0.00000000000E+00 0.  1.
         -5    1    5    5    0  503  0.10025185135E+03  0.16509537985E+02 -0.33068822863E+03  0.34597657883E+03  0.47000000000E+01 0.  1.
<mgrwt>
<rscale>  2 0.30751311E+03</rscale>
<asrwt>0</asrwt>
<pdfrwt beam="1">  1       21 0.11211778E-01 0.30788048E+03</pdfrwt>
<pdfrwt beam="2">  1       21 0.21649786E+00 0.30788048E+03</pdfrwt>
<totfact> 0.64326575E+03</totfact>
</mgrwt>
</event>
<event>
12    1  0.2762290E-001  0.2041966E+03  0.7546771E-02  0.1146672E+00
         21   -1    0    0  504  503  0.00000000000E+00  0.00000000000E+00  0.42434764794E+03  0.42434764794E+03  0.00000000000E+00 0.  1.
         21   -1    0    0  502  504 -0.00000000000E+00 -0.00000000000E+00 -0.42129452219E+03  0.42129452219E+03  0.00000000000E+00 0.  1.
          6    2    1    2  502    0 -0.64060911538E+02  0.82223456750E+02 -0.36928583258E+03  0.42098635999E+03  0.17318484900E+03 0.  0.
         24    2    3    3    0    0 -0.35893224386E+02 -0.15044169247E+02 -0.10649980745E+03  0.13932522552E+03  0.80960847907E+02 0.  0.
         -6    2    1    2    0  503  0.64060911538E+02 -0.82223456750E+02  0.37233895834E+03  0.42465581013E+03  0.17558974900E+03 0.  0.
        -24    2    5    5    0    0  0.81633877743E+02  0.54115480997E+01  0.16330239892E+03  0.19726390968E+03  0.74511755596E+02 0.  0.
          2    1    4    4  501    0  0.20275024160E+02  0.34085156019E+01 -0.39233524524E+01  0.20930534579E+02  0.00000000000E+00 0. -1.
         -1    1    4    4    0  501 -0.56168248546E+02 -0.18452684849E+02 -0.10257645499E+03  0.11839469094E+03  0.00000000000E+00 0.  1.
          5    1    3    3  502    0 -0.28167687153E+02  0.97267625997E+02 -0.26278602514E+03  0.28166113448E+03  0.47000000000E+01 0. -1.
         11    1    6    6    0    0  0.40859496014E+02 -0.32194990579E+02  0.55749456363E+02  0.76249706345E+02  0.00000000000E+00 0. -1.
        -12    1    6    6    0    0  0.40774381729E+02  0.37606538679E+02  0.10755294256E+03  0.12101420334E+03  0.00000000000E+00 0.  1.
         -5    1    5    5    0  503 -0.17572966205E+02 -0.87635004850E+02  0.20903655942E+03  0.22739190045E+03  0.47000000000E+01 0.  1.
<mgrwt>
<rscale>  2 0.20367858E+03</rscale>
<asrwt>0</asrwt>
<pdfrwt beam="1">  1       21 0.65284253E-01 0.20419661E+03</pdfrwt>
<pdfrwt beam="2">  1       21 0.64814542E-01 0.20419661E+03</pdfrwt>
<totfact> 0.46919437E+03</totfact>
</mgrwt>
</event>
<event>
12    1  0.2762290E-001  0.2310627E+03  0.7546771E-02  0.1126194E+00
         21   -1    0    0  504  503  0.00000000000E+00  0.00000000000E+00  0.14452104765E+04  0.14452104765E+04  0.00000000000E+00 0.  1.
         21   -1    0    0  502  504 -0.00000000000E+00 -0.00000000000E+00 -0.16128184480E+03  0.16128184480E+03  0.00000000000E+00 0.  1.
          6    2    1    2  502    0 -0.10215154599E+03 -0.11091599860E+03 -0.64625593843E+02  0.23828602555E+03  0.17281916994E+03 0.  0.
         24    2    3    3    0    0 -0.82166435576E+01 -0.59524369014E+02 -0.78089515147E+02  0.13026643166E+03  0.85209782913E+02 0.  0.
         -6    2    1    2    0  503  0.10215154599E+03  0.11091599860E+03  0.13485542255E+04  0.13682062958E+04  0.17507904340E+03 0.  0.
        -24    2    5    5    0    0  0.76599672926E+01  0.93814464087E+02  0.53974189786E+03  0.55369994690E+03  0.80015536729E+02 0.  0.
          2    1    4    4  501    0  0.27625948740E+02 -0.53958691887E+02 -0.24123164056E+02  0.65243087895E+02  0.00000000000E+00 0. -1.
         -1    1    4    4    0  501 -0.35842592298E+02 -0.55656771271E+01 -0.53966351091E+02  0.65023343767E+02  0.00000000000E+00 0.  1.
          5    1    3    3  502    0 -0.93934902430E+02 -0.51391629587E+02  0.13463921304E+02  0.10801959388E+03  0.47000000000E+01 0. -1.
         11    1    6    6    0    0 -0.13195540082E+02 -0.89125448251E+01  0.39407559309E+02  0.42503075936E+02  0.00000000000E+00 0. -1.
        -12    1    6    6    0    0  0.20855507374E+02  0.10272700891E+03  0.50033433855E+03  0.51119687096E+03  0.00000000000E+00 0.  1.
         -5    1    5    5    0  503  0.94491578695E+02  0.17101534514E+02  0.80881232769E+03  0.81450634887E+03  0.47000000000E+01 0.  1.
<mgrwt>
<rscale>  2 0.23063461E+03</rscale>
<asrwt>0</asrwt>
<pdfrwt beam="1">  1       21 0.22234006E+00 0.23106269E+03</pdfrwt>
<pdfrwt beam="2">  1       21 0.24812593E-01 0.23106269E+03</pdfrwt>
<totfact> 0.14365419E+03</totfact>
</mgrwt>
</event>
<event>
12    1  0.2762290E-001  0.1892050E+03  0.7546771E-02  0.1160377E+00
         21   -1    0    0  504  503  0.00000000000E+00  0.00000000000E+00  0.17069075094E+03  0.17069075094E+03  0.00000000000E+00 0. -1.
         21   -1    0    0  502  504 -0.00000000000E+00 -0.00000000000E+00 -0.59463428897E+03  0.59463428897E+03  0.00000000000E+00 0. -1.
          6    2    1    2  502    0 -0.54912607846E+02  0.50402739564E+02 -0.52312654633E+03  0.55629121020E+03  0.17390427370E+03 0.  0.
         24    2    3    3    0    0 -0.72121633102E+01 -0.19023639613E+02 -0.10758599873E+03  0.13227306055E+03  0.74212541120E+02 0.  0.
         -6    2    1    2    0  503  0.54912607846E+02 -0.50402739564E+02  0.99183008299E+02  0.20903382970E+03  0.16823210802E+03 0.  0.
        -24    2    5    5    0    0  0.70204625456E+02  0.12580518674E+02  0.95748999792E+02  0.14395987919E+03  0.80433929224E+02 0.  0.
          2    1    4    4  501    0 -0.29278025791E+02 -0.36650920967E+02 -0.52744500320E+02  0.70586649701E+02  0.00000000000E+00 0. -1.
         -1    1    4    4    0  501  0.22065862481E+02  0.17627281355E+02 -0.54841498412E+02  0.61686410846E+02  0.00000000000E+00 0.  1.
          5    1    3    3  502    0 -0.47700444536E+02  0.69426379177E+02 -0.41554054760E+03  0.42401814965E+03  0.47000000000E+01 0. -1.
         13    1    6    6    0    0  0.20290488463E+01 -0.20141375670E+02  0.53799943164E+02  0.57482396762E+02  0.00000000000E+00 0. -1.
        -14    1    6    6    0    0  0.68175576610E+02  0.32721894343E+02  0.41949056629E+02  0.86477482431E+02  0.00000000000E+00 0.  1.
         -5    1    5    5    0  503 -0.15292017610E+02 -0.62983258238E+02  0.34340085069E+01  0.65073950512E+02  0.47000000000E+01 0.  1.
<mgrwt>
<rscale>  2 0.18789140E+03</rscale>
<asrwt>0</asrwt>
<pdfrwt beam="1">  1       21 0.26260115E-01 0.18920499E+03</pdfrwt>
<pdfrwt beam="2">  1       21 0.91482198E-01 0.18920499E+03</pdfrwt>
<totfact> 0.13976924E+04</totfact>
</mgrwt>
</event>
<event>
12    1  0.2762290E-001  0.3326226E+03  0.7546771E-02  0.1070325E+00
         21   -1    0    0  504  503  0.00000000000E+00  0.00000000000E+00  0.11785302649E+03  0.11785302649E+03  0.00000000000E+00 0.  1.
         21   -1    0    0  502  504 -0.00000000000E+00 -0.00000000000E+00 -0.98604192171E+03  0.98604192171E+03  0.00000000000E+00 0. -1.
          6    2    1    2  502    0  0.28008448622E+03  0.94743157451E+01 -0.56373172469E+03  0.65297152546E+03  0.17332418633E+03 0.  0.
         24    2    3    3    0    0  0.17978642646E+03 -0.15714330928E+02 -0.48078654054E+03  0.52032099857E+03  0.83714662078E+02 0.  0.
         -6    2    1    2    0  503 -0.28008448622E+03 -0.94743157451E+01 -0.30445717053E+03  0.45092342274E+03  0.17916663308E+03 0.  0.
        -24    2    5    5    0    0 -0.70618534256E+02  0.66629191943E+01 -0.17732654828E+03  0.20532073444E+03  0.75369273552E+02 0.  0.
          2    1    4    4  501    0  0.80674206970E+02  0.10284355565E+02 -0.31581233533E+03  0.32611581806E+03  0.00000000000E+00 0. -1.
         -1    1    4    4    0  501  0.99112219489E+02 -0.25998686493E+02 -0.16497420521E+03  0.19420518051E+03  0.00000000000E+00 0.  1.
          5    1    3    3  502    0  0.10029805976E+03  0.25188646673E+02 -0.82945184147E+02  0.13265052690E+03  0.47000000000E+01 0. -1.
         11    1    6    6    0    0 -0.48760350751E+01 -0.27754376764E+02 -0.36213272414E+02  0.45885534175E+02  0.00000000000E+00 0. -1.
        -12    1    6    6    0    0 -0.65742499181E+02  0.34417295958E+02 -0.14111327586E+03  0.15943520027E+03  0.00000000000E+00 0.  1.
         -5    1    5    5    0  503 -0.20946595196E+03 -0.16137234939E+02 -0.12713062225E+03  0.24560268829E+03  0.47000000000E+01 0.  1.
<mgrwt>
<rscale>  2 0.33184225E+03</rscale>
<asrwt>0</asrwt>
<pdfrwt beam="1">  1       21 0.18131236E-01 0.33262256E+03</pdfrwt>
<pdfrwt beam="2">  1       21 0.15169875E+00 0.33262256E+03</pdfrwt>
<totfact> 0.73795044E+03</totfact>
</mgrwt>
</event>
<event>
12    1  0.2762290E-001  0.2058602E+03  0.7546771E-02  0.1145029E+00
         21   -1    0    0  504  503  0.00000000000E+00  0.00000000000E+00  0.30040974454E+03  0.30040974454E+03  0.00000000000E+00 0. -1.
         21   -1    0    0  502  504 -0.00000000000E+00 -0.00000000000E+00 -0.14294387134E+03  0.14294387134E+03  0.00000000000E+00 0. -1.
          6    2    1    2  502    0  0.81184014157E+02  0.73458983295E+02  0.50422618746E+02  0.21194538703E+03  0.17433112236E+03 0.  0.
         24    2    3    3    0    0  0.28939038383E+02  0.50803720383E+02  0.95511028558E+02  0.13915903439E+03  0.82609892446E+02 0.  0.
         -6    2    1    2    0  503 -0.81184014157E+02 -0.73458983295E+02  0.10704325446E+03  0.23140822885E+03  0.17350632171E+03 0.  0.
        -24    2    5    5    0    0 -0.11138023987E+03 -0.77800435863E+02  0.46416912085E+02  0.16337659175E+03  0.77967399268E+02 0.  0.
          2    1    4    4  501    0  0.34064760046E+02  0.52167756934E+02  0.10850688247E+03  0.12512244517E+03  0.00000000000E+00 0. -1.
         -1    1    4    4    0  501 -0.51257216624E+01 -0.13640365508E+01 -0.12995853913E+02  0.14036589229E+02  0.00000000000E+00 0.  1.
          5    1    3    3  502    0  0.52244975774E+02  0.22655262913E+02 -0.45088409813E+02  0.72786352640E+02  0.47000000000E+01 0. -1.
         13    1    6    6    0    0 -0.47574118242E+02 -0.64590447890E+02 -0.49978410626E+01  0.80375376207E+02  0.00000000000E+00 0. -1.
        -14    1    6    6    0    0 -0.63806121631E+02 -0.13209987973E+02  0.51414753148E+02  0.83001215540E+02  0.00000000000E+00 0.  1.
         -5    1    5    5    0  503  0.30196225716E+02  0.43414525672E+01  0.60626342370E+02  0.68031637104E+02  0.47000000000E+01 0.  1.
<mgrwt>
<rscale>  2 0.20568544E+03</rscale>
<asrwt>0</asrwt>
<pdfrwt beam="1">  1       21 0.46216883E-01 0.20586016E+03</pdfrwt>
<pdfrwt beam="2">  1       21 0.21991365E-01 0.20586016E+03</pdfrwt>
<totfact> 0.86167691E+04</totfact>
</mgrwt>
</event>
<event>
12    1  0.2762290E-001  0.2022314E+03  0.7546771E-02  0.1147925E+00
         21   -1    0    0  504  503  0.00000000000E+00  0.00000000000E+00  0.55856675164E+02  0.55856675164E+02  0.00000000000E+00 0.  1.
         21   -1    0    0  502  504 -0.00000000000E+00 -0.00000000000E+00 -0.74284056234E+03  0.74284056234E+03  0.00000000000E+00 0.  1.
          6    2    1    2  502    0  0.92084720904E+02  0.51514645469E+02 -0.39362530894E+03  0.44253633522E+03  0.17252295392E+03 0.  0.
         24    2    3    3    0    0  0.12563613697E+02  0.77804440081E+02 -0.17063242238E+03  0.20428714373E+03  0.80040228873E+02 0.  0.
         -6    2    1    2    0  503 -0.92084720904E+02 -0.51514645469E+02 -0.29335857824E+03  0.35616090229E+03  0.17221491913E+03 0.  0.
        -24    2    5    5    0    0 -0.38365939644E+02  0.37753705053E+02 -0.12950644208E+03  0.16193382284E+03  0.80952806443E+02 0.  0.
          4    1    4    4  501    0 -0.11448585396E+02  0.89030971560E+00  0.38394763273E+01  0.12108027809E+02  0.00000000000E+00 0. -1.
         -3    1    4    4    0  501  0.24012199092E+02  0.76914130366E+02 -0.17447189871E+03  0.19217911592E+03  0.00000000000E+00 0.  1.
          5    1    3    3  502    0  0.79521107207E+02 -0.26289794612E+02 -0.22299288655E+03  0.23824919149E+03  0.47000000000E+01 0. -1.
         11    1    6    6    0    0 -0.42970805580E+02  0.55753614078E+02 -0.12394652671E+03  0.14254015960E+03  0.00000000000E+00 0. -1.
        -12    1    6    6    0    0  0.46048659356E+01 -0.17999909025E+02 -0.55599153689E+01  0.19393663246E+02  0.00000000000E+00 0.  1.
         -5    1    5    5    0  503 -0.53718781260E+02 -0.89268350522E+02 -0.16385213616E+03  0.19422707945E+03  0.47000000000E+01 0.  1.
<mgrwt>
<rscale>  2 0.20216565E+03</rscale>
<asrwt>0</asrwt>
<pdfrwt beam="1">  1       21 0.85933351E-02 0.20223136E+03</pdfrwt>
<pdfrwt beam="2">  1       21 0.11428316E+00 0.20223136E+03</pdfrwt>
<totfact> 0.62749438E+04</totfact>
</mgrwt>
</event>
<event>
12    1  0.2762290E-001  0.2206884E+03  0.7546771E-02  0.1133438E+00
         21   -1    0    0  504  503  0.00000000000E+00  0.00000000000E+00  0.81914508192E+03  0.81914508192E+03  0.00000000000E+00 0.  1.
         21   -1    0    0  502  504 -0.00000000000E+00 -0.00000000000E+00 -0.67318993219E+02  0.67318993219E+02  0.00000000000E+00 0. -1.
          6    2    1    2  502    0  0.89644221002E+02 -0.10191866236E+03  0.22377555307E+03  0.31429106056E+03  0.17401112751E+03 0.  0.
         24    2    3    3    0    0  0.68783315739E+02 -0.98026030854E+02  0.72527507819E+02  0.16148925709E+03  0.80487847012E+02 0.  0.
         -6    2    1    2    0  503 -0.89644221002E+02  0.10191866236E+03  0.52805053563E+03  0.57217301458E+03  0.17355428645E+03 0.  0.
        -24    2    5    5    0    0 -0.10117059823E+03  0.12401237871E+03  0.51134150920E+03  0.54180409562E+03  0.80417529074E+02 0.  0.
          4    1    4    4  501    0  0.77918604459E+01 -0.42557166722E+02 -0.10460962297E+02  0.44511316099E+02  0.00000000000E+00 0. -1.
         -3    1    4    4    0  501  0.60991455293E+02 -0.55468864131E+02  0.82988470116E+02  0.11697794099E+03  0.00000000000E+00 0.  1.
          5    1    3    3  502    0  0.20860905263E+02 -0.38926315046E+01  0.15124804526E+03  0.15280180347E+03  0.47000000000E+01 0. -1.
         13    1    6    6    0    0 -0.41915346939E+02  0.11005317943E+03  0.31804571118E+03  0.33914845276E+03  0.00000000000E+00 0. -1.
        -14    1    6    6    0    0 -0.59255251294E+02  0.13959199281E+02  0.19329579802E+03  0.20265564286E+03  0.00000000000E+00 0.  1.
         -5    1    5    5    0  503  0.11526377232E+02 -0.22093716357E+02  0.16709026427E+02  0.30368918958E+02  0.47000000000E+01 0.  1.
<mgrwt>
<rscale>  2 0.22059834E+03</rscale>
<asrwt>0</asrwt>
<pdfrwt beam="1">  1       21 0.12602231E+00 0.22068841E+03</pdfrwt>
<pdfrwt beam="2">  1       21 0.10356769E-01 0.22068841E+03</pdfrwt>
<totfact> 0.35090199E+04</totfact>
</mgrwt>
</event>
<event>
12    1  0.2762290E-001  0.1869838E+03  0.7546771E-02  0.1161879E+00
         21   -1    0    0  504  503  0.00000000000E+00  0.00000000000E+00  0.29145060400E+03  0.29145060400E+03  0.00000000000E+00 0. -1.
         21   -1    0    0  502  504 -0.00000000000E+00 -0.00000000000E+00 -0.12009919654E+03  0.12009919654E+03  0.00000000000E+00 0. -1.
          6    2    1    2  502    0  0.64751042120E+02  0.41322259219E+01  0.11274686302E+03  0.21834556689E+03  0.17536578547E+03 0.  0.
         24    2    3    3    0    0 -0.37326029564E+02  0.14302826837E+02  0.48029954799E+02  0.96963781203E+02  0.74143745311E+02 0.  0.
         -6    2    1    2    0  503 -0.64751042120E+02 -0.41322259219E+01  0.58604544445E+02  0.19320423365E+03  0.17228932214E+03 0.  0.
        -24    2    5    5    0    0 -0.44685698230E+01  0.57068586758E+02  0.25078766572E+02  0.10087014611E+03  0.79177333458E+02 0.  0.
          4    1    4    4  501    0 -0.42682517602E+02 -0.17329020549E+02  0.45553924013E+02  0.64786204203E+02  0.00000000000E+00 0. -1.
         -3    1    4    4    0  501  0.53564880373E+01  0.31631847387E+02  0.24760307856E+01  0.32177577001E+02  0.00000000000E+00 0.  1.
          5    1    3    3  502    0  0.10207707168E+03 -0.10170600915E+02  0.64716908218E+02  0.12138178568E+03  0.47000000000E+01 0. -1.
         13    1    6    6    0    0 -0.29030131299E+02 -0.47511198601E+01 -0.96781078616E+00  0.29432266662E+02  0.00000000000E+00 0. -1.
        -14    1    6    6    0    0  0.24561561476E+02  0.61819706618E+02  0.26046577358E+02  0.71437879451E+02  0.00000000000E+00 0.  1.
         -5    1    5    5    0  503 -0.60282472297E+02 -0.61200812679E+02  0.33525777872E+02  0.92334087535E+02  0.47000000000E+01 0.  1.
<mgrwt>
<rscale>  2 0.18625902E+03</rscale>
<asrwt>0</asrwt>
<pdfrwt beam="1">  1       21 0.44838554E-01 0.18698377E+03</pdfrwt>
<pdfrwt beam="2">  1       21 0.18476799E-01 0.18698377E+03</pdfrwt>
<totfact> 0.12794436E+05</totfact>
</mgrwt>
</event>
<event>
12    1  0.2762290E-001  0.2447580E+03  0.7546771E-02  0.1116728E+00
         21   -1    0    0  504  503  0.00000000000E+00  0.00000000000E+00  0.49479143732E+03  0.49479143732E+03  0.00000000000E+00 0. -1.
         21   -1    0    0  502  504 -0.00000000000E+00 -0.00000000000E+00 -0.14548137890E+03  0.14548137890E+03  0.00000000000E+00 0. -1.
          6    2    1    2  502    0  0.14850552082E+03 -0.87297325672E+02  0.43119840541E+02  0.24852722773E+03  0.17387279687E+03 0.  0.
         24    2    3    3    0    0  0.14583424812E+03 -0.97560362273E+02 -0.10246735597E+02  0.19391452713E+03  0.81927992952E+02 0.  0.
         -6    2    1    2    0  503 -0.14850552082E+03  0.87297325672E+02  0.30619021787E+03  0.39174558849E+03  0.17331313799E+03 0.  0.
        -24    2    5    5    0    0 -0.68067371518E+02  0.93930007858E+02  0.26698509863E+03  0.30189337811E+03  0.80015969755E+02 0.  0.
          2    1    4    4  501    0  0.10308436524E+03 -0.72683183682E+02 -0.44498794946E+02  0.13375116560E+03  0.00000000000E+00 0. -1.
         -1    1    4    4    0  501  0.42749882878E+02 -0.24877178591E+02  0.34252059349E+02  0.60163361528E+02  0.00000000000E+00 0.  1.
          5    1    3    3  502    0  0.26712726938E+01  0.10263036601E+02  0.53366576138E+02  0.54612700600E+02  0.47000000000E+01 0. -1.
         13    1    6    6    0    0 -0.62373922504E+02  0.43372200749E+02  0.90190024104E+02  0.11792325663E+03  0.00000000000E+00 0. -1.
        -14    1    6    6    0    0 -0.56934490140E+01  0.50557807109E+02  0.17679507453E+03  0.18397012148E+03  0.00000000000E+00 0.  1.
         -5    1    5    5    0  503 -0.80438149298E+02 -0.66326821851E+01  0.39205119240E+02  0.89852210380E+02  0.47000000000E+01 0.  1.
<mgrwt>
<rscale>  2 0.24465859E+03</rscale>
<asrwt>0</asrwt>
<pdfrwt beam="1">  1       21 0.76121759E-01 0.24475797E+03</pdfrwt>
<pdfrwt beam="2">  1       21 0.22381751E-01 0.24475797E+03</pdfrwt>
<totfact> 0.27970758E+04</totfact>
</mgrwt>
</event>
<event>
12    1  0.2762290E-001  0.4436306E+03  0.7546771E-02  0.1029640E+00
         21   -1    0    0  504  503  0.00000000000E+00  0.00000000000E+00  0.11243934303E+04  0.11243934303E+04  0.00000000000E+00 0. -1.
         21   -1    0    0  502  504 -0.00000000000E+00 -0.00000000000E+00 -0.27897565313E+03  0.27897565313E+03  0.00000000000E+00 0.  1.
          6    2    1    2  502    0 -0.36889353623E+03  0.17476244915E+03 -0.56063545003E+01  0.44366601403E+03  0.17373470030E+03 0.  0.
         24    2    3    3    0    0 -0.24125952326E+03  0.56704523508E+02 -0.47823620158E+02  0.26468975137E+03  0.79699468555E+02 0.  0.
         -6    2    1    2    0  503  0.36889353623E+03 -0.17476244915E+03  0.85102413167E+03  0.95970306940E+03  0.17367657880E+03 0.  0.
        -24    2    5    5    0    0  0.34238422625E+03 -0.12332859309E+03  0.79874605595E+03  0.88157962692E+03  0.82161283053E+02 0.  0.
          4    1    4    4  501    0 -0.14068691539E+02  0.12034130086E+02 -0.26283545987E+02  0.32149232622E+02  0.00000000000E+00 0. -1.
         -3    1    4    4    0  501 -0.22719083172E+03  0.44670393422E+02 -0.21540074171E+02  0.23254051875E+03  0.00000000000E+00 0.  1.
          5    1    3    3  502    0 -0.12763401297E+03  0.11805792564E+03  0.42217265658E+02  0.17897626266E+03  0.47000000000E+01 0. -1.
         11    1    6    6    0    0  0.41786879243E+02 -0.45668635008E+02  0.15406189473E+03  0.16603263206E+03  0.00000000000E+00 0. -1.
        -12    1    6    6    0    0  0.30059734701E+03 -0.77659958084E+02  0.64468416123E+03  0.71554699486E+03  0.00000000000E+00 0.  1.
         -5    1    5    5    0  503  0.26509309975E+02 -0.51433856059E+02  0.52278075713E+02  0.78123442479E+02  0.47000000000E+01 0.  1.
<mgrwt>
<rscale>  2 0.44362490E+03</rscale>
<asrwt>0</asrwt>
<pdfrwt beam="1">  1       21 0.17298360E+00 0.44363059E+03</pdfrwt>
<pdfrwt beam="2">  1       21 0.42919332E-01 0.44363059E+03</pdfrwt>
<totfact> 0.89291326E+02</totfact>
</mgrwt>
</event>
<event>
12    1  0.2762290E-001  0.1997511E+03  0.7546771E-02  0.1150891E+00
         21   -1    0    0  504  503  0.00000000000E+00  0.00000000000E+00  0.27109519410E+03  0.27109519410E+03  0.00000000000E+00 0.  1.
         21   -1    0    0  502  504 -0.00000000000E+00 -0.00000000000E+00 -0.16075378558E+03  0.16075378558E+03  0.00000000000E+00 0.  1.
          6    2    1    2  502    0 -0.67538714286E+02 -0.75828885794E+02  0.12552192018E+03  0.23591576184E+03  0.17201452378E+03 0.  0.
         24    2    3    3    0    0 -0.66860398273E+01  0.13760475921E+02  0.18070807951E+02  0.83281777286E+02  0.79845140752E+02 0.  0.
         -6    2    1    2    0  503  0.67538714286E+02  0.75828885794E+02 -0.15180511661E+02  0.19593321784E+03  0.16687684103E+03 0.  0.
        -24    2    5    5    0    0  0.40317217560E+01 -0.10963323820E+02 -0.32426285773E+02  0.86912428657E+02  0.79786320861E+02 0.  0.
          2    1    4    4  501    0 -0.10392863762E+02  0.41683833636E+02 -0.93556548496E+01  0.43966827057E+02  0.00000000000E+00 0. -1.
         -1    1    4    4    0  501  0.37068239344E+01 -0.27923357715E+02  0.27426462801E+02  0.39314950229E+02  0.00000000000E+00 0.  1.
          5    1    3    3  502    0 -0.60852674459E+02 -0.89589361715E+02  0.10745111223E+03  0.15263398456E+03  0.47000000000E+01 0. -1.
         11    1    6    6    0    0 -0.19883254016E+02 -0.42880264772E+01  0.20235065579E+02  0.28691267667E+02  0.00000000000E+00 0. -1.
        -12    1    6    6    0    0  0.23914975772E+02 -0.66752973432E+01 -0.52661351352E+02  0.58221160990E+02  0.00000000000E+00 0.  1.
         -5    1    5    5    0  503  0.63506992530E+02  0.86792209615E+02  0.17245774112E+02  0.10902078919E+03  0.47000000000E+01 0.  1.
<mgrwt>
<rscale>  2 0.19864014E+03</rscale>
<asrwt>0</asrwt>
<pdfrwt beam="1">  1       21 0.41706953E-01 0.19975108E+03</pdfrwt>
<pdfrwt beam="2">  1       21 0.24731352E-01 0.19975108E+03</pdfrwt>
<totfact> 0.85319098E+04</totfact>
</mgrwt>
</event>
<event>
12    1  0.2762290E-001  0.1845390E+03  0.7546771E-02  0.1163922E+00
         21   -1    0    0  504  503  0.00000000000E+00  0.00000000000E+00  0.10849315191E+04  0.10849315191E+04  0.00000000000E+00 0. -1.
         21   -1    0    0  502  504 -0.00000000000E+00 -0.00000000000E+00 -0.82422661454E+02  0.82422661454E+02  0.00000000000E+00 0. -1.
          6    2    1    2  502    0 -0.14420357467E+02  0.63259004910E+02  0.39582886113E+02  0.18690475035E+03  0.17075401143E+03 0.  0.
         24    2    3    3    0    0  0.43251456241E+02  0.37046024017E+02  0.64545771356E+02  0.11865232107E+03  0.81664682279E+02 0.  0.
         -6    2    1    2    0  503  0.14420357467E+02 -0.63259004910E+02  0.96292597153E+03  0.98044943020E+03  0.17275708414E+03 0.  0.
        -24    2    5    5    0    0  0.27471894678E+02  0.67643550337E+01  0.19846017216E+03  0.21265801193E+03  0.70968504339E+02 0.  0.
          2    1    4    4  501    0 -0.38789775376E+01 -0.10908508320E+02 -0.12064271282E+02  0.16720904942E+02  0.00000000000E+00 0. -1.
         -1    1    4    4    0  501  0.47130433779E+02  0.47954532337E+02  0.76610042638E+02  0.10193141612E+03  0.00000000000E+00 0.  1.
          5    1    3    3  502    0 -0.57671813708E+02  0.26212980893E+02 -0.24962885243E+02  0.68252429286E+02  0.47000000000E+01 0. -1.
         13    1    6    6    0    0  0.26062295299E+02 -0.24068447770E+02  0.51789107440E+02  0.62774557456E+02  0.00000000000E+00 0. -1.
        -14    1    6    6    0    0  0.14095993783E+01  0.30832802803E+02  0.14667106472E+03  0.14988345447E+03  0.00000000000E+00 0.  1.
         -5    1    5    5    0  503 -0.13051537210E+02 -0.70023359944E+02  0.76446579937E+03  0.76779141827E+03  0.47000000000E+01 0.  1.
<mgrwt>
<rscale>  2 0.18406879E+03</rscale>
<asrwt>0</asrwt>
<pdfrwt beam="1">  1       21 0.16691253E+00 0.18453904E+03</pdfrwt>
<pdfrwt beam="2">  1       21 0.12680410E-01 0.18453904E+03</pdfrwt>
<totfact> 0.12001977E+04</totfact>
</mgrwt>
</event>
<event>
12    1  0.2762290E-001  0.1823062E+03  0.7546771E-02  0.1165795E+00
         21   -1    0    0  504  503  0.00000000000E+00  0.00000000000E+00  0.67453125450E+03  0.67453125450E+03  0.00000000000E+00 0. -1.
         21   -1    0    0  502  504 -0.00000000000E+00 -0.00000000000E+00 -0.12749260494E+03  0.12749260494E+03  0.00000000000E+00 0. -1.
          6    2    1    2  502    0 -0.14985290160E+02  0.51571820236E+02 -0.41301001921E+02  0.18608629325E+03  0.17331510094E+03 0.  0.
         24    2    3    3    0    0  0.38571739588E+02  0.27622724028E+02 -0.72586114284E+02  0.11943223936E+03  0.82125037804E+02 0.  0.
         -6    2    1    2    0  503  0.14985290160E+02 -0.51571820236E+02  0.58833965148E+03  0.61593756618E+03  0.17421632634E+03 0.  0.
        -24    2    5    5    0    0 -0.49048289265E+02 -0.22618509505E+02  0.45443993224E+03  0.46464375167E+03  0.80379302683E+02 0.  0.
          2    1    4    4  501    0 -0.60535206081E-01  0.20866980643E+02 -0.77174844206E+02  0.79946176418E+02  0.00000000000E+00 0. -1.
         -1    1    4    4    0  501  0.38632274794E+02  0.67557433849E+01  0.45887299213E+01  0.39486062943E+02  0.00000000000E+00 0.  1.
          5    1    3    3  502    0 -0.53557029748E+02  0.23949096208E+02  0.31285112364E+02  0.66654053891E+02  0.47000000000E+01 0. -1.
         11    1    6    6    0    0  0.18950782221E+02 -0.19791607834E+02  0.16867903810E+03  0.17089019218E+03  0.00000000000E+00 0. -1.
        -12    1    6    6    0    0 -0.67999071486E+02 -0.28269016707E+01  0.28576089414E+03  0.29375355949E+03  0.00000000000E+00 0.  1.
         -5    1    5    5    0  503  0.64033579425E+02 -0.28953310731E+02  0.13389971924E+03  0.15129381451E+03  0.47000000000E+01 0.  1.
<mgrwt>
<rscale>  2 0.18209053E+03</rscale>
<asrwt>0</asrwt>
<pdfrwt beam="1">  1       21 0.10377404E+00 0.18230617E+03</pdfrwt>
<pdfrwt beam="2">  1       21 0.19614247E-01 0.18230617E+03</pdfrwt>
<totfact> 0.18106875E+04</totfact>
</mgrwt>
</event>
<event>
12    1  0.2762290E-001  0.1954338E+03  0.7546771E-02  0.1153785E+00
         21   -1    0    0  504  503  0.00000000000E+00  0.00000000000E+00  0.16386313371E+04  0.16386313371E+04  0.00000000000E+00 0.  1.
         21   -1    0    0  502  504 -0.00000000000E+00 -0.00000000000E+00 -0.27128474663E+02  0.27128474663E+02  0.00000000000E+00 0.  1.
          6    2    1    2  502    0  0.50631495194E+02  0.73897730635E+02  0.11224065340E+04  0.11392939984E+04  0.17369503222E+03 0.  0.
         24    2    3    3    0    0 -0.16390767537E+02  0.62193607924E+02  0.38889402429E+03  0.40261790801E+03  0.82011679594E+02 0.  0.
         -6    2    1    2    0  503 -0.50631495194E+02 -0.73897730635E+02  0.48909632835E+03  0.52646581332E+03  0.17299309609E+03 0.  0.
        -24    2    5    5    0    0 -0.34588617863E+02 -0.76928345212E+02  0.49691052150E+03  0.50776527450E+03  0.61572435636E+02 0.  0.
          4    1    4    4  501    0 -0.47896122214E+02  0.32394595814E+02  0.17286654346E+03  0.18228080044E+03  0.00000000000E+00 0. -1.
         -3    1    4    4    0  501  0.31505354677E+02  0.29799012111E+02  0.21602748083E+03  0.22033710757E+03  0.00000000000E+00 0.  1.
          5    1    3    3  502    0  0.67022262731E+02  0.11704122710E+02  0.73351250975E+03  0.73667609039E+03  0.47000000000E+01 0. -1.
         11    1    6    6    0    0 -0.18081083640E+02 -0.20769802289E+01  0.34124712779E+02  0.38674739232E+02  0.00000000000E+00 0. -1.
        -12    1    6    6    0    0 -0.16507534223E+02 -0.74851364983E+02  0.46278580872E+03  0.46909053527E+03  0.00000000000E+00 0.  1.
         -5    1    5    5    0  503 -0.16042877331E+02  0.30306145770E+01 -0.78141931470E+01  0.18700538824E+02  0.47000000000E+01 0.  1.
<mgrwt>
<rscale>  2 0.19527776E+03</rscale>
<asrwt>0</asrwt>
<pdfrwt beam="1">  1       21 0.25209705E+00 0.19543384E+03</pdfrwt>
<pdfrwt beam="2">  1       21 0.41736128E-02 0.19543384E+03</pdfrwt>
<totfact> 0.23527352E+04</totfact>
</mgrwt>
</event>
<event>
12    1  0.2762290E-001  0.2261719E+03  0.7546771E-02  0.1129600E+00
         21   -1    0    0  504  503  0.00000000000E+00  0.00000000000E+00  0.11787105906E+03  0.11787105906E+03  0.00000000000E+00 0. -1.
         21   -1    0    0  502  504 -0.00000000000E+00 -0.00000000000E+00 -0.60549370002E+03  0.60549370002E+03  0.00000000000E+00 0.  1.
          6    2    1    2  502    0  0.13095249905E+03  0.60752611686E+02 -0.43720746384E+03  0.49164201806E+03  0.17240090097E+03 0.  0.
         24    2    3    3    0    0  0.59036987137E+02  0.38780244319E+02 -0.38527569541E+03  0.40013450824E+03  0.81737323252E+02 0.  0.
         -6    2    1    2    0  503 -0.13095249905E+03 -0.60752611686E+02 -0.50415177122E+02  0.23172274102E+03  0.17411002782E+03 0.  0.
        -24    2    5    5    0    0 -0.33467100799E+02 -0.90059606675E+02 -0.23366334314E+02  0.12629014300E+03  0.78564846140E+02 0.  0.
          2    1    4    4  501    0  0.29834485188E+02 -0.21870364824E+02 -0.19040102385E+03  0.19396123130E+03  0.00000000000E+00 0. -1.
         -1    1    4    4    0  501  0.29202501949E+02  0.60650609143E+02 -0.19487467156E+03  0.20617327694E+03  0.00000000000E+00 0.  1.
          5    1    3    3  502    0  0.71915511914E+02  0.21972367367E+02 -0.51931768424E+02  0.91507509818E+02  0.47000000000E+01 0. -1.
         13    1    6    6    0    0 -0.24080860962E+01 -0.17335271364E+02  0.27259354869E+02  0.32394180647E+02  0.00000000000E+00 0. -1.
        -14    1    6    6    0    0 -0.31059014703E+02 -0.72724335311E+02 -0.50625689183E+02  0.93895962352E+02  0.00000000000E+00 0.  1.
         -5    1    5    5    0  503 -0.97485398252E+02  0.29306994989E+02 -0.27048842808E+02  0.10543259802E+03  0.47000000000E+01 0.  1.
<mgrwt>
<rscale>  2 0.22584294E+03</rscale>
<asrwt>0</asrwt>
<pdfrwt beam="1">  1       21 0.18134009E-01 0.22617192E+03</pdfrwt>
<pdfrwt beam="2">  1       21 0.93152878E-01 0.22617192E+03</pdfrwt>
<totfact> 0.26359182E+04</totfact>
</mgrwt>
</event>
<event>
12    1  0.2762290E-001  0.1791945E+03  0.7546771E-02  0.1168809E+00
         21   -1    0    0  504  503  0.00000000000E+00  0.00000000000E+00  0.37020262365E+03  0.37020262365E+03  0.00000000000E+00 0. -1.
         21   -1    0    0  502  504 -0.00000000000E+00 -0.00000000000E+00 -0.14689663112E+03  0.14689663112E+03  0.00000000000E+00 0. -1.
          6    2    1    2  502    0  0.37120640602E+02 -0.21910182816E+02 -0.54583040879E+02  0.18644389095E+03  0.17298560070E+03 0.  0.
         24    2    3    3    0    0  0.68689065350E+02  0.43909254432E+01  0.13627084677E+02  0.10667531966E+03  0.80352090595E+02 0.  0.
         -6    2    1    2    0  503 -0.37120640602E+02  0.21910182816E+02  0.27788903341E+03  0.33065536382E+03  0.17393290851E+03 0.  0.
        -24    2    5    5    0    0  0.21787865893E+02 -0.40656504043E+01  0.59408876957E+02  0.10283827751E+03  0.80963300619E+02 0.  0.
          4    1    4    4  501    0  0.83955380330E+02 -0.59511883526E+01  0.72328603769E+00  0.84169149169E+02  0.00000000000E+00 0. -1.
         -3    1    4    4    0  501 -0.15266314981E+02  0.10342113796E+02  0.12903798639E+02  0.22506170491E+02  0.00000000000E+00 0.  1.
          5    1    3    3  502    0 -0.31568424748E+02 -0.26301108259E+02 -0.68210125556E+02  0.79768571287E+02  0.47000000000E+01 0. -1.
         11    1    6    6    0    0 -0.10203938787E+02 -0.32503471705E+01  0.68688128860E+02  0.69517941351E+02  0.00000000000E+00 0. -1.
        -12    1    6    6    0    0  0.31991804680E+02 -0.81530323375E+00 -0.92792519025E+01  0.33320336161E+02  0.00000000000E+00 0.  1.
         -5    1    5    5    0  503 -0.58908506494E+02  0.25975833220E+02  0.21848015646E+03  0.22781708631E+03  0.47000000000E+01 0.  1.
<mgrwt>
<rscale>  2 0.17896418E+03</rscale>
<asrwt>0</asrwt>
<pdfrwt beam="1">  1       21 0.56954249E-01 0.17919446E+03</pdfrwt>
<pdfrwt beam="2">  1       21 0.22599482E-01 0.17919446E+03</pdfrwt>
<totfact> 0.53478718E+04</totfact>
</mgrwt>
</event>
<event>
12    1  0.2762290E-001  0.2183851E+03  0.7546771E-02  0.1135187E+00
         21   -1    0    0  504  503  0.00000000000E+00  0.00000000000E+00  0.79191325847E+02  0.79191325847E+02  0.00000000000E+00 0. -1.
         21   -1    0    0  502  504 -0.00000000000E+00 -0.00000000000E+00 -0.61938474140E+03  0.61938474140E+03  0.00000000000E+00 0. -1.
          6    2    1    2  502    0 -0.11524743701E+03  0.70014357678E+02 -0.33020961420E+03  0.39561523406E+03  0.17114041630E+03 0.  0.
         24    2    3    3    0    0 -0.53203974262E+02 -0.86547660409E+01 -0.24739186957E+03  0.26554182739E+03  0.80025977743E+02 0.  0.
         -6    2    1    2    0  503  0.11524743701E+03 -0.70014357678E+02 -0.20998380135E+03  0.30296083318E+03  0.17177918266E+03 0.  0.
        -24    2    5    5    0    0  0.12268399042E+03 -0.94326533751E+02 -0.21385511884E+03  0.27681773981E+03  0.83337822991E+02 0.  0.
          4    1    4    4  501    0 -0.69480523626E+02 -0.24525496521E+02 -0.19330358105E+03  0.20687029170E+03  0.00000000000E+00 0. -1.
         -3    1    4    4    0  501  0.16276549364E+02  0.15870730480E+02 -0.54088288523E+02  0.58671535693E+02  0.00000000000E+00 0.  1.
          5    1    3    3  502    0 -0.62043462750E+02  0.78669123718E+02 -0.82817744636E+02  0.13007340667E+03  0.47000000000E+01 0. -1.
         11    1    6    6    0    0  0.76861381710E+02 -0.74951073298E+02 -0.19688557551E+03  0.22425268166E+03  0.00000000000E+00 0. -1.
        -12    1    6    6    0    0  0.45822608712E+02 -0.19375460453E+02 -0.16969543328E+02  0.52565058144E+02  0.00000000000E+00 0.  1.
         -5    1    5    5    0  503 -0.74365534097E+01  0.24312176073E+02  0.38713174961E+01  0.26143093374E+02  0.47000000000E+01 0.  1.
<mgrwt>
<rscale>  2 0.21825951E+03</rscale>
<asrwt>0</asrwt>
<pdfrwt beam="1">  1       21 0.12183281E-01 0.21838514E+03</pdfrwt>
<pdfrwt beam="2">  1       21 0.95289961E-01 0.21838514E+03</pdfrwt>
<totfact> 0.51867041E+04</totfact>
</mgrwt>
</event>
<event>
12    1  0.2762290E-001  0.2245369E+03  0.7546771E-02  0.1131669E+00
         21   -1    0    0  504  503  0.00000000000E+00  0.00000000000E+00  0.31755702940E+03  0.31755702940E+03  0.00000000000E+00 0. -1.
         21   -1    0    0  502  504 -0.00000000000E+00 -0.00000000000E+00 -0.17090381128E+03  0.17090381128E+03  0.00000000000E+00 0. -1.
          6    2    1    2  502    0 -0.12528589672E+03 -0.47565540285E+02 -0.32893531950E+01  0.21846156599E+03  0.17249811427E+03 0.  0.
         24    2    3    3    0    0 -0.14895598663E+03 -0.30945509558E+02  0.29374143701E+02  0.17458113063E+03  0.80437679833E+02 0.  0.
         -6    2    1    2    0  503  0.12528589672E+03  0.47565540285E+02  0.14994257132E+03  0.26999927470E+03  0.18016047597E+03 0.  0.
        -24    2    5    5    0    0 -0.11949132740E+02  0.18993201791E+01  0.53911882622E+02  0.96324751113E+02  0.78902328222E+02 0.  0.
          4    1    4    4  501    0 -0.64843626779E+02  0.19069692510E+02  0.35848738127E+02  0.76508046188E+02  0.00000000000E+00 0. -1.
         -3    1    4    4    0  501 -0.84112359856E+02 -0.50015202069E+02 -0.64745944258E+01  0.98073084439E+02  0.00000000000E+00 0.  1.
          5    1    3    3  502    0  0.23670089910E+02 -0.16620030726E+02 -0.32663496896E+02  0.43880435358E+02  0.47000000000E+01 0. -1.
         13    1    6    6    0    0  0.39084296239E+01 -0.22221047980E+02  0.62304031157E+02  0.66263437082E+02  0.00000000000E+00 0. -1.
        -14    1    6    6    0    0 -0.15857562364E+02  0.24120368159E+02 -0.83921485356E+01  0.30061314031E+02  0.00000000000E+00 0.  1.
         -5    1    5    5    0  503  0.13723502946E+03  0.45666220105E+02  0.96030688696E+02  0.17367452358E+03  0.47000000000E+01 0.  1.
<mgrwt>
<rscale>  2 0.22299611E+03</rscale>
<asrwt>0</asrwt>
<pdfrwt beam="1">  1       21 0.48854928E-01 0.22453693E+03</pdfrwt>
<pdfrwt beam="2">  1       21 0.26292894E-01 0.22453693E+03</pdfrwt>
<totfact> 0.54193036E+04</totfact>
</mgrwt>
</event>
<event>
12    1  0.2762290E-001  0.1745639E+03  0.7546771E-02  0.1173419E+00
         21   -1    0    0  504  503  0.00000000000E+00  0.00000000000E+00  0.26638673798E+03  0.26638673798E+03  0.00000000000E+00 0. -1.
         21   -1    0    0  502  504 -0.00000000000E+00 -0.00000000000E+00 -0.21030935618E+03  0.21030935618E+03  0.00000000000E+00 0. -1.
          6    2    1    2  502    0  0.20217554982E+02  0.18903802946E+02 -0.13350712838E+03  0.21898530785E+03  0.17136017166E+03 0.  0.
         24    2    3    3    0    0  0.54166779577E+02  0.49453482462E+02 -0.13529946811E+03  0.17303821598E+03  0.79098616827E+02 0.  0.
         -6    2    1    2    0  503 -0.20217554982E+02 -0.18903802946E+02  0.18958451018E+03  0.25771078631E+03  0.17235561954E+03 0.  0.
        -24    2    5    5    0    0  0.26781220820E+02  0.15265623676E+02  0.17838436698E+03  0.19834776878E+03  0.81059126228E+02 0.  0.
          2    1    4    4  501    0  0.66280381463E+02  0.59184047903E+02 -0.12812849624E+03  0.15592546951E+03  0.00000000000E+00 0. -1.
         -1    1    4    4    0  501 -0.12113601886E+02 -0.97305654409E+01 -0.71709718692E+01  0.17112746477E+02  0.00000000000E+00 0.  1.
          5    1    3    3  502    0 -0.33949224595E+02 -0.30549679516E+02  0.17923397253E+01  0.45947091865E+02  0.47000000000E+01 0. -1.
         13    1    6    6    0    0 -0.16137671266E+02  0.98686110381E+01  0.13760590260E+03  0.13889995806E+03  0.00000000000E+00 0. -1.
        -14    1    6    6    0    0  0.42918892086E+02  0.53970126384E+01  0.40778464376E+02  0.59447810727E+02  0.00000000000E+00 0.  1.
         -5    1    5    5    0  503 -0.46998775801E+02 -0.34169426622E+02  0.11200143200E+02  0.59363017530E+02  0.47000000000E+01 0.  1.
<mgrwt>
<rscale>  2 0.17431771E+03</rscale>
<asrwt>0</asrwt>
<pdfrwt beam="1">  1       21 0.40982575E-01 0.17456392E+03</pdfrwt>
<pdfrwt beam="2">  1       21 0.32355286E-01 0.17456392E+03</pdfrwt>
<totfact> 0.53154041E+04</totfact>
</mgrwt>
</event>
<event>
12    1  0.2762290E-001  0.2210271E+03  0.7546771E-02  0.1133942E+00
         21   -1    0    0  504  503  0.00000000000E+00  0.00000000000E+00  0.28993464613E+03  0.28993464613E+03  0.00000000000E+00 0.  1.
         21   -1    0    0  502  504 -0.00000000000E+00 -0.00000000000E+00 -0.50228901131E+03  0.50228901131E+03  0.00000000000E+00 0.  1.
          6    2    1    2  502    0 -0.88795719572E+02  0.95032249984E+02 -0.43033760859E+03  0.48178900029E+03  0.17324657307E+03 0.  0.
         24    2    3    3    0    0  0.15217820962E+02  0.73235474057E+02 -0.21708123058E+03  0.24347347663E+03  0.80994175205E+02 0.  0.
         -6    2    1    2    0  503  0.88795719572E+02 -0.95032249984E+02  0.21798324342E+03  0.31043465715E+03  0.17870974678E+03 0.  0.
        -24    2    5    5    0    0  0.25075685096E+02 -0.12066051711E+03  0.11491756454E+03  0.18649243257E+03  0.79910139496E+02 0.  0.
          4    1    4    4  501    0  0.13294851898E+02  0.76656198128E+02 -0.10180053788E+03  0.12812601341E+03  0.00000000000E+00 0. -1.
         -3    1    4    4    0  501  0.19229690638E+01 -0.34207240711E+01 -0.11528069270E+03  0.11534746323E+03  0.00000000000E+00 0.  1.
          5    1    3    3  502    0 -0.10401354053E+03  0.21796775927E+02 -0.21325637801E+03  0.23831552366E+03  0.47000000000E+01 0. -1.
         11    1    6    6    0    0 -0.24072344330E+02 -0.65188162677E+02  0.75262854444E+02  0.10243764725E+03  0.00000000000E+00 0. -1.
        -12    1    6    6    0    0  0.49148029426E+02 -0.55472354435E+02  0.39654710097E+02  0.84054785324E+02  0.00000000000E+00 0.  1.
         -5    1    5    5    0  503  0.63720034476E+02  0.25628267128E+02  0.10306567888E+03  0.12394222457E+03  0.47000000000E+01 0.  1.
<mgrwt>
<rscale>  2 0.21992049E+03</rscale>
<asrwt>0</asrwt>
<pdfrwt beam="1">  1       21 0.44605331E-01 0.22102711E+03</pdfrwt>
<pdfrwt beam="2">  1       21 0.77275231E-01 0.22102711E+03</pdfrwt>
<totfact> 0.70317324E+03</totfact>
</mgrwt>
</event>
<event>
12    1  0.2762290E-001  0.1748339E+03  0.7546771E-02  0.1173031E+00
         21   -1    0    0  504  503  0.00000000000E+00  0.00000000000E+00  0.54640267749E+03  0.54640267749E+03  0.00000000000E+00 0.  1.
         21   -1    0    0  502  504 -0.00000000000E+00 -0.00000000000E+00 -0.68982894462E+02  0.68982894462E+02  0.00000000000E+00 0.  1.
          6    2    1    2  502    0  0.18471139497E+01 -0.28392465812E+02  0.10377799472E+03  0.20286274016E+03  0.17197056496E+03 0.  0.
         24    2    3    3    0    0 -0.21011100419E+02  0.47227111379E+02  0.55370099176E+02  0.11009295645E+03  0.79892082133E+02 0.  0.
         -6    2    1    2    0  503 -0.18471139497E+01  0.28392465812E+02  0.37364178831E+03  0.41252283179E+03  0.17250320818E+03 0.  0.
        -24    2    5    5    0    0 -0.49401960862E+02  0.14097128678E+02  0.33766687991E+03  0.35102401747E+03  0.80991704985E+02 0.  0.
          2    1    4    4  501    0  0.19439056275E+02 -0.17783357231E+01 -0.73037151196E+01  0.20841872309E+02  0.00000000000E+00 0. -1.
         -1    1    4    4    0  501 -0.40450156694E+02  0.49005447102E+02  0.62673814295E+02  0.89251084142E+02  0.00000000000E+00 0.  1.
          5    1    3    3  502    0  0.22858214369E+02 -0.75619577191E+02  0.48407895541E+02  0.92769783709E+02  0.47000000000E+01 0. -1.
         13    1    6    6    0    0 -0.39777104410E+02  0.18221022681E+02  0.66177309409E+02  0.79332590928E+02  0.00000000000E+00 0. -1.
        -14    1    6    6    0    0 -0.96248564513E+01 -0.41238940031E+01  0.27148957051E+03  0.27169142654E+03  0.00000000000E+00 0.  1.
         -5    1    5    5    0  503  0.47554846912E+02  0.14295337135E+02  0.35974908396E+02  0.61498814320E+02  0.47000000000E+01 0.  1.
<mgrwt>
<rscale>  2 0.17470239E+03</rscale>
<asrwt>0</asrwt>
<pdfrwt beam="1">  1       21 0.84061947E-01 0.17483392E+03</pdfrwt>
<pdfrwt beam="2">  1       21 0.10612753E-01 0.17483392E+03</pdfrwt>
<totfact> 0.90429538E+04</totfact>
</mgrwt>
</event>
<event>
12    1  0.2762290E-001  0.1960674E+03  0.7546771E-02  0.1153183E+00
         21   -1    0    0  504  503  0.00000000000E+00  0.00000000000E+00  0.51461572915E+02  0.51461572915E+02  0.00000000000E+00 0.  1.
         21   -1    0    0  502  504 -0.00000000000E+00 -0.00000000000E+00 -0.12133939268E+04  0.12133939268E+04  0.00000000000E+00 0. -1.
          6    2    1    2  502    0 -0.96924999781E+01  0.90724681238E+02 -0.97331675316E+03  0.99279251046E+03  0.17310850499E+03 0.  0.
         24    2    3    3    0    0 -0.67422770354E+02  0.56122305859E+02 -0.76171321473E+03  0.77069285721E+03  0.77877567215E+02 0.  0.
         -6    2    1    2    0  503  0.96924999781E+01 -0.90724681238E+02 -0.18861560073E+03  0.27206298926E+03  0.17354397986E+03 0.  0.
        -24    2    5    5    0    0  0.28189370304E+02  0.22216953353E+02 -0.12831328610E+03  0.14261645132E+03  0.50861765426E+02 0.  0.
          2    1    4    4  501    0 -0.93728463928E+01  0.56063132056E+02 -0.45477901119E+03  0.45831743807E+03  0.00000000000E+00 0. -1.
         -1    1    4    4    0  501 -0.58049923961E+02  0.59173802935E-01 -0.30693420355E+03  0.31237541913E+03  0.00000000000E+00 0.  1.
          5    1    3    3  502    0  0.57730270375E+02  0.34602375379E+02 -0.21160353843E+03  0.22209965325E+03  0.47000000000E+01 0. -1.
         11    1    6    6    0    0 -0.51485065877E+01  0.27926726718E+02 -0.56359133609E+02  0.63109120786E+02  0.00000000000E+00 0. -1.
        -12    1    6    6    0    0  0.33337876892E+02 -0.57097733650E+01 -0.71954152488E+02  0.79507330529E+02  0.00000000000E+00 0.  1.
         -5    1    5    5    0  503 -0.18496870326E+02 -0.11294163459E+03 -0.60302314634E+02  0.12944653795E+03  0.47000000000E+01 0.  1.
<mgrwt>
<rscale>  2 0.19597099E+03</rscale>
<asrwt>0</asrwt>
<pdfrwt beam="1">  1       21 0.79171658E-02 0.19606740E+03</pdfrwt>
<pdfrwt beam="2">  1       21 0.18667597E+00 0.19606740E+03</pdfrwt>
<totfact> 0.19999409E+04</totfact>
</mgrwt>
</event>
<event>
12    1  0.2762290E-001  0.2186019E+03  0.7546771E-02  0.1135423E+00
         21   -1    0    0  504  503  0.00000000000E+00  0.00000000000E+00  0.20730624312E+04  0.20730624312E+04  0.00000000000E+00 0. -1.
         21   -1    0    0  502  504 -0.00000000000E+00 -0.00000000000E+00 -0.26340445238E+02  0.26340445238E+02  0.00000000000E+00 0.  1.
          6    2    1    2  502    0  0.10999907932E+03 -0.73203855068E+02  0.63196068180E+03  0.66785254976E+03  0.17086287787E+03 0.  0.
         24    2    3    3    0    0  0.12552893472E+03 -0.78308347301E+02  0.38254455634E+03  0.41785709802E+03  0.79840503984E+02 0.  0.
         -6    2    1    2    0  503 -0.10999907932E+03  0.73203855068E+02  0.14147613042E+04  0.14315503267E+04  0.17414990152E+03 0.  0.
        -24    2    5    5    0    0 -0.34254559203E+02 -0.27713379211E+02  0.70004655097E+03  0.70576744665E+03  0.78109596183E+02 0.  0.
          4    1    4    4  501    0  0.48603937065E+02 -0.75163473723E+00  0.59433694753E+02  0.76780672861E+02  0.00000000000E+00 0. -1.
         -3    1    4    4    0  501  0.76924997654E+02 -0.77556712564E+02  0.32311086158E+03  0.34107642516E+03  0.00000000000E+00 0.  1.
          5    1    3    3  502    0 -0.15529855395E+02  0.51044922332E+01  0.24941612546E+03  0.24999545174E+03  0.47000000000E+01 0. -1.
         13    1    6    6    0    0 -0.91332662974E+01 -0.33162312739E+01  0.59418070550E+03  0.59426014904E+03  0.00000000000E+00 0. -1.
        -14    1    6    6    0    0 -0.25121292905E+02 -0.24397147937E+02  0.10586584546E+03  0.11150729761E+03  0.00000000000E+00 0.  1.
         -5    1    5    5    0  503 -0.75744520121E+02  0.10091723428E+03  0.71471475321E+03  0.72578288004E+03  0.47000000000E+01 0.  1.
<mgrwt>
<rscale>  2 0.21794659E+03</rscale>
<asrwt>0</asrwt>
<pdfrwt beam="1">  1       21 0.31893256E+00 0.21860190E+03</pdfrwt>
<pdfrwt beam="2">  1       21 0.40523778E-02 0.21860190E+03</pdfrwt>
<totfact> 0.99006446E+03</totfact>
</mgrwt>
</event>
<event>
12    1  0.2762290E-001  0.1873136E+03  0.7546771E-02  0.1161526E+00
         21   -1    0    0  504  503  0.00000000000E+00  0.00000000000E+00  0.14610882800E+03  0.14610882800E+03  0.00000000000E+00 0. -1.
         21   -1    0    0  502  504 -0.00000000000E+00 -0.00000000000E+00 -0.59489486848E+03  0.59489486848E+03  0.00000000000E+00 0. -1.
          6    2    1    2  502    0 -0.56913333429E+02  0.35770853554E+02 -0.51251695030E+03  0.54567389119E+03  0.17483617961E+03 0.  0.
         24    2    3    3    0    0 -0.66626421652E+02  0.36586622460E+02 -0.16764535886E+03  0.20063256883E+03  0.79817293363E+02 0.  0.
         -6    2    1    2    0  503  0.56913333429E+02 -0.35770853554E+02  0.63730909823E+02  0.19532980528E+03  0.17196924864E+03 0.  0.
        -24    2    5    5    0    0  0.61405037439E+02  0.38021984308E+02  0.42950601701E+02  0.11839171634E+03  0.83400206215E+02 0.  0.
          2    1    4    4  501    0 -0.16483985603E+02  0.50993712766E+02 -0.11309595361E+03  0.12515100977E+03  0.00000000000E+00 0. -1.
         -1    1    4    4    0  501 -0.50142436050E+02 -0.14407090306E+02 -0.54549405249E+02  0.75481559053E+02  0.00000000000E+00 0.  1.
          5    1    3    3  502    0  0.97130882235E+01 -0.81576890618E+00 -0.34487159144E+03  0.34504132237E+03  0.47000000000E+01 0. -1.
         11    1    6    6    0    0 -0.83406634615E+01  0.39424863016E+02  0.11774643766E+02  0.41982481187E+02  0.00000000000E+00 0. -1.
        -12    1    6    6    0    0  0.69745700900E+02 -0.14028787082E+01  0.31175957935E+02  0.76409235148E+02  0.00000000000E+00 0.  1.
         -5    1    5    5    0  503 -0.44917040100E+01 -0.73792837861E+02  0.20780308122E+02  0.76938088943E+02  0.47000000000E+01 0.  1.
<mgrwt>
<rscale>  2 0.18664168E+03</rscale>
<asrwt>0</asrwt>
<pdfrwt beam="1">  1       21 0.22478281E-01 0.18731356E+03</pdfrwt>
<pdfrwt beam="2">  1       21 0.91522287E-01 0.18731356E+03</pdfrwt>
<totfact> 0.18792039E+04</totfact>
</mgrwt>
</event>
<event>
12    1  0.2762290E-001  0.2275713E+03  0.7546771E-02  0.1128609E+00
         21   -1    0    0  504  503  0.00000000000E+00  0.00000000000E+00  0.17255519262E+03  0.17255519262E+03  0.00000000000E+00 0. -1.
         21   -1    0    0  502  504 -0.00000000000E+00 -0.00000000000E+00 -0.51934413600E+03  0.51934413600E+03  0.00000000000E+00 0. -1.
          6    2    1    2  502    0  0.39659960735E+02 -0.14102594534E+03 -0.39939497497E+03  0.45967928537E+03  0.17414783842E+03 0.  0.
         24    2    3    3    0    0 -0.12660888430E+02 -0.99442848648E+02 -0.12936134937E+03  0.18145837648E+03  0.78381154891E+02 0.  0.
         -6    2    1    2    0  503 -0.39659960735E+02  0.14102594534E+03  0.52606031587E+02  0.23222004324E+03  0.17232969617E+03 0.  0.
        -24    2    5    5    0    0 -0.27420739570E+02  0.14483973402E+03 -0.11170562269E+02  0.16699821068E+03  0.77673518007E+02 0.  0.
          2    1    4    4  501    0  0.28482753782E+02 -0.50514479722E+02 -0.35830147125E+02  0.68167289572E+02  0.00000000000E+00 0. -1.
         -1    1    4    4    0  501 -0.41143642213E+02 -0.48928368926E+02 -0.93531202242E+02  0.11329108691E+03  0.00000000000E+00 0.  1.
          5    1    3    3  502    0  0.52320849166E+02 -0.41583096693E+02 -0.27003362560E+03  0.27822090889E+03  0.47000000000E+01 0. -1.
         11    1    6    6    0    0  0.92809976377E+01  0.11708664769E+03  0.66793438829E+01  0.11764367224E+03  0.00000000000E+00 0. -1.
        -12    1    6    6    0    0 -0.36701737208E+02  0.27753086338E+02 -0.17849906152E+02  0.49354538444E+02  0.00000000000E+00 0.  1.
         -5    1    5    5    0  503 -0.12239221165E+02 -0.38137886821E+01  0.63776593856E+02  0.65221832561E+02  0.47000000000E+01 0.  1.
<mgrwt>
<rscale>  2 0.22722344E+03</rscale>
<asrwt>0</asrwt>
<pdfrwt beam="1">  1       21 0.26546953E-01 0.22757131E+03</pdfrwt>
<pdfrwt beam="2">  1       21 0.79899097E-01 0.22757131E+03</pdfrwt>
<totfact> 0.18241694E+04</totfact>
</mgrwt>
</event>
<event>
12    1  0.2762290E-001  0.2130324E+03  0.7546771E-02  0.1140528E+00
         21   -1    0    0  504  503  0.00000000000E+00  0.00000000000E+00  0.30082126504E+03  0.30082126504E+03  0.00000000000E+00 0.  1.
         21   -1    0    0  502  504 -0.00000000000E+00 -0.00000000000E+00 -0.19426698073E+03  0.19426698073E+03  0.00000000000E+00 0.  1.
          6    2    1    2  502    0 -0.12506422460E+03  0.17600169308E+02 -0.69326841550E+02  0.22402905152E+03  0.17155750852E+03 0.  0.
         24    2    3    3    0    0 -0.47308185533E+02  0.72248555108E+02 -0.32539337465E+02  0.12201014083E+03  0.79810700086E+02 0.  0.
         -6    2    1    2    0  503  0.12506422460E+03 -0.17600169308E+02  0.17588112586E+03  0.27105919425E+03  0.16305854813E+03 0.  0.
        -24    2    5    5    0    0  0.10711621942E+02 -0.39309637501E+02  0.92859822793E+02  0.12801218971E+03  0.78129300399E+02 0.  0.
          2    1    4    4  501    0 -0.33300775700E+02  0.65177976057E+02  0.12557383643E+02  0.74261686683E+02  0.00000000000E+00 0. -1.
         -1    1    4    4    0  501 -0.14007409834E+02  0.70705790513E+01 -0.45096721108E+02  0.47748454144E+02  0.00000000000E+00 0.  1.
          5    1    3    3  502    0 -0.77756039068E+02 -0.54648385800E+02 -0.36787504085E+02  0.10201891069E+03  0.47000000000E+01 0. -1.
         13    1    6    6    0    0  0.40491341430E+02 -0.41811808666E+02  0.59896088904E+02  0.83518366487E+02  0.00000000000E+00 0. -1.
        -14    1    6    6    0    0 -0.29779719488E+02  0.25021711649E+01  0.32963733889E+02  0.44493823226E+02  0.00000000000E+00 0.  1.
         -5    1    5    5    0  503  0.11435260266E+03  0.21709468193E+02  0.83021303068E+02  0.14304700454E+03  0.47000000000E+01 0.  1.
<mgrwt>
<rscale>  2 0.21131608E+03</rscale>
<asrwt>0</asrwt>
<pdfrwt beam="1">  1       21 0.46280194E-01 0.21303240E+03</pdfrwt>
<pdfrwt beam="2">  1       21 0.29887228E-01 0.21303240E+03</pdfrwt>
<totfact> 0.47541150E+04</totfact>
</mgrwt>
</event>
<event>
12    1  0.2762290E-001  0.1751964E+03  0.7546771E-02  0.1173019E+00
         21   -1    0    0  504  503  0.00000000000E+00  0.00000000000E+00  0.14274594792E+03  0.14274594792E+03  0.00000000000E+00 0. -1.
         21   -1    0    0  502  504 -0.00000000000E+00 -0.00000000000E+00 -0.22826194110E+03  0.22826194110E+03  0.00000000000E+00 0. -1.
          6    2    1    2  502    0  0.31349720612E+01 -0.17706655178E+02 -0.91452843815E+02  0.19762942884E+03  0.17427109575E+03 0.  0.
         24    2    3    3    0    0 -0.18476128189E+02 -0.62213502901E+02 -0.12937863762E+02  0.10470692758E+03  0.81143484695E+02 0.  0.
         -6    2    1    2    0  503 -0.31349720612E+01  0.17706655178E+02  0.59368506312E+01  0.17337846018E+03  0.17234120393E+03 0.  0.
        -24    2    5    5    0    0 -0.22976667986E+02  0.76174005268E+02  0.26106582674E+02  0.10825525376E+03  0.68609328500E+02 0.  0.
          4    1    4    4  501    0  0.22205164593E+02 -0.31843508246E+02  0.20515551745E+02  0.43908612087E+02  0.00000000000E+00 0. -1.
         -3    1    4    4    0  501 -0.40681292781E+02 -0.30369994655E+02 -0.33453415507E+02  0.60798315493E+02  0.00000000000E+00 0.  1.
          5    1    3    3  502    0  0.21611100250E+02  0.44506847723E+02 -0.78514980052E+02  0.92922501262E+02  0.47000000000E+01 0. -1.
         13    1    6    6    0    0 -0.45095705101E+02  0.32660212300E+02  0.82989000398E+01  0.56295504508E+02  0.00000000000E+00 0. -1.
        -14    1    6    6    0    0  0.22119037115E+02  0.43513792968E+02  0.17807682634E+02  0.51959749251E+02  0.00000000000E+00 0.  1.
         -5    1    5    5    0  503  0.19841695925E+02 -0.58467350090E+02 -0.20169732043E+02  0.65123206420E+02  0.47000000000E+01 0.  1.
<mgrwt>
<rscale>  2 0.17471449E+03</rscale>
<asrwt>0</asrwt>
<pdfrwt beam="1">  1       21 0.21960915E-01 0.17519637E+03</pdfrwt>
<pdfrwt beam="2">  1       21 0.35117222E-01 0.17519637E+03</pdfrwt>
<totfact> 0.15225903E+05</totfact>
</mgrwt>
</event>
<event>
12    1  0.2762290E-001  0.1957360E+03  0.7546771E-02  0.1153814E+00
         21   -1    0    0  504  503  0.00000000000E+00  0.00000000000E+00  0.88722725964E+02  0.88722725964E+02  0.00000000000E+00 0. -1.
         21   -1    0    0  502  504 -0.00000000000E+00 -0.00000000000E+00 -0.67622272833E+03  0.67622272833E+03  0.00000000000E+00 0. -1.
          6    2    1    2  502    0  0.26273853924E+02 -0.83924195409E+02 -0.52663469288E+03  0.56183330911E+03  0.17486846916E+03 0.  0.
         24    2    3    3    0    0  0.32656031709E+02 -0.12579643306E+03 -0.39446754952E+03  0.42296552932E+03  0.80025198483E+02 0.  0.
         -6    2    1    2    0  503 -0.26273853924E+02  0.83924195409E+02 -0.60865309489E+02  0.20311214519E+03  0.17267417771E+03 0.  0.
        -24    2    5    5    0    0 -0.49426070654E+02 -0.14685978370E+01  0.41247710349E+01  0.93231506107E+02  0.78930391834E+02 0.  0.
          4    1    4    4  501    0  0.14101859054E+02 -0.12133250431E+03 -0.37961537198E+03  0.39878348721E+03  0.00000000000E+00 0. -1.
         -3    1    4    4    0  501  0.18554172655E+02 -0.44639287528E+01 -0.14852177537E+02  0.24182042106E+02  0.00000000000E+00 0.  1.
          5    1    3    3  502    0 -0.63821777850E+01  0.41872237656E+02 -0.13216714336E+03  0.13886777979E+03  0.47000000000E+01 0. -1.
         13    1    6    6    0    0 -0.38672772027E+02  0.31043880313E+02 -0.17663334873E+02  0.52643130605E+02  0.00000000000E+00 0. -1.
        -14    1    6    6    0    0 -0.10753298627E+02 -0.32512478150E+02  0.21788105908E+02  0.40588375502E+02  0.00000000000E+00 0.  1.
         -5    1    5    5    0  503  0.23152216730E+02  0.85392793246E+02 -0.64990080523E+02  0.10988063908E+03  0.47000000000E+01 0.  1.
<mgrwt>
<rscale>  2 0.19524465E+03</rscale>
<asrwt>0</asrwt>
<pdfrwt beam="1">  1       21 0.13649651E-01 0.19573596E+03</pdfrwt>
<pdfrwt beam="2">  1       21 0.10403426E+00 0.19573596E+03</pdfrwt>
<totfact> 0.34713482E+04</totfact>
</mgrwt>
</event>
<event>
12    1  0.2762290E-001  0.1851464E+03  0.7546771E-02  0.1163093E+00
         21   -1    0    0  504  503  0.00000000000E+00  0.00000000000E+00  0.18507861453E+02  0.18507861453E+02  0.00000000000E+00 0.  1.
         21   -1    0    0  502  504 -0.00000000000E+00 -0.00000000000E+00 -0.18822742192E+04  0.18822742192E+04  0.00000000000E+00 0.  1.
          6    2    1    2  502    0  0.45561114987E+02 -0.49263682067E+02 -0.10647198822E+04  0.10805659740E+04  0.17173139202E+03 0.  0.
         24    2    3    3    0    0  0.36404092363E+02 -0.41765433049E+02 -0.10634057403E+04  0.10677639519E+04  0.78857333446E+02 0.  0.
         -6    2    1    2    0  503 -0.45561114987E+02  0.49263682067E+02 -0.79904647552E+03  0.82021610665E+03  0.17255858712E+03 0.  0.
        -24    2    5    5    0    0 -0.12571243880E+01  0.43439444627E+02 -0.20701831035E+03  0.22648535649E+03  0.80934974969E+02 0.  0.
          4    1    4    4  501    0 -0.15548253604E+02 -0.15058031664E+02 -0.63790953533E+03  0.63827663891E+03  0.00000000000E+00 0. -1.
         -3    1    4    4    0  501  0.51952345967E+02 -0.26707401386E+02 -0.42549620500E+03  0.42948731298E+03  0.00000000000E+00 0.  1.
          5    1    3    3  502    0  0.91570226235E+01 -0.74982490175E+01 -0.13141419024E+01  0.12802022129E+02  0.47000000000E+01 0. -1.
         13    1    6    6    0    0  0.24360509065E+02  0.14282433650E+02 -0.17170721958E+03  0.17401376833E+03  0.00000000000E+00 0. -1.
        -14    1    6    6    0    0 -0.25617633453E+02  0.29157010976E+02 -0.35311090778E+02  0.52471588167E+02  0.00000000000E+00 0.  1.
         -5    1    5    5    0  503 -0.44303990599E+02  0.58242374400E+01 -0.59202816517E+03  0.59373075015E+03  0.47000000000E+01 0.  1.
<mgrwt>
<rscale>  2 0.18495343E+03</rscale>
<asrwt>0</asrwt>
<pdfrwt beam="1">  1       21 0.28473639E-02 0.18514641E+03</pdfrwt>
<pdfrwt beam="2">  1       21 0.28958059E+00 0.18514641E+03</pdfrwt>
<totfact> 0.27227282E+04</totfact>
</mgrwt>
</event>
<event>
12    1  0.2762290E-001  0.1798485E+03  0.7546771E-02  0.1169353E+00
         21   -1    0    0  504  503  0.00000000000E+00  0.00000000000E+00  0.87752463566E+02  0.87752463566E+02  0.00000000000E+00 0. -1.
         21   -1    0    0  502  504 -0.00000000000E+00 -0.00000000000E+00 -0.35847053920E+03  0.35847053920E+03  0.00000000000E+00 0. -1.
          6    2    1    2  502    0 -0.32531245373E+02  0.38445424075E+02 -0.12334596184E+03  0.21808192353E+03  0.17265331306E+03 0.  0.
         24    2    3    3    0    0 -0.79132663600E+02  0.34000227501E+02 -0.31331438681E+02  0.11473680064E+03  0.69028113491E+02 0.  0.
         -6    2    1    2    0  503  0.32531245373E+02 -0.38445424075E+02 -0.14737211380E+03  0.22814107924E+03  0.16671376534E+03 0.  0.
        -24    2    5    5    0    0  0.40256361681E+02  0.37534820592E+02 -0.84431928153E+02  0.12906417996E+03  0.80618699099E+02 0.  0.
          2    1    4    4  501    0 -0.88322005382E+02  0.36092383610E+02 -0.16005659326E+02  0.96745118326E+02  0.00000000000E+00 0. -1.
         -1    1    4    4    0  501  0.91893417819E+01 -0.20921561091E+01 -0.15325779356E+02  0.17991682312E+02  0.00000000000E+00 0.  1.
          5    1    3    3  502    0  0.46601418227E+02  0.44451965740E+01 -0.92014523155E+02  0.10334512289E+03  0.47000000000E+01 0. -1.
         13    1    6    6    0    0  0.25951317196E+02 -0.20729663799E+02 -0.12722629552E+02  0.35567613473E+02  0.00000000000E+00 0. -1.
        -14    1    6    6    0    0  0.14305044485E+02  0.58264484391E+02 -0.71709298601E+02  0.93496566487E+02  0.00000000000E+00 0.  1.
         -5    1    5    5    0  503 -0.77251163078E+01 -0.75980244667E+02 -0.62940185644E+02  0.99076899278E+02  0.47000000000E+01 0.  1.
<mgrwt>
<rscale>  2 0.17840783E+03</rscale>
<asrwt>0</asrwt>
<pdfrwt beam="1">  1       21 0.13500379E-01 0.17984854E+03</pdfrwt>
<pdfrwt beam="2">  1       21 0.55149315E-01 0.17984854E+03</pdfrwt>
<totfact> 0.14788782E+05</totfact>
</mgrwt>
</event>
<event>
12    1  0.2762290E-001  0.2828577E+03  0.7546771E-02  0.1094273E+00
         21   -1    0    0  504  503  0.00000000000E+00  0.00000000000E+00  0.61798246144E+03  0.61798246144E+03  0.00000000000E+00 0. -1.
         21   -1    0    0  502  504 -0.00000000000E+00 -0.00000000000E+00 -0.20114524519E+03  0.20114524519E+03  0.00000000000E+00 0.  1.
          6    2    1    2  502    0 -0.17296749446E+03 -0.14062325677E+03 -0.37084066453E+02  0.28428845494E+03  0.17248780577E+03 0.  0.
         24    2    3    3    0    0 -0.57004896782E+02 -0.13220397810E+03 -0.21227148876E+02  0.16685021521E+03  0.81614657899E+02 0.  0.
         -6    2    1    2    0  503  0.17296749446E+03  0.14062325677E+03  0.45392128270E+03  0.53483925169E+03  0.17411444446E+03 0.  0.
        -24    2    5    5    0    0  0.29260557956E+02  0.94070594120E+02  0.25242166064E+03  0.28296026945E+03  0.81512958478E+02 0.  0.
          4    1    4    4  501    0 -0.25114633383E+02 -0.96533858708E+02  0.22251717243E+02  0.10219916637E+03  0.00000000000E+00 0. -1.
         -3    1    4    4    0  501 -0.31890263399E+02 -0.35670119396E+02 -0.43478866119E+02  0.64651048842E+02  0.00000000000E+00 0.  1.
          5    1    3    3  502    0 -0.11596259768E+03 -0.84192786643E+01 -0.15856917577E+02  0.11743823972E+03  0.47000000000E+01 0. -1.
         13    1    6    6    0    0  0.14791309602E+02  0.10725907612E+03  0.21527460866E+03  0.24096981011E+03  0.00000000000E+00 0. -1.
        -14    1    6    6    0    0  0.14469248354E+02 -0.13188482000E+02  0.37147051978E+02  0.41990459345E+02  0.00000000000E+00 0.  1.
         -5    1    5    5    0  503  0.14370693651E+03  0.46552662649E+02  0.20149962207E+03  0.25187898224E+03  0.47000000000E+01 0.  1.
<mgrwt>
<rscale>  2 0.28260780E+03</rscale>
<asrwt>0</asrwt>
<pdfrwt beam="1">  1       21 0.95074224E-01 0.28285773E+03</pdfrwt>
<pdfrwt beam="2">  1       21 0.30945423E-01 0.28285773E+03</pdfrwt>
<totfact> 0.87803307E+03</totfact>
</mgrwt>
</event>
<event>
12    1  0.2762290E-001  0.1801984E+03  0.7546771E-02  0.1168067E+00
         21   -1    0    0  504  503  0.00000000000E+00  0.00000000000E+00  0.12848310886E+03  0.12848310886E+03  0.00000000000E+00 0. -1.
         21   -1    0    0  502  504 -0.00000000000E+00 -0.00000000000E+00 -0.32491321962E+03  0.32491321962E+03  0.00000000000E+00 0. -1.
          6    2    1    2  502    0  0.11254464716E+02 -0.40884810001E+02 -0.20738954918E+03  0.27473970298E+03  0.17513779895E+03 0.  0.
         24    2    3    3    0    0 -0.34016044148E+02 -0.72310707589E+02 -0.88605271539E+02  0.14370993298E+03  0.80098195991E+02 0.  0.
         -6    2    1    2    0  503 -0.11254464716E+02  0.40884810001E+02  0.10959438419E+02  0.17865662549E+03  0.17320464739E+03 0.  0.
        -24    2    5    5    0    0 -0.57135414526E+02  0.69007038062E+02  0.25394966206E+02  0.12274244367E+03  0.79964843989E+02 0.  0.
          2    1    4    4  501    0 -0.59216700225E+02 -0.38047014981E+02 -0.50795617135E+02  0.86800850541E+02  0.00000000000E+00 0. -1.
         -1    1    4    4    0  501  0.25200656077E+02 -0.34263692608E+02 -0.37809654404E+02  0.56909082438E+02  0.00000000000E+00 0.  1.
          5    1    3    3  502    0  0.45270508863E+02  0.31425897588E+02 -0.11878427764E+03  0.13102977000E+03  0.47000000000E+01 0. -1.
         11    1    6    6    0    0  0.11660476567E+02  0.16681138790E+01 -0.14374112275E+02  0.18583982925E+02  0.00000000000E+00 0. -1.
        -12    1    6    6    0    0 -0.68795891092E+02  0.67338924183E+02  0.39769078480E+02  0.10415846074E+03  0.00000000000E+00 0.  1.
         -5    1    5    5    0  503  0.45880949810E+02 -0.28122228062E+02 -0.14435527787E+02  0.55914181824E+02  0.47000000000E+01 0.  1.
<mgrwt>
<rscale>  2 0.17972703E+03</rscale>
<asrwt>0</asrwt>
<pdfrwt beam="1">  1       21 0.19766632E-01 0.18019844E+03</pdfrwt>
<pdfrwt beam="2">  1       21 0.49986649E-01 0.18019844E+03</pdfrwt>
<totfact> 0.90395260E+04</totfact>
</mgrwt>
</event>
<event>
12    1  0.2762290E-001  0.1959006E+03  0.7546771E-02  0.1154009E+00
         21   -1    0    0  504  503  0.00000000000E+00  0.00000000000E+00  0.20674256490E+03  0.20674256490E+03  0.00000000000E+00 0. -1.
         21   -1    0    0  502  504 -0.00000000000E+00 -0.00000000000E+00 -0.20036712236E+03  0.20036712236E+03  0.00000000000E+00 0.  1.
          6    2    1    2  502    0  0.42935672534E+02  0.74708488139E+02 -0.57853507863E+02  0.20426475962E+03  0.17593246850E+03 0.  0.
         24    2    3    3    0    0  0.71640544392E+02  0.99489831161E+02 -0.16896663735E+02  0.14825013910E+03  0.81621151626E+02 0.  0.
         -6    2    1    2    0  503 -0.42935672534E+02 -0.74708488139E+02  0.64228950402E+02  0.20284492764E+03  0.17203452102E+03 0.  0.
        -24    2    5    5    0    0 -0.60329445102E+02 -0.89735291959E+02  0.39146872381E+01  0.13812824897E+03  0.85860490439E+02 0.  0.
          4    1    4    4  501    0  0.11670474377E+02 -0.20171323749E+01  0.21255324627E+02  0.24332234180E+02  0.00000000000E+00 0. -1.
         -3    1    4    4    0  501  0.59970070015E+02  0.10150696354E+03 -0.38151988362E+02  0.12391790492E+03  0.00000000000E+00 0.  1.
          5    1    3    3  502    0 -0.28704871858E+02 -0.24781343023E+02 -0.40956844128E+02  0.56014620514E+02  0.47000000000E+01 0. -1.
         11    1    6    6    0    0 -0.46278677867E+02 -0.10579454316E+01  0.12461514385E+02  0.47938759000E+02  0.00000000000E+00 0. -1.
        -12    1    6    6    0    0 -0.14050767235E+02 -0.88677346527E+02 -0.85468271465E+01  0.90189489971E+02  0.00000000000E+00 0.  1.
         -5    1    5    5    0  503  0.17393772568E+02  0.15026803820E+02  0.60314263164E+02  0.64716678671E+02  0.47000000000E+01 0.  1.
<mgrwt>
<rscale>  2 0.19502150E+03</rscale>
<asrwt>0</asrwt>
<pdfrwt beam="1">  1       21 0.31806549E-01 0.19590065E+03</pdfrwt>
<pdfrwt beam="2">  1       21 0.30825711E-01 0.19590065E+03</pdfrwt>
<totfact> 0.95932649E+04</totfact>
</mgrwt>
</event>
<event>
12    1  0.2762290E-001  0.2871902E+03  0.7546771E-02  0.1092978E+00
         21   -1    0    0  504  503  0.00000000000E+00  0.00000000000E+00  0.93239031445E+03  0.93239031445E+03  0.00000000000E+00 0.  1.
         21   -1    0    0  502  504 -0.00000000000E+00 -0.00000000000E+00 -0.21662068594E+03  0.21662068594E+03  0.00000000000E+00 0.  1.
          6    2    1    2  502    0 -0.14563276222E+03  0.16340006464E+03 -0.90643207348E+02  0.29298537927E+03  0.17238259446E+03 0.  0.
         24    2    3    3    0    0 -0.29017998172E+02  0.11015255470E+03 -0.44000634491E+01  0.13840766296E+03  0.78496439947E+02 0.  0.
         -6    2    1    2    0  503  0.14563276222E+03 -0.16340006464E+03  0.80641283585E+03  0.85602562112E+03  0.18592934044E+03 0.  0.
        -24    2    5    5    0    0  0.98570567892E+01 -0.97211220993E+02  0.48862536245E+03  0.50413505083E+03  0.76486741277E+02 0.  0.
          4    1    4    4  501    0  0.92749863538E+01  0.27931412696E+01 -0.21089970993E+02  0.23208056500E+02  0.00000000000E+00 0. -1.
         -3    1    4    4    0  501 -0.38292984526E+02  0.10735941343E+03  0.16689907544E+02  0.11519960646E+03  0.00000000000E+00 0.  1.
          5    1    3    3  502    0 -0.11661476405E+03  0.53247509937E+02 -0.86243143899E+02  0.15457771631E+03  0.47000000000E+01 0. -1.
         11    1    6    6    0    0 -0.18152582082E+02  0.34055883899E+01  0.51695559507E+02  0.54895766150E+02  0.00000000000E+00 0. -1.
        -12    1    6    6    0    0  0.28009638871E+02 -0.10061680938E+03  0.43692980294E+03  0.44923928468E+03  0.00000000000E+00 0.  1.
         -5    1    5    5    0  503  0.13577570543E+03 -0.66188843642E+02  0.31778747340E+03  0.35189057029E+03  0.47000000000E+01 0.  1.
<mgrwt>
<rscale>  2 0.28502100E+03</rscale>
<asrwt>0</asrwt>
<pdfrwt beam="1">  1       21 0.14344466E+00 0.28719018E+03</pdfrwt>
<pdfrwt beam="2">  1       21 0.33326260E-01 0.28719018E+03</pdfrwt>
<totfact> 0.27125990E+03</totfact>
</mgrwt>
</event>
<event>
12    1  0.2762290E-001  0.2333093E+03  0.7546771E-02  0.1124398E+00
         21   -1    0    0  504  503  0.00000000000E+00  0.00000000000E+00  0.20992528798E+03  0.20992528798E+03  0.00000000000E+00 0. -1.
         21   -1    0    0  502  504 -0.00000000000E+00 -0.00000000000E+00 -0.27797574773E+03  0.27797574773E+03  0.00000000000E+00 0. -1.
          6    2    1    2  502    0 -0.14701278651E+03  0.53590078945E+02  0.29894188719E+02  0.23521671934E+03  0.17305659935E+03 0.  0.
         24    2    3    3    0    0 -0.43375487694E+02 -0.32289138707E+02  0.63382442658E+00  0.97397313417E+02  0.81005021550E+02 0.  0.
         -6    2    1    2    0  503  0.14701278651E+03 -0.53590078945E+02 -0.97944648462E+02  0.25268431637E+03  0.17254435261E+03 0.  0.
        -24    2    5    5    0    0  0.13424407655E+03 -0.86446612896E+02 -0.11403594396E+03  0.21365084909E+03  0.84545844564E+02 0.  0.
          2    1    4    4  501    0  0.21627292514E+02 -0.19103821786E+02 -0.93282979557E+01  0.30326769216E+02  0.00000000000E+00 0. -1.
         -1    1    4    4    0  501 -0.65002780208E+02 -0.13185316921E+02  0.99621223823E+01  0.67070544201E+02  0.00000000000E+00 0.  1.
          5    1    3    3  502    0 -0.10363729882E+03  0.85879217652E+02  0.29260364292E+02  0.13781940592E+03  0.47000000000E+01 0. -1.
         13    1    6    6    0    0  0.71624261221E+02  0.13378665112E+01 -0.33602692356E+02  0.79126263755E+02  0.00000000000E+00 0. -1.
        -14    1    6    6    0    0  0.62619815329E+02 -0.87784479407E+02 -0.80433251600E+02  0.13452458534E+03  0.00000000000E+00 0.  1.
         -5    1    5    5    0  503  0.12768709959E+02  0.32856533951E+02  0.16091295494E+02  0.39033467281E+02  0.47000000000E+01 0.  1.
<mgrwt>
<rscale>  2 0.23321434E+03</rscale>
<asrwt>0</asrwt>
<pdfrwt beam="1">  1       21 0.32296198E-01 0.23330933E+03</pdfrwt>
<pdfrwt beam="2">  1       21 0.42765500E-01 0.23330933E+03</pdfrwt>
<totfact> 0.47599373E+04</totfact>
</mgrwt>
</event>
<event>
12    1  0.2762290E-001  0.2337842E+03  0.7546771E-02  0.1126287E+00
         21   -1    0    0  504  503  0.00000000000E+00  0.00000000000E+00  0.51575779107E+03  0.51575779107E+03  0.00000000000E+00 0. -1.
         21   -1    0    0  502  504 -0.00000000000E+00 -0.00000000000E+00 -0.11465538795E+03  0.11465538795E+03  0.00000000000E+00 0.  1.
          6    2    1    2  502    0  0.11618397576E+03  0.72890528131E+02  0.83804572040E+02  0.23629012830E+03  0.17319951825E+03 0.  0.
         24    2    3    3    0    0  0.57189987002E+02  0.90881576718E+02 -0.27497012510E+00  0.13190896166E+03  0.76614247745E+02 0.  0.
         -6    2    1    2    0  503 -0.11618397576E+03 -0.72890528131E+02  0.31729783107E+03  0.39412305072E+03  0.18932332184E+03 0.  0.
        -24    2    5    5    0    0 -0.96096976363E+02 -0.10064010731E+03  0.13862257200E+03  0.21213276281E+03  0.80131339208E+02 0.  0.
          4    1    4    4  501    0  0.72207389195E+02  0.74689215849E+02  0.15130312561E+02  0.10498243842E+03  0.00000000000E+00 0. -1.
         -3    1    4    4    0  501 -0.15017402193E+02  0.16192360869E+02 -0.15405282686E+02  0.26926523240E+02  0.00000000000E+00 0.  1.
          5    1    3    3  502    0  0.58993988756E+02 -0.17991048588E+02  0.84079542165E+02  0.10438116664E+03  0.47000000000E+01 0. -1.
         13    1    6    6    0    0 -0.48218400758E+02 -0.87250611244E+02  0.52441822441E+02  0.11264025957E+03  0.00000000000E+00 0. -1.
        -14    1    6    6    0    0 -0.47878575605E+02 -0.13389496067E+02  0.86180749563E+02  0.99492503246E+02  0.00000000000E+00 0.  1.
         -5    1    5    5    0  503 -0.20086999395E+02  0.27749579181E+02  0.17867525907E+03  0.18199028791E+03  0.47000000000E+01 0.  1.
<mgrwt>
<rscale>  2 0.23050206E+03</rscale>
<asrwt>0</asrwt>
<pdfrwt beam="1">  1       21 0.79347351E-01 0.23378423E+03</pdfrwt>
<pdfrwt beam="2">  1       21 0.17639291E-01 0.23378423E+03</pdfrwt>
<totfact> 0.40009227E+04</totfact>
</mgrwt>
</event>
<event>
12    1  0.2762290E-001  0.1931288E+03  0.7546771E-02  0.1155726E+00
         21   -1    0    0  504  503  0.00000000000E+00  0.00000000000E+00  0.82444904242E+02  0.82444904242E+02  0.00000000000E+00 0.  1.
         21   -1    0    0  502  504 -0.00000000000E+00 -0.00000000000E+00 -0.48669234774E+03  0.48669234774E+03  0.00000000000E+00 0. -1.
          6    2    1    2  502    0 -0.19146061581E+02 -0.82804194848E+02 -0.27843874760E+03  0.33886116388E+03  0.17342331406E+03 0.  0.
         24    2    3    3    0    0 -0.37022913036E+02 -0.10197386768E+03 -0.12967585843E+03  0.18773358410E+03  0.81600885785E+02 0.  0.
         -6    2    1    2    0  503  0.19146061581E+02  0.82804194848E+02 -0.12580869590E+03  0.23027608811E+03  0.17313619619E+03 0.  0.
        -24    2    5    5    0    0 -0.26872992256E+02  0.32890615193E+01 -0.10468481606E+03  0.13589008256E+03  0.82305699588E+02 0.  0.
          4    1    4    4  501    0 -0.78830875059E+01 -0.10257444593E+03 -0.11742849963E+03  0.15611890517E+03  0.00000000000E+00 0. -1.
         -3    1    4    4    0  501 -0.29139825530E+02  0.60057825343E+00 -0.12247358798E+02  0.31614678927E+02  0.00000000000E+00 0.  1.
          5    1    3    3  502    0  0.17876851454E+02  0.19169672828E+02 -0.14876288917E+03  0.15112757978E+03  0.47000000000E+01 0. -1.
         13    1    6    6    0    0 -0.54576107417E+01 -0.10141022738E+02 -0.10954520378E+03  0.11014888800E+03  0.00000000000E+00 0. -1.
        -14    1    6    6    0    0 -0.21415381514E+02  0.13430084257E+02  0.48603877127E+01  0.25741194558E+02  0.00000000000E+00 0.  1.
         -5    1    5    5    0  503  0.46019053837E+02  0.79515133329E+02 -0.21123879835E+02  0.94386005550E+02  0.47000000000E+01 0.  1.
<mgrwt>
<rscale>  2 0.19306437E+03</rscale>
<asrwt>0</asrwt>
<pdfrwt beam="1">  1       21 0.12683831E-01 0.19312885E+03</pdfrwt>
<pdfrwt beam="2">  1       21 0.74875748E-01 0.19312885E+03</pdfrwt>
<totfact> 0.84778023E+04</totfact>
</mgrwt>
</event>
<event>
12    1  0.2762290E-001  0.2308961E+03  0.7546771E-02  0.1126125E+00
         21   -1    0    0  504  503  0.00000000000E+00  0.00000000000E+00  0.14862570080E+04  0.14862570080E+04  0.00000000000E+00 0.  1.
         21   -1    0    0  502  504 -0.00000000000E+00 -0.00000000000E+00 -0.36045579333E+02  0.36045579333E+02  0.00000000000E+00 0. -1.
          6    2    1    2  502    0  0.23214308870E+02  0.14866683706E+03  0.79069325461E+03  0.82353422205E+03  0.17427581423E+03 0.  0.
         24    2    3    3    0    0 -0.53149533331E+02  0.76846964328E+02  0.47592729056E+03  0.49173724703E+03  0.81045699383E+02 0.  0.
         -6    2    1    2    0  503 -0.23214308870E+02 -0.14866683706E+03  0.65951817406E+03  0.69876836529E+03  0.17513501600E+03 0.  0.
        -24    2    5    5    0    0  0.49631674437E+02 -0.50933100669E+02  0.28440896929E+03  0.30432264529E+03  0.81647576675E+02 0.  0.
          2    1    4    4  501    0 -0.67250344404E+02  0.68002738456E+02  0.45527618799E+03  0.46521327218E+03  0.00000000000E+00 0. -1.
         -1    1    4    4    0  501  0.14100811072E+02  0.88442258721E+01  0.20651102575E+02  0.26523974848E+02  0.00000000000E+00 0.  1.
          5    1    3    3  502    0  0.76363842201E+02  0.71819872734E+02  0.31476596404E+03  0.33179697503E+03  0.47000000000E+01 0. -1.
         13    1    6    6    0    0  0.92189362445E+01 -0.36547348641E+02  0.35612119798E+02  0.51854802619E+02  0.00000000000E+00 0. -1.
        -14    1    6    6    0    0  0.40412738193E+02 -0.14385752028E+02  0.24879684949E+03  0.25246784268E+03  0.00000000000E+00 0.  1.
         -5    1    5    5    0  503 -0.72845983307E+02 -0.97733736393E+02  0.37510920478E+03  0.39444571999E+03  0.47000000000E+01 0.  1.
<mgrwt>
<rscale>  2 0.23073317E+03</rscale>
<asrwt>0</asrwt>
<pdfrwt beam="1">  1       21 0.22865488E+00 0.23089609E+03</pdfrwt>
<pdfrwt beam="2">  1       21 0.55454749E-02 0.23089609E+03</pdfrwt>
<totfact> 0.19511592E+04</totfact>
</mgrwt>
</event>
<event>
12    1  0.2762290E-001  0.1985069E+03  0.7546771E-02  0.1151029E+00
         21   -1    0    0  504  503  0.00000000000E+00  0.00000000000E+00  0.25484681803E+03  0.25484681803E+03  0.00000000000E+00 0. -1.
         21   -1    0    0  502  504 -0.00000000000E+00 -0.00000000000E+00 -0.15579794659E+03  0.15579794659E+03  0.00000000000E+00 0. -1.
          6    2    1    2  502    0  0.54935358021E+02  0.79846537443E+02  0.31023304042E+02  0.20080557659E+03  0.17310999709E+03 0.  0.
         24    2    3    3    0    0  0.51608384080E+02  0.91820473949E+02 -0.31770533929E+02  0.13662146642E+03  0.81003910500E+02 0.  0.
         -6    2    1    2    0  503 -0.54935358021E+02 -0.79846537443E+02  0.68025567399E+02  0.20983918804E+03  0.17323869058E+03 0.  0.
        -24    2    5    5    0    0 -0.70034564590E+02 -0.11731779557E+03  0.49613366458E+02  0.16519413940E+03  0.78481285448E+02 0.  0.
          2    1    4    4  501    0  0.50387024896E+01  0.85670671388E+02 -0.18212084189E+02  0.87729883559E+02  0.00000000000E+00 0. -1.
         -1    1    4    4    0  501  0.46569681591E+02  0.61498025612E+01 -0.13558449740E+02  0.48891582858E+02  0.00000000000E+00 0.  1.
          5    1    3    3  502    0  0.33269739404E+01 -0.11973936506E+02  0.62793837972E+02  0.64184110170E+02  0.47000000000E+01 0. -1.
         13    1    6    6    0    0 -0.52952672118E+02 -0.97601717881E+02  0.21819665026E+01  0.11106233293E+03  0.00000000000E+00 0. -1.
        -14    1    6    6    0    0 -0.17081892472E+02 -0.19716077687E+02  0.47431399955E+02  0.54131806468E+02  0.00000000000E+00 0.  1.
         -5    1    5    5    0  503  0.15099206569E+02  0.37471258126E+02  0.18412200941E+02  0.44645048640E+02  0.47000000000E+01 0.  1.
<mgrwt>
<rscale>  2 0.19847886E+03</rscale>
<asrwt>0</asrwt>
<pdfrwt beam="1">  1       21 0.39207203E-01 0.19850694E+03</pdfrwt>
<pdfrwt beam="2">  1       21 0.23968915E-01 0.19850694E+03</pdfrwt>
<totfact> 0.10269399E+05</totfact>
</mgrwt>
</event>
<event>
12    1  0.2762290E-001  0.2219098E+03  0.7546771E-02  0.1133822E+00
         21   -1    0    0  504  503  0.00000000000E+00  0.00000000000E+00  0.41859203092E+02  0.41859203092E+02  0.00000000000E+00 0. -1.
         21   -1    0    0  502  504 -0.00000000000E+00 -0.00000000000E+00 -0.18133843841E+04  0.18133843841E+04  0.00000000000E+00 0. -1.
          6    2    1    2  502    0 -0.54477789322E+02  0.11495043988E+03 -0.14608409056E+04  0.14775994435E+04  0.18183104988E+03 0.  0.
         24    2    3    3    0    0  0.10509448703E+02  0.55798850509E+02 -0.41834184435E+03  0.43139265973E+03  0.88689164526E+02 0.  0.
         -6    2    1    2    0  503  0.54477789322E+02 -0.11495043988E+03 -0.31068427537E+03  0.37764414369E+03  0.17294203404E+03 0.  0.
        -24    2    5    5    0    0  0.18975798852E+01 -0.55178508887E+02 -0.27074188270E+03  0.28845419531E+03  0.82803303623E+02 0.  0.
          4    1    4    4  501    0  0.43319165902E+02  0.58673106050E+01 -0.21763371892E+03  0.22198065474E+03  0.00000000000E+00 0. -1.
         -3    1    4    4    0  501 -0.32809717199E+02  0.49931539904E+02 -0.20070812543E+03  0.20941200499E+03  0.00000000000E+00 0.  1.
          5    1    3    3  502    0 -0.64987238026E+02  0.59151589375E+02 -0.10424990612E+04  0.10462067837E+04  0.47000000000E+01 0. -1.
         13    1    6    6    0    0  0.58717688408E+00 -0.58283460765E+02 -0.87229548910E+02  0.10491091830E+03  0.00000000000E+00 0. -1.
        -14    1    6    6    0    0  0.13104030011E+01  0.31049518782E+01 -0.18351233379E+03  0.18354327701E+03  0.00000000000E+00 0.  1.
         -5    1    5    5    0  503  0.52580209437E+02 -0.59771930997E+02 -0.39942392673E+02  0.89189948380E+02  0.47000000000E+01 0.  1.
<mgrwt>
<rscale>  2 0.22008156E+03</rscale>
<asrwt>0</asrwt>
<pdfrwt beam="1">  1       21 0.64398760E-02 0.22190981E+03</pdfrwt>
<pdfrwt beam="2">  1       21 0.27898227E+00 0.22190981E+03</pdfrwt>
<totfact> 0.76503992E+03</totfact>
</mgrwt>
</event>
<event>
12    1  0.2762290E-001  0.2044027E+03  0.7546771E-02  0.1146131E+00
         21   -1    0    0  504  503  0.00000000000E+00  0.00000000000E+00  0.73043666100E+03  0.73043666100E+03  0.00000000000E+00 0. -1.
         21   -1    0    0  502  504 -0.00000000000E+00 -0.00000000000E+00 -0.60857524939E+02  0.60857524939E+02  0.00000000000E+00 0. -1.
          6    2    1    2  502    0 -0.18324169808E+02  0.11248186742E+03  0.23660452925E+03  0.31249623514E+03  0.16936424657E+03 0.  0.
         24    2    3    3    0    0  0.23342192122E+02  0.52523718163E+02  0.21285178212E+03  0.23557193225E+03  0.82973822430E+02 0.  0.
         -6    2    1    2    0  503  0.18324169808E+02 -0.11248186742E+03  0.43297460680E+03  0.47879795079E+03  0.16968359334E+03 0.  0.
        -24    2    5    5    0    0  0.73211193741E+02 -0.45027985236E+02  0.23882404583E+03  0.26600898975E+03  0.79601880724E+02 0.  0.
          4    1    4    4  501    0 -0.15629660280E+02  0.46627036027E+02  0.17163909951E+03  0.17854508465E+03  0.00000000000E+00 0. -1.
         -3    1    4    4    0  501  0.38971852402E+02  0.58966821360E+01  0.41212682606E+02  0.57026847602E+02  0.00000000000E+00 0.  1.
          5    1    3    3  502    0 -0.41666361931E+02  0.59958149260E+02  0.23752747133E+02  0.76924302893E+02  0.47000000000E+01 0. -1.
         11    1    6    6    0    0  0.68792916549E+02 -0.58017688233E+02  0.23518446038E+03  0.25181391527E+03  0.00000000000E+00 0. -1.
        -12    1    6    6    0    0  0.44182771920E+01  0.12989702997E+02  0.36395854493E+01  0.14195074482E+02  0.00000000000E+00 0.  1.
         -5    1    5    5    0  503 -0.54887023932E+02 -0.67453882187E+02  0.19415056097E+03  0.21278896105E+03  0.47000000000E+01 0.  1.
<mgrwt>
<rscale>  2 0.20433642E+03</rscale>
<asrwt>0</asrwt>
<pdfrwt beam="1">  1       21 0.11237486E+00 0.20440271E+03</pdfrwt>
<pdfrwt beam="2">  1       21 0.93626967E-02 0.20440271E+03</pdfrwt>
<totfact> 0.56177986E+04</totfact>
</mgrwt>
</event>
<event>
12    1  0.2762290E-001  0.1808753E+03  0.7546771E-02  0.1167617E+00
         21   -1    0    0  504  503  0.00000000000E+00  0.00000000000E+00  0.10435751846E+04  0.10435751846E+04  0.00000000000E+00 0.  1.
         21   -1    0    0  502  504 -0.00000000000E+00 -0.00000000000E+00 -0.45754126808E+02  0.45754126808E+02  0.00000000000E+00 0.  1.
          6    2    1    2  502    0 -0.26514328994E+02  0.38330685643E+02  0.19092237547E+03  0.26299661193E+03  0.17476731196E+03 0.  0.
         24    2    3    3    0    0  0.32842259300E+02  0.11925597504E+02  0.15327153303E+03  0.18776291476E+03  0.10267383041E+03 0.  0.
         -6    2    1    2    0  503  0.26514328994E+02 -0.38330685643E+02  0.80689868229E+03  0.82633269944E+03  0.17195346924E+03 0.  0.
        -24    2    5    5    0    0  0.59786367030E+02  0.95157952638E+01  0.31550114170E+03  0.33146913527E+03  0.81644700865E+02 0.  0.
          2    1    4    4  501    0  0.66825147750E+02 -0.29587824804E+01  0.12245681308E+03  0.13953503444E+03  0.00000000000E+00 0. -1.
         -1    1    4    4    0  501 -0.33982888450E+02  0.14884379984E+02  0.30814719949E+02  0.48227880323E+02  0.00000000000E+00 0.  1.
          5    1    3    3  502    0 -0.59356588294E+02  0.26405088139E+02  0.37650842438E+02  0.75233697170E+02  0.47000000000E+01 0. -1.
         13    1    6    6    0    0  0.52688401503E+02 -0.13571185498E+02  0.93655398966E+02  0.10831241150E+03  0.00000000000E+00 0. -1.
        -14    1    6    6    0    0  0.70979655274E+01  0.23086980762E+02  0.22184574274E+03  0.22315672377E+03  0.00000000000E+00 0.  1.
         -5    1    5    5    0  503 -0.33272038036E+02 -0.47846480907E+02  0.49139754059E+03  0.49486356417E+03  0.47000000000E+01 0.  1.
<mgrwt>
<rscale>  2 0.18019208E+03</rscale>
<asrwt>0</asrwt>
<pdfrwt beam="1">  1       21 0.16055001E+00 0.18087527E+03</pdfrwt>
<pdfrwt beam="2">  1       21 0.70390972E-02 0.18087527E+03</pdfrwt>
<totfact> 0.37632086E+04</totfact>
</mgrwt>
</event>
<event>
12    1  0.2762290E-001  0.2820053E+03  0.7546771E-02  0.1094762E+00
         21   -1    0    0  504  503  0.00000000000E+00  0.00000000000E+00  0.12637368453E+04  0.12637368453E+04  0.00000000000E+00 0.  1.
         21   -1    0    0  502  504 -0.00000000000E+00 -0.00000000000E+00 -0.95726258052E+02  0.95726258052E+02  0.00000000000E+00 0.  1.
          6    2    1    2  502    0 -0.20296710740E+03 -0.91900720594E+02  0.18369536420E+03  0.33554736050E+03  0.17089954705E+03 0.  0.
         24    2    3    3    0    0 -0.10338639179E+03  0.12838494057E+02  0.11660153062E+03  0.17614129252E+03  0.81094173953E+02 0.  0.
         -6    2    1    2    0  503  0.20296710740E+03  0.91900720594E+02  0.98431522306E+03  0.10239157429E+04  0.17287452387E+03 0.  0.
        -24    2    5    5    0    0  0.93759302615E+02 -0.26518476434E+01  0.61306526066E+03  0.62552503342E+03  0.81453756749E+02 0.  0.
          2    1    4    4  501    0 -0.65866780948E+02  0.43292916531E+02  0.48194280242E+02  0.92387218284E+02  0.00000000000E+00 0. -1.
         -1    1    4    4    0  501 -0.37519610838E+02 -0.30454422474E+02  0.68407250383E+02  0.83754074233E+02  0.00000000000E+00 0.  1.
          5    1    3    3  502    0 -0.99580715610E+02 -0.10473921465E+03  0.67093833578E+02  0.15940606799E+03  0.47000000000E+01 0. -1.
         11    1    6    6    0    0  0.33709106175E+02 -0.10024368944E+02  0.63071418493E+02  0.72213541961E+02  0.00000000000E+00 0. -1.
        -12    1    6    6    0    0  0.60050196440E+02  0.73725213004E+01  0.54999384217E+03  0.55331149146E+03  0.00000000000E+00 0.  1.
         -5    1    5    5    0  503  0.10920780478E+03  0.94552568237E+02  0.37124996240E+03  0.39839070944E+03  0.47000000000E+01 0.  1.
<mgrwt>
<rscale>  2 0.28170323E+03</rscale>
<asrwt>0</asrwt>
<pdfrwt beam="1">  1       21 0.19442104E+00 0.28200530E+03</pdfrwt>
<pdfrwt beam="2">  1       21 0.14727118E-01 0.28200530E+03</pdfrwt>
<totfact> 0.55307689E+03</totfact>
</mgrwt>
</event>
<event>
12    1  0.2762290E-001  0.2783414E+03  0.7546771E-02  0.1096617E+00
         21   -1    0    0  504  503  0.00000000000E+00  0.00000000000E+00  0.35538994328E+03  0.35538994328E+03  0.00000000000E+00 0.  1.
         21   -1    0    0  502  504 -0.00000000000E+00 -0.00000000000E+00 -0.31043361144E+03  0.31043361144E+03  0.00000000000E+00 0. -1.
          6    2    1    2  502    0  0.15964138679E+03  0.14846713102E+03  0.20424443429E+03  0.34512641221E+03  0.17282531672E+03 0.  0.
         24    2    3    3    0    0  0.15617496406E+03  0.17647434462E+03  0.19152914799E+03  0.31381844827E+03  0.79150427896E+02 0.  0.
         -6    2    1    2    0  503 -0.15964138679E+03 -0.14846713102E+03 -0.15928810245E+03  0.32069714251E+03  0.17304940411E+03 0.  0.
        -24    2    5    5    0    0 -0.18386196988E+03 -0.11560137451E+03 -0.10854391637E+03  0.25539892648E+03  0.79233377495E+02 0.  0.
          2    1    4    4  501    0  0.15454083359E+02  0.30165858474E+02  0.68556136264E+02  0.76477130761E+02  0.00000000000E+00 0. -1.
         -1    1    4    4    0  501  0.14072088070E+03  0.14630848615E+03  0.12297301172E+03  0.23734131751E+03  0.00000000000E+00 0.  1.
          5    1    3    3  502    0  0.34664227303E+01 -0.28007213604E+02  0.12715286303E+02  0.31307963942E+02  0.47000000000E+01 0. -1.
         13    1    6    6    0    0 -0.17325682885E+03 -0.85951802564E+02 -0.11236739914E+03  0.22367850477E+03  0.00000000000E+00 0. -1.
        -14    1    6    6    0    0 -0.10605141026E+02 -0.29649571941E+02  0.38234827721E+01  0.31720421703E+02  0.00000000000E+00 0.  1.
         -5    1    5    5    0  503  0.24220583088E+02 -0.32865756511E+02 -0.50744186087E+02  0.65298216038E+02  0.47000000000E+01 0.  1.
<mgrwt>
<rscale>  2 0.27830662E+03</rscale>
<asrwt>0</asrwt>
<pdfrwt beam="1">  1       21 0.54675376E-01 0.27834144E+03</pdfrwt>
<pdfrwt beam="2">  1       21 0.47759017E-01 0.27834144E+03</pdfrwt>
<totfact> 0.12615536E+04</totfact>
</mgrwt>
</event>
<event>
12    1  0.2762290E-001  0.2103495E+03  0.7546771E-02  0.1143977E+00
         21   -1    0    0  504  503  0.00000000000E+00  0.00000000000E+00  0.80248992112E+03  0.80248992112E+03  0.00000000000E+00 0.  1.
         21   -1    0    0  502  504 -0.00000000000E+00 -0.00000000000E+00 -0.52910551549E+02  0.52910551549E+02  0.00000000000E+00 0.  1.
          6    2    1    2  502    0  0.11913058942E+03  0.51763344609E+01  0.32317528599E+03  0.38560237534E+03  0.17328599084E+03 0.  0.
         24    2    3    3    0    0  0.49117098353E+02 -0.12450448502E+02  0.61164461937E+02  0.11378560925E+03  0.81477422943E+02 0.  0.
         -6    2    1    2    0  503 -0.11913058942E+03 -0.51763344609E+01  0.42640408358E+03  0.46979809733E+03  0.15706978698E+03 0.  0.
        -24    2    5    5    0    0 -0.73549710018E+02 -0.23873170481E+02  0.14148679155E+03  0.18061451974E+03  0.81385529710E+02 0.  0.
          4    1    4    4  501    0 -0.49834837643E+01 -0.29270920770E+02 -0.95888872588E+00  0.29707598030E+02  0.00000000000E+00 0. -1.
         -3    1    4    4    0  501  0.54100582117E+02  0.16820472268E+02  0.62123350663E+02  0.84078011218E+02  0.00000000000E+00 0.  1.
          5    1    3    3  502    0  0.70013491072E+02  0.17626782963E+02  0.26201082405E+03  0.27181676609E+03  0.47000000000E+01 0. -1.
         11    1    6    6    0    0  0.67427688659E+00  0.34195716851E+01 -0.95282087610E+01  0.10145682925E+02  0.00000000000E+00 0. -1.
        -12    1    6    6    0    0 -0.74223986905E+02 -0.27292742166E+02  0.15101500031E+03  0.17046883682E+03  0.00000000000E+00 0.  1.
         -5    1    5    5    0  503 -0.45580879406E+02  0.18696836020E+02  0.28491729204E+03  0.28918357759E+03  0.47000000000E+01 0.  1.
<mgrwt>
<rscale>  2 0.20698346E+03</rscale>
<asrwt>0</asrwt>
<pdfrwt beam="1">  1       21 0.12345998E+00 0.21034953E+03</pdfrwt>
<pdfrwt beam="2">  1       21 0.81400854E-02 0.21034953E+03</pdfrwt>
<totfact> 0.56767275E+04</totfact>
</mgrwt>
</event>
<event>
12    1  0.2762290E-001  0.1864311E+03  0.7546771E-02  0.1161908E+00
         21   -1    0    0  504  503  0.00000000000E+00  0.00000000000E+00  0.12884647520E+04  0.12884647520E+04  0.00000000000E+00 0. -1.
         21   -1    0    0  502  504 -0.00000000000E+00 -0.00000000000E+00 -0.29621862807E+02  0.29621862807E+02  0.00000000000E+00 0.  1.
          6    2    1    2  502    0 -0.44131197528E+02  0.54987040758E+02  0.42685336955E+03  0.46546529033E+03  0.17170614479E+03 0.  0.
         24    2    3    3    0    0 -0.61364121705E+02  0.13285650478E+02  0.12942663799E+03  0.16459865829E+03  0.79996248344E+02 0.  0.
         -6    2    1    2    0  503  0.44131197528E+02 -0.54987040758E+02  0.83198951960E+03  0.85262132443E+03  0.17258454423E+03 0.  0.
        -24    2    5    5    0    0  0.45775265440E+02 -0.75815493054E+02  0.81885224332E+03  0.82749752272E+03  0.79936160816E+02 0.  0.
          2    1    4    4  501    0 -0.51641001471E+02  0.96593151000E+01  0.14015170737E+03  0.14967496945E+03  0.00000000000E+00 0. -1.
         -1    1    4    4    0  501 -0.97231202342E+01  0.36263353785E+01 -0.10725069382E+02  0.14923688841E+02  0.00000000000E+00 0.  1.
          5    1    3    3  502    0  0.17232924177E+02  0.41701390279E+02  0.29742673156E+03  0.30086663204E+03  0.47000000000E+01 0. -1.
         11    1    6    6    0    0 -0.22425455409E+01 -0.34824448106E+02  0.10069382759E+03  0.10656931130E+03  0.00000000000E+00 0. -1.
        -12    1    6    6    0    0  0.48017810981E+02 -0.40991044948E+02  0.71815841574E+03  0.72092821143E+03  0.00000000000E+00 0.  1.
         -5    1    5    5    0  503 -0.16440679117E+01  0.20828452297E+02  0.13137276277E+02  0.25123801709E+02  0.47000000000E+01 0.  1.
<mgrwt>
<rscale>  2 0.18622757E+03</rscale>
<asrwt>0</asrwt>
<pdfrwt beam="1">  1       21 0.19822530E+00 0.18643112E+03</pdfrwt>
<pdfrwt beam="2">  1       21 0.45572106E-02 0.18643112E+03</pdfrwt>
<totfact> 0.43555942E+04</totfact>
</mgrwt>
</event>
<event>
12    1  0.2762290E-001  0.1913349E+03  0.7546771E-02  0.1157447E+00
         21   -1    0    0  504  503  0.00000000000E+00  0.00000000000E+00  0.14401237479E+03  0.14401237479E+03  0.00000000000E+00 0.  1.
         21   -1    0    0  502  504 -0.00000000000E+00 -0.00000000000E+00 -0.28725933721E+03  0.28725933721E+03  0.00000000000E+00 0.  1.
          6    2    1    2  502    0 -0.73281625086E+02 -0.32101984462E+02 -0.14610205200E+03  0.24073812360E+03  0.17380535254E+03 0.  0.
         24    2    3    3    0    0 -0.88225811182E+02  0.18112966387E+02 -0.49508347975E+02  0.13075038044E+03  0.80825195063E+02 0.  0.
         -6    2    1    2    0  503  0.73281625086E+02  0.32101984462E+02  0.28550895778E+01  0.19053358840E+03  0.17289928510E+03 0.  0.
        -24    2    5    5    0    0  0.83661647979E+01 -0.41260232026E+02  0.14526595460E+02  0.91769496532E+02  0.80238513556E+02 0.  0.
          2    1    4    4  501    0 -0.24800267671E+02  0.23823848274E+02 -0.57060204605E+02  0.66622038191E+02  0.00000000000E+00 0. -1.
         -1    1    4    4    0  501 -0.63425543511E+02 -0.57108818870E+01  0.75518566300E+01  0.64128342254E+02  0.00000000000E+00 0.  1.
          5    1    3    3  502    0  0.14944186097E+02 -0.50214950849E+02 -0.96593704022E+02  0.10998774315E+03  0.47000000000E+01 0. -1.
         13    1    6    6    0    0  0.33225326015E+02 -0.53243357291E+02  0.13251554767E+02  0.64143441505E+02  0.00000000000E+00 0. -1.
        -14    1    6    6    0    0 -0.24859161217E+02  0.11983125265E+02  0.12750406935E+01  0.27626055026E+02  0.00000000000E+00 0.  1.
         -5    1    5    5    0  503  0.64915460288E+02  0.73362216488E+02 -0.11671505882E+02  0.98764091865E+02  0.47000000000E+01 0.  1.
<mgrwt>
<rscale>  2 0.19112887E+03</rscale>
<asrwt>0</asrwt>
<pdfrwt beam="1">  1       21 0.22155750E-01 0.19133488E+03</pdfrwt>
<pdfrwt beam="2">  1       21 0.44193744E-01 0.19133488E+03</pdfrwt>
<totfact> 0.93723580E+04</totfact>
</mgrwt>
</event>
<event>
12    1  0.2762290E-001  0.2565694E+03  0.7546771E-02  0.1109347E+00
         21   -1    0    0  504  503  0.00000000000E+00  0.00000000000E+00  0.64628209648E+03  0.64628209648E+03  0.00000000000E+00 0.  1.
         21   -1    0    0  502  504 -0.00000000000E+00 -0.00000000000E+00 -0.10215233119E+03  0.10215233119E+03  0.00000000000E+00 0. -1.
          6    2    1    2  502    0 -0.61836329156E+02  0.17877029016E+03  0.30078500517E+03  0.39481808940E+03  0.17212540817E+03 0.  0.
         24    2    3    3    0    0  0.79326927656E+01  0.75215132400E+02  0.22342013820E+03  0.24785278819E+03  0.76119660435E+02 0.  0.
         -6    2    1    2    0  503  0.61836329156E+02 -0.17877029016E+03  0.24334476013E+03  0.35361633828E+03  0.17333578444E+03 0.  0.
        -24    2    5    5    0    0  0.30005035714E+02 -0.19114850185E+03  0.16143321171E+03  0.26474540303E+03  0.81187404533E+02 0.  0.
          4    1    4    4  501    0 -0.16065164035E+02 -0.91139259183E+01  0.54315244227E+02  0.57369843093E+02  0.00000000000E+00 0. -1.
         -3    1    4    4    0  501  0.23997856800E+02  0.84329058318E+02  0.16910489397E+03  0.19048294510E+03  0.00000000000E+00 0.  1.
          5    1    3    3  502    0 -0.69769021922E+02  0.10355515776E+03  0.77364866968E+02  0.14696530121E+03  0.47000000000E+01 0. -1.
         13    1    6    6    0    0  0.39120991585E+02 -0.74457600468E+02  0.10577430309E+03  0.13513914845E+03  0.00000000000E+00 0. -1.
        -14    1    6    6    0    0 -0.91159558712E+01 -0.11669090139E+03  0.55658908619E+02  0.12960625458E+03  0.00000000000E+00 0.  1.
         -5    1    5    5    0  503  0.31831293443E+02  0.12378211695E+02  0.81911548418E+02  0.88870935245E+02  0.47000000000E+01 0.  1.
<mgrwt>
<rscale>  2 0.25636509E+03</rscale>
<asrwt>0</asrwt>
<pdfrwt beam="1">  1       21 0.99428013E-01 0.25656937E+03</pdfrwt>
<pdfrwt beam="2">  1       21 0.15715744E-01 0.25656937E+03</pdfrwt>
<totfact> 0.29009696E+04</totfact>
</mgrwt>
</event>
<event>
12    1  0.2762290E-001  0.1886107E+03  0.7546771E-02  0.1160107E+00
         21   -1    0    0  504  503  0.00000000000E+00  0.00000000000E+00  0.14798524966E+04  0.14798524966E+04  0.00000000000E+00 0.  1.
         21   -1    0    0  502  504 -0.00000000000E+00 -0.00000000000E+00 -0.24207894784E+02  0.24207894784E+02  0.00000000000E+00 0. -1.
          6    2    1    2  502    0  0.63676763886E+02  0.32848735911E+02  0.63631374303E+03  0.66367852699E+03  0.17447130971E+03 0.  0.
         24    2    3    3    0    0  0.72080103329E+02  0.24955250582E+02  0.64094235064E+03  0.65039555922E+03  0.79931100178E+02 0.  0.
         -6    2    1    2    0  503 -0.63676763886E+02 -0.32848735911E+02  0.81933085876E+03  0.84038186436E+03  0.17264081825E+03 0.  0.
        -24    2    5    5    0    0 -0.97601750633E+02  0.15341445425E+02  0.63637290162E+03  0.64810887514E+03  0.72891580095E+02 0.  0.
          2    1    4    4  501    0  0.59348514742E+02  0.34252808001E+02  0.25248331773E+03  0.26161675556E+03  0.00000000000E+00 0. -1.
         -1    1    4    4    0  501  0.12731588587E+02 -0.92975574188E+01  0.38845903291E+03  0.38877880366E+03  0.00000000000E+00 0.  1.
          5    1    3    3  502    0 -0.84033394427E+01  0.78934853293E+01 -0.46286076141E+01  0.13282967774E+02  0.47000000000E+01 0. -1.
         13    1    6    6    0    0 -0.86426813289E+02 -0.66508518027E+01  0.34611019941E+03  0.35679980104E+03  0.00000000000E+00 0. -1.
        -14    1    6    6    0    0 -0.11174937344E+02  0.21992297228E+02  0.29026270220E+03  0.29130907410E+03  0.00000000000E+00 0.  1.
         -5    1    5    5    0  503  0.33924986748E+02 -0.48190181337E+02  0.18295795714E+03  0.19227298922E+03  0.47000000000E+01 0.  1.
<mgrwt>
<rscale>  2 0.18818631E+03</rscale>
<asrwt>0</asrwt>
<pdfrwt beam="1">  1       21 0.22766954E+00 0.18861073E+03</pdfrwt>
<pdfrwt beam="2">  1       21 0.37242927E-02 0.18861073E+03</pdfrwt>
<totfact> 0.40013301E+04</totfact>
</mgrwt>
</event>
<event>
12    1  0.2762290E-001  0.1810225E+03  0.7546771E-02  0.1167372E+00
         21   -1    0    0  504  503  0.00000000000E+00  0.00000000000E+00  0.10303504248E+04  0.10303504248E+04  0.00000000000E+00 0.  1.
         21   -1    0    0  502  504 -0.00000000000E+00 -0.00000000000E+00 -0.58996934222E+02  0.58996934222E+02  0.00000000000E+00 0.  1.
          6    2    1    2  502    0 -0.43340204260E+02 -0.83461737606E+01  0.11482058825E+03  0.21436632491E+03  0.17555945389E+03 0.  0.
         24    2    3    3    0    0 -0.11952191515E+02  0.57834110597E+02  0.98081624409E+02  0.13908471832E+03  0.78974138752E+02 0.  0.
         -6    2    1    2    0  503  0.43340204260E+02  0.83461737606E+01  0.85653290233E+03  0.87498103411E+03  0.17319112378E+03 0.  0.
        -24    2    5    5    0    0  0.25316599407E+02 -0.20892496792E+02  0.19686708030E+03  0.21440489395E+03  0.78328696005E+02 0.  0.
          4    1    4    4  501    0  0.20452211682E+02 -0.36192290058E+01  0.24967993309E+01  0.20919507360E+02  0.00000000000E+00 0. -1.
         -3    1    4    4    0  501 -0.32404403197E+02  0.61453339603E+02  0.95584825078E+02  0.11816521096E+03  0.00000000000E+00 0.  1.
          5    1    3    3  502    0 -0.31388012745E+02 -0.66180284358E+02  0.16738963841E+02  0.75281606600E+02  0.47000000000E+01 0. -1.
         13    1    6    6    0    0 -0.81063969787E+01 -0.42878218186E+02  0.84021024647E+02  0.94677282648E+02  0.00000000000E+00 0. -1.
        -14    1    6    6    0    0  0.33422996386E+02  0.21985721395E+02  0.11284605565E+03  0.11972761130E+03  0.00000000000E+00 0.  1.
         -5    1    5    5    0  503  0.18023604853E+02  0.29238670552E+02  0.65966582203E+03  0.66057614015E+03  0.47000000000E+01 0.  1.
<mgrwt>
<rscale>  2 0.18044579E+03</rscale>
<asrwt>0</asrwt>
<pdfrwt beam="1">  1       21 0.15851544E+00 0.18102252E+03</pdfrwt>
<pdfrwt beam="2">  1       21 0.90764522E-02 0.18102252E+03</pdfrwt>
<totfact> 0.25031749E+04</totfact>
</mgrwt>
</event>
<event>
12    1  0.2762290E-001  0.3246768E+03  0.7546771E-02  0.1073866E+00
         21   -1    0    0  504  503  0.00000000000E+00  0.00000000000E+00  0.54166330358E+03  0.54166330358E+03  0.00000000000E+00 0. -1.
         21   -1    0    0  502  504 -0.00000000000E+00 -0.00000000000E+00 -0.19364198451E+03  0.19364198451E+03  0.00000000000E+00 0. -1.
          6    2    1    2  502    0  0.24782546644E+03 -0.10914034510E+03  0.19945667915E+03  0.38104851554E+03  0.17912545212E+03 0.  0.
         24    2    3    3    0    0  0.15488552364E+03 -0.60679142503E+02  0.38523105907E+02  0.18893389840E+03  0.80873385653E+02 0.  0.
         -6    2    1    2    0  503 -0.24782546644E+03  0.10914034510E+03  0.14856463993E+03  0.35425677254E+03  0.17348582626E+03 0.  0.
        -24    2    5    5    0    0 -0.18737258161E+03  0.14606244217E+03  0.11714510588E+03  0.27662256839E+03  0.79714165342E+02 0.  0.
          2    1    4    4  501    0  0.71683096834E+02 -0.70529010132E+02  0.28692839360E+02  0.10457574610E+03  0.00000000000E+00 0. -1.
         -1    1    4    4    0  501  0.83202426805E+02  0.98498676289E+01  0.98302665471E+01  0.84358152297E+02  0.00000000000E+00 0.  1.
          5    1    3    3  502    0  0.92939942798E+02 -0.48461202595E+02  0.16093357324E+03  0.19211461714E+03  0.47000000000E+01 0. -1.
         11    1    6    6    0    0 -0.14607267020E+03  0.83038309319E+02  0.48991410740E+02  0.17502212466E+03  0.00000000000E+00 0. -1.
        -12    1    6    6    0    0 -0.41299911413E+02  0.63024132849E+02  0.68153695142E+02  0.10160044373E+03  0.00000000000E+00 0.  1.
         -5    1    5    5    0  503 -0.60452884826E+02 -0.36922097070E+02  0.31419534044E+02  0.77634204158E+02  0.47000000000E+01 0.  1.
<mgrwt>
<rscale>  2 0.32390477E+03</rscale>
<asrwt>0</asrwt>
<pdfrwt beam="1">  1       21 0.83332815E-01 0.32467677E+03</pdfrwt>
<pdfrwt beam="2">  1       21 0.29791075E-01 0.32467677E+03</pdfrwt>
<totfact> 0.12642455E+04</totfact>
</mgrwt>
</event>
<event>
12    1  0.2762290E-001  0.1988818E+03  0.7546771E-02  0.1150856E+00
         21   -1    0    0  504  503  0.00000000000E+00  0.00000000000E+00  0.11419901445E+04  0.11419901445E+04  0.00000000000E+00 0.  1.
         21   -1    0    0  502  504 -0.00000000000E+00 -0.00000000000E+00 -0.46441616040E+02  0.46441616040E+02  0.00000000000E+00 0.  1.
          6    2    1    2  502    0 -0.30102868477E+02  0.91298344311E+02  0.24560046429E+03  0.31552530017E+03  0.17319080988E+03 0.  0.
         24    2    3    3    0    0  0.44083603035E+02  0.72306762162E+02  0.18091752887E+03  0.21517449110E+03  0.79982982282E+02 0.  0.
         -6    2    1    2    0  503  0.30102868477E+02 -0.91298344311E+02  0.84994806413E+03  0.87290646033E+03  0.17410458465E+03 0.  0.
        -24    2    5    5    0    0 -0.41649956263E+02 -0.14956028760E+02  0.45832722904E+03  0.46748620247E+03  0.80753321724E+02 0.  0.
          4    1    4    4  501    0  0.41058712481E+02  0.53227910059E+02  0.52454597061E+02  0.85267303421E+02  0.00000000000E+00 0. -1.
         -3    1    4    4    0  501  0.30248905546E+01  0.19078852104E+02  0.12846293181E+03  0.12990718768E+03  0.00000000000E+00 0.  1.
          5    1    3    3  502    0 -0.74186471512E+02  0.18991582148E+02  0.64682935414E+02  0.10035080907E+03  0.47000000000E+01 0. -1.
         13    1    6    6    0    0 -0.52920776824E+02 -0.27230222009E+02  0.20115637467E+03  0.20977602504E+03  0.00000000000E+00 0. -1.
        -14    1    6    6    0    0  0.11270820561E+02  0.12274193248E+02  0.25717085437E+03  0.25771017743E+03  0.00000000000E+00 0.  1.
         -5    1    5    5    0  503  0.71752824740E+02 -0.76342315550E+02  0.39162083510E+03  0.40542025786E+03  0.47000000000E+01 0.  1.
<mgrwt>
<rscale>  2 0.19868165E+03</rscale>
<asrwt>0</asrwt>
<pdfrwt beam="1">  1       21 0.17569077E+00 0.19888182E+03</pdfrwt>
<pdfrwt beam="2">  1       21 0.71448649E-02 0.19888182E+03</pdfrwt>
<totfact> 0.28317833E+04</totfact>
</mgrwt>
</event>
<event>
12    1  0.2762290E-001  0.2685198E+03  0.7546771E-02  0.1102590E+00
         21   -1    0    0  504  503  0.00000000000E+00  0.00000000000E+00  0.69561568645E+03  0.69561568645E+03  0.00000000000E+00 0.  1.
         21   -1    0    0  502  504 -0.00000000000E+00 -0.00000000000E+00 -0.57932365487E+03  0.57932365487E+03  0.00000000000E+00 0. -1.
          6    2    1    2  502    0  0.20220810561E+03 -0.34331007771E+02 -0.52028710389E+03  0.58404436390E+03  0.16835204916E+03 0.  0.
         24    2    3    3    0    0  0.17976050110E+03  0.26267954805E+02 -0.40631565121E+03  0.45294245224E+03  0.84027456350E+02 0.  0.
         -6    2    1    2    0  503 -0.20220810561E+03  0.34331007771E+02  0.63657913547E+03  0.69089497742E+03  0.17330937091E+03 0.  0.
        -24    2    5    5    0    0 -0.70885631640E+02 -0.32328985885E+02  0.19482432481E+03  0.22521423951E+03  0.81822979894E+02 0.  0.
          4    1    4    4  501    0  0.15809328405E+03  0.38786409451E+02 -0.39117969993E+03  0.42369733260E+03  0.00000000000E+00 0. -1.
         -3    1    4    4    0  501  0.21667217054E+02 -0.12518454646E+02 -0.15135951281E+02  0.29245119640E+02  0.00000000000E+00 0.  1.
          5    1    3    3  502    0  0.22447604510E+02 -0.60598962576E+02 -0.11397145268E+03  0.13110191166E+03  0.47000000000E+01 0. -1.
         11    1    6    6    0    0 -0.30542271941E+02  0.26594951821E+02  0.56127156985E+02  0.69212568143E+02  0.00000000000E+00 0. -1.
        -12    1    6    6    0    0 -0.40343359699E+02 -0.58923937706E+02  0.13869716782E+03  0.15600167137E+03  0.00000000000E+00 0.  1.
         -5    1    5    5    0  503 -0.13132247397E+03  0.66659993656E+02  0.44175481066E+03  0.46568073791E+03  0.47000000000E+01 0.  1.
<mgrwt>
<rscale>  2 0.26772310E+03</rscale>
<asrwt>0</asrwt>
<pdfrwt beam="1">  1       21 0.10701780E+00 0.26851978E+03</pdfrwt>
<pdfrwt beam="2">  1       21 0.89126716E-01 0.26851978E+03</pdfrwt>
<totfact> 0.70004869E+02</totfact>
</mgrwt>
</event>
<event>
12    1  0.2762290E-001  0.3256445E+03  0.7546771E-02  0.1073303E+00
         21   -1    0    0  504  503  0.00000000000E+00  0.00000000000E+00  0.10161151752E+04  0.10161151752E+04  0.00000000000E+00 0. -1.
         21   -1    0    0  502  504 -0.00000000000E+00 -0.00000000000E+00 -0.11316923648E+03  0.11316923648E+03  0.00000000000E+00 0. -1.
          6    2    1    2  502    0 -0.26119803474E+03 -0.89489716491E+02  0.28967698105E+03  0.43584070366E+03  0.17266019491E+03 0.  0.
         24    2    3    3    0    0 -0.11461341699E+03  0.11660140996E+01  0.19234893957E+03  0.23784992280E+03  0.80230145685E+02 0.  0.
         -6    2    1    2    0  503  0.26119803474E+03  0.89489716491E+02  0.61326895765E+03  0.69344370800E+03  0.16891577498E+03 0.  0.
        -24    2    5    5    0    0  0.22933937682E+03  0.10575442155E+03  0.41880210244E+03  0.49565856576E+03  0.80632904977E+02 0.  0.
          4    1    4    4  501    0 -0.11508684912E+03 -0.21002456415E+02  0.17003132774E+03  0.20638977307E+03  0.00000000000E+00 0. -1.
         -3    1    4    4    0  501  0.47343212519E+00  0.22168470514E+02  0.22317611832E+02  0.31460149726E+02  0.00000000000E+00 0.  1.
          5    1    3    3  502    0 -0.14658461775E+03 -0.90655730591E+02  0.97328041484E+02  0.19799078087E+03  0.47000000000E+01 0. -1.
         11    1    6    6    0    0  0.77684073469E+02  0.12330278319E+02  0.19043725418E+03  0.20604174046E+03  0.00000000000E+00 0. -1.
        -12    1    6    6    0    0  0.15165530335E+03  0.93424143235E+02  0.22836484826E+03  0.28961682530E+03  0.00000000000E+00 0.  1.
         -5    1    5    5    0  503  0.31858657918E+02 -0.16264705063E+02  0.19446685521E+03  0.19778514224E+03  0.47000000000E+01 0.  1.
<mgrwt>
<rscale>  2 0.32515098E+03</rscale>
<asrwt>0</asrwt>
<pdfrwt beam="1">  1       21 0.15632540E+00 0.32564454E+03</pdfrwt>
<pdfrwt beam="2">  1       21 0.17410653E-01 0.32564454E+03</pdfrwt>
<totfact> 0.73626817E+03</totfact>
</mgrwt>
</event>
<event>
12    1  0.2762290E-001  0.1857484E+03  0.7546771E-02  0.1162500E+00
         21   -1    0    0  504  503  0.00000000000E+00  0.00000000000E+00  0.70541564421E+02  0.70541564421E+02  0.00000000000E+00 0.  1.
         21   -1    0    0  502  504 -0.00000000000E+00 -0.00000000000E+00 -0.85869484776E+03  0.85869484776E+03  0.00000000000E+00 0. -1.
          6    2    1    2  502    0 -0.28368263729E+02 -0.59692671897E+02 -0.69919402707E+03  0.72328440250E+03  0.17291635532E+03 0.  0.
         24    2    3    3    0    0  0.27712816442E+02  0.21739262508E+02 -0.32248545536E+03  0.33378769456E+03  0.78592368527E+02 0.  0.
         -6    2    1    2    0  503  0.28368263729E+02  0.59692671897E+02 -0.88959256266E+02  0.20595200968E+03  0.17359293635E+03 0.  0.
        -24    2    5    5    0    0  0.43012863220E+02  0.67281136271E+02 -0.12339983338E+03  0.16747744097E+03  0.80276501263E+02 0.  0.
          2    1    4    4  501    0  0.24926380060E+02 -0.26090289513E+02 -0.17618408982E+03  0.17984121089E+03  0.00000000000E+00 0. -1.
         -1    1    4    4    0  501  0.27864363818E+01  0.47829552021E+02 -0.14630136554E+03  0.15394648367E+03  0.00000000000E+00 0.  1.
          5    1    3    3  502    0 -0.56081080170E+02 -0.81431934405E+02 -0.37670857172E+03  0.38949670794E+03  0.47000000000E+01 0. -1.
         11    1    6    6    0    0  0.53760749310E+01 -0.17636511485E+02 -0.33352362788E+02  0.38109432199E+02  0.00000000000E+00 0. -1.
        -12    1    6    6    0    0  0.37636788289E+02  0.84917647756E+02 -0.90047470591E+02  0.12936800877E+03  0.00000000000E+00 0.  1.
         -5    1    5    5    0  503 -0.14644599492E+02 -0.75884643744E+01  0.34440577114E+02  0.38474568714E+02  0.47000000000E+01 0.  1.
<mgrwt>
<rscale>  2 0.18559020E+03</rscale>
<asrwt>0</asrwt>
<pdfrwt beam="1">  1       21 0.10852549E-01 0.18574843E+03</pdfrwt>
<pdfrwt beam="2">  1       21 0.13210689E+00 0.18574843E+03</pdfrwt>
<totfact> 0.29255139E+04</totfact>
</mgrwt>
</event>
<event>
12    1  0.2762290E-001  0.1929311E+03  0.7546771E-02  0.1156359E+00
         21   -1    0    0  504  503  0.00000000000E+00  0.00000000000E+00  0.67919778768E+02  0.67919778768E+02  0.00000000000E+00 0.  1.
         21   -1    0    0  502  504 -0.00000000000E+00 -0.00000000000E+00 -0.94533655012E+03  0.94533655012E+03  0.00000000000E+00 0.  1.
          6    2    1    2  502    0 -0.69937007331E+02  0.42809035293E+02 -0.76832763825E+03  0.79161962053E+03  0.17207691714E+03 0.  0.
         24    2    3    3    0    0 -0.18356891898E+02  0.85311358095E+02 -0.57228199799E+03  0.58444110133E+03  0.80310101508E+02 0.  0.
         -6    2    1    2    0  503  0.69937007331E+02 -0.42809035293E+02 -0.10908913310E+03  0.22163670836E+03  0.17463846379E+03 0.  0.
        -24    2    5    5    0    0  0.67567586734E+02  0.29707447530E+02 -0.10544093897E+03  0.14883798752E+03  0.74746529711E+02 0.  0.
          2    1    4    4  501    0  0.35391510205E+01  0.71026322851E+02 -0.52985408937E+03  0.53460510674E+03  0.00000000000E+00 0. -1.
         -1    1    4    4    0  501 -0.21896042919E+02  0.14285035244E+02 -0.42427908614E+02  0.49835994590E+02  0.00000000000E+00 0.  1.
          5    1    3    3  502    0 -0.51580115432E+02 -0.42502322802E+02 -0.19604564026E+03  0.20717851920E+03  0.47000000000E+01 0. -1.
         11    1    6    6    0    0  0.21169626774E+02  0.49783758113E+02 -0.60930374355E+02  0.81480587802E+02  0.00000000000E+00 0. -1.
        -12    1    6    6    0    0  0.46397959961E+02 -0.20076310582E+02 -0.44510564611E+02  0.67357399720E+02  0.00000000000E+00 0.  1.
         -5    1    5    5    0  503  0.23694205961E+01 -0.72516482823E+02 -0.36481941372E+01  0.72798720836E+02  0.47000000000E+01 0.  1.
<mgrwt>
<rscale>  2 0.19234954E+03</rscale>
<asrwt>0</asrwt>
<pdfrwt beam="1">  1       21 0.10449197E-01 0.19293105E+03</pdfrwt>
<pdfrwt beam="2">  1       21 0.14543639E+00 0.19293105E+03</pdfrwt>
<totfact> 0.24330172E+04</totfact>
</mgrwt>
</event>
<event>
12    1  0.2762290E-001  0.3394780E+03  0.7546771E-02  0.1067164E+00
         21   -1    0    0  504  503  0.00000000000E+00  0.00000000000E+00  0.61871428649E+03  0.61871428649E+03  0.00000000000E+00 0.  1.
         21   -1    0    0  502  504 -0.00000000000E+00 -0.00000000000E+00 -0.19243677217E+03  0.19243677217E+03  0.00000000000E+00 0.  1.
          6    2    1    2  502    0  0.17155971026E+03  0.23678872451E+03  0.13582388035E+03  0.36437521456E+03  0.16976317703E+03 0.  0.
         24    2    3    3    0    0  0.51491089481E+02  0.10184548841E+03  0.13236004520E+03  0.18365377472E+03  0.56441931210E+02 0.  0.
         -6    2    1    2    0  503 -0.17155971026E+03 -0.23678872451E+03  0.29045363398E+03  0.44677584410E+03  0.17246364005E+03 0.  0.
        -24    2    5    5    0    0 -0.48912699063E+02 -0.90805371584E+02  0.45144758768E+02  0.13604772670E+03  0.76373209025E+02 0.  0.
          2    1    4    4  501    0 -0.15694063602E+01  0.56654284518E+02  0.48360636886E+02  0.74504511210E+02  0.00000000000E+00 0. -1.
         -1    1    4    4    0  501  0.53060495841E+02  0.45191203893E+02  0.83999408312E+02  0.10914926351E+03  0.00000000000E+00 0.  1.
          5    1    3    3  502    0  0.12006862078E+03  0.13494323610E+03  0.34638351536E+01  0.18072143984E+03  0.47000000000E+01 0. -1.
         13    1    6    6    0    0 -0.20911725673E+02  0.10243676335E+02  0.11151536898E+02  0.25818403333E+02  0.00000000000E+00 0. -1.
        -14    1    6    6    0    0 -0.28000973391E+02 -0.10104904792E+03  0.33993221869E+02  0.11022932336E+03  0.00000000000E+00 0.  1.
         -5    1    5    5    0  503 -0.12264701119E+03 -0.14598335293E+03  0.24530887521E+03  0.31072811740E+03  0.47000000000E+01 0.  1.
<mgrwt>
<rscale>  2 0.33913655E+03</rscale>
<asrwt>0</asrwt>
<pdfrwt beam="1">  1       21 0.95186812E-01 0.33947804E+03</pdfrwt>
<pdfrwt beam="2">  1       21 0.29605658E-01 0.33947804E+03</pdfrwt>
<totfact> 0.93131708E+03</totfact>
</mgrwt>
</event>
<event>
12    1  0.2762290E-001  0.2277769E+03  0.7546771E-02  0.1128548E+00
         21   -1    0    0  504  503  0.00000000000E+00  0.00000000000E+00  0.11815995374E+03  0.11815995374E+03  0.00000000000E+00 0.  1.
         21   -1    0    0  502  504 -0.00000000000E+00 -0.00000000000E+00 -0.59540830394E+03  0.59540830394E+03  0.00000000000E+00 0. -1.
          6    2    1    2  502    0 -0.10997634986E+03  0.91874113905E+02 -0.54445058486E+02  0.23419349360E+03  0.17704993000E+03 0.  0.
         24    2    3    3    0    0 -0.13627526655E+03  0.51297895125E+02 -0.71273226877E+01  0.16637667658E+03  0.80174668463E+02 0.  0.
         -6    2    1    2    0  503  0.10997634986E+03 -0.91874113905E+02 -0.42280329171E+03  0.47937476408E+03  0.17464790471E+03 0.  0.
        -24    2    5    5    0    0  0.11042060109E+03 -0.35944671627E+02 -0.38906332087E+03  0.41388602074E+03  0.80290982993E+02 0.  0.
          2    1    4    4  501    0 -0.12292578484E+03  0.69722065611E+02 -0.15419163907E+02  0.14216070353E+03  0.00000000000E+00 0. -1.
         -1    1    4    4    0  501 -0.13349481707E+02 -0.18424170486E+02  0.82918412195E+01  0.24215973050E+02  0.00000000000E+00 0.  1.
          5    1    3    3  502    0  0.26298916687E+02  0.40576218780E+02 -0.47317735798E+02  0.67816817018E+02  0.47000000000E+01 0. -1.
         11    1    6    6    0    0  0.24265232779E+02  0.14579779344E+02 -0.17974003549E+03  0.18195563153E+03  0.00000000000E+00 0. -1.
        -12    1    6    6    0    0  0.86155368309E+02 -0.50524450971E+02 -0.20932328538E+03  0.23193038921E+03  0.00000000000E+00 0.  1.
         -5    1    5    5    0  503 -0.44425122335E+00 -0.55929442278E+02 -0.33739970842E+02  0.65488743346E+02  0.47000000000E+01 0.  1.
<mgrwt>
<rscale>  2 0.22730999E+03</rscale>
<asrwt>0</asrwt>
<pdfrwt beam="1">  1       21 0.18178454E-01 0.22777693E+03</pdfrwt>
<pdfrwt beam="2">  1       21 0.91601277E-01 0.22777693E+03</pdfrwt>
<totfact> 0.27267961E+04</totfact>
</mgrwt>
</event>
<event>
12    1  0.2762290E-001  0.1788955E+03  0.7546771E-02  0.1169243E+00
         21   -1    0    0  504  503  0.00000000000E+00  0.00000000000E+00  0.70463850115E+02  0.70463850115E+02  0.00000000000E+00 0.  1.
         21   -1    0    0  502  504 -0.00000000000E+00 -0.00000000000E+00 -0.21891925466E+04  0.21891925466E+04  0.00000000000E+00 0.  1.
          6    2    1    2  502    0 -0.74695216072E+01 -0.37360385922E+02 -0.20653675710E+04  0.20729721029E+04  0.17325860404E+03 0.  0.
         24    2    3    3    0    0 -0.27140862178E+02 -0.65887352670E+02 -0.78372463440E+03  0.79085219571E+03  0.78390836553E+02 0.  0.
         -6    2    1    2    0  503  0.74695216072E+01  0.37360385922E+02 -0.53361125512E+02  0.18668429384E+03  0.17479137182E+03 0.  0.
        -24    2    5    5    0    0 -0.63936794605E+02  0.38415376251E+02 -0.39958510855E+02  0.11387155403E+03  0.76199694161E+02 0.  0.
          4    1    4    4  501    0  0.66627494502E+01 -0.64378191946E+02 -0.35945144605E+03  0.36523182486E+03  0.00000000000E+00 0. -1.
         -3    1    4    4    0  501 -0.33803611628E+02 -0.15091607240E+01 -0.42427318835E+03  0.42562037085E+03  0.00000000000E+00 0.  1.
          5    1    3    3  502    0  0.19671340571E+02  0.28526966749E+02 -0.12816429366E+04  0.12821199072E+04  0.47000000000E+01 0. -1.
         11    1    6    6    0    0  0.13487524464E+01  0.39807435382E+02 -0.24514270277E+02  0.46769653538E+02  0.00000000000E+00 0. -1.
        -12    1    6    6    0    0 -0.65285547051E+02 -0.13920591305E+01 -0.15444240578E+02  0.67101900490E+02  0.00000000000E+00 0.  1.
         -5    1    5    5    0  503  0.71406316212E+02 -0.10549903296E+01 -0.13402614658E+02  0.72812739814E+02  0.47000000000E+01 0.  1.
<mgrwt>
<rscale>  2 0.17852004E+03</rscale>
<asrwt>0</asrwt>
<pdfrwt beam="1">  1       21 0.10840591E-01 0.17889554E+03</pdfrwt>
<pdfrwt beam="2">  1       21 0.33679891E+00 0.17889554E+03</pdfrwt>
<totfact> 0.14997773E+03</totfact>
</mgrwt>
</event>
<event>
12    1  0.2762290E-001  0.2123495E+03  0.7546771E-02  0.1140413E+00
         21   -1    0    0  504  503  0.00000000000E+00  0.00000000000E+00  0.48312534762E+03  0.48312534762E+03  0.00000000000E+00 0. -1.
         21   -1    0    0  502  504 -0.00000000000E+00 -0.00000000000E+00 -0.93612114689E+02  0.93612114689E+02  0.00000000000E+00 0.  1.
          6    2    1    2  502    0  0.25551055308E+02  0.11485116698E+03  0.15294840730E+03  0.25884558185E+03  0.17252296359E+03 0.  0.
         24    2    3    3    0    0  0.44637370735E+02  0.23555411543E+02  0.18961451950E+02  0.95524436248E+02  0.78854479780E+02 0.  0.
         -6    2    1    2    0  503 -0.25551055308E+02 -0.11485116698E+03  0.23656482563E+03  0.31789188046E+03  0.17677297292E+03 0.  0.
        -24    2    5    5    0    0 -0.85878790394E+02 -0.77908862857E+02  0.19869384655E+03  0.23751482832E+03  0.59068531921E+02 0.  0.
          2    1    4    4  501    0  0.66372751654E+02  0.21079463030E+02  0.22876564164E+02  0.73300907987E+02  0.00000000000E+00 0. -1.
         -1    1    4    4    0  501 -0.21735380919E+02  0.24759485127E+01 -0.39151122141E+01  0.22223528261E+02  0.00000000000E+00 0.  1.
          5    1    3    3  502    0 -0.19086315427E+02  0.91295755433E+02  0.13398695535E+03  0.16332114560E+03  0.47000000000E+01 0. -1.
         11    1    6    6    0    0 -0.62906990052E+02 -0.26272868763E+02  0.14172398801E+03  0.15726805717E+03  0.00000000000E+00 0. -1.
        -12    1    6    6    0    0 -0.22971800342E+02 -0.51635994094E+02  0.56969858548E+02  0.80246771150E+02  0.00000000000E+00 0.  1.
         -5    1    5    5    0  503  0.60327735086E+02 -0.36942304119E+02  0.37870979078E+02  0.80377052139E+02  0.47000000000E+01 0.  1.
<mgrwt>
<rscale>  2 0.21146284E+03</rscale>
<asrwt>0</asrwt>
<pdfrwt beam="1">  1       21 0.74326975E-01 0.21234955E+03</pdfrwt>
<pdfrwt beam="2">  1       21 0.14401864E-01 0.21234955E+03</pdfrwt>
<totfact> 0.67912314E+04</totfact>
</mgrwt>
</event>
<event>
12    1  0.2762290E-001  0.1956859E+03  0.7546771E-02  0.1153832E+00
         21   -1    0    0  504  503  0.00000000000E+00  0.00000000000E+00  0.21242466054E+02  0.21242466054E+02  0.00000000000E+00 0.  1.
         21   -1    0    0  502  504 -0.00000000000E+00 -0.00000000000E+00 -0.18692829071E+04  0.18692829071E+04  0.00000000000E+00 0.  1.
          6    2    1    2  502    0  0.77634030210E+02 -0.39177002749E+02 -0.11279836727E+04  0.11448319293E+04  0.17530288154E+03 0.  0.
         24    2    3    3    0    0 -0.24313296169E+02 -0.28879340531E+02 -0.41348919155E+03  0.42301217839E+03  0.80875452778E+02 0.  0.
         -6    2    1    2    0  503 -0.77634030210E+02  0.39177002749E+02 -0.72005676842E+03  0.74569344392E+03  0.17324861435E+03 0.  0.
        -24    2    5    5    0    0 -0.11607265565E+03  0.54577942366E+02 -0.53332703587E+03  0.55436963494E+03  0.80226876861E+02 0.  0.
          4    1    4    4  501    0 -0.48374803190E+02  0.96758117230E+00 -0.17967229344E+03  0.18607307927E+03  0.00000000000E+00 0. -1.
         -3    1    4    4    0  501  0.24061507020E+02 -0.29846921704E+02 -0.23381689810E+03  0.23693909912E+03  0.00000000000E+00 0.  1.
          5    1    3    3  502    0  0.10194732638E+03 -0.10297662217E+02 -0.71449448111E+03  0.72181975087E+03  0.47000000000E+01 0. -1.
         13    1    6    6    0    0 -0.28369114133E+02 -0.11678369074E+02 -0.49676984075E+02  0.58386588252E+02  0.00000000000E+00 0. -1.
        -14    1    6    6    0    0 -0.87703541517E+02  0.66256311441E+02 -0.48365005180E+03  0.49598304669E+03  0.00000000000E+00 0.  1.
         -5    1    5    5    0  503  0.38438625440E+02 -0.15400939618E+02 -0.18672973255E+03  0.19132380898E+03  0.47000000000E+01 0.  1.
<mgrwt>
<rscale>  2 0.19522476E+03</rscale>
<asrwt>0</asrwt>
<pdfrwt beam="1">  1       21 0.32680720E-02 0.19568592E+03</pdfrwt>
<pdfrwt beam="2">  1       21 0.28758196E+00 0.19568592E+03</pdfrwt>
<totfact> 0.22029897E+04</totfact>
</mgrwt>
</event>
<event>
12    1  0.2762290E-001  0.3294543E+03  0.7546771E-02  0.1071400E+00
         21   -1    0    0  504  503  0.00000000000E+00  0.00000000000E+00  0.66757899121E+02  0.66757899121E+02  0.00000000000E+00 0. -1.
         21   -1    0    0  502  504 -0.00000000000E+00 -0.00000000000E+00 -0.17715366143E+04  0.17715366143E+04  0.00000000000E+00 0.  1.
          6    2    1    2  502    0  0.28021833087E+03  0.13058927611E+02 -0.11170603862E+04  0.11646304317E+04  0.17276367520E+03 0.  0.
         24    2    3    3    0    0  0.13758796515E+03 -0.29873433627E+02 -0.77142771369E+03  0.78823882289E+03  0.79980336859E+02 0.  0.
         -6    2    1    2    0  503 -0.28021833087E+03 -0.13058927611E+02 -0.58771832892E+03  0.67366408166E+03  0.17238797009E+03 0.  0.
        -24    2    5    5    0    0 -0.13529060257E+03 -0.57320347545E+02 -0.21999865689E+03  0.27591671597E+03  0.78367440494E+02 0.  0.
          2    1    4    4  501    0  0.62172537020E+02 -0.50004754279E+02 -0.30179702789E+03  0.31216557442E+03  0.00000000000E+00 0. -1.
         -1    1    4    4    0  501  0.75415428126E+02  0.20131320651E+02 -0.46963068579E+03  0.47607324847E+03  0.00000000000E+00 0.  1.
          5    1    3    3  502    0  0.14263036573E+03  0.42932361238E+02 -0.34563267254E+03  0.37639160883E+03  0.47000000000E+01 0. -1.
         13    1    6    6    0    0 -0.70287876938E+02  0.14045057534E+01 -0.55584828452E+02  0.89621601385E+02  0.00000000000E+00 0. -1.
        -14    1    6    6    0    0 -0.65002725628E+02 -0.58724853299E+02 -0.16441382844E+03  0.18629511458E+03  0.00000000000E+00 0.  1.
         -5    1    5    5    0  503 -0.14492772830E+03  0.44261419934E+02 -0.36771967202E+03  0.39774736570E+03  0.47000000000E+01 0.  1.
<mgrwt>
<rscale>  2 0.32940507E+03</rscale>
<asrwt>0</asrwt>
<pdfrwt beam="1">  1       21 0.10270446E-01 0.32945430E+03</pdfrwt>
<pdfrwt beam="2">  1       21 0.27254410E+00 0.32945430E+03</pdfrwt>
<totfact> 0.33825390E+03</totfact>
</mgrwt>
</event>
<event>
12    1  0.2762290E-001  0.1910708E+03  0.7546771E-02  0.1158160E+00
         21   -1    0    0  504  503  0.00000000000E+00  0.00000000000E+00  0.32359487490E+03  0.32359487490E+03  0.00000000000E+00 0. -1.
         21   -1    0    0  502  504 -0.00000000000E+00 -0.00000000000E+00 -0.13920962907E+03  0.13920962907E+03  0.00000000000E+00 0. -1.
          6    2    1    2  502    0 -0.70617496665E+02 -0.57533828706E+01 -0.12361120258E+02  0.18854699072E+03  0.17429067148E+03 0.  0.
         24    2    3    3    0    0  0.56689500476E+01  0.59545595485E+01  0.45701500028E+02  0.91851304451E+02  0.79249235015E+02 0.  0.
         -6    2    1    2    0  503  0.70617496665E+02  0.57533828706E+01  0.19674636609E+03  0.27425751326E+03  0.17744891873E+03 0.  0.
        -24    2    5    5    0    0  0.86965149744E+02 -0.18112067703E+02  0.21045888269E+03  0.24190123715E+03  0.79575643044E+02 0.  0.
          2    1    4    4  501    0 -0.28077620896E+02  0.29661197601E+01 -0.71025532234E+01  0.29113517889E+02  0.00000000000E+00 0. -1.
         -1    1    4    4    0  501  0.33746570944E+02  0.29884397884E+01  0.52804053252E+02  0.62737786562E+02  0.00000000000E+00 0.  1.
          5    1    3    3  502    0 -0.76286446713E+02 -0.11707942419E+02 -0.58062620287E+02  0.96695686265E+02  0.47000000000E+01 0. -1.
         11    1    6    6    0    0  0.77628641602E+02  0.19456613247E+02  0.13094262360E+03  0.15346249207E+03  0.00000000000E+00 0. -1.
        -12    1    6    6    0    0  0.93365081417E+01 -0.37568680949E+02  0.79516259084E+02  0.88438745079E+02  0.00000000000E+00 0.  1.
         -5    1    5    5    0  503 -0.16347653079E+02  0.23865450573E+02 -0.13712516595E+02  0.32356276109E+02  0.47000000000E+01 0.  1.
<mgrwt>
<rscale>  2 0.19033419E+03</rscale>
<asrwt>0</asrwt>
<pdfrwt beam="1">  1       21 0.49783827E-01 0.19107080E+03</pdfrwt>
<pdfrwt beam="2">  1       21 0.21416866E-01 0.19107080E+03</pdfrwt>
<totfact> 0.78123955E+04</totfact>
</mgrwt>
</event>
<event>
12    1  0.2762290E-001  0.2044949E+03  0.7546771E-02  0.1147348E+00
         21   -1    0    0  504  503  0.00000000000E+00  0.00000000000E+00  0.11533311757E+03  0.11533311757E+03  0.00000000000E+00 0.  1.
         21   -1    0    0  502  504 -0.00000000000E+00 -0.00000000000E+00 -0.36492025826E+03  0.36492025826E+03  0.00000000000E+00 0. -1.
          6    2    1    2  502    0 -0.25320515993E+02  0.95056945195E+02 -0.80207323316E+02  0.21966193859E+03  0.17927967311E+03 0.  0.
         24    2    3    3    0    0 -0.55120885367E+02  0.35504038048E+02  0.13841014107E+02  0.10432854994E+03  0.79962640901E+02 0.  0.
         -6    2    1    2    0  503  0.25320515993E+02 -0.95056945195E+02 -0.16937981738E+03  0.26059143724E+03  0.17187618586E+03 0.  0.
        -24    2    5    5    0    0 -0.37161147665E+02 -0.31431472074E+01 -0.97620088240E+02  0.12821450088E+03  0.74286245947E+02 0.  0.
          4    1    4    4  501    0  0.11239153601E+02  0.14460372685E+02  0.27834469479E+02  0.33319343376E+02  0.00000000000E+00 0. -1.
         -3    1    4    4    0  501 -0.66360038968E+02  0.21043665363E+02 -0.13993455371E+02  0.71009206565E+02  0.00000000000E+00 0.  1.
          5    1    3    3  502    0  0.29800369374E+02  0.59552907147E+02 -0.94048337423E+02  0.11533338865E+03  0.47000000000E+01 0. -1.
         13    1    6    6    0    0 -0.12046483498E+02 -0.36573099244E+02 -0.63429166034E+02  0.74202213288E+02  0.00000000000E+00 0. -1.
        -14    1    6    6    0    0 -0.25114664167E+02  0.33429952036E+02 -0.34190922206E+02  0.54012287590E+02  0.00000000000E+00 0.  1.
         -5    1    5    5    0  503  0.62481663658E+02 -0.91913797987E+02 -0.71759729135E+02  0.13237693636E+03  0.47000000000E+01 0.  1.
<mgrwt>
<rscale>  2 0.20286074E+03</rscale>
<asrwt>0</asrwt>
<pdfrwt beam="1">  1       21 0.17743557E-01 0.20449487E+03</pdfrwt>
<pdfrwt beam="2">  1       21 0.56141577E-01 0.20449487E+03</pdfrwt>
<totfact> 0.85662897E+04</totfact>
</mgrwt>
</event>
<event>
12    1  0.2762290E-001  0.3372018E+03  0.7546771E-02  0.1068139E+00
         21   -1    0    0  504  503  0.00000000000E+00  0.00000000000E+00  0.98510724576E+03  0.98510724576E+03  0.00000000000E+00 0. -1.
         21   -1    0    0  502  504 -0.00000000000E+00 -0.00000000000E+00 -0.42776281158E+03  0.42776281158E+03  0.00000000000E+00 0.  1.
          6    2    1    2  502    0 -0.14426142154E+03  0.25005807616E+03 -0.32527066218E+03  0.46851470149E+03  0.17425447668E+03 0.  0.
         24    2    3    3    0    0 -0.76378434210E+01  0.12535403698E+03 -0.17556630032E+03  0.23050086693E+03  0.80840290739E+02 0.  0.
         -6    2    1    2    0  503  0.14426142154E+03 -0.25005807616E+03  0.88261509636E+03  0.94435535585E+03  0.17163108866E+03 0.  0.
        -24    2    5    5    0    0  0.11370851104E+03 -0.22896679878E+03  0.85987605112E+03  0.90056635608E+03  0.79230789458E+02 0.  0.
          2    1    4    4  501    0  0.56539568832E+01 -0.10605497291E+02 -0.86396453029E+01  0.14801596947E+02  0.00000000000E+00 0. -1.
         -1    1    4    4    0  501 -0.13291800304E+02  0.13595953427E+03 -0.16692665502E+03  0.21569926998E+03  0.00000000000E+00 0.  1.
          5    1    3    3  502    0 -0.13662357812E+03  0.12470403918E+03 -0.14970436185E+03  0.23801383456E+03  0.47000000000E+01 0. -1.
         13    1    6    6    0    0  0.82129179969E+02 -0.10579167926E+03  0.34153357620E+03  0.36685455602E+03  0.00000000000E+00 0. -1.
        -14    1    6    6    0    0  0.31579331067E+02 -0.12317511952E+03  0.51834247492E+03  0.53371180007E+03  0.00000000000E+00 0.  1.
         -5    1    5    5    0  503  0.30552910502E+02 -0.21091277382E+02  0.22739045244E+02  0.43788999764E+02  0.47000000000E+01 0.  1.
<mgrwt>
<rscale>  2 0.33686420E+03</rscale>
<asrwt>0</asrwt>
<pdfrwt beam="1">  1       21 0.15155496E+00 0.33720175E+03</pdfrwt>
<pdfrwt beam="2">  1       21 0.65809664E-01 0.33720175E+03</pdfrwt>
<totfact> 0.54633517E+02</totfact>
</mgrwt>
</event>
<event>
12    1  0.2762290E-001  0.2373680E+03  0.7546771E-02  0.1124313E+00
         21   -1    0    0  504  503  0.00000000000E+00  0.00000000000E+00  0.25508026990E+03  0.25508026990E+03  0.00000000000E+00 0.  1.
         21   -1    0    0  502  504 -0.00000000000E+00 -0.00000000000E+00 -0.21226794598E+03  0.21226794598E+03  0.00000000000E+00 0.  1.
          6    2    1    2  502    0 -0.99535555987E+02 -0.10037804382E+03 -0.16372322722E+02  0.23793194108E+03  0.19068423388E+03 0.  0.
         24    2    3    3    0    0 -0.14084846578E+03 -0.57137570772E+02  0.96844216647E+01  0.17252904395E+03  0.81052394653E+02 0.  0.
         -6    2    1    2    0  503  0.99535555987E+02  0.10037804382E+03  0.59184646642E+02  0.22941627480E+03  0.17072177997E+03 0.  0.
        -24    2    5    5    0    0  0.31559497688E+02  0.53353467017E+02 -0.33057887519E+02  0.10546938926E+03  0.78666217698E+02 0.  0.
          2    1    4    4  501    0 -0.49906303151E+02 -0.36732335975E+02  0.40888103742E+02  0.74241097971E+02  0.00000000000E+00 0. -1.
         -1    1    4    4    0  501 -0.90942162626E+02 -0.20405234797E+02 -0.31203682077E+02  0.98287945982E+02  0.00000000000E+00 0.  1.
          5    1    3    3  502    0  0.41312909790E+02 -0.43240473047E+02 -0.26056744387E+02  0.65402897127E+02  0.47000000000E+01 0. -1.
         11    1    6    6    0    0 -0.25867579825E+02  0.88144542724E+01 -0.64668292706E+01  0.28082844780E+02  0.00000000000E+00 0. -1.
        -12    1    6    6    0    0  0.57427077513E+02  0.44539012745E+02 -0.26591058249E+02  0.77386544481E+02  0.00000000000E+00 0.  1.
         -5    1    5    5    0  503  0.67976058299E+02  0.47024576802E+02  0.92242534161E+02  0.12394688553E+03  0.47000000000E+01 0.  1.
<mgrwt>
<rscale>  2 0.23333712E+03</rscale>
<asrwt>0</asrwt>
<pdfrwt beam="1">  1       21 0.39243119E-01 0.23736798E+03</pdfrwt>
<pdfrwt beam="2">  1       21 0.32656607E-01 0.23736798E+03</pdfrwt>
<totfact> 0.55384974E+04</totfact>
</mgrwt>
</event>
<event>
12    1  0.2762290E-001  0.2235461E+03  0.7546771E-02  0.1131566E+00
         21   -1    0    0  504  503  0.00000000000E+00  0.00000000000E+00  0.10547031248E+03  0.10547031248E+03  0.00000000000E+00 0. -1.
         21   -1    0    0  502  504 -0.00000000000E+00 -0.00000000000E+00 -0.89789979464E+03  0.89789979464E+03  0.00000000000E+00 0.  1.
          6    2    1    2  502    0  0.13673664869E+03 -0.38177310742E+02 -0.50791953875E+02  0.22924374940E+03  0.17268021285E+03 0.  0.
         24    2    3    3    0    0  0.12345877405E+03  0.22407106445E+02 -0.69067367000E+02  0.16441432487E+03  0.80731788827E+02 0.  0.
         -6    2    1    2    0  503 -0.13673664869E+03  0.38177310742E+02 -0.74163752829E+03  0.77412635772E+03  0.17056076979E+03 0.  0.
        -24    2    5    5    0    0 -0.45504750682E+02  0.31089472416E+02 -0.58460168106E+03  0.59231369594E+03  0.77711976356E+02 0.  0.
          4    1    4    4  501    0  0.15579171858E+02  0.36832039481E+02 -0.23789890592E+02  0.46532446986E+02  0.00000000000E+00 0. -1.
         -3    1    4    4    0  501  0.10787960220E+03 -0.14424933036E+02 -0.45277476407E+02  0.11788187788E+03  0.00000000000E+00 0.  1.
          5    1    3    3  502    0  0.13277874639E+02 -0.60584417187E+02  0.18275413125E+02  0.64829424536E+02  0.47000000000E+01 0. -1.
         11    1    6    6    0    0  0.20995935304E+02  0.67618610976E+01 -0.20325793261E+03  0.20445131262E+03  0.00000000000E+00 0. -1.
        -12    1    6    6    0    0 -0.66500685986E+02  0.24327611319E+02 -0.38134374845E+03  0.38786238332E+03  0.00000000000E+00 0.  1.
         -5    1    5    5    0  503 -0.91231898012E+02  0.70878383257E+01 -0.15703584723E+03  0.18181266178E+03  0.47000000000E+01 0.  1.
<mgrwt>
<rscale>  2 0.22313674E+03</rscale>
<asrwt>0</asrwt>
<pdfrwt beam="1">  1       21 0.16226201E-01 0.22354613E+03</pdfrwt>
<pdfrwt beam="2">  1       21 0.13813844E+00 0.22354613E+03</pdfrwt>
<totfact> 0.12322844E+04</totfact>
</mgrwt>
</event>
<event>
12    1  0.2762290E-001  0.1912306E+03  0.7546771E-02  0.1157685E+00
         21   -1    0    0  504  503  0.00000000000E+00  0.00000000000E+00  0.45177073940E+03  0.45177073940E+03  0.00000000000E+00 0. -1.
         21   -1    0    0  502  504 -0.00000000000E+00 -0.00000000000E+00 -0.17821679704E+03  0.17821679704E+03  0.00000000000E+00 0. -1.
          6    2    1    2  502    0 -0.18973010245E+02 -0.78311206929E+02 -0.96435708005E+02  0.21417050546E+03  0.17342589017E+03 0.  0.
         24    2    3    3    0    0 -0.24922110235E+02  0.19334621772E+02 -0.78691062141E+02  0.11463627963E+03  0.77163813864E+02 0.  0.
         -6    2    1    2    0  503  0.18973010245E+02  0.78311206929E+02  0.36998965037E+03  0.41581703098E+03  0.17181048171E+03 0.  0.
        -24    2    5    5    0    0  0.39333745630E+02 -0.31722389854E+01  0.27236334278E+03  0.28694850327E+03  0.81243131328E+02 0.  0.
          2    1    4    4  501    0 -0.47883457090E+02 -0.62583326348E+01 -0.38611358753E+02  0.61829032137E+02  0.00000000000E+00 0. -1.
         -1    1    4    4    0  501  0.22961346855E+02  0.25592954406E+02 -0.40079703388E+02  0.52807247498E+02  0.00000000000E+00 0.  1.
          5    1    3    3  502    0  0.59490999902E+01 -0.97645828701E+02 -0.17744645864E+02  0.99534225823E+02  0.47000000000E+01 0. -1.
         11    1    6    6    0    0  0.14685987293E+02  0.25556571947E+02  0.22198799016E+03  0.22393633999E+03  0.00000000000E+00 0. -1.
        -12    1    6    6    0    0  0.24647758337E+02 -0.28728810933E+02  0.50375352623E+02  0.63012163275E+02  0.00000000000E+00 0.  1.
         -5    1    5    5    0  503 -0.20360735385E+02  0.81483445915E+02  0.97626307586E+02  0.12886852772E+03  0.47000000000E+01 0.  1.
<mgrwt>
<rscale>  2 0.19086364E+03</rscale>
<asrwt>0</asrwt>
<pdfrwt beam="1">  1       21 0.69503190E-01 0.19123065E+03</pdfrwt>
<pdfrwt beam="2">  1       21 0.27417969E-01 0.19123065E+03</pdfrwt>
<totfact> 0.23902068E+04</totfact>
</mgrwt>
</event>
<event>
12    1  0.2762290E-001  0.2010163E+03  0.7546771E-02  0.1149513E+00
         21   -1    0    0  504  503  0.00000000000E+00  0.00000000000E+00  0.54936535548E+03  0.54936535548E+03  0.00000000000E+00 0.  1.
         21   -1    0    0  502  504 -0.00000000000E+00 -0.00000000000E+00 -0.10928729367E+03  0.10928729367E+03  0.00000000000E+00 0.  1.
          6    2    1    2  502    0 -0.70881195839E+02 -0.65367951200E+02  0.27804011386E+02  0.19998343740E+03  0.17298323392E+03 0.  0.
         24    2    3    3    0    0 -0.10677534191E+03 -0.70611777887E+02 -0.60159670342E+01  0.15016608721E+03  0.78273016243E+02 0.  0.
         -6    2    1    2    0  503  0.70881195839E+02  0.65367951200E+02  0.41227405042E+03  0.45866921174E+03  0.17638151882E+03 0.  0.
        -24    2    5    5    0    0  0.93070174579E+02  0.32248244890E+02  0.39450123875E+03  0.41476900037E+03  0.81854075017E+02 0.  0.
          2    1    4    4  501    0 -0.70352063606E+02 -0.61452152757E+02 -0.37990161788E+02  0.10084162000E+03  0.00000000000E+00 0. -1.
         -1    1    4    4    0  501 -0.36423278302E+02 -0.91596251303E+01  0.31974194754E+02  0.49324467204E+02  0.00000000000E+00 0.  1.
          5    1    3    3  502    0  0.35894146069E+02  0.52438266868E+01  0.33819978420E+02  0.49817350197E+02  0.47000000000E+01 0. -1.
         11    1    6    6    0    0  0.19245103893E+02  0.47745088220E+02  0.18803124613E+03  0.19495055012E+03  0.00000000000E+00 0. -1.
        -12    1    6    6    0    0  0.73825070686E+02 -0.15496843329E+02  0.20646999263E+03  0.21981845025E+03  0.00000000000E+00 0.  1.
         -5    1    5    5    0  503 -0.22188978740E+02  0.33119706310E+02  0.17772811668E+02  0.43900211368E+02  0.47000000000E+01 0.  1.
<mgrwt>
<rscale>  2 0.20026836E+03</rscale>
<asrwt>0</asrwt>
<pdfrwt beam="1">  1       21 0.84517745E-01 0.20101630E+03</pdfrwt>
<pdfrwt beam="2">  1       21 0.16813430E-01 0.20101630E+03</pdfrwt>
<totfact> 0.38475550E+04</totfact>
</mgrwt>
</event>
<event>
12    1  0.2762290E-001  0.2074337E+03  0.7546771E-02  0.1144991E+00
         21   -1    0    0  504  503  0.00000000000E+00  0.00000000000E+00  0.24162700195E+03  0.24162700195E+03  0.00000000000E+00 0.  1.
         21   -1    0    0  502  504 -0.00000000000E+00 -0.00000000000E+00 -0.21828510798E+03  0.21828510798E+03  0.00000000000E+00 0.  1.
          6    2    1    2  502    0  0.43622741692E+02 -0.92011262302E+02 -0.93954445864E+02  0.22161155449E+03  0.17296018965E+03 0.  0.
         24    2    3    3    0    0  0.89151144736E+02 -0.55754037885E+02 -0.38874047006E+02  0.14134099859E+03  0.86079306476E+02 0.  0.
         -6    2    1    2    0  503 -0.43622741692E+02  0.92011262302E+02  0.11729633983E+03  0.23830055544E+03  0.18071996957E+03 0.  0.
        -24    2    5    5    0    0  0.21031120713E+02  0.11186878631E+03  0.82725956649E+02  0.16219770019E+03  0.80669552217E+02 0.  0.
          4    1    4    4  501    0  0.91113788041E+02 -0.27605890643E+02 -0.53868873572E+02  0.10938767348E+03  0.00000000000E+00 0. -1.
         -3    1    4    4    0  501 -0.19626433042E+01 -0.28148147242E+02  0.14994826565E+02  0.31953325111E+02  0.00000000000E+00 0.  1.
          5    1    3    3  502    0 -0.45528403045E+02 -0.36257224416E+02 -0.55080398857E+02  0.80270555900E+02  0.47000000000E+01 0. -1.
         11    1    6    6    0    0 -0.51695450311E+01  0.55985779518E+02 -0.33004757776E+01  0.56320731924E+02  0.00000000000E+00 0. -1.
        -12    1    6    6    0    0  0.26200665744E+02  0.55883006794E+02  0.86026432427E+02  0.10587696827E+03  0.00000000000E+00 0.  1.
         -5    1    5    5    0  503 -0.64653862405E+02 -0.19857524011E+02  0.34570383183E+02  0.76102855249E+02  0.47000000000E+01 0.  1.
<mgrwt>
<rscale>  2 0.20573175E+03</rscale>
<asrwt>0</asrwt>
<pdfrwt beam="1">  1       21 0.37173385E-01 0.20743366E+03</pdfrwt>
<pdfrwt beam="2">  1       21 0.33582324E-01 0.20743366E+03</pdfrwt>
<totfact> 0.59200961E+04</totfact>
</mgrwt>
</event>
<event>
12    1  0.2762290E-001  0.1815499E+03  0.7546771E-02  0.1166345E+00
         21   -1    0    0  504  503  0.00000000000E+00  0.00000000000E+00  0.41192171051E+03  0.41192171051E+03  0.00000000000E+00 0. -1.
         21   -1    0    0  502  504 -0.00000000000E+00 -0.00000000000E+00 -0.11531104391E+03  0.11531104391E+03  0.00000000000E+00 0. -1.
          6    2    1    2  502    0 -0.40450310531E+02 -0.36102336100E+02  0.23709283444E+01  0.18156541358E+03  0.17326503345E+03 0.  0.
         24    2    3    3    0    0 -0.44684043521E+02 -0.18228281444E+02 -0.65705699684E+02  0.11089771510E+03  0.75180650797E+02 0.  0.
         -6    2    1    2    0  503  0.40450310531E+02  0.36102336100E+02  0.29423973826E+03  0.34566734084E+03  0.17311637895E+03 0.  0.
        -24    2    5    5    0    0 -0.17857584008E+02 -0.13416911408E+02  0.22857261024E+03  0.24474049535E+03  0.84578750829E+02 0.  0.
          4    1    4    4  501    0 -0.23500691542E+02 -0.27553719857E+02 -0.77039299277E+02  0.85126632813E+02  0.00000000000E+00 0. -1.
         -3    1    4    4    0  501 -0.21183351979E+02  0.93254384130E+01  0.11333599593E+02  0.25771082290E+02  0.00000000000E+00 0.  1.
          5    1    3    3  502    0  0.42337329905E+01 -0.17874054656E+02  0.68076628029E+02  0.70667698481E+02  0.47000000000E+01 0. -1.
         13    1    6    6    0    0 -0.31311637852E+02  0.28248007572E+02  0.13495760467E+03  0.14139279917E+03  0.00000000000E+00 0. -1.
        -14    1    6    6    0    0  0.13454053845E+02 -0.41664918980E+02  0.93615005568E+02  0.10334769618E+03  0.00000000000E+00 0.  1.
         -5    1    5    5    0  503  0.58307894539E+02  0.49519247508E+02  0.65667128018E+02  0.10092684549E+03  0.47000000000E+01 0.  1.
<mgrwt>
<rscale>  2 0.18151446E+03</rscale>
<asrwt>0</asrwt>
<pdfrwt beam="1">  1       21 0.63372570E-01 0.18154993E+03</pdfrwt>
<pdfrwt beam="2">  1       21 0.17740161E-01 0.18154993E+03</pdfrwt>
<totfact> 0.66737959E+04</totfact>
</mgrwt>
</event>
<event>
12    1  0.2762290E-001  0.1789588E+03  0.7546771E-02  0.1168891E+00
         21   -1    0    0  504  503  0.00000000000E+00  0.00000000000E+00  0.60831179500E+02  0.60831179500E+02  0.00000000000E+00 0. -1.
         21   -1    0    0  502  504 -0.00000000000E+00 -0.00000000000E+00 -0.52656863830E+03  0.52656863830E+03  0.00000000000E+00 0. -1.
          6    2    1    2  502    0  0.36643577278E+01 -0.46055915167E+02 -0.24593964028E+03  0.30415879959E+03  0.17289214519E+03 0.  0.
         24    2    3    3    0    0 -0.24796414804E+02 -0.77374591889E+02 -0.96202783548E+02  0.14848577255E+03  0.78685191935E+02 0.  0.
         -6    2    1    2    0  503 -0.36643577278E+01  0.46055915167E+02 -0.21979781852E+03  0.28324101821E+03  0.17256830106E+03 0.  0.
        -24    2    5    5    0    0  0.59643213185E+02  0.46656105117E+02 -0.16698497946E+03  0.20066078612E+03  0.81527067264E+02 0.  0.
          4    1    4    4  501    0  0.83831638388E+00 -0.84603552109E+02 -0.60823405216E+02  0.10420148956E+03  0.00000000000E+00 0. -1.
         -3    1    4    4    0  501 -0.25634731188E+02  0.72289602198E+01 -0.35379378333E+02  0.44284282992E+02  0.00000000000E+00 0.  1.
          5    1    3    3  502    0  0.28460772532E+02  0.31318676721E+02 -0.14973685673E+03  0.15567302704E+03  0.47000000000E+01 0. -1.
         11    1    6    6    0    0 -0.42379346337E+01  0.45530867135E+02 -0.53081262197E+02  0.70061689592E+02  0.00000000000E+00 0. -1.
        -12    1    6    6    0    0  0.63881147819E+02  0.11252379816E+01 -0.11390371726E+03  0.13059909653E+03  0.00000000000E+00 0.  1.
         -5    1    5    5    0  503 -0.63307570913E+02 -0.60018994953E+00 -0.52812839065E+02  0.82580232095E+02  0.47000000000E+01 0.  1.
<mgrwt>
<rscale>  2 0.17888058E+03</rscale>
<asrwt>0</asrwt>
<pdfrwt beam="1">  1       21 0.93586431E-02 0.17895885E+03</pdfrwt>
<pdfrwt beam="2">  1       21 0.81010559E-01 0.17895885E+03</pdfrwt>
<totfact> 0.12254121E+05</totfact>
</mgrwt>
</event>
<event>
12    1  0.2762290E-001  0.2212875E+03  0.7546771E-02  0.1133478E+00
         21   -1    0    0  504  503  0.00000000000E+00  0.00000000000E+00  0.34086396405E+02  0.34086396405E+02  0.00000000000E+00 0. -1.
         21   -1    0    0  502  504 -0.00000000000E+00 -0.00000000000E+00 -0.17813703719E+04  0.17813703719E+04  0.00000000000E+00 0.  1.
          6    2    1    2  502    0  0.29451243798E+02  0.13383231169E+03 -0.12885923629E+04  0.13074549435E+04  0.17375180020E+03 0.  0.
         24    2    3    3    0    0  0.61298802470E+02  0.19934282326E+02 -0.60173227620E+03  0.61047151699E+03  0.80242270915E+02 0.  0.
         -6    2    1    2    0  503 -0.29451243798E+02 -0.13383231169E+03 -0.45869161254E+03  0.50800182478E+03  0.16996880640E+03 0.  0.
        -24    2    5    5    0    0  0.35825204837E+02 -0.11783410504E+03 -0.27563769711E+03  0.31294341477E+03  0.82396111353E+02 0.  0.
          4    1    4    4  501    0  0.66930535302E+02  0.42384031550E+02 -0.43726309465E+03  0.44438172401E+03  0.00000000000E+00 0. -1.
         -3    1    4    4    0  501 -0.56317328320E+01 -0.22449749224E+02 -0.16446918155E+03  0.16608979298E+03  0.00000000000E+00 0.  1.
          5    1    3    3  502    0 -0.31847558672E+02  0.11389802936E+03 -0.68686008671E+03  0.69698342649E+03  0.47000000000E+01 0. -1.
         13    1    6    6    0    0 -0.25414032825E+01 -0.81686909377E+02 -0.97769769852E+02  0.12742895193E+03  0.00000000000E+00 0. -1.
        -14    1    6    6    0    0  0.38366608119E+02 -0.36147195660E+02 -0.17786792726E+03  0.18551446283E+03  0.00000000000E+00 0.  1.
         -5    1    5    5    0  503 -0.65276448634E+02 -0.15998206653E+02 -0.18305391543E+03  0.19505841001E+03  0.47000000000E+01 0.  1.
<mgrwt>
<rscale>  2 0.22054430E+03</rscale>
<asrwt>0</asrwt>
<pdfrwt beam="1">  1       21 0.52440593E-02 0.22128749E+03</pdfrwt>
<pdfrwt beam="2">  1       21 0.27405707E+00 0.22128749E+03</pdfrwt>
<totfact> 0.11628452E+04</totfact>
</mgrwt>
</event>
<event>
12    1  0.2762290E-001  0.2716627E+03  0.7546771E-02  0.1100360E+00
         21   -1    0    0  504  503  0.00000000000E+00  0.00000000000E+00  0.65332693927E+03  0.65332693927E+03  0.00000000000E+00 0.  1.
         21   -1    0    0  502  504 -0.00000000000E+00 -0.00000000000E+00 -0.16862073308E+03  0.16862073308E+03  0.00000000000E+00 0. -1.
          6    2    1    2  502    0  0.96313015284E+02  0.18550944380E+03  0.60014231494E+01  0.27153064502E+03  0.17321351983E+03 0.  0.
         24    2    3    3    0    0  0.92865189629E+02  0.13654868749E+03  0.64490982960E+02  0.19503122170E+03  0.81293314959E+02 0.  0.
         -6    2    1    2    0  503 -0.96313015284E+02 -0.18550944380E+03  0.47870478305E+03  0.55041702733E+03  0.17352430381E+03 0.  0.
        -24    2    5    5    0    0 -0.12655784801E+03 -0.16738661365E+03  0.34312460744E+03  0.41024834004E+03  0.80833390087E+02 0.  0.
          4    1    4    4  501    0  0.11443125332E+02  0.89077092660E+02  0.31736137512E+02  0.95251540556E+02  0.00000000000E+00 0. -1.
         -3    1    4    4    0  501  0.81422064296E+02  0.47471594827E+02  0.32754845448E+02  0.99779681148E+02  0.00000000000E+00 0.  1.
          5    1    3    3  502    0  0.34478256548E+01  0.48960756312E+02 -0.58489559811E+02  0.76499423313E+02  0.47000000000E+01 0. -1.
         11    1    6    6    0    0 -0.78400739730E+02 -0.45146437031E+02  0.10781392981E+03  0.14074345536E+03  0.00000000000E+00 0. -1.
        -12    1    6    6    0    0 -0.48157108280E+02 -0.12224017662E+03  0.23531067763E+03  0.26950488467E+03  0.00000000000E+00 0.  1.
         -5    1    5    5    0  503  0.30244832727E+02 -0.18122830153E+02  0.13558017561E+03  0.14016868729E+03  0.47000000000E+01 0.  1.
<mgrwt>
<rscale>  2 0.27161311E+03</rscale>
<asrwt>0</asrwt>
<pdfrwt beam="1">  1       21 0.10051184E+00 0.27166272E+03</pdfrwt>
<pdfrwt beam="2">  1       21 0.25941652E-01 0.27166272E+03</pdfrwt>
<totfact> 0.10915360E+04</totfact>
</mgrwt>
</event>
<event>
12    1  0.2762290E-001  0.2015043E+03  0.7546771E-02  0.1149754E+00
         21   -1    0    0  504  503  0.00000000000E+00  0.00000000000E+00  0.54025231312E+03  0.54025231312E+03  0.00000000000E+00 0. -1.
         21   -1    0    0  502  504 -0.00000000000E+00 -0.00000000000E+00 -0.74887834107E+02  0.74887834107E+02  0.00000000000E+00 0. -1.
          6    2    1    2  502    0  0.92058342121E+02  0.38566901182E+01  0.18638018199E+03  0.27448418335E+03  0.17920486114E+03 0.  0.
         24    2    3    3    0    0  0.85883535985E+02  0.16088676757E+01  0.33435533230E+02  0.12132630231E+03  0.78889584500E+02 0.  0.
         -6    2    1    2    0  503 -0.92058342121E+02 -0.38566901182E+01  0.27898429702E+03  0.34065596389E+03  0.17240833893E+03 0.  0.
        -24    2    5    5    0    0 -0.33524393859E+02  0.15409686369E+02  0.26184849630E+03  0.27652218161E+03  0.80861229836E+02 0.  0.
          2    1    4    4  501    0  0.70849514343E+02 -0.22009149121E+02 -0.43292607737E+01  0.74315535566E+02  0.00000000000E+00 0. -1.
         -1    1    4    4    0  501  0.15034021642E+02  0.23618016797E+02  0.37764794004E+02  0.47010766748E+02  0.00000000000E+00 0.  1.
          5    1    3    3  502    0  0.61748061360E+01  0.22478224425E+01  0.15294464876E+03  0.15315788103E+03  0.47000000000E+01 0. -1.
         13    1    6    6    0    0 -0.48059175614E+02 -0.17108380705E+02  0.18346712436E+03  0.19042732674E+03  0.00000000000E+00 0. -1.
        -14    1    6    6    0    0  0.14534781755E+02  0.32518067074E+02  0.78381371947E+02  0.86094854871E+02  0.00000000000E+00 0.  1.
         -5    1    5    5    0  503 -0.58533948262E+02 -0.19266376487E+02  0.17135800719E+02  0.64133782271E+02  0.47000000000E+01 0.  1.
<mgrwt>
<rscale>  2 0.19998225E+03</rscale>
<asrwt>0</asrwt>
<pdfrwt beam="1">  1       21 0.83115738E-01 0.20150433E+03</pdfrwt>
<pdfrwt beam="2">  1       21 0.11521206E-01 0.20150433E+03</pdfrwt>
<totfact> 0.79276576E+04</totfact>
</mgrwt>
</event>
<event>
12    1  0.2762290E-001  0.1943134E+03  0.7546771E-02  0.1155084E+00
         21   -1    0    0  504  503  0.00000000000E+00  0.00000000000E+00  0.14574038252E+03  0.14574038252E+03  0.00000000000E+00 0. -1.
         21   -1    0    0  502  504 -0.00000000000E+00 -0.00000000000E+00 -0.25632068386E+03  0.25632068386E+03  0.00000000000E+00 0. -1.
          6    2    1    2  502    0  0.37143291438E+02 -0.82873878563E+02 -0.56336412857E+02  0.20231529284E+03  0.17178469796E+03 0.  0.
         24    2    3    3    0    0 -0.17527376912E+02  0.10676351925E+02 -0.39289342464E+02  0.92528134154E+02  0.81219515801E+02 0.  0.
         -6    2    1    2    0  503 -0.37143291438E+02  0.82873878563E+02 -0.54243888484E+02  0.19974577354E+03  0.16943515209E+03 0.  0.
        -24    2    5    5    0    0 -0.64618540380E+02  0.11173265915E+03 -0.42630807123E+02  0.15797650039E+03  0.80495006535E+02 0.  0.
          2    1    4    4  501    0 -0.17997968431E+02  0.42284404453E+02 -0.39975307712E+02  0.60909136870E+02  0.00000000000E+00 0. -1.
         -1    1    4    4    0  501  0.47059151890E+00 -0.31608052527E+02  0.68596524771E+00  0.31618997284E+02  0.00000000000E+00 0.  1.
          5    1    3    3  502    0  0.54670668350E+02 -0.93550230488E+02 -0.17047070393E+02  0.10978715868E+03  0.47000000000E+01 0. -1.
         11    1    6    6    0    0 -0.17880267146E+02 -0.90542879757E+01  0.37844658390E+01  0.20396231653E+02  0.00000000000E+00 0. -1.
        -12    1    6    6    0    0 -0.46738273234E+02  0.12078694713E+03 -0.46415272962E+02  0.13758026873E+03  0.00000000000E+00 0.  1.
         -5    1    5    5    0  503  0.27475248942E+02 -0.28858780587E+02 -0.11613081362E+02  0.41769273157E+02  0.47000000000E+01 0.  1.
<mgrwt>
<rscale>  2 0.19379278E+03</rscale>
<asrwt>0</asrwt>
<pdfrwt beam="1">  1       21 0.22421597E-01 0.19431337E+03</pdfrwt>
<pdfrwt beam="2">  1       21 0.39433951E-01 0.19431337E+03</pdfrwt>
<totfact> 0.11539027E+05</totfact>
</mgrwt>
</event>
<event>
12    1  0.2762290E-001  0.1810423E+03  0.7546771E-02  0.1166838E+00
         21   -1    0    0  504  503  0.00000000000E+00  0.00000000000E+00  0.43352300025E+03  0.43352300025E+03  0.00000000000E+00 0.  1.
         21   -1    0    0  502  504 -0.00000000000E+00 -0.00000000000E+00 -0.91578566867E+02  0.91578566867E+02  0.00000000000E+00 0.  1.
          6    2    1    2  502    0 -0.12808690593E+02 -0.51153487162E+02  0.61014408313E+02  0.19088904369E+03  0.17301770770E+03 0.  0.
         24    2    3    3    0    0 -0.48597462988E+02  0.19261762908E+02  0.52985937541E+01  0.94113604330E+02  0.78080512965E+02 0.  0.
         -6    2    1    2    0  503  0.12808690593E+02  0.51153487162E+02  0.28093002507E+03  0.33421252342E+03  0.17319234978E+03 0.  0.
        -24    2    5    5    0    0  0.54021234901E+02 -0.62415265068E+00  0.21858362883E+03  0.24317098940E+03  0.91840317438E+02 0.  0.
          2    1    4    4  501    0  0.21606900647E+02  0.29701755445E+01  0.29178390268E+01  0.22004405989E+02  0.00000000000E+00 0. -1.
         -1    1    4    4    0  501 -0.70204363636E+02  0.16291587364E+02  0.23807547272E+01  0.72109198341E+02  0.00000000000E+00 0.  1.
          5    1    3    3  502    0  0.35788772396E+02 -0.70415250070E+02  0.55715814559E+02  0.96775439364E+02  0.47000000000E+01 0. -1.
         11    1    6    6    0    0  0.47701990045E+02 -0.37936892655E+02  0.86798433091E+02  0.10605967974E+03  0.00000000000E+00 0. -1.
        -12    1    6    6    0    0  0.63192448556E+01  0.37312740004E+02  0.13178519574E+03  0.13711130967E+03  0.00000000000E+00 0.  1.
         -5    1    5    5    0  503 -0.41212544308E+02  0.51777639813E+02  0.62346396240E+02  0.91041534021E+02  0.47000000000E+01 0.  1.
<mgrwt>
<rscale>  2 0.18100057E+03</rscale>
<asrwt>0</asrwt>
<pdfrwt beam="1">  1       21 0.66695845E-01 0.18104235E+03</pdfrwt>
<pdfrwt beam="2">  1       21 0.14089011E-01 0.18104235E+03</pdfrwt>
<totfact> 0.90988522E+04</totfact>
</mgrwt>
</event>
<event>
12    1  0.2762290E-001  0.2120303E+03  0.7546771E-02  0.1140227E+00
         21   -1    0    0  504  503  0.00000000000E+00  0.00000000000E+00  0.51068298204E+02  0.51068298204E+02  0.00000000000E+00 0. -1.
         21   -1    0    0  502  504 -0.00000000000E+00 -0.00000000000E+00 -0.93270960184E+03  0.93270960184E+03  0.00000000000E+00 0. -1.
          6    2    1    2  502    0 -0.94640502112E+02 -0.72607965930E+02 -0.56202561734E+03  0.60022735343E+03  0.17369899223E+03 0.  0.
         24    2    3    3    0    0 -0.79073584023E+01  0.18818778322E+02 -0.26625471743E+03  0.27869352470E+03  0.79761102194E+02 0.  0.
         -6    2    1    2    0  503  0.94640502112E+02  0.72607965930E+02 -0.31961568629E+03  0.38355054661E+03  0.17529430545E+03 0.  0.
        -24    2    5    5    0    0  0.27027014881E+02  0.80144949675E+02 -0.99492916010E+02  0.15310638032E+03  0.79931538628E+02 0.  0.
          4    1    4    4  501    0  0.29158097964E+02  0.30949154001E+02 -0.11927654845E+03  0.12662914285E+03  0.00000000000E+00 0. -1.
         -3    1    4    4    0  501 -0.37065456366E+02 -0.12130375679E+02 -0.14697816899E+03  0.15206438185E+03  0.00000000000E+00 0.  1.
          5    1    3    3  502    0 -0.86733143710E+02 -0.91426744253E+02 -0.29577089991E+03  0.32153382873E+03  0.47000000000E+01 0. -1.
         13    1    6    6    0    0  0.23370267412E+02  0.50806529818E+02 -0.10861417595E+03  0.12216592033E+03  0.00000000000E+00 0. -1.
        -14    1    6    6    0    0  0.36567474690E+01  0.29338419857E+02  0.91212599442E+01  0.30940459996E+02  0.00000000000E+00 0.  1.
         -5    1    5    5    0  503  0.67613487232E+02 -0.75369837446E+01 -0.22012277028E+03  0.23044416629E+03  0.47000000000E+01 0.  1.
<mgrwt>
<rscale>  2 0.21170025E+03</rscale>
<asrwt>0</asrwt>
<pdfrwt beam="1">  1       21 0.78566611E-02 0.21203027E+03</pdfrwt>
<pdfrwt beam="2">  1       21 0.14349379E+00 0.21203027E+03</pdfrwt>
<totfact> 0.41109659E+04</totfact>
</mgrwt>
</event>
<event>
12    1  0.2762290E-001  0.1914842E+03  0.7546771E-02  0.1157163E+00
         21   -1    0    0  504  503  0.00000000000E+00  0.00000000000E+00  0.29256487034E+03  0.29256487034E+03  0.00000000000E+00 0. -1.
         21   -1    0    0  502  504 -0.00000000000E+00 -0.00000000000E+00 -0.29165354234E+03  0.29165354234E+03  0.00000000000E+00 0. -1.
          6    2    1    2  502    0 -0.31867853646E+02 -0.75397485882E+02 -0.22020256988E+03  0.29181392231E+03  0.17310647734E+03 0.  0.
         24    2    3    3    0    0 -0.46127521104E+02  0.12578152989E+02 -0.70334629945E+02  0.11738473733E+03  0.80908950388E+02 0.  0.
         -6    2    1    2    0  503  0.31867853646E+02  0.75397485882E+02  0.22111389788E+03  0.29240449037E+03  0.17294128825E+03 0.  0.
        -24    2    5    5    0    0 -0.10074973392E+02  0.27397546345E+02  0.28236644009E+02  0.89212659838E+02  0.79432109225E+02 0.  0.
          2    1    4    4  501    0 -0.31481526875E+02  0.46754884270E+02 -0.47811251075E+02  0.73912255187E+02  0.00000000000E+00 0. -1.
         -1    1    4    4    0  501 -0.14645994229E+02 -0.34176731281E+02 -0.22523378870E+02  0.43472482144E+02  0.00000000000E+00 0.  1.
          5    1    3    3  502    0  0.14259667458E+02 -0.87975638871E+02 -0.14986793994E+03  0.17442918498E+03  0.47000000000E+01 0. -1.
         13    1    6    6    0    0  0.22251671732E+02 -0.14005892792E+02  0.25477619227E+02  0.36611623964E+02  0.00000000000E+00 0. -1.
        -14    1    6    6    0    0 -0.32326645123E+02  0.41403439137E+02  0.27590247818E+01  0.52601035875E+02  0.00000000000E+00 0.  1.
         -5    1    5    5    0  503  0.41942827038E+02  0.47999939537E+02  0.19287725387E+03  0.20319183053E+03  0.47000000000E+01 0.  1.
<mgrwt>
<rscale>  2 0.19144684E+03</rscale>
<asrwt>0</asrwt>
<pdfrwt beam="1">  1       21 0.45009980E-01 0.19148419E+03</pdfrwt>
<pdfrwt beam="2">  1       21 0.44869776E-01 0.19148419E+03</pdfrwt>
<totfact> 0.22594717E+04</totfact>
</mgrwt>
</event>
<event>
12    1  0.2762290E-001  0.2535427E+03  0.7546771E-02  0.1111091E+00
         21   -1    0    0  504  503  0.00000000000E+00  0.00000000000E+00  0.11810995461E+03  0.11810995461E+03  0.00000000000E+00 0. -1.
         21   -1    0    0  502  504 -0.00000000000E+00 -0.00000000000E+00 -0.77767894106E+03  0.77767894106E+03  0.00000000000E+00 0. -1.
          6    2    1    2  502    0 -0.18593341220E+03  0.47013912850E+01 -0.57521340786E+03  0.62861306357E+03  0.17230955359E+03 0.  0.
         24    2    3    3    0    0 -0.24568470233E+02  0.40465615557E+02 -0.24855997883E+03  0.26249521788E+03  0.69861295177E+02 0.  0.
         -6    2    1    2    0  503  0.18593341220E+03 -0.47013912850E+01 -0.84355578591E+02  0.26717583210E+03  0.17226063034E+03 0.  0.
        -24    2    5    5    0    0  0.42909253438E+02  0.41572848463E+02 -0.46258795707E+02  0.11202857907E+03  0.82710462391E+02 0.  0.
          2    1    4    4  501    0 -0.36821253883E+02  0.27044564905E+02 -0.23605534141E+03  0.24043572412E+03  0.00000000000E+00 0. -1.
         -1    1    4    4    0  501  0.12252783650E+02  0.13421050652E+02 -0.12504637420E+02  0.22059493756E+02  0.00000000000E+00 0.  1.
          5    1    3    3  502    0 -0.16136494197E+03 -0.35764224272E+02 -0.32665342903E+03  0.36611784569E+03  0.47000000000E+01 0. -1.
         13    1    6    6    0    0  0.52465011332E+02  0.23873550361E+02 -0.63339026760E+02  0.85640855506E+02  0.00000000000E+00 0. -1.
        -14    1    6    6    0    0 -0.95557578941E+01  0.17699298102E+02  0.17080231053E+02  0.26387723567E+02  0.00000000000E+00 0.  1.
         -5    1    5    5    0  503  0.14302415877E+03 -0.46274239748E+02 -0.38096782885E+02  0.15514725302E+03  0.47000000000E+01 0.  1.
<mgrwt>
<rscale>  2 0.25353442E+03</rscale>
<asrwt>0</asrwt>
<pdfrwt beam="1">  1       21 0.18170762E-01 0.25354274E+03</pdfrwt>
<pdfrwt beam="2">  1       21 0.11964292E+00 0.25354274E+03</pdfrwt>
<totfact> 0.14142530E+04</totfact>
</mgrwt>
</event>
<event>
12    1  0.2762290E-001  0.1972302E+03  0.7546771E-02  0.1152174E+00
         21   -1    0    0  504  503  0.00000000000E+00  0.00000000000E+00  0.29747621594E+03  0.29747621594E+03  0.00000000000E+00 0.  1.
         21   -1    0    0  502  504 -0.00000000000E+00 -0.00000000000E+00 -0.13100933002E+03  0.13100933002E+03  0.00000000000E+00 0.  1.
          6    2    1    2  502    0  0.95910166295E+02 -0.15513900199E+02  0.70196831106E+02  0.20901418090E+03  0.17123052188E+03 0.  0.
         24    2    3    3    0    0  0.36798530706E+02 -0.67962586618E+02  0.65618177042E+02  0.12971661321E+03  0.80917300635E+02 0.  0.
         -6    2    1    2    0  503 -0.95910166295E+02  0.15513900199E+02  0.96270054811E+02  0.21947136506E+03  0.17164007554E+03 0.  0.
        -24    2    5    5    0    0 -0.49000175940E+02  0.82369514282E+02  0.37326503119E+02  0.11864154499E+03  0.59133697981E+02 0.  0.
          2    1    4    4  501    0  0.23287364235E+02 -0.17181208614E+02  0.71215814333E+02  0.76871239573E+02  0.00000000000E+00 0. -1.
         -1    1    4    4    0  501  0.13511166472E+02 -0.50781378004E+02 -0.55976372914E+01  0.52845373635E+02  0.00000000000E+00 0.  1.
          5    1    3    3  502    0  0.59111635589E+02  0.52448686419E+02  0.45786540646E+01  0.79297567693E+02  0.47000000000E+01 0. -1.
         11    1    6    6    0    0 -0.56692841905E+02  0.62995039182E+02  0.45571034595E+02  0.96224593939E+02  0.00000000000E+00 0. -1.
        -12    1    6    6    0    0  0.76926659651E+01  0.19374475101E+02 -0.82445314760E+01  0.22416951049E+02  0.00000000000E+00 0.  1.
         -5    1    5    5    0  503 -0.46909990355E+02 -0.66855614083E+02  0.58943551692E+02  0.10082982007E+03  0.47000000000E+01 0.  1.
<mgrwt>
<rscale>  2 0.19714107E+03</rscale>
<asrwt>0</asrwt>
<pdfrwt beam="1">  1       21 0.45765572E-01 0.19723021E+03</pdfrwt>
<pdfrwt beam="2">  1       21 0.20155282E-01 0.19723021E+03</pdfrwt>
<totfact> 0.10394984E+05</totfact>
</mgrwt>
</event>
<event>
12    1  0.2762290E-001  0.2423996E+03  0.7546771E-02  0.1118784E+00
         21   -1    0    0  504  503  0.00000000000E+00  0.00000000000E+00  0.30127253443E+03  0.30127253443E+03  0.00000000000E+00 0.  1.
         21   -1    0    0  502  504 -0.00000000000E+00 -0.00000000000E+00 -0.39108379237E+03  0.39108379237E+03  0.00000000000E+00 0. -1.
          6    2    1    2  502    0 -0.13453546808E+03  0.95537925642E+02 -0.29159235596E+03  0.37696267531E+03  0.17276420090E+03 0.  0.
         24    2    3    3    0    0 -0.10888013222E+03  0.19746609955E+02 -0.10031457255E+03  0.16956981087E+03  0.80287579968E+02 0.  0.
         -6    2    1    2    0  503  0.13453546808E+03 -0.95537925642E+02  0.20178109802E+03  0.31539365150E+03  0.17756761101E+03 0.  0.
        -24    2    5    5    0    0  0.21430854805E+02 -0.77706059299E+00  0.12090102870E+03  0.14706079463E+03  0.80931657682E+02 0.  0.
          2    1    4    4  501    0  0.67530628073E+01 -0.67645252627E+01 -0.30400547244E+02  0.31867788314E+02  0.00000000000E+00 0. -1.
         -1    1    4    4    0  501 -0.11563319503E+03  0.26511135218E+02 -0.69914025307E+02  0.13770202256E+03  0.00000000000E+00 0.  1.
          5    1    3    3  502    0 -0.25655335860E+02  0.75791315687E+02 -0.19127778341E+03  0.20739286443E+03  0.47000000000E+01 0. -1.
         13    1    6    6    0    0 -0.10265834001E+02 -0.28696234918E+02  0.89158872027E+02  0.94224018739E+02  0.00000000000E+00 0. -1.
        -14    1    6    6    0    0  0.31696688806E+02  0.27919174325E+02  0.31742156677E+02  0.52836775893E+02  0.00000000000E+00 0.  1.
         -5    1    5    5    0  503  0.11310461327E+03 -0.94760865049E+02  0.80880069314E+02  0.16833285687E+03  0.47000000000E+01 0.  1.
<mgrwt>
<rscale>  2 0.24152071E+03</rscale>
<asrwt>0</asrwt>
<pdfrwt beam="1">  1       21 0.46349621E-01 0.24239955E+03</pdfrwt>
<pdfrwt beam="2">  1       21 0.60166737E-01 0.24239955E+03</pdfrwt>
<totfact> 0.11136020E+04</totfact>
</mgrwt>
</event>
<event>
12    1  0.2762290E-001  0.1852543E+03  0.7546771E-02  0.1162997E+00
         21   -1    0    0  504  503  0.00000000000E+00  0.00000000000E+00  0.20395490308E+03  0.20395490308E+03  0.00000000000E+00 0.  1.
         21   -1    0    0  502  504 -0.00000000000E+00 -0.00000000000E+00 -0.23956902479E+03  0.23956902479E+03  0.00000000000E+00 0.  1.
          6    2    1    2  502    0 -0.61263350939E+02 -0.26204668288E+02 -0.13936712467E+03  0.23119439609E+03  0.17201096051E+03 0.  0.
         24    2    3    3    0    0  0.20449769864E+02  0.15841990760E+02 -0.10118137975E+03  0.13156911434E+03  0.80022487351E+02 0.  0.
         -6    2    1    2    0  503  0.61263350939E+02  0.26204668288E+02  0.10375300295E+03  0.21232953178E+03  0.17285618773E+03 0.  0.
        -24    2    5    5    0    0  0.73758304095E+02  0.54568177387E+02  0.21612708652E+02  0.12441064615E+03  0.81196836724E+02 0.  0.
          4    1    4    4  501    0  0.38633411199E+02  0.35558851251E+02 -0.44366153332E+02  0.68741020683E+02  0.00000000000E+00 0. -1.
         -3    1    4    4    0  501 -0.18183641335E+02 -0.19716860491E+02 -0.56815226414E+02  0.62828093655E+02  0.00000000000E+00 0.  1.
          5    1    3    3  502    0 -0.81713120803E+02 -0.42046659048E+02 -0.38185744924E+02  0.99625281750E+02  0.47000000000E+01 0. -1.
         13    1    6    6    0    0  0.52872295142E+02  0.41916260381E+02 -0.24865642924E+02  0.71907945847E+02  0.00000000000E+00 0. -1.
        -14    1    6    6    0    0  0.20886008953E+02  0.12651917007E+02  0.46478351577E+02  0.52502700304E+02  0.00000000000E+00 0.  1.
         -5    1    5    5    0  503 -0.12494953156E+02 -0.28363509100E+02  0.82140294299E+02  0.87918885630E+02  0.47000000000E+01 0.  1.
<mgrwt>
<rscale>  2 0.18505685E+03</rscale>
<asrwt>0</asrwt>
<pdfrwt beam="1">  1       21 0.31377677E-01 0.18525427E+03</pdfrwt>
<pdfrwt beam="2">  1       21 0.36856773E-01 0.18525427E+03</pdfrwt>
<totfact> 0.69517783E+04</totfact>
</mgrwt>
</event>
<event>
12    1  0.2762290E-001  0.2215387E+03  0.7546771E-02  0.1133111E+00
         21   -1    0    0  504  503  0.00000000000E+00  0.00000000000E+00  0.15663762706E+03  0.15663762706E+03  0.00000000000E+00 0.  1.
         21   -1    0    0  502  504 -0.00000000000E+00 -0.00000000000E+00 -0.55698929712E+03  0.55698929712E+03  0.00000000000E+00 0. -1.
          6    2    1    2  502    0  0.30892431053E+02  0.13269302122E+03 -0.43702547624E+03  0.48907326160E+03  0.17216157572E+03 0.  0.
         24    2    3    3    0    0 -0.23602475262E+02  0.56278946636E+02 -0.11024761223E+03  0.14905169168E+03  0.79608254070E+02 0.  0.
         -6    2    1    2    0  503 -0.30892431053E+02 -0.13269302122E+03  0.36673806174E+02  0.22455366257E+03  0.17469287089E+03 0.  0.
        -24    2    5    5    0    0  0.50202101051E+02 -0.57558764611E+02 -0.27368382830E+00  0.10789738683E+03  0.76213573907E+02 0.  0.
          2    1    4    4  501    0 -0.45854995515E+02  0.40512168263E+02 -0.10462874055E+03  0.12120680567E+03  0.00000000000E+00 0. -1.
         -1    1    4    4    0  501  0.22252520252E+02  0.15766778373E+02 -0.56188716796E+01  0.27844886008E+02  0.00000000000E+00 0.  1.
          5    1    3    3  502    0  0.54494906315E+02  0.76414074587E+02 -0.32677786401E+03  0.34002156993E+03  0.47000000000E+01 0. -1.
         11    1    6    6    0    0 -0.13049359416E+02 -0.81361853505E+01 -0.20009726671E+02  0.25236332036E+02  0.00000000000E+00 0. -1.
        -12    1    6    6    0    0  0.63251460467E+02 -0.49422579260E+02  0.19736042842E+02  0.82661054790E+02  0.00000000000E+00 0.  1.
         -5    1    5    5    0  503 -0.81094532104E+02 -0.75134256612E+02  0.36947490002E+02  0.11665627575E+03  0.47000000000E+01 0.  1.
<mgrwt>
<rscale>  2 0.22103935E+03</rscale>
<asrwt>0</asrwt>
<pdfrwt beam="1">  1       21 0.24098096E-01 0.22153866E+03</pdfrwt>
<pdfrwt beam="2">  1       21 0.85690663E-01 0.22153866E+03</pdfrwt>
<totfact> 0.18781007E+04</totfact>
</mgrwt>
</event>
<event>
12    1  0.2762290E-001  0.2130385E+03  0.7546771E-02  0.1139289E+00
         21   -1    0    0  504  503  0.00000000000E+00  0.00000000000E+00  0.27324327486E+03  0.27324327486E+03  0.00000000000E+00 0. -1.
         21   -1    0    0  502  504 -0.00000000000E+00 -0.00000000000E+00 -0.12356023769E+04  0.12356023769E+04  0.00000000000E+00 0.  1.
          6    2    1    2  502    0 -0.10718417071E+03 -0.63284660690E+02 -0.11832899550E+04  0.12023146431E+04  0.17289299761E+03 0.  0.
         24    2    3    3    0    0 -0.12796248698E+03 -0.93150155010E+02 -0.10164419961E+04  0.10314813397E+04  0.75816047863E+02 0.  0.
         -6    2    1    2    0  503  0.10718417071E+03  0.63284660690E+02  0.22093085301E+03  0.30653100864E+03  0.17221330587E+03 0.  0.
        -24    2    5    5    0    0  0.33403938245E+02  0.51555697957E+02  0.20714680411E+03  0.23041805788E+03  0.80055417439E+02 0.  0.
          4    1    4    4  501    0 -0.53716759609E+02 -0.33982267089E+02 -0.64401046310E+03  0.64713967682E+03  0.00000000000E+00 0. -1.
         -3    1    4    4    0  501 -0.74245727370E+02 -0.59167887922E+02 -0.37243153303E+03  0.38434166283E+03  0.00000000000E+00 0.  1.
          5    1    3    3  502    0  0.20778316264E+02  0.29865494320E+02 -0.16684795888E+03  0.17083330343E+03  0.47000000000E+01 0. -1.
         11    1    6    6    0    0  0.40749993436E+02  0.15329208909E+02  0.17827656589E+03  0.18351588639E+03  0.00000000000E+00 0. -1.
        -12    1    6    6    0    0 -0.73460551912E+01  0.36226489048E+02  0.28870238216E+02  0.46902171487E+02  0.00000000000E+00 0.  1.
         -5    1    5    5    0  503  0.73780232469E+02  0.11728962734E+02  0.13784048901E+02  0.76112950765E+02  0.47000000000E+01 0.  1.
<mgrwt>
<rscale>  2 0.21290051E+03</rscale>
<asrwt>0</asrwt>
<pdfrwt beam="1">  1       21 0.42037427E-01 0.21303846E+03</pdfrwt>
<pdfrwt beam="2">  1       21 0.19009267E+00 0.21303846E+03</pdfrwt>
<totfact> 0.82955445E+02</totfact>
</mgrwt>
</event>
<event>
12    1  0.2762290E-001  0.2054191E+03  0.7546771E-02  0.1145908E+00
         21   -1    0    0  504  503  0.00000000000E+00  0.00000000000E+00  0.82637297581E+03  0.82637297581E+03  0.00000000000E+00 0. -1.
         21   -1    0    0  502  504 -0.00000000000E+00 -0.00000000000E+00 -0.76149194054E+02  0.76149194054E+02  0.00000000000E+00 0.  1.
          6    2    1    2  502    0 -0.27595301647E+02  0.10579436348E+03  0.11006757140E+03  0.23021497820E+03  0.17008855899E+03 0.  0.
         24    2    3    3    0    0 -0.51002911409E+02  0.22393167757E+02  0.10499792042E+03  0.14331580097E+03  0.80075617889E+02 0.  0.
         -6    2    1    2    0  503  0.27595301647E+02 -0.10579436348E+03  0.64015621036E+03  0.67230719167E+03  0.17390525664E+03 0.  0.
        -24    2    5    5    0    0  0.37471777162E+02 -0.49107283726E+02  0.16624220983E+03  0.19488961797E+03  0.80807372580E+02 0.  0.
          4    1    4    4  501    0 -0.15168257025E+02  0.39981665022E+02  0.91801772631E+02  0.10127277530E+03  0.00000000000E+00 0. -1.
         -3    1    4    4    0  501 -0.35834654384E+02 -0.17588497264E+02  0.13196147792E+02  0.42043025669E+02  0.00000000000E+00 0.  1.
          5    1    3    3  502    0  0.23407609762E+02  0.83401195718E+02  0.50696509744E+01  0.86899177228E+02  0.47000000000E+01 0. -1.
         11    1    6    6    0    0 -0.20891209451E+02  0.41912999126E+01  0.23466048487E+02  0.31696451834E+02  0.00000000000E+00 0. -1.
        -12    1    6    6    0    0  0.58362986614E+02 -0.53298583639E+02  0.14277616134E+03  0.16319316613E+03  0.00000000000E+00 0.  1.
         -5    1    5    5    0  503 -0.98764755155E+01 -0.56687079749E+02  0.47391400053E+03  0.47741757370E+03  0.47000000000E+01 0.  1.
<mgrwt>
<rscale>  2 0.20460903E+03</rscale>
<asrwt>0</asrwt>
<pdfrwt beam="1">  1       21 0.12713430E+00 0.20541905E+03</pdfrwt>
<pdfrwt beam="2">  1       21 0.11715261E-01 0.20541905E+03</pdfrwt>
<totfact> 0.27790666E+04</totfact>
</mgrwt>
</event>
<event>
12    1  0.2762290E-001  0.2481707E+03  0.7546771E-02  0.1114489E+00
         21   -1    0    0  504  503  0.00000000000E+00  0.00000000000E+00  0.11908962219E+04  0.11908962219E+04  0.00000000000E+00 0. -1.
         21   -1    0    0  502  504 -0.00000000000E+00 -0.00000000000E+00 -0.53447895293E+02  0.53447895293E+02  0.00000000000E+00 0. -1.
          6    2    1    2  502    0 -0.19032736524E+02 -0.17600130344E+03  0.45592857199E+03  0.51909495985E+03  0.17392530212E+03 0.  0.
         24    2    3    3    0    0  0.46744606780E+02 -0.83813842366E+02  0.29423894850E+03  0.32163404925E+03  0.87533333012E+02 0.  0.
         -6    2    1    2    0  503  0.19032736524E+02  0.17600130344E+03  0.68151975463E+03  0.72524915735E+03  0.17371948773E+03 0.  0.
        -24    2    5    5    0    0 -0.32820813541E+02  0.10681953031E+03  0.55827140531E+03  0.57462660261E+03  0.77724851766E+02 0.  0.
          4    1    4    4  501    0  0.53676944321E+02 -0.74416168463E+02  0.14274862044E+03  0.16969428133E+03  0.00000000000E+00 0. -1.
         -3    1    4    4    0  501 -0.69323375413E+01 -0.93976739034E+01  0.15149032806E+03  0.15193976792E+03  0.00000000000E+00 0.  1.
          5    1    3    3  502    0 -0.65777343304E+02 -0.92187461074E+02  0.16168962349E+03  0.19746091060E+03  0.47000000000E+01 0. -1.
         13    1    6    6    0    0  0.17547405359E+02  0.39250719156E+02  0.29708989062E+03  0.30018483222E+03  0.00000000000E+00 0. -1.
        -14    1    6    6    0    0 -0.50368218900E+02  0.67568811157E+02  0.26118151469E+03  0.27444177039E+03  0.00000000000E+00 0.  1.
         -5    1    5    5    0  503  0.51853550065E+02  0.69181773127E+02  0.12324834932E+03  0.15062255474E+03  0.47000000000E+01 0.  1.
<mgrwt>
<rscale>  2 0.24813468E+03</rscale>
<asrwt>0</asrwt>
<pdfrwt beam="1">  1       21 0.18321478E+00 0.24817074E+03</pdfrwt>
<pdfrwt beam="2">  1       21 0.82227541E-02 0.24817074E+03</pdfrwt>
<totfact> 0.19079795E+04</totfact>
</mgrwt>
</event>
<event>
12    1  0.2762290E-001  0.2059471E+03  0.7546771E-02  0.1145106E+00
         21   -1    0    0  504  503  0.00000000000E+00  0.00000000000E+00  0.20730576043E+03  0.20730576043E+03  0.00000000000E+00 0. -1.
         21   -1    0    0  502  504 -0.00000000000E+00 -0.00000000000E+00 -0.22374515220E+03  0.22374515220E+03  0.00000000000E+00 0. -1.
          6    2    1    2  502    0 -0.93681787834E+01 -0.11132681846E+03 -0.73578694470E+02  0.21869623820E+03  0.17301097376E+03 0.  0.
         24    2    3    3    0    0 -0.66044542578E+02 -0.30062515197E+02 -0.40850517084E+02  0.11424854415E+03  0.78219746042E+02 0.  0.
         -6    2    1    2    0  503  0.93681787834E+01  0.11132681846E+03  0.57139302697E+02  0.21235467443E+03  0.17131311847E+03 0.  0.
        -24    2    5    5    0    0 -0.55662103752E+02  0.49569694105E+02  0.55077679557E+02  0.12252583527E+03  0.80147396441E+02 0.  0.
          2    1    4    4  501    0 -0.75521750376E+02 -0.33127015507E+02 -0.53384648501E+02  0.98238763388E+02  0.00000000000E+00 0. -1.
         -1    1    4    4    0  501  0.94772077981E+01  0.30645003104E+01  0.12534131417E+02  0.16009780766E+02  0.00000000000E+00 0.  1.
          5    1    3    3  502    0  0.56676363795E+02 -0.81264303260E+02 -0.32728177386E+02  0.10444769405E+03  0.47000000000E+01 0. -1.
         11    1    6    6    0    0 -0.13528910561E+02  0.30540674782E+02  0.66927667872E+02  0.74800247084E+02  0.00000000000E+00 0. -1.
        -12    1    6    6    0    0 -0.42133193191E+02  0.19029019324E+02 -0.11849988315E+02  0.47725588189E+02  0.00000000000E+00 0.  1.
         -5    1    5    5    0  503  0.65030282536E+02  0.61757124351E+02  0.20616231404E+01  0.89828839160E+02  0.47000000000E+01 0.  1.
<mgrwt>
<rscale>  2 0.20559014E+03</rscale>
<asrwt>0</asrwt>
<pdfrwt beam="1">  1       21 0.31893194E-01 0.20594713E+03</pdfrwt>
<pdfrwt beam="2">  1       21 0.34422331E-01 0.20594713E+03</pdfrwt>
<totfact> 0.76451847E+04</totfact>
</mgrwt>
</event>
<event>
12    1  0.2762290E-001  0.2027970E+03  0.7546771E-02  0.1148764E+00
         21   -1    0    0  504  503  0.00000000000E+00  0.00000000000E+00  0.50470581381E+03  0.50470581381E+03  0.00000000000E+00 0. -1.
         21   -1    0    0  502  504 -0.00000000000E+00 -0.00000000000E+00 -0.99594898368E+02  0.99594898368E+02  0.00000000000E+00 0.  1.
          6    2    1    2  502    0 -0.89552785963E+02 -0.29804660843E+02  0.67464681811E+02  0.21372438993E+03  0.17949543805E+03 0.  0.
         24    2    3    3    0    0 -0.13172042505E+03 -0.15949086943E+02  0.66861024279E+02  0.16908650113E+03  0.80716817010E+02 0.  0.
         -6    2    1    2    0  503  0.89552785963E+02  0.29804660843E+02  0.33764623363E+03  0.39057632224E+03  0.17215360911E+03 0.  0.
        -24    2    5    5    0    0  0.55148289164E+02 -0.39000591536E+02  0.11891116061E+03  0.15866048767E+03  0.80441943618E+02 0.  0.
          2    1    4    4  501    0 -0.64323355822E+02  0.28087836571E+02  0.10877194235E+02  0.71026291061E+02  0.00000000000E+00 0. -1.
         -1    1    4    4    0  501 -0.67397069227E+02 -0.44036923514E+02  0.55983830044E+02  0.98060210072E+02  0.00000000000E+00 0.  1.
          5    1    3    3  502    0  0.42167639086E+02 -0.13855573900E+02  0.60365753158E+00  0.44637888801E+02  0.47000000000E+01 0. -1.
         13    1    6    6    0    0  0.12704147480E+02 -0.17460846800E+02  0.10759024409E+03  0.10973576062E+03  0.00000000000E+00 0. -1.
        -14    1    6    6    0    0  0.42444141684E+02 -0.21539744736E+02  0.11320916514E+02  0.48924727054E+02  0.00000000000E+00 0.  1.
         -5    1    5    5    0  503  0.34404496799E+02  0.68805252379E+02  0.21873507303E+03  0.23191583457E+03  0.47000000000E+01 0.  1.
<mgrwt>
<rscale>  2 0.20116018E+03</rscale>
<asrwt>0</asrwt>
<pdfrwt beam="1">  1       21 0.77647047E-01 0.20279702E+03</pdfrwt>
<pdfrwt beam="2">  1       21 0.15322292E-01 0.20279702E+03</pdfrwt>
<totfact> 0.55241134E+04</totfact>
</mgrwt>
</event>
<event>
12    1  0.2762290E-001  0.1831345E+03  0.7546771E-02  0.1165005E+00
         21   -1    0    0  504  503  0.00000000000E+00  0.00000000000E+00  0.18254994361E+03  0.18254994361E+03  0.00000000000E+00 0.  1.
         21   -1    0    0  502  504 -0.00000000000E+00 -0.00000000000E+00 -0.19138201115E+03  0.19138201115E+03  0.00000000000E+00 0.  1.
          6    2    1    2  502    0  0.22378957500E+02 -0.51961003006E+02  0.35026323461E+02  0.18561892420E+03  0.17328236527E+03 0.  0.
         24    2    3    3    0    0 -0.20609126687E+02  0.29913942183E+02  0.42927903723E+02  0.92688805284E+02  0.73680592202E+02 0.  0.
         -6    2    1    2    0  503 -0.22378957500E+02  0.51961003006E+02 -0.43858390996E+02  0.18831303056E+03  0.17417656400E+03 0.  0.
        -24    2    5    5    0    0  0.24028085903E+02 -0.29645193635E+02 -0.33713276925E+02  0.93770985166E+02  0.78741515100E+02 0.  0.
          2    1    4    4  501    0 -0.28131276747E+02  0.33596375091E+02  0.59633357803E+02  0.74001503455E+02  0.00000000000E+00 0. -1.
         -1    1    4    4    0  501  0.75221500597E+01 -0.36824329079E+01 -0.16705454080E+02  0.18687301830E+02  0.00000000000E+00 0.  1.
          5    1    3    3  502    0  0.42988084187E+02 -0.81874945189E+02 -0.79015802615E+01  0.92930118919E+02  0.47000000000E+01 0. -1.
         13    1    6    6    0    0  0.15216192098E+02  0.12239687375E+02 -0.45383677991E+02  0.49406686562E+02  0.00000000000E+00 0. -1.
        -14    1    6    6    0    0  0.88118938045E+01 -0.41884881010E+02  0.11670401065E+02  0.44364298605E+02  0.00000000000E+00 0.  1.
         -5    1    5    5    0  503 -0.46407043403E+02  0.81606196641E+02 -0.10145114070E+02  0.94542045393E+02  0.47000000000E+01 0.  1.
<mgrwt>
<rscale>  2 0.18292155E+03</rscale>
<asrwt>0</asrwt>
<pdfrwt beam="1">  1       21 0.28084607E-01 0.18313448E+03</pdfrwt>
<pdfrwt beam="2">  1       21 0.29443386E-01 0.18313448E+03</pdfrwt>
<totfact> 0.13429414E+05</totfact>
</mgrwt>
</event>
<event>
12    1  0.2762290E-001  0.2250799E+03  0.7546771E-02  0.1130287E+00
         21   -1    0    0  504  503  0.00000000000E+00  0.00000000000E+00  0.36332928273E+03  0.36332928273E+03  0.00000000000E+00 0. -1.
         21   -1    0    0  502  504 -0.00000000000E+00 -0.00000000000E+00 -0.14755807407E+03  0.14755807407E+03  0.00000000000E+00 0. -1.
          6    2    1    2  502    0  0.66660415044E+02  0.12780374896E+03  0.16933102319E+03  0.28106643570E+03  0.17189513280E+03 0.  0.
         24    2    3    3    0    0 -0.86658220050E+01  0.11760817379E+03  0.13963039506E+03  0.19932165573E+03  0.79534245486E+02 0.  0.
         -6    2    1    2    0  503 -0.66660415044E+02 -0.12780374896E+03  0.46440185470E+02  0.22982092111E+03  0.17286860840E+03 0.  0.
        -24    2    5    5    0    0  0.30788462784E+02 -0.51158312575E+02  0.29904427193E+02  0.10465571824E+03  0.80581897519E+02 0.  0.
          2    1    4    4  501    0 -0.24265645416E+02  0.94408284997E+02  0.58905965512E+02  0.11389318942E+03  0.00000000000E+00 0. -1.
         -1    1    4    4    0  501  0.15599823411E+02  0.23199888797E+02  0.80724429543E+02  0.85428466308E+02  0.00000000000E+00 0.  1.
          5    1    3    3  502    0  0.75326237049E+02  0.10195575163E+02  0.29700628134E+02  0.81744779970E+02  0.47000000000E+01 0. -1.
         13    1    6    6    0    0 -0.15784435703E+02 -0.37449341427E+02  0.37761358448E+02  0.55475415958E+02  0.00000000000E+00 0. -1.
        -14    1    6    6    0    0  0.46572898488E+02 -0.13708971148E+02 -0.78569312556E+01  0.49180302279E+02  0.00000000000E+00 0.  1.
         -5    1    5    5    0  503 -0.97448877828E+02 -0.76645436383E+02  0.16535758277E+02  0.12516520287E+03  0.47000000000E+01 0.  1.
<mgrwt>
<rscale>  2 0.22489298E+03</rscale>
<asrwt>0</asrwt>
<pdfrwt beam="1">  1       21 0.55896813E-01 0.22507991E+03</pdfrwt>
<pdfrwt beam="2">  1       21 0.22701242E-01 0.22507991E+03</pdfrwt>
<totfact> 0.54020424E+04</totfact>
</mgrwt>
</event>
<event>
12    1  0.2762290E-001  0.1847387E+03  0.7546771E-02  0.1168484E+00
         21   -1    0    0  504  503  0.00000000000E+00  0.00000000000E+00  0.43061412773E+02  0.43061412773E+02  0.00000000000E+00 0.  1.
         21   -1    0    0  502  504 -0.00000000000E+00 -0.00000000000E+00 -0.80235327574E+03  0.80235327574E+03  0.00000000000E+00 0.  1.
          6    2    1    2  502    0 -0.30229645708E+02 -0.56883895079E+02 -0.25314288751E+03  0.31338430120E+03  0.17314384120E+03 0.  0.
         24    2    3    3    0    0 -0.17310057351E+02  0.29000952530E+02 -0.17939425419E+03  0.19934889562E+03  0.80106119694E+02 0.  0.
         -6    2    1    2    0  503  0.30229645708E+02  0.56883895079E+02 -0.50614897546E+03  0.53203038731E+03  0.15073134598E+03 0.  0.
        -24    2    5    5    0    0 -0.22341085244E+02 -0.83820929105E+01 -0.27840976952E+03  0.28931539630E+03  0.74980098676E+02 0.  0.
          4    1    4    4  501    0 -0.13973872591E+02  0.37425929455E+02 -0.18461708106E+03  0.18889001014E+03  0.00000000000E+00 0. -1.
         -3    1    4    4    0  501 -0.33361847599E+01 -0.84249769240E+01  0.52228268678E+01  0.10458885477E+02  0.00000000000E+00 0.  1.
          5    1    3    3  502    0 -0.12919588357E+02 -0.85884847609E+02 -0.73748633312E+02  0.11403540559E+03  0.47000000000E+01 0. -1.
         13    1    6    6    0    0 -0.44598275070E+02  0.65647312198E+01 -0.11152862138E+03  0.12029436904E+03  0.00000000000E+00 0. -1.
        -14    1    6    6    0    0  0.22257189826E+02 -0.14946824130E+02 -0.16688114814E+03  0.16902102726E+03  0.00000000000E+00 0.  1.
         -5    1    5    5    0  503  0.52570730951E+02  0.65265987989E+02 -0.22773920594E+03  0.24271499101E+03  0.47000000000E+01 0.  1.
<mgrwt>
<rscale>  2 0.17929823E+03</rscale>
<asrwt>0</asrwt>
<pdfrwt beam="1">  1       21 0.66248333E-02 0.18473873E+03</pdfrwt>
<pdfrwt beam="2">  1       21 0.12343895E+00 0.18473873E+03</pdfrwt>
<totfact> 0.82177914E+04</totfact>
</mgrwt>
</event>
<event>
12    1  0.2762290E-001  0.2082594E+03  0.7546771E-02  0.1143667E+00
         21   -1    0    0  504  503  0.00000000000E+00  0.00000000000E+00  0.15988549960E+03  0.15988549960E+03  0.00000000000E+00 0.  1.
         21   -1    0    0  502  504 -0.00000000000E+00 -0.00000000000E+00 -0.41257201027E+03  0.41257201027E+03  0.00000000000E+00 0. -1.
          6    2    1    2  502    0 -0.79430611316E+02  0.78942299238E+02 -0.29724778611E+03  0.36294385802E+03  0.17558726920E+03 0.  0.
         24    2    3    3    0    0 -0.98269934145E+02  0.61322797173E+02 -0.30369749664E+03  0.33594282650E+03  0.84899633695E+02 0.  0.
         -6    2    1    2    0  503  0.79430611316E+02 -0.78942299238E+02  0.44561275438E+02  0.20951365185E+03  0.17137431085E+03 0.  0.
        -24    2    5    5    0    0  0.24400993523E+02 -0.70089861145E+02  0.86701085362E+02  0.13948167290E+03  0.80187665837E+02 0.  0.
          2    1    4    4  501    0 -0.88048378650E+02  0.11472103609E+02 -0.15316226414E+03  0.17703899373E+03  0.00000000000E+00 0. -1.
         -1    1    4    4    0  501 -0.10221555496E+02  0.49850693564E+02 -0.15053523250E+03  0.15890383277E+03  0.00000000000E+00 0.  1.
          5    1    3    3  502    0  0.18839322829E+02  0.17619502064E+02  0.64497105233E+01  0.27001031527E+02  0.47000000000E+01 0. -1.
         13    1    6    6    0    0  0.14992175569E+02  0.12199805337E+02  0.39930812908E+02  0.44362939466E+02  0.00000000000E+00 0. -1.
        -14    1    6    6    0    0  0.94088179536E+01 -0.82289666482E+02  0.46770272454E+02  0.95118733436E+02  0.00000000000E+00 0.  1.
         -5    1    5    5    0  503  0.55029617793E+02 -0.88524380926E+01 -0.42139809924E+02  0.70031978945E+02  0.47000000000E+01 0.  1.
<mgrwt>
<rscale>  2 0.20736888E+03</rscale>
<asrwt>0</asrwt>
<pdfrwt beam="1">  1       21 0.24597769E-01 0.20825945E+03</pdfrwt>
<pdfrwt beam="2">  1       21 0.63472616E-01 0.20825945E+03</pdfrwt>
<totfact> 0.35559303E+04</totfact>
</mgrwt>
</event>
<event>
12    1  0.2762290E-001  0.2077649E+03  0.7546771E-02  0.1144051E+00
         21   -1    0    0  504  503  0.00000000000E+00  0.00000000000E+00  0.81214268745E+02  0.81214268745E+02  0.00000000000E+00 0.  1.
         21   -1    0    0  502  504 -0.00000000000E+00 -0.00000000000E+00 -0.54349705981E+03  0.54349705981E+03  0.00000000000E+00 0. -1.
          6    2    1    2  502    0  0.27821866368E+02  0.11077438132E+03 -0.29415100423E+03  0.36012647122E+03  0.17355472387E+03 0.  0.
         24    2    3    3    0    0  0.64095703090E+02  0.13131807048E+03 -0.21789724812E+03  0.27309452470E+03  0.75820273621E+02 0.  0.
         -6    2    1    2    0  503 -0.27821866368E+02 -0.11077438132E+03 -0.16813178683E+03  0.26458485733E+03  0.16938662633E+03 0.  0.
        -24    2    5    5    0    0 -0.77925741991E+02 -0.44355780948E+02 -0.11148544718E+03  0.16382411783E+03  0.79809022564E+02 0.  0.
          2    1    4    4  501    0 -0.94902672683E+01  0.42112620016E+02 -0.94985282042E+02  0.10433475807E+03  0.00000000000E+00 0. -1.
         -1    1    4    4    0  501  0.73585970359E+02  0.89205450464E+02 -0.12291196608E+03  0.16875976663E+03  0.00000000000E+00 0.  1.
          5    1    3    3  502    0 -0.36273836722E+02 -0.20543689156E+02 -0.76253756111E+02  0.87031946523E+02  0.47000000000E+01 0. -1.
         11    1    6    6    0    0 -0.68003900408E+02 -0.30140018658E+02 -0.29490362367E+02  0.80016452483E+02  0.00000000000E+00 0. -1.
        -12    1    6    6    0    0 -0.99218415822E+01 -0.14215762290E+02 -0.81995084815E+02  0.83807665352E+02  0.00000000000E+00 0.  1.
         -5    1    5    5    0  503  0.50103875622E+02 -0.66418600377E+02 -0.56646339651E+02  0.10076073950E+03  0.47000000000E+01 0.  1.
<mgrwt>
<rscale>  2 0.20689220E+03</rscale>
<asrwt>0</asrwt>
<pdfrwt beam="1">  1       21 0.12494503E-01 0.20776492E+03</pdfrwt>
<pdfrwt beam="2">  1       21 0.83614932E-01 0.20776492E+03</pdfrwt>
<totfact> 0.67434626E+04</totfact>
</mgrwt>
</event>
<event>
12    1  0.2762290E-001  0.1788283E+03  0.7546771E-02  0.1171583E+00
         21   -1    0    0  504  503  0.00000000000E+00  0.00000000000E+00  0.31770748415E+03  0.31770748415E+03  0.00000000000E+00 0. -1.
         21   -1    0    0  502  504 -0.00000000000E+00 -0.00000000000E+00 -0.14600515176E+03  0.14600515176E+03  0.00000000000E+00 0. -1.
          6    2    1    2  502    0  0.37182562813E+02 -0.10829757309E+02  0.22137290988E+03  0.27811437092E+03  0.16383470774E+03 0.  0.
         24    2    3    3    0    0 -0.21431398404E+01 -0.17727417283E+02  0.22275682405E+03  0.23788883399E+03  0.81557588886E+02 0.  0.
         -6    2    1    2    0  503 -0.37182562813E+02  0.10829757309E+02 -0.49670577486E+02  0.18559826500E+03  0.17458442967E+03 0.  0.
        -24    2    5    5    0    0 -0.43418506197E+02 -0.13276041427E+02 -0.95732946355E+02  0.13302633001E+03  0.80434989287E+02 0.  0.
          4    1    4    4  501    0 -0.32557290926E+02 -0.19523944849E+00  0.38976576748E+02  0.50785714978E+02  0.00000000000E+00 0. -1.
         -3    1    4    4    0  501  0.30414151085E+02 -0.17532177834E+02  0.18378024730E+03  0.18710311902E+03  0.00000000000E+00 0.  1.
          5    1    3    3  502    0  0.39325702653E+02  0.68976599740E+01 -0.13839141736E+01  0.40225536923E+02  0.47000000000E+01 0. -1.
         13    1    6    6    0    0 -0.38965228818E+02 -0.13662756570E+02 -0.43338314636E+01  0.41517972845E+02  0.00000000000E+00 0. -1.
        -14    1    6    6    0    0 -0.44532773788E+01  0.38671514350E+00 -0.91399114892E+02  0.91508357165E+02  0.00000000000E+00 0.  1.
         -5    1    5    5    0  503  0.62359433845E+01  0.24105798736E+02  0.46062368869E+02  0.52571934988E+02  0.47000000000E+01 0.  1.
<mgrwt>
<rscale>  2 0.17614903E+03</rscale>
<asrwt>0</asrwt>
<pdfrwt beam="1">  1       21 0.48878074E-01 0.17882827E+03</pdfrwt>
<pdfrwt beam="2">  1       21 0.22462331E-01 0.17882827E+03</pdfrwt>
<totfact> 0.74574065E+04</totfact>
</mgrwt>
</event>
<event>
12    1  0.2762290E-001  0.1990214E+03  0.7546771E-02  0.1150622E+00
         21   -1    0    0  504  503  0.00000000000E+00  0.00000000000E+00  0.17399264732E+04  0.17399264732E+04  0.00000000000E+00 0. -1.
         21   -1    0    0  502  504 -0.00000000000E+00 -0.00000000000E+00 -0.30038042749E+02  0.30038042749E+02  0.00000000000E+00 0. -1.
          6    2    1    2  502    0 -0.79979485862E+02  0.55104356033E+02  0.12917207532E+04  0.13069629054E+04  0.17371333773E+03 0.  0.
         24    2    3    3    0    0  0.11951215535E+02  0.62344732440E+02  0.78074295710E+03  0.78770952314E+03  0.83048362830E+02 0.  0.
         -6    2    1    2    0  503  0.79979485862E+02 -0.55104356033E+02  0.41816767720E+03  0.46300161047E+03  0.17341590709E+03 0.  0.
        -24    2    5    5    0    0  0.10571510607E+03 -0.68764404182E+02  0.24092070187E+03  0.28331438409E+03  0.79498608196E+02 0.  0.
          4    1    4    4  501    0  0.22277509453E+02  0.16557292209E+01  0.49056313945E+03  0.49107150462E+03  0.00000000000E+00 0. -1.
         -3    1    4    4    0  501 -0.10326293917E+02  0.60689003219E+02  0.29017981765E+03  0.29663801851E+03  0.00000000000E+00 0.  1.
          5    1    3    3  502    0 -0.91930701397E+02 -0.72403764076E+01  0.51097779610E+03  0.51925338229E+03  0.47000000000E+01 0. -1.
         11    1    6    6    0    0  0.71875533191E+02 -0.76829230801E+02  0.21681023604E+03  0.24098859190E+03  0.00000000000E+00 0. -1.
        -12    1    6    6    0    0  0.33839572882E+02  0.80648266194E+01  0.24110465839E+02  0.42325792187E+02  0.00000000000E+00 0.  1.
         -5    1    5    5    0  503 -0.25735620211E+02  0.13660048149E+02  0.17724697533E+03  0.17968722638E+03  0.47000000000E+01 0.  1.
<mgrwt>
<rscale>  2 0.19895652E+03</rscale>
<asrwt>0</asrwt>
<pdfrwt beam="1">  1       21 0.26768092E+00 0.19902144E+03</pdfrwt>
<pdfrwt beam="2">  1       21 0.46212387E-02 0.19902144E+03</pdfrwt>
<totfact> 0.16019009E+04</totfact>
</mgrwt>
</event>
<event>
12    1  0.2762290E-001  0.2466346E+03  0.7546771E-02  0.1115489E+00
         21   -1    0    0  504  503  0.00000000000E+00  0.00000000000E+00  0.79658312950E+02  0.79658312950E+02  0.00000000000E+00 0. -1.
         21   -1    0    0  502  504 -0.00000000000E+00 -0.00000000000E+00 -0.12902409368E+04  0.12902409368E+04  0.00000000000E+00 0. -1.
          6    2    1    2  502    0 -0.11255401591E+02 -0.17553169921E+03 -0.10430217511E+04  0.10717293638E+04  0.17254389146E+03 0.  0.
         24    2    3    3    0    0 -0.48789686184E+02 -0.57685303297E+02 -0.33293352031E+03  0.35093537031E+03  0.81258091877E+02 0.  0.
         -6    2    1    2    0  503  0.11255401591E+02  0.17553169921E+03 -0.16756087275E+03  0.29816988594E+03  0.17288890454E+03 0.  0.
        -24    2    5    5    0    0 -0.12653749969E+02  0.12158890090E+02 -0.55598829078E+02  0.98620615052E+02  0.79541435252E+02 0.  0.
          4    1    4    4  501    0 -0.68856415815E+02 -0.57229701343E+02 -0.24815283277E+03  0.26381105573E+03  0.00000000000E+00 0. -1.
         -3    1    4    4    0  501  0.20066729631E+02 -0.45560195381E+00 -0.84780687540E+02  0.87124314580E+02  0.00000000000E+00 0.  1.
          5    1    3    3  502    0  0.37534284593E+02 -0.11784639592E+03 -0.71008823078E+03  0.72079399348E+03  0.47000000000E+01 0. -1.
         13    1    6    6    0    0 -0.38489013022E+02  0.31046933348E+02 -0.33952919348E+02  0.59984305664E+02  0.00000000000E+00 0. -1.
        -14    1    6    6    0    0  0.25835263053E+02 -0.18888043258E+02 -0.21645909729E+02  0.38636309388E+02  0.00000000000E+00 0.  1.
         -5    1    5    5    0  503  0.23909151560E+02  0.16337280912E+03 -0.11196204367E+03  0.19954927089E+03  0.47000000000E+01 0.  1.
<mgrwt>
<rscale>  2 0.24657416E+03</rscale>
<asrwt>0</asrwt>
<pdfrwt beam="1">  1       21 0.12255126E-01 0.24663462E+03</pdfrwt>
<pdfrwt beam="2">  1       21 0.19849860E+00 0.24663462E+03</pdfrwt>
<totfact> 0.74343161E+03</totfact>
</mgrwt>
</event>
<event>
12    1  0.2762290E-001  0.2291116E+03  0.7546771E-02  0.1127327E+00
         21   -1    0    0  504  503  0.00000000000E+00  0.00000000000E+00  0.12898283801E+04  0.12898283801E+04  0.00000000000E+00 0.  1.
         21   -1    0    0  502  504 -0.00000000000E+00 -0.00000000000E+00 -0.41733020800E+02  0.41733020800E+02  0.00000000000E+00 0. -1.
          6    2    1    2  502    0 -0.68745197416E+02 -0.13252898654E+03  0.51566740786E+03  0.56413530193E+03  0.17333761541E+03 0.  0.
         24    2    3    3    0    0 -0.98420247288E+02 -0.12027289435E+03  0.30639489658E+03  0.35236208748E+03  0.78288529515E+02 0.  0.
         -6    2    1    2    0  503  0.68745197416E+02  0.13252898654E+03  0.73242795147E+03  0.76742609900E+03  0.17378802861E+03 0.  0.
        -24    2    5    5    0    0  0.56211908135E+01  0.78673022449E+02  0.21134700467E+03  0.23975901817E+03  0.81214457833E+02 0.  0.
          2    1    4    4  501    0 -0.43163869031E+02 -0.38435092326E+02  0.45981841892E+02  0.73855979417E+02  0.00000000000E+00 0. -1.
         -1    1    4    4    0  501 -0.55256378257E+02 -0.81837802019E+02  0.26041305469E+03  0.27850610806E+03  0.00000000000E+00 0.  1.
          5    1    3    3  502    0  0.29675049871E+02 -0.12256092194E+02  0.20927251128E+03  0.21177321445E+03  0.47000000000E+01 0. -1.
         11    1    6    6    0    0 -0.11156731785E+02 -0.13540591057E+02  0.52123429297E+02  0.54997019483E+02  0.00000000000E+00 0. -1.
        -12    1    6    6    0    0  0.16777922599E+02  0.92213613506E+02  0.15922357538E+03  0.18476199869E+03  0.00000000000E+00 0.  1.
         -5    1    5    5    0  503  0.63124006603E+02  0.53855964090E+02  0.52108094680E+03  0.52766708083E+03  0.47000000000E+01 0.  1.
<mgrwt>
<rscale>  2 0.22902616E+03</rscale>
<asrwt>0</asrwt>
<pdfrwt beam="1">  1       21 0.19843511E+00 0.22911157E+03</pdfrwt>
<pdfrwt beam="2">  1       21 0.64204657E-02 0.22911157E+03</pdfrwt>
<totfact> 0.23515396E+04</totfact>
</mgrwt>
</event>
<event>
12    1  0.2762290E-001  0.2093269E+03  0.7546771E-02  0.1142194E+00
         21   -1    0    0  504  503  0.00000000000E+00  0.00000000000E+00  0.42229627612E+02  0.42229627612E+02  0.00000000000E+00 0.  1.
         21   -1    0    0  502  504 -0.00000000000E+00 -0.00000000000E+00 -0.11462245456E+04  0.11462245456E+04  0.00000000000E+00 0.  1.
          6    2    1    2  502    0  0.97140380214E+02 -0.66543756436E+02 -0.73631135540E+03  0.76535968490E+03  0.17250133386E+03 0.  0.
         24    2    3    3    0    0  0.51686149443E+02 -0.19399815672E+01 -0.18128607712E+03  0.20472175865E+03  0.79819390703E+02 0.  0.
         -6    2    1    2    0  503 -0.97140380214E+02  0.66543756436E+02 -0.36768356259E+03  0.42309448832E+03  0.17307056034E+03 0.  0.
        -24    2    5    5    0    0 -0.96260761681E+02 -0.67669639209E+01 -0.16427971954E+03  0.20682972277E+03  0.80490881042E+02 0.  0.
          2    1    4    4  501    0  0.18525878962E+02 -0.48791159217E+01  0.12275712723E+01  0.19196898050E+02  0.00000000000E+00 0. -1.
         -1    1    4    4    0  501  0.33160270480E+02  0.29391343545E+01 -0.18251364839E+03  0.18552486060E+03  0.00000000000E+00 0.  1.
          5    1    3    3  502    0  0.45454230771E+02 -0.64603774868E+02 -0.55502527828E+03  0.56063792625E+03  0.47000000000E+01 0. -1.
         11    1    6    6    0    0 -0.60003594990E+00  0.23192071114E+02 -0.47954813953E+02  0.53271909924E+02  0.00000000000E+00 0. -1.
        -12    1    6    6    0    0 -0.95660725731E+02 -0.29959035035E+02 -0.11632490559E+03  0.15355781285E+03  0.00000000000E+00 0.  1.
         -5    1    5    5    0  503 -0.87961853279E+00  0.73310720357E+02 -0.20340384305E+03  0.21626476554E+03  0.47000000000E+01 0.  1.
<mgrwt>
<rscale>  2 0.20920919E+03</rscale>
<asrwt>0</asrwt>
<pdfrwt beam="1">  1       21 0.64968664E-02 0.20932688E+03</pdfrwt>
<pdfrwt beam="2">  1       21 0.17634222E+00 0.20932688E+03</pdfrwt>
<totfact> 0.32800940E+04</totfact>
</mgrwt>
</event>
<event>
12    1  0.2762290E-001  0.1860678E+03  0.7546771E-02  0.1162450E+00
         21   -1    0    0  504  503  0.00000000000E+00  0.00000000000E+00  0.27596576549E+04  0.27596576549E+04  0.00000000000E+00 0. -1.
         21   -1    0    0  502  504 -0.00000000000E+00 -0.00000000000E+00 -0.22116040847E+02  0.22116040847E+02  0.00000000000E+00 0. -1.
          6    2    1    2  502    0 -0.44486070286E+02  0.45603142380E+02  0.45189914118E+03  0.48870650720E+03  0.17482150708E+03 0.  0.
         24    2    3    3    0    0 -0.70620146827E+01  0.68572182594E+02  0.42274613541E+03  0.43579030466E+03  0.80292455148E+02 0.  0.
         -6    2    1    2    0  503  0.44486070286E+02 -0.45603142380E+02  0.22856424729E+04  0.22930671886E+04  0.17302300522E+03 0.  0.
        -24    2    5    5    0    0  0.64427128053E+00 -0.69447240499E+02  0.87007660228E+03  0.87661405895E+03  0.81213177579E+02 0.  0.
          2    1    4    4  501    0  0.30755148926E+02  0.58368079080E+02  0.24071064793E+03  0.24958831677E+03  0.00000000000E+00 0. -1.
         -1    1    4    4    0  501 -0.37817163609E+02  0.10204103514E+02  0.18203548748E+03  0.18620198789E+03  0.00000000000E+00 0.  1.
          5    1    3    3  502    0 -0.37424055604E+02 -0.22969040214E+02  0.29153005771E+02  0.52916202544E+02  0.47000000000E+01 0. -1.
         11    1    6    6    0    0 -0.69843120470E+01 -0.56505843110E+02  0.84801058743E+03  0.84991978875E+03  0.00000000000E+00 0. -1.
        -12    1    6    6    0    0  0.76285833275E+01 -0.12941397389E+02  0.22066014855E+02  0.26694270201E+02  0.00000000000E+00 0.  1.
         -5    1    5    5    0  503  0.43841799006E+02  0.23844098118E+02  0.14155658706E+04  0.14164531296E+04  0.47000000000E+01 0.  1.
<mgrwt>
<rscale>  2 0.18564414E+03</rscale>
<asrwt>0</asrwt>
<pdfrwt beam="1">  1       21 0.42456244E+00 0.18606777E+03</pdfrwt>
<pdfrwt beam="2">  1       21 0.34024700E-02 0.18606777E+03</pdfrwt>
<totfact> 0.31604811E+03</totfact>
</mgrwt>
</event>
<event>
12    1  0.2762290E-001  0.2873124E+03  0.7546771E-02  0.1091834E+00
         21   -1    0    0  504  503  0.00000000000E+00  0.00000000000E+00  0.84435643540E+03  0.84435643540E+03  0.00000000000E+00 0. -1.
         21   -1    0    0  502  504 -0.00000000000E+00 -0.00000000000E+00 -0.22443207309E+03  0.22443207309E+03  0.00000000000E+00 0. -1.
          6    2    1    2  502    0  0.82726552956E+02 -0.21397528386E+03 -0.91674229785E+02  0.30158343085E+03  0.17297195349E+03 0.  0.
         24    2    3    3    0    0  0.11989724929E+03 -0.17735044584E+03 -0.97598574232E+02  0.24885557026E+03  0.81086880135E+02 0.  0.
         -6    2    1    2    0  503 -0.82726552956E+02  0.21397528386E+03  0.71159859209E+03  0.76720507764E+03  0.17205223110E+03 0.  0.
        -24    2    5    5    0    0 -0.86515650600E+02  0.15549048118E+03  0.34932213753E+03  0.40018852633E+03  0.80390629441E+02 0.  0.
          4    1    4    4  501    0  0.94926025491E+02 -0.17967415179E+03 -0.80870209499E+02  0.21870926345E+03  0.00000000000E+00 0. -1.
         -3    1    4    4    0  501  0.24971223799E+02  0.23237059480E+01 -0.16728364733E+02  0.30146306806E+02  0.00000000000E+00 0.  1.
          5    1    3    3  502    0 -0.37170696334E+02 -0.36624838016E+02  0.59243444474E+01  0.52727860594E+02  0.47000000000E+01 0. -1.
         11    1    6    6    0    0 -0.81756264646E+02  0.13333380763E+03  0.34250099068E+03  0.37652213704E+03  0.00000000000E+00 0. -1.
        -12    1    6    6    0    0 -0.47593859539E+01  0.22156673555E+02  0.68211468500E+01  0.23666389291E+02  0.00000000000E+00 0.  1.
         -5    1    5    5    0  503  0.37890976441E+01  0.58484802672E+02  0.36227645456E+03  0.36701655131E+03  0.47000000000E+01 0.  1.
<mgrwt>
<rscale>  2 0.28717409E+03</rscale>
<asrwt>0</asrwt>
<pdfrwt beam="1">  1       21 0.12990099E+00 0.28731238E+03</pdfrwt>
<pdfrwt beam="2">  1       21 0.34528012E-01 0.28731238E+03</pdfrwt>
<totfact> 0.32694860E+03</totfact>
</mgrwt>
</event>
<event>
12    1  0.2762290E-001  0.3406854E+03  0.7546771E-02  0.1066522E+00
         21   -1    0    0  504  503  0.00000000000E+00  0.00000000000E+00  0.32077608352E+03  0.32077608352E+03  0.00000000000E+00 0.  1.
         21   -1    0    0  502  504 -0.00000000000E+00 -0.00000000000E+00 -0.77151807418E+03  0.77151807418E+03  0.00000000000E+00 0. -1.
          6    2    1    2  502    0  0.22593406359E+02 -0.29259640922E+03 -0.62341103921E+03  0.71035027036E+03  0.17272250022E+03 0.  0.
         24    2    3    3    0    0  0.23545128687E+02 -0.22506400514E+03 -0.58518183009E+03  0.63260006903E+03  0.80851057953E+02 0.  0.
         -6    2    1    2    0  503 -0.22593406359E+02  0.29259640922E+03  0.17266904855E+03  0.38194388734E+03  0.17304164831E+03 0.  0.
        -24    2    5    5    0    0 -0.60982783471E+02  0.13318821438E+03  0.13392819010E+03  0.21339816366E+03  0.78383772682E+02 0.  0.
          2    1    4    4  501    0 -0.45757447388E+01 -0.16579271832E+03 -0.33290417387E+03  0.37193191832E+03  0.00000000000E+00 0. -1.
         -1    1    4    4    0  501  0.28120873426E+02 -0.59271286817E+02 -0.25227765622E+03  0.26066815071E+03  0.00000000000E+00 0.  1.
          5    1    3    3  502    0 -0.95172232733E+00 -0.67532404082E+02 -0.38229209124E+02  0.77750201329E+02  0.47000000000E+01 0. -1.
         11    1    6    6    0    0  0.30156675520E+01  0.58203495011E+00 -0.81965006755E+01  0.87530359756E+01  0.00000000000E+00 0. -1.
        -12    1    6    6    0    0 -0.63998451023E+02  0.13260617943E+03  0.14212469078E+03  0.20464512768E+03  0.00000000000E+00 0.  1.
         -5    1    5    5    0  503  0.38389377112E+02  0.15940819484E+03  0.38740858446E+02  0.16854572368E+03  0.47000000000E+01 0.  1.
<mgrwt>
<rscale>  2 0.34064488E+03</rscale>
<asrwt>0</asrwt>
<pdfrwt beam="1">  1       21 0.49350167E-01 0.34068539E+03</pdfrwt>
<pdfrwt beam="2">  1       21 0.11869509E+00 0.34068539E+03</pdfrwt>
<totfact> 0.19168583E+03</totfact>
</mgrwt>
</event>
<event>
12    1  0.2762290E-001  0.2072170E+03  0.7546771E-02  0.1145723E+00
         21   -1    0    0  504  503  0.00000000000E+00  0.00000000000E+00  0.25782644267E+02  0.25782644267E+02  0.00000000000E+00 0.  1.
         21   -1    0    0  502  504 -0.00000000000E+00 -0.00000000000E+00 -0.15946097303E+04  0.15946097303E+04  0.00000000000E+00 0.  1.
          6    2    1    2  502    0 -0.19241779732E+02 -0.95137900615E+02 -0.84109334688E+03  0.86624298903E+03  0.18307766566E+03 0.  0.
         24    2    3    3    0    0  0.44086837415E+02 -0.38157930834E+01 -0.33142675833E+03  0.34457991524E+03  0.83267114399E+02 0.  0.
         -6    2    1    2    0  503  0.19241779732E+02  0.95137900615E+02 -0.72773373915E+03  0.75414938553E+03  0.17240485602E+03 0.  0.
        -24    2    5    5    0    0  0.46655120890E+02  0.84899520731E+02 -0.29874539070E+03  0.32413844520E+03  0.80201585201E+02 0.  0.
          2    1    4    4  501    0  0.42902440458E+02  0.28630747255E+02 -0.11915380559E+03  0.12983823964E+03  0.00000000000E+00 0. -1.
         -1    1    4    4    0  501  0.11843969569E+01 -0.32446540339E+02 -0.21227295274E+03  0.21474167560E+03  0.00000000000E+00 0.  1.
          5    1    3    3  502    0 -0.63328617147E+02 -0.91322107532E+02 -0.50966658855E+03  0.52166307379E+03  0.47000000000E+01 0. -1.
         11    1    6    6    0    0  0.42316147152E+02  0.28523347761E+02 -0.59897033241E+02  0.78688577750E+02  0.00000000000E+00 0. -1.
        -12    1    6    6    0    0  0.43389737381E+01  0.56376172969E+02 -0.23884835746E+03  0.24544986745E+03  0.00000000000E+00 0.  1.
         -5    1    5    5    0  503 -0.27413341158E+02  0.10238379884E+02 -0.42898834845E+03  0.43001094032E+03  0.47000000000E+01 0.  1.
<mgrwt>
<rscale>  2 0.20483468E+03</rscale>
<asrwt>0</asrwt>
<pdfrwt beam="1">  1       21 0.39665598E-02 0.20721703E+03</pdfrwt>
<pdfrwt beam="2">  1       21 0.24532463E+00 0.20721703E+03</pdfrwt>
<totfact> 0.27826033E+04</totfact>
</mgrwt>
</event>
<event>
12    1  0.2762290E-001  0.3240698E+03  0.7546771E-02  0.1073849E+00
         21   -1    0    0  504  503  0.00000000000E+00  0.00000000000E+00  0.12380084113E+03  0.12380084113E+03  0.00000000000E+00 0. -1.
         21   -1    0    0  502  504 -0.00000000000E+00 -0.00000000000E+00 -0.10653294607E+04  0.10653294607E+04  0.00000000000E+00 0.  1.
          6    2    1    2  502    0 -0.23850131401E+03 -0.13389010637E+03 -0.20130036409E+03  0.38107145314E+03  0.17287040939E+03 0.  0.
         24    2    3    3    0    0 -0.85241166782E+02  0.19314236682E+01 -0.60889196899E+02  0.13272986052E+03  0.81485794242E+02 0.  0.
         -6    2    1    2    0  503  0.23850131401E+03  0.13389010637E+03 -0.74022825551E+03  0.80805884872E+03  0.17381540603E+03 0.  0.
        -24    2    5    5    0    0  0.17021588306E+03  0.19551823944E+02 -0.47372854204E+03  0.51009856581E+03  0.80162925600E+02 0.  0.
          2    1    4    4  501    0 -0.61628234847E+02  0.34726793241E+02 -0.59267583753E+02  0.92285621757E+02  0.00000000000E+00 0. -1.
         -1    1    4    4    0  501 -0.23612931935E+02 -0.32795369573E+02 -0.16216131461E+01  0.40444238764E+02  0.00000000000E+00 0.  1.
          5    1    3    3  502    0 -0.15326014723E+03 -0.13582153004E+03 -0.14041116719E+03  0.24834159261E+03  0.47000000000E+01 0. -1.
         13    1    6    6    0    0  0.87680039795E+02  0.49839247909E+02 -0.26932526978E+03  0.28758970940E+03  0.00000000000E+00 0. -1.
        -14    1    6    6    0    0  0.82535843261E+02 -0.30287423966E+02 -0.20440327226E+03  0.22250885641E+03  0.00000000000E+00 0.  1.
         -5    1    5    5    0  503  0.68285430958E+02  0.11433828243E+03 -0.26649971347E+03  0.29796028290E+03  0.47000000000E+01 0.  1.
<mgrwt>
<rscale>  2 0.32394326E+03</rscale>
<asrwt>0</asrwt>
<pdfrwt beam="1">  1       21 0.19046282E-01 0.32406980E+03</pdfrwt>
<pdfrwt beam="2">  1       21 0.16389685E+00 0.32406980E+03</pdfrwt>
<totfact> 0.54671453E+03</totfact>
</mgrwt>
</event>
<event>
12    1  0.2762290E-001  0.2115448E+03  0.7546771E-02  0.1141610E+00
         21   -1    0    0  504  503  0.00000000000E+00  0.00000000000E+00  0.68232564565E+02  0.68232564565E+02  0.00000000000E+00 0.  1.
         21   -1    0    0  502  504 -0.00000000000E+00 -0.00000000000E+00 -0.70869386848E+03  0.70869386848E+03  0.00000000000E+00 0.  1.
          6    2    1    2  502    0  0.84963766587E+02 -0.69965158235E+02 -0.20052909602E+03  0.29148433184E+03  0.18065777691E+03 0.  0.
         24    2    3    3    0    0  0.12094046190E+03 -0.82735154958E+02 -0.18591042316E+03  0.25033592946E+03  0.81447473577E+02 0.  0.
         -6    2    1    2    0  503 -0.84963766587E+02  0.69965158235E+02 -0.43993220789E+03  0.48544210120E+03  0.17320427558E+03 0.  0.
        -24    2    5    5    0    0 -0.15000980713E+02 -0.19567845802E+02 -0.12725926123E+03  0.15272989554E+03  0.80768628890E+02 0.  0.
          2    1    4    4  501    0 -0.88037938942E+01 -0.22231936417E+02 -0.34357301476E+02  0.41859168034E+02  0.00000000000E+00 0. -1.
         -1    1    4    4    0  501  0.12974425579E+03 -0.60503218541E+02 -0.15155312168E+03  0.20847676143E+03  0.00000000000E+00 0.  1.
          5    1    3    3  502    0 -0.35976695312E+02  0.12769996724E+02 -0.14618672868E+02  0.41148402379E+02  0.47000000000E+01 0. -1.
         11    1    6    6    0    0  0.23853306827E+02 -0.30238831098E+02 -0.89814314893E+02  0.97723990466E+02  0.00000000000E+00 0. -1.
        -12    1    6    6    0    0 -0.38854287539E+02  0.10670985297E+02 -0.37444946332E+02  0.55005905076E+02  0.00000000000E+00 0.  1.
         -5    1    5    5    0  503 -0.69962785875E+02  0.89533004036E+02 -0.31267294666E+03  0.33271220566E+03  0.47000000000E+01 0.  1.
<mgrwt>
<rscale>  2 0.20994457E+03</rscale>
<asrwt>0</asrwt>
<pdfrwt beam="1">  1       21 0.10497318E-01 0.21154479E+03</pdfrwt>
<pdfrwt beam="2">  1       21 0.10902982E+00 0.21154479E+03</pdfrwt>
<totfact> 0.49205674E+04</totfact>
</mgrwt>
</event>
<event>
12    1  0.2762290E-001  0.2143266E+03  0.7546771E-02  0.1138955E+00
         21   -1    0    0  504  503  0.00000000000E+00  0.00000000000E+00  0.24387924937E+03  0.24387924937E+03  0.00000000000E+00 0.  1.
         21   -1    0    0  502  504 -0.00000000000E+00 -0.00000000000E+00 -0.28663046045E+03  0.28663046045E+03  0.00000000000E+00 0.  1.
          6    2    1    2  502    0 -0.56922393984E+02  0.10541159935E+03 -0.17952781729E+03  0.27958209311E+03  0.17771928819E+03 0.  0.
         24    2    3    3    0    0  0.16197390377E+01  0.32367026813E+02 -0.16293862974E+03  0.18439815508E+03  0.80021463096E+02 0.  0.
         -6    2    1    2    0  503  0.56922393984E+02 -0.10541159935E+03  0.13677660620E+03  0.25092761671E+03  0.17293080874E+03 0.  0.
        -24    2    5    5    0    0  0.34971731679E+02 -0.14138496166E+03  0.88576886758E+02  0.18673090865E+03  0.76222293189E+02 0.  0.
          2    1    4    4  501    0  0.30987217093E+02  0.42848931033E+02 -0.81061499563E+02  0.96784323241E+02  0.00000000000E+00 0. -1.
         -1    1    4    4    0  501 -0.29367478056E+02 -0.10481904220E+02 -0.81877130178E+02  0.87613831840E+02  0.00000000000E+00 0.  1.
          5    1    3    3  502    0 -0.58542133022E+02  0.73044572536E+02 -0.16589187545E+02  0.95183938031E+02  0.47000000000E+01 0. -1.
         13    1    6    6    0    0  0.33817105837E+02 -0.28553473520E+02  0.16451010253E+01  0.44289997230E+02  0.00000000000E+00 0. -1.
        -14    1    6    6    0    0  0.11546258416E+01 -0.11283148814E+03  0.86931785733E+02  0.14244091142E+03  0.00000000000E+00 0.  1.
         -5    1    5    5    0  503  0.21950662305E+02  0.35973362307E+02  0.48199719444E+02  0.64196708061E+02  0.47000000000E+01 0.  1.
<mgrwt>
<rscale>  2 0.21333134E+03</rscale>
<asrwt>0</asrwt>
<pdfrwt beam="1">  1       21 0.37519885E-01 0.21432664E+03</pdfrwt>
<pdfrwt beam="2">  1       21 0.44096994E-01 0.21432664E+03</pdfrwt>
<totfact> 0.33457989E+04</totfact>
</mgrwt>
</event>
<event>
12    1  0.2762290E-001  0.2557053E+03  0.7546771E-02  0.1109814E+00
         21   -1    0    0  504  503  0.00000000000E+00  0.00000000000E+00  0.76132664985E+03  0.76132664985E+03  0.00000000000E+00 0.  1.
         21   -1    0    0  502  504 -0.00000000000E+00 -0.00000000000E+00 -0.25598409444E+03  0.25598409444E+03  0.00000000000E+00 0.  1.
          6    2    1    2  502    0  0.16204790982E+03  0.96346232736E+02 -0.16206773779E+03  0.30273940687E+03  0.17275148393E+03 0.  0.
         24    2    3    3    0    0  0.11274177014E+03  0.38226161066E+01 -0.49678033470E+02  0.14896928402E+03  0.83657763802E+02 0.  0.
         -6    2    1    2    0  503 -0.16204790982E+03 -0.96346232736E+02  0.66741029321E+03  0.71457133742E+03  0.17214405345E+03 0.  0.
        -24    2    5    5    0    0 -0.35730917679E+02 -0.28297630820E+01  0.34289267237E+03  0.35396755369E+03  0.80205599973E+02 0.  0.
          2    1    4    4  501    0  0.91446289350E+02 -0.29631887221E+02 -0.17078244425E+02  0.97632673879E+02  0.00000000000E+00 0. -1.
         -1    1    4    4    0  501  0.21295480786E+02  0.33454503328E+02 -0.32599789045E+02  0.51336610140E+02  0.00000000000E+00 0.  1.
          5    1    3    3  502    0  0.49306139682E+02  0.92523616630E+02 -0.11238970432E+03  0.15377012285E+03  0.47000000000E+01 0. -1.
         13    1    6    6    0    0 -0.15789561065E+02 -0.31652164938E+02  0.66140388925E+02  0.75004805386E+02  0.00000000000E+00 0. -1.
        -14    1    6    6    0    0 -0.19941356614E+02  0.28822401856E+02  0.27675228344E+03  0.27896274831E+03  0.00000000000E+00 0.  1.
         -5    1    5    5    0  503 -0.12631699214E+03 -0.93516469654E+02  0.32451762084E+03  0.36060378372E+03  0.47000000000E+01 0.  1.
<mgrwt>
<rscale>  2 0.25560274E+03</rscale>
<asrwt>0</asrwt>
<pdfrwt beam="1">  1       21 0.11712718E+00 0.25570529E+03</pdfrwt>
<pdfrwt beam="2">  1       21 0.39382169E-01 0.25570529E+03</pdfrwt>
<totfact> 0.33215917E+03</totfact>
</mgrwt>
</event>
<event>
12    1  0.2762290E-001  0.1928045E+03  0.7546771E-02  0.1156900E+00
         21   -1    0    0  504  503  0.00000000000E+00  0.00000000000E+00  0.61861635399E+02  0.61861635399E+02  0.00000000000E+00 0. -1.
         21   -1    0    0  502  504 -0.00000000000E+00 -0.00000000000E+00 -0.64623311100E+03  0.64623311100E+03  0.00000000000E+00 0.  1.
          6    2    1    2  502    0 -0.76740904666E+02 -0.33265202418E+02 -0.40154470441E+03  0.44543429353E+03  0.17371764467E+03 0.  0.
         24    2    3    3    0    0 -0.77044402029E+00 -0.42841697519E+02 -0.32239396910E+03  0.33520657900E+03  0.81176195185E+02 0.  0.
         -6    2    1    2    0  503  0.76740904666E+02  0.33265202418E+02 -0.18282677119E+03  0.26266045287E+03  0.16902409620E+03 0.  0.
        -24    2    5    5    0    0  0.74088421283E+02  0.73648676992E+02 -0.82763012466E+02  0.15462015253E+03  0.78386564830E+02 0.  0.
          4    1    4    4  501    0  0.26483860425E+02 -0.34524917811E+02 -0.79346066347E+02  0.90493994594E+02  0.00000000000E+00 0. -1.
         -3    1    4    4    0  501 -0.27254304445E+02 -0.83167797076E+01 -0.24304790275E+03  0.24471258441E+03  0.00000000000E+00 0.  1.
          5    1    3    3  502    0 -0.75970460646E+02  0.95764951008E+01 -0.79150735309E+02  0.11022771452E+03  0.47000000000E+01 0. -1.
         13    1    6    6    0    0  0.15577374626E+02 -0.16099984713E+02 -0.72530727488E+01  0.23547211561E+02  0.00000000000E+00 0. -1.
        -14    1    6    6    0    0  0.58511046657E+02  0.89748661705E+02 -0.75509939718E+02  0.13107294097E+03  0.00000000000E+00 0.  1.
         -5    1    5    5    0  503  0.26524833834E+01 -0.40383474574E+02 -0.10006375872E+03  0.10804030034E+03  0.47000000000E+01 0.  1.
<mgrwt>
<rscale>  2 0.19174122E+03</rscale>
<asrwt>0</asrwt>
<pdfrwt beam="1">  1       21 0.95171749E-02 0.19280446E+03</pdfrwt>
<pdfrwt beam="2">  1       21 0.99420476E-01 0.19280446E+03</pdfrwt>
<totfact> 0.73699426E+04</totfact>
</mgrwt>
</event>
<event>
12    1  0.2762290E-001  0.2126936E+03  0.7546771E-02  0.1140793E+00
         21   -1    0    0  504  503  0.00000000000E+00  0.00000000000E+00  0.36456865923E+02  0.36456865923E+02  0.00000000000E+00 0. -1.
         21   -1    0    0  502  504 -0.00000000000E+00 -0.00000000000E+00 -0.12131965094E+04  0.12131965094E+04  0.00000000000E+00 0.  1.
          6    2    1    2  502    0 -0.94068161180E+02 -0.58835981253E+02 -0.53692024471E+03  0.57751354999E+03  0.18146090379E+03 0.  0.
         24    2    3    3    0    0  0.20354765833E+02 -0.42881845212E+02 -0.28120654329E+03  0.29687369577E+03  0.82484556788E+02 0.  0.
         -6    2    1    2    0  503  0.94068161180E+02  0.58835981253E+02 -0.63981939880E+03  0.67213982537E+03  0.17347215951E+03 0.  0.
        -24    2    5    5    0    0  0.11445874507E+03  0.67285833442E+02 -0.34349092589E+03  0.37495330183E+03  0.70539171248E+02 0.  0.
          4    1    4    4  501    0  0.14155768365E+02  0.82610240038E+01 -0.69197905192E+01  0.17790834619E+02  0.00000000000E+00 0. -1.
         -3    1    4    4    0  501  0.61989974681E+01 -0.51142869216E+02 -0.27428675277E+03  0.27908286115E+03  0.00000000000E+00 0.  1.
          5    1    3    3  502    0 -0.11442292701E+03 -0.15954136041E+02 -0.25571370142E+03  0.28063985422E+03  0.47000000000E+01 0. -1.
         11    1    6    6    0    0 -0.84265262541E+01 -0.44982604235E+00 -0.96300017507E+01  0.12804125191E+02  0.00000000000E+00 0. -1.
        -12    1    6    6    0    0  0.12288527133E+03  0.67735659485E+02 -0.33386092414E+03  0.36214917664E+03  0.00000000000E+00 0.  1.
         -5    1    5    5    0  503 -0.20390583894E+02 -0.84498521895E+01 -0.29632847291E+03  0.29718652353E+03  0.47000000000E+01 0.  1.
<mgrwt>
<rscale>  2 0.21097959E+03</rscale>
<asrwt>0</asrwt>
<pdfrwt beam="1">  1       21 0.56087497E-02 0.21269356E+03</pdfrwt>
<pdfrwt beam="2">  1       21 0.18664558E+00 0.21269356E+03</pdfrwt>
<totfact> 0.35846512E+04</totfact>
</mgrwt>
</event>
<event>
12    1  0.2762290E-001  0.1887811E+03  0.7546771E-02  0.1159988E+00
         21   -1    0    0  504  503  0.00000000000E+00  0.00000000000E+00  0.25313431562E+02  0.25313431562E+02  0.00000000000E+00 0. -1.
         21   -1    0    0  502  504 -0.00000000000E+00 -0.00000000000E+00 -0.15238616719E+04  0.15238616719E+04  0.00000000000E+00 0. -1.
          6    2    1    2  502    0 -0.59318762076E+02  0.45056297944E+02 -0.97864201263E+03  0.99668374610E+03  0.17346329683E+03 0.  0.
         24    2    3    3    0    0 -0.66413515125E+02 -0.31623758553E+02 -0.46544946864E+03  0.47772436061E+03  0.78527318609E+02 0.  0.
         -6    2    1    2    0  503  0.59318762076E+02 -0.45056297944E+02 -0.51990622775E+03  0.55249135740E+03  0.17145095167E+03 0.  0.
        -24    2    5    5    0    0  0.91897547159E+02  0.18714499789E+01 -0.30061816991E+03  0.32583537783E+03  0.85724838098E+02 0.  0.
          2    1    4    4  501    0 -0.69912425732E+02  0.38851540029E+01 -0.34800761673E+03  0.35498189108E+03  0.00000000000E+00 0. -1.
         -1    1    4    4    0  501  0.34989106070E+01 -0.35508912556E+02 -0.11744185191E+03  0.12274246953E+03  0.00000000000E+00 0.  1.
          5    1    3    3  502    0  0.70947530492E+01  0.76680056497E+02 -0.51319254398E+03  0.51895938549E+03  0.47000000000E+01 0. -1.
         13    1    6    6    0    0  0.49648201925E+02  0.43768536853E+02 -0.15871064779E+03  0.17195842083E+03  0.00000000000E+00 0. -1.
        -14    1    6    6    0    0  0.42249345234E+02 -0.41897086874E+02 -0.14190752212E+03  0.15387695700E+03  0.00000000000E+00 0.  1.
         -5    1    5    5    0  503 -0.32578785084E+02 -0.46927747923E+02 -0.21928805784E+03  0.22665597957E+03  0.47000000000E+01 0.  1.
<mgrwt>
<rscale>  2 0.18831754E+03</rscale>
<asrwt>0</asrwt>
<pdfrwt beam="1">  1       21 0.38943741E-02 0.18878109E+03</pdfrwt>
<pdfrwt beam="2">  1       21 0.23444026E+00 0.18878109E+03</pdfrwt>
<totfact> 0.33804751E+04</totfact>
</mgrwt>
</event>
<event>
12    1  0.2762290E-001  0.2317667E+03  0.7546771E-02  0.1125498E+00
         21   -1    0    0  504  503  0.00000000000E+00  0.00000000000E+00  0.20689001389E+03  0.20689001389E+03  0.00000000000E+00 0. -1.
         21   -1    0    0  502  504 -0.00000000000E+00 -0.00000000000E+00 -0.65797622377E+03  0.65797622377E+03  0.00000000000E+00 0. -1.
          6    2    1    2  502    0 -0.75090956403E+02  0.13415775649E+03 -0.56237434096E+03  0.60826039389E+03  0.17343255762E+03 0.  0.
         24    2    3    3    0    0 -0.20449232269E+02  0.11487754647E+02 -0.12656430440E+03  0.15220543521E+03  0.81227038307E+02 0.  0.
         -6    2    1    2    0  503  0.75090956403E+02 -0.13415775649E+03  0.11128813108E+03  0.25660584377E+03  0.17269787369E+03 0.  0.
        -24    2    5    5    0    0 -0.69504628144E+01 -0.47556372208E+02  0.10007387164E+03  0.13669569474E+03  0.79755975978E+02 0.  0.
          2    1    4    4  501    0 -0.50874971630E+02  0.23896346651E+01 -0.61866312232E+02  0.80133723746E+02  0.00000000000E+00 0. -1.
         -1    1    4    4    0  501  0.30425739361E+02  0.90981199815E+01 -0.64697992165E+02  0.72071711462E+02  0.00000000000E+00 0.  1.
          5    1    3    3  502    0 -0.54641724134E+02  0.12267000185E+03 -0.43581003656E+03  0.45605495868E+03  0.47000000000E+01 0. -1.
         13    1    6    6    0    0  0.33362394790E+02 -0.13125468941E+02  0.61300875286E+02  0.71014960620E+02  0.00000000000E+00 0. -1.
        -14    1    6    6    0    0 -0.40312857605E+02 -0.34430903267E+02  0.38772996350E+02  0.65680734116E+02  0.00000000000E+00 0.  1.
         -5    1    5    5    0  503  0.82041419218E+02 -0.86601384285E+02  0.11214259444E+02  0.11991014904E+03  0.47000000000E+01 0.  1.
<mgrwt>
<rscale>  2 0.23162927E+03</rscale>
<asrwt>0</asrwt>
<pdfrwt beam="1">  1       21 0.31829234E-01 0.23176671E+03</pdfrwt>
<pdfrwt beam="2">  1       21 0.10122711E+00 0.23176671E+03</pdfrwt>
<totfact> 0.73642632E+03</totfact>
</mgrwt>
</event>
<event>
12    1  0.2762290E-001  0.2121236E+03  0.7546771E-02  0.1139939E+00
         21   -1    0    0  504  503  0.00000000000E+00  0.00000000000E+00  0.44837964540E+03  0.44837964540E+03  0.00000000000E+00 0.  1.
         21   -1    0    0  502  504 -0.00000000000E+00 -0.00000000000E+00 -0.12687192799E+03  0.12687192799E+03  0.00000000000E+00 0. -1.
          6    2    1    2  502    0 -0.10674317521E+02 -0.12219238977E+03  0.28928643590E+02  0.21386682516E+03  0.17279245155E+03 0.  0.
         24    2    3    3    0    0  0.39974089685E+02 -0.12259826596E+02  0.17352023377E+02  0.92184707599E+02  0.80303775787E+02 0.  0.
         -6    2    1    2    0  503  0.10674317521E+02  0.12219238977E+03  0.29257907381E+03  0.36138474823E+03  0.17306501856E+03 0.  0.
        -24    2    5    5    0    0 -0.73311087705E+01  0.83374462622E+02  0.72063709247E+02  0.13670688360E+03  0.80563935238E+02 0.  0.
          2    1    4    4  501    0  0.49233170495E+02 -0.36578612746E+02  0.79008067463E+00  0.61339418116E+02  0.00000000000E+00 0. -1.
         -1    1    4    4    0  501 -0.92590808102E+01  0.24318786149E+02  0.16561942702E+02  0.30845289483E+02  0.00000000000E+00 0.  1.
          5    1    3    3  502    0 -0.50648407205E+02 -0.10993256317E+03  0.11576620214E+02  0.12168211756E+03  0.47000000000E+01 0. -1.
         13    1    6    6    0    0  0.35797085162E+02  0.47061614147E+02  0.29594982959E+02  0.66121780440E+02  0.00000000000E+00 0. -1.
        -14    1    6    6    0    0 -0.43128193932E+02  0.36312848475E+02  0.42468726287E+02  0.70585103164E+02  0.00000000000E+00 0.  1.
         -5    1    5    5    0  503  0.18005426291E+02  0.38817927147E+02  0.22051536456E+03  0.22467786463E+03  0.47000000000E+01 0.  1.
<mgrwt>
<rscale>  2 0.21206800E+03</rscale>
<asrwt>0</asrwt>
<pdfrwt beam="1">  1       21 0.68981483E-01 0.21212360E+03</pdfrwt>
<pdfrwt beam="2">  1       21 0.19518758E-01 0.21212360E+03</pdfrwt>
<totfact> 0.45781410E+04</totfact>
</mgrwt>
</event>
<event>
12    1  0.2762290E-001  0.2019133E+03  0.7546771E-02  0.1148399E+00
         21   -1    0    0  504  503  0.00000000000E+00  0.00000000000E+00  0.21361295812E+04  0.21361295812E+04  0.00000000000E+00 0. -1.
         21   -1    0    0  502  504 -0.00000000000E+00 -0.00000000000E+00 -0.27647209715E+02  0.27647209715E+02  0.00000000000E+00 0. -1.
          6    2    1    2  502    0 -0.99545059006E+02  0.22151382699E+02  0.44573725367E+03  0.48881700148E+03  0.17280179136E+03 0.  0.
         24    2    3    3    0    0 -0.60999873413E+02  0.45996775810E+02  0.42409578396E+03  0.43837121557E+03  0.80469874635E+02 0.  0.
         -6    2    1    2    0  503  0.99545059006E+02 -0.22151382699E+02  0.16627451178E+04  0.16749597894E+04  0.17426722837E+03 0.  0.
        -24    2    5    5    0    0  0.13447473265E+02 -0.32872363366E+01  0.39680137235E+03  0.40594272612E+03  0.84537135846E+02 0.  0.
          2    1    4    4  501    0 -0.32648686697E+02  0.50674791590E+02  0.13495788596E+03  0.14780900591E+03  0.00000000000E+00 0. -1.
         -1    1    4    4    0  501 -0.28351186716E+02 -0.46780157806E+01  0.28913789800E+03  0.29056220966E+03  0.00000000000E+00 0.  1.
          5    1    3    3  502    0 -0.38545185593E+02 -0.23845393111E+02  0.21641469712E+02  0.50445785912E+02  0.47000000000E+01 0. -1.
         13    1    6    6    0    0 -0.16984230458E+02  0.30515162952E+02  0.24491962996E+03  0.24739697733E+03  0.00000000000E+00 0. -1.
        -14    1    6    6    0    0  0.30431703722E+02 -0.33802399289E+02  0.15188174239E+03  0.15854574879E+03  0.00000000000E+00 0.  1.
         -5    1    5    5    0  503  0.86097585741E+02 -0.18864146362E+02  0.12659437455E+04  0.12690170633E+04  0.47000000000E+01 0.  1.
<mgrwt>
<rscale>  2 0.20159667E+03</rscale>
<asrwt>0</asrwt>
<pdfrwt beam="1">  1       21 0.32863519E+00 0.20191327E+03</pdfrwt>
<pdfrwt beam="2">  1       21 0.42534185E-02 0.20191327E+03</pdfrwt>
<totfact> 0.81565298E+03</totfact>
</mgrwt>
</event>
<event>
12    1  0.2762290E-001  0.1842818E+03  0.7546771E-02  0.1164021E+00
         21   -1    0    0  504  503  0.00000000000E+00  0.00000000000E+00  0.52566772742E+02  0.52566772742E+02  0.00000000000E+00 0.  1.
         21   -1    0    0  502  504 -0.00000000000E+00 -0.00000000000E+00 -0.82461644120E+03  0.82461644120E+03  0.00000000000E+00 0.  1.
          6    2    1    2  502    0 -0.42635741981E+02  0.42100936120E+02 -0.59161674039E+03  0.61927662204E+03  0.17292446840E+03 0.  0.
         24    2    3    3    0    0 -0.57284124979E+02  0.88130899253E+02 -0.39708636891E+03  0.41878350979E+03  0.81569095361E+02 0.  0.
         -6    2    1    2    0  503  0.42635741981E+02 -0.42100936120E+02 -0.18043292806E+03  0.25790659190E+03  0.17426839444E+03 0.  0.
        -24    2    5    5    0    0  0.23817927775E+02 -0.11912079431E+02 -0.10278400755E+02  0.84009696120E+02  0.79011342225E+02 0.  0.
          4    1    4    4  501    0 -0.65376722059E+02  0.59584978473E+02 -0.18999205976E+03  0.20957449325E+03  0.00000000000E+00 0. -1.
         -3    1    4    4    0  501  0.80925970794E+01  0.28545920780E+02 -0.20709430915E+03  0.20920901654E+03  0.00000000000E+00 0.  1.
          5    1    3    3  502    0  0.14648382999E+02 -0.46029963132E+02 -0.19453037148E+03  0.20049311225E+03  0.47000000000E+01 0. -1.
         11    1    6    6    0    0  0.19296211311E+02  0.35412101973E+01 -0.43153337422E+02  0.47403528047E+02  0.00000000000E+00 0. -1.
        -12    1    6    6    0    0  0.45217164633E+01 -0.15453289629E+02  0.32874936667E+02  0.36606168073E+02  0.00000000000E+00 0.  1.
         -5    1    5    5    0  503  0.18817814206E+02 -0.30188856689E+02 -0.17015452731E+03  0.17389689578E+03  0.47000000000E+01 0.  1.
<mgrwt>
<rscale>  2 0.18396335E+03</rscale>
<asrwt>0</asrwt>
<pdfrwt beam="1">  1       21 0.80871966E-02 0.18428176E+03</pdfrwt>
<pdfrwt beam="2">  1       21 0.12686406E+00 0.18428176E+03</pdfrwt>
<totfact> 0.54361252E+04</totfact>
</mgrwt>
</event>
<event>
12    1  0.2762290E-001  0.1882520E+03  0.7546771E-02  0.1160144E+00
         21   -1    0    0  504  503  0.00000000000E+00  0.00000000000E+00  0.24879228800E+02  0.24879228800E+02  0.00000000000E+00 0.  1.
         21   -1    0    0  502  504 -0.00000000000E+00 -0.00000000000E+00 -0.17766291169E+04  0.17766291169E+04  0.00000000000E+00 0.  1.
          6    2    1    2  502    0  0.61479734975E+01 -0.72096394778E+02 -0.12795190821E+04  0.12932934286E+04  0.17379045734E+03 0.  0.
         24    2    3    3    0    0 -0.15944735964E+01 -0.11352054189E+03 -0.11096879200E+04  0.11182488082E+04  0.78636261783E+02 0.  0.
         -6    2    1    2    0  503 -0.61479734975E+01  0.72096394778E+02 -0.47223080596E+03  0.50821491715E+03  0.17333430184E+03 0.  0.
        -24    2    5    5    0    0 -0.50046260237E+02 -0.84711953636E-01 -0.17631376712E+03  0.20043877183E+03  0.81145064162E+02 0.  0.
          4    1    4    4  501    0 -0.34542873777E+02 -0.64133828497E+02 -0.44587345866E+03  0.45178479305E+03  0.00000000000E+00 0. -1.
         -3    1    4    4    0  501  0.32948400181E+02 -0.49386713388E+02 -0.66381446130E+03  0.66646401520E+03  0.00000000000E+00 0.  1.
          5    1    3    3  502    0  0.77424470939E+01  0.41424147108E+02 -0.16983116219E+03  0.17504462031E+03  0.47000000000E+01 0. -1.
         11    1    6    6    0    0  0.54262447507E+00 -0.19266380864E+02 -0.38065471446E+01  0.19646314517E+02  0.00000000000E+00 0. -1.
        -12    1    6    6    0    0 -0.50588884712E+02  0.19181668911E+02 -0.17250721997E+03  0.18079245731E+03  0.00000000000E+00 0.  1.
         -5    1    5    5    0  503  0.43898286740E+02  0.72181106732E+02 -0.29591703884E+03  0.30777614532E+03  0.47000000000E+01 0.  1.
<mgrwt>
<rscale>  2 0.18814664E+03</rscale>
<asrwt>0</asrwt>
<pdfrwt beam="1">  1       21 0.38275735E-02 0.18825199E+03</pdfrwt>
<pdfrwt beam="2">  1       21 0.27332757E+00 0.18825199E+03</pdfrwt>
<totfact> 0.20599596E+04</totfact>
</mgrwt>
</event>
<event>
12    1  0.2762290E-001  0.2019980E+03  0.7546771E-02  0.1148419E+00
         21   -1    0    0  504  503  0.00000000000E+00  0.00000000000E+00  0.11077708165E+03  0.11077708165E+03  0.00000000000E+00 0. -1.
         21   -1    0    0  502  504 -0.00000000000E+00 -0.00000000000E+00 -0.38159105341E+03  0.38159105341E+03  0.00000000000E+00 0.  1.
          6    2    1    2  502    0  0.10372172996E+03 -0.34283419976E-02 -0.18580168217E+03  0.27321005119E+03  0.17135714079E+03 0.  0.
         24    2    3    3    0    0  0.12927367408E+03 -0.17376597539E+02 -0.18687680059E+03  0.24193746358E+03  0.81222956928E+02 0.  0.
         -6    2    1    2    0  503 -0.10372172996E+03  0.34283419976E-02 -0.85012289594E+02  0.21915808388E+03  0.17333487551E+03 0.  0.
        -24    2    5    5    0    0 -0.60132766996E+02  0.62495733582E+02 -0.26845990052E+02  0.12318572166E+03  0.83260725779E+02 0.  0.
          2    1    4    4  501    0  0.48049283251E+02 -0.32253873017E+02 -0.31272497173E+02  0.65780050357E+02  0.00000000000E+00 0. -1.
         -1    1    4    4    0  501  0.81224390829E+02  0.14877275478E+02 -0.15560430342E+03  0.17615741322E+03  0.00000000000E+00 0.  1.
          5    1    3    3  502    0 -0.25551944123E+02  0.17373169197E+02  0.10751184231E+01  0.31272587613E+02  0.47000000000E+01 0. -1.
         11    1    6    6    0    0 -0.58933809138E+02  0.73055475618E+02 -0.43481440727E+02  0.10344530954E+03  0.00000000000E+00 0. -1.
        -12    1    6    6    0    0 -0.11989578587E+01 -0.10559742035E+02  0.16635450676E+02  0.19740412128E+02  0.00000000000E+00 0.  1.
         -5    1    5    5    0  503 -0.43588962960E+02 -0.62492305240E+02 -0.58166299543E+02  0.95972362213E+02  0.47000000000E+01 0.  1.
<mgrwt>
<rscale>  2 0.20157299E+03</rscale>
<asrwt>0</asrwt>
<pdfrwt beam="1">  1       21 0.17042628E-01 0.20199796E+03</pdfrwt>
<pdfrwt beam="2">  1       21 0.58706315E-01 0.20199796E+03</pdfrwt>
<totfact> 0.83977145E+04</totfact>
</mgrwt>
</event>
<event>
12    1  0.2762290E-001  0.1765264E+03  0.7546771E-02  0.1171809E+00
         21   -1    0    0  504  503  0.00000000000E+00  0.00000000000E+00  0.54858751842E+03  0.54858751842E+03  0.00000000000E+00 0.  1.
         21   -1    0    0  502  504 -0.00000000000E+00 -0.00000000000E+00 -0.56073115191E+02  0.56073115191E+02  0.00000000000E+00 0.  1.
          6    2    1    2  502    0  0.26197634034E+02  0.21574115639E+02  0.23636954619E+03  0.29357902931E+03  0.17078151419E+03 0.  0.
         24    2    3    3    0    0 -0.49502226648E+02  0.87931873796E+00  0.11421544759E+03  0.14831218061E+03  0.80623140629E+02 0.  0.
         -6    2    1    2    0  503 -0.26197634034E+02 -0.21574115639E+02  0.25614485704E+03  0.31108160431E+03  0.17323342129E+03 0.  0.
        -24    2    5    5    0    0  0.20346096687E+01 -0.51863760471E+02  0.64582285381E+02  0.11503867270E+03  0.79806236259E+02 0.  0.
          2    1    4    4  501    0 -0.31627595556E+01 -0.28862870732E+02  0.75805485228E+02  0.81175981334E+02  0.00000000000E+00 0. -1.
         -1    1    4    4    0  501 -0.46339467092E+02  0.29742189470E+02  0.38409962366E+02  0.67136199280E+02  0.00000000000E+00 0.  1.
          5    1    3    3  502    0  0.75699860682E+02  0.20694796901E+02  0.12215409860E+03  0.14526684869E+03  0.47000000000E+01 0. -1.
         13    1    6    6    0    0 -0.25666422694E+02 -0.57626677802E+02  0.28600018870E+02  0.69264423247E+02  0.00000000000E+00 0. -1.
        -14    1    6    6    0    0  0.27701032362E+02  0.57629173310E+01  0.35982266511E+02  0.45774249457E+02  0.00000000000E+00 0.  1.
         -5    1    5    5    0  503 -0.28232243703E+02  0.30289644833E+02  0.19156257166E+03  0.19604293160E+03  0.47000000000E+01 0.  1.
<mgrwt>
<rscale>  2 0.17592194E+03</rscale>
<asrwt>0</asrwt>
<pdfrwt beam="1">  1       21 0.84398076E-01 0.17652642E+03</pdfrwt>
<pdfrwt beam="2">  1       21 0.86266335E-02 0.17652642E+03</pdfrwt>
<totfact> 0.12889113E+05</totfact>
</mgrwt>
</event>
<event>
12    1  0.2762290E-001  0.2012754E+03  0.7546771E-02  0.1148745E+00
         21   -1    0    0  504  503  0.00000000000E+00  0.00000000000E+00  0.12981430294E+04  0.12981430294E+04  0.00000000000E+00 0.  1.
         21   -1    0    0  502  504 -0.00000000000E+00 -0.00000000000E+00 -0.36729727818E+02  0.36729727818E+02  0.00000000000E+00 0.  1.
          6    2    1    2  502    0  0.53110005697E+02 -0.87609593974E+02  0.37105566829E+03  0.42213040892E+03  0.17325027993E+03 0.  0.
         24    2    3    3    0    0  0.32089725064E+02 -0.12779307648E+03  0.29970369205E+03  0.33745597961E+03  0.81813289226E+02 0.  0.
         -6    2    1    2    0  503 -0.53110005697E+02  0.87609593974E+02  0.89035763333E+03  0.91274234834E+03  0.17281714489E+03 0.  0.
        -24    2    5    5    0    0 -0.14218432733E+02  0.58218106700E+02  0.23594992755E+03  0.25650462514E+03  0.80813010277E+02 0.  0.
          4    1    4    4  501    0  0.53754376481E+02 -0.81714497578E+02  0.23890767309E+03  0.25815434989E+03  0.00000000000E+00 0. -1.
         -3    1    4    4    0  501 -0.21664651417E+02 -0.46078578905E+02  0.60796018962E+02  0.79301629722E+02  0.00000000000E+00 0.  1.
          5    1    3    3  502    0  0.21020280633E+02  0.40183482508E+02  0.71351976243E+02  0.84674429305E+02  0.47000000000E+01 0. -1.
         13    1    6    6    0    0 -0.23247466206E+02  0.76455256080E+02  0.17898561051E+03  0.19601453935E+03  0.00000000000E+00 0. -1.
        -14    1    6    6    0    0  0.90290334727E+01 -0.18237149379E+02  0.56964317040E+02  0.60490085789E+02  0.00000000000E+00 0.  1.
         -5    1    5    5    0  503 -0.38891572964E+02  0.29391487274E+02  0.65440770578E+03  0.65623772320E+03  0.47000000000E+01 0.  1.
<mgrwt>
<rscale>  2 0.20118213E+03</rscale>
<asrwt>0</asrwt>
<pdfrwt beam="1">  1       21 0.19971428E+00 0.20127537E+03</pdfrwt>
<pdfrwt beam="2">  1       21 0.56507284E-02 0.20127537E+03</pdfrwt>
<totfact> 0.29275413E+04</totfact>
</mgrwt>
</event>
<event>
12    1  0.2762290E-001  0.1936200E+03  0.7546771E-02  0.1155286E+00
         21   -1    0    0  504  503  0.00000000000E+00  0.00000000000E+00  0.27644288361E+03  0.27644288361E+03  0.00000000000E+00 0.  1.
         21   -1    0    0  502  504 -0.00000000000E+00 -0.00000000000E+00 -0.18131616721E+03  0.18131616721E+03  0.00000000000E+00 0. -1.
          6    2    1    2  502    0 -0.60952342814E+01 -0.86646630275E+02 -0.67528345545E+02  0.20505803908E+03  0.17304314931E+03 0.  0.
         24    2    3    3    0    0  0.21403956449E+02  0.17813815027E+02 -0.22617277636E+02  0.87979927790E+02  0.80333461825E+02 0.  0.
         -6    2    1    2    0  503  0.60952342814E+01  0.86646630275E+02  0.16265506195E+03  0.25270101173E+03  0.17278987741E+03 0.  0.
        -24    2    5    5    0    0  0.42711774497E+02 -0.14851597436E+02  0.92482471172E+02  0.12390293821E+03  0.68949728041E+02 0.  0.
          2    1    4    4  501    0 -0.30529667400E+02  0.35268729359E+01 -0.40083811317E+01  0.30993007979E+02  0.00000000000E+00 0. -1.
         -1    1    4    4    0  501  0.51933623849E+02  0.14286942091E+02 -0.18608896504E+02  0.56986919811E+02  0.00000000000E+00 0.  1.
          5    1    3    3  502    0 -0.27499190731E+02 -0.10446044530E+03 -0.44911067909E+02  0.11707811129E+03  0.47000000000E+01 0. -1.
         11    1    6    6    0    0  0.60143488458E+02 -0.10731393478E+02  0.54337037187E+02  0.81761333283E+02  0.00000000000E+00 0. -1.
        -12    1    6    6    0    0 -0.17431713961E+02 -0.41202039580E+01  0.38145433985E+02  0.42141604931E+02  0.00000000000E+00 0.  1.
         -5    1    5    5    0  503 -0.36616540216E+02  0.10149822771E+03  0.70172590779E+02  0.12879807352E+03  0.47000000000E+01 0.  1.
<mgrwt>
<rscale>  2 0.19356344E+03</rscale>
<asrwt>0</asrwt>
<pdfrwt beam="1">  1       21 0.42529674E-01 0.19362005E+03</pdfrwt>
<pdfrwt beam="2">  1       21 0.27894795E-01 0.19362005E+03</pdfrwt>
<totfact> 0.65250833E+04</totfact>
</mgrwt>
</event>
<event>
12    1  0.2762290E-001  0.2056124E+03  0.7546771E-02  0.1146087E+00
         21   -1    0    0  504  503  0.00000000000E+00  0.00000000000E+00  0.11824463590E+02  0.11824463590E+02  0.00000000000E+00 0.  1.
         21   -1    0    0  502  504 -0.00000000000E+00 -0.00000000000E+00 -0.35089950567E+04  0.35089950567E+04  0.00000000000E+00 0.  1.
          6    2    1    2  502    0  0.91965152624E+01  0.11042457800E+03 -0.16452458786E+04  0.16580441672E+04  0.17320016189E+03 0.  0.
         24    2    3    3    0    0 -0.13679904069E+01  0.50254710905E+02 -0.38238207810E+03  0.39369489178E+03  0.79070897279E+02 0.  0.
         -6    2    1    2    0  503 -0.91965152624E+01 -0.11042457800E+03 -0.18519247145E+04  0.18627753530E+04  0.16741775437E+03 0.  0.
        -24    2    5    5    0    0  0.47241922379E+02 -0.92645197262E+02 -0.15163431183E+04  0.15219843594E+04  0.79529907390E+02 0.  0.
          4    1    4    4  501    0  0.25738508432E+02  0.54905515408E+02 -0.31726625828E+03  0.32300923374E+03  0.00000000000E+00 0. -1.
         -3    1    4    4    0  501 -0.27106498839E+02 -0.46508045028E+01 -0.65115819824E+02  0.70685658044E+02  0.00000000000E+00 0.  1.
          5    1    3    3  502    0  0.10564505669E+02  0.60169867094E+02 -0.12628638005E+04  0.12643492755E+04  0.47000000000E+01 0. -1.
         13    1    6    6    0    0  0.36082912880E+02 -0.10218694106E+03 -0.10866470850E+04  0.10920375611E+04  0.00000000000E+00 0. -1.
        -14    1    6    6    0    0  0.11159009500E+02  0.95417438024E+01 -0.42969603323E+03  0.42994679827E+03  0.00000000000E+00 0.  1.
         -5    1    5    5    0  503 -0.56438437642E+02 -0.17779380737E+02 -0.33558159620E+03  0.34079099361E+03  0.47000000000E+01 0.  1.
<mgrwt>
<rscale>  2 0.20438987E+03</rscale>
<asrwt>0</asrwt>
<pdfrwt beam="1">  1       21 0.18191434E-02 0.20561240E+03</pdfrwt>
<pdfrwt beam="2">  1       21 0.53984684E+00 0.20561240E+03</pdfrwt>
<totfact> 0.13759347E+03</totfact>
</mgrwt>
</event>
<event>
12    1  0.2762290E-001  0.1794174E+03  0.7546771E-02  0.1168584E+00
         21   -1    0    0  504  503  0.00000000000E+00  0.00000000000E+00  0.80961693566E+03  0.80961693566E+03  0.00000000000E+00 0.  1.
         21   -1    0    0  502  504 -0.00000000000E+00 -0.00000000000E+00 -0.98848506299E+02  0.98848506299E+02  0.00000000000E+00 0. -1.
          6    2    1    2  502    0  0.30137812962E+02  0.36181911040E+02  0.39629058370E+01  0.17946112681E+03  0.17312762044E+03 0.  0.
         24    2    3    3    0    0  0.14198227901E+02 -0.42735577792E+02  0.24813332376E+02  0.96161242645E+02  0.81261084405E+02 0.  0.
         -6    2    1    2    0  503 -0.30137812962E+02 -0.36181911040E+02  0.70680552352E+03  0.72900431515E+03  0.17220866692E+03 0.  0.
        -24    2    5    5    0    0 -0.21568072254E+02 -0.50689468167E+02  0.20825020409E+03  0.23014220374E+03  0.81010385206E+02 0.  0.
          4    1    4    4  501    0 -0.33327911722E+02 -0.97174120293E+01  0.13180927935E+02  0.37133740150E+02  0.00000000000E+00 0. -1.
         -3    1    4    4    0  501  0.47526139623E+02 -0.33018165762E+02  0.11632404441E+02  0.59027502495E+02  0.00000000000E+00 0.  1.
          5    1    3    3  502    0  0.15939585061E+02  0.78917488832E+02 -0.20850426539E+02  0.83299884168E+02  0.47000000000E+01 0. -1.
         13    1    6    6    0    0  0.30149000617E+02 -0.10812438714E+02  0.56721719719E+02  0.65140038049E+02  0.00000000000E+00 0. -1.
        -14    1    6    6    0    0 -0.51717072870E+02 -0.39877029452E+02  0.15152848438E+03  0.16500216569E+03  0.00000000000E+00 0.  1.
         -5    1    5    5    0  503 -0.85697407087E+01  0.14507557126E+02  0.49855531943E+03  0.49886211141E+03  0.47000000000E+01 0.  1.
<mgrwt>
<rscale>  2 0.17919531E+03</rscale>
<asrwt>0</asrwt>
<pdfrwt beam="1">  1       21 0.12455645E+00 0.17941737E+03</pdfrwt>
<pdfrwt beam="2">  1       21 0.15207463E-01 0.17941737E+03</pdfrwt>
<totfact> 0.18573432E+04</totfact>
</mgrwt>
</event>
<event>
12    1  0.2762290E-001  0.2071558E+03  0.7546771E-02  0.1143863E+00
         21   -1    0    0  504  503  0.00000000000E+00  0.00000000000E+00  0.88012895658E+02  0.88012895658E+02  0.00000000000E+00 0.  1.
         21   -1    0    0  502  504 -0.00000000000E+00 -0.00000000000E+00 -0.48769664344E+03  0.48769664344E+03  0.00000000000E+00 0.  1.
          6    2    1    2  502    0  0.86660569146E+02 -0.74351066766E+02 -0.19145381111E+03  0.28198645692E+03  0.17269529444E+03 0.  0.
         24    2    3    3    0    0  0.42073796878E+02 -0.20255974696E+02 -0.18945816026E+03  0.21169896251E+03  0.82106926299E+02 0.  0.
         -6    2    1    2    0  503 -0.86660569146E+02  0.74351066766E+02 -0.20822993667E+03  0.29372308217E+03  0.17284503784E+03 0.  0.
        -24    2    5    5    0    0 -0.10545982391E+01  0.88670341236E+02 -0.13345571887E+03  0.17906403315E+03  0.79937209585E+02 0.  0.
          4    1    4    4  501    0  0.58680021849E+02 -0.55693999565E+01 -0.17636050136E+03  0.18594996537E+03  0.00000000000E+00 0. -1.
         -3    1    4    4    0  501 -0.16606224971E+02 -0.14686574739E+02 -0.13097658896E+02  0.25748997144E+02  0.00000000000E+00 0.  1.
          5    1    3    3  502    0  0.44586772268E+02 -0.54095092071E+02 -0.19956508545E+01  0.70287494405E+02  0.47000000000E+01 0. -1.
         13    1    6    6    0    0 -0.86116172522E+01  0.46257666633E+02 -0.97237269245E+01  0.48046670429E+02  0.00000000000E+00 0. -1.
        -14    1    6    6    0    0  0.75570190131E+01  0.42412674603E+02 -0.12373199195E+03  0.13101736272E+03  0.00000000000E+00 0.  1.
         -5    1    5    5    0  503 -0.85605970907E+02 -0.14319274470E+02 -0.74774217795E+02  0.11465904902E+03  0.47000000000E+01 0.  1.
<mgrwt>
<rscale>  2 0.20712460E+03</rscale>
<asrwt>0</asrwt>
<pdfrwt beam="1">  1       21 0.13540446E-01 0.20715584E+03</pdfrwt>
<pdfrwt beam="2">  1       21 0.75030253E-01 0.20715584E+03</pdfrwt>
<totfact> 0.74539916E+04</totfact>
</mgrwt>
</event>
<event>
12    1  0.2762290E-001  0.3662886E+03  0.7546771E-02  0.1056129E+00
         21   -1    0    0  504  503  0.00000000000E+00  0.00000000000E+00  0.12098212360E+03  0.12098212360E+03  0.00000000000E+00 0. -1.
         21   -1    0    0  502  504 -0.00000000000E+00 -0.00000000000E+00 -0.13891704190E+04  0.13891704190E+04  0.00000000000E+00 0.  1.
          6    2    1    2  502    0 -0.15294403020E+03  0.28416140763E+03 -0.97329747840E+03  0.10399101157E+04  0.17310541680E+03 0.  0.
         24    2    3    3    0    0 -0.37453023485E+02  0.18427890627E+03 -0.44141443704E+03  0.48652386145E+03  0.80605944385E+02 0.  0.
         -6    2    1    2    0  503  0.15294403020E+03 -0.28416140763E+03 -0.29489081699E+03  0.47024242687E+03  0.17328521035E+03 0.  0.
        -24    2    5    5    0    0  0.13213645974E+03 -0.27244912409E+03 -0.19851011653E+03  0.37083688379E+03  0.80157088297E+02 0.  0.
          2    1    4    4  501    0 -0.41794933854E+02  0.19049475898E+03 -0.43450226249E+03  0.47626388253E+03  0.00000000000E+00 0. -1.
         -1    1    4    4    0  501  0.43419103695E+01 -0.62158527043E+01 -0.69121745534E+01  0.10259978926E+02  0.00000000000E+00 0.  1.
          5    1    3    3  502    0 -0.11549100671E+03  0.99882501361E+02 -0.53188304136E+03  0.55338625425E+03  0.47000000000E+01 0. -1.
         11    1    6    6    0    0  0.35646156899E+01  0.56729791598E+01 -0.27821409673E+01  0.72546182482E+01  0.00000000000E+00 0. -1.
        -12    1    6    6    0    0  0.12857184405E+03 -0.27812210325E+03 -0.19572797556E+03  0.36358226555E+03  0.00000000000E+00 0.  1.
         -5    1    5    5    0  503  0.20807570456E+02 -0.11712283540E+02 -0.96380700460E+02  0.99405543081E+02  0.47000000000E+01 0.  1.
<mgrwt>
<rscale>  2 0.36626735E+03</rscale>
<asrwt>0</asrwt>
<pdfrwt beam="1">  1       21 0.18612635E-01 0.36628861E+03</pdfrwt>
<pdfrwt beam="2">  1       21 0.21371852E+00 0.36628861E+03</pdfrwt>
<totfact> 0.25537138E+03</totfact>
</mgrwt>
</event>
<event>
12    1  0.2762290E-001  0.1830043E+03  0.7546771E-02  0.1164930E+00
         21   -1    0    0  504  503  0.00000000000E+00  0.00000000000E+00  0.20361932475E+03  0.20361932475E+03  0.00000000000E+00 0.  1.
         21   -1    0    0  502  504 -0.00000000000E+00 -0.00000000000E+00 -0.42112024393E+03  0.42112024393E+03  0.00000000000E+00 0.  1.
          6    2    1    2  502    0 -0.48227835760E+02 -0.38943708776E+02 -0.35260955134E+03  0.39726450186E+03  0.17217157764E+03 0.  0.
         24    2    3    3    0    0 -0.44617455515E+02 -0.26257883771E+02 -0.36515231004E+03  0.37846620946E+03  0.84972162374E+02 0.  0.
         -6    2    1    2    0  503  0.48227835760E+02  0.38943708776E+02  0.13510863216E+03  0.22747506682E+03  0.17218602425E+03 0.  0.
        -24    2    5    5    0    0  0.67450353568E+02 -0.50453576068E+01  0.14123438465E+03  0.17885245896E+03  0.86406277776E+02 0.  0.
          2    1    4    4  501    0  0.19190882299E+02  0.14037690535E+02 -0.76355247187E+02  0.79971685564E+02  0.00000000000E+00 0. -1.
         -1    1    4    4    0  501 -0.63808337814E+02 -0.40295574306E+02 -0.28879706285E+03  0.29849452389E+03  0.00000000000E+00 0.  1.
          5    1    3    3  502    0 -0.36103802455E+01 -0.12685825005E+02  0.12542758697E+02  0.18798292404E+02  0.47000000000E+01 0. -1.
         13    1    6    6    0    0 -0.13533096603E+02 -0.17442255785E+02  0.10210899755E+02  0.24323640030E+02  0.00000000000E+00 0. -1.
        -14    1    6    6    0    0  0.80983450171E+02  0.12396898178E+02  0.13102348489E+03  0.15452881893E+03  0.00000000000E+00 0.  1.
         -5    1    5    5    0  503 -0.19222517808E+02  0.43989066382E+02 -0.61257524855E+01  0.48622607865E+02  0.47000000000E+01 0.  1.
<mgrwt>
<rscale>  2 0.18300087E+03</rscale>
<asrwt>0</asrwt>
<pdfrwt beam="1">  1       21 0.31326050E-01 0.18300427E+03</pdfrwt>
<pdfrwt beam="2">  1       21 0.64787730E-01 0.18300427E+03</pdfrwt>
<totfact> 0.21617267E+04</totfact>
</mgrwt>
</event>
<event>
12    1  0.2762290E-001  0.2144909E+03  0.7546771E-02  0.1138111E+00
         21   -1    0    0  504  503  0.00000000000E+00  0.00000000000E+00  0.54711617499E+03  0.54711617499E+03  0.00000000000E+00 0. -1.
         21   -1    0    0  502  504 -0.00000000000E+00 -0.00000000000E+00 -0.12665963465E+03  0.12665963465E+03  0.00000000000E+00 0.  1.
          6    2    1    2  502    0 -0.11676606973E+03 -0.47490120690E+02  0.14581616906E+02  0.21471068911E+03  0.17320054810E+03 0.  0.
         24    2    3    3    0    0 -0.13182449746E+03 -0.31161840213E+02  0.56286366882E+02  0.16722653218E+03  0.80298191459E+02 0.  0.
         -6    2    1    2    0  503  0.11676606973E+03  0.47490120690E+02  0.40587492344E+03  0.45906512053E+03  0.17354165151E+03 0.  0.
        -24    2    5    5    0    0  0.59597185724E+02  0.52170424060E+02  0.10956413559E+03  0.15721688129E+03  0.80245063789E+02 0.  0.
          2    1    4    4  501    0 -0.53026095253E+02  0.26495944606E+02  0.28093222377E+02  0.65597492344E+02  0.00000000000E+00 0. -1.
         -1    1    4    4    0  501 -0.78798402203E+02 -0.57657784818E+02  0.28193144505E+02  0.10162903983E+03  0.00000000000E+00 0.  1.
          5    1    3    3  502    0  0.15058427723E+02 -0.16328280478E+02 -0.41704749976E+02  0.47484156931E+02  0.47000000000E+01 0. -1.
         11    1    6    6    0    0  0.78589434556E+02  0.32484412779E+02  0.88103584109E+02  0.12244908260E+03  0.00000000000E+00 0. -1.
        -12    1    6    6    0    0 -0.18992248831E+02  0.19686011281E+02  0.21460551484E+02  0.34767798691E+02  0.00000000000E+00 0.  1.
         -5    1    5    5    0  503  0.57168884008E+02 -0.46803033694E+01  0.29631078784E+03  0.30184823924E+03  0.47000000000E+01 0.  1.
<mgrwt>
<rscale>  2 0.21442186E+03</rscale>
<asrwt>0</asrwt>
<pdfrwt beam="1">  1       21 0.84171718E-01 0.21449087E+03</pdfrwt>
<pdfrwt beam="2">  1       21 0.19486098E-01 0.21449087E+03</pdfrwt>
<totfact> 0.29335577E+04</totfact>
</mgrwt>
</event>
<event>
12    1  0.2762290E-001  0.1850476E+03  0.7546771E-02  0.1163267E+00
         21   -1    0    0  504  503  0.00000000000E+00  0.00000000000E+00  0.47442930636E+02  0.47442930636E+02  0.00000000000E+00 0. -1.
         21   -1    0    0  502  504 -0.00000000000E+00 -0.00000000000E+00 -0.94130526866E+03  0.94130526866E+03  0.00000000000E+00 0. -1.
          6    2    1    2  502    0 -0.64014371151E+02 -0.16631211741E+02 -0.68906800273E+03  0.71348252348E+03  0.17282407818E+03 0.  0.
         24    2    3    3    0    0  0.29502846115E+02 -0.44952070296E+01 -0.26154923344E+03  0.27566162330E+03  0.81796725062E+02 0.  0.
         -6    2    1    2    0  503  0.64014371151E+02  0.16631211741E+02 -0.20479433529E+03  0.27526567582E+03  0.17162760734E+03 0.  0.
        -24    2    5    5    0    0  0.36989701568E+02 -0.25296196578E+02 -0.35063365895E+02  0.98294117917E+02  0.80150847817E+02 0.  0.
          4    1    4    4  501    0  0.88365800600E+01  0.20816210621E+02 -0.22693911588E+03  0.22806306603E+03  0.00000000000E+00 0. -1.
         -3    1    4    4    0  501  0.20666266055E+02 -0.25311417651E+02 -0.34610117557E+02  0.47598557262E+02  0.00000000000E+00 0.  1.
          5    1    3    3  502    0 -0.93517217266E+02 -0.12136004711E+02 -0.42751876929E+03  0.43782090018E+03  0.47000000000E+01 0. -1.
         11    1    6    6    0    0 -0.17151492415E+01 -0.47273829469E+02 -0.18899652646E+02  0.50940686682E+02  0.00000000000E+00 0. -1.
        -12    1    6    6    0    0  0.38704850810E+02  0.21977632891E+02 -0.16163713249E+02  0.47353431234E+02  0.00000000000E+00 0.  1.
         -5    1    5    5    0  503  0.27024669583E+02  0.41927408319E+02 -0.16973096940E+03  0.17697155791E+03  0.47000000000E+01 0.  1.
<mgrwt>
<rscale>  2 0.18476769E+03</rscale>
<asrwt>0</asrwt>
<pdfrwt beam="1">  1       21 0.72989124E-02 0.18504756E+03</pdfrwt>
<pdfrwt beam="2">  1       21 0.14481619E+00 0.18504756E+03</pdfrwt>
<totfact> 0.46315623E+04</totfact>
</mgrwt>
</event>
<event>
12    1  0.2762290E-001  0.2387188E+03  0.7546771E-02  0.1120655E+00
         21   -1    0    0  504  503  0.00000000000E+00  0.00000000000E+00  0.23405876003E+03  0.23405876003E+03  0.00000000000E+00 0. -1.
         21   -1    0    0  502  504 -0.00000000000E+00 -0.00000000000E+00 -0.35008189247E+03  0.35008189247E+03  0.00000000000E+00 0.  1.
          6    2    1    2  502    0  0.16416657772E+03  0.15219816418E+02 -0.21921706981E+03  0.32410304709E+03  0.17263937381E+03 0.  0.
         24    2    3    3    0    0  0.18630334931E+03  0.32531573408E+02 -0.16937584843E+03  0.26669249984E+03  0.81666824421E+02 0.  0.
         -6    2    1    2    0  503 -0.16416657772E+03 -0.15219816418E+02  0.10319393737E+03  0.26003760541E+03  0.17259275613E+03 0.  0.
        -24    2    5    5    0    0 -0.10883877264E+03  0.61955315117E+01 -0.65509198797E+01  0.13519447651E+03  0.79689201822E+02 0.  0.
          2    1    4    4  501    0  0.38904584107E+02 -0.25742806682E+02 -0.49065152012E+02  0.67702643244E+02  0.00000000000E+00 0. -1.
         -1    1    4    4    0  501  0.14739876520E+03  0.58274380089E+02 -0.12031069642E+03  0.19898985660E+03  0.00000000000E+00 0.  1.
          5    1    3    3  502    0 -0.22136771590E+02 -0.17311756990E+02 -0.49841221385E+02  0.57410547251E+02  0.47000000000E+01 0. -1.
         11    1    6    6    0    0 -0.98974707604E+02 -0.17914311259E+01  0.24218222815E+02  0.10191037380E+03  0.00000000000E+00 0. -1.
        -12    1    6    6    0    0 -0.98640650314E+01  0.79869626376E+01 -0.30769142694E+02  0.33284102711E+02  0.00000000000E+00 0.  1.
         -5    1    5    5    0  503 -0.55327805082E+02 -0.21415347929E+02  0.10974485725E+03  0.12484312891E+03  0.47000000000E+01 0.  1.
<mgrwt>
<rscale>  2 0.23871036E+03</rscale>
<asrwt>0</asrwt>
<pdfrwt beam="1">  1       21 0.36009040E-01 0.23871879E+03</pdfrwt>
<pdfrwt beam="2">  1       21 0.53858752E-01 0.23871879E+03</pdfrwt>
<totfact> 0.23651737E+04</totfact>
</mgrwt>
</event>
<event>
12    1  0.2762290E-001  0.2855887E+03  0.7546771E-02  0.1092794E+00
         21   -1    0    0  504  503  0.00000000000E+00  0.00000000000E+00  0.94027320046E+03  0.94027320046E+03  0.00000000000E+00 0.  1.
         21   -1    0    0  502  504 -0.00000000000E+00 -0.00000000000E+00 -0.14017407030E+03  0.14017407030E+03  0.00000000000E+00 0. -1.
          6    2    1    2  502    0  0.21831828349E+03  0.60883614806E+02  0.65286061960E+02  0.29208748855E+03  0.17228796714E+03 0.  0.
         24    2    3    3    0    0  0.19344609889E+02  0.13980180087E+02  0.53240969646E+02  0.87251873420E+02  0.64873948543E+02 0.  0.
         -6    2    1    2    0  503 -0.21831828349E+03 -0.60883614806E+02  0.73481306820E+03  0.78835978221E+03  0.17375618996E+03 0.  0.
        -24    2    5    5    0    0 -0.70283815150E+02 -0.12673846845E+02  0.15969564211E+03  0.19252379023E+03  0.80388249329E+02 0.  0.
          4    1    4    4  501    0 -0.43489843129E+01 -0.19292058603E+02  0.39468833853E+02  0.44146189365E+02  0.00000000000E+00 0. -1.
         -3    1    4    4    0  501  0.23693594202E+02  0.33272238690E+02  0.13772135793E+02  0.43105684056E+02  0.00000000000E+00 0.  1.
          5    1    3    3  502    0  0.19897367360E+03  0.46903434719E+02  0.12045092314E+02  0.20483561513E+03  0.47000000000E+01 0. -1.
         11    1    6    6    0    0 -0.79496237760E+02 -0.26158361708E+02  0.98823372281E+02  0.12949892129E+03  0.00000000000E+00 0. -1.
        -12    1    6    6    0    0  0.92124226108E+01  0.13484514863E+02  0.60872269824E+02  0.63024868940E+02  0.00000000000E+00 0.  1.
         -5    1    5    5    0  503 -0.14803446834E+03 -0.48209767960E+02  0.57511742610E+03  0.59583599198E+03  0.47000000000E+01 0.  1.
<mgrwt>
<rscale>  2 0.28536571E+03</rscale>
<asrwt>0</asrwt>
<pdfrwt beam="1">  1       21 0.14465741E+00 0.28558869E+03</pdfrwt>
<pdfrwt beam="2">  1       21 0.21565242E-01 0.28558869E+03</pdfrwt>
<totfact> 0.61863358E+03</totfact>
</mgrwt>
</event>
<event>
12    1  0.2762290E-001  0.2093114E+03  0.7546771E-02  0.1142137E+00
         21   -1    0    0  504  503  0.00000000000E+00  0.00000000000E+00  0.36027056437E+02  0.36027056437E+02  0.00000000000E+00 0. -1.
         21   -1    0    0  502  504 -0.00000000000E+00 -0.00000000000E+00 -0.16615995951E+04  0.16615995951E+04  0.00000000000E+00 0. -1.
          6    2    1    2  502    0 -0.48843141017E+01 -0.11796897342E+03 -0.12528520294E+04  0.12702163061E+04  0.17283148255E+03 0.  0.
         24    2    3    3    0    0 -0.99575590461E+01 -0.21677527761E+02 -0.28233268626E+03  0.29490729566E+03  0.81789358192E+02 0.  0.
         -6    2    1    2    0  503  0.48843141017E+01  0.11796897342E+03 -0.37272050927E+03  0.42741034550E+03  0.17268031212E+03 0.  0.
        -24    2    5    5    0    0  0.97877395598E+01  0.51481405507E+02 -0.71104293960E+02  0.11847819824E+03  0.78962825943E+02 0.  0.
          2    1    4    4  501    0  0.33646926474E+01  0.30122982509E+02 -0.12902046755E+03  0.13253300071E+03  0.00000000000E+00 0. -1.
         -1    1    4    4    0  501 -0.13322251694E+02 -0.51800510271E+02 -0.15331221871E+03  0.16237429495E+03  0.00000000000E+00 0.  1.
          5    1    3    3  502    0  0.50732449443E+01 -0.96291445662E+02 -0.97051934317E+03  0.97530901041E+03  0.47000000000E+01 0. -1.
         11    1    6    6    0    0 -0.33043524243E+02  0.23583627703E+02 -0.46567177970E+02  0.61778346159E+02  0.00000000000E+00 0. -1.
        -12    1    6    6    0    0  0.42831263803E+02  0.27897777804E+02 -0.24537115990E+02  0.56699852085E+02  0.00000000000E+00 0.  1.
         -5    1    5    5    0  503 -0.49034254581E+01  0.66487567917E+02 -0.30161621531E+03  0.30893214725E+03  0.47000000000E+01 0.  1.
<mgrwt>
<rscale>  2 0.20928018E+03</rscale>
<asrwt>0</asrwt>
<pdfrwt beam="1">  1       21 0.55426234E-02 0.20931139E+03</pdfrwt>
<pdfrwt beam="2">  1       21 0.25563074E+00 0.20931139E+03</pdfrwt>
<totfact> 0.13704399E+04</totfact>
</mgrwt>
</event>
<event>
12    1  0.2762290E-001  0.1973111E+03  0.7546771E-02  0.1152486E+00
         21   -1    0    0  504  503  0.00000000000E+00  0.00000000000E+00  0.61129251080E+03  0.61129251080E+03  0.00000000000E+00 0.  1.
         21   -1    0    0  502  504 -0.00000000000E+00 -0.00000000000E+00 -0.63782416240E+02  0.63782416240E+02  0.00000000000E+00 0.  1.
          6    2    1    2  502    0  0.43520591903E+02 -0.78892587586E+02  0.23793559745E+03  0.30910359594E+03  0.17553803631E+03 0.  0.
         24    2    3    3    0    0 -0.10935833792E+02 -0.69938160477E+02  0.60722542221E+02  0.12343657946E+03  0.80860517334E+02 0.  0.
         -6    2    1    2    0  503 -0.43520591903E+02  0.78892587586E+02  0.30957449711E+03  0.36597133111E+03  0.17314896371E+03 0.  0.
        -24    2    5    5    0    0 -0.35000900743E+02  0.63256684095E+02  0.77043674653E+02  0.13271237627E+03  0.80314232092E+02 0.  0.
          2    1    4    4  501    0 -0.36835167881E+02 -0.52255952594E+01  0.27231422599E+02  0.46105171243E+02  0.00000000000E+00 0. -1.
         -1    1    4    4    0  501  0.25899334089E+02 -0.64712565218E+02  0.33491119622E+02  0.77331408217E+02  0.00000000000E+00 0.  1.
          5    1    3    3  502    0  0.54456425695E+02 -0.89544271089E+01  0.17721305523E+03  0.18566701648E+03  0.47000000000E+01 0. -1.
         11    1    6    6    0    0 -0.59431257046E+01 -0.18139596884E+02  0.38875994332E+01  0.19480224527E+02  0.00000000000E+00 0. -1.
        -12    1    6    6    0    0 -0.29057775038E+02  0.81396280980E+02  0.73156075220E+02  0.11323215175E+03  0.00000000000E+00 0.  1.
         -5    1    5    5    0  503 -0.85196911599E+01  0.15635903491E+02  0.23253082246E+03  0.23325895483E+03  0.47000000000E+01 0.  1.
<mgrwt>
<rscale>  2 0.19677838E+03</rscale>
<asrwt>0</asrwt>
<pdfrwt beam="1">  1       21 0.94044998E-01 0.19731114E+03</pdfrwt>
<pdfrwt beam="2">  1       21 0.98126798E-02 0.19731114E+03</pdfrwt>
<totfact> 0.79411241E+04</totfact>
</mgrwt>
</event>
<event>
12    1  0.2762290E-001  0.1770441E+03  0.7546771E-02  0.1170886E+00
         21   -1    0    0  504  503  0.00000000000E+00  0.00000000000E+00  0.27353428929E+03  0.27353428929E+03  0.00000000000E+00 0.  1.
         21   -1    0    0  502  504 -0.00000000000E+00 -0.00000000000E+00 -0.11418875340E+03  0.11418875340E+03  0.00000000000E+00 0.  1.
          6    2    1    2  502    0 -0.66539499871E+01  0.37429676589E+02  0.85099670734E+02  0.19574114664E+03  0.17212607817E+03 0.  0.
         24    2    3    3    0    0 -0.65779713309E+02 -0.61427700599E+00  0.36392488528E+02  0.11008089978E+03  0.80411710934E+02 0.  0.
         -6    2    1    2    0  503  0.66539499871E+01 -0.37429676589E+02  0.74245865151E+02  0.19198189606E+03  0.17291426830E+03 0.  0.
        -24    2    5    5    0    0 -0.83691824293E+01 -0.41308937270E+02 -0.22140449836E+02  0.94241654149E+02  0.81331533521E+02 0.  0.
          2    1    4    4  501    0 -0.58835556401E+02 -0.26824815501E+02  0.48055845065E+02  0.80563997348E+02  0.00000000000E+00 0. -1.
         -1    1    4    4    0  501 -0.69441569077E+01  0.26210538495E+02 -0.11663356538E+02  0.29516902430E+02  0.00000000000E+00 0.  1.
          5    1    3    3  502    0  0.59125763322E+02  0.38043953595E+02  0.48707182207E+02  0.85660246860E+02  0.47000000000E+01 0. -1.
         13    1    6    6    0    0  0.12578000342E+02 -0.59403097456E+02 -0.26445002174E+02  0.66228937935E+02  0.00000000000E+00 0. -1.
        -14    1    6    6    0    0 -0.20947182771E+02  0.18094160186E+02  0.43045523378E+01  0.28012716215E+02  0.00000000000E+00 0.  1.
         -5    1    5    5    0  503  0.15023132416E+02  0.38792606808E+01  0.96386314988E+02  0.97740241906E+02  0.47000000000E+01 0.  1.
<mgrwt>
<rscale>  2 0.17685132E+03</rscale>
<asrwt>0</asrwt>
<pdfrwt beam="1">  1       21 0.42082198E-01 0.17704406E+03</pdfrwt>
<pdfrwt beam="2">  1       21 0.17567501E-01 0.17704406E+03</pdfrwt>
<totfact> 0.16037750E+05</totfact>
</mgrwt>
</event>
<event>
12    1  0.2762290E-001  0.1977164E+03  0.7546771E-02  0.1151773E+00
         21   -1    0    0  504  503  0.00000000000E+00  0.00000000000E+00  0.22801380129E+03  0.22801380129E+03  0.00000000000E+00 0.  1.
         21   -1    0    0  502  504 -0.00000000000E+00 -0.00000000000E+00 -0.18624227407E+03  0.18624227407E+03  0.00000000000E+00 0. -1.
          6    2    1    2  502    0  0.82752080200E+02  0.47067938811E+02 -0.38255166684E+02  0.20095809552E+03  0.17279294180E+03 0.  0.
         24    2    3    3    0    0  0.96787130315E+02 -0.11038018144E+02 -0.56913432307E+02  0.13816075687E+03  0.79747536156E+02 0.  0.
         -6    2    1    2    0  503 -0.82752080200E+02 -0.47067938811E+02  0.80026693902E+02  0.21329797985E+03  0.17328721484E+03 0.  0.
        -24    2    5    5    0    0 -0.72641586698E+02 -0.63402548470E+02 -0.54603889466E+01  0.12555304902E+03  0.80231346745E+02 0.  0.
          2    1    4    4  501    0  0.82802600519E+02 -0.52161629788E+01 -0.76871676529E+02  0.11310496745E+03  0.00000000000E+00 0. -1.
         -1    1    4    4    0  501  0.13984529796E+02 -0.58218551653E+01  0.19958244222E+02  0.25055789423E+02  0.00000000000E+00 0.  1.
          5    1    3    3  502    0 -0.14035050114E+02  0.58105956955E+02  0.18658265623E+02  0.62797338650E+02  0.47000000000E+01 0. -1.
         13    1    6    6    0    0 -0.32824017897E+02 -0.69318994722E+02 -0.25183297431E+02  0.80726313242E+02  0.00000000000E+00 0. -1.
        -14    1    6    6    0    0 -0.39817568801E+02  0.59164462526E+01  0.19722908484E+02  0.44826735779E+02  0.00000000000E+00 0.  1.
         -5    1    5    5    0  503 -0.10110493502E+02  0.16334609658E+02  0.85487082848E+02  0.87744930825E+02  0.47000000000E+01 0.  1.
<mgrwt>
<rscale>  2 0.19760800E+03</rscale>
<asrwt>0</asrwt>
<pdfrwt beam="1">  1       21 0.35079046E-01 0.19771635E+03</pdfrwt>
<pdfrwt beam="2">  1       21 0.28652658E-01 0.19771635E+03</pdfrwt>
<totfact> 0.91093896E+04</totfact>
</mgrwt>
</event>
<event>
12    1  0.2762290E-001  0.1938341E+03  0.7546771E-02  0.1161965E+00
         21   -1    0    0  504  503  0.00000000000E+00  0.00000000000E+00  0.25686300897E+03  0.25686300897E+03  0.00000000000E+00 0. -1.
         21   -1    0    0  502  504 -0.00000000000E+00 -0.00000000000E+00 -0.12635072090E+03  0.12635072090E+03  0.00000000000E+00 0. -1.
          6    2    1    2  502    0 -0.44167889006E+02  0.72793753136E+01  0.52862592064E+02  0.20091317147E+03  0.18859442491E+03 0.  0.
         24    2    3    3    0    0  0.28749329283E+01 -0.67020082842E+02  0.42921394539E+02  0.11228837818E+03  0.79161082747E+02 0.  0.
         -6    2    1    2    0  503  0.44167889006E+02 -0.72793753136E+01  0.77649696007E+02  0.18230055841E+03  0.15874579232E+03 0.  0.
        -24    2    5    5    0    0 -0.12269234763E+02 -0.84823755148E+01  0.91770041127E+02  0.12392187826E+03  0.81929278331E+02 0.  0.
          4    1    4    4  501    0 -0.36587836267E+02 -0.34639640469E+02  0.94955269799E+01  0.51271234500E+02  0.00000000000E+00 0. -1.
         -3    1    4    4    0  501  0.39462769195E+02 -0.32380442373E+02  0.33425867559E+02  0.61017143680E+02  0.00000000000E+00 0.  1.
          5    1    3    3  502    0 -0.47042821934E+02  0.74299458155E+02  0.99411975250E+01  0.88624793291E+02  0.47000000000E+01 0. -1.
         11    1    6    6    0    0  0.20484151140E+02 -0.35383868050E+02  0.44332532101E+02  0.60307478546E+02  0.00000000000E+00 0. -1.
        -12    1    6    6    0    0 -0.32753385903E+02  0.26901492536E+02  0.47437509027E+02  0.63614399718E+02  0.00000000000E+00 0.  1.
         -5    1    5    5    0  503  0.56437123768E+02  0.12030002012E+01 -0.14120345120E+02  0.58378680141E+02  0.47000000000E+01 0.  1.
<mgrwt>
<rscale>  2 0.18616658E+03</rscale>
<asrwt>0</asrwt>
<pdfrwt beam="1">  1       21 0.39517386E-01 0.19383408E+03</pdfrwt>
<pdfrwt beam="2">  1       21 0.19438573E-01 0.19383408E+03</pdfrwt>
<totfact> 0.15021194E+05</totfact>
</mgrwt>
</event>
<event>
12    1  0.2762290E-001  0.2307799E+03  0.7546771E-02  0.1126506E+00
         21   -1    0    0  504  503  0.00000000000E+00  0.00000000000E+00  0.98454471388E+03  0.98454471388E+03  0.00000000000E+00 0. -1.
         21   -1    0    0  502  504 -0.00000000000E+00 -0.00000000000E+00 -0.86746424633E+02  0.86746424633E+02  0.00000000000E+00 0. -1.
          6    2    1    2  502    0 -0.11940215229E+03  0.88163674232E+02  0.11894286181E+03  0.25962814795E+03  0.17671916536E+03 0.  0.
         24    2    3    3    0    0 -0.67255887401E+00  0.44122924214E+02  0.92968814073E+02  0.13027187569E+03  0.79876632567E+02 0.  0.
         -6    2    1    2    0  503  0.11940215229E+03 -0.88163674232E+02  0.77885542744E+03  0.81166299057E+03  0.17364137177E+03 0.  0.
        -24    2    5    5    0    0  0.47968688263E+02 -0.80390730304E+02  0.25900681363E+03  0.28685080539E+03  0.80219638947E+02 0.  0.
          2    1    4    4  501    0 -0.31596627006E+00  0.80059069235E+01  0.93801932352E+02  0.94143490977E+02  0.00000000000E+00 0. -1.
         -1    1    4    4    0  501 -0.35659260394E+00  0.36117017291E+02 -0.83311827899E+00  0.36128384718E+02  0.00000000000E+00 0.  1.
          5    1    3    3  502    0 -0.11872959342E+03  0.44040750017E+02  0.25974047742E+02  0.12935627225E+03  0.47000000000E+01 0. -1.
         11    1    6    6    0    0  0.60855214617E+02 -0.88107516727E+02  0.21209988128E+03  0.23759766684E+03  0.00000000000E+00 0. -1.
        -12    1    6    6    0    0 -0.12886526354E+02  0.77167864228E+01  0.46906932349E+02  0.49253138545E+02  0.00000000000E+00 0.  1.
         -5    1    5    5    0  503  0.71433464026E+02 -0.77729439277E+01  0.51984861381E+03  0.52481218518E+03  0.47000000000E+01 0.  1.
<mgrwt>
<rscale>  2 0.23019061E+03</rscale>
<asrwt>0</asrwt>
<pdfrwt beam="1">  1       21 0.15146841E+00 0.23077992E+03</pdfrwt>
<pdfrwt beam="2">  1       21 0.13345604E-01 0.23077992E+03</pdfrwt>
<totfact> 0.13761758E+04</totfact>
</mgrwt>
</event>
<event>
12    1  0.2762290E-001  0.1917358E+03  0.7546771E-02  0.1156957E+00
         21   -1    0    0  504  503  0.00000000000E+00  0.00000000000E+00  0.32337994728E+02  0.32337994728E+02  0.00000000000E+00 0.  1.
         21   -1    0    0  502  504 -0.00000000000E+00 -0.00000000000E+00 -0.11502344934E+04  0.11502344934E+04  0.00000000000E+00 0.  1.
          6    2    1    2  502    0 -0.79439148492E+02  0.59090373061E+01 -0.62568965689E+03  0.65433941750E+03  0.17414658056E+03 0.  0.
         24    2    3    3    0    0 -0.55019032262E+02  0.41673346716E+02 -0.19127647946E+03  0.21774770133E+03  0.77869172990E+02 0.  0.
         -6    2    1    2    0  503  0.79439148492E+02 -0.59090373061E+01 -0.49220684174E+03  0.52823307058E+03  0.17440500787E+03 0.  0.
        -24    2    5    5    0    0  0.91249564875E+02 -0.56319211748E+02 -0.29229306819E+03  0.32167005725E+03  0.80858217386E+02 0.  0.
          2    1    4    4  501    0 -0.20400744268E+02  0.60841389163E+02 -0.12638410307E+03  0.14174204214E+03  0.00000000000E+00 0. -1.
         -1    1    4    4    0  501 -0.34618287995E+02 -0.19168042447E+02 -0.64892376390E+02  0.76005659187E+02  0.00000000000E+00 0.  1.
          5    1    3    3  502    0 -0.24420116229E+02 -0.35764309410E+02 -0.43441317744E+03  0.43659171618E+03  0.47000000000E+01 0. -1.
         13    1    6    6    0    0  0.31327440539E+02 -0.16082962063E+02 -0.20682855761E+03  0.20980496287E+03  0.00000000000E+00 0. -1.
        -14    1    6    6    0    0  0.59922124336E+02 -0.40236249685E+02 -0.85464510580E+02  0.11186509439E+03  0.00000000000E+00 0.  1.
         -5    1    5    5    0  503 -0.11810416383E+02  0.50410174442E+02 -0.19991377355E+03  0.20656301333E+03  0.47000000000E+01 0.  1.
<mgrwt>
<rscale>  2 0.19167697E+03</rscale>
<asrwt>0</asrwt>
<pdfrwt beam="1">  1       21 0.49750765E-02 0.19173576E+03</pdfrwt>
<pdfrwt beam="2">  1       21 0.17695914E+00 0.19173576E+03</pdfrwt>
<totfact> 0.51813496E+04</totfact>
</mgrwt>
</event>
<event>
12    1  0.2762290E-001  0.2329538E+03  0.7546771E-02  0.1124591E+00
         21   -1    0    0  504  503  0.00000000000E+00  0.00000000000E+00  0.45099166999E+03  0.45099166999E+03  0.00000000000E+00 0. -1.
         21   -1    0    0  502  504 -0.00000000000E+00 -0.00000000000E+00 -0.17512668174E+03  0.17512668174E+03  0.00000000000E+00 0.  1.
          6    2    1    2  502    0 -0.13475434480E+03  0.78215178221E+02 -0.37232919254E+02  0.23591049109E+03  0.17317945023E+03 0.  0.
         24    2    3    3    0    0 -0.13316253059E+03  0.11192546360E+03 -0.52730148418E+02  0.19847826801E+03  0.79709380657E+02 0.  0.
         -6    2    1    2    0  503  0.13475434480E+03 -0.78215178221E+02  0.31309790750E+03  0.39020786064E+03  0.17307665146E+03 0.  0.
        -24    2    5    5    0    0  0.11318622629E+03 -0.71375305778E+02  0.14222830397E+03  0.21778257537E+03  0.96409561700E+02 0.  0.
          2    1    4    4  501    0 -0.50903610494E+02  0.35564135153E+02  0.19404616746E+02  0.65057854419E+02  0.00000000000E+00 0. -1.
         -1    1    4    4    0  501 -0.82258920096E+02  0.76361328448E+02 -0.72134765164E+02  0.13342041359E+03  0.00000000000E+00 0.  1.
          5    1    3    3  502    0 -0.15918142077E+01 -0.33710285380E+02  0.15497229164E+02  0.37432223079E+02  0.47000000000E+01 0. -1.
         11    1    6    6    0    0  0.10283170263E+03 -0.29797273806E+02  0.13809541526E+03  0.17473574422E+03  0.00000000000E+00 0. -1.
        -12    1    6    6    0    0  0.10354523659E+02 -0.41578031971E+02  0.41328887091E+01  0.43046831148E+02  0.00000000000E+00 0.  1.
         -5    1    5    5    0  503  0.21568118511E+02 -0.68398724437E+01  0.17086960353E+03  0.17242528528E+03  0.47000000000E+01 0.  1.
<mgrwt>
<rscale>  2 0.23293469E+03</rscale>
<asrwt>0</asrwt>
<pdfrwt beam="1">  1       21 0.69383334E-01 0.23295379E+03</pdfrwt>
<pdfrwt beam="2">  1       21 0.26942567E-01 0.23295379E+03</pdfrwt>
<totfact> 0.24252004E+04</totfact>
</mgrwt>
</event>
<event>
12    1  0.2762290E-001  0.2175109E+03  0.7546771E-02  0.1135799E+00
         21   -1    0    0  504  503  0.00000000000E+00  0.00000000000E+00  0.97838538532E+02  0.97838538532E+02  0.00000000000E+00 0.  1.
         21   -1    0    0  502  504 -0.00000000000E+00 -0.00000000000E+00 -0.76100088656E+03  0.76100088656E+03  0.00000000000E+00 0.  1.
          6    2    1    2  502    0  0.11104023032E+03  0.71383632350E+02 -0.59124133763E+03  0.62998199190E+03  0.17287404397E+03 0.  0.
         24    2    3    3    0    0  0.10937161490E+03  0.28484183525E+02 -0.24820027775E+03  0.28423294165E+03  0.80071770213E+02 0.  0.
         -6    2    1    2    0  503 -0.11104023032E+03 -0.71383632350E+02 -0.71921010394E+02  0.22885743319E+03  0.17256169121E+03 0.  0.
        -24    2    5    5    0    0 -0.14066995337E+02  0.12997801106E+02 -0.58834795591E+02  0.99561750222E+02  0.78001190655E+02 0.  0.
          4    1    4    4  501    0  0.87808759264E+02  0.47134415734E+02 -0.22931785911E+03  0.25003742091E+03  0.00000000000E+00 0. -1.
         -3    1    4    4    0  501  0.21562855638E+02 -0.18650232209E+02 -0.18882418644E+02  0.34195520738E+02  0.00000000000E+00 0.  1.
          5    1    3    3  502    0  0.16686154214E+01  0.42899448825E+02 -0.34304105988E+03  0.34574905025E+03  0.47000000000E+01 0. -1.
         11    1    6    6    0    0  0.24256718110E+02 -0.47273303447E+00  0.41497558986E+01  0.24613661329E+02  0.00000000000E+00 0. -1.
        -12    1    6    6    0    0 -0.38323713447E+02  0.13470534140E+02 -0.62984551490E+02  0.74948088893E+02  0.00000000000E+00 0.  1.
         -5    1    5    5    0  503 -0.96973234986E+02 -0.84381433456E+02 -0.13086214803E+02  0.12929568297E+03  0.47000000000E+01 0.  1.
<mgrwt>
<rscale>  2 0.21744883E+03</rscale>
<asrwt>0</asrwt>
<pdfrwt beam="1">  1       21 0.15052082E-01 0.21751090E+03</pdfrwt>
<pdfrwt beam="2">  1       21 0.11707706E+00 0.21751090E+03</pdfrwt>
<totfact> 0.21546279E+04</totfact>
</mgrwt>
</event>
<event>
12    1  0.2762290E-001  0.1811963E+03  0.7546771E-02  0.1166766E+00
         21   -1    0    0  504  503  0.00000000000E+00  0.00000000000E+00  0.17606638377E+03  0.17606638377E+03  0.00000000000E+00 0.  1.
         21   -1    0    0  502  504 -0.00000000000E+00 -0.00000000000E+00 -0.21077697268E+03  0.21077697268E+03  0.00000000000E+00 0.  1.
          6    2    1    2  502    0 -0.47914322212E+02 -0.21664646583E+02 -0.83720536663E+02  0.19960267539E+03  0.17339827155E+03 0.  0.
         24    2    3    3    0    0 -0.18794260388E+02 -0.68692548345E+02 -0.11113174108E+02  0.10820507891E+03  0.80702825483E+02 0.  0.
         -6    2    1    2    0  503  0.47914322212E+02  0.21664646583E+02  0.49009947755E+02  0.18724068106E+03  0.17289291044E+03 0.  0.
        -24    2    5    5    0    0  0.29453881854E+02  0.81556754104E+02  0.30969058452E+02  0.12185401508E+03  0.79814053359E+02 0.  0.
          2    1    4    4  501    0  0.24810020021E+02 -0.80113318349E+01  0.13723113273E+02  0.29462558767E+02  0.00000000000E+00 0. -1.
         -1    1    4    4    0  501 -0.43604280410E+02 -0.60681216510E+02 -0.24836287382E+02  0.78742520140E+02  0.00000000000E+00 0.  1.
          5    1    3    3  502    0 -0.29120061823E+02  0.47027901762E+02 -0.72607362555E+02  0.91397596478E+02  0.47000000000E+01 0. -1.
         13    1    6    6    0    0 -0.12174184487E+02  0.34470836948E+02  0.44473849923E+02  0.57570588800E+02  0.00000000000E+00 0. -1.
        -14    1    6    6    0    0  0.41628066341E+02  0.47085917155E+02 -0.13504791471E+02  0.64283426280E+02  0.00000000000E+00 0.  1.
         -5    1    5    5    0  503  0.18460440358E+02 -0.59892107521E+02  0.18040889303E+02  0.65386665983E+02  0.47000000000E+01 0.  1.
<mgrwt>
<rscale>  2 0.18107529E+03</rscale>
<asrwt>0</asrwt>
<pdfrwt beam="1">  1       21 0.27087136E-01 0.18119630E+03</pdfrwt>
<pdfrwt beam="2">  1       21 0.32427226E-01 0.18119630E+03</pdfrwt>
<totfact> 0.11933146E+05</totfact>
</mgrwt>
</event>
<event>
12    1  0.2762290E-001  0.1854310E+03  0.7546771E-02  0.1163449E+00
         21   -1    0    0  504  503  0.00000000000E+00  0.00000000000E+00  0.53230371800E+03  0.53230371800E+03  0.00000000000E+00 0.  1.
         21   -1    0    0  502  504 -0.00000000000E+00 -0.00000000000E+00 -0.19828709811E+03  0.19828709811E+03  0.00000000000E+00 0.  1.
          6    2    1    2  502    0 -0.36249750925E+02 -0.44880480332E+02 -0.13475384649E+03  0.22647733104E+03  0.17264147930E+03 0.  0.
         24    2    3    3    0    0  0.37506063086E+02 -0.67617591596E+01 -0.32914320933E+02  0.94999819769E+02  0.80555490679E+02 0.  0.
         -6    2    1    2    0  503  0.36249750925E+02  0.44880480332E+02  0.46877046637E+03  0.50411348508E+03  0.17622812981E+03 0.  0.
        -24    2    5    5    0    0  0.17037563111E+01  0.87283213803E+02  0.22764719078E+03  0.25682025512E+03  0.80697817653E+02 0.  0.
          2    1    4    4  501    0  0.51945319125E+02 -0.19722023717E+02 -0.45548252790E+02  0.71846487254E+02  0.00000000000E+00 0. -1.
         -1    1    4    4    0  501 -0.14439256039E+02  0.12960264557E+02  0.12633931857E+02  0.23153332515E+02  0.00000000000E+00 0.  1.
          5    1    3    3  502    0 -0.73755814011E+02 -0.38118721172E+02 -0.10183952555E+03  0.13147751127E+03  0.47000000000E+01 0. -1.
         11    1    6    6    0    0 -0.16471585513E+02  0.90256272954E+02  0.21687801198E+03  0.23548583826E+03  0.00000000000E+00 0. -1.
        -12    1    6    6    0    0  0.18175341824E+02 -0.29730591519E+01  0.10769178798E+02  0.21334416869E+02  0.00000000000E+00 0.  1.
         -5    1    5    5    0  503  0.34545994614E+02 -0.42402733470E+02  0.24112327559E+03  0.24729322995E+03  0.47000000000E+01 0.  1.
<mgrwt>
<rscale>  2 0.18457377E+03</rscale>
<asrwt>0</asrwt>
<pdfrwt beam="1">  1       21 0.81892879E-01 0.18543100E+03</pdfrwt>
<pdfrwt beam="2">  1       21 0.30505708E-01 0.18543100E+03</pdfrwt>
<totfact> 0.13517547E+04</totfact>
</mgrwt>
</event>
<event>
12    1  0.2762290E-001  0.1739464E+03  0.7546771E-02  0.1174755E+00
         21   -1    0    0  504  503  0.00000000000E+00  0.00000000000E+00  0.29058030079E+02  0.29058030079E+02  0.00000000000E+00 0. -1.
         21   -1    0    0  502  504 -0.00000000000E+00 -0.00000000000E+00 -0.18742415647E+04  0.18742415647E+04  0.00000000000E+00 0. -1.
          6    2    1    2  502    0  0.97426504910E+01  0.10073158926E+02 -0.15599785143E+04  0.15692348515E+04  0.16961328443E+03 0.  0.
         24    2    3    3    0    0  0.19241973276E+02  0.23262180592E+02 -0.39846224802E+03  0.40759535738E+03  0.80314567033E+02 0.  0.
         -6    2    1    2    0  503 -0.97426504910E+01 -0.10073158926E+02 -0.28520502025E+03  0.33406474323E+03  0.17338097163E+03 0.  0.
        -24    2    5    5    0    0 -0.46507597329E+02  0.28369463842E+02 -0.93169147716E+02  0.13474248431E+03  0.80667613719E+02 0.  0.
          4    1    4    4  501    0  0.42009941350E+02  0.93203923524E+01 -0.34663712013E+03  0.34929786421E+03  0.00000000000E+00 0. -1.
         -3    1    4    4    0  501 -0.22767968074E+02  0.13941788239E+02 -0.51825127890E+02  0.58297493174E+02  0.00000000000E+00 0.  1.
          5    1    3    3  502    0 -0.94993227848E+01 -0.13189021666E+02 -0.11615162663E+04  0.11616394941E+04  0.47000000000E+01 0. -1.
         13    1    6    6    0    0 -0.88994888997E+01 -0.25824170846E+02 -0.11186218356E+02  0.29516439210E+02  0.00000000000E+00 0. -1.
        -14    1    6    6    0    0 -0.37608108429E+02  0.54193634687E+02 -0.81982929360E+02  0.10522604510E+03  0.00000000000E+00 0.  1.
         -5    1    5    5    0  503  0.36764946838E+02 -0.38442622767E+02 -0.19203587253E+03  0.19932225892E+03  0.47000000000E+01 0.  1.
<mgrwt>
<rscale>  2 0.17299991E+03</rscale>
<asrwt>0</asrwt>
<pdfrwt beam="1">  1       21 0.44704651E-02 0.17394640E+03</pdfrwt>
<pdfrwt beam="2">  1       21 0.28834492E+00 0.17394640E+03</pdfrwt>
<totfact> 0.13208319E+04</totfact>
</mgrwt>
</event>
<event>
12    1  0.2762290E-001  0.1806020E+03  0.7546771E-02  0.1167240E+00
         21   -1    0    0  504  503  0.00000000000E+00  0.00000000000E+00  0.17124098922E+03  0.17124098922E+03  0.00000000000E+00 0. -1.
         21   -1    0    0  502  504 -0.00000000000E+00 -0.00000000000E+00 -0.20042876421E+03  0.20042876421E+03  0.00000000000E+00 0. -1.
          6    2    1    2  502    0  0.29325031525E+02 -0.43552678759E+02  0.26980492871E+02  0.18260623592E+03  0.17280132262E+03 0.  0.
         24    2    3    3    0    0  0.63804327685E+02 -0.40804061261E+02 -0.30840498888E+02  0.11506562702E+03  0.80950592979E+02 0.  0.
         -6    2    1    2    0  503 -0.29325031525E+02  0.43552678759E+02 -0.56168267861E+02  0.18906351751E+03  0.17272332222E+03 0.  0.
        -24    2    5    5    0    0 -0.53204320251E+02 -0.67974797740E+01  0.17358904738E+02  0.96685522267E+02  0.78548413209E+02 0.  0.
          2    1    4    4  501    0  0.38553005102E+02 -0.64833901042E+02 -0.26444765709E+02  0.79931811941E+02  0.00000000000E+00 0. -1.
         -1    1    4    4    0  501  0.25251322583E+02  0.24029839780E+02 -0.43957331786E+01  0.35133815082E+02  0.00000000000E+00 0.  1.
          5    1    3    3  502    0 -0.34479296160E+02 -0.27486174977E+01  0.57820991759E+02  0.67540608894E+02  0.47000000000E+01 0. -1.
         13    1    6    6    0    0 -0.36709958332E+02  0.32864800475E+02  0.21033010848E+02  0.53573348750E+02  0.00000000000E+00 0. -1.
        -14    1    6    6    0    0 -0.16494361920E+02 -0.39662280249E+02 -0.36741061090E+01  0.43112173517E+02  0.00000000000E+00 0.  1.
         -5    1    5    5    0  503  0.23879288727E+02  0.50350158533E+02 -0.73527172599E+02  0.92377995241E+02  0.47000000000E+01 0.  1.
<mgrwt>
<rscale>  2 0.18058336E+03</rscale>
<asrwt>0</asrwt>
<pdfrwt beam="1">  1       21 0.26344768E-01 0.18060202E+03</pdfrwt>
<pdfrwt beam="2">  1       21 0.30835194E-01 0.18060202E+03</pdfrwt>
<totfact> 0.13893541E+05</totfact>
</mgrwt>
</event>
<event>
12    1  0.2762290E-001  0.1747548E+03  0.7546771E-02  0.1173069E+00
         21   -1    0    0  504  503  0.00000000000E+00  0.00000000000E+00  0.26004704886E+03  0.26004704886E+03  0.00000000000E+00 0. -1.
         21   -1    0    0  502  504 -0.00000000000E+00 -0.00000000000E+00 -0.19674697994E+03  0.19674697994E+03  0.00000000000E+00 0. -1.
          6    2    1    2  502    0 -0.72926396315E+01 -0.92941633636E+01 -0.11360096914E+03  0.20813116118E+03  0.17399378150E+03 0.  0.
         24    2    3    3    0    0  0.33671210367E+02  0.42177800536E+02 -0.10133186723E+03  0.14104896581E+03  0.81938673248E+02 0.  0.
         -6    2    1    2    0  503  0.72926396315E+01  0.92941633636E+01  0.17690103807E+03  0.24866286762E+03  0.17435504121E+03 0.  0.
        -24    2    5    5    0    0  0.21656603214E+02 -0.25674943046E+02  0.18466589797E+03  0.20978427579E+03  0.93700252584E+02 0.  0.
          2    1    4    4  501    0 -0.26174310072E+02  0.22558568932E+02 -0.43416461944E+02  0.55488491669E+02  0.00000000000E+00 0. -1.
         -1    1    4    4    0  501  0.59845520439E+02  0.19619231604E+02 -0.57915405287E+02  0.85560474139E+02  0.00000000000E+00 0.  1.
          5    1    3    3  502    0 -0.40963849999E+02 -0.51471963899E+02 -0.12269101909E+02  0.67082195373E+02  0.47000000000E+01 0. -1.
         13    1    6    6    0    0  0.25796280545E+02  0.12834622026E+02  0.16275297903E+03  0.16528371909E+03  0.00000000000E+00 0. -1.
        -14    1    6    6    0    0 -0.41396773316E+01 -0.38509565072E+02  0.21912918935E+02  0.44500556701E+02  0.00000000000E+00 0.  1.
         -5    1    5    5    0  503 -0.14363963582E+02  0.34969106410E+02 -0.77648599024E+01  0.38878591823E+02  0.47000000000E+01 0.  1.
<mgrwt>
<rscale>  2 0.17466463E+03</rscale>
<asrwt>0</asrwt>
<pdfrwt beam="1">  1       21 0.40007238E-01 0.17475481E+03</pdfrwt>
<pdfrwt beam="2">  1       21 0.30268766E-01 0.17475481E+03</pdfrwt>
<totfact> 0.63558910E+04</totfact>
</mgrwt>
</event>
<event>
12    1  0.2762290E-001  0.2496451E+03  0.7546771E-02  0.1113602E+00
         21   -1    0    0  504  503  0.00000000000E+00  0.00000000000E+00  0.24715127878E+03  0.24715127878E+03  0.00000000000E+00 0. -1.
         21   -1    0    0  502  504 -0.00000000000E+00 -0.00000000000E+00 -0.36617883710E+03  0.36617883710E+03  0.00000000000E+00 0. -1.
          6    2    1    2  502    0 -0.54189130970E+02  0.17202480152E+03 -0.23094185488E+03  0.33974746305E+03  0.17194535197E+03 0.  0.
         24    2    3    3    0    0  0.85530524889E+01  0.27398119736E+02 -0.34233971404E+02  0.87617456726E+02  0.75372689040E+02 0.  0.
         -6    2    1    2    0  503  0.54189130970E+02 -0.17202480152E+03  0.11191429656E+03  0.27358265282E+03  0.17260841201E+03 0.  0.
        -24    2    5    5    0    0  0.72523111945E+02 -0.15055951552E+03  0.14102542666E+03  0.23276058456E+03  0.79759320958E+02 0.  0.
          2    1    4    4  501    0 -0.23512760290E+02 -0.11990596434E+02 -0.24275461947E+02  0.35859759509E+02  0.00000000000E+00 0. -1.
         -1    1    4    4    0  501  0.32065812779E+02  0.39388716170E+02 -0.99585094568E+01  0.51757697218E+02  0.00000000000E+00 0.  1.
          5    1    3    3  502    0 -0.62742183459E+02  0.14462668178E+03 -0.19670788348E+03  0.25213000633E+03  0.47000000000E+01 0. -1.
         11    1    6    6    0    0  0.41049661190E+02 -0.10442611427E+03  0.13654742025E+03  0.17673450711E+03  0.00000000000E+00 0. -1.
        -12    1    6    6    0    0  0.31473450754E+02 -0.46133401246E+02  0.44780064090E+01  0.56026077449E+02  0.00000000000E+00 0.  1.
         -5    1    5    5    0  503 -0.18333980975E+02 -0.21465286000E+02 -0.29111130103E+02  0.40822068263E+02  0.47000000000E+01 0.  1.
<mgrwt>
<rscale>  2 0.24953049E+03</rscale>
<asrwt>0</asrwt>
<pdfrwt beam="1">  1       21 0.38023274E-01 0.24964506E+03</pdfrwt>
<pdfrwt beam="2">  1       21 0.56335205E-01 0.24964506E+03</pdfrwt>
<totfact> 0.19163904E+04</totfact>
</mgrwt>
</event>
<event>
12    1  0.2762290E-001  0.1841293E+03  0.7546771E-02  0.1164229E+00
         21   -1    0    0  504  503  0.00000000000E+00  0.00000000000E+00  0.32296396848E+03  0.32296396848E+03  0.00000000000E+00 0. -1.
         21   -1    0    0  502  504 -0.00000000000E+00 -0.00000000000E+00 -0.11192874278E+03  0.11192874278E+03  0.00000000000E+00 0. -1.
          6    2    1    2  502    0  0.58947860724E+02  0.11616644326E+00  0.47597048832E+02  0.18869030495E+03  0.17281113490E+03 0.  0.
         24    2    3    3    0    0  0.70392157332E+02 -0.13469175206E+02  0.92180063576E+02  0.14046926559E+03  0.78089538103E+02 0.  0.
         -6    2    1    2    0  503 -0.58947860724E+02 -0.11616644326E+00  0.16343817687E+03  0.24620240632E+03  0.17443830841E+03 0.  0.
        -24    2    5    5    0    0 -0.63911040242E+01 -0.47849851355E+02  0.93341157147E+02  0.14632047841E+03  0.10181677808E+03 0.  0.
          2    1    4    4  501    0  0.38528914918E+00  0.25497626022E+02  0.27454748234E+02  0.37470529501E+02  0.00000000000E+00 0. -1.
         -1    1    4    4    0  501  0.70006868183E+02 -0.38966801228E+02  0.64725315342E+02  0.10299873609E+03  0.00000000000E+00 0.  1.
          5    1    3    3  502    0 -0.11444296608E+02  0.13585341649E+02 -0.44583014744E+02  0.48221039352E+02  0.47000000000E+01 0. -1.
         11    1    6    6    0    0  0.19494093432E+02 -0.39386184263E+02  0.10713105685E+03  0.11579444948E+03  0.00000000000E+00 0. -1.
        -12    1    6    6    0    0 -0.25885197456E+02 -0.84636670911E+01 -0.13789899702E+02  0.30526028922E+02  0.00000000000E+00 0.  1.
         -5    1    5    5    0  503 -0.52556756700E+02  0.47733684911E+02  0.70097019719E+02  0.99881927912E+02  0.47000000000E+01 0.  1.
<mgrwt>
<rscale>  2 0.18374286E+03</rscale>
<asrwt>0</asrwt>
<pdfrwt beam="1">  1       21 0.49686764E-01 0.18412927E+03</pdfrwt>
<pdfrwt beam="2">  1       21 0.17219807E-01 0.18412927E+03</pdfrwt>
<totfact> 0.11798312E+05</totfact>
</mgrwt>
</event>
<event>
12    1  0.2762290E-001  0.2456567E+03  0.7546771E-02  0.1116099E+00
         21   -1    0    0  504  503  0.00000000000E+00  0.00000000000E+00  0.61063867497E+02  0.61063867497E+02  0.00000000000E+00 0. -1.
         21   -1    0    0  502  504 -0.00000000000E+00 -0.00000000000E+00 -0.10963406729E+04  0.10963406729E+04  0.00000000000E+00 0.  1.
          6    2    1    2  502    0 -0.14445125223E+03 -0.97918782442E+02 -0.69961015769E+03  0.74144862617E+03  0.17273517384E+03 0.  0.
         24    2    3    3    0    0 -0.73745453304E+02 -0.85295243274E+02 -0.61375084009E+03  0.62941034628E+03  0.82180410550E+02 0.  0.
         -6    2    1    2    0  503  0.14445125223E+03  0.97918782442E+02 -0.33566664772E+03  0.41595591423E+03  0.17289584138E+03 0.  0.
        -24    2    5    5    0    0  0.78443531920E+02  0.55172350838E+02 -0.80387044067E+02  0.14879670590E+03  0.80504700705E+02 0.  0.
          4    1    4    4  501    0  0.14632355790E+02 -0.17516689576E+02 -0.18609510614E+03  0.18748954312E+03  0.00000000000E+00 0. -1.
         -3    1    4    4    0  501 -0.88377809094E+02 -0.67778553698E+02 -0.42765573396E+03  0.44192080316E+03  0.00000000000E+00 0.  1.
          5    1    3    3  502    0 -0.70705798929E+02 -0.12623539168E+02 -0.85859317596E+02  0.11203827989E+03  0.47000000000E+01 0. -1.
         11    1    6    6    0    0  0.18731717589E+02 -0.19915707228E+02 -0.76104168466E+01  0.28380117738E+02  0.00000000000E+00 0. -1.
        -12    1    6    6    0    0  0.59711814332E+02  0.75088058067E+02 -0.72776627221E+02  0.12041658816E+03  0.00000000000E+00 0.  1.
         -5    1    5    5    0  503  0.66007720313E+02  0.42746431604E+02 -0.25527960365E+03  0.26715920833E+03  0.47000000000E+01 0.  1.
<mgrwt>
<rscale>  2 0.24562845E+03</rscale>
<asrwt>0</asrwt>
<pdfrwt beam="1">  1       21 0.93944407E-02 0.24565672E+03</pdfrwt>
<pdfrwt beam="2">  1       21 0.16866780E+00 0.24565672E+03</pdfrwt>
<totfact> 0.19086587E+04</totfact>
</mgrwt>
</event>
<event>
12    1  0.2762290E-001  0.1920959E+03  0.7546771E-02  0.1157037E+00
         21   -1    0    0  504  503  0.00000000000E+00  0.00000000000E+00  0.26921716380E+03  0.26921716380E+03  0.00000000000E+00 0. -1.
         21   -1    0    0  502  504 -0.00000000000E+00 -0.00000000000E+00 -0.13667343800E+03  0.13667343800E+03  0.00000000000E+00 0. -1.
          6    2    1    2  502    0 -0.80700451609E+02  0.11266313608E+02  0.48861021187E+02  0.19821262764E+03  0.17395790770E+03 0.  0.
         24    2    3    3    0    0 -0.39403793522E+02  0.17334619566E+02  0.98334448390E+02  0.13331310294E+03  0.79054232632E+02 0.  0.
         -6    2    1    2    0  503  0.80700451609E+02 -0.11266313608E+02  0.83682704610E+02  0.20767797417E+03  0.17172027600E+03 0.  0.
        -24    2    5    5    0    0  0.10531636650E+03  0.13317557598E+02  0.10473448897E+03  0.16674415424E+03  0.74601644753E+02 0.  0.
          2    1    4    4  501    0 -0.53782894248E+02 -0.71013017644E+01  0.87516369995E+02  0.10296670927E+03  0.00000000000E+00 0. -1.
         -1    1    4    4    0  501  0.14379100726E+02  0.24435921331E+02  0.10818078394E+02  0.30346393676E+02  0.00000000000E+00 0.  1.
          5    1    3    3  502    0 -0.41296658087E+02 -0.60683059588E+01 -0.49473427202E+02  0.64899524694E+02  0.47000000000E+01 0. -1.
         11    1    6    6    0    0  0.15368069908E+02  0.17890859511E+02 -0.56762061996E+01  0.24258601434E+02  0.00000000000E+00 0. -1.
        -12    1    6    6    0    0  0.89948296592E+02 -0.45733019131E+01  0.11041069517E+03  0.14248555280E+03  0.00000000000E+00 0.  1.
         -5    1    5    5    0  503 -0.24615914890E+02 -0.24583871206E+02 -0.21051784359E+02  0.40933819929E+02  0.47000000000E+01 0.  1.
<mgrwt>
<rscale>  2 0.19158792E+03</rscale>
<asrwt>0</asrwt>
<pdfrwt beam="1">  1       21 0.41418025E-01 0.19209593E+03</pdfrwt>
<pdfrwt beam="2">  1       21 0.21026683E-01 0.19209593E+03</pdfrwt>
<totfact> 0.11800642E+05</totfact>
</mgrwt>
</event>
<event>
12    1  0.2762290E-001  0.1835458E+03  0.7546771E-02  0.1164603E+00
         21   -1    0    0  504  503  0.00000000000E+00  0.00000000000E+00  0.82278346069E+03  0.82278346069E+03  0.00000000000E+00 0.  1.
         21   -1    0    0  502  504 -0.00000000000E+00 -0.00000000000E+00 -0.16287646680E+03  0.16287646680E+03  0.00000000000E+00 0. -1.
          6    2    1    2  502    0 -0.31786800313E+02  0.54206583966E+02 -0.96584991513E+02  0.20740713198E+03  0.17245377175E+03 0.  0.
         24    2    3    3    0    0 -0.70211779065E+02  0.14716104034E+01 -0.23642010771E+02  0.10942639475E+03  0.80519138332E+02 0.  0.
         -6    2    1    2    0  503  0.31786800313E+02 -0.54206583966E+02  0.75649198540E+03  0.77825279551E+03  0.17160575547E+03 0.  0.
        -24    2    5    5    0    0 -0.42700227868E+01 -0.74347447401E+02  0.29022563658E+03  0.31013726818E+03  0.80052663664E+02 0.  0.
          4    1    4    4  501    0 -0.82660310362E+02  0.14857452751E+02 -0.62862701056E+01  0.84219878908E+02  0.00000000000E+00 0. -1.
         -3    1    4    4    0  501  0.12448531297E+02 -0.13385842348E+02 -0.17355740665E+02  0.25206515841E+02  0.00000000000E+00 0.  1.
          5    1    3    3  502    0  0.38424978752E+02  0.52734973563E+02 -0.72942980742E+02  0.97980737231E+02  0.47000000000E+01 0. -1.
         11    1    6    6    0    0  0.33690054649E+02 -0.11884585057E+02  0.81589121444E+02  0.89067659014E+02  0.00000000000E+00 0. -1.
        -12    1    6    6    0    0 -0.37960077436E+02 -0.62462862343E+02  0.20863651513E+03  0.22106960917E+03  0.00000000000E+00 0.  1.
         -5    1    5    5    0  503  0.36056823100E+02  0.20140863434E+02  0.46626634883E+03  0.46811552732E+03  0.47000000000E+01 0.  1.
<mgrwt>
<rscale>  2 0.18334633E+03</rscale>
<asrwt>0</asrwt>
<pdfrwt beam="1">  1       21 0.12658207E+00 0.18354579E+03</pdfrwt>
<pdfrwt beam="2">  1       21 0.25057918E-01 0.18354579E+03</pdfrwt>
<totfact> 0.70199498E+03</totfact>
</mgrwt>
</event>
<event>
12    1  0.2762290E-001  0.1958523E+03  0.7546771E-02  0.1155889E+00
         21   -1    0    0  504  503  0.00000000000E+00  0.00000000000E+00  0.38316688978E+03  0.38316688978E+03  0.00000000000E+00 0.  1.
         21   -1    0    0  502  504 -0.00000000000E+00 -0.00000000000E+00 -0.10247519460E+03  0.10247519460E+03  0.00000000000E+00 0.  1.
          6    2    1    2  502    0  0.63729774763E+02 -0.63808134260E+02  0.67662755349E+02  0.19626440436E+03  0.16065025916E+03 0.  0.
         24    2    3    3    0    0  0.57671486002E+02 -0.77674467667E+02  0.99819999858E+02  0.16041532572E+03  0.80060733998E+02 0.  0.
         -6    2    1    2    0  503 -0.63729774763E+02  0.63808134260E+02  0.21302893983E+03  0.28937768002E+03  0.17385381877E+03 0.  0.
        -24    2    5    5    0    0 -0.58584427276E+02  0.69214706386E+02  0.23541566665E+03  0.26531606826E+03  0.82153936454E+02 0.  0.
          4    1    4    4  501    0  0.28797854429E+02 -0.30944127356E+02  0.96537180682E+02  0.10538634965E+03  0.00000000000E+00 0. -1.
         -3    1    4    4    0  501  0.28873631572E+02 -0.46730340311E+02  0.32828191757E+01  0.55028976072E+02  0.00000000000E+00 0.  1.
          5    1    3    3  502    0  0.60582887607E+01  0.13866333407E+02 -0.32157244509E+02  0.35849078640E+02  0.47000000000E+01 0. -1.
         13    1    6    6    0    0 -0.19553968490E+02 -0.10623716670E+02  0.12927118066E+02  0.25735800378E+02  0.00000000000E+00 0. -1.
        -14    1    6    6    0    0 -0.39030458786E+02  0.79838423055E+02  0.22248854858E+03  0.23958026788E+03  0.00000000000E+00 0.  1.
         -5    1    5    5    0  503 -0.51453474861E+01 -0.54065721257E+01 -0.22386726817E+02  0.24061611760E+02  0.47000000000E+01 0.  1.
<mgrwt>
<rscale>  2 0.19288026E+03</rscale>
<asrwt>0</asrwt>
<pdfrwt beam="1">  1       21 0.58948751E-01 0.19585227E+03</pdfrwt>
<pdfrwt beam="2">  1       21 0.15765415E-01 0.19585227E+03</pdfrwt>
<totfact> 0.96286732E+04</totfact>
</mgrwt>
</event>
<event>
12    1  0.2762290E-001  0.1784401E+03  0.7546771E-02  0.1169931E+00
         21   -1    0    0  504  503  0.00000000000E+00  0.00000000000E+00  0.15942722005E+03  0.15942722005E+03  0.00000000000E+00 0. -1.
         21   -1    0    0  502  504 -0.00000000000E+00 -0.00000000000E+00 -0.35368550889E+03  0.35368550889E+03  0.00000000000E+00 0. -1.
          6    2    1    2  502    0  0.11435782452E+02  0.39746693943E+02 -0.26753111859E+03  0.32021440695E+03  0.17103739417E+03 0.  0.
         24    2    3    3    0    0  0.14016983965E+02 -0.26256649636E+02 -0.68522090451E+02  0.11047698243E+03  0.81387955354E+02 0.  0.
         -6    2    1    2    0  503 -0.11435782452E+02 -0.39746693943E+02  0.73272829753E+02  0.19289832199E+03  0.17358075425E+03 0.  0.
        -24    2    5    5    0    0  0.16189229611E+02 -0.32561171475E+02 -0.23270457186E+02  0.92114051005E+02  0.81370530119E+02 0.  0.
          4    1    4    4  501    0  0.27870232478E+01 -0.46181630729E+02 -0.73707542414E+02  0.87024779943E+02  0.00000000000E+00 0. -1.
         -3    1    4    4    0  501  0.11229960717E+02  0.19924981093E+02  0.51854519633E+01  0.23452202484E+02  0.00000000000E+00 0.  1.
          5    1    3    3  502    0 -0.25812015133E+01  0.66003343579E+02 -0.19900902814E+03  0.20973742453E+03  0.47000000000E+01 0. -1.
         11    1    6    6    0    0 -0.11286018000E+02 -0.48017099734E+02  0.52484003740E+01  0.49604049992E+02  0.00000000000E+00 0. -1.
        -12    1    6    6    0    0  0.27475247611E+02  0.15455928259E+02 -0.28518857560E+02  0.42510001013E+02  0.00000000000E+00 0.  1.
         -5    1    5    5    0  503 -0.27625012062E+02 -0.71855224687E+01  0.96543286939E+02  0.10078427098E+03  0.47000000000E+01 0.  1.
<mgrwt>
<rscale>  2 0.17781854E+03</rscale>
<asrwt>0</asrwt>
<pdfrwt beam="1">  1       21 0.24527265E-01 0.17844006E+03</pdfrwt>
<pdfrwt beam="2">  1       21 0.54413155E-01 0.17844006E+03</pdfrwt>
<totfact> 0.50458978E+04</totfact>
</mgrwt>
</event>
<event>
12    1  0.2762290E-001  0.2496506E+03  0.7546771E-02  0.1113592E+00
         21   -1    0    0  504  503  0.00000000000E+00  0.00000000000E+00  0.21106800876E+04  0.21106800876E+04  0.00000000000E+00 0.  1.
         21   -1    0    0  502  504 -0.00000000000E+00 -0.00000000000E+00 -0.38047931210E+02  0.38047931210E+02  0.00000000000E+00 0.  1.
          6    2    1    2  502    0  0.67301167854E+02  0.16739121762E+03  0.52713370580E+03  0.58326270005E+03  0.17255771948E+03 0.  0.
         24    2    3    3    0    0  0.64542476991E+02  0.27731103211E+02  0.18733173198E+03  0.21583919870E+03  0.80985408984E+02 0.  0.
         -6    2    1    2    0  503 -0.67301167854E+02 -0.16739121762E+03  0.15454984506E+04  0.15654653188E+04  0.17195038972E+03 0.  0.
        -24    2    5    5    0    0 -0.18344397295E+02 -0.11690673992E+03  0.13520009337E+04  0.13595312834E+04  0.80094213913E+02 0.  0.
          2    1    4    4  501    0  0.64150024014E+02 -0.11545384257E+02  0.92157435016E+02  0.11287831637E+03  0.00000000000E+00 0. -1.
         -1    1    4    4    0  501  0.39245297724E+00  0.39276487469E+02  0.95174296964E+02  0.10296088233E+03  0.00000000000E+00 0.  1.
          5    1    3    3  502    0  0.27586908627E+01  0.13966011441E+03  0.33980197382E+03  0.36742350135E+03  0.47000000000E+01 0. -1.
         13    1    6    6    0    0 -0.19350948919E+02 -0.94237560944E+02  0.12887036632E+04  0.12922895607E+04  0.00000000000E+00 0. -1.
        -14    1    6    6    0    0  0.10065516239E+01 -0.22669178979E+02  0.63297270414E+02  0.67241722640E+02  0.00000000000E+00 0.  1.
         -5    1    5    5    0  503 -0.48956770559E+02 -0.50484477701E+02  0.19349751697E+03  0.20593403542E+03  0.47000000000E+01 0.  1.
<mgrwt>
<rscale>  2 0.24954571E+03</rscale>
<asrwt>0</asrwt>
<pdfrwt beam="1">  1       21 0.32471992E+00 0.24965062E+03</pdfrwt>
<pdfrwt beam="2">  1       21 0.58535295E-02 0.24965062E+03</pdfrwt>
<totfact> 0.47542184E+03</totfact>
</mgrwt>
</event>
<event>
12    1  0.2762290E-001  0.4017555E+03  0.7546771E-02  0.1043218E+00
         21   -1    0    0  504  503  0.00000000000E+00  0.00000000000E+00  0.97765820690E+03  0.97765820690E+03  0.00000000000E+00 0. -1.
         21   -1    0    0  502  504 -0.00000000000E+00 -0.00000000000E+00 -0.16587608884E+03  0.16587608884E+03  0.00000000000E+00 0.  1.
          6    2    1    2  502    0 -0.33070824032E+03  0.14735179184E+03  0.36192303354E+03  0.54073630330E+03  0.17414642325E+03 0.  0.
         24    2    3    3    0    0 -0.27563282336E+03  0.70699136633E+02  0.32462774136E+03  0.43913925649E+03  0.80549952762E+02 0.  0.
         -6    2    1    2    0  503  0.33070824032E+03 -0.14735179184E+03  0.44985908452E+03  0.60279799243E+03  0.17295008812E+03 0.  0.
        -24    2    5    5    0    0  0.99591880217E+02 -0.53941187989E+02  0.92815075259E+02  0.16731799591E+03  0.80947385346E+02 0.  0.
          2    1    4    4  501    0 -0.19060591858E+03  0.38223487729E+02  0.27094067252E+03  0.33346738857E+03  0.00000000000E+00 0. -1.
         -1    1    4    4    0  501 -0.85026904785E+02  0.32475648904E+02  0.53687068841E+02  0.10567186792E+03  0.00000000000E+00 0.  1.
          5    1    3    3  502    0 -0.55075416951E+02  0.76652655207E+02  0.37295292180E+02  0.10159704682E+03  0.47000000000E+01 0. -1.
         11    1    6    6    0    0  0.86646606420E+02 -0.47113300367E+02  0.10797976737E+03  0.14624270114E+03  0.00000000000E+00 0. -1.
        -12    1    6    6    0    0  0.12945273797E+02 -0.68278876221E+01 -0.15164692109E+02  0.21075294774E+02  0.00000000000E+00 0.  1.
         -5    1    5    5    0  503  0.23111636010E+03 -0.93410603851E+02  0.35704400926E+03  0.43547999652E+03  0.47000000000E+01 0.  1.
<mgrwt>
<rscale>  2 0.40162614E+03</rscale>
<asrwt>0</asrwt>
<pdfrwt beam="1">  1       21 0.15040895E+00 0.40175548E+03</pdfrwt>
<pdfrwt beam="2">  1       21 0.25519399E-01 0.40175548E+03</pdfrwt>
<totfact> 0.38151836E+03</totfact>
</mgrwt>
</event>
<event>
12    1  0.2762290E-001  0.4802610E+03  0.7546771E-02  0.1019124E+00
         21   -1    0    0  504  503  0.00000000000E+00  0.00000000000E+00  0.12578250474E+03  0.12578250474E+03  0.00000000000E+00 0. -1.
         21   -1    0    0  502  504 -0.00000000000E+00 -0.00000000000E+00 -0.26372353350E+04  0.26372353350E+04  0.00000000000E+00 0. -1.
          6    2    1    2  502    0  0.44713566531E+03 -0.13707603587E+02 -0.20206697125E+04  0.20769585289E+04  0.17473534921E+03 0.  0.
         24    2    3    3    0    0  0.97249814982E+02  0.10495761788E+02 -0.44757703980E+03  0.46523629540E+03  0.80943909373E+02 0.  0.
         -6    2    1    2    0  503 -0.44713566531E+03  0.13707603587E+02 -0.49078311776E+03  0.68605931081E+03  0.17231107825E+03 0.  0.
        -24    2    5    5    0    0 -0.30896162370E+03  0.24680180170E+02 -0.42654939271E+03  0.53321780910E+03  0.79438349105E+02 0.  0.
          4    1    4    4  501    0  0.60919714222E+02  0.41023415901E+01 -0.11134863659E+03  0.12699039199E+03  0.00000000000E+00 0. -1.
         -3    1    4    4    0  501  0.36330100760E+02  0.63934201982E+01 -0.33622840321E+03  0.33824590340E+03  0.00000000000E+00 0.  1.
          5    1    3    3  502    0  0.34988585033E+03 -0.24203365375E+02 -0.15730926727E+04  0.16117222335E+04  0.47000000000E+01 0. -1.
         13    1    6    6    0    0 -0.53449705381E+02  0.33963011003E+02 -0.68986312641E+02  0.93645440110E+02  0.00000000000E+00 0. -1.
        -14    1    6    6    0    0 -0.25551191832E+03 -0.92828308325E+01 -0.35756308007E+03  0.43957236899E+03  0.00000000000E+00 0.  1.
         -5    1    5    5    0  503 -0.13817404161E+03 -0.10972576583E+02 -0.64233725049E+02  0.15284150171E+03  0.47000000000E+01 0.  1.
<mgrwt>
<rscale>  2 0.48004169E+03</rscale>
<asrwt>0</asrwt>
<pdfrwt beam="1">  1       21 0.19351156E-01 0.48026102E+03</pdfrwt>
<pdfrwt beam="2">  1       21 0.40572848E+00 0.48026102E+03</pdfrwt>
<totfact> 0.14631755E+02</totfact>
</mgrwt>
</event>
<event>
12    1  0.2762290E-001  0.3051467E+03  0.7546771E-02  0.1082800E+00
         21   -1    0    0  504  503  0.00000000000E+00  0.00000000000E+00  0.16889481244E+04  0.16889481244E+04  0.00000000000E+00 0. -1.
         21   -1    0    0  502  504 -0.00000000000E+00 -0.00000000000E+00 -0.14242861686E+03  0.14242861686E+03  0.00000000000E+00 0.  1.
          6    2    1    2  502    0 -0.87424229412E+02  0.23513458371E+03  0.55323898557E+02  0.30927987119E+03  0.17222670125E+03 0.  0.
         24    2    3    3    0    0 -0.62094376813E+02  0.24291394164E+03  0.76868161333E+02  0.27480719939E+03  0.82142485571E+02 0.  0.
         -6    2    1    2    0  503  0.87424229412E+02 -0.23513458371E+03  0.14911956090E+04  0.15220968701E+04  0.17373332800E+03 0.  0.
        -24    2    5    5    0    0  0.55523068969E+01 -0.31434779604E+02  0.36402532982E+03  0.37373649539E+03  0.78393582358E+02 0.  0.
          4    1    4    4  501    0  0.15884037731E+02  0.11786529704E+02  0.35148969803E+01  0.20089286644E+02  0.00000000000E+00 0. -1.
         -3    1    4    4    0  501 -0.77978414544E+02  0.23112741193E+03  0.73353264353E+02  0.25471791275E+03  0.00000000000E+00 0.  1.
          5    1    3    3  502    0 -0.25329852599E+02 -0.77793579238E+01 -0.21544262777E+02  0.34472671799E+02  0.47000000000E+01 0. -1.
         13    1    6    6    0    0  0.66472420254E+00 -0.42284095273E+02  0.35783118774E+03  0.36032144745E+03  0.00000000000E+00 0. -1.
        -14    1    6    6    0    0  0.48875826944E+01  0.10849315670E+02  0.61941420743E+01  0.13415047936E+02  0.00000000000E+00 0.  1.
         -5    1    5    5    0  503  0.81871922515E+02 -0.20369980411E+03  0.11271702792E+04  0.11483603747E+04  0.47000000000E+01 0.  1.
<mgrwt>
<rscale>  2 0.30493271E+03</rscale>
<asrwt>0</asrwt>
<pdfrwt beam="1">  1       21 0.25983816E+00 0.30514675E+03</pdfrwt>
<pdfrwt beam="2">  1       21 0.21912096E-01 0.30514675E+03</pdfrwt>
<totfact> 0.10137072E+03</totfact>
</mgrwt>
</event>
<event>
12    1  0.2762290E-001  0.1850749E+03  0.7546771E-02  0.1163211E+00
         21   -1    0    0  504  503  0.00000000000E+00  0.00000000000E+00  0.48278338677E+02  0.48278338677E+02  0.00000000000E+00 0. -1.
         21   -1    0    0  502  504 -0.00000000000E+00 -0.00000000000E+00 -0.11057471517E+04  0.11057471517E+04  0.00000000000E+00 0. -1.
          6    2    1    2  502    0 -0.37680599048E+02 -0.50554114014E+02 -0.87489483273E+03  0.89405246629E+03  0.17295461296E+03 0.  0.
         24    2    3    3    0    0 -0.23842152823E+02 -0.10024488008E+03 -0.56366461015E+03  0.57854174337E+03  0.79845299498E+02 0.  0.
         -6    2    1    2    0  503  0.37680599048E+02  0.50554114014E+02 -0.18257398026E+03  0.25997302406E+03  0.17400335911E+03 0.  0.
        -24    2    5    5    0    0 -0.19952979930E+02  0.12092161311E+01 -0.16056127977E+03  0.18083265917E+03  0.80752352575E+02 0.  0.
          4    1    4    4  501    0 -0.32124815983E+02 -0.88733051342E+02 -0.55247590757E+03  0.56047764153E+03  0.00000000000E+00 0. -1.
         -3    1    4    4    0  501  0.82826631601E+01 -0.11511828743E+02 -0.11188702574E+02  0.18064101841E+02  0.00000000000E+00 0.  1.
          5    1    3    3  502    0 -0.13838446225E+02  0.49690766071E+02 -0.31123022258E+03  0.31551072292E+03  0.47000000000E+01 0. -1.
         13    1    6    6    0    0 -0.43768989323E+02  0.24251395443E+02 -0.98146852613E+02  0.11016650709E+03  0.00000000000E+00 0. -1.
        -14    1    6    6    0    0  0.23816009393E+02 -0.23042179312E+02 -0.62414427161E+02  0.70666152072E+02  0.00000000000E+00 0.  1.
         -5    1    5    5    0  503  0.57633578978E+02  0.49344897883E+02 -0.22012700486E+02  0.79140364894E+02  0.47000000000E+01 0.  1.
<mgrwt>
<rscale>  2 0.18482798E+03</rscale>
<asrwt>0</asrwt>
<pdfrwt beam="1">  1       21 0.74274372E-02 0.18507489E+03</pdfrwt>
<pdfrwt beam="2">  1       21 0.17011494E+00 0.18507489E+03</pdfrwt>
<totfact> 0.29222735E+04</totfact>
</mgrwt>
</event>
<event>
12    1  0.2762290E-001  0.1792776E+03  0.7546771E-02  0.1169239E+00
         21   -1    0    0  504  503  0.00000000000E+00  0.00000000000E+00  0.81298928513E+02  0.81298928513E+02  0.00000000000E+00 0.  1.
         21   -1    0    0  502  504 -0.00000000000E+00 -0.00000000000E+00 -0.51310223202E+03  0.51310223202E+03  0.00000000000E+00 0.  1.
          6    2    1    2  502    0  0.26542573747E+02 -0.22243151575E+02 -0.36357624108E+03  0.40537408681E+03  0.17590111191E+03 0.  0.
         24    2    3    3    0    0  0.45165747602E+02  0.56315749600E+02 -0.20345313964E+03  0.22598673728E+03  0.66823775617E+02 0.  0.
         -6    2    1    2    0  503 -0.26542573747E+02  0.22243151575E+02 -0.68227062428E+02  0.18902707372E+03  0.17284975134E+03 0.  0.
        -24    2    5    5    0    0  0.25381449004E+02  0.42353609740E+02  0.89277399185E+01  0.93761716997E+02  0.79205484802E+02 0.  0.
          2    1    4    4  501    0 -0.15766168029E+02  0.22856427343E+02 -0.74221791274E+02  0.79245584263E+02  0.00000000000E+00 0. -1.
         -1    1    4    4    0  501  0.60931915631E+02  0.33459322257E+02 -0.12923134837E+03  0.14674115302E+03  0.00000000000E+00 0.  1.
          5    1    3    3  502    0 -0.18623173855E+02 -0.78558901175E+02 -0.16012310143E+03  0.17938734953E+03  0.47000000000E+01 0. -1.
         11    1    6    6    0    0  0.21439390796E+02 -0.17731500335E+02 -0.11601833415E+02  0.30143923441E+02  0.00000000000E+00 0. -1.
        -12    1    6    6    0    0  0.39420582084E+01  0.60085110075E+02  0.20529573334E+02  0.63617793556E+02  0.00000000000E+00 0.  1.
         -5    1    5    5    0  503 -0.51924022751E+02 -0.20110458165E+02 -0.77154802347E+02  0.95265356722E+02  0.47000000000E+01 0.  1.
<mgrwt>
<rscale>  2 0.17852467E+03</rscale>
<asrwt>0</asrwt>
<pdfrwt beam="1">  1       21 0.12507527E-01 0.17927763E+03</pdfrwt>
<pdfrwt beam="2">  1       21 0.78938806E-01 0.17927763E+03</pdfrwt>
<totfact> 0.77670174E+04</totfact>
</mgrwt>
</event>
<event>
12    1  0.2762290E-001  0.1868075E+03  0.7546771E-02  0.1161414E+00
         21   -1    0    0  504  503  0.00000000000E+00  0.00000000000E+00  0.88623924344E+03  0.88623924344E+03  0.00000000000E+00 0.  1.
         21   -1    0    0  502  504 -0.00000000000E+00 -0.00000000000E+00 -0.41493252669E+02  0.41493252669E+02  0.00000000000E+00 0.  1.
          6    2    1    2  502    0  0.65393367488E+02  0.22919732670E+02  0.31646855386E+03  0.36739858318E+03  0.17328521772E+03 0.  0.
         24    2    3    3    0    0  0.30482879767E+02  0.73168252044E+02  0.13471113317E+03  0.17556139745E+03  0.79949457838E+02 0.  0.
         -6    2    1    2    0  503 -0.65393367488E+02 -0.22919732670E+02  0.52827743691E+03  0.56033391293E+03  0.17348036481E+03 0.  0.
        -24    2    5    5    0    0  0.11298607902E+02  0.31016938164E+02  0.31158718811E+03  0.32418231443E+03  0.83173843251E+02 0.  0.
          2    1    4    4  501    0 -0.60434120420E+01  0.72728326783E+02  0.10784305888E+03  0.13021542802E+03  0.00000000000E+00 0. -1.
         -1    1    4    4    0  501  0.36526291810E+02  0.43992526153E+00  0.26868074293E+02  0.45345969433E+02  0.00000000000E+00 0.  1.
          5    1    3    3  502    0  0.34910487720E+02 -0.50248519374E+02  0.18175742069E+03  0.19183718572E+03  0.47000000000E+01 0. -1.
         13    1    6    6    0    0  0.15076745088E+02  0.49808108794E+02  0.11003074884E+03  0.12171656270E+03  0.00000000000E+00 0. -1.
        -14    1    6    6    0    0 -0.37781371863E+01 -0.18791170630E+02  0.20155643927E+03  0.20246575173E+03  0.00000000000E+00 0.  1.
         -5    1    5    5    0  503 -0.76691975390E+02 -0.53936670833E+02  0.21669024880E+03  0.23615159850E+03  0.47000000000E+01 0.  1.
<mgrwt>
<rscale>  2 0.18676218E+03</rscale>
<asrwt>0</asrwt>
<pdfrwt beam="1">  1       21 0.13634448E+00 0.18680750E+03</pdfrwt>
<pdfrwt beam="2">  1       21 0.63835780E-02 0.18680750E+03</pdfrwt>
<totfact> 0.68111588E+04</totfact>
</mgrwt>
</event>
<event>
12    1  0.2762290E-001  0.2019111E+03  0.7546771E-02  0.1148273E+00
         21   -1    0    0  504  503  0.00000000000E+00  0.00000000000E+00  0.78247005960E+02  0.78247005960E+02  0.00000000000E+00 0.  1.
         21   -1    0    0  502  504 -0.00000000000E+00 -0.00000000000E+00 -0.53495014787E+03  0.53495014787E+03  0.00000000000E+00 0. -1.
          6    2    1    2  502    0 -0.70273706121E+02 -0.74203251192E+02 -0.17631862376E+03  0.26806037745E+03  0.17413670668E+03 0.  0.
         24    2    3    3    0    0 -0.47218981741E+02 -0.51617524398E+02 -0.22373211132E+02  0.11069800761E+03  0.82822021537E+02 0.  0.
         -6    2    1    2    0  503  0.70273706121E+02  0.74203251192E+02 -0.28038451815E+03  0.34513677638E+03  0.17337646938E+03 0.  0.
        -24    2    5    5    0    0  0.71015696339E+02  0.11459192240E+03 -0.24711036173E+03  0.29259103634E+03  0.79821337134E+02 0.  0.
          4    1    4    4  501    0  0.79863785502E+00 -0.15765579957E+02  0.28178038650E+02  0.32298501451E+02  0.00000000000E+00 0. -1.
         -3    1    4    4    0  501 -0.48017619596E+02 -0.35851944441E+02 -0.50551249782E+02  0.78399506162E+02  0.00000000000E+00 0.  1.
          5    1    3    3  502    0 -0.23054724380E+02 -0.22585726794E+02 -0.15394541263E+03  0.15736236984E+03  0.47000000000E+01 0. -1.
         11    1    6    6    0    0  0.74815800897E+02  0.47422693676E+02 -0.15503651243E+03  0.17855709486E+03  0.00000000000E+00 0. -1.
        -12    1    6    6    0    0 -0.38001045581E+01  0.67169228727E+02 -0.92073849302E+02  0.11403394147E+03  0.00000000000E+00 0.  1.
         -5    1    5    5    0  503 -0.74199021730E+00 -0.40388671211E+02 -0.33274156416E+02  0.52545740045E+02  0.47000000000E+01 0.  1.
<mgrwt>
<rscale>  2 0.20174712E+03</rscale>
<asrwt>0</asrwt>
<pdfrwt beam="1">  1       21 0.12038001E-01 0.20191114E+03</pdfrwt>
<pdfrwt beam="2">  1       21 0.82300025E-01 0.20191114E+03</pdfrwt>
<totfact> 0.74944320E+04</totfact>
</mgrwt>
</event>
<event>
12    1  0.2762290E-001  0.3131833E+03  0.7546771E-02  0.1079236E+00
         21   -1    0    0  504  503  0.00000000000E+00  0.00000000000E+00  0.31298997060E+03  0.31298997060E+03  0.00000000000E+00 0.  1.
         21   -1    0    0  502  504 -0.00000000000E+00 -0.00000000000E+00 -0.31748276504E+03  0.31748276504E+03  0.00000000000E+00 0. -1.
          6    2    1    2  502    0  0.67636449058E+01 -0.25859519565E+03 -0.50716756707E+02  0.31389658420E+03  0.17041612030E+03 0.  0.
         24    2    3    3    0    0 -0.36747557902E+02 -0.19529284031E+03  0.92679055280E+01  0.21632270109E+03  0.84970232710E+02 0.  0.
         -6    2    1    2    0  503 -0.67636449058E+01  0.25859519565E+03  0.46223962269E+02  0.31657615145E+03  0.17654059837E+03 0.  0.
        -24    2    5    5    0    0  0.41665270111E+02  0.24416494966E+03  0.38869289192E+02  0.26529483882E+03  0.86706473137E+02 0.  0.
          4    1    4    4  501    0 -0.46999729090E+02 -0.58595957468E+02  0.22992783814E+02  0.78556532979E+02  0.00000000000E+00 0. -1.
         -3    1    4    4    0  501  0.10252171187E+02 -0.13669688284E+03 -0.13724878286E+02  0.13776616812E+03  0.00000000000E+00 0.  1.
          5    1    3    3  502    0  0.43511202808E+02 -0.63302355334E+02 -0.59984662235E+02  0.97573883104E+02  0.47000000000E+01 0. -1.
         13    1    6    6    0    0  0.27174690493E+02  0.21400071632E+03  0.23089037651E+01  0.21573154945E+03  0.00000000000E+00 0. -1.
        -14    1    6    6    0    0  0.14490579619E+02  0.30164233338E+02  0.36560385427E+02  0.49563289370E+02  0.00000000000E+00 0.  1.
         -5    1    5    5    0  503 -0.48428915017E+02  0.14430245984E+02  0.73546730764E+01  0.51281312629E+02  0.47000000000E+01 0.  1.
<mgrwt>
<rscale>  2 0.31232707E+03</rscale>
<asrwt>0</asrwt>
<pdfrwt beam="1">  1       21 0.48152303E-01 0.31318334E+03</pdfrwt>
<pdfrwt beam="2">  1       21 0.48843503E-01 0.31318334E+03</pdfrwt>
<totfact> 0.15511668E+04</totfact>
</mgrwt>
</event>
<event>
12    1  0.2762290E-001  0.2133597E+03  0.7546771E-02  0.1138989E+00
         21   -1    0    0  504  503  0.00000000000E+00  0.00000000000E+00  0.31648519777E+03  0.31648519777E+03  0.00000000000E+00 0.  1.
         21   -1    0    0  502  504 -0.00000000000E+00 -0.00000000000E+00 -0.15759817356E+03  0.15759817356E+03  0.00000000000E+00 0.  1.
          6    2    1    2  502    0  0.75251053368E+02 -0.99266136456E+02  0.89516624373E+01  0.21354738708E+03  0.17322201762E+03 0.  0.
         24    2    3    3    0    0  0.73582031756E+02 -0.17947893011E+01 -0.22150066684E+02  0.11111274107E+03  0.80236395154E+02 0.  0.
         -6    2    1    2    0  503 -0.75251053368E+02  0.99266136456E+02  0.14993536177E+03  0.26053598425E+03  0.17286381779E+03 0.  0.
        -24    2    5    5    0    0 -0.50050676848E+02  0.22224051970E+02  0.67762329909E+01  0.95954187227E+02  0.78500381999E+02 0.  0.
          4    1    4    4  501    0  0.48767152715E+02  0.31934445481E+02 -0.34142054057E+02  0.67555339147E+02  0.00000000000E+00 0. -1.
         -3    1    4    4    0  501  0.24814879041E+02 -0.33729234782E+02  0.11991987373E+02  0.43557401919E+02  0.00000000000E+00 0.  1.
          5    1    3    3  502    0  0.16690216119E+01 -0.97471347155E+02  0.31101729121E+02  0.10243464601E+03  0.47000000000E+01 0. -1.
         13    1    6    6    0    0 -0.13239047292E+02  0.48081589820E+02 -0.28417995368E+01  0.49951851592E+02  0.00000000000E+00 0. -1.
        -14    1    6    6    0    0 -0.36811629556E+02 -0.25857537850E+02  0.96180325277E+01  0.46002335636E+02  0.00000000000E+00 0.  1.
         -5    1    5    5    0  503 -0.25200376520E+02  0.77042084486E+02  0.14315912878E+03  0.16458179702E+03  0.47000000000E+01 0.  1.
<mgrwt>
<rscale>  2 0.21328697E+03</rscale>
<asrwt>0</asrwt>
<pdfrwt beam="1">  1       21 0.48690030E-01 0.21335968E+03</pdfrwt>
<pdfrwt beam="2">  1       21 0.24245873E-01 0.21335968E+03</pdfrwt>
<totfact> 0.64059422E+04</totfact>
</mgrwt>
</event>
<event>
12    1  0.2762290E-001  0.2157012E+03  0.7546771E-02  0.1139656E+00
         21   -1    0    0  504  503  0.00000000000E+00  0.00000000000E+00  0.12856506354E+04  0.12856506354E+04  0.00000000000E+00 0.  1.
         21   -1    0    0  502  504 -0.00000000000E+00 -0.00000000000E+00 -0.35160003976E+02  0.35160003976E+02  0.00000000000E+00 0. -1.
          6    2    1    2  502    0  0.10690619725E+03 -0.18147415356E+01  0.75967623380E+03  0.78970563313E+03  0.18733600428E+03 0.  0.
         24    2    3    3    0    0  0.46064985240E+02  0.16949127932E+02  0.68601754364E+03  0.69223036185E+03  0.78444552869E+02 0.  0.
         -6    2    1    2    0  503 -0.10690619725E+03  0.18147415356E+01  0.49081439760E+03  0.53110500622E+03  0.17245731775E+03 0.  0.
        -24    2    5    5    0    0 -0.47796146339E+02 -0.61934026380E+02  0.32311958457E+03  0.34215648454E+03  0.80898076309E+02 0.  0.
          4    1    4    4  501    0 -0.60150550331E+01  0.32807494268E+02  0.16237055258E+03  0.16576099937E+03  0.00000000000E+00 0. -1.
         -3    1    4    4    0  501  0.52080040274E+02 -0.15858366336E+02  0.52364699106E+03  0.52646936247E+03  0.00000000000E+00 0.  1.
          5    1    3    3  502    0  0.60841212010E+02 -0.18763869468E+02  0.73658690162E+02  0.97475271287E+02  0.47000000000E+01 0. -1.
         13    1    6    6    0    0 -0.49589965813E+02 -0.77163023474E+01  0.92446919155E+02  0.10519096393E+03  0.00000000000E+00 0. -1.
        -14    1    6    6    0    0  0.17938194743E+01 -0.54217724032E+02  0.23067266542E+03  0.23696552061E+03  0.00000000000E+00 0.  1.
         -5    1    5    5    0  503 -0.59110050911E+02  0.63748767915E+02  0.16769481303E+03  0.18894852168E+03  0.47000000000E+01 0.  1.
<mgrwt>
<rscale>  2 0.21243055E+03</rscale>
<asrwt>0</asrwt>
<pdfrwt beam="1">  1       21 0.19779237E+00 0.21570120E+03</pdfrwt>
<pdfrwt beam="2">  1       21 0.54092324E-02 0.21570120E+03</pdfrwt>
<totfact> 0.32139931E+04</totfact>
</mgrwt>
</event>
<event>
12    1  0.2762290E-001  0.2400204E+03  0.7546771E-02  0.1120335E+00
         21   -1    0    0  504  503  0.00000000000E+00  0.00000000000E+00  0.43240659777E+03  0.43240659777E+03  0.00000000000E+00 0.  1.
         21   -1    0    0  502  504 -0.00000000000E+00 -0.00000000000E+00 -0.15462364623E+03  0.15462364623E+03  0.00000000000E+00 0. -1.
          6    2    1    2  502    0  0.10304312879E+03  0.13090474110E+03  0.25182829083E+03  0.34561065079E+03  0.16815259809E+03 0.  0.
         24    2    3    3    0    0  0.36387666608E+02  0.14310529863E+03  0.14664159725E+03  0.22039829218E+03  0.72584160623E+02 0.  0.
         -6    2    1    2    0  503 -0.10304312879E+03 -0.13090474110E+03  0.25954660711E+02  0.24141959321E+03  0.17278841958E+03 0.  0.
        -24    2    5    5    0    0 -0.11084590109E+03 -0.11585224462E+03 -0.30569555534E+02  0.18222045531E+03  0.81001482940E+02 0.  0.
          2    1    4    4  501    0 -0.99957056362E+00 -0.63903724830E+01 -0.15000745590E+01  0.66397458887E+01  0.00000000000E+00 0. -1.
         -1    1    4    4    0  501  0.37387237172E+02  0.14949567111E+03  0.14814167181E+03  0.21375854629E+03  0.00000000000E+00 0.  1.
          5    1    3    3  502    0  0.66655462186E+02 -0.12200557530E+02  0.10518669358E+03  0.12521235861E+03  0.47000000000E+01 0. -1.
         11    1    6    6    0    0 -0.98508466805E+02 -0.12829459250E+03 -0.30991192622E+02  0.16469327405E+03  0.00000000000E+00 0. -1.
        -12    1    6    6    0    0 -0.12337434282E+02  0.12442347877E+02  0.42163708813E+00  0.17527181268E+02  0.00000000000E+00 0.  1.
         -5    1    5    5    0  503  0.78027722936E+01 -0.15052496480E+02  0.56524216245E+02  0.59199137898E+02  0.47000000000E+01 0.  1.
<mgrwt>
<rscale>  2 0.23918718E+03</rscale>
<asrwt>0</asrwt>
<pdfrwt beam="1">  1       21 0.66524092E-01 0.24002036E+03</pdfrwt>
<pdfrwt beam="2">  1       21 0.23788253E-01 0.24002036E+03</pdfrwt>
<totfact> 0.33688040E+04</totfact>
</mgrwt>
</event>
<event>
12    1  0.2762290E-001  0.1734416E+03  0.7546771E-02  0.1174489E+00
         21   -1    0    0  504  503  0.00000000000E+00  0.00000000000E+00  0.20803124737E+03  0.20803124737E+03  0.00000000000E+00 0.  1.
         21   -1    0    0  502  504 -0.00000000000E+00 -0.00000000000E+00 -0.10380584636E+04  0.10380584636E+04  0.00000000000E+00 0.  1.
          6    2    1    2  502    0 -0.10385007844E+02  0.66668704724E+01 -0.99311021244E+03  0.10080182186E+04  0.17228040922E+03 0.  0.
         24    2    3    3    0    0  0.31900079461E+02 -0.36892313626E+02 -0.79922585107E+03  0.80479748463E+03  0.80983778423E+02 0.  0.
         -6    2    1    2    0  503  0.10385007844E+02 -0.66668704724E+01  0.16308299619E+03  0.23807149240E+03  0.17300195460E+03 0.  0.
        -24    2    5    5    0    0  0.57777327844E+02  0.23107292433E+01  0.16108493150E+03  0.18956673434E+03  0.81508481333E+02 0.  0.
          2    1    4    4  501    0 -0.24785289919E+02  0.23266706027E+01 -0.17126546896E+03  0.17306526183E+03  0.00000000000E+00 0. -1.
         -1    1    4    4    0  501  0.56685369379E+02 -0.39218984228E+02 -0.62796038211E+03  0.63173222280E+03  0.00000000000E+00 0.  1.
          5    1    3    3  502    0 -0.42285087305E+02  0.43559184098E+02 -0.19388436137E+03  0.20322073396E+03  0.47000000000E+01 0. -1.
         11    1    6    6    0    0 -0.16599839347E+02 -0.11003343971E+02  0.14438176130E+02  0.24598560422E+02  0.00000000000E+00 0. -1.
        -12    1    6    6    0    0  0.74377167191E+02  0.13314073214E+02  0.14664675537E+03  0.16496817392E+03  0.00000000000E+00 0.  1.
         -5    1    5    5    0  503 -0.47392320000E+02 -0.89775997157E+01  0.19980646896E+01  0.48504758057E+02  0.47000000000E+01 0.  1.
<mgrwt>
<rscale>  2 0.17326134E+03</rscale>
<asrwt>0</asrwt>
<pdfrwt beam="1">  1       21 0.32004807E-01 0.17344155E+03</pdfrwt>
<pdfrwt beam="2">  1       21 0.15970130E+00 0.17344155E+03</pdfrwt>
<totfact> 0.24207277E+03</totfact>
</mgrwt>
</event>
<event>
12    1  0.2762290E-001  0.2359255E+03  0.7546771E-02  0.1122638E+00
         21   -1    0    0  504  503  0.00000000000E+00  0.00000000000E+00  0.18600019761E+03  0.18600019761E+03  0.00000000000E+00 0.  1.
         21   -1    0    0  502  504 -0.00000000000E+00 -0.00000000000E+00 -0.29864442535E+03  0.29864442535E+03  0.00000000000E+00 0.  1.
          6    2    1    2  502    0 -0.43427937329E+01 -0.16067210681E+03 -0.61680286052E+02  0.24385506408E+03  0.17270335500E+03 0.  0.
         24    2    3    3    0    0  0.29096370523E+02 -0.15561483688E+03 -0.91530208263E+02  0.19850242864E+03  0.77219550112E+02 0.  0.
         -6    2    1    2    0  503  0.43427937329E+01  0.16067210681E+03 -0.50963941684E+02  0.24078955888E+03  0.17189503352E+03 0.  0.
        -24    2    5    5    0    0  0.39862123634E+01  0.74867249793E+01  0.89843226936E+01  0.76224153159E+02  0.75216105527E+02 0.  0.
          4    1    4    4  501    0  0.83649111467E+01 -0.92089674850E+02 -0.98814638784E+01  0.92995286337E+02  0.00000000000E+00 0. -1.
         -3    1    4    4    0  501  0.20731459376E+02 -0.63525162026E+02 -0.81648744385E+02  0.10550714231E+03  0.00000000000E+00 0.  1.
          5    1    3    3  502    0 -0.33439164256E+02 -0.50572699383E+01  0.29849922211E+02  0.45352635440E+02  0.47000000000E+01 0. -1.
         13    1    6    6    0    0 -0.62716134370E+01 -0.31159315990E+02 -0.80104196390E+01  0.32778086137E+02  0.00000000000E+00 0. -1.
        -14    1    6    6    0    0  0.10257825800E+02  0.38646040969E+02  0.16994742333E+02  0.43446067022E+02  0.00000000000E+00 0.  1.
         -5    1    5    5    0  503  0.35658136943E+00  0.15318538184E+03 -0.59948264378E+02  0.16456540572E+03  0.47000000000E+01 0.  1.
<mgrwt>
<rscale>  2 0.23577758E+03</rscale>
<asrwt>0</asrwt>
<pdfrwt beam="1">  1       21 0.28615415E-01 0.23592549E+03</pdfrwt>
<pdfrwt beam="2">  1       21 0.45945295E-01 0.23592549E+03</pdfrwt>
<totfact> 0.52005961E+04</totfact>
</mgrwt>
</event>
<event>
12    1  0.2762290E-001  0.2042922E+03  0.7546771E-02  0.1146185E+00
         21   -1    0    0  504  503  0.00000000000E+00  0.00000000000E+00  0.16830027853E+04  0.16830027853E+04  0.00000000000E+00 0.  1.
         21   -1    0    0  502  504 -0.00000000000E+00 -0.00000000000E+00 -0.28649919091E+02  0.28649919091E+02  0.00000000000E+00 0.  1.
          6    2    1    2  502    0  0.36986429043E+02  0.10234993888E+03  0.11412513193E+04  0.11593769617E+04  0.17279137546E+03 0.  0.
         24    2    3    3    0    0  0.58275199101E+02  0.10854006666E+03  0.60157695947E+03  0.61922695092E+03  0.79813743676E+02 0.  0.
         -6    2    1    2    0  503 -0.36986429043E+02 -0.10234993888E+03  0.51310154690E+03  0.55227574275E+03  0.17289243095E+03 0.  0.
        -24    2    5    5    0    0 -0.46086929345E+02  0.43754836842E+01  0.18468153618E+03  0.20679791659E+03  0.80715293393E+02 0.  0.
          4    1    4    4  501    0 -0.10380882585E+02  0.59533854404E+02  0.30276523291E+03  0.30873747554E+03  0.00000000000E+00 0. -1.
         -3    1    4    4    0  501  0.68656081686E+02  0.49006212254E+02  0.29881172656E+03  0.31048947538E+03  0.00000000000E+00 0.  1.
          5    1    3    3  502    0 -0.21288770058E+02 -0.61901277824E+01  0.53967435987E+03  0.54015001075E+03  0.47000000000E+01 0. -1.
         11    1    6    6    0    0 -0.69074405219E+02  0.28807467856E+01  0.14996937306E+03  0.16513747308E+03  0.00000000000E+00 0. -1.
        -12    1    6    6    0    0  0.22987475874E+02  0.14947368986E+01  0.34712163117E+02  0.41660443513E+02  0.00000000000E+00 0.  1.
         -5    1    5    5    0  503  0.91005003022E+01 -0.10672542256E+03  0.32842001072E+03  0.34547782616E+03  0.47000000000E+01 0.  1.
<mgrwt>
<rscale>  2 0.20427081E+03</rscale>
<asrwt>0</asrwt>
<pdfrwt beam="1">  1       21 0.25892343E+00 0.20429219E+03</pdfrwt>
<pdfrwt beam="2">  1       21 0.44076812E-02 0.20429219E+03</pdfrwt>
<totfact> 0.19423636E+04</totfact>
</mgrwt>
</event>
<event>
12    1  0.2762290E-001  0.1855918E+03  0.7546771E-02  0.1162974E+00
         21   -1    0    0  504  503  0.00000000000E+00  0.00000000000E+00  0.32358580569E+03  0.32358580569E+03  0.00000000000E+00 0.  1.
         21   -1    0    0  502  504 -0.00000000000E+00 -0.00000000000E+00 -0.10968954211E+03  0.10968954211E+03  0.00000000000E+00 0.  1.
          6    2    1    2  502    0 -0.34104265371E+02 -0.55459666717E+02  0.15093258798E+03  0.23921737769E+03  0.17379710045E+03 0.  0.
         24    2    3    3    0    0 -0.44919504003E+02 -0.84371520089E+02  0.16335284382E+03  0.20561354744E+03  0.80352125456E+02 0.  0.
         -6    2    1    2    0  503  0.34104265371E+02  0.55459666717E+02  0.62963675600E+02  0.19405797010E+03  0.17162516065E+03 0.  0.
        -24    2    5    5    0    0  0.58959889055E+02  0.62069752898E+02 -0.69236698343E+01  0.11944010147E+03  0.83000469230E+02 0.  0.
          4    1    4    4  501    0  0.20775776685E+02 -0.36601557690E+02  0.41025607956E+02  0.58774207186E+02  0.00000000000E+00 0. -1.
         -3    1    4    4    0  501 -0.65695280689E+02 -0.47769962399E+02  0.12232723586E+03  0.14683934026E+03  0.00000000000E+00 0.  1.
          5    1    3    3  502    0  0.10815238633E+02  0.28911853372E+02 -0.12420255841E+02  0.33603830246E+02  0.47000000000E+01 0. -1.
         13    1    6    6    0    0 -0.20474324350E+02  0.14988816353E+02  0.63381682124E+01  0.26154061817E+02  0.00000000000E+00 0. -1.
        -14    1    6    6    0    0  0.79434213405E+02  0.47080936545E+02 -0.13261838047E+02  0.93286039650E+02  0.00000000000E+00 0.  1.
         -5    1    5    5    0  503 -0.24855623684E+02 -0.66100861809E+01  0.69887345435E+02  0.74617868637E+02  0.47000000000E+01 0.  1.
<mgrwt>
<rscale>  2 0.18508160E+03</rscale>
<asrwt>0</asrwt>
<pdfrwt beam="1">  1       21 0.49782431E-01 0.18559178E+03</pdfrwt>
<pdfrwt beam="2">  1       21 0.16875314E-01 0.18559178E+03</pdfrwt>
<totfact> 0.12189662E+05</totfact>
</mgrwt>
</event>
<event>
12    1  0.2762290E-001  0.2694503E+03  0.7546771E-02  0.1102839E+00
         21   -1    0    0  504  503  0.00000000000E+00  0.00000000000E+00  0.11026434313E+04  0.11026434313E+04  0.00000000000E+00 0.  1.
         21   -1    0    0  502  504 -0.00000000000E+00 -0.00000000000E+00 -0.72202203957E+02  0.72202203957E+02  0.00000000000E+00 0. -1.
          6    2    1    2  502    0 -0.14886760521E+03 -0.12713263919E+03  0.30726831826E+03  0.40310569612E+03  0.17249959713E+03 0.  0.
         24    2    3    3    0    0 -0.94830079457E+01 -0.18035562381E+02  0.11066090965E+03  0.13851771218E+03  0.80784346959E+02 0.  0.
         -6    2    1    2    0  503  0.14886760521E+03  0.12713263919E+03  0.72317290905E+03  0.77173993910E+03  0.18514644311E+03 0.  0.
        -24    2    5    5    0    0  0.12206114769E+03  0.83852029464E+01  0.43160908497E+03  0.45574770297E+03  0.80313953561E+02 0.  0.
          2    1    4    4  501    0  0.34932711405E+00  0.29205715595E+01  0.11493982919E+03  0.11497745911E+03  0.00000000000E+00 0. -1.
         -1    1    4    4    0  501 -0.98323350597E+01 -0.20956133940E+02 -0.42789195424E+01  0.23540253077E+02  0.00000000000E+00 0.  1.
          5    1    3    3  502    0 -0.13938459726E+03 -0.10909707681E+03  0.19660740861E+03  0.26458798394E+03  0.47000000000E+01 0. -1.
         11    1    6    6    0    0  0.39549087463E+01 -0.23627719080E+02  0.74131570258E+02  0.77906354818E+02  0.00000000000E+00 0. -1.
        -12    1    6    6    0    0  0.11810623895E+03  0.32012922026E+02  0.35747751471E+03  0.37784134816E+03  0.00000000000E+00 0.  1.
         -5    1    5    5    0  503  0.26806457516E+02  0.11874743625E+03  0.29156382408E+03  0.31599223613E+03  0.47000000000E+01 0.  1.
<mgrwt>
<rscale>  2 0.26729251E+03</rscale>
<asrwt>0</asrwt>
<pdfrwt beam="1">  1       21 0.16963744E+00 0.26945032E+03</pdfrwt>
<pdfrwt beam="2">  1       21 0.11108032E-01 0.26945032E+03</pdfrwt>
<totfact> 0.13753065E+04</totfact>
</mgrwt>
</event>
<event>
12    1  0.2762290E-001  0.1930834E+03  0.7546771E-02  0.1156376E+00
         21   -1    0    0  504  503  0.00000000000E+00  0.00000000000E+00  0.64487155527E+03  0.64487155527E+03  0.00000000000E+00 0. -1.
         21   -1    0    0  502  504 -0.00000000000E+00 -0.00000000000E+00 -0.89836429970E+02  0.89836429970E+02  0.00000000000E+00 0.  1.
          6    2    1    2  502    0 -0.81236681364E+02  0.26113047248E+02  0.53779389557E+02  0.19755017538E+03  0.16986041156E+03 0.  0.
         24    2    3    3    0    0 -0.83527765090E+02  0.72199151594E+02  0.14525109862E+02  0.13678697473E+03  0.79436091339E+02 0.  0.
         -6    2    1    2    0  503  0.81236681364E+02 -0.26113047248E+02  0.50125573574E+03  0.53715780986E+03  0.17320482224E+03 0.  0.
        -24    2    5    5    0    0  0.59376567135E+02  0.28602093933E+02  0.44241149520E+03  0.45375309828E+03  0.76290802958E+02 0.  0.
          4    1    4    4  501    0 -0.11860060019E+02  0.62344441386E+02  0.30070921562E+01  0.63533715448E+02  0.00000000000E+00 0. -1.
         -3    1    4    4    0  501 -0.71667705071E+02  0.98547102077E+01  0.11518017706E+02  0.73253259281E+02  0.00000000000E+00 0.  1.
          5    1    3    3  502    0  0.22910837261E+01 -0.46086104346E+02  0.39254279695E+02  0.60763200646E+02  0.47000000000E+01 0. -1.
         11    1    6    6    0    0  0.71057814220E+02  0.19619684662E+02  0.24645865544E+03  0.25724698993E+03  0.00000000000E+00 0. -1.
        -12    1    6    6    0    0 -0.11681247085E+02  0.89824092710E+01  0.19595283976E+03  0.19650610835E+03  0.00000000000E+00 0.  1.
         -5    1    5    5    0  503  0.21860114229E+02 -0.54715141181E+02  0.58844240540E+02  0.83404711577E+02  0.47000000000E+01 0.  1.
<mgrwt>
<rscale>  2 0.19233042E+03</rscale>
<asrwt>0</asrwt>
<pdfrwt beam="1">  1       21 0.99211005E-01 0.19308340E+03</pdfrwt>
<pdfrwt beam="2">  1       21 0.13820990E-01 0.19308340E+03</pdfrwt>
<totfact> 0.38064618E+04</totfact>
</mgrwt>
</event>
<event>
12    1  0.2762290E-001  0.1813470E+03  0.7546771E-02  0.1168083E+00
         21   -1    0    0  504  503  0.00000000000E+00  0.00000000000E+00  0.20519462235E+04  0.20519462235E+04  0.00000000000E+00 0. -1.
         21   -1    0    0  502  504 -0.00000000000E+00 -0.00000000000E+00 -0.15529175953E+02  0.15529175953E+02  0.00000000000E+00 0. -1.
          6    2    1    2  502    0 -0.21709678650E+02  0.22243366941E+02  0.10679649790E+04  0.10821906000E+04  0.17210816621E+03 0.  0.
         24    2    3    3    0    0 -0.13105976468E+02 -0.30249692501E+02  0.93531126941E+03  0.93919185299E+03  0.78659745339E+02 0.  0.
         -6    2    1    2    0  503  0.21709678650E+02 -0.22243366941E+02  0.96845206856E+03  0.98528479945E+03  0.17866350888E+03 0.  0.
        -24    2    5    5    0    0  0.60736320966E+02 -0.24377397596E+02  0.90289008645E+03  0.90881195201E+03  0.80283857070E+02 0.  0.
          4    1    4    4  501    0  0.30637409842E+02  0.32263700403E+00  0.26673332164E+03  0.26848728061E+03  0.00000000000E+00 0. -1.
         -3    1    4    4    0  501 -0.43743386310E+02 -0.30572329505E+02  0.66857794777E+03  0.67070457239E+03  0.00000000000E+00 0.  1.
          5    1    3    3  502    0 -0.86037021818E+01  0.52493059442E+02  0.13265370957E+03  0.14299874700E+03  0.47000000000E+01 0. -1.
         13    1    6    6    0    0  0.69404593410E+02 -0.31927779340E+02  0.50408475287E+03  0.50984097399E+03  0.00000000000E+00 0. -1.
        -14    1    6    6    0    0 -0.86682724444E+01  0.75503817442E+01  0.39880533358E+03  0.39897097802E+03  0.00000000000E+00 0.  1.
         -5    1    5    5    0  503 -0.39026642316E+02  0.21340306550E+01  0.65561982110E+02  0.76472847440E+02  0.47000000000E+01 0.  1.
<mgrwt>
<rscale>  2 0.17971130E+03</rscale>
<asrwt>0</asrwt>
<pdfrwt beam="1">  1       21 0.31568382E+00 0.18134698E+03</pdfrwt>
<pdfrwt beam="2">  1       21 0.23891056E-02 0.18134698E+03</pdfrwt>
<totfact> 0.25821738E+04</totfact>
</mgrwt>
</event>
<event>
12    1  0.2762290E-001  0.1783332E+03  0.7546771E-02  0.1169529E+00
         21   -1    0    0  504  503  0.00000000000E+00  0.00000000000E+00  0.93927551875E+02  0.93927551875E+02  0.00000000000E+00 0. -1.
         21   -1    0    0  502  504 -0.00000000000E+00 -0.00000000000E+00 -0.34978235611E+03  0.34978235611E+03  0.00000000000E+00 0. -1.
          6    2    1    2  502    0  0.41356540936E+02  0.95377641144E+00 -0.16885927563E+03  0.24528878835E+03  0.17303716814E+03 0.  0.
         24    2    3    3    0    0 -0.19515687887E+02  0.36302312839E+02 -0.42165323912E+02  0.10027708306E+03  0.81110164931E+02 0.  0.
         -6    2    1    2    0  503 -0.41356540936E+02 -0.95377641144E+00 -0.86995528605E+02  0.19842111963E+03  0.17346886047E+03 0.  0.
        -24    2    5    5    0    0 -0.71057931266E+02  0.48618550752E+02 -0.43788141339E+02  0.12611236137E+03  0.81079795846E+02 0.  0.
          4    1    4    4  501    0 -0.19056217397E+02 -0.23774728676E+02 -0.18874522912E+02  0.35841662353E+02  0.00000000000E+00 0. -1.
         -3    1    4    4    0  501 -0.45947048998E+00  0.60077041515E+02 -0.23290801000E+02  0.64435420706E+02  0.00000000000E+00 0.  1.
          5    1    3    3  502    0  0.60872228823E+02 -0.35348536427E+02 -0.12669395172E+03  0.14501170529E+03  0.47000000000E+01 0. -1.
         11    1    6    6    0    0 -0.44039884386E+02  0.56877913838E+02  0.23931411467E+01  0.71974548445E+02  0.00000000000E+00 0. -1.
        -12    1    6    6    0    0 -0.27018046881E+02 -0.82593630868E+01 -0.46181282486E+02  0.54137812921E+02  0.00000000000E+00 0.  1.
         -5    1    5    5    0  503  0.29701390331E+02 -0.49572327163E+02 -0.43207387266E+02  0.72308758268E+02  0.47000000000E+01 0.  1.
<mgrwt>
<rscale>  2 0.17822810E+03</rscale>
<asrwt>0</asrwt>
<pdfrwt beam="1">  1       21 0.14450393E-01 0.17833317E+03</pdfrwt>
<pdfrwt beam="2">  1       21 0.53812669E-01 0.17833317E+03</pdfrwt>
<totfact> 0.13779799E+05</totfact>
</mgrwt>
</event>
<event>
12    1  0.2762290E-001  0.1969882E+03  0.7546771E-02  0.1152332E+00
         21   -1    0    0  504  503  0.00000000000E+00  0.00000000000E+00  0.16664633792E+03  0.16664633792E+03  0.00000000000E+00 0. -1.
         21   -1    0    0  502  504 -0.00000000000E+00 -0.00000000000E+00 -0.23511234033E+03  0.23511234033E+03  0.00000000000E+00 0.  1.
          6    2    1    2  502    0  0.41135480953E+02 -0.84764470906E+02 -0.54528510244E+02  0.20427799095E+03  0.17285541888E+03 0.  0.
         24    2    3    3    0    0  0.64355586259E+02 -0.10504480817E+03 -0.76456874440E+02  0.16615439555E+03  0.81151563785E+02 0.  0.
         -6    2    1    2    0  503 -0.41135480953E+02  0.84764470906E+02 -0.13937492168E+02  0.19748068729E+03  0.17299486941E+03 0.  0.
        -24    2    5    5    0    0  0.25406057674E+02  0.84771356770E+02  0.22244370801E+02  0.12159265386E+03  0.80363615801E+02 0.  0.
          2    1    4    4  501    0  0.25478514377E+02 -0.10436283255E+03 -0.65238327981E+02  0.12568530125E+03  0.00000000000E+00 0. -1.
         -1    1    4    4    0  501  0.38877071883E+02 -0.68197562493E+00 -0.11218546459E+02  0.40469094301E+02  0.00000000000E+00 0.  1.
          5    1    3    3  502    0 -0.23220105307E+02  0.20280337268E+02  0.21928364196E+02  0.38123595403E+02  0.47000000000E+01 0. -1.
         11    1    6    6    0    0  0.46755414072E+02  0.24408352602E+02  0.23051148631E+02  0.57560332478E+02  0.00000000000E+00 0. -1.
        -12    1    6    6    0    0 -0.21349356397E+02  0.60363004168E+02 -0.80677782982E+00  0.64032321379E+02  0.00000000000E+00 0.  1.
         -5    1    5    5    0  503 -0.66541538627E+02 -0.68858643573E-02 -0.36181862969E+02  0.75888033432E+02  0.47000000000E+01 0.  1.
<mgrwt>
<rscale>  2 0.19695762E+03</rscale>
<asrwt>0</asrwt>
<pdfrwt beam="1">  1       21 0.25637898E-01 0.19698824E+03</pdfrwt>
<pdfrwt beam="2">  1       21 0.36171129E-01 0.19698824E+03</pdfrwt>
<totfact> 0.10621362E+05</totfact>
</mgrwt>
</event>
<event>
12    1  0.2762290E-001  0.2604133E+03  0.7546771E-02  0.1107549E+00
         21   -1    0    0  504  503  0.00000000000E+00  0.00000000000E+00  0.11613000229E+03  0.11613000229E+03  0.00000000000E+00 0.  1.
         21   -1    0    0  502  504 -0.00000000000E+00 -0.00000000000E+00 -0.71628443010E+03  0.71628443010E+03  0.00000000000E+00 0. -1.
          6    2    1    2  502    0 -0.18439438212E+02 -0.19169723947E+03 -0.48738885827E+03  0.55259656918E+03  0.17529182697E+03 0.  0.
         24    2    3    3    0    0 -0.55567485839E+02 -0.62816243447E+02 -0.16553917603E+03  0.20388736222E+03  0.84458343291E+02 0.  0.
         -6    2    1    2    0  503  0.18439438212E+02  0.19169723947E+03 -0.11276556954E+03  0.27981786320E+03  0.16880200944E+03 0.  0.
        -24    2    5    5    0    0  0.15904421471E+02  0.65781312883E+02 -0.11121336452E+03  0.15377919367E+03  0.81850450268E+02 0.  0.
          2    1    4    4  501    0 -0.33679762410E+02 -0.60560265162E+02 -0.16801572252E+03  0.18174475268E+03  0.00000000000E+00 0. -1.
         -1    1    4    4    0  501 -0.21887723430E+02 -0.22559782850E+01  0.24765464919E+01  0.22142609546E+02  0.00000000000E+00 0.  1.
          5    1    3    3  502    0  0.37128047627E+02 -0.12888099602E+03 -0.32184968224E+03  0.34870920696E+03  0.47000000000E+01 0. -1.
         11    1    6    6    0    0  0.54163413139E+01  0.76662897215E+02 -0.52307942638E+02  0.92965893884E+02  0.00000000000E+00 0. -1.
        -12    1    6    6    0    0  0.10488080158E+02 -0.10881584332E+02 -0.58905421884E+02  0.60813299782E+02  0.00000000000E+00 0.  1.
         -5    1    5    5    0  503  0.25350167408E+01  0.12591592659E+03 -0.15522050152E+01  0.12603866954E+03  0.47000000000E+01 0.  1.
<mgrwt>
<rscale>  2 0.25932559E+03</rscale>
<asrwt>0</asrwt>
<pdfrwt beam="1">  1       21 0.17866154E-01 0.26041327E+03</pdfrwt>
<pdfrwt beam="2">  1       21 0.11019760E+00 0.26041327E+03</pdfrwt>
<totfact> 0.17808309E+04</totfact>
</mgrwt>
</event>
<event>
12    1  0.2762290E-001  0.1818230E+03  0.7546771E-02  0.1166316E+00
         21   -1    0    0  504  503  0.00000000000E+00  0.00000000000E+00  0.66663495700E+02  0.66663495700E+02  0.00000000000E+00 0.  1.
         21   -1    0    0  502  504 -0.00000000000E+00 -0.00000000000E+00 -0.49536989896E+03  0.49536989896E+03  0.00000000000E+00 0.  1.
          6    2    1    2  502    0  0.16045318135E+02 -0.54529095519E+02 -0.23353541279E+03  0.29529136841E+03  0.17154395570E+03 0.  0.
         24    2    3    3    0    0  0.75940781705E+02 -0.44699893526E+02 -0.14378032515E+03  0.18683794280E+03  0.80439742440E+02 0.  0.
         -6    2    1    2    0  503 -0.16045318135E+02  0.54529095519E+02 -0.19517099046E+03  0.26674202625E+03  0.17270992605E+03 0.  0.
        -24    2    5    5    0    0 -0.67984381242E+02  0.62174360218E+02 -0.10413517619E+03  0.16154827249E+03  0.82256806790E+02 0.  0.
          2    1    4    4  501    0  0.49270237114E+02 -0.68945794236E+00 -0.20725981004E+02  0.53456504807E+02  0.00000000000E+00 0. -1.
         -1    1    4    4    0  501  0.26670544590E+02 -0.44010435583E+02 -0.12305434415E+03  0.13338143800E+03  0.00000000000E+00 0.  1.
          5    1    3    3  502    0 -0.59895463570E+02 -0.98292019939E+01 -0.89755087641E+02  0.10845342561E+03  0.47000000000E+01 0. -1.
         13    1    6    6    0    0 -0.21273604093E+02 -0.13108634002E+02 -0.54593959468E+02  0.60040843823E+02  0.00000000000E+00 0. -1.
        -14    1    6    6    0    0 -0.46710777148E+02  0.75282994220E+02 -0.49541216722E+02  0.10150742867E+03  0.00000000000E+00 0.  1.
         -5    1    5    5    0  503  0.51939063107E+02 -0.76452646989E+01 -0.91035814273E+02  0.10519375376E+03  0.47000000000E+01 0.  1.
<mgrwt>
<rscale>  2 0.18154555E+03</rscale>
<asrwt>0</asrwt>
<pdfrwt beam="1">  1       21 0.10255923E-01 0.18182297E+03</pdfrwt>
<pdfrwt beam="2">  1       21 0.76210751E-01 0.18182297E+03</pdfrwt>
<totfact> 0.11951224E+05</totfact>
</mgrwt>
</event>
<event>
12    1  0.2762290E-001  0.1984628E+03  0.7546771E-02  0.1154387E+00
         21   -1    0    0  504  503  0.00000000000E+00  0.00000000000E+00  0.22044744358E+02  0.22044744358E+02  0.00000000000E+00 0. -1.
         21   -1    0    0  502  504 -0.00000000000E+00 -0.00000000000E+00 -0.23284725025E+04  0.23284725025E+04  0.00000000000E+00 0.  1.
          6    2    1    2  502    0  0.89997438710E+01 -0.60601611293E+02 -0.17532169859E+04  0.17627846216E+04  0.17287646389E+03 0.  0.
         24    2    3    3    0    0 -0.62074049806E+02 -0.23592606068E+02 -0.10406209861E+04  0.10456819096E+04  0.78414415876E+02 0.  0.
         -6    2    1    2    0  503 -0.89997438710E+01  0.60601611293E+02 -0.55321077226E+03  0.58773262529E+03  0.18876951451E+03 0.  0.
        -24    2    5    5    0    0 -0.23980225312E+02 -0.42347493632E+02 -0.24150512451E+03  0.25909082352E+03  0.80218253831E+02 0.  0.
          4    1    4    4  501    0 -0.81056645319E+01  0.26601538741E+02 -0.36330067123E+03  0.36436344682E+03  0.00000000000E+00 0. -1.
         -3    1    4    4    0  501 -0.53968385274E+02 -0.50194144808E+02 -0.67732031490E+03  0.68131846281E+03  0.00000000000E+00 0.  1.
          5    1    3    3  502    0  0.71073793677E+02 -0.37009005225E+02 -0.71259599980E+03  0.71710271199E+03  0.47000000000E+01 0. -1.
         13    1    6    6    0    0 -0.14840186237E+02 -0.39176914713E+02 -0.41898390984E+02  0.59249784312E+02  0.00000000000E+00 0. -1.
        -14    1    6    6    0    0 -0.91400390748E+01 -0.31705789184E+01 -0.19960673352E+03  0.19984103921E+03  0.00000000000E+00 0.  1.
         -5    1    5    5    0  503  0.14980481441E+02  0.10294910492E+03 -0.31170564775E+03  0.32864180177E+03  0.47000000000E+01 0.  1.
<mgrwt>
<rscale>  2 0.19458799E+03</rscale>
<asrwt>0</asrwt>
<pdfrwt beam="1">  1       21 0.33915000E-02 0.19846279E+03</pdfrwt>
<pdfrwt beam="2">  1       21 0.35822644E+00 0.19846279E+03</pdfrwt>
<totfact> 0.80118515E+03</totfact>
</mgrwt>
</event>
<event>
12    1  0.2762290E-001  0.1772203E+03  0.7546771E-02  0.1170945E+00
         21   -1    0    0  504  503  0.00000000000E+00  0.00000000000E+00  0.24545788121E+03  0.24545788121E+03  0.00000000000E+00 0.  1.
         21   -1    0    0  502  504 -0.00000000000E+00 -0.00000000000E+00 -0.15566690198E+03  0.15566690198E+03  0.00000000000E+00 0.  1.
          6    2    1    2  502    0  0.70424628912E+01  0.33867662809E+02 -0.41764800766E+02  0.18041239002E+03  0.17206893101E+03 0.  0.
         24    2    3    3    0    0 -0.65610307955E+01  0.24385023079E+02 -0.93226992507E+02  0.12614064160E+03  0.81132686735E+02 0.  0.
         -6    2    1    2    0  503 -0.70424628912E+01 -0.33867662809E+02  0.13155578000E+03  0.22071239317E+03  0.17381145641E+03 0.  0.
        -24    2    5    5    0    0  0.50775755193E+01 -0.84478386100E+02  0.55855492919E+02  0.12872889407E+03  0.79302664442E+02 0.  0.
          2    1    4    4  501    0  0.49333762407E+01 -0.27907905235E+02 -0.49386650870E+02  0.56940588862E+02  0.00000000000E+00 0. -1.
         -1    1    4    4    0  501 -0.11494407036E+02  0.52292928314E+02 -0.43840341637E+02  0.69200052743E+02  0.00000000000E+00 0.  1.
          5    1    3    3  502    0  0.13603493687E+02  0.94826397301E+01  0.51462191741E+02  0.54271748411E+02  0.47000000000E+01 0. -1.
         13    1    6    6    0    0 -0.12131319436E+02 -0.24148013124E+02 -0.17507081259E+02  0.32199275510E+02  0.00000000000E+00 0. -1.
        -14    1    6    6    0    0  0.17208894956E+02 -0.60330372975E+02  0.73362574178E+02  0.96529618558E+02  0.00000000000E+00 0.  1.
         -5    1    5    5    0  503 -0.12120038411E+02  0.50610723291E+02  0.75700287085E+02  0.91983499106E+02  0.47000000000E+01 0.  1.
<mgrwt>
<rscale>  2 0.17679158E+03</rscale>
<asrwt>0</asrwt>
<pdfrwt beam="1">  1       21 0.37762751E-01 0.17722031E+03</pdfrwt>
<pdfrwt beam="2">  1       21 0.23948754E-01 0.17722031E+03</pdfrwt>
<totfact> 0.11179669E+05</totfact>
</mgrwt>
</event>
<event>
12    1  0.2762290E-001  0.1950538E+03  0.7546771E-02  0.1156347E+00
         21   -1    0    0  504  503  0.00000000000E+00  0.00000000000E+00  0.16000019278E+03  0.16000019278E+03  0.00000000000E+00 0. -1.
         21   -1    0    0  502  504 -0.00000000000E+00 -0.00000000000E+00 -0.22777917734E+03  0.22777917734E+03  0.00000000000E+00 0. -1.
          6    2    1    2  502    0  0.60854576691E+02  0.10914633143E+02 -0.55793971549E+02  0.20287670232E+03  0.18499616310E+03 0.  0.
         24    2    3    3    0    0  0.48516139613E+02  0.62650765812E+02  0.14128358492E+02  0.11489893984E+03  0.81995253533E+02 0.  0.
         -6    2    1    2    0  503 -0.60854576691E+02 -0.10914633143E+02 -0.11985013009E+02  0.18490266779E+03  0.17384748287E+03 0.  0.
        -24    2    5    5    0    0 -0.15486232602E+02 -0.22376371002E+02 -0.70741282973E+02  0.10964280239E+03  0.79225561662E+02 0.  0.
          4    1    4    4  501    0  0.56656030954E+02  0.16612129025E+02 -0.13538183501E+02  0.60573518032E+02  0.00000000000E+00 0. -1.
         -3    1    4    4    0  501 -0.81398913418E+01  0.46038636787E+02  0.27666541993E+02  0.54325421804E+02  0.00000000000E+00 0.  1.
          5    1    3    3  502    0  0.12338437078E+02 -0.51736132669E+02 -0.69922330041E+02  0.87977762483E+02  0.47000000000E+01 0. -1.
         13    1    6    6    0    0 -0.43337313743E+02 -0.32397962711E+02 -0.47710343423E+02  0.72138946623E+02  0.00000000000E+00 0. -1.
        -14    1    6    6    0    0  0.27851081142E+02  0.10021591709E+02 -0.23030939550E+02  0.37503855771E+02  0.00000000000E+00 0.  1.
         -5    1    5    5    0  503 -0.45368344089E+02  0.11461737859E+02  0.58756269963E+02  0.75259865401E+02  0.47000000000E+01 0.  1.
<mgrwt>
<rscale>  2 0.19236367E+03</rscale>
<asrwt>0</asrwt>
<pdfrwt beam="1">  1       21 0.24615414E-01 0.19505381E+03</pdfrwt>
<pdfrwt beam="2">  1       21 0.35042950E-01 0.19505381E+03</pdfrwt>
<totfact> 0.12237001E+05</totfact>
</mgrwt>
</event>
<event>
12    1  0.2762290E-001  0.3102734E+03  0.7546771E-02  0.1080349E+00
         21   -1    0    0  504  503  0.00000000000E+00  0.00000000000E+00  0.19909496883E+03  0.19909496883E+03  0.00000000000E+00 0.  1.
         21   -1    0    0  502  504 -0.00000000000E+00 -0.00000000000E+00 -0.48203228731E+03  0.48203228731E+03  0.00000000000E+00 0. -1.
          6    2    1    2  502    0  0.17364686422E+02 -0.25747574467E+03 -0.13358254950E+03  0.33677796649E+03  0.17023457273E+03 0.  0.
         24    2    3    3    0    0  0.30300325738E+02 -0.92331824775E+02 -0.60182746392E+01  0.12764982571E+03  0.82552908906E+02 0.  0.
         -6    2    1    2    0  503 -0.17364686422E+02  0.25747574467E+03 -0.14935476898E+03  0.34434928965E+03  0.17226228501E+03 0.  0.
        -24    2    5    5    0    0  0.38988293064E+02  0.21296203982E+03 -0.81973674648E+02  0.24576211964E+03  0.82501022512E+02 0.  0.
          2    1    4    4  501    0  0.21504731982E+02  0.73803752547E+01  0.12358291403E+02  0.25877612002E+02  0.00000000000E+00 0. -1.
         -1    1    4    4    0  501  0.87955937563E+01 -0.99712200030E+02 -0.18376566042E+02  0.10177221371E+03  0.00000000000E+00 0.  1.
          5    1    3    3  502    0 -0.12935639316E+02 -0.16514391989E+03 -0.12756427486E+03  0.20912814077E+03  0.47000000000E+01 0. -1.
         11    1    6    6    0    0 -0.85931594912E+01  0.91239600303E+02 -0.68424893977E+02  0.11436989625E+03  0.00000000000E+00 0. -1.
        -12    1    6    6    0    0  0.47581452555E+02  0.12172243951E+03 -0.13548780671E+02  0.13139222339E+03  0.00000000000E+00 0.  1.
         -5    1    5    5    0  503 -0.56352979486E+02  0.44513704852E+02 -0.67381094337E+02  0.98587170010E+02  0.47000000000E+01 0.  1.
<mgrwt>
<rscale>  2 0.30999273E+03</rscale>
<asrwt>0</asrwt>
<pdfrwt beam="1">  1       21 0.30629996E-01 0.31027341E+03</pdfrwt>
<pdfrwt beam="2">  1       21 0.74158813E-01 0.31027341E+03</pdfrwt>
<totfact> 0.15710519E+04</totfact>
</mgrwt>
</event>
<event>
12    1  0.2762290E-001  0.2702791E+03  0.7546771E-02  0.1101218E+00
         21   -1    0    0  504  503  0.00000000000E+00  0.00000000000E+00  0.84842285636E+03  0.84842285636E+03  0.00000000000E+00 0.  1.
         21   -1    0    0  502  504 -0.00000000000E+00 -0.00000000000E+00 -0.85964471121E+02  0.85964471121E+02  0.00000000000E+00 0.  1.
          6    2    1    2  502    0  0.17463186373E+03 -0.11039393424E+03  0.36744909832E+03  0.45614649698E+03  0.17426324428E+03 0.  0.
         24    2    3    3    0    0  0.15833771237E+03 -0.14435052477E+03  0.27231115444E+03  0.35371667821E+03  0.71093026718E+02 0.  0.
         -6    2    1    2    0  503 -0.17463186373E+03  0.11039393424E+03  0.39500928692E+03  0.47824083050E+03  0.17320175131E+03 0.  0.
        -24    2    5    5    0    0 -0.33528273149E+02  0.79207701034E+01  0.92227336160E+02  0.12879845707E+03  0.83043827637E+02 0.  0.
          2    1    4    4  501    0  0.75794694020E+02 -0.23962467773E+02  0.10464256151E+03  0.13141195221E+03  0.00000000000E+00 0. -1.
         -1    1    4    4    0  501  0.82543018350E+02 -0.12038805700E+03  0.16766859293E+03  0.22230472600E+03  0.00000000000E+00 0.  1.
          5    1    3    3  502    0  0.16294151356E+02  0.33956590533E+02  0.95137943875E+02  0.10242981877E+03  0.47000000000E+01 0. -1.
         13    1    6    6    0    0  0.84453180296E+00 -0.32553817829E+02  0.55106399798E+02  0.64009214867E+02  0.00000000000E+00 0. -1.
        -14    1    6    6    0    0 -0.34372804952E+02  0.40474587932E+02  0.37120936362E+02  0.64789242201E+02  0.00000000000E+00 0.  1.
         -5    1    5    5    0  503 -0.14110359058E+03  0.10247316414E+03  0.30278195076E+03  0.34944237343E+03  0.47000000000E+01 0.  1.
<mgrwt>
<rscale>  2 0.27010813E+03</rscale>
<asrwt>0</asrwt>
<pdfrwt beam="1">  1       21 0.13052659E+00 0.27027909E+03</pdfrwt>
<pdfrwt beam="2">  1       21 0.13225304E-01 0.27027909E+03</pdfrwt>
<totfact> 0.20182327E+04</totfact>
</mgrwt>
</event>
<event>
12    1  0.2762290E-001  0.2466728E+03  0.7546771E-02  0.1115451E+00
         21   -1    0    0  504  503  0.00000000000E+00  0.00000000000E+00  0.69992176180E+02  0.69992176180E+02  0.00000000000E+00 0. -1.
         21   -1    0    0  502  504 -0.00000000000E+00 -0.00000000000E+00 -0.11050947888E+04  0.11050947888E+04  0.00000000000E+00 0.  1.
          6    2    1    2  502    0 -0.48725526104E+02 -0.16912595425E+03 -0.24572884902E+03  0.34806917170E+03  0.17260276868E+03 0.  0.
         24    2    3    3    0    0  0.96748277046E+01 -0.12191471861E+03 -0.22862515152E+03  0.27090617174E+03  0.78510464731E+02 0.  0.
         -6    2    1    2    0  503  0.48725526104E+02  0.16912595425E+03 -0.78937376359E+03  0.82701779326E+03  0.17282860421E+03 0.  0.
        -24    2    5    5    0    0  0.99646446938E+02  0.11009875918E+03 -0.51932393357E+03  0.54590189078E+03  0.79122532918E+02 0.  0.
          2    1    4    4  501    0 -0.47582325868E+01  0.98705678507E+01 -0.82056482574E+01  0.13689468593E+02  0.00000000000E+00 0. -1.
         -1    1    4    4    0  501  0.14433060291E+02 -0.13178528647E+03 -0.22041950327E+03  0.25721670315E+03  0.00000000000E+00 0.  1.
          5    1    3    3  502    0 -0.58400353808E+02 -0.47211235636E+02 -0.17103697492E+02  0.77162999962E+02  0.47000000000E+01 0. -1.
         11    1    6    6    0    0  0.58218478707E+02  0.40719646544E+02 -0.36343499265E+03  0.37031402182E+03  0.00000000000E+00 0. -1.
        -12    1    6    6    0    0  0.41427968231E+02  0.69379112641E+02 -0.15588894092E+03  0.17558786896E+03  0.00000000000E+00 0.  1.
         -5    1    5    5    0  503 -0.50920920835E+02  0.59027195066E+02 -0.27004983001E+03  0.28111590248E+03  0.47000000000E+01 0.  1.
<mgrwt>
<rscale>  2 0.24663329E+03</rscale>
<asrwt>0</asrwt>
<pdfrwt beam="1">  1       21 0.10768028E-01 0.24667284E+03</pdfrwt>
<pdfrwt beam="2">  1       21 0.17001457E+00 0.24667284E+03</pdfrwt>
<totfact> 0.14640480E+04</totfact>
</mgrwt>
</event>
<event>
12    1  0.2762290E-001  0.2127923E+03  0.7546771E-02  0.1141610E+00
         21   -1    0    0  504  503  0.00000000000E+00  0.00000000000E+00  0.27747130820E+03  0.27747130820E+03  0.00000000000E+00 0. -1.
         21   -1    0    0  502  504 -0.00000000000E+00 -0.00000000000E+00 -0.17846943715E+03  0.17846943715E+03  0.00000000000E+00 0.  1.
          6    2    1    2  502    0 -0.12509268294E+03  0.60076081612E+01 -0.34754179817E+02  0.20460183107E+03  0.15801830774E+03 0.  0.
         24    2    3    3    0    0 -0.78283579861E+02  0.60630442065E+02 -0.23361514246E+02  0.13161807299E+03  0.83505613031E+02 0.  0.
         -6    2    1    2    0  503  0.12509268294E+03 -0.60076081612E+01  0.13375605086E+03  0.25133891429E+03  0.17203574632E+03 0.  0.
        -24    2    5    5    0    0  0.73054459151E+02 -0.68908663761E+02  0.67093873641E+02  0.14583794082E+03  0.81742028110E+02 0.  0.
          2    1    4    4  501    0 -0.20575575745E+02  0.66145376846E+02 -0.24943138401E+02  0.73625575370E+02  0.00000000000E+00 0. -1.
         -1    1    4    4    0  501 -0.57708004116E+02 -0.55149347805E+01  0.15816241554E+01  0.57992497615E+02  0.00000000000E+00 0.  1.
          5    1    3    3  502    0 -0.46809103078E+02 -0.54622833904E+02 -0.11392665571E+02  0.72983758080E+02  0.47000000000E+01 0. -1.
         13    1    6    6    0    0  0.51722362233E+02 -0.20914467253E+02  0.74203626888E+02  0.92837470553E+02  0.00000000000E+00 0. -1.
        -14    1    6    6    0    0  0.21332096918E+02 -0.47994196507E+02 -0.71097532473E+01  0.53000470267E+02  0.00000000000E+00 0.  1.
         -5    1    5    5    0  503  0.52038223789E+02  0.62901055599E+02  0.66662177221E+02  0.10550097347E+03  0.47000000000E+01 0.  1.
<mgrwt>
<rscale>  2 0.20994471E+03</rscale>
<asrwt>0</asrwt>
<pdfrwt beam="1">  1       21 0.42687894E-01 0.21279231E+03</pdfrwt>
<pdfrwt beam="2">  1       21 0.27456836E-01 0.21279231E+03</pdfrwt>
<totfact> 0.66194921E+04</totfact>
</mgrwt>
</event>
<event>
12    1  0.2762290E-001  0.1783766E+03  0.7546771E-02  0.1172373E+00
         21   -1    0    0  504  503  0.00000000000E+00  0.00000000000E+00  0.13584242427E+03  0.13584242427E+03  0.00000000000E+00 0.  1.
         21   -1    0    0  502  504 -0.00000000000E+00 -0.00000000000E+00 -0.98715503135E+03  0.98715503135E+03  0.00000000000E+00 0.  1.
          6    2    1    2  502    0  0.18221832067E+02 -0.40181511254E+02 -0.91767547556E+03  0.93267607577E+03  0.16065427118E+03 0.  0.
         24    2    3    3    0    0  0.51330677648E+02 -0.20374060735E+02 -0.33360038402E+03  0.34730923923E+03  0.79275157652E+02 0.  0.
         -6    2    1    2    0  503 -0.18221832067E+02  0.40181511254E+02  0.66362868475E+02  0.19032137985E+03  0.17283404846E+03 0.  0.
        -24    2    5    5    0    0 -0.62584113442E+02  0.69690779399E+02  0.40885818333E+02  0.13107630412E+03  0.82071745270E+02 0.  0.
          4    1    4    4  501    0 -0.44415094480E+00 -0.29707242178E+02 -0.22143059187E+03  0.22341491563E+03  0.00000000000E+00 0. -1.
         -3    1    4    4    0  501  0.51774828593E+02  0.93331814423E+01 -0.11216979215E+03  0.12389432361E+03  0.00000000000E+00 0.  1.
          5    1    3    3  502    0 -0.33108845581E+02 -0.19807450518E+02 -0.58407509154E+03  0.58536683653E+03  0.47000000000E+01 0. -1.
         13    1    6    6    0    0 -0.10376555115E+02 -0.14165786879E+02 -0.97382443907E+01  0.20079238476E+02  0.00000000000E+00 0. -1.
        -14    1    6    6    0    0 -0.52207558327E+02  0.83856566277E+02  0.50624062724E+02  0.11099706564E+03  0.00000000000E+00 0.  1.
         -5    1    5    5    0  503  0.44362281375E+02 -0.29509268145E+02  0.25477050142E+02  0.59245075737E+02  0.47000000000E+01 0.  1.
<mgrwt>
<rscale>  2 0.17535724E+03</rscale>
<asrwt>0</asrwt>
<pdfrwt beam="1">  1       21 0.20898834E-01 0.17837656E+03</pdfrwt>
<pdfrwt beam="2">  1       21 0.15187001E+00 0.17837656E+03</pdfrwt>
<totfact> 0.62242342E+03</totfact>
</mgrwt>
</event>
<event>
12    1  0.2762290E-001  0.2055545E+03  0.7546771E-02  0.1145444E+00
         21   -1    0    0  504  503  0.00000000000E+00  0.00000000000E+00  0.83980783512E+02  0.83980783512E+02  0.00000000000E+00 0.  1.
         21   -1    0    0  502  504 -0.00000000000E+00 -0.00000000000E+00 -0.60390638505E+03  0.60390638505E+03  0.00000000000E+00 0.  1.
          6    2    1    2  502    0  0.85233860184E+02  0.67359603045E+02 -0.40222658840E+03  0.45102069656E+03  0.17271743764E+03 0.  0.
         24    2    3    3    0    0  0.66293830515E+02  0.84538639911E+02 -0.17443378609E+03  0.22174903495E+03  0.84875409694E+02 0.  0.
         -6    2    1    2    0  503 -0.85233860184E+02 -0.67359603045E+02 -0.11769901313E+03  0.23686647199E+03  0.17450083329E+03 0.  0.
        -24    2    5    5    0    0 -0.61115482657E+02 -0.52503460703E+02  0.26222105745E+01  0.11316648018E+03  0.79423300377E+02 0.  0.
          4    1    4    4  501    0  0.38818481445E+02  0.49130891121E+02 -0.16426211362E+03  0.17579181134E+03  0.00000000000E+00 0. -1.
         -3    1    4    4    0  501  0.27475349070E+02  0.35407748790E+02 -0.10171672464E+02  0.45957223606E+02  0.00000000000E+00 0.  1.
          5    1    3    3  502    0  0.18940029669E+02 -0.17179036866E+02 -0.22779280232E+03  0.22927166161E+03  0.47000000000E+01 0. -1.
         11    1    6    6    0    0 -0.87990466765E+01 -0.58375536299E+02 -0.76505205789E+01  0.59528622743E+02  0.00000000000E+00 0. -1.
        -12    1    6    6    0    0 -0.52316435981E+02  0.58720755954E+01  0.10272731153E+02  0.53637857441E+02  0.00000000000E+00 0.  1.
         -5    1    5    5    0  503 -0.24118377527E+02 -0.14856142341E+02 -0.12032122371E+03  0.12369999181E+03  0.47000000000E+01 0.  1.
<mgrwt>
<rscale>  2 0.20517554E+03</rscale>
<asrwt>0</asrwt>
<pdfrwt beam="1">  1       21 0.12920121E-01 0.20555454E+03</pdfrwt>
<pdfrwt beam="2">  1       21 0.92908672E-01 0.20555454E+03</pdfrwt>
<totfact> 0.49826377E+04</totfact>
</mgrwt>
</event>
<event>
12    1  0.2762290E-001  0.1834628E+03  0.7546771E-02  0.1164891E+00
         21   -1    0    0  504  503  0.00000000000E+00  0.00000000000E+00  0.68386855411E+03  0.68386855411E+03  0.00000000000E+00 0.  1.
         21   -1    0    0  502  504 -0.00000000000E+00 -0.00000000000E+00 -0.49489264301E+02  0.49489264301E+02  0.00000000000E+00 0.  1.
          6    2    1    2  502    0  0.45386157187E+02 -0.35611278307E+02  0.27439430571E+03  0.33007702134E+03  0.17415664960E+03 0.  0.
         24    2    3    3    0    0  0.46554064736E+02 -0.77274035173E+02  0.25849476922E+03  0.28522131291E+03  0.79956826922E+02 0.  0.
         -6    2    1    2    0  503 -0.45386157187E+02  0.35611278307E+02  0.35998498409E+03  0.40328079707E+03  0.17238951855E+03 0.  0.
        -24    2    5    5    0    0  0.41667837092E+02  0.27618725949E+02  0.18437828697E+03  0.20706132584E+03  0.79875135578E+02 0.  0.
          4    1    4    4  501    0 -0.70134182769E+01 -0.40910439840E+02  0.17338802725E+03  0.17828701612E+03  0.00000000000E+00 0. -1.
         -3    1    4    4    0  501  0.53567483013E+02 -0.36363595333E+02  0.85106741965E+02  0.10693429679E+03  0.00000000000E+00 0.  1.
          5    1    3    3  502    0 -0.11679075485E+01  0.41662756865E+02  0.15899536498E+02  0.44855708427E+02  0.47000000000E+01 0. -1.
         13    1    6    6    0    0  0.19042190152E+02 -0.21227794760E+02  0.11901563638E+03  0.12238441886E+03  0.00000000000E+00 0. -1.
        -14    1    6    6    0    0  0.22625646940E+02  0.48846520709E+02  0.65362650590E+02  0.84676906988E+02  0.00000000000E+00 0.  1.
         -5    1    5    5    0  503 -0.87053994280E+02  0.79925523585E+01  0.17560669712E+03  0.19621947122E+03  0.47000000000E+01 0.  1.
<mgrwt>
<rscale>  2 0.18304221E+03</rscale>
<asrwt>0</asrwt>
<pdfrwt beam="1">  1       21 0.10521054E+00 0.18346282E+03</pdfrwt>
<pdfrwt beam="2">  1       21 0.76137334E-02 0.18346282E+03</pdfrwt>
<totfact> 0.95460403E+04</totfact>
</mgrwt>
</event>
<event>
12    1  0.2762290E-001  0.1828136E+03  0.7546771E-02  0.1165339E+00
         21   -1    0    0  504  503  0.00000000000E+00  0.00000000000E+00  0.14261106422E+03  0.14261106422E+03  0.00000000000E+00 0. -1.
         21   -1    0    0  502  504 -0.00000000000E+00 -0.00000000000E+00 -0.40987146669E+03  0.40987146669E+03  0.00000000000E+00 0. -1.
          6    2    1    2  502    0  0.53773046350E+02 -0.47386505812E-01 -0.31524447758E+03  0.36441719255E+03  0.17472626253E+03 0.  0.
         24    2    3    3    0    0  0.64717925405E+02  0.52423162999E+02 -0.14584378549E+03  0.18667683859E+03  0.81493769166E+02 0.  0.
         -6    2    1    2    0  503 -0.53773046350E+02  0.47386505812E-01  0.47984075115E+02  0.18806533836E+03  0.17370825331E+03 0.  0.
        -24    2    5    5    0    0 -0.44047385978E+02 -0.14383536771E+02  0.97991840417E+02  0.13490796251E+03  0.80316245055E+02 0.  0.
          2    1    4    4  501    0  0.67504316080E+02  0.61712868207E+02 -0.15034869075E+03  0.17598306624E+03  0.00000000000E+00 0. -1.
         -1    1    4    4    0  501 -0.27863906746E+01 -0.92897052080E+01  0.45049052576E+01  0.10693772357E+02  0.00000000000E+00 0.  1.
          5    1    3    3  502    0 -0.10944879055E+02 -0.52470549505E+02 -0.16940069209E+03  0.17774035395E+03  0.47000000000E+01 0. -1.
         13    1    6    6    0    0 -0.10676383419E+02  0.20483847755E+02  0.80215156429E+02  0.83474813582E+02  0.00000000000E+00 0. -1.
        -14    1    6    6    0    0 -0.33371002558E+02 -0.34867384525E+02  0.17776683988E+02  0.51433148931E+02  0.00000000000E+00 0.  1.
         -5    1    5    5    0  503 -0.97256603727E+01  0.14430923276E+02 -0.50007765302E+02  0.53157375846E+02  0.47000000000E+01 0.  1.
<mgrwt>
<rscale>  2 0.18256992E+03</rscale>
<asrwt>0</asrwt>
<pdfrwt beam="1">  1       21 0.21940164E-01 0.18281359E+03</pdfrwt>
<pdfrwt beam="2">  1       21 0.63057149E-01 0.18281359E+03</pdfrwt>
<totfact> 0.45383567E+04</totfact>
</mgrwt>
</event>
<event>
12    1  0.2762290E-001  0.1854245E+03  0.7546771E-02  0.1162742E+00
         21   -1    0    0  504  503  0.00000000000E+00  0.00000000000E+00  0.72843170641E+03  0.72843170641E+03  0.00000000000E+00 0. -1.
         21   -1    0    0  502  504 -0.00000000000E+00 -0.00000000000E+00 -0.62184228105E+02  0.62184228105E+02  0.00000000000E+00 0. -1.
          6    2    1    2  502    0  0.51971674723E+02  0.43943495504E+02  0.52805340388E+03  0.55966297126E+03  0.17248234193E+03 0.  0.
         24    2    3    3    0    0  0.40658624905E+02  0.23638191570E+01  0.16657442288E+03  0.19559429877E+03  0.94081772591E+02 0.  0.
         -6    2    1    2    0  503 -0.51971674723E+02 -0.43943495504E+02  0.13819407443E+03  0.23095296326E+03  0.17207435387E+03 0.  0.
        -24    2    5    5    0    0  0.77595692637E+01 -0.11132259762E+02  0.55998027394E+01  0.81796235004E+02  0.80468180963E+02 0.  0.
          4    1    4    4  501    0 -0.18266122386E+02 -0.11499971225E+02  0.11209785945E+03  0.11415704385E+03  0.00000000000E+00 0. -1.
         -3    1    4    4    0  501  0.58924747291E+02  0.13863790382E+02  0.54476563421E+02  0.81437254922E+02  0.00000000000E+00 0.  1.
          5    1    3    3  502    0  0.11313049818E+02  0.41579676347E+02  0.36147898100E+03  0.36406867249E+03  0.47000000000E+01 0. -1.
         11    1    6    6    0    0 -0.10006875082E+02 -0.38756987012E+02  0.21355002208E+02  0.45368245618E+02  0.00000000000E+00 0. -1.
        -12    1    6    6    0    0  0.17766444346E+02  0.27624727250E+02 -0.15755199469E+02  0.36427989385E+02  0.00000000000E+00 0.  1.
         -5    1    5    5    0  503 -0.59731243987E+02 -0.32811235742E+02  0.13259427169E+03  0.14915672826E+03  0.47000000000E+01 0.  1.
<mgrwt>
<rscale>  2 0.18532956E+03</rscale>
<asrwt>0</asrwt>
<pdfrwt beam="1">  1       21 0.11206641E+00 0.18542450E+03</pdfrwt>
<pdfrwt beam="2">  1       21 0.95668048E-02 0.18542450E+03</pdfrwt>
<totfact> 0.54971520E+04</totfact>
</mgrwt>
</event>
<event>
12    1  0.2762290E-001  0.2336795E+03  0.7546771E-02  0.1124121E+00
         21   -1    0    0  504  503  0.00000000000E+00  0.00000000000E+00  0.14111215874E+03  0.14111215874E+03  0.00000000000E+00 0.  1.
         21   -1    0    0  502  504 -0.00000000000E+00 -0.00000000000E+00 -0.38772259336E+03  0.38772259336E+03  0.00000000000E+00 0.  1.
          6    2    1    2  502    0 -0.82308879620E+02 -0.13289754214E+03 -0.13783800581E+03  0.27107995036E+03  0.17334507569E+03 0.  0.
         24    2    3    3    0    0 -0.62376524527E+02 -0.16020940470E+03 -0.14209374230E+03  0.23667881798E+03  0.79172893804E+02 0.  0.
         -6    2    1    2    0  503  0.82308879620E+02  0.13289754214E+03 -0.10877242881E+03  0.25775480175E+03  0.17369394977E+03 0.  0.
        -24    2    5    5    0    0  0.96442573561E+02  0.12619525494E+03 -0.13181321200E+03  0.22951210981E+03  0.10037267220E+03 0.  0.
          4    1    4    4  501    0  0.15804925770E+02 -0.58482268239E+02 -0.38515036687E+02  0.71787042201E+02  0.00000000000E+00 0. -1.
         -3    1    4    4    0  501 -0.78181450297E+02 -0.10172713646E+03 -0.10357870561E+03  0.16489177578E+03  0.00000000000E+00 0.  1.
          5    1    3    3  502    0 -0.19932355094E+02  0.27311862555E+02  0.42557364909E+01  0.34401132378E+02  0.47000000000E+01 0. -1.
         11    1    6    6    0    0  0.35170054746E+02 -0.11114916778E+02 -0.33781581269E+02  0.50016690803E+02  0.00000000000E+00 0. -1.
        -12    1    6    6    0    0  0.61272518815E+02  0.13731017172E+03 -0.98031630729E+02  0.17949541900E+03  0.00000000000E+00 0.  1.
         -5    1    5    5    0  503 -0.14133693940E+02  0.67022871977E+01  0.23040783192E+02  0.28242691943E+02  0.47000000000E+01 0.  1.
<mgrwt>
<rscale>  2 0.23361465E+03</rscale>
<asrwt>0</asrwt>
<pdfrwt beam="1">  1       21 0.21709563E-01 0.23367947E+03</pdfrwt>
<pdfrwt beam="2">  1       21 0.59649628E-01 0.23367947E+03</pdfrwt>
<totfact> 0.50961220E+04</totfact>
</mgrwt>
</event>
<event>
12    1  0.2762290E-001  0.2086036E+03  0.7546771E-02  0.1142767E+00
         21   -1    0    0  504  503  0.00000000000E+00  0.00000000000E+00  0.26408294948E+03  0.26408294948E+03  0.00000000000E+00 0.  1.
         21   -1    0    0  502  504 -0.00000000000E+00 -0.00000000000E+00 -0.17224225271E+03  0.17224225271E+03  0.00000000000E+00 0.  1.
          6    2    1    2  502    0  0.94389557996E+02  0.68664823879E+02 -0.51962829251E+00  0.20860424288E+03  0.17289075579E+03 0.  0.
         24    2    3    3    0    0  0.12795022701E+03  0.31543350965E+02 -0.12861687568E+02  0.15684771012E+03  0.84080542225E+02 0.  0.
         -6    2    1    2    0  503 -0.94389557996E+02 -0.68664823879E+02  0.92360325064E+02  0.22772095931E+03  0.17234314308E+03 0.  0.
        -24    2    5    5    0    0 -0.35710679305E+02 -0.10691393456E+03  0.44113168685E+02  0.14253831219E+03  0.75268564293E+02 0.  0.
          2    1    4    4  501    0  0.55051391250E+02  0.43791002476E+02 -0.36486477287E+02  0.79243741717E+02  0.00000000000E+00 0. -1.
         -1    1    4    4    0  501  0.72898835761E+02 -0.12247651511E+02  0.23624789719E+02  0.77603968405E+02  0.00000000000E+00 0.  1.
          5    1    3    3  502    0 -0.33560669015E+02  0.37121472914E+02  0.12342059275E+02  0.51756532758E+02  0.47000000000E+01 0. -1.
         11    1    6    6    0    0 -0.84929122922E+01 -0.67523406079E+02  0.61374477556E+02  0.91642601573E+02  0.00000000000E+00 0. -1.
        -12    1    6    6    0    0 -0.27217767013E+02 -0.39390528482E+02 -0.17261308871E+02  0.50895710617E+02  0.00000000000E+00 0.  1.
         -5    1    5    5    0  503 -0.58678878691E+02  0.38249110683E+02  0.48247156378E+02  0.85182647124E+02  0.47000000000E+01 0.  1.
<mgrwt>
<rscale>  2 0.20849009E+03</rscale>
<asrwt>0</asrwt>
<pdfrwt beam="1">  1       21 0.40628146E-01 0.20860360E+03</pdfrwt>
<pdfrwt beam="2">  1       21 0.26498808E-01 0.20860360E+03</pdfrwt>
<totfact> 0.78538908E+04</totfact>
</mgrwt>
</event>
<event>
12    1  0.2762290E-001  0.1904737E+03  0.7546771E-02  0.1158371E+00
         21   -1    0    0  504  503  0.00000000000E+00  0.00000000000E+00  0.76182362013E+03  0.76182362013E+03  0.00000000000E+00 0.  1.
         21   -1    0    0  502  504 -0.00000000000E+00 -0.00000000000E+00 -0.53459122395E+02  0.53459122395E+02  0.00000000000E+00 0.  1.
          6    2    1    2  502    0 -0.77255323752E+02  0.15228782361E+02  0.49432139338E+03  0.52974888659E+03  0.17343569999E+03 0.  0.
         24    2    3    3    0    0 -0.91276909198E+02  0.34750018670E+02  0.48789489645E+03  0.50442945950E+03  0.82877087789E+02 0.  0.
         -6    2    1    2    0  503  0.77255323752E+02 -0.15228782361E+02  0.21404310435E+03  0.28553385593E+03  0.17179881112E+03 0.  0.
        -24    2    5    5    0    0  0.61195635157E+01 -0.63954627635E+02  0.11566101168E+03  0.15463072174E+03  0.80034661426E+02 0.  0.
          2    1    4    4  501    0 -0.39378380097E+02  0.58817429346E+02  0.27980885742E+03  0.28862283954E+03  0.00000000000E+00 0. -1.
         -1    1    4    4    0  501 -0.51898529101E+02 -0.24067410676E+02  0.20808603903E+03  0.21580661996E+03  0.00000000000E+00 0.  1.
          5    1    3    3  502    0  0.14021585446E+02 -0.19521236309E+02  0.64264969310E+01  0.25319427092E+02  0.47000000000E+01 0. -1.
         11    1    6    6    0    0 -0.46079202127E+01 -0.54074161838E+02  0.19959217998E+02  0.57824028659E+02  0.00000000000E+00 0. -1.
        -12    1    6    6    0    0  0.10727483728E+02 -0.98804657966E+01  0.95701793683E+02  0.96806693082E+02  0.00000000000E+00 0.  1.
         -5    1    5    5    0  503  0.71135760237E+02  0.48725845274E+02  0.98382092674E+02  0.13090313419E+03  0.47000000000E+01 0.  1.
<mgrwt>
<rscale>  2 0.19010032E+03</rscale>
<asrwt>0</asrwt>
<pdfrwt beam="1">  1       21 0.11720363E+00 0.19047373E+03</pdfrwt>
<pdfrwt beam="2">  1       21 0.82244809E-02 0.19047373E+03</pdfrwt>
<totfact> 0.64072951E+04</totfact>
</mgrwt>
</event>
<event>
12    1  0.2762290E-001  0.2039651E+03  0.7546771E-02  0.1146654E+00
         21   -1    0    0  504  503  0.00000000000E+00  0.00000000000E+00  0.19684274115E+03  0.19684274115E+03  0.00000000000E+00 0.  1.
         21   -1    0    0  502  504 -0.00000000000E+00 -0.00000000000E+00 -0.22201072159E+03  0.22201072159E+03  0.00000000000E+00 0.  1.
          6    2    1    2  502    0  0.78477672127E+02  0.75542896686E+02  0.35578610037E+02  0.20704495475E+03  0.17244216867E+03 0.  0.
         24    2    3    3    0    0 -0.65889851265E+01  0.85004620442E+02  0.33517516784E+02  0.12129999281E+03  0.79505119982E+02 0.  0.
         -6    2    1    2    0  503 -0.78477672127E+02 -0.75542896686E+02 -0.60746590485E+02  0.21180850799E+03  0.17119352073E+03 0.  0.
        -24    2    5    5    0    0 -0.63819508421E+02 -0.10887009439E+03 -0.80725803320E+02  0.17001349853E+03  0.80388477113E+02 0.  0.
          2    1    4    4  501    0 -0.78470872097E+01  0.61168678276E+02 -0.18234038975E+02  0.64309129656E+02  0.00000000000E+00 0. -1.
         -1    1    4    4    0  501  0.12581020832E+01  0.23835942165E+02  0.51751555759E+02  0.56990863156E+02  0.00000000000E+00 0.  1.
          5    1    3    3  502    0  0.85066657254E+02 -0.94617237562E+01  0.20610932527E+01  0.85744961941E+02  0.47000000000E+01 0. -1.
         13    1    6    6    0    0 -0.34579726729E+02 -0.36857793081E+02  0.89691996331E+01  0.51329338136E+02  0.00000000000E+00 0. -1.
        -14    1    6    6    0    0 -0.29239781693E+02 -0.72012301311E+02 -0.89695002953E+02  0.11868416039E+03  0.00000000000E+00 0.  1.
         -5    1    5    5    0  503 -0.14658163706E+02  0.33327197707E+02  0.19979212836E+02  0.41795009460E+02  0.47000000000E+01 0.  1.
<mgrwt>
<rscale>  2 0.20370098E+03</rscale>
<asrwt>0</asrwt>
<pdfrwt beam="1">  1       21 0.30283499E-01 0.20396513E+03</pdfrwt>
<pdfrwt beam="2">  1       21 0.34155496E-01 0.20396513E+03</pdfrwt>
<totfact> 0.86007076E+04</totfact>
</mgrwt>
</event>
<event>
12    1  0.2762290E-001  0.1728028E+03  0.7546771E-02  0.1175100E+00
         21   -1    0    0  504  503  0.00000000000E+00  0.00000000000E+00  0.86238791267E+03  0.86238791267E+03  0.00000000000E+00 0. -1.
         21   -1    0    0  502  504 -0.00000000000E+00 -0.00000000000E+00 -0.72861639234E+02  0.72861639234E+02  0.00000000000E+00 0. -1.
          6    2    1    2  502    0 -0.39193502778E+01  0.66363622621E+01  0.55816324270E+02  0.18159368745E+03  0.17263082765E+03 0.  0.
         24    2    3    3    0    0 -0.60413604121E+02  0.36512992410E+02  0.49203921804E+02  0.11717297950E+03  0.79532880160E+02 0.  0.
         -6    2    1    2    0  503  0.39193502778E+01 -0.66363622621E+01  0.73370994917E+03  0.75365586445E+03  0.17206821296E+03 0.  0.
        -24    2    5    5    0    0 -0.58112404156E+00  0.18588752814E+01  0.14987389459E+03  0.16972174835E+03  0.79620942350E+02 0.  0.
          2    1    4    4  501    0 -0.86755019116E+01  0.19193731653E+02 -0.20001590894E+02  0.29046984464E+02  0.00000000000E+00 0. -1.
         -1    1    4    4    0  501 -0.51738102209E+02  0.17319260757E+02  0.69205512698E+02  0.88125995036E+02  0.00000000000E+00 0.  1.
          5    1    3    3  502    0  0.56494253843E+02 -0.29876630148E+02  0.66124024666E+01  0.64420707949E+02  0.47000000000E+01 0. -1.
         11    1    6    6    0    0 -0.79755939691E+00 -0.38608461020E+02  0.83251529933E+02  0.91771818112E+02  0.00000000000E+00 0. -1.
        -12    1    6    6    0    0  0.21643535535E+00  0.40467336301E+02  0.66622364660E+02  0.77949930240E+02  0.00000000000E+00 0.  1.
         -5    1    5    5    0  503  0.45004743193E+01 -0.84952375434E+01  0.58383605457E+03  0.58393411610E+03  0.47000000000E+01 0.  1.
<mgrwt>
<rscale>  2 0.17266211E+03</rscale>
<asrwt>0</asrwt>
<pdfrwt beam="1">  1       21 0.13267506E+00 0.17280279E+03</pdfrwt>
<pdfrwt beam="2">  1       21 0.11209484E-01 0.17280279E+03</pdfrwt>
<totfact> 0.27545618E+04</totfact>
</mgrwt>
</event>
<event>
12    1  0.2762290E-001  0.1996650E+03  0.7546771E-02  0.1150360E+00
         21   -1    0    0  504  503  0.00000000000E+00  0.00000000000E+00  0.26821361340E+02  0.26821361340E+02  0.00000000000E+00 0. -1.
         21   -1    0    0  502  504 -0.00000000000E+00 -0.00000000000E+00 -0.14930991451E+04  0.14930991451E+04  0.00000000000E+00 0.  1.
          6    2    1    2  502    0  0.84902089252E+02  0.46227675944E+02 -0.82075403391E+03  0.84469123426E+03  0.17470184393E+03 0.  0.
         24    2    3    3    0    0  0.10880249272E+03 -0.55010993040E+01 -0.45126249525E+03  0.47080196908E+03  0.78411797291E+02 0.  0.
         -6    2    1    2    0  503 -0.84902089252E+02 -0.46227675944E+02 -0.64552374986E+03  0.67522927219E+03  0.17288231722E+03 0.  0.
        -24    2    5    5    0    0 -0.26854062331E+02 -0.92524652197E+02 -0.38422208357E+03  0.40354262503E+03  0.77058995490E+02 0.  0.
          4    1    4    4  501    0  0.36487089655E+02 -0.39265482513E+02 -0.20725381732E+03  0.21407295630E+03  0.00000000000E+00 0. -1.
         -3    1    4    4    0  501  0.72315403065E+02  0.33764383209E+02 -0.24400867793E+03  0.25672901277E+03  0.00000000000E+00 0.  1.
          5    1    3    3  502    0 -0.23900403469E+02  0.51728775248E+02 -0.36949153866E+03  0.37388926518E+03  0.47000000000E+01 0. -1.
         11    1    6    6    0    0 -0.35799730250E+02 -0.14936533636E+02 -0.19526249591E+03  0.19907828367E+03  0.00000000000E+00 0. -1.
        -12    1    6    6    0    0  0.89456679193E+01 -0.77588118561E+02 -0.18895958766E+03  0.20446434135E+03  0.00000000000E+00 0.  1.
         -5    1    5    5    0  503 -0.58048026921E+02  0.46296976252E+02 -0.26130166629E+03  0.27168664716E+03  0.47000000000E+01 0.  1.
<mgrwt>
<rscale>  2 0.19926625E+03</rscale>
<asrwt>0</asrwt>
<pdfrwt beam="1">  1       21 0.41263600E-02 0.19966496E+03</pdfrwt>
<pdfrwt beam="2">  1       21 0.22970774E+00 0.19966496E+03</pdfrwt>
<totfact> 0.32484060E+04</totfact>
</mgrwt>
</event>
<event>
12    1  0.2762290E-001  0.1896611E+03  0.7546771E-02  0.1159913E+00
         21   -1    0    0  504  503  0.00000000000E+00  0.00000000000E+00  0.14263729047E+03  0.14263729047E+03  0.00000000000E+00 0.  1.
         21   -1    0    0  502  504 -0.00000000000E+00 -0.00000000000E+00 -0.24575800088E+03  0.24575800088E+03  0.00000000000E+00 0. -1.
          6    2    1    2  502    0 -0.70576835941E+02  0.19182469903E+02 -0.56008259580E+02  0.19297031964E+03  0.16956285618E+03 0.  0.
         24    2    3    3    0    0 -0.32562857963E+01 -0.36053184251E+02  0.11545641351E+01  0.88698020454E+02  0.80966476533E+02 0.  0.
         -6    2    1    2    0  503  0.70576835941E+02 -0.19182469903E+02 -0.47112450830E+02  0.19542497172E+03  0.17499222732E+03 0.  0.
        -24    2    5    5    0    0  0.91288170414E+02  0.37064959579E+02 -0.45449731233E+02  0.13527858915E+03  0.80791567182E+02 0.  0.
          2    1    4    4  501    0  0.26854420603E+02 -0.46412427782E+02 -0.10775736139E+02  0.54693599697E+02  0.00000000000E+00 0. -1.
         -1    1    4    4    0  501 -0.30110706399E+02  0.10359243530E+02  0.11930300274E+02  0.34004420757E+02  0.00000000000E+00 0.  1.
          5    1    3    3  502    0 -0.67320550145E+02  0.55235654155E+02 -0.57162823715E+02  0.10427229918E+03  0.47000000000E+01 0. -1.
         11    1    6    6    0    0 -0.10216435627E+02 -0.22397855261E+01 -0.21378756065E+02  0.23800071576E+02  0.00000000000E+00 0. -1.
        -12    1    6    6    0    0  0.10150460604E+03  0.39304745105E+02 -0.24070975168E+02  0.11147851758E+03  0.00000000000E+00 0.  1.
         -5    1    5    5    0  503 -0.20711334473E+02 -0.56247429482E+02 -0.16627195967E+01  0.60146382564E+02  0.47000000000E+01 0.  1.
<mgrwt>
<rscale>  2 0.18839918E+03</rscale>
<asrwt>0</asrwt>
<pdfrwt beam="1">  1       21 0.21944199E-01 0.18966111E+03</pdfrwt>
<pdfrwt beam="2">  1       21 0.37808923E-01 0.18966111E+03</pdfrwt>
<totfact> 0.13098823E+05</totfact>
</mgrwt>
</event>
<event>
12    1  0.2762290E-001  0.2216381E+03  0.7546771E-02  0.1132794E+00
         21   -1    0    0  504  503  0.00000000000E+00  0.00000000000E+00  0.14302962964E+03  0.14302962964E+03  0.00000000000E+00 0.  1.
         21   -1    0    0  502  504 -0.00000000000E+00 -0.00000000000E+00 -0.43138339189E+03  0.43138339189E+03  0.00000000000E+00 0.  1.
          6    2    1    2  502    0 -0.48995401684E+02  0.12987578722E+03 -0.27444699204E+03  0.35233908406E+03  0.17191105033E+03 0.  0.
         24    2    3    3    0    0  0.17069377602E+02  0.11652985787E+03 -0.16136541231E+03  0.22061132477E+03  0.93594812379E+02 0.  0.
         -6    2    1    2    0  503  0.48995401684E+02 -0.12987578722E+03 -0.13906770208E+02  0.22207393747E+03  0.17278647503E+03 0.  0.
        -24    2    5    5    0    0 -0.18023568982E+02 -0.12466864305E+03 -0.31114836447E+02  0.15252636869E+03  0.80181297701E+02 0.  0.
          2    1    4    4  501    0 -0.21282597080E+02  0.41220319485E+02 -0.10311295320E+02  0.47522484027E+02  0.00000000000E+00 0. -1.
         -1    1    4    4    0  501  0.38351974681E+02  0.75309538380E+02 -0.15105411698E+03  0.17308884075E+03  0.00000000000E+00 0.  1.
          5    1    3    3  502    0 -0.66064779285E+02  0.13345929357E+02 -0.11308157973E+03  0.13172775929E+03  0.47000000000E+01 0. -1.
         13    1    6    6    0    0 -0.46037206728E+02 -0.79144080509E+02 -0.18329716204E+01  0.91578216121E+02  0.00000000000E+00 0. -1.
        -14    1    6    6    0    0  0.28013637746E+02 -0.45524562538E+02 -0.29281864826E+02  0.60948152570E+02  0.00000000000E+00 0.  1.
         -5    1    5    5    0  503  0.67018970665E+02 -0.52071441760E+01  0.17208066239E+02  0.69547568780E+02  0.47000000000E+01 0.  1.
<mgrwt>
<rscale>  2 0.22146743E+03</rscale>
<asrwt>0</asrwt>
<pdfrwt beam="1">  1       21 0.22004559E-01 0.22163807E+03</pdfrwt>
<pdfrwt beam="2">  1       21 0.66366674E-01 0.22163807E+03</pdfrwt>
<totfact> 0.39606124E+04</totfact>
</mgrwt>
</event>
<event>
12    1  0.2762290E-001  0.3621163E+03  0.7546771E-02  0.1058005E+00
         21   -1    0    0  504  503  0.00000000000E+00  0.00000000000E+00  0.14779495650E+03  0.14779495650E+03  0.00000000000E+00 0. -1.
         21   -1    0    0  502  504 -0.00000000000E+00 -0.00000000000E+00 -0.11304350677E+04  0.11304350677E+04  0.00000000000E+00 0.  1.
          6    2    1    2  502    0  0.18550027071E+03 -0.25624602823E+03 -0.79297255219E+03  0.87174176537E+03  0.17622672763E+03 0.  0.
         24    2    3    3    0    0  0.63583938016E+02 -0.57688527854E+02 -0.17255743003E+03  0.20900072473E+03  0.80835344121E+02 0.  0.
         -6    2    1    2    0  503 -0.18550027071E+03  0.25624602823E+03 -0.18966755899E+03  0.40648825882E+03  0.17084069834E+03 0.  0.
        -24    2    5    5    0    0 -0.22384855611E+02  0.12017132381E+03 -0.65573078094E+02  0.16043035097E+03  0.80596774849E+02 0.  0.
          2    1    4    4  501    0  0.81757098720E+02 -0.41733153878E+02 -0.15041477573E+03  0.17621147545E+03  0.00000000000E+00 0. -1.
         -1    1    4    4    0  501 -0.18173160703E+02 -0.15955373976E+02 -0.22142654305E+02  0.32789249279E+02  0.00000000000E+00 0.  1.
          5    1    3    3  502    0  0.12191633270E+03 -0.19855750037E+03 -0.62041512216E+03  0.66274104063E+03  0.47000000000E+01 0. -1.
         11    1    6    6    0    0 -0.49892718916E+02  0.63215350865E+02 -0.51628343399E+02  0.95660597050E+02  0.00000000000E+00 0. -1.
        -12    1    6    6    0    0  0.27507863305E+02  0.56955972941E+02 -0.13944734695E+02  0.64769753921E+02  0.00000000000E+00 0.  1.
         -5    1    5    5    0  503 -0.16311541510E+03  0.13607470442E+03 -0.12409448089E+03  0.24605790785E+03  0.47000000000E+01 0.  1.
<mgrwt>
<rscale>  2 0.36146700E+03</rscale>
<asrwt>0</asrwt>
<pdfrwt beam="1">  1       21 0.22737686E-01 0.36211633E+03</pdfrwt>
<pdfrwt beam="2">  1       21 0.17391308E+00 0.36211633E+03</pdfrwt>
<totfact> 0.32428130E+03</totfact>
</mgrwt>
</event>
<event>
12    1  0.2762290E-001  0.2407428E+03  0.7546771E-02  0.1119745E+00
         21   -1    0    0  504  503  0.00000000000E+00  0.00000000000E+00  0.34999619983E+03  0.34999619983E+03  0.00000000000E+00 0. -1.
         21   -1    0    0  502  504 -0.00000000000E+00 -0.00000000000E+00 -0.18505784727E+03  0.18505784727E+03  0.00000000000E+00 0. -1.
          6    2    1    2  502    0  0.11840571314E+03 -0.11431011478E+03 -0.86976470775E+01  0.23822659260E+03  0.17201611876E+03 0.  0.
         24    2    3    3    0    0  0.43126628968E+02 -0.20111887572E+01 -0.36004116454E+02  0.10022035155E+03  0.82969099404E+02 0.  0.
         -6    2    1    2    0  503 -0.11840571314E+03  0.11431011478E+03  0.17363599964E+03  0.29682745450E+03  0.17569963610E+03 0.  0.
        -24    2    5    5    0    0 -0.10837906146E+03  0.33647580054E+02  0.16372501505E+03  0.21480736020E+03  0.80362558670E+02 0.  0.
          2    1    4    4  501    0  0.41840864115E+02 -0.67580812282E+01 -0.61258726936E+02  0.74491349817E+02  0.00000000000E+00 0. -1.
         -1    1    4    4    0  501  0.12857648539E+01  0.47468924711E+01  0.25254610482E+02  0.25729001729E+02  0.00000000000E+00 0.  1.
          5    1    3    3  502    0  0.75279084173E+02 -0.11229892603E+03  0.27306469377E+02  0.13800624106E+03  0.47000000000E+01 0. -1.
         13    1    6    6    0    0 -0.76982901630E+02  0.69587248476E+01  0.15423726057E+03  0.17252224072E+03  0.00000000000E+00 0. -1.
        -14    1    6    6    0    0 -0.31396159832E+02  0.26688855206E+02  0.94877544819E+01  0.42285119482E+02  0.00000000000E+00 0.  1.
         -5    1    5    5    0  503 -0.10026651679E+02  0.80662534728E+02  0.99109845886E+01  0.82020094295E+02  0.47000000000E+01 0.  1.
<mgrwt>
<rscale>  2 0.24007121E+03</rscale>
<asrwt>0</asrwt>
<pdfrwt beam="1">  1       21 0.53845569E-01 0.24074276E+03</pdfrwt>
<pdfrwt beam="2">  1       21 0.28470438E-01 0.24074276E+03</pdfrwt>
<totfact> 0.37593398E+04</totfact>
</mgrwt>
</event>
<event>
12    1  0.2762290E-001  0.2032805E+03  0.7546771E-02  0.1147310E+00
         21   -1    0    0  504  503  0.00000000000E+00  0.00000000000E+00  0.42989583233E+02  0.42989583233E+02  0.00000000000E+00 0.  1.
         21   -1    0    0  502  504 -0.00000000000E+00 -0.00000000000E+00 -0.11946387565E+04  0.11946387565E+04  0.00000000000E+00 0.  1.
          6    2    1    2  502    0 -0.61577764461E+02  0.83176823770E+02 -0.85175098250E+03  0.87532751011E+03  0.17322906418E+03 0.  0.
         24    2    3    3    0    0 -0.10185603526E+03  0.29956973115E+02 -0.61954975843E+03  0.63367861178E+03  0.80216006530E+02 0.  0.
         -6    2    1    2    0  503  0.61577764461E+02 -0.83176823770E+02 -0.29989819074E+03  0.36230082959E+03  0.17496502858E+03 0.  0.
        -24    2    5    5    0    0  0.10790820380E+03 -0.51425056015E+02 -0.24232653961E+03  0.28173241532E+03  0.79763934245E+02 0.  0.
          4    1    4    4  501    0 -0.11067052999E+03  0.27286954155E+02 -0.46176684583E+03  0.47562712705E+03  0.00000000000E+00 0. -1.
         -3    1    4    4    0  501  0.88144947307E+01  0.26700189600E+01 -0.15778291260E+03  0.15805148473E+03  0.00000000000E+00 0.  1.
          5    1    3    3  502    0  0.40278270802E+02  0.53219850655E+02 -0.23220122407E+03  0.24164889833E+03  0.47000000000E+01 0. -1.
         11    1    6    6    0    0  0.71591546110E+02 -0.69999700981E+02 -0.19536593703E+03  0.21952939886E+03  0.00000000000E+00 0. -1.
        -12    1    6    6    0    0  0.36316657695E+02  0.18574644966E+02 -0.46960602581E+02  0.62203016458E+02  0.00000000000E+00 0.  1.
         -5    1    5    5    0  503 -0.46330439344E+02 -0.31751767755E+02 -0.57571651122E+02  0.80568414272E+02  0.47000000000E+01 0.  1.
<mgrwt>
<rscale>  2 0.20290642E+03</rscale>
<asrwt>0</asrwt>
<pdfrwt beam="1">  1       21 0.66137820E-02 0.20328051E+03</pdfrwt>
<pdfrwt beam="2">  1       21 0.18379058E+00 0.20328051E+03</pdfrwt>
<totfact> 0.28406676E+04</totfact>
</mgrwt>
</event>
<event>
12    1  0.2762290E-001  0.2203824E+03  0.7546771E-02  0.1134330E+00
         21   -1    0    0  504  503  0.00000000000E+00  0.00000000000E+00  0.68974851641E+02  0.68974851641E+02  0.00000000000E+00 0. -1.
         21   -1    0    0  502  504 -0.00000000000E+00 -0.00000000000E+00 -0.78378905725E+03  0.78378905725E+03  0.00000000000E+00 0.  1.
          6    2    1    2  502    0  0.83895282038E+02 -0.10085848381E+03 -0.20848029878E+03  0.30054799860E+03  0.17220398479E+03 0.  0.
         24    2    3    3    0    0 -0.14511809729E+02 -0.56793085893E+02 -0.14378515568E+03  0.17471769007E+03  0.80100268431E+02 0.  0.
         -6    2    1    2    0  503 -0.83895282038E+02  0.10085848381E+03 -0.50633390683E+03  0.55221591030E+03  0.17708058695E+03 0.  0.
        -24    2    5    5    0    0 -0.48402050582E+01 -0.46851927359E+01 -0.27374153430E+03  0.28480148545E+03  0.78307597969E+02 0.  0.
          4    1    4    4  501    0 -0.18115579932E+02 -0.76422750589E+02 -0.10529221702E+03  0.13135852469E+03  0.00000000000E+00 0. -1.
         -3    1    4    4    0  501  0.36037702028E+01  0.19629664696E+02 -0.38492938656E+02  0.43359165377E+02  0.00000000000E+00 0.  1.
          5    1    3    3  502    0  0.98407091767E+02 -0.44065397914E+02 -0.64695143103E+02  0.12583030853E+03  0.47000000000E+01 0. -1.
         13    1    6    6    0    0 -0.32028214959E+02  0.15715300342E+02 -0.73561912345E+02  0.81756542039E+02  0.00000000000E+00 0. -1.
        -14    1    6    6    0    0  0.27188009901E+02 -0.20400493078E+02 -0.20017962196E+03  0.20304494342E+03  0.00000000000E+00 0.  1.
         -5    1    5    5    0  503 -0.79055076980E+02  0.10554367654E+03 -0.23259237253E+03  0.26741442484E+03  0.47000000000E+01 0.  1.
<mgrwt>
<rscale>  2 0.21940109E+03</rscale>
<asrwt>0</asrwt>
<pdfrwt beam="1">  1       21 0.10611515E-01 0.22038236E+03</pdfrwt>
<pdfrwt beam="2">  1       21 0.12058293E+00 0.22038236E+03</pdfrwt>
<totfact> 0.37542616E+04</totfact>
</mgrwt>
</event>
<event>
12    1  0.2762290E-001  0.2092577E+03  0.7546771E-02  0.1142746E+00
         21   -1    0    0  504  503  0.00000000000E+00  0.00000000000E+00  0.64733783680E+03  0.64733783680E+03  0.00000000000E+00 0. -1.
         21   -1    0    0  502  504 -0.00000000000E+00 -0.00000000000E+00 -0.90309200885E+02  0.90309200885E+02  0.00000000000E+00 0.  1.
          6    2    1    2  502    0  0.11238976283E+03 -0.38074402933E+02  0.91377147865E+02  0.22833871274E+03  0.17235911823E+03 0.  0.
         24    2    3    3    0    0 -0.84215315648E+01 -0.31835617696E+02  0.25472884414E+02  0.90499120332E+02  0.80354179683E+02 0.  0.
         -6    2    1    2    0  503 -0.11238976283E+03  0.38074402933E+02  0.46565148805E+03  0.50930832494E+03  0.16876771784E+03 0.  0.
        -24    2    5    5    0    0 -0.77006516319E+02  0.66029364500E+02  0.44269066483E+03  0.45848762628E+03  0.62817180680E+02 0.  0.
          4    1    4    4  501    0 -0.17059686103E+02 -0.57309437855E+02  0.15117754023E+02  0.61676178901E+02  0.00000000000E+00 0. -1.
         -3    1    4    4    0  501  0.86381545382E+01  0.25473820159E+02  0.10355130391E+02  0.28822941431E+02  0.00000000000E+00 0.  1.
          5    1    3    3  502    0  0.12081129440E+03 -0.62387852367E+01  0.65904263451E+02  0.13783959241E+03  0.47000000000E+01 0. -1.
         13    1    6    6    0    0 -0.90974190185E+01  0.20629604874E+02  0.22238721312E+03  0.22352721577E+03  0.00000000000E+00 0. -1.
        -14    1    6    6    0    0 -0.67909097300E+02  0.45399759626E+02  0.22030345171E+03  0.23496041051E+03  0.00000000000E+00 0.  1.
         -5    1    5    5    0  503 -0.35383246512E+02 -0.27954961568E+02  0.22960823219E+02  0.50820698666E+02  0.47000000000E+01 0.  1.
<mgrwt>
<rscale>  2 0.20851675E+03</rscale>
<asrwt>0</asrwt>
<pdfrwt beam="1">  1       21 0.99590433E-01 0.20925770E+03</pdfrwt>
<pdfrwt beam="2">  1       21 0.13893724E-01 0.20925770E+03</pdfrwt>
<totfact> 0.37036610E+04</totfact>
</mgrwt>
</event>
<event>
12    1  0.2762290E-001  0.1748290E+03  0.7546771E-02  0.1173327E+00
         21   -1    0    0  504  503  0.00000000000E+00  0.00000000000E+00  0.50648931627E+03  0.50648931627E+03  0.00000000000E+00 0.  1.
         21   -1    0    0  502  504 -0.00000000000E+00 -0.00000000000E+00 -0.16952378332E+03  0.16952378332E+03  0.00000000000E+00 0.  1.
          6    2    1    2  502    0 -0.13055204101E+02  0.47879297891E+01 -0.10319879445E+03  0.20301523724E+03  0.17427516389E+03 0.  0.
         24    2    3    3    0    0 -0.13207837354E+02  0.19257650706E+02 -0.14018895707E+03  0.16301825922E+03  0.79854274000E+02 0.  0.
         -6    2    1    2    0  503  0.13055204101E+02 -0.47879297891E+01  0.44016432740E+03  0.47299786236E+03  0.17259484364E+03 0.  0.
        -24    2    5    5    0    0  0.52338293890E+02  0.41879880847E+02  0.33202140872E+03  0.34874800701E+03  0.83028519909E+02 0.  0.
          2    1    4    4  501    0  0.21048344742E+02  0.38056541488E+02 -0.63757484408E+02  0.77177392962E+02  0.00000000000E+00 0. -1.
         -1    1    4    4    0  501 -0.34256182096E+02 -0.18798890782E+02 -0.76431472661E+02  0.85840866255E+02  0.00000000000E+00 0.  1.
          5    1    3    3  502    0  0.15263325275E+00 -0.14469720917E+02  0.36990162619E+02  0.39996978022E+02  0.47000000000E+01 0. -1.
         13    1    6    6    0    0  0.45520876499E+02  0.92116931170E+01  0.66354993297E+02  0.80993769036E+02  0.00000000000E+00 0. -1.
        -14    1    6    6    0    0  0.68174173910E+01  0.32668187730E+02  0.26566641542E+03  0.26775423797E+03  0.00000000000E+00 0.  1.
         -5    1    5    5    0  503 -0.39283089788E+02 -0.46667810636E+02  0.10814291869E+03  0.12424985535E+03  0.47000000000E+01 0.  1.
<mgrwt>
<rscale>  2 0.17440880E+03</rscale>
<asrwt>0</asrwt>
<pdfrwt beam="1">  1       21 0.77921432E-01 0.17482905E+03</pdfrwt>
<pdfrwt beam="2">  1       21 0.26080582E-01 0.17482905E+03</pdfrwt>
<totfact> 0.20608656E+04</totfact>
</mgrwt>
</event>
<event>
12    1  0.2762290E-001  0.2047099E+03  0.7546771E-02  0.1146456E+00
         21   -1    0    0  504  503  0.00000000000E+00  0.00000000000E+00  0.39271219115E+02  0.39271219115E+02  0.00000000000E+00 0. -1.
         21   -1    0    0  502  504 -0.00000000000E+00 -0.00000000000E+00 -0.11526088304E+04  0.11526088304E+04  0.00000000000E+00 0. -1.
          6    2    1    2  502    0 -0.88260800925E+02  0.58802242251E+02 -0.72960418758E+03  0.75695766366E+03  0.17150790467E+03 0.  0.
         24    2    3    3    0    0 -0.58624451357E+02 -0.34357031868E+02 -0.36366372987E+03  0.37815498130E+03  0.78311234996E+02 0.  0.
         -6    2    1    2    0  503  0.88260800925E+02 -0.58802242251E+02 -0.38373342368E+03  0.43492238583E+03  0.17509559839E+03 0.  0.
        -24    2    5    5    0    0  0.99645165204E+02 -0.14408092773E+02 -0.36153345802E+03  0.38378167081E+03  0.80281862784E+02 0.  0.
          2    1    4    4  501    0 -0.15710640631E+01  0.66436141050E+01  0.89741310301E+00  0.68855792017E+01  0.00000000000E+00 0. -1.
         -1    1    4    4    0  501 -0.57053387294E+02 -0.41000645972E+02 -0.36456114297E+03  0.37126940210E+03  0.00000000000E+00 0.  1.
          5    1    3    3  502    0 -0.29636349568E+02  0.93159274118E+02 -0.36594045772E+03  0.37880268236E+03  0.47000000000E+01 0. -1.
         11    1    6    6    0    0  0.15512174764E+02 -0.37322072078E+02 -0.91785958634E+02  0.10029071160E+03  0.00000000000E+00 0. -1.
        -12    1    6    6    0    0  0.84132990440E+02  0.22913979306E+02 -0.26974749939E+03  0.28349095921E+03  0.00000000000E+00 0.  1.
         -5    1    5    5    0  503 -0.11384364279E+02 -0.44394149478E+02 -0.22199965656E+02  0.51140715023E+02  0.47000000000E+01 0.  1.
<mgrwt>
<rscale>  2 0.20394054E+03</rscale>
<asrwt>0</asrwt>
<pdfrwt beam="1">  1       21 0.60417271E-02 0.20470990E+03</pdfrwt>
<pdfrwt beam="2">  1       21 0.17732441E+00 0.20470990E+03</pdfrwt>
<totfact> 0.36694313E+04</totfact>
</mgrwt>
</event>
<event>
12    1  0.2762290E-001  0.1860174E+03  0.7546771E-02  0.1162421E+00
         21   -1    0    0  504  503  0.00000000000E+00  0.00000000000E+00  0.57027436311E+03  0.57027436311E+03  0.00000000000E+00 0.  1.
         21   -1    0    0  502  504 -0.00000000000E+00 -0.00000000000E+00 -0.60774853534E+02  0.60774853534E+02  0.00000000000E+00 0. -1.
          6    2    1    2  502    0  0.56979548725E+02  0.40442143917E+02  0.22587121641E+03  0.29260946256E+03  0.17239563566E+03 0.  0.
         24    2    3    3    0    0  0.51988212470E+02  0.40214865964E+02  0.24818081183E+03  0.26926908680E+03  0.81191847284E+02 0.  0.
         -6    2    1    2    0  503 -0.56979548725E+02 -0.40442143917E+02  0.28362829316E+03  0.33843975409E+03  0.17092168525E+03 0.  0.
        -24    2    5    5    0    0 -0.40951622232E+02  0.38453059686E+02  0.19447071492E+03  0.21822115595E+03  0.81522639689E+02 0.  0.
          4    1    4    4  501    0  0.14775236727E+02 -0.12346791688E+02  0.15385294918E+03  0.15505315494E+03  0.00000000000E+00 0. -1.
         -3    1    4    4    0  501  0.37212975743E+02  0.52561657652E+02  0.94327862650E+02  0.11421593186E+03  0.00000000000E+00 0.  1.
          5    1    3    3  502    0  0.49913362551E+01  0.22727795223E+00 -0.22309595415E+02  0.23340375757E+02  0.47000000000E+01 0. -1.
         11    1    6    6    0    0 -0.44875554625E+02 -0.18502671611E+01  0.45851661212E+02  0.64184217120E+02  0.00000000000E+00 0. -1.
        -12    1    6    6    0    0  0.39239323927E+01  0.40303326847E+02  0.14861905371E+03  0.15403693883E+03  0.00000000000E+00 0.  1.
         -5    1    5    5    0  503 -0.16027926493E+02 -0.78895203603E+02  0.89157578238E+02  0.12021859813E+03  0.47000000000E+01 0.  1.
<mgrwt>
<rscale>  2 0.18567521E+03</rscale>
<asrwt>0</asrwt>
<pdfrwt beam="1">  1       21 0.87734514E-01 0.18601745E+03</pdfrwt>
<pdfrwt beam="2">  1       21 0.93499778E-02 0.18601745E+03</pdfrwt>
<totfact> 0.10205712E+05</totfact>
</mgrwt>
</event>
<event>
12    1  0.2762290E-001  0.2237514E+03  0.7546771E-02  0.1131215E+00
         21   -1    0    0  504  503  0.00000000000E+00  0.00000000000E+00  0.32566731329E+03  0.32566731329E+03  0.00000000000E+00 0. -1.
         21   -1    0    0  502  504 -0.00000000000E+00 -0.00000000000E+00 -0.20562053369E+03  0.20562053369E+03  0.00000000000E+00 0.  1.
          6    2    1    2  502    0  0.11272527483E+03 -0.86436753211E+02 -0.73952346245E+02  0.23514543124E+03  0.17218049956E+03 0.  0.
         24    2    3    3    0    0  0.77632433204E+02 -0.12612122975E+03 -0.45228480142E+02  0.17470111228E+03  0.80879564396E+02 0.  0.
         -6    2    1    2    0  503 -0.11272527483E+03  0.86436753211E+02  0.19399912585E+03  0.29614241574E+03  0.17287674708E+03 0.  0.
        -24    2    5    5    0    0 -0.13558211696E+03  0.10787894174E+03  0.17567638674E+03  0.25953619428E+03  0.80476498266E+02 0.  0.
          4    1    4    4  501    0  0.15082851866E+02 -0.32137801583E+02 -0.50445583150E+02  0.61685391871E+02  0.00000000000E+00 0. -1.
         -3    1    4    4    0  501  0.62549581338E+02 -0.93983428163E+02  0.52171030080E+01  0.11301572041E+03  0.00000000000E+00 0.  1.
          5    1    3    3  502    0  0.35092841629E+02  0.39684476535E+02 -0.28723866103E+02  0.60444318967E+02  0.47000000000E+01 0. -1.
         13    1    6    6    0    0 -0.43091055516E+02  0.65599215855E+02  0.34965666608E+02  0.85922604870E+02  0.00000000000E+00 0. -1.
        -14    1    6    6    0    0 -0.92491061444E+02  0.42279725889E+02  0.14071072014E+03  0.17361358941E+03  0.00000000000E+00 0.  1.
         -5    1    5    5    0  503  0.22856842126E+02 -0.21442188533E+02  0.18322739104E+02  0.36606221457E+02  0.47000000000E+01 0.  1.
<mgrwt>
<rscale>  2 0.22361686E+03</rscale>
<asrwt>0</asrwt>
<pdfrwt beam="1">  1       21 0.50102663E-01 0.22375136E+03</pdfrwt>
<pdfrwt beam="2">  1       21 0.31633928E-01 0.22375136E+03</pdfrwt>
<totfact> 0.35876804E+04</totfact>
</mgrwt>
</event>
<event>
12    1  0.2762290E-001  0.2029631E+03  0.7546771E-02  0.1147289E+00
         21   -1    0    0  504  503  0.00000000000E+00  0.00000000000E+00  0.77113811451E+02  0.77113811451E+02  0.00000000000E+00 0. -1.
         21   -1    0    0  502  504 -0.00000000000E+00 -0.00000000000E+00 -0.63151366014E+03  0.63151366014E+03  0.00000000000E+00 0.  1.
          6    2    1    2  502    0  0.43320067215E+02 -0.96504408298E+02 -0.13780681684E+03  0.24522294245E+03  0.17307178769E+03 0.  0.
         24    2    3    3    0    0 -0.38920223405E+02 -0.56093587668E+02 -0.52032966371E+02  0.11962141679E+03  0.83310139825E+02 0.  0.
         -6    2    1    2    0  503 -0.43320067215E+02  0.96504408298E+02 -0.41659303185E+03  0.46340452914E+03  0.17321741943E+03 0.  0.
        -24    2    5    5    0    0 -0.61902703392E+02  0.34896639597E+02 -0.12634965111E+03  0.16607618943E+03  0.81039164708E+02 0.  0.
          4    1    4    4  501    0 -0.12871881589E+02 -0.18855009435E+01  0.21190608649E+02  0.24865283919E+02  0.00000000000E+00 0. -1.
         -3    1    4    4    0  501 -0.26048341816E+02 -0.54208086725E+02 -0.73223575020E+02  0.94756132870E+02  0.00000000000E+00 0.  1.
          5    1    3    3  502    0  0.82240290620E+02 -0.40410820630E+02 -0.85773850465E+02  0.12560152566E+03  0.47000000000E+01 0. -1.
         11    1    6    6    0    0 -0.21972284121E+02  0.57468420150E+02 -0.65350990759E+02  0.89756072648E+02  0.00000000000E+00 0. -1.
        -12    1    6    6    0    0 -0.39930419271E+02 -0.22571780553E+02 -0.60998660353E+02  0.76320116780E+02  0.00000000000E+00 0.  1.
         -5    1    5    5    0  503  0.18582636177E+02  0.61607768702E+02 -0.29024338074E+03  0.29732833971E+03  0.47000000000E+01 0.  1.
<mgrwt>
<rscale>  2 0.20293198E+03</rscale>
<asrwt>0</asrwt>
<pdfrwt beam="1">  1       21 0.11863663E-01 0.20296306E+03</pdfrwt>
<pdfrwt beam="2">  1       21 0.97155947E-01 0.20296306E+03</pdfrwt>
<totfact> 0.52362007E+04</totfact>
</mgrwt>
</event>
<event>
12    1  0.2762290E-001  0.2351313E+03  0.7546771E-02  0.1123277E+00
         21   -1    0    0  504  503  0.00000000000E+00  0.00000000000E+00  0.39463666160E+03  0.39463666160E+03  0.00000000000E+00 0.  1.
         21   -1    0    0  502  504 -0.00000000000E+00 -0.00000000000E+00 -0.38646383016E+03  0.38646383016E+03  0.00000000000E+00 0.  1.
          6    2    1    2  502    0 -0.15694677245E+03  0.14114461909E+02  0.31634472481E+03  0.39347099478E+03  0.17295644366E+03 0.  0.
         24    2    3    3    0    0 -0.11233453471E+03  0.67732501460E+02  0.26583479212E+03  0.30722431820E+03  0.80696378795E+02 0.  0.
         -6    2    1    2    0  503  0.15694677245E+03 -0.14114461909E+02 -0.30817189337E+03  0.38762949697E+03  0.17451419324E+03 0.  0.
        -24    2    5    5    0    0  0.16151229193E+03  0.31967641648E+02 -0.20825667359E+03  0.27740452077E+03  0.80462882689E+02 0.  0.
          4    1    4    4  501    0 -0.21782131644E+02  0.21731122166E+02  0.15019359620E+03  0.15331281508E+03  0.00000000000E+00 0. -1.
         -3    1    4    4    0  501 -0.90552403069E+02  0.46001379294E+02  0.11564119592E+03  0.15391150312E+03  0.00000000000E+00 0.  1.
          5    1    3    3  502    0 -0.44612237738E+02 -0.53618039551E+02  0.50509932691E+02  0.86246676583E+02  0.47000000000E+01 0. -1.
         13    1    6    6    0    0 -0.19756473266E+01  0.56291079130E+01 -0.43156106283E+02  0.43566495703E+02  0.00000000000E+00 0. -1.
        -14    1    6    6    0    0  0.16348793925E+03  0.26338533735E+02 -0.16510056731E+03  0.23383802506E+03  0.00000000000E+00 0.  1.
         -5    1    5    5    0  503 -0.45655194758E+01 -0.46082103557E+02 -0.99915219779E+02  0.11022497621E+03  0.47000000000E+01 0.  1.
<mgrwt>
<rscale>  2 0.23484227E+03</rscale>
<asrwt>0</asrwt>
<pdfrwt beam="1">  1       21 0.60713333E-01 0.23513126E+03</pdfrwt>
<pdfrwt beam="2">  1       21 0.59455974E-01 0.23513126E+03</pdfrwt>
<totfact> 0.64806043E+03</totfact>
</mgrwt>
</event>
<event>
12    1  0.2762290E-001  0.1830922E+03  0.7546771E-02  0.1165031E+00
         21   -1    0    0  504  503  0.00000000000E+00  0.00000000000E+00  0.43272357741E+02  0.43272357741E+02  0.00000000000E+00 0.  1.
         21   -1    0    0  502  504 -0.00000000000E+00 -0.00000000000E+00 -0.77372876658E+03  0.77372876658E+03  0.00000000000E+00 0.  1.
          6    2    1    2  502    0 -0.59489392353E+02 -0.25534575768E+01 -0.34181513605E+03  0.38739107986E+03  0.17230424710E+03 0.  0.
         24    2    3    3    0    0 -0.53204834613E+02 -0.47031946561E+02 -0.31918516554E+03  0.33687338777E+03  0.81004636062E+02 0.  0.
         -6    2    1    2    0  503  0.59489392353E+02  0.25534575768E+01 -0.38864127279E+03  0.42961004447E+03  0.17313937577E+03 0.  0.
        -24    2    5    5    0    0 -0.85230620783E+01 -0.15264622959E+02 -0.30956106696E+03  0.32369051413E+03  0.92961516030E+02 0.  0.
          2    1    4    4  501    0 -0.16115906163E+01 -0.52912706530E+02 -0.12249835927E+03  0.13344736701E+03  0.00000000000E+00 0. -1.
         -1    1    4    4    0  501 -0.51593243997E+02  0.58807599687E+01 -0.19668680627E+03  0.20342602076E+03  0.00000000000E+00 0.  1.
          5    1    3    3  502    0 -0.62845577399E+01  0.44478488985E+02 -0.22629970513E+02  0.50517692086E+02  0.47000000000E+01 0. -1.
         13    1    6    6    0    0  0.27199055545E+02 -0.38955027422E+02 -0.11432039623E+03  0.12379998295E+03  0.00000000000E+00 0. -1.
        -14    1    6    6    0    0 -0.35722117623E+02  0.23690404462E+02 -0.19524067073E+03  0.19989053118E+03  0.00000000000E+00 0.  1.
         -5    1    5    5    0  503  0.68012454431E+02  0.17818080536E+02 -0.79080205834E+02  0.10591953034E+03  0.47000000000E+01 0.  1.
<mgrwt>
<rscale>  2 0.18289449E+03</rscale>
<asrwt>0</asrwt>
<pdfrwt beam="1">  1       21 0.66572859E-02 0.18309219E+03</pdfrwt>
<pdfrwt beam="2">  1       21 0.11903519E+00 0.18309219E+03</pdfrwt>
<totfact> 0.89245973E+04</totfact>
</mgrwt>
</event>
<event>
12    1  0.2762290E-001  0.2017307E+03  0.7546771E-02  0.1148978E+00
         21   -1    0    0  504  503  0.00000000000E+00  0.00000000000E+00  0.10469357288E+03  0.10469357288E+03  0.00000000000E+00 0. -1.
         21   -1    0    0  502  504 -0.00000000000E+00 -0.00000000000E+00 -0.38328522200E+03  0.38328522200E+03  0.00000000000E+00 0. -1.
          6    2    1    2  502    0 -0.10273942235E+03 -0.82621560926E+01 -0.12874717045E+03  0.23931384432E+03  0.17341173563E+03 0.  0.
         24    2    3    3    0    0 -0.13917757934E+03 -0.15430434102E+02 -0.12054125419E+03  0.20099217218E+03  0.79114868576E+02 0.  0.
         -6    2    1    2    0  503  0.10273942235E+03  0.82621560926E+01 -0.14984447867E+03  0.24866495056E+03  0.16957959111E+03 0.  0.
        -24    2    5    5    0    0 -0.11347442479E+02 -0.31583973580E+01 -0.42342647943E+02  0.91423176922E+02  0.80165812657E+02 0.  0.
          4    1    4    4  501    0 -0.13280994092E+03  0.93289578516E+01 -0.87923469140E+02  0.15954951046E+03  0.00000000000E+00 0. -1.
         -3    1    4    4    0  501 -0.63676384112E+01 -0.24759391953E+02 -0.32617785046E+02  0.41442661716E+02  0.00000000000E+00 0.  1.
          5    1    3    3  502    0  0.36438156982E+02  0.71682780091E+01 -0.82059162645E+01  0.38321672140E+02  0.47000000000E+01 0. -1.
         11    1    6    6    0    0  0.26536669625E+02 -0.25316964211E+02 -0.24151311143E+02  0.43913885521E+02  0.00000000000E+00 0. -1.
        -12    1    6    6    0    0 -0.37884112104E+02  0.22158566853E+02 -0.18191336800E+02  0.47509291401E+02  0.00000000000E+00 0.  1.
         -5    1    5    5    0  503  0.11408686483E+03  0.11420553451E+02 -0.10750183073E+03  0.15724177364E+03  0.47000000000E+01 0.  1.
<mgrwt>
<rscale>  2 0.20090452E+03</rscale>
<asrwt>0</asrwt>
<pdfrwt beam="1">  1       21 0.16106704E-01 0.20173072E+03</pdfrwt>
<pdfrwt beam="2">  1       21 0.58966957E-01 0.20173072E+03</pdfrwt>
<totfact> 0.92293021E+04</totfact>
</mgrwt>
</event>
<event>
12    1  0.2762290E-001  0.1728869E+03  0.7546771E-02  0.1175020E+00
         21   -1    0    0  504  503  0.00000000000E+00  0.00000000000E+00  0.32976879063E+03  0.32976879063E+03  0.00000000000E+00 0. -1.
         21   -1    0    0  502  504 -0.00000000000E+00 -0.00000000000E+00 -0.97846879372E+02  0.97846879372E+02  0.00000000000E+00 0. -1.
          6    2    1    2  502    0 -0.23408743024E+01  0.78875530988E+01  0.17503403993E+03  0.24560991371E+03  0.17210351940E+03 0.  0.
         24    2    3    3    0    0 -0.21226751533E+02 -0.33817428456E+02  0.30952433687E+02  0.94356546462E+02  0.79692604808E+02 0.  0.
         -6    2    1    2    0  503  0.23408743024E+01 -0.78875530988E+01  0.56887871329E+02  0.18200575630E+03  0.17269097323E+03 0.  0.
        -24    2    5    5    0    0 -0.63578740968E+01  0.34099240743E+02  0.93542842199E+02  0.12539978514E+03  0.75971455198E+02 0.  0.
          4    1    4    4  501    0 -0.51696619655E+02 -0.23870164847E+02  0.17239806583E+02  0.59494001249E+02  0.00000000000E+00 0. -1.
         -3    1    4    4    0  501  0.30469868122E+02 -0.99472636089E+01  0.13712627104E+02  0.34862545213E+02  0.00000000000E+00 0.  1.
          5    1    3    3  502    0  0.18885877231E+02  0.41704981555E+02  0.14408160624E+03  0.15125336725E+03  0.47000000000E+01 0. -1.
         13    1    6    6    0    0 -0.26823892164E+02  0.36839526391E+02  0.21372126284E+02  0.50333285979E+02  0.00000000000E+00 0. -1.
        -14    1    6    6    0    0  0.20466018068E+02 -0.27402856480E+01  0.72170715915E+02  0.75066499164E+02  0.00000000000E+00 0.  1.
         -5    1    5    5    0  503  0.86987483992E+01 -0.41986793842E+02 -0.36654970870E+02  0.56605971154E+02  0.47000000000E+01 0.  1.
<mgrwt>
<rscale>  2 0.17273997E+03</rscale>
<asrwt>0</asrwt>
<pdfrwt beam="1">  1       21 0.50733659E-01 0.17288686E+03</pdfrwt>
<pdfrwt beam="2">  1       21 0.15053366E-01 0.17288686E+03</pdfrwt>
<totfact> 0.14502226E+05</totfact>
</mgrwt>
</event>
<event>
12    1  0.2762290E-001  0.1764773E+03  0.7546771E-02  0.1171647E+00
         21   -1    0    0  504  503  0.00000000000E+00  0.00000000000E+00  0.26152412925E+04  0.26152412925E+04  0.00000000000E+00 0.  1.
         21   -1    0    0  502  504 -0.00000000000E+00 -0.00000000000E+00 -0.17760512101E+02  0.17760512101E+02  0.00000000000E+00 0.  1.
          6    2    1    2  502    0  0.20462994027E+02  0.17112437965E+02  0.53244542294E+03  0.56043931394E+03  0.17286563146E+03 0.  0.
         24    2    3    3    0    0 -0.32727064128E+02  0.58477388590E+02  0.36737894009E+03  0.38208776450E+03  0.80827646611E+02 0.  0.
         -6    2    1    2    0  503 -0.20462994027E+02 -0.17112437965E+02  0.20650353575E+04  0.20725624907E+04  0.17444965029E+03 0.  0.
        -24    2    5    5    0    0 -0.30228600174E+02 -0.15250728816E+02  0.50774479461E+03  0.51523310348E+03  0.80709488141E+02 0.  0.
          4    1    4    4  501    0 -0.59257918855E+02  0.36003541699E+02  0.26704300087E+03  0.27589802514E+03  0.00000000000E+00 0. -1.
         -3    1    4    4    0  501  0.26530854726E+02  0.22473846890E+02  0.10033593923E+03  0.10618973937E+03  0.00000000000E+00 0.  1.
          5    1    3    3  502    0  0.53190058155E+02 -0.41364950624E+02  0.16506648285E+03  0.17835154944E+03  0.47000000000E+01 0. -1.
         11    1    6    6    0    0 -0.56494460126E+02  0.46841976037E+00  0.30460910564E+03  0.30980405207E+03  0.00000000000E+00 0. -1.
        -12    1    6    6    0    0  0.26265859952E+02 -0.15719148576E+02  0.20313568897E+03  0.20542905142E+03  0.00000000000E+00 0.  1.
         -5    1    5    5    0  503  0.97656061476E+01 -0.18617091494E+01  0.15572905629E+04  0.15573293872E+04  0.47000000000E+01 0.  1.
<mgrwt>
<rscale>  2 0.17608461E+03</rscale>
<asrwt>0</asrwt>
<pdfrwt beam="1">  1       21 0.40234451E+00 0.17647734E+03</pdfrwt>
<pdfrwt beam="2">  1       21 0.27323885E-02 0.17647734E+03</pdfrwt>
<totfact> 0.63631301E+03</totfact>
</mgrwt>
</event>
<event>
12    1  0.2762290E-001  0.1807300E+03  0.7546771E-02  0.1167429E+00
         21   -1    0    0  504  503  0.00000000000E+00  0.00000000000E+00  0.18335334577E+03  0.18335334577E+03  0.00000000000E+00 0. -1.
         21   -1    0    0  502  504 -0.00000000000E+00 -0.00000000000E+00 -0.24690092678E+03  0.24690092678E+03  0.00000000000E+00 0. -1.
          6    2    1    2  502    0 -0.46798248894E+02 -0.27361371451E+01  0.82941316267E+02  0.19761224707E+03  0.17312936118E+03 0.  0.
         24    2    3    3    0    0  0.24325379983E+02  0.28533797937E+02  0.88340726997E+02  0.11958902577E+03  0.71355093044E+02 0.  0.
         -6    2    1    2    0  503  0.46798248894E+02  0.27361371451E+01 -0.14648889728E+03  0.23264202548E+03  0.17454441397E+03 0.  0.
        -24    2    5    5    0    0 -0.17177922542E+02  0.50970497747E+02 -0.10540913325E+03  0.14248027602E+03  0.79350305716E+02 0.  0.
          2    1    4    4  501    0  0.24907452483E+02 -0.10684659173E+02  0.72300090223E+02  0.77212992281E+02  0.00000000000E+00 0. -1.
         -1    1    4    4    0  501 -0.58207249960E+00  0.39218457110E+02  0.16040636774E+02  0.42376033493E+02  0.00000000000E+00 0.  1.
          5    1    3    3  502    0 -0.71123628878E+02 -0.31269935082E+02 -0.53994107296E+01  0.78023221294E+02  0.47000000000E+01 0. -1.
         13    1    6    6    0    0  0.14150662842E+02  0.34879540615E+02 -0.99998060990E+02  0.10684772255E+03  0.00000000000E+00 0. -1.
        -14    1    6    6    0    0 -0.31328585383E+02  0.16090957132E+02 -0.54110722639E+01  0.35632553467E+02  0.00000000000E+00 0.  1.
         -5    1    5    5    0  503  0.63976171436E+02 -0.48234360601E+02 -0.41079764022E+02  0.90161749464E+02  0.47000000000E+01 0.  1.
<mgrwt>
<rscale>  2 0.18038742E+03</rscale>
<asrwt>0</asrwt>
<pdfrwt beam="1">  1       21 0.28208207E-01 0.18072995E+03</pdfrwt>
<pdfrwt beam="2">  1       21 0.37984758E-01 0.18072995E+03</pdfrwt>
<totfact> 0.80663197E+04</totfact>
</mgrwt>
</event>
<event>
12    1  0.2762290E-001  0.1928615E+03  0.7546771E-02  0.1155991E+00
         21   -1    0    0  504  503  0.00000000000E+00  0.00000000000E+00  0.97942592421E+02  0.97942592421E+02  0.00000000000E+00 0. -1.
         21   -1    0    0  502  504 -0.00000000000E+00 -0.00000000000E+00 -0.65385741632E+03  0.65385741632E+03  0.00000000000E+00 0. -1.
          6    2    1    2  502    0 -0.67407299176E+02 -0.52905761243E+02 -0.52150827391E+03  0.55589344372E+03  0.17234812868E+03 0.  0.
         24    2    3    3    0    0 -0.78148266760E+02  0.15788625120E+02 -0.40233215012E+03  0.41783792740E+03  0.79755515669E+02 0.  0.
         -6    2    1    2    0  503  0.67407299176E+02  0.52905761243E+02 -0.34406549990E+02  0.19590656502E+03  0.17277965153E+03 0.  0.
        -24    2    5    5    0    0 -0.90704356478E+01 -0.23847278854E+02 -0.24458092874E+02  0.86998645719E+02  0.79495915231E+02 0.  0.
          2    1    4    4  501    0 -0.64283552092E+02  0.15873651646E+02 -0.39776728178E+03  0.40324081929E+03  0.00000000000E+00 0. -1.
         -1    1    4    4    0  501 -0.13864714669E+02 -0.85026526323E-01 -0.45648683333E+01  0.14597108113E+02  0.00000000000E+00 0.  1.
          5    1    3    3  502    0  0.10740967584E+02 -0.68694386363E+02 -0.11917612379E+03  0.13805551631E+03  0.47000000000E+01 0. -1.
         13    1    6    6    0    0  0.24719291114E+02 -0.55819208719E+01  0.16973890164E+02  0.30501051475E+02  0.00000000000E+00 0. -1.
        -14    1    6    6    0    0 -0.33789726762E+02 -0.18265357982E+02 -0.41431983038E+02  0.56497594244E+02  0.00000000000E+00 0.  1.
         -5    1    5    5    0  503  0.76477734824E+02  0.76753040097E+02 -0.99484571160E+01  0.10890791930E+03  0.47000000000E+01 0.  1.
<mgrwt>
<rscale>  2 0.19276484E+03</rscale>
<asrwt>0</asrwt>
<pdfrwt beam="1">  1       21 0.15068092E-01 0.19286153E+03</pdfrwt>
<pdfrwt beam="2">  1       21 0.10059345E+00 0.19286153E+03</pdfrwt>
<totfact> 0.31492487E+04</totfact>
</mgrwt>
</event>
<event>
12    1  0.2762290E-001  0.1970404E+03  0.7546771E-02  0.1152565E+00
         21   -1    0    0  504  503  0.00000000000E+00  0.00000000000E+00  0.15354540442E+03  0.15354540442E+03  0.00000000000E+00 0.  1.
         21   -1    0    0  502  504 -0.00000000000E+00 -0.00000000000E+00 -0.31114556171E+03  0.31114556171E+03  0.00000000000E+00 0.  1.
          6    2    1    2  502    0 -0.50480362936E+02 -0.71237846280E+02 -0.18114240344E+03  0.26765181334E+03  0.17664038348E+03 0.  0.
         24    2    3    3    0    0 -0.46289081630E+02  0.27269467210E+02 -0.10401204428E+03  0.14238234398E+03  0.81042727008E+02 0.  0.
         -6    2    1    2    0  503  0.50480362936E+02  0.71237846280E+02  0.23542246151E+02  0.19703915280E+03  0.17506311032E+03 0.  0.
        -24    2    5    5    0    0  0.15112194744E+02  0.11268685177E+03  0.30562977230E+02  0.14190016439E+03  0.79213989195E+02 0.  0.
          4    1    4    4  501    0 -0.72059354683E+01  0.50113342920E+02 -0.66569554115E+02  0.83634790486E+02  0.00000000000E+00 0. -1.
         -3    1    4    4    0  501 -0.39083146161E+02 -0.22843875710E+02 -0.37442490165E+02  0.58747553490E+02  0.00000000000E+00 0.  1.
          5    1    3    3  502    0 -0.41912813065E+01 -0.98507313490E+02 -0.77130359163E+02  0.12526946936E+03  0.47000000000E+01 0. -1.
         11    1    6    6    0    0  0.11786090676E+02 -0.97482843692E+01 -0.12788072754E+01  0.15348496005E+02  0.00000000000E+00 0. -1.
        -12    1    6    6    0    0  0.33261040677E+01  0.12243513614E+03  0.31841784505E+02  0.12655166838E+03  0.00000000000E+00 0.  1.
         -5    1    5    5    0  503  0.35368168192E+02 -0.41449005493E+02 -0.70207310790E+01  0.55138988407E+02  0.47000000000E+01 0.  1.
<mgrwt>
<rscale>  2 0.19668627E+03</rscale>
<asrwt>0</asrwt>
<pdfrwt beam="1">  1       21 0.23622370E-01 0.19704041E+03</pdfrwt>
<pdfrwt beam="2">  1       21 0.47868548E-01 0.19704041E+03</pdfrwt>
<totfact> 0.70247984E+04</totfact>
</mgrwt>
</event>
<event>
12    1  0.2762290E-001  0.2545771E+03  0.7546771E-02  0.1110811E+00
         21   -1    0    0  504  503  0.00000000000E+00  0.00000000000E+00  0.60153258883E+03  0.60153258883E+03  0.00000000000E+00 0. -1.
         21   -1    0    0  502  504 -0.00000000000E+00 -0.00000000000E+00 -0.19375693653E+03  0.19375693653E+03  0.00000000000E+00 0.  1.
          6    2    1    2  502    0 -0.14447921283E+03 -0.11632792781E+03  0.47088108975E+03  0.53529292500E+03  0.17436480477E+03 0.  0.
         24    2    3    3    0    0 -0.98799873571E+02 -0.36615048375E+01  0.29675465864E+03  0.32287251894E+03  0.80053197481E+02 0.  0.
         -6    2    1    2    0  503  0.14447921283E+03  0.11632792781E+03 -0.63105437451E+02  0.25999660035E+03  0.17090788815E+03 0.  0.
        -24    2    5    5    0    0  0.11397118859E+03  0.79992633318E+02  0.21862298118E+02  0.16256662932E+03  0.81004294168E+02 0.  0.
          4    1    4    4  501    0 -0.53379088599E+02 -0.41855203426E+02  0.16215284103E+03  0.17576896486E+03  0.00000000000E+00 0. -1.
         -3    1    4    4    0  501 -0.45420784973E+02  0.38193698589E+02  0.13460181761E+03  0.14710355408E+03  0.00000000000E+00 0.  1.
          5    1    3    3  502    0 -0.45679339256E+02 -0.11266642297E+03  0.17412643112E+03  0.21242040606E+03  0.47000000000E+01 0. -1.
         13    1    6    6    0    0  0.79787297859E+02  0.92909682844E+01  0.24532993762E+02  0.83989301546E+02  0.00000000000E+00 0. -1.
        -14    1    6    6    0    0  0.34183890735E+02  0.70701665033E+02 -0.26706956437E+01  0.78577327770E+02  0.00000000000E+00 0.  1.
         -5    1    5    5    0  503  0.30508024233E+02  0.36335294488E+02 -0.84967735569E+02  0.97429971034E+02  0.47000000000E+01 0.  1.
<mgrwt>
<rscale>  2 0.25398629E+03</rscale>
<asrwt>0</asrwt>
<pdfrwt beam="1">  1       21 0.92543474E-01 0.25457713E+03</pdfrwt>
<pdfrwt beam="2">  1       21 0.29808760E-01 0.25457713E+03</pdfrwt>
<totfact> 0.10222215E+04</totfact>
</mgrwt>
</event>
<event>
12    1  0.2762290E-001  0.2627598E+03  0.7546771E-02  0.1105541E+00
         21   -1    0    0  504  503  0.00000000000E+00  0.00000000000E+00  0.55132134703E+03  0.55132134703E+03  0.00000000000E+00 0. -1.
         21   -1    0    0  502  504 -0.00000000000E+00 -0.00000000000E+00 -0.25465511251E+03  0.25465511251E+03  0.00000000000E+00 0.  1.
          6    2    1    2  502    0  0.19724118824E+03  0.43062153497E+01 -0.13907518162E+03  0.29729549800E+03  0.17355136749E+03 0.  0.
         24    2    3    3    0    0  0.54670745309E+02 -0.47598434326E+02 -0.70364271364E+02  0.13067106089E+03  0.82881204898E+02 0.  0.
         -6    2    1    2    0  503 -0.19724118824E+03 -0.43062153497E+01  0.43574141614E+03  0.50868096154E+03  0.17309855306E+03 0.  0.
        -24    2    5    5    0    0 -0.20307966748E+03  0.29735454290E+02  0.33391067562E+03  0.40104958681E+03  0.84964011245E+02 0.  0.
          2    1    4    4  501    0 -0.25533761400E+01 -0.27244106699E+02 -0.63997433092E+02  0.69601957745E+02  0.00000000000E+00 0. -1.
         -1    1    4    4    0  501  0.57224121449E+02 -0.20354327627E+02 -0.63668382713E+01  0.61069103140E+02  0.00000000000E+00 0.  1.
          5    1    3    3  502    0  0.14257044293E+03  0.51904649676E+02 -0.68710910253E+02  0.16662443711E+03  0.47000000000E+01 0. -1.
         13    1    6    6    0    0 -0.70807128800E+02  0.18528965119E+02  0.53040464356E+02  0.90389506561E+02  0.00000000000E+00 0. -1.
        -14    1    6    6    0    0 -0.13227253868E+03  0.11206489171E+02  0.28087021126E+03  0.31066008025E+03  0.00000000000E+00 0.  1.
         -5    1    5    5    0  503  0.58384792394E+01 -0.34041669640E+02  0.10183074052E+03  0.10763137473E+03  0.47000000000E+01 0.  1.
<mgrwt>
<rscale>  2 0.26268504E+03</rscale>
<asrwt>0</asrwt>
<pdfrwt beam="1">  1       21 0.84818668E-01 0.26275979E+03</pdfrwt>
<pdfrwt beam="2">  1       21 0.39177710E-01 0.26275979E+03</pdfrwt>
<totfact> 0.72280433E+03</totfact>
</mgrwt>
</event>
<event>
12    1  0.2762290E-001  0.1934334E+03  0.7546771E-02  0.1155768E+00
         21   -1    0    0  504  503  0.00000000000E+00  0.00000000000E+00  0.49348160581E+02  0.49348160581E+02  0.00000000000E+00 0. -1.
         21   -1    0    0  502  504 -0.00000000000E+00 -0.00000000000E+00 -0.75298979792E+03  0.75298979792E+03  0.00000000000E+00 0. -1.
          6    2    1    2  502    0 -0.82329182678E+02  0.10611446925E+02 -0.33685294334E+03  0.38844096568E+03  0.17471628789E+03 0.  0.
         24    2    3    3    0    0 -0.59132785113E+02 -0.10496568574E+02 -0.34204721815E+03  0.35630544531E+03  0.79689438995E+02 0.  0.
         -6    2    1    2    0  503  0.82329182678E+02 -0.10611446925E+02 -0.36678869399E+03  0.41389699282E+03  0.17287590201E+03 0.  0.
        -24    2    5    5    0    0  0.96606992669E+01  0.53661287443E+02 -0.18793575832E+03  0.21037265652E+03  0.77226565883E+02 0.  0.
          2    1    4    4  501    0 -0.52848110949E+02 -0.25545664937E+02 -0.33200267751E+03  0.33715171911E+03  0.00000000000E+00 0. -1.
         -1    1    4    4    0  501 -0.62846741638E+01  0.15049096363E+02 -0.10044540647E+02  0.19153726204E+02  0.00000000000E+00 0.  1.
          5    1    3    3  502    0 -0.23196397565E+02  0.21108015499E+02  0.51942748111E+01  0.32135520365E+02  0.47000000000E+01 0. -1.
         11    1    6    6    0    0  0.34292087086E+02  0.26505681013E+01 -0.10020383598E+03  0.10594234986E+03  0.00000000000E+00 0. -1.
        -12    1    6    6    0    0 -0.24631387819E+02  0.51010719342E+02 -0.87731922339E+02  0.10443030667E+03  0.00000000000E+00 0.  1.
         -5    1    5    5    0  503  0.72668483411E+02 -0.64272734368E+02 -0.17885293567E+03  0.20352433629E+03  0.47000000000E+01 0.  1.
<mgrwt>
<rscale>  2 0.19301688E+03</rscale>
<asrwt>0</asrwt>
<pdfrwt beam="1">  1       21 0.75920252E-02 0.19343340E+03</pdfrwt>
<pdfrwt beam="2">  1       21 0.11584458E+00 0.19343340E+03</pdfrwt>
<totfact> 0.75665790E+04</totfact>
</mgrwt>
</event>
<event>
12    1  0.2762290E-001  0.2204988E+03  0.7546771E-02  0.1134027E+00
         21   -1    0    0  504  503  0.00000000000E+00  0.00000000000E+00  0.40393558758E+03  0.40393558758E+03  0.00000000000E+00 0. -1.
         21   -1    0    0  502  504 -0.00000000000E+00 -0.00000000000E+00 -0.12177208000E+03  0.12177208000E+03  0.00000000000E+00 0. -1.
          6    2    1    2  502    0  0.26984342415E+02 -0.13411171784E+03  0.99612454152E+02  0.23944800068E+03  0.16940660084E+03 0.  0.
         24    2    3    3    0    0 -0.38551766976E+02 -0.12025885939E+03  0.79274504336E+02  0.16928671845E+03  0.80156808856E+02 0.  0.
         -6    2    1    2    0  503 -0.26984342415E+02  0.13411171784E+03  0.18255105343E+03  0.28625966691E+03  0.17293236305E+03 0.  0.
        -24    2    5    5    0    0  0.21509851034E+01  0.71127998243E+02  0.18916322671E+03  0.21639102530E+03  0.77320958473E+02 0.  0.
          4    1    4    4  501    0 -0.29346112336E+02 -0.36552129830E+02 -0.85099143633E+01  0.47641065761E+02  0.00000000000E+00 0. -1.
         -3    1    4    4    0  501 -0.92056546398E+01 -0.83706729563E+02  0.87784418699E+02  0.12164565269E+03  0.00000000000E+00 0.  1.
          5    1    3    3  502    0  0.65536109392E+02 -0.13852858450E+02  0.20337949816E+02  0.70161282230E+02  0.47000000000E+01 0. -1.
         13    1    6    6    0    0 -0.36064869630E+02  0.26814095983E+02  0.63754123009E+02  0.78001658735E+02  0.00000000000E+00 0. -1.
        -14    1    6    6    0    0  0.38215854733E+02  0.44313902260E+02  0.12540910370E+03  0.13838936657E+03  0.00000000000E+00 0.  1.
         -5    1    5    5    0  503 -0.29135327519E+02  0.62983719599E+02 -0.66121732817E+01  0.69868641605E+02  0.47000000000E+01 0.  1.
<mgrwt>
<rscale>  2 0.21980698E+03</rscale>
<asrwt>0</asrwt>
<pdfrwt beam="1">  1       21 0.62143936E-01 0.22049878E+03</pdfrwt>
<pdfrwt beam="2">  1       21 0.18734166E-01 0.22049878E+03</pdfrwt>
<totfact> 0.61853384E+04</totfact>
</mgrwt>
</event>
<event>
12    1  0.2762290E-001  0.1850569E+03  0.7546771E-02  0.1164285E+00
         21   -1    0    0  504  503  0.00000000000E+00  0.00000000000E+00  0.11444278834E+03  0.11444278834E+03  0.00000000000E+00 0.  1.
         21   -1    0    0  502  504 -0.00000000000E+00 -0.00000000000E+00 -0.32405169152E+03  0.32405169152E+03  0.00000000000E+00 0.  1.
          6    2    1    2  502    0  0.32549173154E+02  0.39526394739E+02 -0.17392183885E+03  0.25002800807E+03  0.17217262918E+03 0.  0.
         24    2    3    3    0    0  0.45057778400E+02  0.69358115861E+02 -0.18409702208E+03  0.21579321372E+03  0.76382235608E+02 0.  0.
         -6    2    1    2    0  503 -0.32549173154E+02 -0.39526394739E+02 -0.35687064339E+02  0.18846647179E+03  0.17783211148E+03 0.  0.
        -24    2    5    5    0    0 -0.22655121487E+02 -0.34395236063E+02 -0.96271516359E+02  0.12668632227E+03  0.71308713323E+02 0.  0.
          4    1    4    4  501    0  0.49537832700E+02  0.83858785862E+02 -0.16018470011E+03  0.18747114707E+03  0.00000000000E+00 0. -1.
         -3    1    4    4    0  501 -0.44800542994E+01 -0.14500670000E+02 -0.23912321972E+02  0.28322066646E+02  0.00000000000E+00 0.  1.
          5    1    3    3  502    0 -0.12508605246E+02 -0.29831721123E+02  0.10175183237E+02  0.34234794351E+02  0.47000000000E+01 0. -1.
         11    1    6    6    0    0 -0.24757745857E+02  0.14855588359E+02 -0.56105387179E+02  0.63098723885E+02  0.00000000000E+00 0. -1.
        -12    1    6    6    0    0  0.21026243701E+01 -0.49250824422E+02 -0.40166129181E+02  0.63587598389E+02  0.00000000000E+00 0.  1.
         -5    1    5    5    0  503 -0.98940516669E+01 -0.51311586756E+01  0.60584452021E+02  0.61780149517E+02  0.47000000000E+01 0.  1.
<mgrwt>
<rscale>  2 0.18368373E+03</rscale>
<asrwt>0</asrwt>
<pdfrwt beam="1">  1       21 0.17606583E-01 0.18505687E+03</pdfrwt>
<pdfrwt beam="2">  1       21 0.49854105E-01 0.18505687E+03</pdfrwt>
<totfact> 0.11242697E+05</totfact>
</mgrwt>
</event>
<event>
12    1  0.2762290E-001  0.2056103E+03  0.7546771E-02  0.1145768E+00
         21   -1    0    0  504  503  0.00000000000E+00  0.00000000000E+00  0.30637586618E+03  0.30637586618E+03  0.00000000000E+00 0.  1.
         21   -1    0    0  502  504 -0.00000000000E+00 -0.00000000000E+00 -0.13655303101E+03  0.13655303101E+03  0.00000000000E+00 0.  1.
          6    2    1    2  502    0  0.75105474582E+02 -0.73962915263E+02  0.67555119825E+02  0.21328940218E+03  0.17267695192E+03 0.  0.
         24    2    3    3    0    0  0.23191317452E+02 -0.50846417550E+01 -0.21781083838E+02  0.89022175786E+02  0.82986995255E+02 0.  0.
         -6    2    1    2    0  503 -0.75105474582E+02  0.73962915263E+02  0.10226771535E+03  0.22963949500E+03  0.17653403897E+03 0.  0.
        -24    2    5    5    0    0 -0.79269706619E+02  0.69897578252E+02  0.68332404362E+01  0.13391229513E+03  0.81953961336E+02 0.  0.
          2    1    4    4  501    0  0.35460291908E+02  0.29876469945E+02 -0.65926830946E+00  0.46373164581E+02  0.00000000000E+00 0. -1.
         -1    1    4    4    0  501 -0.12268974456E+02 -0.34961111700E+02 -0.21121815529E+02  0.42649011204E+02  0.00000000000E+00 0.  1.
          5    1    3    3  502    0  0.51914157130E+02 -0.68878273508E+02  0.89336203663E+02  0.12426722640E+03  0.47000000000E+01 0. -1.
         11    1    6    6    0    0 -0.43557897189E+02  0.69584735892E+02 -0.25266112564E+02  0.85893552265E+02  0.00000000000E+00 0. -1.
        -12    1    6    6    0    0 -0.35711809430E+02  0.31284235969E+00  0.32099353000E+02  0.48018742863E+02  0.00000000000E+00 0.  1.
         -5    1    5    5    0  503  0.41642320370E+01  0.40653370110E+01  0.95434474916E+02  0.95727199875E+02  0.47000000000E+01 0.  1.
<mgrwt>
<rscale>  2 0.20477983E+03</rscale>
<asrwt>0</asrwt>
<pdfrwt beam="1">  1       21 0.47134749E-01 0.20561034E+03</pdfrwt>
<pdfrwt beam="2">  1       21 0.21008159E-01 0.20561034E+03</pdfrwt>
<totfact> 0.90187540E+04</totfact>
</mgrwt>
</event>
<event>
12    1  0.2762290E-001  0.2124966E+03  0.7546771E-02  0.1139872E+00
         21   -1    0    0  504  503  0.00000000000E+00  0.00000000000E+00  0.19408497888E+03  0.19408497888E+03  0.00000000000E+00 0.  1.
         21   -1    0    0  502  504 -0.00000000000E+00 -0.00000000000E+00 -0.11966621227E+04  0.11966621227E+04  0.00000000000E+00 0. -1.
          6    2    1    2  502    0  0.57947359104E+02 -0.10578505167E+03 -0.11255854917E+04  0.11452153559E+04  0.17328340604E+03 0.  0.
         24    2    3    3    0    0  0.39289484150E+02 -0.27636146181E+02 -0.91522853463E+03  0.91998767756E+03  0.80166302915E+02 0.  0.
         -6    2    1    2    0  503 -0.57947359104E+02  0.10578505167E+03  0.12300834790E+03  0.24553174560E+03  0.17494688010E+03 0.  0.
        -24    2    5    5    0    0 -0.57061303714E+02  0.93856005869E+00  0.22055403973E+02  0.99904966514E+02  0.78979036543E+02 0.  0.
          4    1    4    4  501    0  0.21074763786E+02  0.24631119712E+02 -0.19894175611E+03  0.20156552297E+03  0.00000000000E+00 0. -1.
         -3    1    4    4    0  501  0.18214720363E+02 -0.52267265893E+02 -0.71628677852E+03  0.71842215459E+03  0.00000000000E+00 0.  1.
          5    1    3    3  502    0  0.18657874954E+02 -0.78148905489E+02 -0.21035695705E+03  0.22522767838E+03  0.47000000000E+01 0. -1.
         11    1    6    6    0    0 -0.41185808202E+02  0.16194217895E+01  0.51790600094E+02  0.66190328464E+02  0.00000000000E+00 0. -1.
        -12    1    6    6    0    0 -0.15875495512E+02 -0.68086173077E+00 -0.29735196121E+02  0.33714638050E+02  0.00000000000E+00 0.  1.
         -5    1    5    5    0  503 -0.88605538968E+00  0.10484649161E+03  0.10095294393E+03  0.14562677908E+03  0.47000000000E+01 0.  1.
<mgrwt>
<rscale>  2 0.21215387E+03</rscale>
<asrwt>0</asrwt>
<pdfrwt beam="1">  1       21 0.29859227E-01 0.21249655E+03</pdfrwt>
<pdfrwt beam="2">  1       21 0.18410187E+00 0.21249655E+03</pdfrwt>
<totfact> 0.18000207E+03</totfact>
</mgrwt>
</event>
<event>
12    1  0.2762290E-001  0.1828354E+03  0.7546771E-02  0.1165210E+00
         21   -1    0    0  504  503  0.00000000000E+00  0.00000000000E+00  0.94615708864E+03  0.94615708864E+03  0.00000000000E+00 0.  1.
         21   -1    0    0  502  504 -0.00000000000E+00 -0.00000000000E+00 -0.36317288460E+02  0.36317288460E+02  0.00000000000E+00 0.  1.
          6    2    1    2  502    0 -0.58482035336E+02  0.74314106562E+01  0.36931570347E+03  0.41186496591E+03  0.17252039588E+03 0.  0.
         24    2    3    3    0    0  0.34801389888E+02  0.17227963020E+02  0.17630472572E+03  0.19721851849E+03  0.79396777484E+02 0.  0.
         -6    2    1    2    0  503  0.58482035336E+02 -0.74314106562E+01  0.54052409671E+03  0.57060941119E+03  0.17307058298E+03 0.  0.
        -24    2    5    5    0    0  0.10718204042E+03 -0.92767391249E+01  0.37014432986E+03  0.39333434051E+03  0.78300899227E+02 0.  0.
          2    1    4    4  501    0  0.53721266668E+02  0.25984789164E+02  0.15995420152E+03  0.17072354947E+03  0.00000000000E+00 0. -1.
         -1    1    4    4    0  501 -0.18919876781E+02 -0.87568261444E+01  0.16350524203E+02  0.26494969017E+02  0.00000000000E+00 0.  1.
          5    1    3    3  502    0 -0.93283425224E+02 -0.97965523637E+01  0.19301097775E+03  0.21464644743E+03  0.47000000000E+01 0. -1.
         13    1    6    6    0    0  0.32020183967E+02  0.27663099634E+02  0.70666956036E+02  0.82367213975E+02  0.00000000000E+00 0. -1.
        -14    1    6    6    0    0  0.75161856455E+02 -0.36939838759E+02  0.29947737383E+03  0.31096712654E+03  0.00000000000E+00 0.  1.
         -5    1    5    5    0  503 -0.48700005086E+02  0.18453284686E+01  0.17037976685E+03  0.17727507068E+03  0.47000000000E+01 0.  1.
<mgrwt>
<rscale>  2 0.18270513E+03</rscale>
<asrwt>0</asrwt>
<pdfrwt beam="1">  1       21 0.14556261E+00 0.18283545E+03</pdfrwt>
<pdfrwt beam="2">  1       21 0.55872759E-02 0.18283545E+03</pdfrwt>
<totfact> 0.72378937E+04</totfact>
</mgrwt>
</event>
<event>
12    1  0.2762290E-001  0.2265329E+03  0.7546771E-02  0.1129363E+00
         21   -1    0    0  504  503  0.00000000000E+00  0.00000000000E+00  0.26068678398E+03  0.26068678398E+03  0.00000000000E+00 0.  1.
         21   -1    0    0  502  504 -0.00000000000E+00 -0.00000000000E+00 -0.27149986723E+03  0.27149986723E+03  0.00000000000E+00 0. -1.
          6    2    1    2  502    0 -0.12421813476E+02 -0.14357760818E+03 -0.14607913452E+03  0.26834188305E+03  0.17291449226E+03 0.  0.
         24    2    3    3    0    0 -0.19400243297E+02 -0.12417640663E+03 -0.17653940804E+03  0.23126057553E+03  0.80741202622E+02 0.  0.
         -6    2    1    2    0  503  0.12421813476E+02  0.14357760818E+03  0.13526605126E+03  0.26384476816E+03  0.17478079426E+03 0.  0.
        -24    2    5    5    0    0  0.23080698730E+02  0.35824128069E+01  0.32037041122E+02  0.89515811598E+02  0.80256813958E+02 0.  0.
          2    1    4    4  501    0  0.19028442604E+02 -0.10436548773E+03 -0.12842391654E+03  0.16657412463E+03  0.00000000000E+00 0. -1.
         -1    1    4    4    0  501 -0.38428685900E+02 -0.19810918894E+02 -0.48115491494E+02  0.64686450893E+02  0.00000000000E+00 0.  1.
          5    1    3    3  502    0  0.69784298203E+01 -0.19401201554E+02  0.30460273519E+02  0.37081307520E+02  0.47000000000E+01 0. -1.
         11    1    6    6    0    0  0.31253361650E+02  0.34415696532E+02  0.33396373462E+01  0.46608646835E+02  0.00000000000E+00 0. -1.
        -12    1    6    6    0    0 -0.81726629198E+01 -0.30833283725E+02  0.28697403776E+02  0.42907164762E+02  0.00000000000E+00 0.  1.
         -5    1    5    5    0  503 -0.10658885254E+02  0.13999519537E+03  0.10322901014E+03  0.17432895657E+03  0.47000000000E+01 0.  1.
<mgrwt>
<rscale>  2 0.22617285E+03</rscale>
<asrwt>0</asrwt>
<pdfrwt beam="1">  1       21 0.40105659E-01 0.22653291E+03</pdfrwt>
<pdfrwt beam="2">  1       21 0.41769210E-01 0.22653291E+03</pdfrwt>
<totfact> 0.32485415E+04</totfact>
</mgrwt>
</event>
<event>
12    1  0.2762290E-001  0.1922284E+03  0.7546771E-02  0.1156471E+00
         21   -1    0    0  504  503  0.00000000000E+00  0.00000000000E+00  0.55914052706E+02  0.55914052706E+02  0.00000000000E+00 0.  1.
         21   -1    0    0  502  504 -0.00000000000E+00 -0.00000000000E+00 -0.11367345038E+04  0.11367345038E+04  0.00000000000E+00 0.  1.
          6    2    1    2  502    0 -0.49268455272E+02 -0.65766302899E+02 -0.92627884479E+03  0.94601493871E+03  0.17377910881E+03 0.  0.
         24    2    3    3    0    0 -0.75913311794E+02 -0.21913980332E+02 -0.35881967210E+03  0.37622113631E+03  0.80918062745E+02 0.  0.
         -6    2    1    2    0  503  0.49268455272E+02  0.65766302899E+02 -0.15454160628E+03  0.24663361779E+03  0.17375973661E+03 0.  0.
        -24    2    5    5    0    0  0.39629422414E+02 -0.25132466058E+02 -0.43561160592E+02  0.10277866835E+03  0.80397437669E+02 0.  0.
          2    1    4    4  501    0 -0.50580541412E+02  0.77089709443E+01 -0.81875397481E+02  0.96547398283E+02  0.00000000000E+00 0. -1.
         -1    1    4    4    0  501 -0.25332770383E+02 -0.29622951276E+02 -0.27694427461E+03  0.27967373802E+03  0.00000000000E+00 0.  1.
          5    1    3    3  502    0  0.26644856522E+02 -0.43852322568E+02 -0.56745917270E+03  0.56979380240E+03  0.47000000000E+01 0. -1.
         13    1    6    6    0    0  0.41184932843E+02 -0.47142400135E+02 -0.49639747940E+02  0.79891859155E+02  0.00000000000E+00 0. -1.
        -14    1    6    6    0    0 -0.15555104285E+01  0.22009934077E+02  0.60785873481E+01  0.22886809190E+02  0.00000000000E+00 0.  1.
         -5    1    5    5    0  503  0.96390328580E+01  0.90898768958E+02 -0.11098044569E+03  0.14385494944E+03  0.47000000000E+01 0.  1.
<mgrwt>
<rscale>  2 0.19222404E+03</rscale>
<asrwt>0</asrwt>
<pdfrwt beam="1">  1       21 0.86021623E-02 0.19222842E+03</pdfrwt>
<pdfrwt beam="2">  1       21 0.17488222E+00 0.19222842E+03</pdfrwt>
<totfact> 0.20867040E+04</totfact>
</mgrwt>
</event>
<event>
12    1  0.2762290E-001  0.1732853E+03  0.7546771E-02  0.1174750E+00
         21   -1    0    0  504  503  0.00000000000E+00  0.00000000000E+00  0.90485472906E+02  0.90485472906E+02  0.00000000000E+00 0.  1.
         21   -1    0    0  502  504 -0.00000000000E+00 -0.00000000000E+00 -0.33502883822E+03  0.33502883822E+03  0.00000000000E+00 0.  1.
          6    2    1    2  502    0  0.26173454338E+01 -0.17290623302E+01 -0.95864430201E+02  0.19803483801E+03  0.17325694195E+03 0.  0.
         24    2    3    3    0    0  0.59633790149E+02 -0.36809324760E+02 -0.56387778511E+02  0.12017601829E+03  0.79696790959E+02 0.  0.
         -6    2    1    2    0  503 -0.26173454338E+01  0.17290623302E+01 -0.14867893512E+03  0.22747947312E+03  0.17213844657E+03 0.  0.
        -24    2    5    5    0    0 -0.66169091004E+02 -0.86854647976E+01 -0.10563227716E+03  0.14987540427E+03  0.82768791973E+02 0.  0.
          2    1    4    4  501    0 -0.57913282191E+01 -0.25982930995E+02  0.79477830967E+01  0.27781638573E+02  0.00000000000E+00 0. -1.
         -1    1    4    4    0  501  0.65425118368E+02 -0.10826393765E+02 -0.64335561608E+02  0.92394379714E+02  0.00000000000E+00 0.  1.
          5    1    3    3  502    0 -0.57016444715E+02  0.35080262430E+02 -0.39476651690E+02  0.77858819723E+02  0.47000000000E+01 0. -1.
         13    1    6    6    0    0  0.95169430695E+01 -0.91089762777E+01  0.64210336543E+01  0.14655215024E+02  0.00000000000E+00 0. -1.
        -14    1    6    6    0    0 -0.75686034073E+02  0.42351148010E+00 -0.11205331082E+03  0.13522018925E+03  0.00000000000E+00 0.  1.
         -5    1    5    5    0  503  0.63551745570E+02  0.10414527128E+02 -0.43046657956E+02  0.77604068846E+02  0.47000000000E+01 0.  1.
<mgrwt>
<rscale>  2 0.17300508E+03</rscale>
<asrwt>0</asrwt>
<pdfrwt beam="1">  1       21 0.13920842E-01 0.17328534E+03</pdfrwt>
<pdfrwt beam="2">  1       21 0.51542897E-01 0.17328534E+03</pdfrwt>
<totfact> 0.16164214E+05</totfact>
</mgrwt>
</event>
<event>
12    1  0.2762290E-001  0.1781174E+03  0.7546771E-02  0.1169735E+00
         21   -1    0    0  504  503  0.00000000000E+00  0.00000000000E+00  0.30274829330E+03  0.30274829330E+03  0.00000000000E+00 0. -1.
         21   -1    0    0  502  504 -0.00000000000E+00 -0.00000000000E+00 -0.10456479921E+03  0.10456479921E+03  0.00000000000E+00 0. -1.
          6    2    1    2  502    0 -0.41434981102E+02  0.49904957988E+01  0.10066242789E+03  0.20459410132E+03  0.17315905751E+03 0.  0.
         24    2    3    3    0    0  0.33970694524E+02  0.12940424146E+02  0.10917125166E+03  0.12814995596E+03  0.56414416261E+02 0.  0.
         -6    2    1    2    0  503  0.41434981102E+02 -0.49904957988E+01  0.97521066204E+02  0.20271899119E+03  0.17275088518E+03 0.  0.
        -24    2    5    5    0    0  0.53578426619E+02 -0.64324086930E+02  0.59238298487E+02  0.13091649396E+03  0.81373929631E+02 0.  0.
          4    1    4    4  501    0  0.31065040744E+02 -0.13089331466E+02  0.31332117320E+02  0.46022482880E+02  0.00000000000E+00 0. -1.
         -3    1    4    4    0  501  0.29056537796E+01  0.26029755612E+02  0.77839134335E+02  0.82127473084E+02  0.00000000000E+00 0.  1.
          5    1    3    3  502    0 -0.75405675625E+02 -0.79499283472E+01 -0.85088237642E+01  0.76444145355E+02  0.47000000000E+01 0. -1.
         13    1    6    6    0    0  0.44942248237E+02 -0.67612633797E+01 -0.31929856410E+01  0.45560021032E+02  0.00000000000E+00 0. -1.
        -14    1    6    6    0    0  0.86361783818E+01 -0.57562823550E+02  0.62431284128E+02  0.85356472924E+02  0.00000000000E+00 0.  1.
         -5    1    5    5    0  503 -0.12143445518E+02  0.59333591131E+02  0.38282767717E+02  0.71802497238E+02  0.47000000000E+01 0.  1.
<mgrwt>
<rscale>  2 0.17801816E+03</rscale>
<asrwt>0</asrwt>
<pdfrwt beam="1">  1       21 0.46576660E-01 0.17811744E+03</pdfrwt>
<pdfrwt beam="2">  1       21 0.16086892E-01 0.17811744E+03</pdfrwt>
<totfact> 0.15311765E+05</totfact>
</mgrwt>
</event>
<event>
12    1  0.2762290E-001  0.2239482E+03  0.7546771E-02  0.1131016E+00
         21   -1    0    0  504  503  0.00000000000E+00  0.00000000000E+00  0.21160989978E+03  0.21160989978E+03  0.00000000000E+00 0.  1.
         21   -1    0    0  502  504 -0.00000000000E+00 -0.00000000000E+00 -0.23812888853E+03  0.23812888853E+03  0.00000000000E+00 0. -1.
          6    2    1    2  502    0  0.13670260239E+03  0.26209744737E+02 -0.30323170450E+02  0.22599180144E+03  0.17543730343E+03 0.  0.
         24    2    3    3    0    0  0.13107356421E+03 -0.37281531203E+02 -0.34025125998E+02  0.16197131514E+03  0.80664775008E+02 0.  0.
         -6    2    1    2    0  503 -0.13670260239E+03 -0.26209744737E+02  0.38041817006E+01  0.22374698686E+03  0.17513905935E+03 0.  0.
        -24    2    5    5    0    0 -0.97793995191E+02  0.47117140901E+02  0.23319072253E+02  0.13834421861E+03  0.82532740348E+02 0.  0.
          2    1    4    4  501    0  0.13583730707E+03 -0.22079249311E+02 -0.42359648503E+02  0.14399169095E+03  0.00000000000E+00 0. -1.
         -1    1    4    4    0  501 -0.47637428592E+01 -0.15202281891E+02  0.83345225053E+01  0.17979624193E+02  0.00000000000E+00 0.  1.
          5    1    3    3  502    0  0.56290381841E+01  0.63491275939E+02  0.37019555480E+01  0.64020486301E+02  0.47000000000E+01 0. -1.
         13    1    6    6    0    0 -0.11057694290E+03  0.47107991073E+02  0.11173812887E+02  0.12071154550E+03  0.00000000000E+00 0. -1.
        -14    1    6    6    0    0  0.12782947705E+02  0.91498281505E-02  0.12145259367E+02  0.17632673105E+02  0.00000000000E+00 0.  1.
         -5    1    5    5    0  503 -0.38908607199E+02 -0.73326885638E+02 -0.19514890553E+02  0.85402768251E+02  0.47000000000E+01 0.  1.
<mgrwt>
<rscale>  2 0.22388979E+03</rscale>
<asrwt>0</asrwt>
<pdfrwt beam="1">  1       21 0.32555369E-01 0.22394821E+03</pdfrwt>
<pdfrwt beam="2">  1       21 0.36635214E-01 0.22394821E+03</pdfrwt>
<totfact> 0.64354018E+04</totfact>
</mgrwt>
</event>
<event>
12    1  0.2762290E-001  0.1816929E+03  0.7546771E-02  0.1166882E+00
         21   -1    0    0  504  503  0.00000000000E+00  0.00000000000E+00  0.16829649469E+03  0.16829649469E+03  0.00000000000E+00 0.  1.
         21   -1    0    0  502  504 -0.00000000000E+00 -0.00000000000E+00 -0.26327565683E+03  0.26327565683E+03  0.00000000000E+00 0.  1.
          6    2    1    2  502    0  0.55182110483E+02  0.83266219670E+01 -0.15868917801E+03  0.23903315646E+03  0.16982401692E+03 0.  0.
         24    2    3    3    0    0  0.32637583486E+02 -0.25891220583E+02 -0.18517966124E+02  0.92919587321E+02  0.80966458978E+02 0.  0.
         -6    2    1    2    0  503 -0.55182110483E+02 -0.83266219670E+01  0.63710015874E+02  0.19253899505E+03  0.17291009381E+03 0.  0.
        -24    2    5    5    0    0 -0.26650307286E+02  0.31981756544E+02 -0.21488400461E+02  0.93950510339E+02  0.81436327327E+02 0.  0.
          4    1    4    4  501    0  0.63508246987E+01 -0.19729044325E+02  0.30548163851E+02  0.36915558766E+02  0.00000000000E+00 0. -1.
         -3    1    4    4    0  501  0.26286758788E+02 -0.61621762576E+01 -0.49066129974E+02  0.56004028556E+02  0.00000000000E+00 0.  1.
          5    1    3    3  502    0  0.22544526997E+02  0.34217842550E+02 -0.14017121189E+03  0.14611356914E+03  0.47000000000E+01 0. -1.
         13    1    6    6    0    0 -0.79083727526E+01 -0.27013123709E+02  0.80378618862E+00  0.28158431851E+02  0.00000000000E+00 0. -1.
        -14    1    6    6    0    0 -0.18741934534E+02  0.58994880253E+02 -0.22292186650E+02  0.65792078488E+02  0.00000000000E+00 0.  1.
         -5    1    5    5    0  503 -0.28531803197E+02 -0.40308378511E+02  0.85198416335E+02  0.98588484712E+02  0.47000000000E+01 0.  1.
<mgrwt>
<rscale>  2 0.18095479E+03</rscale>
<asrwt>0</asrwt>
<pdfrwt beam="1">  1       21 0.25891769E-01 0.18169287E+03</pdfrwt>
<pdfrwt beam="2">  1       21 0.40503947E-01 0.18169287E+03</pdfrwt>
<totfact> 0.83552802E+04</totfact>
</mgrwt>
</event>
<event>
12    1  0.2762290E-001  0.2451450E+03  0.7546771E-02  0.1116642E+00
         21   -1    0    0  504  503  0.00000000000E+00  0.00000000000E+00  0.46089112607E+03  0.46089112607E+03  0.00000000000E+00 0.  1.
         21   -1    0    0  502  504 -0.00000000000E+00 -0.00000000000E+00 -0.71507151543E+03  0.71507151543E+03  0.00000000000E+00 0.  1.
          6    2    1    2  502    0  0.10338856374E+03 -0.13758585833E+03 -0.65904236531E+03  0.70266644342E+03  0.17258107633E+03 0.  0.
         24    2    3    3    0    0  0.13399152945E+03 -0.14224791316E+03 -0.55207288476E+03  0.59120866650E+03  0.80963068731E+02 0.  0.
         -6    2    1    2    0  503 -0.10338856374E+03  0.13758585833E+03  0.40486197595E+03  0.47329619808E+03  0.17457665371E+03 0.  0.
        -24    2    5    5    0    0 -0.63166124559E+02  0.37144085441E+02  0.90578030843E+02  0.14087645964E+03  0.79196937017E+02 0.  0.
          4    1    4    4  501    0  0.75619688976E+02 -0.90823944503E+02 -0.21567403609E+03  0.24593213718E+03  0.00000000000E+00 0. -1.
         -3    1    4    4    0  501  0.58371840472E+02 -0.51423968657E+02 -0.33639884867E+03  0.34527652932E+03  0.00000000000E+00 0.  1.
          5    1    3    3  502    0 -0.30602965710E+02  0.46620548303E+01 -0.10696948055E+03  0.11145777692E+03  0.47000000000E+01 0. -1.
         13    1    6    6    0    0 -0.40592454775E+02  0.33599690798E+02  0.10238998656E+03  0.11515379261E+03  0.00000000000E+00 0. -1.
        -14    1    6    6    0    0 -0.22573669784E+02  0.35443946422E+01 -0.11811955713E+02  0.25722667021E+02  0.00000000000E+00 0.  1.
         -5    1    5    5    0  503 -0.40222439179E+02  0.10044177289E+03  0.31428394511E+03  0.33241973844E+03  0.47000000000E+01 0.  1.
<mgrwt>
<rscale>  2 0.24478996E+03</rscale>
<asrwt>0</asrwt>
<pdfrwt beam="1">  1       21 0.70906327E-01 0.24514500E+03</pdfrwt>
<pdfrwt beam="2">  1       21 0.11001100E+00 0.24514500E+03</pdfrwt>
<totfact> 0.11217951E+03</totfact>
</mgrwt>
</event>
<event>
12    1  0.2762290E-001  0.2330106E+03  0.7546771E-02  0.1124555E+00
         21   -1    0    0  504  503  0.00000000000E+00  0.00000000000E+00  0.25215075988E+03  0.25215075988E+03  0.00000000000E+00 0. -1.
         21   -1    0    0  502  504 -0.00000000000E+00 -0.00000000000E+00 -0.43386004110E+03  0.43386004110E+03  0.00000000000E+00 0. -1.
          6    2    1    2  502    0 -0.12517698119E+02  0.15541586369E+03 -0.33433278741E+03  0.40746481083E+03  0.17302709579E+03 0.  0.
         24    2    3    3    0    0 -0.14616701027E+02  0.17568663874E+03 -0.22591209116E+03  0.29704539448E+03  0.78232029659E+02 0.  0.
         -6    2    1    2    0  503  0.12517698119E+02 -0.15541586369E+03  0.15262350618E+03  0.27854599015E+03  0.17315643371E+03 0.  0.
        -24    2    5    5    0    0 -0.13044362464E+02 -0.39179720706E+02  0.12599054809E+03  0.15649819486E+03  0.83143615995E+02 0.  0.
          4    1    4    4  501    0 -0.57927019499E+00  0.14301405049E+03 -0.21782267008E+03  0.26057641834E+03  0.00000000000E+00 0. -1.
         -3    1    4    4    0  501 -0.14037430832E+02  0.32672588247E+02 -0.80894210827E+01  0.36468976139E+02  0.00000000000E+00 0.  1.
          5    1    3    3  502    0  0.20990029083E+01 -0.20270775047E+02 -0.10842069624E+03  0.11041941635E+03  0.47000000000E+01 0. -1.
         13    1    6    6    0    0 -0.63282175620E+01 -0.64269147358E+02  0.10422693175E+03  0.12261249097E+03  0.00000000000E+00 0. -1.
        -14    1    6    6    0    0 -0.67161449020E+01  0.25089426653E+02  0.21763616336E+02  0.33885703890E+02  0.00000000000E+00 0.  1.
         -5    1    5    5    0  503  0.25562060583E+02 -0.11623614299E+03  0.26632958091E+02  0.12204779529E+03  0.47000000000E+01 0.  1.
<mgrwt>
<rscale>  2 0.23298656E+03</rscale>
<asrwt>0</asrwt>
<pdfrwt beam="1">  1       21 0.38792424E-01 0.23301059E+03</pdfrwt>
<pdfrwt beam="2">  1       21 0.66747699E-01 0.23301059E+03</pdfrwt>
<totfact> 0.12853824E+04</totfact>
</mgrwt>
</event>
<event>
12    1  0.2762290E-001  0.1840268E+03  0.7546771E-02  0.1164707E+00
         21   -1    0    0  504  503  0.00000000000E+00  0.00000000000E+00  0.57062075421E+03  0.57062075421E+03  0.00000000000E+00 0. -1.
         21   -1    0    0  502  504 -0.00000000000E+00 -0.00000000000E+00 -0.72744999759E+02  0.72744999759E+02  0.00000000000E+00 0. -1.
          6    2    1    2  502    0  0.13537984256E+02  0.54399066691E+02  0.10751469615E+03  0.21313202140E+03  0.17528066973E+03 0.  0.
         24    2    3    3    0    0  0.60926048224E+02  0.40671077679E+02  0.10554410294E+02  0.10423999542E+03  0.73406138410E+02 0.  0.
         -6    2    1    2    0  503 -0.13537984256E+02 -0.54399066691E+02  0.39036105830E+03  0.43023373257E+03  0.17197899095E+03 0.  0.
        -24    2    5    5    0    0  0.40976957650E+02  0.34275808735E+01  0.28062443356E+03  0.29466081172E+03  0.79900324667E+02 0.  0.
          4    1    4    4  501    0  0.56563638728E+02  0.16435852227E+02  0.35836027113E+02  0.68947830305E+02  0.00000000000E+00 0. -1.
         -3    1    4    4    0  501  0.43624094959E+01  0.24235225452E+02 -0.25281616819E+02  0.35292165112E+02  0.00000000000E+00 0.  1.
          5    1    3    3  502    0 -0.47388063968E+02  0.13727989012E+02  0.96960285854E+02  0.10889202598E+03  0.47000000000E+01 0. -1.
         11    1    6    6    0    0  0.15773030238E+02  0.30496508410E+01  0.35635282446E+01  0.16455624773E+02  0.00000000000E+00 0. -1.
        -12    1    6    6    0    0  0.25203927412E+02  0.37793003247E+00  0.27706090532E+03  0.27820518694E+03  0.00000000000E+00 0.  1.
         -5    1    5    5    0  503 -0.54514941905E+02 -0.57826647564E+02  0.10973662474E+03  0.13557292086E+03  0.47000000000E+01 0.  1.
<mgrwt>
<rscale>  2 0.18323619E+03</rscale>
<asrwt>0</asrwt>
<pdfrwt beam="1">  1       21 0.87787805E-01 0.18402676E+03</pdfrwt>
<pdfrwt beam="2">  1       21 0.11191539E-01 0.18402676E+03</pdfrwt>
<totfact> 0.74229862E+04</totfact>
</mgrwt>
</event>
<event>
12    1  0.2762290E-001  0.1828009E+03  0.7546771E-02  0.1166196E+00
         21   -1    0    0  504  503  0.00000000000E+00  0.00000000000E+00  0.24271636433E+03  0.24271636433E+03  0.00000000000E+00 0.  1.
         21   -1    0    0  502  504 -0.00000000000E+00 -0.00000000000E+00 -0.23982628024E+03  0.23982628024E+03  0.00000000000E+00 0.  1.
          6    2    1    2  502    0 -0.36698522570E+02 -0.23142239377E+02 -0.15858455543E+03  0.23863647791E+03  0.17296231545E+03 0.  0.
         24    2    3    3    0    0  0.16597935741E+01  0.24377627038E+02 -0.32040667854E+02  0.98048627778E+02  0.89386270746E+02 0.  0.
         -6    2    1    2    0  503  0.36698522570E+02  0.23142239377E+02  0.16147463952E+03  0.24390616666E+03  0.17757762844E+03 0.  0.
        -24    2    5    5    0    0 -0.43418695011E+02  0.40657223944E+02  0.77665003316E+02  0.12655332963E+03  0.80285114222E+02 0.  0.
          2    1    4    4  501    0  0.82266555731E+01  0.25973598347E+02  0.27155931145E+02  0.38467522267E+02  0.00000000000E+00 0. -1.
         -1    1    4    4    0  501 -0.65668619990E+01 -0.15959713090E+01 -0.59196598999E+02  0.59581105511E+02  0.00000000000E+00 0.  1.
          5    1    3    3  502    0 -0.38358316144E+02 -0.47519866415E+02 -0.12654388758E+03  0.14058785013E+03  0.47000000000E+01 0. -1.
         11    1    6    6    0    0 -0.63004182821E+02  0.14779807681E+02  0.37068108814E+02  0.74578914306E+02  0.00000000000E+00 0. -1.
        -12    1    6    6    0    0  0.19585487811E+02  0.25877416263E+02  0.40596894502E+02  0.51974415326E+02  0.00000000000E+00 0.  1.
         -5    1    5    5    0  503  0.80117217581E+02 -0.17514984568E+02  0.83809636200E+02  0.11735283702E+03  0.47000000000E+01 0.  1.
<mgrwt>
<rscale>  2 0.18167041E+03</rscale>
<asrwt>0</asrwt>
<pdfrwt beam="1">  1       21 0.37340979E-01 0.18280087E+03</pdfrwt>
<pdfrwt beam="2">  1       21 0.36896351E-01 0.18280087E+03</pdfrwt>
<totfact> 0.49229201E+04</totfact>
</mgrwt>
</event>
<event>
12    1  0.2762290E-001  0.3034330E+03  0.7546771E-02  0.1084191E+00
         21   -1    0    0  504  503  0.00000000000E+00  0.00000000000E+00  0.32769729964E+03  0.32769729964E+03  0.00000000000E+00 0. -1.
         21   -1    0    0  502  504 -0.00000000000E+00 -0.00000000000E+00 -0.70910652085E+03  0.70910652085E+03  0.00000000000E+00 0.  1.
          6    2    1    2  502    0  0.18927655825E+03 -0.15271738904E+03 -0.59643622571E+03  0.66918440041E+03  0.18144799254E+03 0.  0.
         24    2    3    3    0    0  0.16452153660E+03 -0.13875639509E+03 -0.33725872734E+03  0.40841096213E+03  0.82069431839E+02 0.  0.
         -6    2    1    2    0  503 -0.18927655825E+03  0.15271738904E+03  0.21502700450E+03  0.36761942008E+03  0.17250857641E+03 0.  0.
        -24    2    5    5    0    0 -0.20133139259E+03  0.17108409292E+03  0.19577410030E+03  0.33803193688E+03  0.78319828309E+02 0.  0.
          4    1    4    4  501    0  0.78496933501E+02 -0.62468732249E+02 -0.86164986541E+02  0.13224415293E+03  0.00000000000E+00 0. -1.
         -3    1    4    4    0  501  0.86024603099E+02 -0.76287662836E+02 -0.25109374079E+03  0.27616680920E+03  0.00000000000E+00 0.  1.
          5    1    3    3  502    0  0.24755021654E+02 -0.13960993958E+02 -0.25917749837E+03  0.26077343828E+03  0.47000000000E+01 0. -1.
         13    1    6    6    0    0 -0.10424166198E+03  0.68833721522E+02  0.48115315954E+02  0.13386369538E+03  0.00000000000E+00 0. -1.
        -14    1    6    6    0    0 -0.97089730610E+02  0.10225037140E+03  0.14765878435E+03  0.20416824150E+03  0.00000000000E+00 0.  1.
         -5    1    5    5    0  503  0.12054834336E+02 -0.18366703881E+02  0.19252904190E+02  0.29587483199E+02  0.47000000000E+01 0.  1.
<mgrwt>
<rscale>  2 0.30210949E+03</rscale>
<asrwt>0</asrwt>
<pdfrwt beam="1">  1       21 0.50414970E-01 0.30343301E+03</pdfrwt>
<pdfrwt beam="2">  1       21 0.10909331E+00 0.30343301E+03</pdfrwt>
<totfact> 0.23041539E+03</totfact>
</mgrwt>
</event>
<event>
12    1  0.2762290E-001  0.2059131E+03  0.7546771E-02  0.1145018E+00
         21   -1    0    0  504  503  0.00000000000E+00  0.00000000000E+00  0.67042206269E+03  0.67042206269E+03  0.00000000000E+00 0.  1.
         21   -1    0    0  502  504 -0.00000000000E+00 -0.00000000000E+00 -0.64067385493E+02  0.64067385493E+02  0.00000000000E+00 0.  1.
          6    2    1    2  502    0  0.10705917825E+03  0.45503255080E+01  0.25598744984E+03  0.32852670465E+03  0.17583471808E+03 0.  0.
         24    2    3    3    0    0  0.51339137602E+02  0.24681196417E+02  0.43323518113E+02  0.10771453843E+03  0.80502335748E+02 0.  0.
         -6    2    1    2    0  503 -0.10705917825E+03 -0.45503255080E+01  0.35036722735E+03  0.40596274353E+03  0.17483186786E+03 0.  0.
        -24    2    5    5    0    0  0.12458206447E+00  0.32307598652E+02  0.19722408909E+03  0.21538001649E+03  0.80295789017E+02 0.  0.
          2    1    4    4  501    0  0.50422353761E+01  0.45732402036E+02  0.10526276054E+02  0.47198296804E+02  0.00000000000E+00 0. -1.
         -1    1    4    4    0  501  0.46296902226E+02 -0.21051205619E+02  0.32797242059E+02  0.60516241625E+02  0.00000000000E+00 0.  1.
          5    1    3    3  502    0  0.55720040653E+02 -0.20130870909E+02  0.21266393173E+03  0.22081216622E+03  0.47000000000E+01 0. -1.
         11    1    6    6    0    0  0.16256526673E+02  0.55623167616E+02  0.13991299686E+03  0.15143928858E+03  0.00000000000E+00 0. -1.
        -12    1    6    6    0    0 -0.16131944608E+02 -0.23315568964E+02  0.57311092232E+02  0.63940727911E+02  0.00000000000E+00 0.  1.
         -5    1    5    5    0  503 -0.10718376032E+03 -0.36857924160E+02  0.15314313826E+03  0.19058272704E+03  0.47000000000E+01 0.  1.
<mgrwt>
<rscale>  2 0.20569888E+03</rscale>
<asrwt>0</asrwt>
<pdfrwt beam="1">  1       21 0.10314185E+00 0.20591314E+03</pdfrwt>
<pdfrwt beam="2">  1       21 0.98565213E-02 0.20591314E+03</pdfrwt>
<totfact> 0.63068450E+04</totfact>
</mgrwt>
</event>
<event>
12    1  0.2762290E-001  0.2054870E+03  0.7546771E-02  0.1146861E+00
         21   -1    0    0  504  503  0.00000000000E+00  0.00000000000E+00  0.17769141990E+03  0.17769141990E+03  0.00000000000E+00 0.  1.
         21   -1    0    0  502  504 -0.00000000000E+00 -0.00000000000E+00 -0.50001258923E+03  0.50001258923E+03  0.00000000000E+00 0.  1.
          6    2    1    2  502    0  0.35346600181E+02  0.10541488716E+03 -0.40939832402E+03  0.45452846527E+03  0.16317921883E+03 0.  0.
         24    2    3    3    0    0  0.62420831521E+02  0.12280200996E+03 -0.37012474295E+03  0.40353993507E+03  0.82918393599E+02 0.  0.
         -6    2    1    2    0  503 -0.35346600181E+02 -0.10541488716E+03  0.87077154687E+02  0.22317554385E+03  0.17280975645E+03 0.  0.
        -24    2    5    5    0    0 -0.16515125352E+01 -0.45358404516E+02 -0.21696554340E+02  0.94350275309E+02  0.79819306103E+02 0.  0.
          4    1    4    4  501    0  0.43195762139E+02  0.87451887554E+01 -0.82600828334E+02  0.93622908706E+02  0.00000000000E+00 0. -1.
         -3    1    4    4    0  501  0.19225069383E+02  0.11405682121E+03 -0.28752391461E+03  0.30991702637E+03  0.00000000000E+00 0.  1.
          5    1    3    3  502    0 -0.27074231341E+02 -0.17387122805E+02 -0.39273581069E+02  0.50988530202E+02  0.47000000000E+01 0. -1.
         13    1    6    6    0    0  0.11483228797E+02 -0.65689432217E+02 -0.21758018382E+02  0.70145401934E+02  0.00000000000E+00 0. -1.
        -14    1    6    6    0    0 -0.13134741332E+02  0.20331027701E+02  0.61464041781E-01  0.24204873375E+02  0.00000000000E+00 0.  1.
         -5    1    5    5    0  503 -0.33695087645E+02 -0.60056482641E+02  0.10877370903E+03  0.12882526854E+03  0.47000000000E+01 0.  1.
<mgrwt>
<rscale>  2 0.20344928E+03</rscale>
<asrwt>0</asrwt>
<pdfrwt beam="1">  1       21 0.27337142E-01 0.20548696E+03</pdfrwt>
<pdfrwt beam="2">  1       21 0.76925014E-01 0.20548696E+03</pdfrwt>
<totfact> 0.19019584E+04</totfact>
</mgrwt>
</event>
<event>
12    1  0.2762290E-001  0.1943991E+03  0.7546771E-02  0.1154608E+00
         21   -1    0    0  504  503  0.00000000000E+00  0.00000000000E+00  0.21780331934E+03  0.21780331934E+03  0.00000000000E+00 0. -1.
         21   -1    0    0  502  504 -0.00000000000E+00 -0.00000000000E+00 -0.18871553328E+03  0.18871553328E+03  0.00000000000E+00 0. -1.
          6    2    1    2  502    0  0.62361952364E+02  0.63788219868E+02 -0.43568373597E+02  0.19922153245E+03  0.17272251074E+03 0.  0.
         24    2    3    3    0    0 -0.48124563587E+00  0.92956485695E+02 -0.13415837007E+02  0.12351604567E+03  0.80219006630E+02 0.  0.
         -6    2    1    2    0  503 -0.62361952364E+02 -0.63788219868E+02  0.72656159655E+02  0.20729732017E+03  0.17243929748E+03 0.  0.
        -24    2    5    5    0    0 -0.97985976708E+02 -0.25850976372E+02  0.81890553184E+02  0.15423443692E+03  0.82538925492E+02 0.  0.
          2    1    4    4  501    0  0.67220420344E+01  0.88888280289E+02 -0.38501591405E+02  0.97101414832E+02  0.00000000000E+00 0. -1.
         -1    1    4    4    0  501 -0.72032876703E+01  0.40682054068E+01  0.25085754397E+02  0.26414630836E+02  0.00000000000E+00 0.  1.
          5    1    3    3  502    0  0.62843198000E+02 -0.29168265827E+02 -0.30152536589E+02  0.75705486783E+02  0.47000000000E+01 0. -1.
         13    1    6    6    0    0 -0.97947282398E+02 -0.11108168748E+02  0.34235477526E+02  0.10435099167E+03  0.00000000000E+00 0. -1.
        -14    1    6    6    0    0 -0.38694310356E-01 -0.14742807624E+02  0.47655075659E+02  0.49883445249E+02  0.00000000000E+00 0.  1.
         -5    1    5    5    0  503  0.35624024344E+02 -0.37937243496E+02 -0.92343935290E+01  0.53062883246E+02  0.47000000000E+01 0.  1.
<mgrwt>
<rscale>  2 0.19433619E+03</rscale>
<asrwt>0</asrwt>
<pdfrwt beam="1">  1       21 0.33508203E-01 0.19439911E+03</pdfrwt>
<pdfrwt beam="2">  1       21 0.29033159E-01 0.19439911E+03</pdfrwt>
<totfact> 0.97361318E+04</totfact>
</mgrwt>
</event>
<event>
12    1  0.2762290E-001  0.1819635E+03  0.7546771E-02  0.1166094E+00
         21   -1    0    0  504  503  0.00000000000E+00  0.00000000000E+00  0.16485171516E+03  0.16485171516E+03  0.00000000000E+00 0.  1.
         21   -1    0    0  502  504 -0.00000000000E+00 -0.00000000000E+00 -0.20129490701E+03  0.20129490701E+03  0.00000000000E+00 0.  1.
          6    2    1    2  502    0  0.26105047839E+02  0.46544450442E+02 -0.36726073660E+01  0.18125572439E+03  0.17318282303E+03 0.  0.
         24    2    3    3    0    0  0.19710456028E+01 -0.34107777674E+02  0.28936457985E+02  0.90852886458E+02  0.79055062194E+02 0.  0.
         -6    2    1    2    0  503 -0.26105047839E+02 -0.46544450442E+02 -0.32770584486E+02  0.18489089778E+03  0.17396227604E+03 0.  0.
        -24    2    5    5    0    0 -0.13983383667E+02  0.36973739500E+02 -0.45465462013E+02  0.99418839718E+02  0.79084796412E+02 0.  0.
          2    1    4    4  501    0 -0.32497093341E+02 -0.24101517326E+02 -0.58383514683E+01  0.40878240678E+02  0.00000000000E+00 0. -1.
         -1    1    4    4    0  501  0.34468138944E+02 -0.10006260347E+02  0.34774809453E+02  0.49974645781E+02  0.00000000000E+00 0.  1.
          5    1    3    3  502    0  0.24134002237E+02  0.80652228115E+02 -0.32609065351E+02  0.90402837937E+02  0.47000000000E+01 0. -1.
         11    1    6    6    0    0  0.20002490764E+01  0.17740453119E+02  0.21494295728E+02  0.27941535786E+02  0.00000000000E+00 0. -1.
        -12    1    6    6    0    0 -0.15983632744E+02  0.19233286380E+02 -0.66959757741E+02  0.71477303932E+02  0.00000000000E+00 0.  1.
         -5    1    5    5    0  503 -0.12121664172E+02 -0.83518189942E+02  0.12694877527E+02  0.85472058059E+02  0.47000000000E+01 0.  1.
<mgrwt>
<rscale>  2 0.18177700E+03</rscale>
<asrwt>0</asrwt>
<pdfrwt beam="1">  1       21 0.25361802E-01 0.18196355E+03</pdfrwt>
<pdfrwt beam="2">  1       21 0.30968447E-01 0.18196355E+03</pdfrwt>
<totfact> 0.14809862E+05</totfact>
</mgrwt>
</event>
<event>
12    1  0.2762290E-001  0.2027489E+03  0.7546771E-02  0.1147921E+00
         21   -1    0    0  504  503  0.00000000000E+00  0.00000000000E+00  0.95557566035E+02  0.95557566035E+02  0.00000000000E+00 0.  1.
         21   -1    0    0  502  504 -0.00000000000E+00 -0.00000000000E+00 -0.55263622261E+03  0.55263622261E+03  0.00000000000E+00 0. -1.
          6    2    1    2  502    0  0.56607900265E+02 -0.85389807060E+02 -0.38309964257E+03  0.43236975319E+03  0.17228579110E+03 0.  0.
         24    2    3    3    0    0  0.58919370159E+02 -0.93439251422E+02 -0.17327405409E+03  0.22232451038E+03  0.84864033648E+02 0.  0.
         -6    2    1    2    0  503 -0.56607900265E+02  0.85389807060E+02 -0.73979014002E+02  0.21582403545E+03  0.17496069914E+03 0.  0.
        -24    2    5    5    0    0 -0.72086134053E+02  0.69083708342E+00 -0.12097545156E+02  0.10968781438E+03  0.81781281764E+02 0.  0.
          4    1    4    4  501    0 -0.53235336407E+01 -0.61072608647E+02 -0.47977762453E+02  0.77846446466E+02  0.00000000000E+00 0. -1.
         -3    1    4    4    0  501  0.64242903799E+02 -0.32366642774E+02 -0.12529629164E+03  0.14447806391E+03  0.00000000000E+00 0.  1.
          5    1    3    3  502    0 -0.23114698934E+01  0.80494443620E+01 -0.20982558848E+03  0.21004524281E+03  0.47000000000E+01 0. -1.
         13    1    6    6    0    0 -0.22859651161E+02 -0.14201824818E+02 -0.42233349770E+02  0.50079050631E+02  0.00000000000E+00 0. -1.
        -14    1    6    6    0    0 -0.49226482892E+02  0.14892661901E+02  0.30135804613E+02  0.59608763753E+02  0.00000000000E+00 0.  1.
         -5    1    5    5    0  503  0.15478233787E+02  0.84698969976E+02 -0.61881468846E+02  0.10613622107E+03  0.47000000000E+01 0.  1.
<mgrwt>
<rscale>  2 0.20217050E+03</rscale>
<asrwt>0</asrwt>
<pdfrwt beam="1">  1       21 0.14701164E-01 0.20274891E+03</pdfrwt>
<pdfrwt beam="2">  1       21 0.85020956E-01 0.20274891E+03</pdfrwt>
<totfact> 0.48482354E+04</totfact>
</mgrwt>
</event>
<event>
12    1  0.2762290E-001  0.1989131E+03  0.7546771E-02  0.1150704E+00
         21   -1    0    0  504  503  0.00000000000E+00  0.00000000000E+00  0.65160240420E+03  0.65160240420E+03  0.00000000000E+00 0.  1.
         21   -1    0    0  502  504 -0.00000000000E+00 -0.00000000000E+00 -0.77443470125E+02  0.77443470125E+02  0.00000000000E+00 0. -1.
          6    2    1    2  502    0  0.42067794418E+02 -0.89013530468E+02  0.11724946238E+03  0.23071598484E+03  0.17259583221E+03 0.  0.
         24    2    3    3    0    0  0.79755413773E+02 -0.13660529176E+02  0.73843609775E+02  0.13582346934E+03  0.80296949108E+02 0.  0.
         -6    2    1    2    0  503 -0.42067794418E+02  0.89013530468E+02  0.45690947169E+03  0.49832988949E+03  0.17283895828E+03 0.  0.
        -24    2    5    5    0    0 -0.34751326852E+02 -0.19701102308E+02  0.21120831080E+03  0.22951107961E+03  0.80440020912E+02 0.  0.
          2    1    4    4  501    0  0.54320956388E+02  0.31035288601E+02  0.41360982056E+02  0.74997908491E+02  0.00000000000E+00 0. -1.
         -1    1    4    4    0  501  0.25434457385E+02 -0.44695817777E+02  0.32482627720E+02  0.60825560851E+02  0.00000000000E+00 0.  1.
          5    1    3    3  502    0 -0.37687619355E+02 -0.75353001292E+02  0.43405852603E+02  0.94892515493E+02  0.47000000000E+01 0. -1.
         11    1    6    6    0    0 -0.16530721418E+02 -0.24458738241E+02  0.16352816018E+02  0.33747729089E+02  0.00000000000E+00 0. -1.
        -12    1    6    6    0    0 -0.18220605434E+02  0.47576359327E+01  0.19485549478E+03  0.19576335052E+03  0.00000000000E+00 0.  1.
         -5    1    5    5    0  503 -0.73164675656E+01  0.10871463278E+03  0.24570116089E+03  0.26881880987E+03  0.47000000000E+01 0.  1.
<mgrwt>
<rscale>  2 0.19886025E+03</rscale>
<asrwt>0</asrwt>
<pdfrwt beam="1">  1       21 0.10024652E+00 0.19891308E+03</pdfrwt>
<pdfrwt beam="2">  1       21 0.11914380E-01 0.19891308E+03</pdfrwt>
<totfact> 0.48355339E+04</totfact>
</mgrwt>
</event>
<event>
12    1  0.2762290E-001  0.2180040E+03  0.7546771E-02  0.1135618E+00
         21   -1    0    0  504  503  0.00000000000E+00  0.00000000000E+00  0.65684952679E+03  0.65684952679E+03  0.00000000000E+00 0. -1.
         21   -1    0    0  502  504 -0.00000000000E+00 -0.00000000000E+00 -0.96737633109E+02  0.96737633109E+02  0.00000000000E+00 0. -1.
          6    2    1    2  502    0  0.13098169237E+03  0.10676874281E+02  0.47023624382E+03  0.51778349370E+03  0.17235841136E+03 0.  0.
         24    2    3    3    0    0  0.49909106199E+02  0.49598990804E+02  0.36131029831E+03  0.37645180232E+03  0.78866019528E+02 0.  0.
         -6    2    1    2    0  503 -0.13098169237E+03 -0.10676874281E+02  0.89875649860E+02  0.23580366620E+03  0.17394118884E+03 0.  0.
        -24    2    5    5    0    0 -0.16334798370E+03  0.28277357418E+01  0.70083377109E+02  0.19526016651E+03  0.80773095821E+02 0.  0.
          4    1    4    4  501    0 -0.15691885947E+02  0.22429485024E+02  0.17390431842E+03  0.17604553118E+03  0.00000000000E+00 0. -1.
         -3    1    4    4    0  501  0.65600992146E+02  0.27169505780E+02  0.18740597989E+03  0.20040627114E+03  0.00000000000E+00 0.  1.
          5    1    3    3  502    0  0.81072586168E+02 -0.38922116524E+02  0.10892594551E+03  0.14133169138E+03  0.47000000000E+01 0. -1.
         11    1    6    6    0    0 -0.18224196552E+02 -0.23813421197E+01 -0.17746218510E+02  0.25548393328E+02  0.00000000000E+00 0. -1.
        -12    1    6    6    0    0 -0.14512378715E+03  0.52090778615E+01  0.87829595619E+02  0.16971177318E+03  0.00000000000E+00 0.  1.
         -5    1    5    5    0  503  0.32366291334E+02 -0.13504610022E+02  0.19792272750E+02  0.40543499691E+02  0.47000000000E+01 0.  1.
<mgrwt>
<rscale>  2 0.21768811E+03</rscale>
<asrwt>0</asrwt>
<pdfrwt beam="1">  1       21 0.10105377E+00 0.21800398E+03</pdfrwt>
<pdfrwt beam="2">  1       21 0.14882713E-01 0.21800398E+03</pdfrwt>
<totfact> 0.31419269E+04</totfact>
</mgrwt>
</event>
<event>
12    1  0.2762290E-001  0.1776670E+03  0.7546771E-02  0.1170127E+00
         21   -1    0    0  504  503  0.00000000000E+00  0.00000000000E+00  0.53656027905E+02  0.53656027905E+02  0.00000000000E+00 0. -1.
         21   -1    0    0  502  504 -0.00000000000E+00 -0.00000000000E+00 -0.88177732302E+03  0.88177732302E+03  0.00000000000E+00 0. -1.
          6    2    1    2  502    0  0.12065197379E+02 -0.37150038577E+02 -0.68432913624E+03  0.70701621302E+03  0.17332012120E+03 0.  0.
         24    2    3    3    0    0 -0.35617287102E+02  0.10498188627E+02 -0.20601990107E+03  0.22395743054E+03  0.79585978362E+02 0.  0.
         -6    2    1    2    0  503 -0.12065197379E+02  0.37150038577E+02 -0.14379215887E+03  0.22841713790E+03  0.17312570456E+03 0.  0.
        -24    2    5    5    0    0 -0.70770675231E+02  0.48702532298E+02 -0.10259599438E+03  0.15562285784E+03  0.79448792904E+02 0.  0.
          2    1    4    4  501    0 -0.18530902636E+02  0.39232694666E+02 -0.59308597838E+02  0.73485430262E+02  0.00000000000E+00 0. -1.
         -1    1    4    4    0  501 -0.17086384467E+02 -0.28734506040E+02 -0.14671130323E+03  0.15047200028E+03  0.00000000000E+00 0.  1.
          5    1    3    3  502    0  0.47682484482E+02 -0.47648227204E+02 -0.47830923517E+03  0.48305878248E+03  0.47000000000E+01 0. -1.
         11    1    6    6    0    0 -0.61204304008E+02 -0.34721304437E+01 -0.71315670868E+02  0.94042264064E+02  0.00000000000E+00 0. -1.
        -12    1    6    6    0    0 -0.95663712229E+01  0.52174662742E+02 -0.31280323515E+02  0.61580593776E+02  0.00000000000E+00 0.  1.
         -5    1    5    5    0  503  0.58705477851E+02 -0.11552493721E+02 -0.41196164485E+02  0.72794280058E+02  0.47000000000E+01 0.  1.
<mgrwt>
<rscale>  2 0.17761956E+03</rscale>
<asrwt>0</asrwt>
<pdfrwt beam="1">  1       21 0.82547733E-02 0.17766699E+03</pdfrwt>
<pdfrwt beam="2">  1       21 0.13565805E+00 0.17766699E+03</pdfrwt>
<totfact> 0.44455940E+04</totfact>
</mgrwt>
</event>
<event>
12    1  0.2762290E-001  0.1919220E+03  0.7546771E-02  0.1156779E+00
         21   -1    0    0  504  503  0.00000000000E+00  0.00000000000E+00  0.41536448393E+02  0.41536448393E+02  0.00000000000E+00 0.  1.
         21   -1    0    0  502  504 -0.00000000000E+00 -0.00000000000E+00 -0.92338334935E+03  0.92338334935E+03  0.00000000000E+00 0.  1.
          6    2    1    2  502    0 -0.27068116105E+02  0.77821028034E+02 -0.34358722811E+03  0.39346766760E+03  0.17313528471E+03 0.  0.
         24    2    3    3    0    0 -0.71492640374E+02  0.80457181087E+02 -0.30941002999E+03  0.33715906674E+03  0.79731512023E+02 0.  0.
         -6    2    1    2    0  503  0.27068116105E+02 -0.77821028034E+02 -0.53825967285E+03  0.57145213015E+03  0.17333570411E+03 0.  0.
        -24    2    5    5    0    0 -0.10570329559E+02  0.62020579453E+00 -0.12688152774E+03  0.15094797080E+03  0.81081756791E+02 0.  0.
          2    1    4    4  501    0 -0.62858885998E+01 -0.14083026476E+02 -0.69313899342E+02  0.71008877418E+02  0.00000000000E+00 0. -1.
         -1    1    4    4    0  501 -0.65206751774E+02  0.94540207563E+02 -0.24009613065E+03  0.26615018932E+03  0.00000000000E+00 0.  1.
          5    1    3    3  502    0  0.44424524269E+02 -0.26361530530E+01 -0.34177198120E+02  0.56308600859E+02  0.47000000000E+01 0. -1.
         13    1    6    6    0    0 -0.31947327462E+02 -0.11995279301E+02 -0.12061189434E+03  0.12534650978E+03  0.00000000000E+00 0. -1.
        -14    1    6    6    0    0  0.21376997903E+02  0.12615485095E+02 -0.62696334061E+01  0.25601461025E+02  0.00000000000E+00 0.  1.
         -5    1    5    5    0  503  0.37638445664E+02 -0.78441233828E+02 -0.41137814511E+03  0.42050415935E+03  0.47000000000E+01 0.  1.
<mgrwt>
<rscale>  2 0.19187676E+03</rscale>
<asrwt>0</asrwt>
<pdfrwt beam="1">  1       21 0.63902230E-02 0.19192202E+03</pdfrwt>
<pdfrwt beam="2">  1       21 0.14205897E+00 0.19192202E+03</pdfrwt>
<totfact> 0.61005201E+04</totfact>
</mgrwt>
</event>
<event>
12    1  0.2762290E-001  0.2421457E+03  0.7546771E-02  0.1118378E+00
         21   -1    0    0  504  503  0.00000000000E+00  0.00000000000E+00  0.10627041252E+04  0.10627041252E+04  0.00000000000E+00 0.  1.
         21   -1    0    0  502  504 -0.00000000000E+00 -0.00000000000E+00 -0.71917534477E+02  0.71917534477E+02  0.00000000000E+00 0.  1.
          6    2    1    2  502    0  0.43466366312E+02 -0.16353992639E+03  0.22155761724E+03  0.32818026058E+03  0.17314696981E+03 0.  0.
         24    2    3    3    0    0  0.72478861469E+02 -0.13210817320E+03  0.22745604266E+03  0.28474569593E+03  0.81474567967E+02 0.  0.
         -6    2    1    2    0  503 -0.43466366312E+02  0.16353992639E+03  0.76922897348E+03  0.80644139909E+03  0.17320474590E+03 0.  0.
        -24    2    5    5    0    0 -0.50692822886E+02  0.18828784879E+03  0.72814071080E+03  0.75770725636E+03  0.76872071162E+02 0.  0.
          4    1    4    4  501    0 -0.42413242469E+01 -0.71103501681E+02  0.11785911888E+03  0.13771154159E+03  0.00000000000E+00 0. -1.
         -3    1    4    4    0  501  0.76720185716E+02 -0.61004671517E+02  0.10959692378E+03  0.14703415435E+03  0.00000000000E+00 0.  1.
          5    1    3    3  502    0 -0.29012495157E+02 -0.31431753192E+02 -0.58984254160E+01  0.43434564650E+02  0.47000000000E+01 0. -1.
         11    1    6    6    0    0  0.52683868993E+01  0.12420600287E+03  0.44854878058E+03  0.46545772698E+03  0.00000000000E+00 0. -1.
        -12    1    6    6    0    0 -0.55961209785E+02  0.64081845914E+02  0.27959193022E+03  0.29224952938E+03  0.00000000000E+00 0.  1.
         -5    1    5    5    0  503  0.72264565741E+01 -0.24747922395E+02  0.41088262672E+02  0.48734142723E+02  0.47000000000E+01 0.  1.
<mgrwt>
<rscale>  2 0.24213532E+03</rscale>
<asrwt>0</asrwt>
<pdfrwt beam="1">  1       21 0.16349293E+00 0.24214565E+03</pdfrwt>
<pdfrwt beam="2">  1       21 0.11064237E-01 0.24214565E+03</pdfrwt>
<totfact> 0.15579820E+04</totfact>
</mgrwt>
</event>
<event>
12    1  0.2762290E-001  0.1912457E+03  0.7546771E-02  0.1159650E+00
         21   -1    0    0  504  503  0.00000000000E+00  0.00000000000E+00  0.18896729986E+03  0.18896729986E+03  0.00000000000E+00 0. -1.
         21   -1    0    0  502  504 -0.00000000000E+00 -0.00000000000E+00 -0.91596856522E+03  0.91596856522E+03  0.00000000000E+00 0. -1.
          6    2    1    2  502    0 -0.38885677060E+02  0.47894800888E+02 -0.85553095203E+03  0.87451281434E+03  0.17039203248E+03 0.  0.
         24    2    3    3    0    0 -0.45472832748E+02 -0.27435081365E+02 -0.17760012165E+03  0.19236159755E+03  0.51387924624E+02 0.  0.
         -6    2    1    2    0  503  0.38885677060E+02 -0.47894800888E+02  0.12852968667E+03  0.23042305074E+03  0.18102180566E+03 0.  0.
        -24    2    5    5    0    0 -0.27471727656E+02 -0.73250387489E+02  0.58482374721E+02  0.13054849520E+03  0.86616432382E+02 0.  0.
          4    1    4    4  501    0 -0.14019077888E+02 -0.34874349284E+02 -0.12588837774E+03  0.13137974895E+03  0.00000000000E+00 0. -1.
         -3    1    4    4    0  501 -0.31453754860E+02  0.74392679189E+01 -0.51711743905E+02  0.60981848608E+02  0.00000000000E+00 0.  1.
          5    1    3    3  502    0  0.65871556881E+01  0.75329882253E+02 -0.67793083038E+03  0.68215121679E+03  0.47000000000E+01 0. -1.
         13    1    6    6    0    0 -0.49517054973E+02 -0.52086807749E+02  0.90537119927E+01  0.72435792089E+02  0.00000000000E+00 0. -1.
        -14    1    6    6    0    0  0.22045327317E+02 -0.21163579740E+02  0.49428662728E+02  0.58112703113E+02  0.00000000000E+00 0.  1.
         -5    1    5    5    0  503  0.66357404716E+02  0.25355586601E+02  0.70047311944E+02  0.99874555534E+02  0.47000000000E+01 0.  1.
<mgrwt>
<rscale>  2 0.18868752E+03</rscale>
<asrwt>0</asrwt>
<pdfrwt beam="1">  1       21 0.29071892E-01 0.19124566E+03</pdfrwt>
<pdfrwt beam="2">  1       21 0.14091824E+00 0.19124566E+03</pdfrwt>
<totfact> 0.39905113E+03</totfact>
</mgrwt>
</event>
<event>
12    1  0.2762290E-001  0.2332452E+03  0.7546771E-02  0.1124441E+00
         21   -1    0    0  504  503  0.00000000000E+00  0.00000000000E+00  0.23522263784E+03  0.23522263784E+03  0.00000000000E+00 0. -1.
         21   -1    0    0  502  504 -0.00000000000E+00 -0.00000000000E+00 -0.70032923429E+03  0.70032923429E+03  0.00000000000E+00 0. -1.
          6    2    1    2  502    0 -0.49452895054E+02  0.14849413084E+03 -0.61558445215E+03  0.65829136372E+03  0.17293700038E+03 0.  0.
         24    2    3    3    0    0 -0.68562561779E+02  0.93740634049E+02 -0.24397593135E+03  0.28215560698E+03  0.81236691959E+02 0.  0.
         -6    2    1    2    0  503  0.49452895054E+02 -0.14849413084E+03  0.15047785570E+03  0.27726050841E+03  0.17243465065E+03 0.  0.
        -24    2    5    5    0    0  0.89788198095E+02 -0.61882807866E+02  0.10323432017E+03  0.17057171055E+03  0.80907237952E+02 0.  0.
          2    1    4    4  501    0 -0.70609938094E+02  0.97599150725E+02 -0.24831905248E+03  0.27599585034E+03  0.00000000000E+00 0. -1.
         -1    1    4    4    0  501  0.20473763150E+01 -0.38585166763E+01  0.43431211279E+01  0.61597566387E+01  0.00000000000E+00 0.  1.
          5    1    3    3  502    0  0.19109666725E+02  0.54753496796E+02 -0.37160852079E+03  0.37613575674E+03  0.47000000000E+01 0. -1.
         13    1    6    6    0    0  0.21687009860E+02 -0.10021887283E+02  0.77632321135E+02  0.81225254116E+02  0.00000000000E+00 0. -1.
        -14    1    6    6    0    0  0.68101188235E+02 -0.51860920582E+02  0.25601999031E+02  0.89346456433E+02  0.00000000000E+00 0.  1.
         -5    1    5    5    0  503 -0.40335303041E+02 -0.86611322979E+02  0.47243535534E+02  0.10668879786E+03  0.47000000000E+01 0.  1.
<mgrwt>
<rscale>  2 0.23315204E+03</rscale>
<asrwt>0</asrwt>
<pdfrwt beam="1">  1       21 0.36188099E-01 0.23324515E+03</pdfrwt>
<pdfrwt beam="2">  1       21 0.10774296E+00 0.23324515E+03</pdfrwt>
<totfact> 0.49047134E+03</totfact>
</mgrwt>
</event>
<event>
12    1  0.2762290E-001  0.2145094E+03  0.7546771E-02  0.1138071E+00
         21   -1    0    0  504  503  0.00000000000E+00  0.00000000000E+00  0.29191215405E+03  0.29191215405E+03  0.00000000000E+00 0. -1.
         21   -1    0    0  502  504 -0.00000000000E+00 -0.00000000000E+00 -0.16214521582E+03  0.16214521582E+03  0.00000000000E+00 0. -1.
          6    2    1    2  502    0  0.12578660707E+03  0.18321018298E+02  0.26595922797E+02  0.21615183112E+03  0.17278987459E+03 0.  0.
         24    2    3    3    0    0  0.79529027408E+01  0.19566951521E+02 -0.18867202974E+02  0.89758318514E+02  0.85173177354E+02 0.  0.
         -6    2    1    2    0  503 -0.12578660707E+03 -0.18321018298E+02  0.10317101543E+03  0.23790553874E+03  0.17261766048E+03 0.  0.
        -24    2    5    5    0    0  0.21079580579E+01  0.34570488062E+01  0.65923474513E+02  0.10284713175E+03  0.78836751221E+02 0.  0.
          2    1    4    4  501    0 -0.64010513029E+01 -0.29620174133E+01 -0.48991083617E+02  0.49496194590E+02  0.00000000000E+00 0. -1.
         -1    1    4    4    0  501  0.14353954044E+02  0.22528968934E+02  0.30123880643E+02  0.40262123924E+02  0.00000000000E+00 0.  1.
          5    1    3    3  502    0  0.11783370433E+03 -0.12459332229E+01  0.45463125771E+02  0.12639351261E+03  0.47000000000E+01 0. -1.
         11    1    6    6    0    0 -0.10055104790E+02  0.39390962754E+02  0.29257309233E+02  0.50087355915E+02  0.00000000000E+00 0. -1.
        -12    1    6    6    0    0  0.12163062848E+02 -0.35933913948E+02  0.36666165280E+02  0.52759775832E+02  0.00000000000E+00 0.  1.
         -5    1    5    5    0  503 -0.12789456513E+03 -0.21778067104E+02  0.37247540920E+02  0.13505840700E+03  0.47000000000E+01 0.  1.
<mgrwt>
<rscale>  2 0.21447469E+03</rscale>
<asrwt>0</asrwt>
<pdfrwt beam="1">  1       21 0.44909562E-01 0.21450937E+03</pdfrwt>
<pdfrwt beam="2">  1       21 0.24945418E-01 0.21450937E+03</pdfrwt>
<totfact> 0.71686508E+04</totfact>
</mgrwt>
</event>
<event>
12    1  0.2762290E-001  0.1885085E+03  0.7546771E-02  0.1160695E+00
         21   -1    0    0  504  503  0.00000000000E+00  0.00000000000E+00  0.27238253027E+03  0.27238253027E+03  0.00000000000E+00 0. -1.
         21   -1    0    0  502  504 -0.00000000000E+00 -0.00000000000E+00 -0.35603623981E+03  0.35603623981E+03  0.00000000000E+00 0. -1.
          6    2    1    2  502    0 -0.14162150141E+02  0.61733370444E+02 -0.29353453204E+03  0.34885234311E+03  0.17754959946E+03 0.  0.
         24    2    3    3    0    0 -0.15243949789E+02  0.11310107493E+02 -0.40614810761E+02  0.90910196206E+02  0.79087321261E+02 0.  0.
         -6    2    1    2    0  503  0.14162150141E+02 -0.61733370444E+02  0.20988082250E+03  0.27956642697E+03  0.17348156073E+03 0.  0.
        -24    2    5    5    0    0  0.26970783102E+02 -0.10682779747E+03  0.16287687190E+03  0.21301547056E+03  0.81896970923E+02 0.  0.
          4    1    4    4  501    0  0.18676912916E+02  0.31884395467E+02 -0.44342299553E+01  0.37216987326E+02  0.00000000000E+00 0. -1.
         -3    1    4    4    0  501 -0.33920862705E+02 -0.20574287974E+02 -0.36180580806E+02  0.53693208879E+02  0.00000000000E+00 0.  1.
          5    1    3    3  502    0  0.10817996486E+01  0.50423262951E+02 -0.25291972128E+03  0.25794214690E+03  0.47000000000E+01 0. -1.
         11    1    6    6    0    0  0.62723184592E+01 -0.24635528662E+02  0.11048431238E+03  0.11337122445E+03  0.00000000000E+00 0. -1.
        -12    1    6    6    0    0  0.20698464643E+02 -0.82192268806E+02  0.52392559517E+02  0.99644246110E+02  0.00000000000E+00 0.  1.
         -5    1    5    5    0  503 -0.12808632962E+02  0.45094427024E+02  0.47003950597E+02  0.66550956407E+02  0.47000000000E+01 0.  1.
<mgrwt>
<rscale>  2 0.18754446E+03</rscale>
<asrwt>0</asrwt>
<pdfrwt beam="1">  1       21 0.41905005E-01 0.18850845E+03</pdfrwt>
<pdfrwt beam="2">  1       21 0.54774806E-01 0.18850845E+03</pdfrwt>
<totfact> 0.17290445E+04</totfact>
</mgrwt>
</event>
<event>
12    1  0.2762290E-001  0.2831988E+03  0.7546771E-02  0.1094312E+00
         21   -1    0    0  504  503  0.00000000000E+00  0.00000000000E+00  0.23603103088E+04  0.23603103088E+04  0.00000000000E+00 0. -1.
         21   -1    0    0  502  504 -0.00000000000E+00 -0.00000000000E+00 -0.86973125997E+02  0.86973125997E+02  0.00000000000E+00 0. -1.
          6    2    1    2  502    0  0.22163161787E+03 -0.12927101121E+02  0.18073124278E+03  0.33595436772E+03  0.17582340883E+03 0.  0.
         24    2    3    3    0    0  0.22649221646E+02 -0.18811152143E+02  0.54749932585E+02  0.10032330742E+03  0.78742391420E+02 0.  0.
         -6    2    1    2    0  503 -0.22163161787E+03  0.12927101121E+02  0.20926059400E+04  0.21113290671E+04  0.17153170342E+03 0.  0.
        -24    2    5    5    0    0 -0.76822750441E+02  0.16880014430E+02  0.52352808649E+03  0.53557127031E+03  0.81044792364E+02 0.  0.
          2    1    4    4  501    0  0.35332196587E+02 -0.28702268398E+02  0.66370117788E+02  0.80480909923E+02  0.00000000000E+00 0. -1.
         -1    1    4    4    0  501 -0.12682974941E+02  0.98911162542E+01 -0.11620185203E+02  0.19842397493E+02  0.00000000000E+00 0.  1.
          5    1    3    3  502    0  0.19898239622E+03  0.58840510222E+01  0.12598131019E+03  0.23563106030E+03  0.47000000000E+01 0. -1.
         13    1    6    6    0    0 -0.27694408588E+02  0.14436431061E+02  0.41774661127E+03  0.41891242764E+03  0.00000000000E+00 0. -1.
        -14    1    6    6    0    0 -0.49128341853E+02  0.24435833689E+01  0.10578147522E+03  0.11665884267E+03  0.00000000000E+00 0.  1.
         -5    1    5    5    0  503 -0.14480886742E+03 -0.39529133085E+01  0.15690778535E+04  0.15757577967E+04  0.47000000000E+01 0.  1.
<mgrwt>
<rscale>  2 0.28253538E+03</rscale>
<asrwt>0</asrwt>
<pdfrwt beam="1">  1       21 0.36312461E+00 0.28319879E+03</pdfrwt>
<pdfrwt beam="2">  1       21 0.13380483E-01 0.28319879E+03</pdfrwt>
<totfact> 0.62938334E+02</totfact>
</mgrwt>
</event>
<event>
12    1  0.2762290E-001  0.1869230E+03  0.7546771E-02  0.1161583E+00
         21   -1    0    0  504  503  0.00000000000E+00  0.00000000000E+00  0.15411912755E+03  0.15411912755E+03  0.00000000000E+00 0.  1.
         21   -1    0    0  502  504 -0.00000000000E+00 -0.00000000000E+00 -0.58861658430E+03  0.58861658430E+03  0.00000000000E+00 0. -1.
          6    2    1    2  502    0  0.71948225821E+02  0.97980681731E+01 -0.50880598592E+03  0.54158414409E+03  0.17075510090E+03 0.  0.
         24    2    3    3    0    0 -0.27061157509E+02  0.11347447174E+02 -0.26774760932E+03  0.28093785217E+03  0.79851259745E+02 0.  0.
         -6    2    1    2    0  503 -0.71948225821E+02 -0.97980681731E+01  0.74308529169E+02  0.20115156776E+03  0.17224298641E+03 0.  0.
        -24    2    5    5    0    0 -0.49648670606E+02  0.27650138099E+02  0.10726604147E+03  0.14630700620E+03  0.81671389003E+02 0.  0.
          4    1    4    4  501    0 -0.29730925240E+02  0.43386524537E+02 -0.17785683768E+03  0.18547067999E+03  0.00000000000E+00 0. -1.
         -3    1    4    4    0  501  0.26697677316E+01 -0.32039077362E+02 -0.89890771639E+02  0.95467172179E+02  0.00000000000E+00 0.  1.
          5    1    3    3  502    0  0.99009383329E+02 -0.15493790014E+01 -0.24105837660E+03  0.26064629192E+03  0.47000000000E+01 0. -1.
         11    1    6    6    0    0  0.90006266076E+01  0.35439709321E+02  0.61332981050E+02  0.71405313811E+02  0.00000000000E+00 0. -1.
        -12    1    6    6    0    0 -0.58649297214E+02 -0.77895712224E+01  0.45933060416E+02  0.74901692389E+02  0.00000000000E+00 0.  1.
         -5    1    5    5    0  503 -0.22299555214E+02 -0.37448206272E+02 -0.32957512297E+02  0.54844561558E+02  0.47000000000E+01 0.  1.
<mgrwt>
<rscale>  2 0.18657949E+03</rscale>
<asrwt>0</asrwt>
<pdfrwt beam="1">  1       21 0.23710635E-01 0.18692297E+03</pdfrwt>
<pdfrwt beam="2">  1       21 0.90556398E-01 0.18692297E+03</pdfrwt>
<totfact> 0.17413753E+04</totfact>
</mgrwt>
</event>
<event>
12    1  0.2762290E-001  0.1878792E+03  0.7546771E-02  0.1160805E+00
         21   -1    0    0  504  503  0.00000000000E+00  0.00000000000E+00  0.45846005208E+03  0.45846005208E+03  0.00000000000E+00 0.  1.
         21   -1    0    0  502  504 -0.00000000000E+00 -0.00000000000E+00 -0.15867072056E+03  0.15867072056E+03  0.00000000000E+00 0.  1.
          6    2    1    2  502    0  0.59832895218E+02 -0.39830522748E+02 -0.72840705815E+02  0.19981585638E+03  0.17162214934E+03 0.  0.
         24    2    3    3    0    0  0.24633797033E+02 -0.87321287348E+02 -0.25014427584E+02  0.12363323287E+03  0.80172460996E+02 0.  0.
         -6    2    1    2    0  503 -0.59832895218E+02  0.39830522748E+02  0.37263003733E+03  0.41731491625E+03  0.17358614205E+03 0.  0.
        -24    2    5    5    0    0 -0.70106407054E+02  0.70821073951E+02  0.17197641361E+03  0.21396810407E+03  0.79220766834E+02 0.  0.
          2    1    4    4  501    0  0.21926469828E+02 -0.20829934795E+02  0.25920384688E+02  0.39831176295E+02  0.00000000000E+00 0. -1.
         -1    1    4    4    0  501  0.27073272043E+01 -0.66491352554E+02 -0.50934812272E+02  0.83802056575E+02  0.00000000000E+00 0.  1.
          5    1    3    3  502    0  0.35199098185E+02  0.47490764600E+02 -0.47826278231E+02  0.76182623510E+02  0.47000000000E+01 0. -1.
         13    1    6    6    0    0 -0.83854949075E+00  0.19746600427E+02 -0.20037612980E+01  0.19865710483E+02  0.00000000000E+00 0. -1.
        -14    1    6    6    0    0 -0.69267857563E+02  0.51074473524E+02  0.17398017491E+03  0.19410239359E+03  0.00000000000E+00 0.  1.
         -5    1    5    5    0  503  0.10273511836E+02 -0.30990551202E+02  0.20065362373E+03  0.20334681218E+03  0.47000000000E+01 0.  1.
<mgrwt>
<rscale>  2 0.18742429E+03</rscale>
<asrwt>0</asrwt>
<pdfrwt beam="1">  1       21 0.70532315E-01 0.18787920E+03</pdfrwt>
<pdfrwt beam="2">  1       21 0.24410880E-01 0.18787920E+03</pdfrwt>
<totfact> 0.28960075E+04</totfact>
</mgrwt>
</event>
<event>
12    1  0.2762290E-001  0.1945975E+03  0.7546771E-02  0.1154409E+00
         21   -1    0    0  504  503  0.00000000000E+00  0.00000000000E+00  0.10076406614E+03  0.10076406614E+03  0.00000000000E+00 0.  1.
         21   -1    0    0  502  504 -0.00000000000E+00 -0.00000000000E+00 -0.47930613442E+03  0.47930613442E+03  0.00000000000E+00 0.  1.
          6    2    1    2  502    0  0.86559825596E+02  0.14971873629E+02 -0.32427406996E+03  0.37818231122E+03  0.17364166453E+03 0.  0.
         24    2    3    3    0    0  0.13908549254E+02  0.31938209682E+02 -0.27583122735E+03  0.28910446036E+03  0.79278156123E+02 0.  0.
         -6    2    1    2    0  503 -0.86559825596E+02 -0.14971873629E+02 -0.54267998319E+02  0.20188788934E+03  0.17348470772E+03 0.  0.
        -24    2    5    5    0    0 -0.55827759076E+02 -0.49981998400E+02 -0.91403368699E+02  0.14212758075E+03  0.78935002082E+02 0.  0.
          4    1    4    4  501    0  0.10804026893E+02  0.50375078723E+02 -0.25858810173E+03  0.26367059356E+03  0.00000000000E+00 0. -1.
         -3    1    4    4    0  501  0.31045223612E+01 -0.18436869041E+02 -0.17243125623E+02  0.25433866800E+02  0.00000000000E+00 0.  1.
          5    1    3    3  502    0  0.72651276341E+02 -0.16966336052E+02 -0.48442842608E+02  0.89077850856E+02  0.47000000000E+01 0. -1.
         11    1    6    6    0    0 -0.18576074078E+02  0.14272037935E+02 -0.54228533206E+02  0.59071951116E+02  0.00000000000E+00 0. -1.
        -12    1    6    6    0    0 -0.37251684997E+02 -0.64254036335E+02 -0.37174835493E+02  0.83055629637E+02  0.00000000000E+00 0.  1.
         -5    1    5    5    0  503 -0.30732066520E+02  0.35010124771E+02  0.37135370380E+02  0.59760308586E+02  0.47000000000E+01 0.  1.
<mgrwt>
<rscale>  2 0.19456248E+03</rscale>
<asrwt>0</asrwt>
<pdfrwt beam="1">  1       21 0.15502164E-01 0.19459750E+03</pdfrwt>
<pdfrwt beam="2">  1       21 0.73739403E-01 0.19459750E+03</pdfrwt>
<totfact> 0.60944295E+04</totfact>
</mgrwt>
</event>
<event>
12    1  0.2762290E-001  0.1823507E+03  0.7546771E-02  0.1165815E+00
         21   -1    0    0  504  503  0.00000000000E+00  0.00000000000E+00  0.50179731929E+03  0.50179731929E+03  0.00000000000E+00 0. -1.
         21   -1    0    0  502  504 -0.00000000000E+00 -0.00000000000E+00 -0.77840781256E+02  0.77840781256E+02  0.00000000000E+00 0. -1.
          6    2    1    2  502    0 -0.31343881776E+02 -0.30111638992E+02  0.98823922832E+02  0.20740768814E+03  0.17709497917E+03 0.  0.
         24    2    3    3    0    0  0.12237678727E+02 -0.59704153990E+02  0.11595971860E+03  0.15181277060E+03  0.76721015340E+02 0.  0.
         -6    2    1    2    0  503  0.31343881776E+02  0.30111638992E+02  0.32513261520E+03  0.37223041241E+03  0.17594065114E+03 0.  0.
        -24    2    5    5    0    0 -0.18289521245E+02  0.97791762303E+01  0.30351735499E+03  0.31421150849E+03  0.78587202618E+02 0.  0.
          2    1    4    4  501    0 -0.19843466855E+02 -0.62448926703E+02  0.82823619336E+02  0.10560958074E+03  0.00000000000E+00 0. -1.
         -1    1    4    4    0  501  0.32081145582E+02  0.27447727130E+01  0.33136099265E+02  0.46203189864E+02  0.00000000000E+00 0.  1.
          5    1    3    3  502    0 -0.43581560503E+02  0.29592514999E+02 -0.17135795768E+02  0.55594917541E+02  0.47000000000E+01 0. -1.
         13    1    6    6    0    0 -0.20574707486E+02 -0.27263744176E+02  0.22239459543E+03  0.22500219201E+03  0.00000000000E+00 0. -1.
        -14    1    6    6    0    0  0.22851862408E+01  0.37042920406E+02  0.81122759561E+02  0.89209316482E+02  0.00000000000E+00 0.  1.
         -5    1    5    5    0  503  0.49633403021E+02  0.20332462762E+02  0.21615260216E+02  0.58018903916E+02  0.47000000000E+01 0.  1.
<mgrwt>
<rscale>  2 0.18206985E+03</rscale>
<asrwt>0</asrwt>
<pdfrwt beam="1">  1       21 0.77199585E-01 0.18235071E+03</pdfrwt>
<pdfrwt beam="2">  1       21 0.11975505E-01 0.18235071E+03</pdfrwt>
<totfact> 0.88142551E+04</totfact>
</mgrwt>
</event>
<event>
12    1  0.2762290E-001  0.1745311E+03  0.7546771E-02  0.1177107E+00
         21   -1    0    0  504  503  0.00000000000E+00  0.00000000000E+00  0.55740639403E+03  0.55740639403E+03  0.00000000000E+00 0.  1.
         21   -1    0    0  502  504 -0.00000000000E+00 -0.00000000000E+00 -0.50277932403E+02  0.50277932403E+02  0.00000000000E+00 0.  1.
          6    2    1    2  502    0  0.26647117964E+02 -0.10048250818E+02  0.22523486018E+03  0.27613475795E+03  0.15718977724E+03 0.  0.
         24    2    3    3    0    0  0.44000103982E+02 -0.54563702536E+02  0.12145165362E+03  0.16178531314E+03  0.80689383407E+02 0.  0.
         -6    2    1    2    0  503 -0.26647117964E+02  0.10048250818E+02  0.28189360145E+03  0.33154956849E+03  0.17219197886E+03 0.  0.
        -24    2    5    5    0    0 -0.12667967158E+00 -0.57277873277E+02  0.19240272751E+03  0.21636776805E+03  0.80718217789E+02 0.  0.
          4    1    4    4  501    0  0.14850517959E+02 -0.52883714877E+02  0.23803110514E+02  0.59864958473E+02  0.00000000000E+00 0. -1.
         -3    1    4    4    0  501  0.29149586024E+02 -0.16799876590E+01  0.97648543105E+02  0.10192035466E+03  0.00000000000E+00 0.  1.
          5    1    3    3  502    0 -0.17352986018E+02  0.44515451719E+02  0.10378320656E+03  0.11434944481E+03  0.47000000000E+01 0. -1.
         11    1    6    6    0    0 -0.13623427963E+02  0.47472247313E+01  0.11663712866E+03  0.11752597038E+03  0.00000000000E+00 0. -1.
        -12    1    6    6    0    0  0.13496748292E+02 -0.62025098009E+02  0.75765598852E+02  0.98841797671E+02  0.00000000000E+00 0.  1.
         -5    1    5    5    0  503 -0.26520438293E+02  0.67326124095E+02  0.89490873940E+02  0.11518180043E+03  0.47000000000E+01 0.  1.
<mgrwt>
<rscale>  2 0.17071199E+03</rscale>
<asrwt>0</asrwt>
<pdfrwt beam="1">  1       21 0.85754826E-01 0.17453113E+03</pdfrwt>
<pdfrwt beam="2">  1       21 0.77350669E-02 0.17453113E+03</pdfrwt>
<totfact> 0.15036220E+05</totfact>
</mgrwt>
</event>
<event>
12    1  0.2762290E-001  0.1735626E+03  0.7546771E-02  0.1174358E+00
         21   -1    0    0  504  503  0.00000000000E+00  0.00000000000E+00  0.42378401019E+03  0.42378401019E+03  0.00000000000E+00 0. -1.
         21   -1    0    0  502  504 -0.00000000000E+00 -0.00000000000E+00 -0.75115244472E+02  0.75115244472E+02  0.00000000000E+00 0. -1.
          6    2    1    2  502    0 -0.10576571690E+01 -0.31352984716E+01  0.23444611450E+03  0.29170010611E+03  0.17353104207E+03 0.  0.
         24    2    3    3    0    0 -0.24642546164E+02  0.41541761527E+02  0.21914645599E+03  0.23870523627E+03  0.81375964596E+02 0.  0.
         -6    2    1    2    0  503  0.10576571690E+01  0.31352984716E+01  0.11422265122E+03  0.20719914856E+03  0.17284017003E+03 0.  0.
        -24    2    5    5    0    0  0.29783629035E+02 -0.26371993729E+02  0.13406604628E+03  0.16124578002E+03  0.80274218751E+02 0.  0.
          2    1    4    4  501    0 -0.45156923709E+02  0.23667695599E+02  0.19738895058E+03  0.20386688153E+03  0.00000000000E+00 0. -1.
         -1    1    4    4    0  501  0.20514377546E+02  0.17874065928E+02  0.21757505415E+02  0.34838354737E+02  0.00000000000E+00 0.  1.
          5    1    3    3  502    0  0.23584888995E+02 -0.44677059999E+02  0.15299658511E+02  0.52994869842E+02  0.47000000000E+01 0. -1.
         11    1    6    6    0    0  0.57580014358E+02 -0.15890700211E+02  0.93874388144E+02  0.11126712523E+03  0.00000000000E+00 0. -1.
        -12    1    6    6    0    0 -0.27796385324E+02 -0.10481293517E+02  0.40191658136E+02  0.49978654789E+02  0.00000000000E+00 0.  1.
         -5    1    5    5    0  503 -0.28725971866E+02  0.29507292200E+02 -0.19843395063E+02  0.45953368541E+02  0.47000000000E+01 0.  1.
<mgrwt>
<rscale>  2 0.17338964E+03</rscale>
<asrwt>0</asrwt>
<pdfrwt beam="1">  1       21 0.65197539E-01 0.17356259E+03</pdfrwt>
<pdfrwt beam="2">  1       21 0.11556192E-01 0.17356259E+03</pdfrwt>
<totfact> 0.13681278E+05</totfact>
</mgrwt>
</event>
<event>
12    1  0.2762290E-001  0.1947509E+03  0.7546771E-02  0.1154560E+00
         21   -1    0    0  504  503  0.00000000000E+00  0.00000000000E+00  0.15236059921E+04  0.15236059921E+04  0.00000000000E+00 0. -1.
         21   -1    0    0  502  504 -0.00000000000E+00 -0.00000000000E+00 -0.43400548954E+02  0.43400548954E+02  0.00000000000E+00 0. -1.
          6    2    1    2  502    0  0.68727177428E+02 -0.51277939844E+02  0.22438335637E+03  0.29617333720E+03  0.17325675463E+03 0.  0.
         24    2    3    3    0    0  0.89940805864E+02 -0.49108519886E+02  0.83137125719E+02  0.15324918918E+03  0.77926484765E+02 0.  0.
         -6    2    1    2    0  503 -0.68727177428E+02  0.51277939844E+02  0.12558220868E+04  0.12708332038E+04  0.17485727419E+03 0.  0.
        -24    2    5    5    0    0 -0.10767325528E+03  0.25592466490E+02  0.10893600747E+04  0.10978932375E+04  0.80097966201E+02 0.  0.
          2    1    4    4  501    0  0.64609810269E+02 -0.54846965488E+02  0.23111123482E+02  0.87844984118E+02  0.00000000000E+00 0. -1.
         -1    1    4    4    0  501  0.25330995595E+02  0.57384456011E+01  0.60026002237E+02  0.65404205066E+02  0.00000000000E+00 0.  1.
          5    1    3    3  502    0 -0.21213628436E+02 -0.21694199573E+01  0.14124623065E+03  0.14292414802E+03  0.47000000000E+01 0. -1.
         11    1    6    6    0    0 -0.54041369633E+02  0.42897500430E+02  0.80827212297E+03  0.81121174174E+03  0.00000000000E+00 0. -1.
        -12    1    6    6    0    0 -0.53631885647E+02 -0.17305033941E+02  0.28108795178E+03  0.28668149573E+03  0.00000000000E+00 0.  1.
         -5    1    5    5    0  503  0.38946077852E+02  0.25685473354E+02  0.16646201202E+03  0.17293996637E+03  0.47000000000E+01 0.  1.
<mgrwt>
<rscale>  2 0.19439098E+03</rscale>
<asrwt>0</asrwt>
<pdfrwt beam="1">  1       21 0.23440088E+00 0.19475091E+03</pdfrwt>
<pdfrwt beam="2">  1       21 0.66770087E-02 0.19475091E+03</pdfrwt>
<totfact> 0.13478309E+04</totfact>
</mgrwt>
</event>
<event>
12    1  0.2762290E-001  0.2089741E+03  0.7546771E-02  0.1142864E+00
         21   -1    0    0  504  503  0.00000000000E+00  0.00000000000E+00  0.60883980913E+02  0.60883980913E+02  0.00000000000E+00 0.  1.
         21   -1    0    0  502  504 -0.00000000000E+00 -0.00000000000E+00 -0.98004941333E+03  0.98004941333E+03  0.00000000000E+00 0.  1.
          6    2    1    2  502    0  0.41904615050E+02  0.10520666274E+03 -0.18395809360E+03  0.27660363030E+03  0.17275575084E+03 0.  0.
         24    2    3    3    0    0  0.22758074366E+02  0.12146413966E+03 -0.19843972591E+03  0.24723181983E+03  0.80459808251E+02 0.  0.
         -6    2    1    2    0  503 -0.41904615050E+02 -0.10520666274E+03 -0.73520733882E+03  0.76432976395E+03  0.17562949170E+03 0.  0.
        -24    2    5    5    0    0  0.23989158305E+02 -0.49609888476E+02 -0.56651603464E+03  0.57482557724E+03  0.80295740803E+02 0.  0.
          2    1    4    4  501    0  0.43212529440E+02  0.65154179412E+02 -0.15376266515E+03  0.17249738256E+03  0.00000000000E+00 0. -1.
         -1    1    4    4    0  501 -0.20454455075E+02  0.56309960251E+02 -0.44677060757E+02  0.74734437267E+02  0.00000000000E+00 0.  1.
          5    1    3    3  502    0  0.19146540684E+02 -0.16257476926E+02  0.14481632306E+02  0.29371810472E+02  0.47000000000E+01 0. -1.
         13    1    6    6    0    0  0.20539306098E+02 -0.21843409249E+01 -0.42563999726E+03  0.42614087074E+03  0.00000000000E+00 0. -1.
        -14    1    6    6    0    0  0.34498522066E+01 -0.47425547551E+02 -0.14087603738E+03  0.14868470651E+03  0.00000000000E+00 0.  1.
         -5    1    5    5    0  503 -0.65893773355E+02 -0.55596774260E+02 -0.16869130418E+03  0.18950418671E+03  0.47000000000E+01 0.  1.
<mgrwt>
<rscale>  2 0.20836910E+03</rscale>
<asrwt>0</asrwt>
<pdfrwt beam="1">  1       21 0.93667665E-02 0.20897406E+03</pdfrwt>
<pdfrwt beam="2">  1       21 0.15077683E+00 0.20897406E+03</pdfrwt>
<totfact> 0.26573972E+04</totfact>
</mgrwt>
</event>
<event>
12    1  0.2762290E-001  0.2525817E+03  0.7546771E-02  0.1111950E+00
         21   -1    0    0  504  503  0.00000000000E+00  0.00000000000E+00  0.59215581346E+03  0.59215581346E+03  0.00000000000E+00 0.  1.
         21   -1    0    0  502  504 -0.00000000000E+00 -0.00000000000E+00 -0.36308405972E+03  0.36308405972E+03  0.00000000000E+00 0. -1.
          6    2    1    2  502    0  0.15655143468E+03  0.96405042026E+02 -0.28668320250E+03  0.38095711355E+03  0.17070084925E+03 0.  0.
         24    2    3    3    0    0  0.33194880096E+02  0.18283551061E+02 -0.17578079732E+03  0.19754162787E+03  0.81777856004E+02 0.  0.
         -6    2    1    2    0  503 -0.15655143468E+03 -0.96405042026E+02  0.51575495624E+03  0.57428275963E+03  0.17319130837E+03 0.  0.
        -24    2    5    5    0    0 -0.84627054778E+02 -0.57865110147E+01  0.15450626140E+03  0.19493128130E+03  0.83251411449E+02 0.  0.
          4    1    4    4  501    0 -0.15389107586E+01  0.28809979662E+02 -0.15067097370E+03  0.15340836187E+03  0.00000000000E+00 0. -1.
         -3    1    4    4    0  501  0.34733790855E+02 -0.10526428601E+02 -0.25109823617E+02  0.44133266006E+02  0.00000000000E+00 0.  1.
          5    1    3    3  502    0  0.12335655459E+03  0.78121490966E+02 -0.11090240519E+03  0.18341548568E+03  0.47000000000E+01 0. -1.
         13    1    6    6    0    0  0.11733545432E+02 -0.16107087993E+02  0.41672543263E+02  0.46192155546E+02  0.00000000000E+00 0. -1.
        -14    1    6    6    0    0 -0.96360600210E+02  0.10320576978E+02  0.11283371813E+03  0.14873912575E+03  0.00000000000E+00 0.  1.
         -5    1    5    5    0  503 -0.71924379904E+02 -0.90618531012E+02  0.36124869484E+03  0.37935147833E+03  0.47000000000E+01 0.  1.
<mgrwt>
<rscale>  2 0.25215534E+03</rscale>
<asrwt>0</asrwt>
<pdfrwt beam="1">  1       21 0.91100894E-01 0.25258170E+03</pdfrwt>
<pdfrwt beam="2">  1       21 0.55859086E-01 0.25258170E+03</pdfrwt>
<totfact> 0.29451332E+03</totfact>
</mgrwt>
</event>
<event>
12    1  0.2762290E-001  0.2071810E+03  0.7546771E-02  0.1144022E+00
         21   -1    0    0  504  503  0.00000000000E+00  0.00000000000E+00  0.20344390349E+03  0.20344390349E+03  0.00000000000E+00 0. -1.
         21   -1    0    0  502  504 -0.00000000000E+00 -0.00000000000E+00 -0.27372003375E+03  0.27372003375E+03  0.00000000000E+00 0. -1.
          6    2    1    2  502    0  0.10736622782E+03  0.35154425453E+02 -0.15022134782E+03  0.25509364162E+03  0.17246150919E+03 0.  0.
         24    2    3    3    0    0  0.76432404301E+02 -0.12960239171E+02 -0.19826399762E+02  0.11262661082E+03  0.79257725868E+02 0.  0.
         -6    2    1    2    0  503 -0.10736622782E+03 -0.35154425453E+02  0.79945217548E+02  0.22207029561E+03  0.17366818327E+03 0.  0.
        -24    2    5    5    0    0 -0.77217896467E+02 -0.68424606134E+02  0.24634099410E+00  0.13047429281E+03  0.79868330026E+02 0.  0.
          2    1    4    4  501    0  0.65965181570E+02  0.60307932789E+01  0.18338125316E+02  0.68731815685E+02  0.00000000000E+00 0. -1.
         -1    1    4    4    0  501  0.10467222731E+02 -0.18991032450E+02 -0.38164525078E+02  0.43894795132E+02  0.00000000000E+00 0.  1.
          5    1    3    3  502    0  0.30933823517E+02  0.48114664625E+02 -0.13039494805E+03  0.14246703081E+03  0.47000000000E+01 0. -1.
         13    1    6    6    0    0 -0.74643608638E+02 -0.25314841834E+02 -0.22085828855E+02  0.81855319704E+02  0.00000000000E+00 0. -1.
        -14    1    6    6    0    0 -0.25742878286E+01 -0.43109764299E+02  0.22332169849E+02  0.48618973106E+02  0.00000000000E+00 0.  1.
         -5    1    5    5    0  503 -0.30148331352E+02  0.33270180680E+02  0.79698876554E+02  0.91596002805E+02  0.47000000000E+01 0.  1.
<mgrwt>
<rscale>  2 0.20692796E+03</rscale>
<asrwt>0</asrwt>
<pdfrwt beam="1">  1       21 0.31299062E-01 0.20718103E+03</pdfrwt>
<pdfrwt beam="2">  1       21 0.42110774E-01 0.20718103E+03</pdfrwt>
<totfact> 0.52866602E+04</totfact>
</mgrwt>
</event>
<event>
12    1  0.2762290E-001  0.1826723E+03  0.7546771E-02  0.1165422E+00
         21   -1    0    0  504  503  0.00000000000E+00  0.00000000000E+00  0.61097643722E+02  0.61097643722E+02  0.00000000000E+00 0.  1.
         21   -1    0    0  502  504 -0.00000000000E+00 -0.00000000000E+00 -0.81881232224E+03  0.81881232224E+03  0.00000000000E+00 0.  1.
          6    2    1    2  502    0 -0.67776336129E+01  0.58016442746E+02 -0.63430826083E+03  0.66008798638E+03  0.17308187675E+03 0.  0.
         24    2    3    3    0    0  0.51418514803E+02  0.43361659169E+01 -0.26402802963E+03  0.28140883006E+03  0.82567930867E+02 0.  0.
         -6    2    1    2    0  503  0.67776336129E+01 -0.58016442746E+02 -0.12340641768E+03  0.21982197958E+03  0.17228091837E+03 0.  0.
        -24    2    5    5    0    0  0.43066300732E+02 -0.92325760511E+02 -0.98763457716E+02  0.16393493168E+03  0.82107788500E+02 0.  0.
          4    1    4    4  501    0  0.42492752074E+02 -0.34497111870E+02 -0.18465313471E+03  0.19259404161E+03  0.00000000000E+00 0. -1.
         -3    1    4    4    0  501  0.89257627286E+01  0.38833277787E+02 -0.79374894920E+02  0.88814788450E+02  0.00000000000E+00 0.  1.
          5    1    3    3  502    0 -0.58196148416E+02  0.53680276829E+02 -0.37028023120E+03  0.37867915632E+03  0.47000000000E+01 0. -1.
         11    1    6    6    0    0  0.15107772777E+02  0.10054389840E+02  0.11374352137E+01  0.18183215123E+02  0.00000000000E+00 0. -1.
        -12    1    6    6    0    0  0.27958527956E+02 -0.10238015035E+03 -0.99900892929E+02  0.14575171656E+03  0.00000000000E+00 0.  1.
         -5    1    5    5    0  503 -0.36288667119E+02  0.34309317765E+02 -0.24642959968E+02  0.55887047898E+02  0.47000000000E+01 0.  1.
<mgrwt>
<rscale>  2 0.18248235E+03</rscale>
<asrwt>0</asrwt>
<pdfrwt beam="1">  1       21 0.93996375E-02 0.18267233E+03</pdfrwt>
<pdfrwt beam="2">  1       21 0.12597113E+00 0.18267233E+03</pdfrwt>
<totfact> 0.42574787E+04</totfact>
</mgrwt>
</event>
<event>
12    1  0.2762290E-001  0.2489469E+03  0.7546771E-02  0.1114289E+00
         21   -1    0    0  504  503  0.00000000000E+00  0.00000000000E+00  0.20010119121E+04  0.20010119121E+04  0.00000000000E+00 0.  1.
         21   -1    0    0  502  504 -0.00000000000E+00 -0.00000000000E+00 -0.40518700796E+02  0.40518700796E+02  0.00000000000E+00 0. -1.
          6    2    1    2  502    0  0.16300467879E+03  0.66960492136E+02  0.48138456863E+03  0.54194615758E+03  0.17584169581E+03 0.  0.
         24    2    3    3    0    0  0.41276889816E+02 -0.16058583895E+02  0.12685965833E+03  0.15799326514E+03  0.83107395382E+02 0.  0.
         -6    2    1    2    0  503 -0.16300467879E+03 -0.66960492136E+02  0.14791086426E+04  0.14995844553E+04  0.17302291460E+03 0.  0.
        -24    2    5    5    0    0 -0.17989137586E+03 -0.43078031270E+02  0.10322513512E+04  0.10517462464E+04  0.80066789322E+02 0.  0.
          2    1    4    4  501    0  0.26820770218E+02 -0.22006828986E+02  0.49025384475E+01  0.35038394946E+02  0.00000000000E+00 0. -1.
         -1    1    4    4    0  501  0.14456119598E+02  0.59482450915E+01  0.12195711988E+03  0.12295487019E+03  0.00000000000E+00 0.  1.
          5    1    3    3  502    0  0.12172778898E+03  0.83019076031E+02  0.35452491030E+03  0.38395289245E+03  0.47000000000E+01 0. -1.
         11    1    6    6    0    0  0.24174771055E+01  0.30951423772E+01  0.13212448703E+03  0.13218284372E+03  0.00000000000E+00 0. -1.
        -12    1    6    6    0    0 -0.18230885296E+03 -0.46173173647E+02  0.90012686420E+03  0.91956340264E+03  0.00000000000E+00 0.  1.
         -5    1    5    5    0  503  0.16886697064E+02 -0.23882460867E+02  0.44685729143E+03  0.44783820893E+03  0.47000000000E+01 0.  1.
<mgrwt>
<rscale>  2 0.24844962E+03</rscale>
<asrwt>0</asrwt>
<pdfrwt beam="1">  1       21 0.30784791E+00 0.24894685E+03</pdfrwt>
<pdfrwt beam="2">  1       21 0.62336479E-02 0.24894685E+03</pdfrwt>
<totfact> 0.53601102E+03</totfact>
</mgrwt>
</event>
<event>
12    1  0.2762290E-001  0.2468752E+03  0.7546771E-02  0.1115519E+00
         21   -1    0    0  504  503  0.00000000000E+00  0.00000000000E+00  0.27801051862E+03  0.27801051862E+03  0.00000000000E+00 0.  1.
         21   -1    0    0  502  504 -0.00000000000E+00 -0.00000000000E+00 -0.28750226267E+03  0.28750226267E+03  0.00000000000E+00 0.  1.
          6    2    1    2  502    0  0.10983041257E+02 -0.17380570105E+03 -0.14378278394E+03  0.28569360121E+03  0.17498084439E+03 0.  0.
         24    2    3    3    0    0 -0.12387788622E+02 -0.19650046890E+03 -0.13334231866E+03  0.25116330304E+03  0.80851340524E+02 0.  0.
         -6    2    1    2    0  503 -0.10983041257E+02  0.17380570105E+03  0.13429103989E+03  0.27981918009E+03  0.17301919326E+03 0.  0.
        -24    2    5    5    0    0  0.79339166044E+01  0.17472705224E+03  0.15696213899E+03  0.24990649186E+03  0.84992068939E+02 0.  0.
          2    1    4    4  501    0 -0.38973492266E+01 -0.28453461721E+02 -0.62142389886E+02  0.68457763881E+02  0.00000000000E+00 0. -1.
         -1    1    4    4    0  501 -0.84904393950E+01 -0.16804700717E+03 -0.71199928777E+02  0.18270553916E+03  0.00000000000E+00 0.  1.
          5    1    3    3  502    0  0.23370829879E+02  0.22694767843E+02 -0.10440465279E+02  0.34530298173E+02  0.47000000000E+01 0. -1.
         11    1    6    6    0    0 -0.13225147960E+02  0.10840971403E+02 -0.57072799941E+01  0.18027874097E+02  0.00000000000E+00 0. -1.
        -12    1    6    6    0    0  0.21159064564E+02  0.16388608084E+03  0.16266941898E+03  0.23187861776E+03  0.00000000000E+00 0.  1.
         -5    1    5    5    0  503 -0.18916957861E+02 -0.92135118722E+00 -0.22671099093E+02  0.29912688224E+02  0.47000000000E+01 0.  1.
<mgrwt>
<rscale>  2 0.24652781E+03</rscale>
<asrwt>0</asrwt>
<pdfrwt beam="1">  1       21 0.42770849E-01 0.24687516E+03</pdfrwt>
<pdfrwt beam="2">  1       21 0.44231117E-01 0.24687516E+03</pdfrwt>
<totfact> 0.25089729E+04</totfact>
</mgrwt>
</event>
<event>
12    1  0.2762290E-001  0.1867470E+03  0.7546771E-02  0.1161462E+00
         21   -1    0    0  504  503  0.00000000000E+00  0.00000000000E+00  0.23175809162E+03  0.23175809162E+03  0.00000000000E+00 0. -1.
         21   -1    0    0  502  504 -0.00000000000E+00 -0.00000000000E+00 -0.15407816042E+03  0.15407816042E+03  0.00000000000E+00 0. -1.
          6    2    1    2  502    0 -0.60535936613E+02 -0.39287452620E+02  0.88826072887E+01  0.18695815354E+03  0.17223921420E+03 0.  0.
         24    2    3    3    0    0 -0.59209254133E+02 -0.71946873946E+02  0.61710143064E+02  0.12465858353E+03  0.55222570061E+02 0.  0.
         -6    2    1    2    0  503  0.60535936613E+02  0.39287452620E+02  0.68797323911E+02  0.19887809850E+03  0.17207940821E+03 0.  0.
        -24    2    5    5    0    0  0.48895895024E+02 -0.14305513183E+01 -0.23949925473E+02  0.96811509050E+02  0.80037580717E+02 0.  0.
          4    1    4    4  501    0  0.65296065597E+01 -0.10072284949E+02  0.23974355277E+02  0.26811497475E+02  0.00000000000E+00 0. -1.
         -3    1    4    4    0  501 -0.65738860693E+02 -0.61874588997E+02  0.37735787787E+02  0.97847086051E+02  0.00000000000E+00 0.  1.
          5    1    3    3  502    0 -0.13266824798E+01  0.32659421326E+02 -0.52827535776E+02  0.62299570014E+02  0.47000000000E+01 0. -1.
         11    1    6    6    0    0 -0.13991142479E+02  0.20152630622E+02 -0.17242373037E+02  0.29986330499E+02  0.00000000000E+00 0. -1.
        -12    1    6    6    0    0  0.62887037503E+02 -0.21583181941E+02 -0.67075524353E+01  0.66825178550E+02  0.00000000000E+00 0.  1.
         -5    1    5    5    0  503  0.11640041589E+02  0.40718003938E+02  0.92747249383E+02  0.10206658945E+03  0.47000000000E+01 0.  1.
<mgrwt>
<rscale>  2 0.18671017E+03</rscale>
<asrwt>0</asrwt>
<pdfrwt beam="1">  1       21 0.35655091E-01 0.18674702E+03</pdfrwt>
<pdfrwt beam="2">  1       21 0.23704332E-01 0.18674702E+03</pdfrwt>
<totfact> 0.12739149E+05</totfact>
</mgrwt>
</event>
<event>
12    1  0.2762290E-001  0.2504754E+03  0.7546771E-02  0.1113172E+00
         21   -1    0    0  504  503  0.00000000000E+00  0.00000000000E+00  0.45788848553E+03  0.45788848553E+03  0.00000000000E+00 0.  1.
         21   -1    0    0  502  504 -0.00000000000E+00 -0.00000000000E+00 -0.17381369333E+03  0.17381369333E+03  0.00000000000E+00 0.  1.
          6    2    1    2  502    0  0.86559695340E+02 -0.15781100362E+03  0.28827006992E+03  0.38119164465E+03  0.17265729934E+03 0.  0.
         24    2    3    3    0    0  0.44792819170E+02 -0.17959000600E+03  0.23008660979E+03  0.30618363227E+03  0.80929609879E+02 0.  0.
         -6    2    1    2    0  503 -0.86559695340E+02  0.15781100362E+03 -0.41952777175E+01  0.25051053421E+03  0.17418677813E+03 0.  0.
        -24    2    5    5    0    0 -0.21261513753E+02  0.39248080809E+02  0.49113547407E+02  0.10496006179E+03  0.81314268236E+02 0.  0.
          2    1    4    4  501    0  0.24753660460E+02 -0.15602019757E+03  0.14052480975E+03  0.21142910847E+03  0.00000000000E+00 0. -1.
         -1    1    4    4    0  501  0.20039158710E+02 -0.23569808435E+02  0.89561800046E+02  0.94754523791E+02  0.00000000000E+00 0.  1.
          5    1    3    3  502    0  0.41766876170E+02  0.21779002379E+02  0.58183460123E+02  0.75008012382E+02  0.47000000000E+01 0. -1.
         13    1    6    6    0    0 -0.43654011736E+02 -0.34301799693E+01  0.16634635327E+02  0.46841754533E+02  0.00000000000E+00 0. -1.
        -14    1    6    6    0    0  0.22392497984E+02  0.42678260778E+02  0.32478912080E+02  0.58118307261E+02  0.00000000000E+00 0.  1.
         -5    1    5    5    0  503 -0.65298181588E+02  0.11856292281E+03 -0.53308825124E+02  0.14555047242E+03  0.47000000000E+01 0.  1.
<mgrwt>
<rscale>  2 0.25020968E+03</rscale>
<asrwt>0</asrwt>
<pdfrwt beam="1">  1       21 0.70444382E-01 0.25047540E+03</pdfrwt>
<pdfrwt beam="2">  1       21 0.26740568E-01 0.25047540E+03</pdfrwt>
<totfact> 0.23593073E+04</totfact>
</mgrwt>
</event>
<event>
12    1  0.2762290E-001  0.2512848E+03  0.7546771E-02  0.1112552E+00
         21   -1    0    0  504  503  0.00000000000E+00  0.00000000000E+00  0.12647325254E+04  0.12647325254E+04  0.00000000000E+00 0.  1.
         21   -1    0    0  502  504 -0.00000000000E+00 -0.00000000000E+00 -0.53858543214E+02  0.53858543214E+02  0.00000000000E+00 0. -1.
          6    2    1    2  502    0 -0.16334019796E+03  0.80409981469E+02  0.42610471563E+03  0.49468097436E+03  0.17320003557E+03 0.  0.
         24    2    3    3    0    0 -0.76511487699E+02  0.95711439741E+02  0.17116844273E+03  0.22488854898E+03  0.79129869387E+02 0.  0.
         -6    2    1    2    0  503  0.16334019796E+03 -0.80409981469E+02  0.78476926656E+03  0.82391009427E+03  0.17268253039E+03 0.  0.
        -24    2    5    5    0    0  0.67874010806E+02 -0.88997167071E+02  0.30482684401E+03  0.33446719502E+03  0.80134403546E+02 0.  0.
          4    1    4    4  501    0 -0.65456256247E+02  0.50913584776E+02  0.53990130087E+02  0.98952760161E+02  0.00000000000E+00 0. -1.
         -3    1    4    4    0  501 -0.11055231451E+02  0.44797854966E+02  0.11717831265E+03  0.12593578882E+03  0.00000000000E+00 0.  1.
          5    1    3    3  502    0 -0.86828710258E+02 -0.15301458272E+02  0.25493627290E+03  0.26979242538E+03  0.47000000000E+01 0. -1.
         13    1    6    6    0    0  0.29836080097E+02  0.74602958772E+01  0.43079049885E+02  0.52930636016E+02  0.00000000000E+00 0. -1.
        -14    1    6    6    0    0  0.38037930709E+02 -0.96457462948E+02  0.26174779412E+03  0.28153655901E+03  0.00000000000E+00 0.  1.
         -5    1    5    5    0  503  0.95466187151E+02  0.85871856019E+01  0.47994242256E+03  0.48944289924E+03  0.47000000000E+01 0.  1.
<mgrwt>
<rscale>  2 0.25119562E+03</rscale>
<asrwt>0</asrwt>
<pdfrwt beam="1">  1       21 0.19457421E+00 0.25128477E+03</pdfrwt>
<pdfrwt beam="2">  1       21 0.82859307E-02 0.25128477E+03</pdfrwt>
<totfact> 0.15771915E+04</totfact>
</mgrwt>
</event>
<event>
12    1  0.2762290E-001  0.2123771E+03  0.7546771E-02  0.1140231E+00
         21   -1    0    0  504  503  0.00000000000E+00  0.00000000000E+00  0.10884633590E+04  0.10884633590E+04  0.00000000000E+00 0. -1.
         21   -1    0    0  502  504 -0.00000000000E+00 -0.00000000000E+00 -0.64278780085E+02  0.64278780085E+02  0.00000000000E+00 0. -1.
          6    2    1    2  502    0 -0.10979325396E+03  0.48830020497E+02  0.16667032026E+03  0.26996854335E+03  0.17511450319E+03 0.  0.
         24    2    3    3    0    0 -0.11516713069E+03  0.57829518824E+02  0.18996923865E+03  0.24399164747E+03  0.82679448230E+02 0.  0.
         -6    2    1    2    0  503  0.10979325396E+03 -0.48830020497E+02  0.85751425867E+03  0.88277359575E+03  0.17181265381E+03 0.  0.
        -24    2    5    5    0    0  0.99028862923E+02 -0.59747381191E+02  0.85488088379E+03  0.86652288677E+03  0.81634077367E+02 0.  0.
          2    1    4    4  501    0 -0.12464040800E+03  0.38301526835E+02  0.17184474935E+03  0.21571475643E+03  0.00000000000E+00 0. -1.
         -1    1    4    4    0  501  0.94732773052E+01  0.19527991989E+02  0.18124489305E+02  0.28276891035E+02  0.00000000000E+00 0.  1.
          5    1    3    3  502    0  0.53738767350E+01 -0.89994983268E+01 -0.23298918396E+02  0.25976895883E+02  0.47000000000E+01 0. -1.
         11    1    6    6    0    0  0.20139659017E+02 -0.55392656404E+02  0.46469817306E+03  0.46842111854E+03  0.00000000000E+00 0. -1.
        -12    1    6    6    0    0  0.78889203906E+02 -0.43547247871E+01  0.39018271072E+03  0.39810176823E+03  0.00000000000E+00 0.  1.
         -5    1    5    5    0  503  0.10764391037E+02  0.10917360693E+02  0.26333748851E+01  0.16250708975E+02  0.47000000000E+01 0.  1.
<mgrwt>
<rscale>  2 0.21169524E+03</rscale>
<asrwt>0</asrwt>
<pdfrwt beam="1">  1       21 0.16745589E+00 0.21237707E+03</pdfrwt>
<pdfrwt beam="2">  1       21 0.98890439E-02 0.21237707E+03</pdfrwt>
<totfact> 0.18153369E+04</totfact>
</mgrwt>
</event>
<event>
12    1  0.2762290E-001  0.2182845E+03  0.7546771E-02  0.1135369E+00
         21   -1    0    0  504  503  0.00000000000E+00  0.00000000000E+00  0.16535007978E+02  0.16535007978E+02  0.00000000000E+00 0. -1.
         21   -1    0    0  502  504 -0.00000000000E+00 -0.00000000000E+00 -0.31360060071E+04  0.31360060071E+04  0.00000000000E+00 0.  1.
          6    2    1    2  502    0  0.34843322628E+02 -0.12796897824E+03 -0.20243312767E+04  0.20360661178E+04  0.17337243641E+03 0.  0.
         24    2    3    3    0    0  0.99883476649E+01  0.40999374435E+01 -0.93521786475E+03  0.93868282908E+03  0.79852504588E+02 0.  0.
         -6    2    1    2    0  503 -0.34843322628E+02  0.12796897824E+03 -0.10951397224E+04  0.11164748972E+04  0.17203217170E+03 0.  0.
        -24    2    5    5    0    0  0.63020561393E+01  0.13806118065E+03 -0.99278237023E+03  0.10055969811E+04  0.80671235761E+02 0.  0.
          2    1    4    4  501    0 -0.23043890528E+02 -0.76388361057E+01 -0.10683838142E+03  0.10956191150E+03  0.00000000000E+00 0. -1.
         -1    1    4    4    0  501  0.33032238193E+02  0.11738773549E+02 -0.82837948333E+03  0.82912091758E+03  0.00000000000E+00 0.  1.
          5    1    3    3  502    0  0.24854974963E+02 -0.13206891568E+03 -0.10891134120E+04  0.10973832888E+04  0.47000000000E+01 0. -1.
         11    1    6    6    0    0  0.27944815287E+02  0.67336358797E+02 -0.69304747911E+03  0.69687151342E+03  0.00000000000E+00 0. -1.
        -12    1    6    6    0    0 -0.21642759148E+02  0.70724821850E+02 -0.29973489112E+03  0.30872546770E+03  0.00000000000E+00 0.  1.
         -5    1    5    5    0  503 -0.41145378767E+02 -0.10092202407E+02 -0.10235735212E+03  0.11087791609E+03  0.47000000000E+01 0.  1.
<mgrwt>
<rscale>  2 0.21801826E+03</rscale>
<asrwt>0</asrwt>
<pdfrwt beam="1">  1       21 0.25438454E-02 0.21828449E+03</pdfrwt>
<pdfrwt beam="2">  1       21 0.48246285E+00 0.21828449E+03</pdfrwt>
<totfact> 0.20089713E+03</totfact>
</mgrwt>
</event>
<event>
12    1  0.2762290E-001  0.1940881E+03  0.7546771E-02  0.1155784E+00
         21   -1    0    0  504  503  0.00000000000E+00  0.00000000000E+00  0.10565781817E+04  0.10565781817E+04  0.00000000000E+00 0. -1.
         21   -1    0    0  502  504 -0.00000000000E+00 -0.00000000000E+00 -0.67887391553E+02  0.67887391553E+02  0.00000000000E+00 0. -1.
          6    2    1    2  502    0 -0.73832323218E+02  0.25227766424E+02  0.99365373122E+02  0.21420741928E+03  0.17298464946E+03 0.  0.
         24    2    3    3    0    0 -0.15926109755E+02 -0.42456231818E+02  0.17053593494E+02  0.92833730858E+02  0.79190302069E+02 0.  0.
         -6    2    1    2    0  503  0.73832323218E+02 -0.25227766424E+02  0.88932541707E+03  0.91025815402E+03  0.17771482032E+03 0.  0.
        -24    2    5    5    0    0  0.66867327130E+02 -0.80929318980E+02  0.50783897651E+03  0.52463506282E+03  0.79503012385E+02 0.  0.
          2    1    4    4  501    0  0.30353472965E+02 -0.16355670600E+02  0.19561922838E+02  0.39642276763E+02  0.00000000000E+00 0. -1.
         -1    1    4    4    0  501 -0.46279582720E+02 -0.26100561218E+02 -0.25083293442E+01  0.53191454095E+02  0.00000000000E+00 0.  1.
          5    1    3    3  502    0 -0.57906213463E+02  0.67683998242E+02  0.82311779628E+02  0.12137368842E+03  0.47000000000E+01 0. -1.
         13    1    6    6    0    0  0.17539386143E+02 -0.23202734394E+02  0.32980134129E+03  0.33108144264E+03  0.00000000000E+00 0. -1.
        -14    1    6    6    0    0  0.49327940987E+02 -0.57726584587E+02  0.17803763522E+03  0.19355362018E+03  0.00000000000E+00 0.  1.
         -5    1    5    5    0  503  0.69649960882E+01  0.55701552557E+02  0.38148644057E+03  0.38562309120E+03  0.47000000000E+01 0.  1.
<mgrwt>
<rscale>  2 0.19299861E+03</rscale>
<asrwt>0</asrwt>
<pdfrwt beam="1">  1       21 0.16255048E+00 0.19408815E+03</pdfrwt>
<pdfrwt beam="2">  1       21 0.10444215E-01 0.19408815E+03</pdfrwt>
<totfact> 0.18102686E+04</totfact>
</mgrwt>
</event>
<event>
12    1  0.2762290E-001  0.1830426E+03  0.7546771E-02  0.1164907E+00
         21   -1    0    0  504  503  0.00000000000E+00  0.00000000000E+00  0.92238024019E+03  0.92238024019E+03  0.00000000000E+00 0. -1.
         21   -1    0    0  502  504 -0.00000000000E+00 -0.00000000000E+00 -0.39594745086E+02  0.39594745086E+02  0.00000000000E+00 0. -1.
          6    2    1    2  502    0 -0.21481588448E+02 -0.54697127134E+02  0.30294155885E+03  0.35394656286E+03  0.17335324317E+03 0.  0.
         24    2    3    3    0    0  0.15927295664E+02 -0.19972010372E+02  0.60420289144E+02  0.10606773236E+03  0.83349820415E+02 0.  0.
         -6    2    1    2    0  503  0.21481588448E+02  0.54697127134E+02  0.57984393625E+03  0.60802842242E+03  0.17328109448E+03 0.  0.
        -24    2    5    5    0    0 -0.42687298920E+02  0.63106880720E+02  0.28053526983E+03  0.30176687104E+03  0.80984708144E+02 0.  0.
          4    1    4    4  501    0  0.13187166699E+02 -0.52369450860E+02  0.43909974530E+02  0.69602777330E+02  0.00000000000E+00 0. -1.
         -3    1    4    4    0  501  0.27401289654E+01  0.32397440488E+02  0.16510314614E+02  0.36464955033E+02  0.00000000000E+00 0.  1.
          5    1    3    3  502    0 -0.37408884113E+02 -0.34725116762E+02  0.24252126971E+03  0.24787883049E+03  0.47000000000E+01 0. -1.
         11    1    6    6    0    0  0.19821437756E+02  0.34130666556E+02  0.13666269178E+03  0.14224796350E+03  0.00000000000E+00 0. -1.
        -12    1    6    6    0    0 -0.62508736675E+02  0.28976214164E+02  0.14387257805E+03  0.15951890754E+03  0.00000000000E+00 0.  1.
         -5    1    5    5    0  503  0.64168887368E+02 -0.84097535863E+01  0.29930866642E+03  0.30626155138E+03  0.47000000000E+01 0.  1.
<mgrwt>
<rscale>  2 0.18302548E+03</rscale>
<asrwt>0</asrwt>
<pdfrwt beam="1">  1       21 0.14190464E+00 0.18304257E+03</pdfrwt>
<pdfrwt beam="2">  1       21 0.60914999E-02 0.18304257E+03</pdfrwt>
<totfact> 0.66714463E+04</totfact>
</mgrwt>
</event>
<event>
12    1  0.2762290E-001  0.1907895E+03  0.7546771E-02  0.1158509E+00
         21   -1    0    0  504  503  0.00000000000E+00  0.00000000000E+00  0.29197415301E+03  0.29197415301E+03  0.00000000000E+00 0.  1.
         21   -1    0    0  502  504 -0.00000000000E+00 -0.00000000000E+00 -0.23872211537E+03  0.23872211537E+03  0.00000000000E+00 0. -1.
          6    2    1    2  502    0 -0.77259197485E+02 -0.57980206257E+01 -0.15840064396E+03  0.24797460355E+03  0.17435033513E+03 0.  0.
         24    2    3    3    0    0 -0.80807391953E+02  0.57543436305E+02 -0.10597330567E+03  0.16554011047E+03  0.79574524833E+02 0.  0.
         -6    2    1    2    0  503  0.77259197485E+02  0.57980206257E+01  0.21165268160E+03  0.28272166483E+03  0.17068122773E+03 0.  0.
        -24    2    5    5    0    0  0.15572315475E+02 -0.37696620076E+02  0.17694440391E+03  0.19951223194E+03  0.82657585523E+02 0.  0.
          2    1    4    4  501    0 -0.69054297485E+02  0.72406421344E+01 -0.85083419978E+02  0.10981853785E+03  0.00000000000E+00 0. -1.
         -1    1    4    4    0  501 -0.11753094468E+02  0.50302794170E+02 -0.20889885692E+02  0.55721572619E+02  0.00000000000E+00 0.  1.
          5    1    3    3  502    0  0.35481944675E+01 -0.63341456931E+02 -0.52427338288E+02  0.82434493084E+02  0.47000000000E+01 0. -1.
         13    1    6    6    0    0  0.36734503204E+02 -0.69977868129E+01  0.30088914855E+02  0.47997245162E+02  0.00000000000E+00 0. -1.
        -14    1    6    6    0    0 -0.21162187729E+02 -0.30698833263E+02  0.14685548905E+03  0.15151498678E+03  0.00000000000E+00 0.  1.
         -5    1    5    5    0  503  0.61686882011E+02  0.43494640701E+02  0.34708277688E+02  0.83209432891E+02  0.47000000000E+01 0.  1.
<mgrwt>
<rscale>  2 0.18994720E+03</rscale>
<asrwt>0</asrwt>
<pdfrwt beam="1">  1       21 0.44919100E-01 0.19078952E+03</pdfrwt>
<pdfrwt beam="2">  1       21 0.36726479E-01 0.19078952E+03</pdfrwt>
<totfact> 0.34041240E+04</totfact>
</mgrwt>
</event>
<event>
12    1  0.2762290E-001  0.2054902E+03  0.7546771E-02  0.1145373E+00
         21   -1    0    0  504  503  0.00000000000E+00  0.00000000000E+00  0.42231283365E+03  0.42231283365E+03  0.00000000000E+00 0.  1.
         21   -1    0    0  502  504 -0.00000000000E+00 -0.00000000000E+00 -0.12551639978E+03  0.12551639978E+03  0.00000000000E+00 0.  1.
          6    2    1    2  502    0  0.57675062652E+02 -0.93150684056E+02  0.24064540068E+02  0.20689443221E+03  0.17384689010E+03 0.  0.
         24    2    3    3    0    0 -0.34698826452E+02 -0.36038379179E+02 -0.11841091869E+01  0.95295440071E+02  0.81098985523E+02 0.  0.
         -6    2    1    2    0  503 -0.57675062652E+02  0.93150684056E+02  0.27273189380E+03  0.34093480122E+03  0.17277265408E+03 0.  0.
        -24    2    5    5    0    0 -0.53425374519E+02 -0.19747618973E+01  0.18023985392E+03  0.20810491845E+03  0.89236101513E+02 0.  0.
          4    1    4    4  501    0 -0.34119559431E+02  0.16122203634E+02 -0.16119759228E+02  0.41035550725E+02  0.00000000000E+00 0. -1.
         -3    1    4    4    0  501 -0.57926702100E+00 -0.52160582813E+02  0.14935650041E+02  0.54259889346E+02  0.00000000000E+00 0.  1.
          5    1    3    3  502    0  0.92373889104E+02 -0.57112304877E+02  0.25248649255E+02  0.11159899214E+03  0.47000000000E+01 0. -1.
         11    1    6    6    0    0 -0.21405614977E+02 -0.29937489233E+02  0.15357527601E+03  0.15792345936E+03  0.00000000000E+00 0. -1.
        -12    1    6    6    0    0 -0.32019759542E+02  0.27962727336E+02  0.26664577913E+02  0.50181459090E+02  0.00000000000E+00 0.  1.
         -5    1    5    5    0  503 -0.42496881327E+01  0.95125445954E+02  0.92492039877E+02  0.13282988277E+03  0.47000000000E+01 0.  1.
<mgrwt>
<rscale>  2 0.20526277E+03</rscale>
<asrwt>0</asrwt>
<pdfrwt beam="1">  1       21 0.64971204E-01 0.20549016E+03</pdfrwt>
<pdfrwt beam="2">  1       21 0.19310216E-01 0.20549016E+03</pdfrwt>
<totfact> 0.53431383E+04</totfact>
</mgrwt>
</event>
<event>
12    1  0.2762290E-001  0.1952139E+03  0.7546771E-02  0.1155639E+00
         21   -1    0    0  504  503  0.00000000000E+00  0.00000000000E+00  0.50892427073E+02  0.50892427073E+02  0.00000000000E+00 0.  1.
         21   -1    0    0  502  504 -0.00000000000E+00 -0.00000000000E+00 -0.98624003439E+03  0.98624003439E+03  0.00000000000E+00 0.  1.
          6    2    1    2  502    0 -0.50226143854E+02 -0.70809367463E+02 -0.73080246090E+03  0.75438316523E+03  0.16578628131E+03 0.  0.
         24    2    3    3    0    0 -0.73148867176E+02 -0.72991804544E+02 -0.36360447226E+03  0.38643389272E+03  0.80276901381E+02 0.  0.
         -6    2    1    2    0  503  0.50226143854E+02  0.70809367463E+02 -0.20454514642E+03  0.28274929624E+03  0.17484797841E+03 0.  0.
        -24    2    5    5    0    0 -0.11259283837E+02  0.12647505462E+02 -0.28273455890E+02  0.87155178507E+02  0.80683988286E+02 0.  0.
          4    1    4    4  501    0 -0.10289610187E+02 -0.66752393089E+02 -0.17876000858E+03  0.19109395262E+03  0.00000000000E+00 0. -1.
         -3    1    4    4    0  501 -0.62859256988E+02 -0.62394114546E+01 -0.18484446368E+03  0.19533994010E+03  0.00000000000E+00 0.  1.
          5    1    3    3  502    0  0.22922723322E+02  0.21824370803E+01 -0.36719798864E+03  0.36794927251E+03  0.47000000000E+01 0. -1.
         13    1    6    6    0    0  0.44360487828E+01  0.18533390204E+02  0.24926599921E+02  0.31376750387E+02  0.00000000000E+00 0. -1.
        -14    1    6    6    0    0 -0.15695332620E+02 -0.58858847416E+01 -0.53200055811E+02  0.55778428120E+02  0.00000000000E+00 0.  1.
         -5    1    5    5    0  503  0.61485427691E+02  0.58161862001E+02 -0.17627169053E+03  0.19559411773E+03  0.47000000000E+01 0.  1.
<mgrwt>
<rscale>  2 0.19316354E+03</rscale>
<asrwt>0</asrwt>
<pdfrwt beam="1">  1       21 0.78296035E-02 0.19521385E+03</pdfrwt>
<pdfrwt beam="2">  1       21 0.15172925E+00 0.19521385E+03</pdfrwt>
<totfact> 0.36073789E+04</totfact>
</mgrwt>
</event>
<event>
12    1  0.2762290E-001  0.2376117E+03  0.7546771E-02  0.1121481E+00
         21   -1    0    0  504  503  0.00000000000E+00  0.00000000000E+00  0.63354290587E+03  0.63354290587E+03  0.00000000000E+00 0.  1.
         21   -1    0    0  502  504 -0.00000000000E+00 -0.00000000000E+00 -0.96232905975E+03  0.96232905975E+03  0.00000000000E+00 0. -1.
          6    2    1    2  502    0 -0.15565332288E+02 -0.16110949021E+03 -0.92458546292E+03  0.95462956099E+03  0.17395623895E+03 0.  0.
         24    2    3    3    0    0 -0.43205649154E+02 -0.13250973107E+03 -0.44288555042E+03  0.47126755478E+03  0.80746148368E+02 0.  0.
         -6    2    1    2    0  503  0.15565332288E+02  0.16110949021E+03  0.59579930905E+03  0.64124240463E+03  0.17325258275E+03 0.  0.
        -24    2    5    5    0    0 -0.59837534063E+02  0.88178523269E+02  0.31571471784E+03  0.34212037865E+03  0.77553774764E+02 0.  0.
          4    1    4    4  501    0 -0.16428288576E+02 -0.11189354319E+03 -0.40502735634E+03  0.42052016961E+03  0.00000000000E+00 0. -1.
         -3    1    4    4    0  501 -0.26777360577E+02 -0.20616187887E+02 -0.37858194081E+02  0.50747385170E+02  0.00000000000E+00 0.  1.
          5    1    3    3  502    0  0.27640316865E+02 -0.28599759135E+02 -0.48169991251E+03  0.48336200621E+03  0.47000000000E+01 0. -1.
         11    1    6    6    0    0 -0.36353222223E+02  0.45719632908E+02  0.26718502620E+03  0.27349530128E+03  0.00000000000E+00 0. -1.
        -12    1    6    6    0    0 -0.23484311840E+02  0.42458890362E+02  0.48529691645E+02  0.68625077373E+02  0.00000000000E+00 0.  1.
         -5    1    5    5    0  503  0.75402866351E+02  0.72930966939E+02  0.28008459120E+03  0.29912202597E+03  0.47000000000E+01 0.  1.
<mgrwt>
<rscale>  2 0.23748293E+03</rscale>
<asrwt>0</asrwt>
<pdfrwt beam="1">  1       21 0.97468140E-01 0.23761170E+03</pdfrwt>
<pdfrwt beam="2">  1       21 0.14805062E+00 0.23761170E+03</pdfrwt>
<totfact> 0.25646175E+02</totfact>
</mgrwt>
</event>
<event>
12    1  0.2762290E-001  0.1999334E+03  0.7546771E-02  0.1150125E+00
         21   -1    0    0  504  503  0.00000000000E+00  0.00000000000E+00  0.12283633823E+03  0.12283633823E+03  0.00000000000E+00 0.  1.
         21   -1    0    0  502  504 -0.00000000000E+00 -0.00000000000E+00 -0.33107936852E+03  0.33107936852E+03  0.00000000000E+00 0.  1.
          6    2    1    2  502    0 -0.43362489091E+02  0.86878398581E+02 -0.13942046738E+03  0.24246849248E+03  0.17298769182E+03 0.  0.
         24    2    3    3    0    0  0.22237428297E+02 -0.36538632029E+01 -0.77600272361E+02  0.11462770831E+03  0.81301016650E+02 0.  0.
         -6    2    1    2    0  503  0.43362489091E+02 -0.86878398581E+02 -0.68822562906E+02  0.21144721427E+03  0.17477190179E+03 0.  0.
        -24    2    5    5    0    0 -0.23284866385E+02 -0.97174438002E+02 -0.62094991109E+02  0.14351174016E+03  0.82187439676E+02 0.  0.
          2    1    4    4  501    0  0.88367673757E+01 -0.26659148313E+02  0.43868939373E+01  0.28426105693E+02  0.00000000000E+00 0. -1.
         -1    1    4    4    0  501  0.13400660921E+02  0.23005285111E+02 -0.81987166298E+02  0.86201602617E+02  0.00000000000E+00 0.  1.
          5    1    3    3  502    0 -0.65599917388E+02  0.90532261784E+02 -0.61820195017E+02  0.12784078417E+03  0.47000000000E+01 0. -1.
         13    1    6    6    0    0  0.83631441869E+01 -0.74400405707E+01  0.16608571019E+02  0.20028505078E+02  0.00000000000E+00 0. -1.
        -14    1    6    6    0    0 -0.31648010572E+02 -0.89734397431E+02 -0.78703562128E+02  0.12348323509E+03  0.00000000000E+00 0.  1.
         -5    1    5    5    0  503  0.66647355475E+02  0.10296039420E+02 -0.67275717970E+01  0.67935474105E+02  0.47000000000E+01 0.  1.
<mgrwt>
<rscale>  2 0.19954285E+03</rscale>
<asrwt>0</asrwt>
<pdfrwt beam="1">  1       21 0.18897898E-01 0.19993344E+03</pdfrwt>
<pdfrwt beam="2">  1       21 0.50935287E-01 0.19993344E+03</pdfrwt>
<totfact> 0.93759581E+04</totfact>
</mgrwt>
</event>
<event>
12    1  0.2762290E-001  0.1872332E+03  0.7546771E-02  0.1164215E+00
         21   -1    0    0  504  503  0.00000000000E+00  0.00000000000E+00  0.44998153650E+03  0.44998153650E+03  0.00000000000E+00 0.  1.
         21   -1    0    0  502  504 -0.00000000000E+00 -0.00000000000E+00 -0.83431580491E+02  0.83431580491E+02  0.00000000000E+00 0.  1.
          6    2    1    2  502    0  0.20527585763E+01  0.15052951818E+02  0.28623000126E+03  0.34202905305E+03  0.18661579336E+03 0.  0.
         24    2    3    3    0    0 -0.61671896216E+02  0.33059589581E+02  0.23487262490E+03  0.25809609921E+03  0.80944964378E+02 0.  0.
         -6    2    1    2    0  503 -0.20527585763E+01 -0.15052951818E+02  0.80319954754E+02  0.19138406395E+03  0.17304843145E+03 0.  0.
        -24    2    5    5    0    0  0.34301341202E+02 -0.44136490804E+01  0.11175064265E+03  0.14193921108E+03  0.80389496856E+02 0.  0.
          4    1    4    4  501    0 -0.73868583653E+02  0.40903247253E+01  0.14315031522E+03  0.16113755352E+03  0.00000000000E+00 0. -1.
         -3    1    4    4    0  501  0.12196687437E+02  0.28969264856E+02  0.91722309673E+02  0.96958545690E+02  0.00000000000E+00 0.  1.
          5    1    3    3  502    0  0.63724654792E+02 -0.18006637763E+02  0.51357376363E+02  0.83932953831E+02  0.47000000000E+01 0. -1.
         11    1    6    6    0    0  0.54302919828E+02 -0.14008168899E+02  0.45955023942E+02  0.72504483469E+02  0.00000000000E+00 0. -1.
        -12    1    6    6    0    0 -0.20001578626E+02  0.95945198184E+01  0.65795618706E+02  0.69434727615E+02  0.00000000000E+00 0.  1.
         -5    1    5    5    0  503 -0.36354099778E+02 -0.10639302737E+02 -0.31430687893E+02  0.49444852865E+02  0.47000000000E+01 0.  1.
<mgrwt>
<rscale>  2 0.18375781E+03</rscale>
<asrwt>0</asrwt>
<pdfrwt beam="1">  1       21 0.69227928E-01 0.18723317E+03</pdfrwt>
<pdfrwt beam="2">  1       21 0.12835628E-01 0.18723317E+03</pdfrwt>
<totfact> 0.98957567E+04</totfact>
</mgrwt>
</event>
<event>
12    1  0.2762290E-001  0.2140089E+03  0.7546771E-02  0.1138688E+00
         21   -1    0    0  504  503  0.00000000000E+00  0.00000000000E+00  0.21917518152E+03  0.21917518152E+03  0.00000000000E+00 0.  1.
         21   -1    0    0  502  504 -0.00000000000E+00 -0.00000000000E+00 -0.20936180253E+03  0.20936180253E+03  0.00000000000E+00 0.  1.
          6    2    1    2  502    0  0.55359205977E+02  0.11332060493E+03 -0.14387648671E+02  0.21316405266E+03  0.17124750428E+03 0.  0.
         24    2    3    3    0    0  0.10063277478E+03  0.91714203649E+02 -0.29150540295E+02  0.16066104724E+03  0.80148409767E+02 0.  0.
         -6    2    1    2    0  503 -0.55359205977E+02 -0.11332060493E+03  0.24201027661E+02  0.21537293139E+03  0.17289768259E+03 0.  0.
        -24    2    5    5    0    0 -0.93880073029E+02 -0.58028672110E+02  0.47655139924E+02  0.14386600574E+03  0.79029237289E+02 0.  0.
          4    1    4    4  501    0  0.14373006936E+02  0.43528385069E+02 -0.40547810897E+02  0.61199906893E+02  0.00000000000E+00 0. -1.
         -3    1    4    4    0  501  0.86259767848E+02  0.48185818579E+02  0.11397270602E+02  0.99461140344E+02  0.00000000000E+00 0.  1.
          5    1    3    3  502    0 -0.45273568807E+02  0.21606401284E+02  0.14762891624E+02  0.52503005419E+02  0.47000000000E+01 0. -1.
         11    1    6    6    0    0 -0.65747577103E+02 -0.48661649313E+02  0.69258697949E+02  0.10717960277E+03  0.00000000000E+00 0. -1.
        -12    1    6    6    0    0 -0.28132495926E+02 -0.93670227968E+01 -0.21603558025E+02  0.36686402964E+02  0.00000000000E+00 0.  1.
         -5    1    5    5    0  503  0.38520867052E+02 -0.55291932822E+02 -0.23454112264E+02  0.71506925649E+02  0.47000000000E+01 0.  1.
<mgrwt>
<rscale>  2 0.21367538E+03</rscale>
<asrwt>0</asrwt>
<pdfrwt beam="1">  1       21 0.33719259E-01 0.21400890E+03</pdfrwt>
<pdfrwt beam="2">  1       21 0.32209508E-01 0.21400890E+03</pdfrwt>
<totfact> 0.77849556E+04</totfact>
</mgrwt>
</event>
<event>
12    1  0.2762290E-001  0.1743918E+03  0.7546771E-02  0.1173847E+00
         21   -1    0    0  504  503  0.00000000000E+00  0.00000000000E+00  0.19977342020E+02  0.19977342020E+02  0.00000000000E+00 0. -1.
         21   -1    0    0  502  504 -0.00000000000E+00 -0.00000000000E+00 -0.18121765727E+04  0.18121765727E+04  0.00000000000E+00 0. -1.
          6    2    1    2  502    0  0.15093737300E+02  0.81164980319E+01 -0.51473509782E+03  0.54284127032E+03  0.17155385563E+03 0.  0.
         24    2    3    3    0    0 -0.78669759932E+01 -0.46546267349E+02 -0.42530496430E+03  0.43543991531E+03  0.80592573342E+02 0.  0.
         -6    2    1    2    0  503 -0.15093737300E+02 -0.81164980319E+01 -0.12774641329E+04  0.12893126444E+04  0.17354764715E+03 0.  0.
        -24    2    5    5    0    0 -0.36612667496E+02  0.55014927746E+02 -0.89468980852E+03  0.90074229730E+03  0.80620735385E+02 0.  0.
          4    1    4    4  501    0 -0.18139246199E+02 -0.64711030814E+02 -0.37506299520E+03  0.38103648136E+03  0.00000000000E+00 0. -1.
         -3    1    4    4    0  501  0.10272270206E+02  0.18164763464E+02 -0.50241969099E+02  0.54403433953E+02  0.00000000000E+00 0.  1.
          5    1    3    3  502    0  0.22960713293E+02  0.54662765381E+02 -0.89430133525E+02  0.10740135500E+03  0.47000000000E+01 0. -1.
         11    1    6    6    0    0  0.14091201695E+02  0.71447517695E+00 -0.42320606914E+03  0.42344119946E+03  0.00000000000E+00 0. -1.
        -12    1    6    6    0    0 -0.50703869191E+02  0.54300452569E+02 -0.47148373938E+03  0.47730109784E+03  0.00000000000E+00 0.  1.
         -5    1    5    5    0  503  0.21518930196E+02 -0.63131425778E+02 -0.38277432433E+03  0.38857034710E+03  0.47000000000E+01 0.  1.
<mgrwt>
<rscale>  2 0.17389362E+03</rscale>
<asrwt>0</asrwt>
<pdfrwt beam="1">  1       21 0.30734374E-02 0.17439176E+03</pdfrwt>
<pdfrwt beam="2">  1       21 0.27879638E+00 0.17439176E+03</pdfrwt>
<totfact> 0.27965792E+04</totfact>
</mgrwt>
</event>
<event>
12    1  0.2762290E-001  0.2069201E+03  0.7546771E-02  0.1144283E+00
         21   -1    0    0  504  503  0.00000000000E+00  0.00000000000E+00  0.10801024238E+03  0.10801024238E+03  0.00000000000E+00 0.  1.
         21   -1    0    0  502  504 -0.00000000000E+00 -0.00000000000E+00 -0.39641488127E+03  0.39641488127E+03  0.00000000000E+00 0. -1.
          6    2    1    2  502    0 -0.66277478643E+02 -0.89411282443E+02 -0.12408167193E+03  0.24019426125E+03  0.17294490517E+03 0.  0.
         24    2    3    3    0    0 -0.45709329001E+02  0.19164711143E+02 -0.47673447168E+02  0.10576174296E+03  0.80350232093E+02 0.  0.
         -6    2    1    2    0  503  0.66277478643E+02  0.89411282443E+02 -0.16432296696E+03  0.26423086240E+03  0.17443861262E+03 0.  0.
        -24    2    5    5    0    0  0.11684048681E+02  0.55746723014E+02 -0.17160696749E+03  0.19950921363E+03  0.84325327813E+02 0.  0.
          4    1    4    4  501    0 -0.29391904339E+02  0.12994302707E+02 -0.70237622826E+02  0.77240271904E+02  0.00000000000E+00 0. -1.
         -3    1    4    4    0  501 -0.16317424662E+02  0.61704084361E+01  0.22564175658E+02  0.28521471053E+02  0.00000000000E+00 0.  1.
          5    1    3    3  502    0 -0.20568149642E+02 -0.10857599359E+03 -0.76408224765E+02  0.13443251829E+03  0.47000000000E+01 0. -1.
         13    1    6    6    0    0  0.32735499056E+02  0.46518979159E+02 -0.16652067509E+03  0.17596807538E+03  0.00000000000E+00 0. -1.
        -14    1    6    6    0    0 -0.21051450375E+02  0.92277438552E+01 -0.50862923979E+01  0.23541138246E+02  0.00000000000E+00 0.  1.
         -5    1    5    5    0  503  0.54593429963E+02  0.33664559429E+02  0.72840005304E+01  0.64721648776E+02  0.47000000000E+01 0.  1.
<mgrwt>
<rscale>  2 0.20660493E+03</rscale>
<asrwt>0</asrwt>
<pdfrwt beam="1">  1       21 0.16616960E-01 0.20692006E+03</pdfrwt>
<pdfrwt beam="2">  1       21 0.60986905E-01 0.20692006E+03</pdfrwt>
<totfact> 0.80889271E+04</totfact>
</mgrwt>
</event>
<event>
12    1  0.2762290E-001  0.2499756E+03  0.7546771E-02  0.1113377E+00
         21   -1    0    0  504  503  0.00000000000E+00  0.00000000000E+00  0.75336250155E+02  0.75336250155E+02  0.00000000000E+00 0. -1.
         21   -1    0    0  502  504 -0.00000000000E+00 -0.00000000000E+00 -0.91154046133E+03  0.91154046133E+03  0.00000000000E+00 0. -1.
          6    2    1    2  502    0 -0.52033011183E+02  0.17231811727E+03 -0.56752765278E+03  0.62014146132E+03  0.17345554928E+03 0.  0.
         24    2    3    3    0    0 -0.55256652239E+01  0.97882057036E+02 -0.48026500509E+03  0.49628460856E+03  0.77669218590E+02 0.  0.
         -6    2    1    2    0  503  0.52033011183E+02 -0.17231811727E+03 -0.26867655840E+03  0.36673525017E+03  0.17293548767E+03 0.  0.
        -24    2    5    5    0    0  0.61339099024E+02 -0.12497402650E+03 -0.27476629123E+03  0.31787584936E+03  0.78533740793E+02 0.  0.
          2    1    4    4  501    0 -0.23171687341E+02  0.10351797765E+03 -0.39221798545E+03  0.40631003791E+03  0.00000000000E+00 0. -1.
         -1    1    4    4    0  501  0.17646022117E+02 -0.56359206148E+01 -0.88047019633E+02  0.89974570652E+02  0.00000000000E+00 0.  1.
          5    1    3    3  502    0 -0.46507345959E+02  0.74436060238E+02 -0.87262647695E+02  0.12385685276E+03  0.47000000000E+01 0. -1.
         11    1    6    6    0    0  0.32241648137E+02 -0.93296407723E+01 -0.27631519893E+02  0.43474900381E+02  0.00000000000E+00 0. -1.
        -12    1    6    6    0    0  0.29097450887E+02 -0.11564438573E+03 -0.24713477133E+03  0.27440094898E+03  0.00000000000E+00 0.  1.
         -5    1    5    5    0  503 -0.93060878409E+01 -0.47344090772E+02  0.60897328297E+01  0.48859400813E+02  0.47000000000E+01 0.  1.
<mgrwt>
<rscale>  2 0.24988539E+03</rscale>
<asrwt>0</asrwt>
<pdfrwt beam="1">  1       21 0.11590192E-01 0.24997559E+03</pdfrwt>
<pdfrwt beam="2">  1       21 0.14023700E+00 0.24997559E+03</pdfrwt>
<totfact> 0.21503413E+04</totfact>
</mgrwt>
</event>
<event>
12    1  0.2762290E-001  0.1807536E+03  0.7546771E-02  0.1167133E+00
         21   -1    0    0  504  503  0.00000000000E+00  0.00000000000E+00  0.10492369296E+03  0.10492369296E+03  0.00000000000E+00 0.  1.
         21   -1    0    0  502  504 -0.00000000000E+00 -0.00000000000E+00 -0.31131966955E+03  0.31131966955E+03  0.00000000000E+00 0.  1.
          6    2    1    2  502    0 -0.39132406832E+02 -0.38766270937E+02 -0.96254453147E+02  0.20457615948E+03  0.17190787140E+03 0.  0.
         24    2    3    3    0    0 -0.66098860337E+02 -0.59537736426E+02 -0.23353591399E+02  0.12398292752E+03  0.83141894907E+02 0.  0.
         -6    2    1    2    0  503  0.39132406832E+02  0.38766270937E+02 -0.11014152345E+03  0.21166720303E+03  0.17215597760E+03 0.  0.
        -24    2    5    5    0    0 -0.30464513070E+02 -0.22016065782E+02 -0.58086355309E+02  0.10550669132E+03  0.79654526118E+02 0.  0.
          2    1    4    4  501    0 -0.42830452821E+02 -0.68181751892E+02 -0.43946641016E+02  0.91730617770E+02  0.00000000000E+00 0. -1.
         -1    1    4    4    0  501 -0.23268407516E+02  0.86440154656E+01  0.20593049618E+02  0.32252309750E+02  0.00000000000E+00 0.  1.
          5    1    3    3  502    0  0.26966453505E+02  0.20771465489E+02 -0.72900861748E+02  0.80593231955E+02  0.47000000000E+01 0. -1.
         11    1    6    6    0    0 -0.12730178496E+02  0.28600710637E+02 -0.84431227077E+01  0.32424441622E+02  0.00000000000E+00 0. -1.
        -12    1    6    6    0    0 -0.17734334574E+02 -0.50616776418E+02 -0.49643232602E+02  0.73082249698E+02  0.00000000000E+00 0.  1.
         -5    1    5    5    0  503  0.69596919902E+02  0.60782336719E+02 -0.52055168138E+02  0.10616051171E+03  0.47000000000E+01 0.  1.
<mgrwt>
<rscale>  2 0.18069446E+03</rscale>
<asrwt>0</asrwt>
<pdfrwt beam="1">  1       21 0.16142107E-01 0.18075356E+03</pdfrwt>
<pdfrwt beam="2">  1       21 0.47895334E-01 0.18075356E+03</pdfrwt>
<totfact> 0.14351507E+05</totfact>
</mgrwt>
</event>
<event>
12    1  0.2762290E-001  0.3068210E+03  0.7546771E-02  0.1081949E+00
         21   -1    0    0  504  503  0.00000000000E+00  0.00000000000E+00  0.12367256516E+04  0.12367256516E+04  0.00000000000E+00 0. -1.
         21   -1    0    0  502  504 -0.00000000000E+00 -0.00000000000E+00 -0.88597628932E+02  0.88597628932E+02  0.00000000000E+00 0. -1.
          6    2    1    2  502    0 -0.23138793864E+03 -0.10208234779E+03  0.32442437760E+03  0.44653139777E+03  0.17371795686E+03 0.  0.
         24    2    3    3    0    0 -0.86446105809E+02 -0.92041247439E+02  0.10520880893E+03  0.18349810302E+03  0.81597425787E+02 0.  0.
         -6    2    1    2    0  503  0.23138793864E+03  0.10208234779E+03  0.82370364505E+03  0.87879188274E+03  0.17270290800E+03 0.  0.
        -24    2    5    5    0    0  0.19822687927E+03  0.12681753399E+03  0.57161146537E+03  0.62328446143E+03  0.79795174780E+02 0.  0.
          2    1    4    4  501    0 -0.87752563673E+02 -0.10030460690E+03  0.76657222828E+02  0.15374607770E+03  0.00000000000E+00 0. -1.
         -1    1    4    4    0  501  0.13064578648E+01  0.82633594569E+01  0.28551586104E+02  0.29752025321E+02  0.00000000000E+00 0.  1.
          5    1    3    3  502    0 -0.14494183283E+03 -0.10041100354E+02  0.21921556867E+03  0.26303329475E+03  0.47000000000E+01 0. -1.
         13    1    6    6    0    0  0.17877747053E+03  0.90130708966E+02  0.51887927441E+03  0.55616600946E+03  0.00000000000E+00 0. -1.
        -14    1    6    6    0    0  0.19449408745E+02  0.36686825020E+02  0.52732190960E+02  0.67118451963E+02  0.00000000000E+00 0.  1.
         -5    1    5    5    0  503  0.33161059364E+02 -0.24735186192E+02  0.25209217968E+03  0.25550742132E+03  0.47000000000E+01 0.  1.
<mgrwt>
<rscale>  2 0.30667749E+03</rscale>
<asrwt>0</asrwt>
<pdfrwt beam="1">  1       21 0.19026547E+00 0.30682098E+03</pdfrwt>
<pdfrwt beam="2">  1       21 0.13630405E-01 0.30682098E+03</pdfrwt>
<totfact> 0.66957783E+03</totfact>
</mgrwt>
</event>
<event>
12    1  0.2762290E-001  0.1884487E+03  0.7546771E-02  0.1160292E+00
         21   -1    0    0  504  503  0.00000000000E+00  0.00000000000E+00  0.22470058191E+03  0.22470058191E+03  0.00000000000E+00 0. -1.
         21   -1    0    0  502  504 -0.00000000000E+00 -0.00000000000E+00 -0.31761472822E+03  0.31761472822E+03  0.00000000000E+00 0.  1.
          6    2    1    2  502    0  0.54504593358E+02 -0.46889139050E+02 -0.23969465353E+03  0.30490398700E+03  0.17419406506E+03 0.  0.
         24    2    3    3    0    0  0.90737748977E+02  0.72818777995E+01 -0.17115857468E+03  0.21021172366E+03  0.81285584481E+02 0.  0.
         -6    2    1    2    0  503 -0.54504593358E+02  0.46889139050E+02  0.14678050723E+03  0.23741132313E+03  0.17219255788E+03 0.  0.
        -24    2    5    5    0    0 -0.57119976957E+02  0.58937602314E+02  0.17296160940E+03  0.20809331144E+03  0.81552285100E+02 0.  0.
          4    1    4    4  501    0  0.99409448684E+02  0.24748337726E+02 -0.14674488108E+03  0.17896585940E+03  0.00000000000E+00 0. -1.
         -3    1    4    4    0  501 -0.86716997073E+01 -0.17466459927E+02 -0.24413693606E+02  0.31245864265E+02  0.00000000000E+00 0.  1.
          5    1    3    3  502    0 -0.36233155619E+02 -0.54171016850E+02 -0.68536078850E+02  0.94692263342E+02  0.47000000000E+01 0. -1.
         13    1    6    6    0    0  0.14480595272E+02 -0.78172698411E+01  0.37601875358E+02  0.41045077386E+02  0.00000000000E+00 0. -1.
        -14    1    6    6    0    0 -0.71600572229E+02  0.66754872155E+02  0.13535973404E+03  0.16704823405E+03  0.00000000000E+00 0.  1.
         -5    1    5    5    0  503  0.26153835996E+01 -0.12048463264E+02 -0.26181102172E+02  0.29318011688E+02  0.47000000000E+01 0.  1.
<mgrwt>
<rscale>  2 0.18798486E+03</rscale>
<asrwt>0</asrwt>
<pdfrwt beam="1">  1       21 0.34569320E-01 0.18844870E+03</pdfrwt>
<pdfrwt beam="2">  1       21 0.48863804E-01 0.18844870E+03</pdfrwt>
<totfact> 0.32309091E+04</totfact>
</mgrwt>
</event>
<event>
12    1  0.2762290E-001  0.2389040E+03  0.7546771E-02  0.1120864E+00
         21   -1    0    0  504  503  0.00000000000E+00  0.00000000000E+00  0.26812374935E+03  0.26812374935E+03  0.00000000000E+00 0. -1.
         21   -1    0    0  502  504 -0.00000000000E+00 -0.00000000000E+00 -0.24230759968E+03  0.24230759968E+03  0.00000000000E+00 0.  1.
          6    2    1    2  502    0  0.82576015845E+02 -0.14162117606E+03 -0.78665506297E+02  0.25152213060E+03  0.17378079411E+03 0.  0.
         24    2    3    3    0    0  0.11658037879E+03 -0.92053917599E+02 -0.11145288448E+02  0.16099987020E+03  0.61088724702E+02 0.  0.
         -6    2    1    2    0  503 -0.82576015845E+02  0.14162117606E+03  0.10448165596E+03  0.25890921843E+03  0.17100354105E+03 0.  0.
        -24    2    5    5    0    0  0.17043732034E+02  0.59242275093E+02 -0.14950493631E+01  0.91686224903E+02  0.67852728055E+02 0.  0.
          2    1    4    4  501    0  0.38509388707E+02 -0.60320382157E+02  0.14276811058E+02  0.72974987880E+02  0.00000000000E+00 0. -1.
         -1    1    4    4    0  501  0.78070990082E+02 -0.31733535442E+02 -0.25422099506E+02  0.88024882319E+02  0.00000000000E+00 0.  1.
          5    1    3    3  502    0 -0.34004362944E+02 -0.49567258460E+02 -0.67520217849E+02  0.90522260405E+02  0.47000000000E+01 0. -1.
         13    1    6    6    0    0 -0.95730695405E+01  0.63738331501E+02  0.18900864706E+01  0.64480935088E+02  0.00000000000E+00 0. -1.
        -14    1    6    6    0    0  0.26616801575E+02 -0.44960564081E+01 -0.33851358337E+01  0.27205289815E+02  0.00000000000E+00 0.  1.
         -5    1    5    5    0  503 -0.99619747879E+02  0.82378900966E+02  0.10597670533E+03  0.16722299353E+03  0.47000000000E+01 0.  1.
<mgrwt>
<rscale>  2 0.23839927E+03</rscale>
<asrwt>0</asrwt>
<pdfrwt beam="1">  1       21 0.41249807E-01 0.23890400E+03</pdfrwt>
<pdfrwt beam="2">  1       21 0.37278092E-01 0.23890400E+03</pdfrwt>
<totfact> 0.38409828E+04</totfact>
</mgrwt>
</event>
<event>
12    1  0.2762290E-001  0.1901353E+03  0.7546771E-02  0.1158431E+00
         21   -1    0    0  504  503  0.00000000000E+00  0.00000000000E+00  0.64417326088E+02  0.64417326088E+02  0.00000000000E+00 0. -1.
         21   -1    0    0  502  504 -0.00000000000E+00 -0.00000000000E+00 -0.64594130144E+03  0.64594130144E+03  0.00000000000E+00 0. -1.
          6    2    1    2  502    0  0.65732880793E+02 -0.44083174171E+02 -0.42057779200E+03  0.46155943326E+03  0.17287941881E+03 0.  0.
         24    2    3    3    0    0  0.54726699404E+02 -0.48467644364E+02 -0.11911105923E+03  0.15982338872E+03  0.77536745958E+02 0.  0.
         -6    2    1    2    0  503 -0.65732880793E+02  0.44083174171E+02 -0.16094618336E+03  0.24879919427E+03  0.17243325454E+03 0.  0.
        -24    2    5    5    0    0 -0.95920670513E+02 -0.10782530805E+02 -0.11299045174E+03  0.16978406644E+03  0.82114243776E+02 0.  0.
          2    1    4    4  501    0  0.67995805790E+02 -0.25749205870E+02 -0.57058170465E+02  0.92423406260E+02  0.00000000000E+00 0. -1.
         -1    1    4    4    0  501 -0.13269106385E+02 -0.22718438494E+02 -0.62052888761E+02  0.67399982459E+02  0.00000000000E+00 0.  1.
          5    1    3    3  502    0  0.11006181389E+02  0.43844701932E+01 -0.30146673277E+03  0.30173604454E+03  0.47000000000E+01 0. -1.
         13    1    6    6    0    0 -0.46557349866E+02  0.30732783549E+02 -0.26151306954E+02  0.61611538421E+02  0.00000000000E+00 0. -1.
        -14    1    6    6    0    0 -0.49363320647E+02 -0.41515314354E+02 -0.86839144787E+02  0.10817252802E+03  0.00000000000E+00 0.  1.
         -5    1    5    5    0  503  0.30187789720E+02  0.54865704976E+02 -0.47955731615E+02  0.79015127827E+02  0.47000000000E+01 0.  1.
<mgrwt>
<rscale>  2 0.19003382E+03</rscale>
<asrwt>0</asrwt>
<pdfrwt beam="1">  1       21 0.99103578E-02 0.19013530E+03</pdfrwt>
<pdfrwt beam="2">  1       21 0.99375585E-01 0.19013530E+03</pdfrwt>
<totfact> 0.68776668E+04</totfact>
</mgrwt>
</event>
<event>
12    1  0.2762290E-001  0.2354607E+03  0.7546771E-02  0.1123174E+00
         21   -1    0    0  504  503  0.00000000000E+00  0.00000000000E+00  0.85397920747E+03  0.85397920747E+03  0.00000000000E+00 0.  1.
         21   -1    0    0  502  504 -0.00000000000E+00 -0.00000000000E+00 -0.15818538477E+03  0.15818538477E+03  0.00000000000E+00 0.  1.
          6    2    1    2  502    0  0.14462485548E+03  0.58409602065E+02 -0.41199168237E+02  0.23903792152E+03  0.17639083317E+03 0.  0.
         24    2    3    3    0    0  0.69874435811E+02 -0.23817121793E+02 -0.62604012272E+02  0.12577223075E+03  0.80310021822E+02 0.  0.
         -6    2    1    2    0  503 -0.14462485548E+03 -0.58409602065E+02  0.73699299093E+03  0.77312667072E+03  0.17389120122E+03 0.  0.
        -24    2    5    5    0    0 -0.14264744641E+03 -0.71135179759E+02  0.73815132515E+03  0.75936868350E+03  0.79780391681E+02 0.  0.
          2    1    4    4  501    0  0.73847353803E+02 -0.18205517218E+02 -0.14810800481E+02  0.77486981692E+02  0.00000000000E+00 0. -1.
         -1    1    4    4    0  501 -0.39729179920E+01 -0.56116045751E+01 -0.47793211792E+02  0.48285249058E+02  0.00000000000E+00 0.  1.
          5    1    3    3  502    0  0.74750419665E+02  0.82226723858E+02  0.21404844035E+02  0.11326569077E+03  0.47000000000E+01 0. -1.
         11    1    6    6    0    0 -0.36012600847E+02 -0.34260204397E+02  0.10412020839E+03  0.11537628361E+03  0.00000000000E+00 0. -1.
        -12    1    6    6    0    0 -0.10663484556E+03 -0.36874975362E+02  0.63403111676E+03  0.64399239989E+03  0.00000000000E+00 0.  1.
         -5    1    5    5    0  503 -0.19774090657E+01  0.12725577694E+02 -0.11583342139E+01  0.13757987222E+02  0.47000000000E+01 0.  1.
<mgrwt>
<rscale>  2 0.23499267E+03</rscale>
<asrwt>0</asrwt>
<pdfrwt beam="1">  1       21 0.13138141E+00 0.23546073E+03</pdfrwt>
<pdfrwt beam="2">  1       21 0.24336213E-01 0.23546073E+03</pdfrwt>
<totfact> 0.65027448E+03</totfact>
</mgrwt>
</event>
<event>
12    1  0.2762290E-001  0.2250076E+03  0.7546771E-02  0.1130326E+00
         21   -1    0    0  504  503  0.00000000000E+00  0.00000000000E+00  0.55450402445E+03  0.55450402445E+03  0.00000000000E+00 0. -1.
         21   -1    0    0  502  504 -0.00000000000E+00 -0.00000000000E+00 -0.18118191633E+03  0.18118191633E+03  0.00000000000E+00 0. -1.
          6    2    1    2  502    0 -0.71455699461E+02 -0.12518010280E+03 -0.72670485594E+02  0.23645169828E+03  0.17277856065E+03 0.  0.
         24    2    3    3    0    0 -0.75181137522E+01 -0.13671618048E+02  0.94886820100E+01  0.83826746651E+02  0.81813526958E+02 0.  0.
         -6    2    1    2    0  503  0.71455699461E+02  0.12518010280E+03  0.44599259371E+03  0.49923424250E+03  0.17189956402E+03 0.  0.
        -24    2    5    5    0    0  0.74808975131E+02  0.14974404052E+03  0.43359533526E+03  0.47111994878E+03  0.77002798299E+02 0.  0.
          2    1    4    4  501    0 -0.27394069525E+02  0.52844604204E+01  0.36072578793E+02  0.45602538393E+02  0.00000000000E+00 0. -1.
         -1    1    4    4    0  501  0.19875955773E+02 -0.18956078468E+02 -0.26583896783E+02  0.38224208258E+02  0.00000000000E+00 0.  1.
          5    1    3    3  502    0 -0.63937585709E+02 -0.11150848475E+03 -0.82159167604E+02  0.15262495162E+03  0.47000000000E+01 0. -1.
         13    1    6    6    0    0  0.60152697839E+02  0.14204366368E+03  0.30831582651E+03  0.34475121222E+03  0.00000000000E+00 0. -1.
        -14    1    6    6    0    0  0.14656277291E+02  0.77003768427E+01  0.12527950875E+03  0.12636873656E+03  0.00000000000E+00 0.  1.
         -5    1    5    5    0  503 -0.33532756699E+01 -0.24563937722E+02  0.12397258454E+02  0.28114293719E+02  0.47000000000E+01 0.  1.
<mgrwt>
<rscale>  2 0.22483882E+03</rscale>
<asrwt>0</asrwt>
<pdfrwt beam="1">  1       21 0.85308311E-01 0.22500757E+03</pdfrwt>
<pdfrwt beam="2">  1       21 0.27874141E-01 0.22500757E+03</pdfrwt>
<totfact> 0.14312644E+04</totfact>
</mgrwt>
</event>
<event>
12    1  0.2762290E-001  0.1750498E+03  0.7546771E-02  0.1172702E+00
         21   -1    0    0  504  503  0.00000000000E+00  0.00000000000E+00  0.16572871153E+03  0.16572871153E+03  0.00000000000E+00 0. -1.
         21   -1    0    0  502  504 -0.00000000000E+00 -0.00000000000E+00 -0.15205168143E+04  0.15205168143E+04  0.00000000000E+00 0.  1.
          6    2    1    2  502    0  0.16818732432E+02 -0.16646110677E+02 -0.14676380720E+04  0.14780405697E+04  0.17344293798E+03 0.  0.
         24    2    3    3    0    0  0.13809998638E+02 -0.21499011712E+02 -0.35852859114E+03  0.36890643286E+03  0.83043855713E+02 0.  0.
         -6    2    1    2    0  503 -0.16818732432E+02  0.16646110677E+02  0.11284996918E+03  0.20820495611E+03  0.17336154545E+03 0.  0.
        -24    2    5    5    0    0 -0.49009244838E+02 -0.11912545601E+02  0.11940326404E+03  0.16442297795E+03  0.10116304362E+03 0.  0.
          2    1    4    4  501    0 -0.26892651684E+02 -0.34843713035E+02 -0.18708004375E+03  0.19218803767E+03  0.00000000000E+00 0. -1.
         -1    1    4    4    0  501  0.40702650322E+02  0.13344701323E+02 -0.17144854739E+03  0.17671839519E+03  0.00000000000E+00 0.  1.
          5    1    3    3  502    0  0.30087337938E+01  0.48529010346E+01 -0.11091094808E+04  0.11091341369E+04  0.47000000000E+01 0. -1.
         11    1    6    6    0    0 -0.10104773347E+01 -0.37675104605E+02  0.99544889995E+02  0.10644068628E+03  0.00000000000E+00 0. -1.
        -12    1    6    6    0    0 -0.47998767503E+02  0.25762559005E+02  0.19858374042E+02  0.57982291675E+02  0.00000000000E+00 0.  1.
         -5    1    5    5    0  503  0.32190512406E+02  0.28558656278E+02 -0.65532948562E+01  0.43781978152E+02  0.47000000000E+01 0.  1.
<mgrwt>
<rscale>  2 0.17502959E+03</rscale>
<asrwt>0</asrwt>
<pdfrwt beam="1">  1       21 0.25496724E-01 0.17504975E+03</pdfrwt>
<pdfrwt beam="2">  1       21 0.23392567E+00 0.17504975E+03</pdfrwt>
<totfact> 0.12345904E+03</totfact>
</mgrwt>
</event>
<event>
12    1  0.2762290E-001  0.4632556E+03  0.7546771E-02  0.1023850E+00
         21   -1    0    0  504  503  0.00000000000E+00  0.00000000000E+00  0.13194817795E+04  0.13194817795E+04  0.00000000000E+00 0.  1.
         21   -1    0    0  502  504 -0.00000000000E+00 -0.00000000000E+00 -0.19541487997E+03  0.19541487997E+03  0.00000000000E+00 0. -1.
          6    2    1    2  502    0  0.22288658113E+02 -0.42919484994E+03  0.25170488784E+03  0.52722017577E+03  0.17291836131E+03 0.  0.
         24    2    3    3    0    0  0.93079387776E+01 -0.80599644979E+02  0.68636316310E+02  0.13323628285E+03  0.80361823375E+02 0.  0.
         -6    2    1    2    0  503 -0.22288658113E+02  0.42919484994E+03  0.87236201170E+03  0.98767648370E+03  0.17258144021E+03 0.  0.
        -24    2    5    5    0    0 -0.16354855810E+01  0.19959549231E+03  0.55426944291E+03  0.59480577866E+03  0.82086927230E+02 0.  0.
          4    1    4    4  501    0 -0.49074389344E+00 -0.22884932305E+02  0.71049683727E+02  0.74645954438E+02  0.00000000000E+00 0. -1.
         -3    1    4    4    0  501  0.97986826710E+01 -0.57714712675E+02 -0.24133674177E+01  0.58590328413E+02  0.00000000000E+00 0.  1.
          5    1    3    3  502    0  0.12980719335E+02 -0.34859520496E+03  0.18306857153E+03  0.39398389291E+03  0.47000000000E+01 0. -1.
         13    1    6    6    0    0 -0.22707551517E+02  0.23900738154E+02  0.45849185302E+02  0.56471461581E+02  0.00000000000E+00 0. -1.
        -14    1    6    6    0    0  0.21072065936E+02  0.17569475416E+03  0.50842025761E+03  0.53833431708E+03  0.00000000000E+00 0.  1.
         -5    1    5    5    0  503 -0.20653172532E+02  0.22959935763E+03  0.31809256879E+03  0.39287070504E+03  0.47000000000E+01 0.  1.
<mgrwt>
<rscale>  2 0.46322420E+03</rscale>
<asrwt>0</asrwt>
<pdfrwt beam="1">  1       21 0.20299719E+00 0.46325561E+03</pdfrwt>
<pdfrwt beam="2">  1       21 0.30063828E-01 0.46325561E+03</pdfrwt>
<totfact> 0.11328114E+03</totfact>
</mgrwt>
</event>
<event>
12    1  0.2762290E-001  0.1751690E+03  0.7546771E-02  0.1172936E+00
         21   -1    0    0  504  503  0.00000000000E+00  0.00000000000E+00  0.79843746930E+02  0.79843746930E+02  0.00000000000E+00 0.  1.
         21   -1    0    0  502  504 -0.00000000000E+00 -0.00000000000E+00 -0.38218502904E+03  0.38218502904E+03  0.00000000000E+00 0.  1.
          6    2    1    2  502    0 -0.14096928307E+02 -0.70716573092E+01 -0.13924804646E+03  0.22377266865E+03  0.17445760822E+03 0.  0.
         24    2    3    3    0    0 -0.26245410186E+02 -0.53965393679E+02 -0.27385479615E+02  0.10178114442E+03  0.77513557488E+02 0.  0.
         -6    2    1    2    0  503  0.14096928307E+02  0.70716573092E+01 -0.16309323565E+03  0.23825610732E+03  0.17296773525E+03 0.  0.
        -24    2    5    5    0    0  0.25733208730E+02 -0.19515154327E+02 -0.18300664229E+03  0.20274701920E+03  0.81067153602E+02 0.  0.
          4    1    4    4  501    0 -0.20002103264E+02 -0.17285842110E+01  0.21887954149E+02  0.29701088788E+02  0.00000000000E+00 0. -1.
         -3    1    4    4    0  501 -0.62433069217E+01 -0.52236809468E+02 -0.49273433764E+02  0.72080055630E+02  0.00000000000E+00 0.  1.
          5    1    3    3  502    0  0.12148481879E+02  0.46893736370E+02 -0.11186256685E+03  0.12199152423E+03  0.47000000000E+01 0. -1.
         11    1    6    6    0    0 -0.23393899698E+02 -0.10997946867E+02 -0.11812338025E+03  0.12091882541E+03  0.00000000000E+00 0. -1.
        -12    1    6    6    0    0  0.49127108428E+02 -0.85172074600E+01 -0.64883262045E+02  0.81828193790E+02  0.00000000000E+00 0.  1.
         -5    1    5    5    0  503 -0.11636280422E+02  0.26586811636E+02  0.19913406642E+02  0.35509088120E+02  0.47000000000E+01 0.  1.
<mgrwt>
<rscale>  2 0.17479690E+03</rscale>
<asrwt>0</asrwt>
<pdfrwt beam="1">  1       21 0.12283653E-01 0.17516903E+03</pdfrwt>
<pdfrwt beam="2">  1       21 0.58797697E-01 0.17516903E+03</pdfrwt>
<totfact> 0.15317442E+05</totfact>
</mgrwt>
</event>
<event>
12    1  0.2762290E-001  0.3051238E+03  0.7546771E-02  0.1082931E+00
         21   -1    0    0  504  503  0.00000000000E+00  0.00000000000E+00  0.24462418463E+03  0.24462418463E+03  0.00000000000E+00 0.  1.
         21   -1    0    0  502  504 -0.00000000000E+00 -0.00000000000E+00 -0.61856455961E+03  0.61856455961E+03  0.00000000000E+00 0.  1.
          6    2    1    2  502    0  0.18017971221E+03  0.17478190867E+03 -0.45560602908E+03  0.54732510424E+03  0.17021889349E+03 0.  0.
         24    2    3    3    0    0  0.15054836886E+03  0.11158978532E+03 -0.42375136308E+03  0.47046112888E+03  0.81555898128E+02 0.  0.
         -6    2    1    2    0  503 -0.18017971221E+03 -0.17478190867E+03  0.81665654098E+02  0.31586364000E+03  0.17345637990E+03 0.  0.
        -24    2    5    5    0    0 -0.37583010301E+02 -0.89725307597E+02  0.79987015656E+02  0.14975117025E+03  0.81020841954E+02 0.  0.
          2    1    4    4  501    0  0.86995695836E+02  0.72751913483E+02 -0.33983998634E+03  0.35826290392E+03  0.00000000000E+00 0. -1.
         -1    1    4    4    0  501  0.63552673025E+02  0.38837871838E+02 -0.83911376736E+02  0.11219822496E+03  0.00000000000E+00 0.  1.
          5    1    3    3  502    0  0.29631343347E+02  0.63192123348E+02 -0.31854666005E+02  0.76863975360E+02  0.47000000000E+01 0. -1.
         13    1    6    6    0    0 -0.85373951456E+01  0.15243377702E+02  0.81373474126E+01  0.19273404021E+02  0.00000000000E+00 0. -1.
        -14    1    6    6    0    0 -0.29045615155E+02 -0.10496868530E+03  0.71849668243E+02  0.13047776623E+03  0.00000000000E+00 0.  1.
         -5    1    5    5    0  503 -0.14259670191E+03 -0.85056601073E+02  0.16786384422E+01  0.16611246975E+03  0.47000000000E+01 0.  1.
<mgrwt>
<rscale>  2 0.30466563E+03</rscale>
<asrwt>0</asrwt>
<pdfrwt beam="1">  1       21 0.37634490E-01 0.30512384E+03</pdfrwt>
<pdfrwt beam="2">  1       21 0.95163778E-01 0.30512384E+03</pdfrwt>
<totfact> 0.58597745E+03</totfact>
</mgrwt>
</event>
<event>
12    1  0.2762290E-001  0.2206438E+03  0.7546771E-02  0.1133529E+00
         21   -1    0    0  504  503  0.00000000000E+00  0.00000000000E+00  0.37766745227E+03  0.37766745227E+03  0.00000000000E+00 0.  1.
         21   -1    0    0  502  504 -0.00000000000E+00 -0.00000000000E+00 -0.21477063046E+03  0.21477063046E+03  0.00000000000E+00 0.  1.
          6    2    1    2  502    0  0.99378739175E+02 -0.92667978081E+02 -0.10635084928E+03  0.24433180849E+03  0.17298566858E+03 0.  0.
         24    2    3    3    0    0  0.89216302136E+02 -0.12021863247E+03 -0.12042431881E+03  0.21143095396E+03  0.88255105078E+02 0.  0.
         -6    2    1    2    0  503 -0.99378739175E+02  0.92667978081E+02  0.26924767109E+03  0.34810627424E+03  0.17383952893E+03 0.  0.
        -24    2    5    5    0    0 -0.13860873007E+03  0.73863344383E+02  0.21934045867E+03  0.28173288887E+03  0.81209667924E+02 0.  0.
          2    1    4    4  501    0  0.46921521808E+02 -0.92709046485E+02 -0.30451320973E+02  0.10827686483E+03  0.00000000000E+00 0. -1.
         -1    1    4    4    0  501  0.42294780328E+02 -0.27509585984E+02 -0.89972997838E+02  0.10315408913E+03  0.00000000000E+00 0.  1.
          5    1    3    3  502    0  0.10162437038E+02  0.27550654388E+02  0.14073469532E+02  0.32900854525E+02  0.47000000000E+01 0. -1.
         11    1    6    6    0    0 -0.41151613076E+02  0.13071762509E+02  0.12185474651E+02  0.44864373688E+02  0.00000000000E+00 0. -1.
        -12    1    6    6    0    0 -0.97457116997E+02  0.60791581873E+02  0.20715498402E+03  0.23686851518E+03  0.00000000000E+00 0.  1.
         -5    1    5    5    0  503  0.39229990899E+02  0.18804633698E+02  0.49907212414E+02  0.66373385369E+02  0.47000000000E+01 0.  1.
<mgrwt>
<rscale>  2 0.22047554E+03</rscale>
<asrwt>0</asrwt>
<pdfrwt beam="1">  1       21 0.58102685E-01 0.22064376E+03</pdfrwt>
<pdfrwt beam="2">  1       21 0.33041635E-01 0.22064376E+03</pdfrwt>
<totfact> 0.24097600E+04</totfact>
</mgrwt>
</event>
<event>
12    1  0.2762290E-001  0.2048035E+03  0.7546771E-02  0.1145875E+00
         21   -1    0    0  504  503  0.00000000000E+00  0.00000000000E+00  0.39698459979E+02  0.39698459979E+02  0.00000000000E+00 0. -1.
         21   -1    0    0  502  504 -0.00000000000E+00 -0.00000000000E+00 -0.10560458735E+04  0.10560458735E+04  0.00000000000E+00 0. -1.
          6    2    1    2  502    0  0.10023201960E+03  0.39759430892E+02 -0.47989223231E+03  0.52152432502E+03  0.17338914862E+03 0.  0.
         24    2    3    3    0    0 -0.17493119507E+02  0.16447649479E+02 -0.17287248256E+03  0.19184893275E+03  0.79652893031E+02 0.  0.
         -6    2    1    2    0  503 -0.10023201960E+03 -0.39759430892E+02 -0.53645518118E+03  0.57422000843E+03  0.17411831197E+03 0.  0.
        -24    2    5    5    0    0 -0.16248758418E+02 -0.74002058145E+02 -0.34230439528E+03  0.35987831079E+03  0.81238985648E+02 0.  0.
          4    1    4    4  501    0 -0.64636603419E+01 -0.78225188233E+01 -0.16316117432E+03  0.16347641882E+03  0.00000000000E+00 0. -1.
         -3    1    4    4    0  501 -0.11029459165E+02  0.24270168302E+02 -0.97113082388E+01  0.28372513928E+02  0.00000000000E+00 0.  1.
          5    1    3    3  502    0  0.11772513911E+03  0.23311781413E+02 -0.30701974975E+03  0.32967539227E+03  0.47000000000E+01 0. -1.
         11    1    6    6    0    0 -0.34244185170E+02 -0.82801682845E+02 -0.29954043152E+03  0.31265516630E+03  0.00000000000E+00 0. -1.
        -12    1    6    6    0    0  0.17995426752E+02  0.87996247007E+01 -0.42763963757E+02  0.47223144485E+02  0.00000000000E+00 0.  1.
         -5    1    5    5    0  503 -0.83983261186E+02  0.34242627253E+02 -0.19415078590E+03  0.21434169764E+03  0.47000000000E+01 0.  1.
<mgrwt>
<rscale>  2 0.20464839E+03</rscale>
<asrwt>0</asrwt>
<pdfrwt beam="1">  1       21 0.61074557E-02 0.20480346E+03</pdfrwt>
<pdfrwt beam="2">  1       21 0.16246859E+00 0.20480346E+03</pdfrwt>
<totfact> 0.45857586E+04</totfact>
</mgrwt>
</event>
<event>
12    1  0.2762290E-001  0.2222876E+03  0.7546771E-02  0.1132268E+00
         21   -1    0    0  504  503  0.00000000000E+00  0.00000000000E+00  0.10655047976E+03  0.10655047976E+03  0.00000000000E+00 0.  1.
         21   -1    0    0  502  504 -0.00000000000E+00 -0.00000000000E+00 -0.53169335828E+03  0.53169335828E+03  0.00000000000E+00 0.  1.
          6    2    1    2  502    0 -0.10175498801E+03 -0.95343424282E+02 -0.32722636739E+03  0.39534589297E+03  0.17255965183E+03 0.  0.
         24    2    3    3    0    0 -0.84865816565E+02 -0.59401083296E+02 -0.10218720374E+03  0.16678121687E+03  0.81504933435E+02 0.  0.
         -6    2    1    2    0  503  0.10175498801E+03  0.95343424282E+02 -0.97916511124E+02  0.24289794506E+03  0.17311072303E+03 0.  0.
        -24    2    5    5    0    0  0.54710725291E+02 -0.10650653751E+02 -0.14144733381E+02  0.99762666467E+02  0.81521875905E+02 0.  0.
          2    1    4    4  501    0 -0.66541551244E+02 -0.45037706646E+02 -0.22036526759E+02  0.83317354576E+02  0.00000000000E+00 0. -1.
         -1    1    4    4    0  501 -0.18324265321E+02 -0.14363376650E+02 -0.80150676984E+02  0.83463862296E+02  0.00000000000E+00 0.  1.
          5    1    3    3  502    0 -0.16889171443E+02 -0.35942340986E+02 -0.22503916365E+03  0.22856467610E+03  0.47000000000E+01 0. -1.
         13    1    6    6    0    0  0.33788968264E+02  0.90404432494E+01 -0.45398215507E+02  0.57309876651E+02  0.00000000000E+00 0. -1.
        -14    1    6    6    0    0  0.20921757027E+02 -0.19691097001E+02  0.31253482127E+02  0.42452789817E+02  0.00000000000E+00 0.  1.
         -5    1    5    5    0  503  0.47044262717E+02  0.10599407803E+03 -0.83771777743E+02  0.14313527860E+03  0.47000000000E+01 0.  1.
<mgrwt>
<rscale>  2 0.22218028E+03</rscale>
<asrwt>0</asrwt>
<pdfrwt beam="1">  1       21 0.16392381E-01 0.22228758E+03</pdfrwt>
<pdfrwt beam="2">  1       21 0.81798978E-01 0.22228758E+03</pdfrwt>
<totfact> 0.42977314E+04</totfact>
</mgrwt>
</event>
<event>
12    1  0.2762290E-001  0.2180044E+03  0.7546771E-02  0.1135407E+00
         21   -1    0    0  504  503  0.00000000000E+00  0.00000000000E+00  0.12839752927E+03  0.12839752927E+03  0.00000000000E+00 0.  1.
         21   -1    0    0  502  504 -0.00000000000E+00 -0.00000000000E+00 -0.38056483078E+03  0.38056483078E+03  0.00000000000E+00 0. -1.
          6    2    1    2  502    0 -0.13312191580E+03 -0.25720629351E+01 -0.16864007974E+03  0.27550416741E+03  0.17243842318E+03 0.  0.
         24    2    3    3    0    0 -0.12288847045E+03  0.51194089758E+02 -0.15376777441E+03  0.21859372860E+03  0.80101677518E+02 0.  0.
         -6    2    1    2    0  503  0.13312191580E+03  0.25720629351E+01 -0.83527221766E+02  0.23345819263E+03  0.17262059830E+03 0.  0.
        -24    2    5    5    0    0  0.16550136338E+03 -0.64062055932E+01 -0.75807464320E+02  0.19866275348E+03  0.79299288908E+02 0.  0.
          4    1    4    4  501    0 -0.34327734418E+02  0.32681256354E+02 -0.10637745226E+03  0.11645866312E+03  0.00000000000E+00 0. -1.
         -3    1    4    4    0  501 -0.88560736032E+02  0.18512833404E+02 -0.47390322157E+02  0.10213506548E+03  0.00000000000E+00 0.  1.
          5    1    3    3  502    0 -0.10233445354E+02 -0.53766152694E+02 -0.14872305327E+02  0.56910438805E+02  0.47000000000E+01 0. -1.
         13    1    6    6    0    0  0.82098602718E+02 -0.21485826442E+02 -0.75980966342E+02  0.11390754388E+03  0.00000000000E+00 0. -1.
        -14    1    6    6    0    0  0.83402760663E+02  0.15079620848E+02  0.17350202226E+00  0.84755209598E+02  0.00000000000E+00 0.  1.
         -5    1    5    5    0  503 -0.32379447577E+02  0.89782685283E+01 -0.77197574463E+01  0.34795439158E+02  0.47000000000E+01 0.  1.
<mgrwt>
<rscale>  2 0.21796836E+03</rscale>
<asrwt>0</asrwt>
<pdfrwt beam="1">  1       21 0.19753467E-01 0.21800443E+03</pdfrwt>
<pdfrwt beam="2">  1       21 0.58548433E-01 0.21800443E+03</pdfrwt>
<totfact> 0.63780045E+04</totfact>
</mgrwt>
</event>
<event>
12    1  0.2762290E-001  0.2113421E+03  0.7546771E-02  0.1141963E+00
         21   -1    0    0  504  503  0.00000000000E+00  0.00000000000E+00  0.53221099974E+02  0.53221099974E+02  0.00000000000E+00 0. -1.
         21   -1    0    0  502  504 -0.00000000000E+00 -0.00000000000E+00 -0.84630717284E+03  0.84630717284E+03  0.00000000000E+00 0. -1.
          6    2    1    2  502    0 -0.49805721506E+02  0.10841978660E+03 -0.49556510521E+03  0.53874880219E+03  0.17444207729E+03 0.  0.
         24    2    3    3    0    0 -0.52344839416E+02  0.12466050500E+03 -0.26653163245E+03  0.30907810380E+03  0.78803168904E+02 0.  0.
         -6    2    1    2    0  503  0.49805721506E+02 -0.10841978660E+03 -0.29752096766E+03  0.36077947063E+03  0.16555253007E+03 0.  0.
        -24    2    5    5    0    0 -0.21852544830E+02 -0.29533993488E+02 -0.18574757195E+03  0.20626973800E+03  0.81824530819E+02 0.  0.
          2    1    4    4  501    0 -0.42402362636E+02  0.79874156062E+02 -0.23908991580E+03  0.25562047845E+03  0.00000000000E+00 0. -1.
         -1    1    4    4    0  501 -0.99424767797E+01  0.44786348935E+02 -0.27441716655E+02  0.53457625353E+02  0.00000000000E+00 0.  1.
          5    1    3    3  502    0  0.25391179092E+01 -0.16240718394E+02 -0.22903347276E+03  0.22967069839E+03  0.47000000000E+01 0. -1.
         13    1    6    6    0    0 -0.19965075815E+02 -0.10296674145E+02 -0.31871509176E+01  0.22688844874E+02  0.00000000000E+00 0. -1.
        -14    1    6    6    0    0 -0.18874690152E+01 -0.19237319342E+02 -0.18256042103E+03  0.18358089313E+03  0.00000000000E+00 0.  1.
         -5    1    5    5    0  503  0.71658266336E+02 -0.78885793115E+02 -0.11177339571E+03  0.15450973263E+03  0.47000000000E+01 0.  1.
<mgrwt>
<rscale>  2 0.20949924E+03</rscale>
<asrwt>0</asrwt>
<pdfrwt beam="1">  1       21 0.81878623E-02 0.21134214E+03</pdfrwt>
<pdfrwt beam="2">  1       21 0.13020109E+00 0.21134214E+03</pdfrwt>
<totfact> 0.49125570E+04</totfact>
</mgrwt>
</event>
<event>
12    1  0.2762290E-001  0.2671995E+03  0.7546771E-02  0.1102918E+00
         21   -1    0    0  504  503  0.00000000000E+00  0.00000000000E+00  0.23786162067E+03  0.23786162067E+03  0.00000000000E+00 0.  1.
         21   -1    0    0  502  504 -0.00000000000E+00 -0.00000000000E+00 -0.82094006193E+03  0.82094006193E+03  0.00000000000E+00 0. -1.
          6    2    1    2  502    0  0.18324871124E+03  0.91135467765E+02 -0.71323885955E+03  0.76158574868E+03  0.17151506686E+03 0.  0.
         24    2    3    3    0    0  0.11407679559E+03  0.63529397976E+02 -0.25307304966E+03  0.29540819495E+03  0.78552743320E+02 0.  0.
         -6    2    1    2    0  503 -0.18324871124E+03 -0.91135467765E+02  0.13016041830E+03  0.29721593392E+03  0.17178420542E+03 0.  0.
        -24    2    5    5    0    0 -0.16473533837E+03 -0.92447550965E+02  0.44554720146E+02  0.20949539988E+03  0.78860117268E+02 0.  0.
          4    1    4    4  501    0  0.46097783620E+02  0.43746288903E+02 -0.19084717198E+03  0.20115015909E+03  0.00000000000E+00 0. -1.
         -3    1    4    4    0  501  0.67979011966E+02  0.19783109073E+02 -0.62225877677E+02  0.94258035866E+02  0.00000000000E+00 0.  1.
          5    1    3    3  502    0  0.69171915654E+02  0.27606069789E+02 -0.46016580990E+03  0.46617755373E+03  0.47000000000E+01 0. -1.
         11    1    6    6    0    0 -0.13198637478E+02 -0.29627991964E+02 -0.13985040852E+02  0.35321428436E+02  0.00000000000E+00 0. -1.
        -12    1    6    6    0    0 -0.15153670089E+03 -0.62819559001E+02  0.58539760998E+02  0.17417397144E+03  0.00000000000E+00 0.  1.
         -5    1    5    5    0  503 -0.18513372869E+02  0.13120831999E+01  0.85605698151E+02  0.87720534046E+02  0.47000000000E+01 0.  1.
<mgrwt>
<rscale>  2 0.26715626E+03</rscale>
<asrwt>0</asrwt>
<pdfrwt beam="1">  1       21 0.36594095E-01 0.26719951E+03</pdfrwt>
<pdfrwt beam="2">  1       21 0.12629847E+00 0.26719951E+03</pdfrwt>
<totfact> 0.31647434E+03</totfact>
</mgrwt>
</event>
<event>
12    1  0.2762290E-001  0.1820837E+03  0.7546771E-02  0.1166302E+00
         21   -1    0    0  504  503  0.00000000000E+00  0.00000000000E+00  0.99472643218E+02  0.99472643218E+02  0.00000000000E+00 0.  1.
         21   -1    0    0  502  504 -0.00000000000E+00 -0.00000000000E+00 -0.33271475730E+03  0.33271475730E+03  0.00000000000E+00 0.  1.
          6    2    1    2  502    0 -0.16217856339E+02 -0.50799007359E+02 -0.13722321592E+03  0.22633768876E+03  0.17191561986E+03 0.  0.
         24    2    3    3    0    0 -0.18610595650E+02 -0.97016991905E+02 -0.72635344711E+02  0.14674176924E+03  0.80613910394E+02 0.  0.
         -6    2    1    2    0  503  0.16217856339E+02  0.50799007359E+02 -0.96018898164E+02  0.20584971176E+03  0.17410030734E+03 0.  0.
        -24    2    5    5    0    0 -0.26489916347E+02  0.14301089121E+02  0.95455221132E+01  0.86175200224E+02  0.80179868565E+02 0.  0.
          2    1    4    4  501    0  0.13168429635E+02 -0.94720054480E+02 -0.55313111115E+02  0.11047550190E+03  0.00000000000E+00 0. -1.
         -1    1    4    4    0  501 -0.31779025285E+02 -0.22969374252E+01 -0.17322233596E+02  0.36266267334E+02  0.00000000000E+00 0.  1.
          5    1    3    3  502    0  0.23927393110E+01  0.46217984547E+02 -0.64587871210E+02  0.79595919521E+02  0.47000000000E+01 0. -1.
         13    1    6    6    0    0 -0.38508602398E+02 -0.12522523383E+02 -0.19418955557E+02  0.44909040131E+02  0.00000000000E+00 0. -1.
        -14    1    6    6    0    0  0.12018686052E+02  0.26823612503E+02  0.28964477670E+02  0.41266160093E+02  0.00000000000E+00 0.  1.
         -5    1    5    5    0  503  0.42707772686E+02  0.36497918238E+02 -0.10556442028E+03  0.11967451154E+03  0.47000000000E+01 0.  1.
<mgrwt>
<rscale>  2 0.18155950E+03</rscale>
<asrwt>0</asrwt>
<pdfrwt beam="1">  1       21 0.15303483E-01 0.18208370E+03</pdfrwt>
<pdfrwt beam="2">  1       21 0.51186886E-01 0.18208370E+03</pdfrwt>
<totfact> 0.13771528E+05</totfact>
</mgrwt>
</event>
<event>
12    1  0.2762290E-001  0.1833119E+03  0.7546771E-02  0.1164682E+00
         21   -1    0    0  504  503  0.00000000000E+00  0.00000000000E+00  0.17138959663E+03  0.17138959663E+03  0.00000000000E+00 0.  1.
         21   -1    0    0  502  504 -0.00000000000E+00 -0.00000000000E+00 -0.37139908426E+03  0.37139908426E+03  0.00000000000E+00 0.  1.
          6    2    1    2  502    0  0.60310502613E+02 -0.65653326444E+01 -0.28661707924E+03  0.34022432018E+03  0.17298201528E+03 0.  0.
         24    2    3    3    0    0  0.41807676141E+02 -0.18629379875E-01 -0.49690781541E+02  0.10244001781E+03  0.79226897881E+02 0.  0.
         -6    2    1    2    0  503 -0.60310502613E+02  0.65653326444E+01  0.86607591605E+02  0.20256436071E+03  0.17277437596E+03 0.  0.
        -24    2    5    5    0    0 -0.15475048382E+02  0.46854331609E+02 -0.18967332167E+01  0.95379814690E+02  0.81602119706E+02 0.  0.
          4    1    4    4  501    0  0.82759536139E+01  0.18238140648E+02  0.16551830757E+02  0.25982384108E+02  0.00000000000E+00 0. -1.
         -3    1    4    4    0  501  0.33531722527E+02 -0.18256770028E+02 -0.66242612299E+02  0.76457633704E+02  0.00000000000E+00 0.  1.
          5    1    3    3  502    0  0.18502826473E+02 -0.65467032646E+01 -0.23692629770E+03  0.23778430237E+03  0.47000000000E+01 0. -1.
         11    1    6    6    0    0 -0.27363551134E+02  0.65020458654E+02  0.89522896096E+01  0.71109545516E+02  0.00000000000E+00 0. -1.
        -12    1    6    6    0    0  0.11888502752E+02 -0.18166127045E+02 -0.10849022826E+02  0.24270269174E+02  0.00000000000E+00 0.  1.
         -5    1    5    5    0  503 -0.44835454231E+02 -0.40288998964E+02  0.88504324822E+02  0.10718454602E+03  0.47000000000E+01 0.  1.
<mgrwt>
<rscale>  2 0.18326286E+03</rscale>
<asrwt>0</asrwt>
<pdfrwt beam="1">  1       21 0.26367631E-01 0.18331186E+03</pdfrwt>
<pdfrwt beam="2">  1       21 0.57138320E-01 0.18331186E+03</pdfrwt>
<totfact> 0.39533330E+04</totfact>
</mgrwt>
</event>
<event>
12    1  0.2762290E-001  0.2116014E+03  0.7546771E-02  0.1141420E+00
         21   -1    0    0  504  503  0.00000000000E+00  0.00000000000E+00  0.62046142935E+02  0.62046142935E+02  0.00000000000E+00 0. -1.
         21   -1    0    0  502  504 -0.00000000000E+00 -0.00000000000E+00 -0.93981078073E+03  0.93981078073E+03  0.00000000000E+00 0. -1.
          6    2    1    2  502    0  0.11568773702E+03 -0.18284677995E+02 -0.69492422297E+03  0.72642607863E+03  0.17623050271E+03 0.  0.
         24    2    3    3    0    0  0.79874697307E+02  0.18196341681E+02 -0.21248235583E+03  0.24126045352E+03  0.79666685468E+02 0.  0.
         -6    2    1    2    0  503 -0.11568773702E+03  0.18284677995E+02 -0.18284041482E+03  0.27543084504E+03  0.16945073372E+03 0.  0.
        -24    2    5    5    0    0 -0.13210288958E+02 -0.36377876085E+02 -0.63257831559E+02  0.10866242357E+03  0.79423594977E+02 0.  0.
          4    1    4    4  501    0  0.92731275424E+02  0.28014698480E+02 -0.19292655875E+03  0.21588091589E+03  0.00000000000E+00 0. -1.
         -3    1    4    4    0  501 -0.12856578116E+02 -0.98183567990E+01 -0.19555797077E+02  0.25379537632E+02  0.00000000000E+00 0.  1.
          5    1    3    3  502    0  0.35813039716E+02 -0.36481019676E+02 -0.48244186714E+03  0.48516562510E+03  0.47000000000E+01 0. -1.
         11    1    6    6    0    0 -0.40534141196E+02 -0.23814548369E+00 -0.17129298239E+02  0.44005524357E+02  0.00000000000E+00 0. -1.
        -12    1    6    6    0    0  0.27323852239E+02 -0.36139730601E+02 -0.46128533321E+02  0.64656899210E+02  0.00000000000E+00 0.  1.
         -5    1    5    5    0  503 -0.10247744807E+03  0.54662554080E+02 -0.11958258326E+03  0.16676842147E+03  0.47000000000E+01 0.  1.
<mgrwt>
<rscale>  2 0.21018420E+03</rscale>
<asrwt>0</asrwt>
<pdfrwt beam="1">  1       21 0.95455607E-02 0.21160145E+03</pdfrwt>
<pdfrwt beam="2">  1       21 0.14458627E+00 0.21160145E+03</pdfrwt>
<totfact> 0.28652561E+04</totfact>
</mgrwt>
</event>
<event>
12    1  0.2762290E-001  0.2683998E+03  0.7546771E-02  0.1102406E+00
         21   -1    0    0  504  503  0.00000000000E+00  0.00000000000E+00  0.35285468350E+03  0.35285468350E+03  0.00000000000E+00 0. -1.
         21   -1    0    0  502  504 -0.00000000000E+00 -0.00000000000E+00 -0.22131046658E+03  0.22131046658E+03  0.00000000000E+00 0. -1.
          6    2    1    2  502    0  0.94379740180E+02 -0.18174700690E+03  0.14802839927E+03  0.30525967218E+03  0.17126456316E+03 0.  0.
         24    2    3    3    0    0 -0.24002650405E+01 -0.88632821192E+02  0.11720878909E+03  0.16738814008E+03  0.80120852066E+02 0.  0.
         -6    2    1    2    0  503 -0.94379740180E+02  0.18174700690E+03 -0.16484182345E+02  0.26890547790E+03  0.17349039716E+03 0.  0.
        -24    2    5    5    0    0 -0.77278663855E+02  0.18119682990E+03  0.33868716246E+02  0.21551770868E+03  0.80600929041E+02 0.  0.
          4    1    4    4  501    0 -0.39746458484E+02 -0.37907283725E+02  0.41137280515E+02  0.68622292075E+02  0.00000000000E+00 0. -1.
         -3    1    4    4    0  501  0.37346193443E+02 -0.50725537467E+02  0.76071508571E+02  0.98765848006E+02  0.00000000000E+00 0.  1.
          5    1    3    3  502    0  0.96780005221E+02 -0.93114185709E+02  0.30819610184E+02  0.13787153210E+03  0.47000000000E+01 0. -1.
         11    1    6    6    0    0 -0.55394213933E+02  0.39229358703E+02  0.22129419568E+02  0.71394486705E+02  0.00000000000E+00 0. -1.
        -12    1    6    6    0    0 -0.21884449923E+02  0.14196747120E+03  0.11739296678E+02  0.14412322197E+03  0.00000000000E+00 0.  1.
         -5    1    5    5    0  503 -0.17101076325E+02  0.55017700359E+00 -0.50352898591E+02  0.53387769224E+02  0.47000000000E+01 0.  1.
<mgrwt>
<rscale>  2 0.26804070E+03</rscale>
<asrwt>0</asrwt>
<pdfrwt beam="1">  1       21 0.54285336E-01 0.26839975E+03</pdfrwt>
<pdfrwt beam="2">  1       21 0.34047764E-01 0.26839975E+03</pdfrwt>
<totfact> 0.25663902E+04</totfact>
</mgrwt>
</event>
<event>
12    1  0.2762290E-001  0.1998085E+03  0.7546771E-02  0.1150084E+00
         21   -1    0    0  504  503  0.00000000000E+00  0.00000000000E+00  0.57525308795E+02  0.57525308795E+02  0.00000000000E+00 0.  1.
         21   -1    0    0  502  504 -0.00000000000E+00 -0.00000000000E+00 -0.76224238345E+03  0.76224238345E+03  0.00000000000E+00 0.  1.
          6    2    1    2  502    0  0.93504894393E+02 -0.32514475266E+02 -0.22774928177E+03  0.30297388084E+03  0.17356002059E+03 0.  0.
         24    2    3    3    0    0  0.64773567130E+02 -0.89066612437E+02 -0.15720959204E+03  0.20799192880E+03  0.80108115502E+02 0.  0.
         -6    2    1    2    0  503 -0.93504894393E+02  0.32514475266E+02 -0.47696779289E+03  0.51679381141E+03  0.17256074779E+03 0.  0.
        -24    2    5    5    0    0  0.91311848591E+01  0.34589771153E+02 -0.14728067286E+03  0.17146185701E+03  0.80173193806E+02 0.  0.
          4    1    4    4  501    0  0.74888045746E+02 -0.38607771561E+02 -0.89123681483E+02  0.12264505706E+03  0.00000000000E+00 0. -1.
         -3    1    4    4    0  501 -0.10114478616E+02 -0.50458840876E+02 -0.68085910553E+02  0.85346871742E+02  0.00000000000E+00 0.  1.
          5    1    3    3  502    0  0.28731327263E+02  0.56552137171E+02 -0.70539689730E+02  0.94981952033E+02  0.47000000000E+01 0. -1.
         13    1    6    6    0    0 -0.29478499746E+02 -0.23886981894E+01 -0.27904912238E+02  0.40661676716E+02  0.00000000000E+00 0. -1.
        -14    1    6    6    0    0  0.38609684605E+02  0.36978469342E+02 -0.11937576063E+03  0.13080018029E+03  0.00000000000E+00 0.  1.
         -5    1    5    5    0  503 -0.10263607925E+03 -0.20752958870E+01 -0.32968712003E+03  0.34533195440E+03  0.47000000000E+01 0.  1.
<mgrwt>
<rscale>  2 0.19959130E+03</rscale>
<asrwt>0</asrwt>
<pdfrwt beam="1">  1       21 0.88500471E-02 0.19980850E+03</pdfrwt>
<pdfrwt beam="2">  1       21 0.11726806E+00 0.19980850E+03</pdfrwt>
<totfact> 0.56024702E+04</totfact>
</mgrwt>
</event>
<event>
12    1  0.2762290E-001  0.2055682E+03  0.7546771E-02  0.1145207E+00
         21   -1    0    0  504  503  0.00000000000E+00  0.00000000000E+00  0.13625348278E+03  0.13625348278E+03  0.00000000000E+00 0.  1.
         21   -1    0    0  502  504 -0.00000000000E+00 -0.00000000000E+00 -0.39196799440E+03  0.39196799440E+03  0.00000000000E+00 0.  1.
          6    2    1    2  502    0  0.11061834142E+03  0.13435883349E+02 -0.24907524369E+03  0.32295008456E+03  0.17274646069E+03 0.  0.
         24    2    3    3    0    0  0.81495997732E+02  0.48254922091E+02 -0.24627728587E+03  0.27722924764E+03  0.85049509443E+02 0.  0.
         -6    2    1    2    0  503 -0.11061834142E+03 -0.13435883349E+02 -0.66392679324E+01  0.20527139261E+03  0.17226527313E+03 0.  0.
        -24    2    5    5    0    0 -0.84897940305E+02 -0.64225537385E+01  0.63176383418E+02  0.13039121500E+03  0.75905889512E+02 0.  0.
          2    1    4    4  501    0  0.46226271316E+02  0.64022082572E+02 -0.10886286943E+03  0.13448724682E+03  0.00000000000E+00 0. -1.
         -1    1    4    4    0  501  0.35269726416E+02 -0.15767160481E+02 -0.13741441644E+03  0.14274200082E+03  0.00000000000E+00 0.  1.
          5    1    3    3  502    0  0.29122343689E+02 -0.34819038742E+02 -0.27979578138E+01  0.45720836922E+02  0.47000000000E+01 0. -1.
         11    1    6    6    0    0 -0.12119947249E+02  0.28162844104E+02  0.51383492481E+01  0.31087642921E+02  0.00000000000E+00 0. -1.
        -12    1    6    6    0    0 -0.72777993056E+02 -0.34585397843E+02  0.58038034170E+02  0.99303572078E+02  0.00000000000E+00 0.  1.
         -5    1    5    5    0  503 -0.25720401117E+02 -0.70133296100E+01 -0.69815651351E+02  0.74880177613E+02  0.47000000000E+01 0.  1.
<mgrwt>
<rscale>  2 0.20546707E+03</rscale>
<asrwt>0</asrwt>
<pdfrwt beam="1">  1       21 0.20962074E-01 0.20556819E+03</pdfrwt>
<pdfrwt beam="2">  1       21 0.60302768E-01 0.20556819E+03</pdfrwt>
<totfact> 0.53852098E+04</totfact>
</mgrwt>
</event>
<event>
12    1  0.2762290E-001  0.3660924E+03  0.7546771E-02  0.1056205E+00
         21   -1    0    0  504  503  0.00000000000E+00  0.00000000000E+00  0.30120185226E+03  0.30120185226E+03  0.00000000000E+00 0. -1.
         21   -1    0    0  502  504 -0.00000000000E+00 -0.00000000000E+00 -0.48427497695E+03  0.48427497695E+03  0.00000000000E+00 0.  1.
          6    2    1    2  502    0  0.28387212716E+03 -0.15252258107E+03 -0.20358584703E+03  0.41889240935E+03  0.17371566189E+03 0.  0.
         24    2    3    3    0    0  0.25944332799E+03 -0.76749368925E+02 -0.12923878666E+03  0.30986066493E+03  0.78164324464E+02 0.  0.
         -6    2    1    2    0  503 -0.28387212716E+03  0.15252258107E+03  0.20512722341E+02  0.36658441987E+03  0.17354204908E+03 0.  0.
        -24    2    5    5    0    0 -0.17758594186E+03  0.21899846067E+02  0.24174141241E+02  0.19807760080E+03  0.81449228538E+02 0.  0.
          4    1    4    4  501    0  0.25481568811E+03 -0.73414695282E+02 -0.10541706401E+03  0.28536557216E+03  0.00000000000E+00 0. -1.
         -3    1    4    4    0  501  0.46276398811E+01 -0.33346736421E+01 -0.23821722655E+02  0.24495092762E+02  0.00000000000E+00 0.  1.
          5    1    3    3  502    0  0.24428799166E+02 -0.75773212142E+02 -0.74347060363E+02  0.10903174442E+03  0.47000000000E+01 0. -1.
         11    1    6    6    0    0 -0.17673680088E+03  0.37501051826E+02  0.25195520445E+02  0.18241995484E+03  0.00000000000E+00 0. -1.
        -12    1    6    6    0    0 -0.84914098068E+00 -0.15601205758E+02 -0.10213792042E+01  0.15657645959E+02  0.00000000000E+00 0.  1.
         -5    1    5    5    0  503 -0.10628618530E+03  0.13062273500E+03 -0.36614189001E+01  0.16850681907E+03  0.47000000000E+01 0.  1.
<mgrwt>
<rscale>  2 0.36607182E+03</rscale>
<asrwt>0</asrwt>
<pdfrwt beam="1">  1       21 0.46338747E-01 0.36609241E+03</pdfrwt>
<pdfrwt beam="2">  1       21 0.74503842E-01 0.36609241E+03</pdfrwt>
<totfact> 0.65555501E+03</totfact>
</mgrwt>
</event>
<event>
12    1  0.2762290E-001  0.2050044E+03  0.7546771E-02  0.1145936E+00
         21   -1    0    0  504  503  0.00000000000E+00  0.00000000000E+00  0.13833304699E+03  0.13833304699E+03  0.00000000000E+00 0.  1.
         21   -1    0    0  502  504 -0.00000000000E+00 -0.00000000000E+00 -0.61162355394E+03  0.61162355394E+03  0.00000000000E+00 0.  1.
          6    2    1    2  502    0 -0.54200893316E+02  0.95595011770E+02 -0.50326521976E+03  0.54277239899E+03  0.17102588276E+03 0.  0.
         24    2    3    3    0    0 -0.46700415093E+02  0.38856158156E+02 -0.12790608686E+03  0.16304601943E+03  0.80828878499E+02 0.  0.
         -6    2    1    2    0  503  0.54200893316E+02 -0.95595011770E+02  0.29974712807E+02  0.20718420193E+03  0.17306261009E+03 0.  0.
        -24    2    5    5    0    0  0.79012667706E+02 -0.82278477121E+02 -0.28037116122E+02  0.14252806116E+03  0.80718144697E+02 0.  0.
          2    1    4    4  501    0 -0.31861948543E+02  0.18323245842E+02 -0.44567865344E+01  0.37024154944E+02  0.00000000000E+00 0. -1.
         -1    1    4    4    0  501 -0.14838466550E+02  0.20532912314E+02 -0.12344930032E+03  0.12602186448E+03  0.00000000000E+00 0.  1.
          5    1    3    3  502    0 -0.75004782234E+01  0.56738853615E+02 -0.37535913290E+03  0.37972637956E+03  0.47000000000E+01 0. -1.
         13    1    6    6    0    0  0.20764804155E+01 -0.41568986796E+02 -0.36123112789E+02  0.55110540841E+02  0.00000000000E+00 0. -1.
        -14    1    6    6    0    0  0.76936187291E+02 -0.40709490326E+02  0.80859966679E+01  0.87417520323E+02  0.00000000000E+00 0.  1.
         -5    1    5    5    0  503 -0.24811774390E+02 -0.13316534649E+02  0.58011828929E+02  0.64656140769E+02  0.47000000000E+01 0.  1.
<mgrwt>
<rscale>  2 0.20457395E+03</rscale>
<asrwt>0</asrwt>
<pdfrwt beam="1">  1       21 0.21282007E-01 0.20500441E+03</pdfrwt>
<pdfrwt beam="2">  1       21 0.94095933E-01 0.20500441E+03</pdfrwt>
<totfact> 0.19315502E+04</totfact>
</mgrwt>
</event>
<event>
12    1  0.2762290E-001  0.2283835E+03  0.7546771E-02  0.1128248E+00
         21   -1    0    0  504  503  0.00000000000E+00  0.00000000000E+00  0.65264371309E+03  0.65264371309E+03  0.00000000000E+00 0. -1.
         21   -1    0    0  502  504 -0.00000000000E+00 -0.00000000000E+00 -0.13673011250E+03  0.13673011250E+03  0.00000000000E+00 0.  1.
          6    2    1    2  502    0 -0.12842917376E+03 -0.69611235502E+02  0.66657845459E+00  0.22577955665E+03  0.17215163982E+03 0.  0.
         24    2    3    3    0    0 -0.97767437294E+02 -0.36914887161E+01 -0.50938905110E+02  0.13650038196E+03  0.80408229287E+02 0.  0.
         -6    2    1    2    0  503  0.12842917376E+03  0.69611235502E+02  0.51524702213E+03  0.56359426895E+03  0.17555406402E+03 0.  0.
        -24    2    5    5    0    0  0.66203485781E+01  0.66223749965E+02  0.20554697413E+03  0.23075034955E+03  0.81035493254E+02 0.  0.
          2    1    4    4  501    0 -0.10464618106E+03  0.91686194797E+01 -0.26987891800E+02  0.10845843949E+03  0.00000000000E+00 0. -1.
         -1    1    4    4    0  501  0.68787437663E+01 -0.12860108196E+02 -0.23951013310E+02  0.28041942464E+02  0.00000000000E+00 0.  1.
          5    1    3    3  502    0 -0.30661736462E+02 -0.65919746786E+02  0.51605483565E+02  0.89279174689E+02  0.47000000000E+01 0. -1.
         11    1    6    6    0    0 -0.17634198194E+00  0.46802943185E+02  0.20488617299E+03  0.21016396092E+03  0.00000000000E+00 0. -1.
        -12    1    6    6    0    0  0.67966905601E+01  0.19420806780E+02  0.66080114171E+00  0.20586388627E+02  0.00000000000E+00 0.  1.
         -5    1    5    5    0  503  0.12180882518E+03  0.33874855363E+01  0.30970004800E+03  0.33284391940E+03  0.47000000000E+01 0.  1.
<mgrwt>
<rscale>  2 0.22772944E+03</rscale>
<asrwt>0</asrwt>
<pdfrwt beam="1">  1       21 0.10040672E+00 0.22838346E+03</pdfrwt>
<pdfrwt beam="2">  1       21 0.21035402E-01 0.22838346E+03</pdfrwt>
<totfact> 0.16706249E+04</totfact>
</mgrwt>
</event>
<event>
12    1  0.2762290E-001  0.2835049E+03  0.7546771E-02  0.1094111E+00
         21   -1    0    0  504  503  0.00000000000E+00  0.00000000000E+00  0.61631612499E+03  0.61631612499E+03  0.00000000000E+00 0.  1.
         21   -1    0    0  502  504 -0.00000000000E+00 -0.00000000000E+00 -0.13815801113E+03  0.13815801113E+03  0.00000000000E+00 0.  1.
          6    2    1    2  502    0  0.36612559702E+02 -0.21883215138E+03  0.33355322132E+03  0.43622014088E+03  0.17263333934E+03 0.  0.
         24    2    3    3    0    0  0.78265470973E+02 -0.19881065479E+03  0.30714671879E+03  0.38278589419E+03  0.80837946077E+02 0.  0.
         -6    2    1    2    0  503 -0.36612559702E+02  0.21883215138E+03  0.14460489255E+03  0.31825399524E+03  0.17648524169E+03 0.  0.
        -24    2    5    5    0    0  0.31718124959E+02  0.82361113320E+02  0.16815960694E+02  0.11914214778E+03  0.78247571243E+02 0.  0.
          2    1    4    4  501    0 -0.12102488756E+02 -0.60945442145E+02  0.65645622935E+02  0.90388964829E+02  0.00000000000E+00 0. -1.
         -1    1    4    4    0  501  0.90367959729E+02 -0.13786521265E+03  0.24150109585E+03  0.29239692937E+03  0.00000000000E+00 0.  1.
          5    1    3    3  502    0 -0.41652911271E+02 -0.20021496586E+02  0.26406502528E+02  0.53434246684E+02  0.47000000000E+01 0. -1.
         11    1    6    6    0    0  0.26474957228E+02 -0.64636930533E+01  0.12702953938E+02  0.30067719016E+02  0.00000000000E+00 0. -1.
        -12    1    6    6    0    0  0.52431677315E+01  0.88824806373E+02  0.41130067561E+01  0.89074428764E+02  0.00000000000E+00 0.  1.
         -5    1    5    5    0  503 -0.68330684661E+02  0.13647103806E+03  0.12778893185E+03  0.19911184746E+03  0.47000000000E+01 0.  1.
<mgrwt>
<rscale>  2 0.28290760E+03</rscale>
<asrwt>0</asrwt>
<pdfrwt beam="1">  1       21 0.94817864E-01 0.28350490E+03</pdfrwt>
<pdfrwt beam="2">  1       21 0.21255079E-01 0.28350490E+03</pdfrwt>
<totfact> 0.18259389E+04</totfact>
</mgrwt>
</event>
<event>
12    1  0.2762290E-001  0.2204642E+03  0.7546771E-02  0.1133566E+00
         21   -1    0    0  504  503  0.00000000000E+00  0.00000000000E+00  0.10075604679E+03  0.10075604679E+03  0.00000000000E+00 0.  1.
         21   -1    0    0  502  504 -0.00000000000E+00 -0.00000000000E+00 -0.48980237153E+03  0.48980237153E+03  0.00000000000E+00 0.  1.
          6    2    1    2  502    0 -0.54073658340E+02  0.12553019576E+03 -0.15747317872E+03  0.27092855146E+03  0.17298175455E+03 0.  0.
         24    2    3    3    0    0 -0.96955009019E+02  0.12343193256E+03 -0.12828562100E+03  0.21880162493E+03  0.82348252952E+02 0.  0.
         -6    2    1    2    0  503  0.54073658340E+02 -0.12553019576E+03 -0.23157314603E+03  0.31962986685E+03  0.17278697651E+03 0.  0.
        -24    2    5    5    0    0 -0.20890558940E+02 -0.58346323394E+02 -0.17731108744E+03  0.20517565077E+03  0.82565834540E+02 0.  0.
          4    1    4    4  501    0 -0.66891342112E+02  0.92319251755E+02 -0.13312186871E+03  0.17526758920E+03  0.00000000000E+00 0. -1.
         -3    1    4    4    0  501 -0.30063666907E+02  0.31112680808E+02  0.48362477075E+01  0.43534035729E+02  0.00000000000E+00 0.  1.
          5    1    3    3  502    0  0.42881350679E+02  0.20982631927E+01 -0.29187557715E+02  0.52126926534E+02  0.47000000000E+01 0. -1.
         11    1    6    6    0    0 -0.22482832972E+02 -0.78651818544E+02 -0.12904579980E+03  0.15278875870E+03  0.00000000000E+00 0. -1.
        -12    1    6    6    0    0  0.15922740325E+01  0.20305495150E+02 -0.48265287637E+02  0.52386892068E+02  0.00000000000E+00 0.  1.
         -5    1    5    5    0  503  0.74964217280E+02 -0.67183872363E+02 -0.54262058590E+02  0.11445421609E+03  0.47000000000E+01 0.  1.
<mgrwt>
<rscale>  2 0.22042602E+03</rscale>
<asrwt>0</asrwt>
<pdfrwt beam="1">  1       21 0.15500930E-01 0.22046423E+03</pdfrwt>
<pdfrwt beam="2">  1       21 0.75354211E-01 0.22046423E+03</pdfrwt>
<totfact> 0.57379001E+04</totfact>
</mgrwt>
</event>
<event>
12    1  0.2762290E-001  0.1757508E+03  0.7546771E-02  0.1172901E+00
         21   -1    0    0  504  503  0.00000000000E+00  0.00000000000E+00  0.18656075746E+03  0.18656075746E+03  0.00000000000E+00 0. -1.
         21   -1    0    0  502  504 -0.00000000000E+00 -0.00000000000E+00 -0.16571664191E+03  0.16571664191E+03  0.00000000000E+00 0. -1.
          6    2    1    2  502    0 -0.70807740105E+01  0.37771275726E+02  0.36158814160E+02  0.17586065764E+03  0.16775787443E+03 0.  0.
         24    2    3    3    0    0  0.58229727682E+02  0.68889129898E+01  0.21734912783E+02  0.10204114199E+03  0.80633925353E+02 0.  0.
         -6    2    1    2    0  503  0.70807740105E+01 -0.37771275726E+02 -0.15314698613E+02  0.17641674173E+03  0.17149787211E+03 0.  0.
        -24    2    5    5    0    0 -0.49281193314E+02 -0.57321509684E+02  0.18150691157E+02  0.10785359331E+03  0.74756662003E+02 0.  0.
          2    1    4    4  501    0  0.44403585657E+02  0.37024926676E+02 -0.69083840962E+01  0.58225848086E+02  0.00000000000E+00 0. -1.
         -1    1    4    4    0  501  0.13826142025E+02 -0.30136013686E+02  0.28643296880E+02  0.43815293909E+02  0.00000000000E+00 0.  1.
          5    1    3    3  502    0 -0.65310501693E+02  0.30882362736E+02  0.14423901377E+02  0.73819515648E+02  0.47000000000E+01 0. -1.
         13    1    6    6    0    0  0.10351087497E+02 -0.32300207174E+02 -0.12680594545E+02  0.36211129144E+02  0.00000000000E+00 0. -1.
        -14    1    6    6    0    0 -0.59632280810E+02 -0.25021302509E+02  0.30831285701E+02  0.71642464167E+02  0.00000000000E+00 0.  1.
         -5    1    5    5    0  503  0.56361967324E+02  0.19550233958E+02 -0.33465389769E+02  0.68563148417E+02  0.47000000000E+01 0.  1.
<mgrwt>
<rscale>  2 0.17483168E+03</rscale>
<asrwt>0</asrwt>
<pdfrwt beam="1">  1       21 0.28701655E-01 0.17575075E+03</pdfrwt>
<pdfrwt beam="2">  1       21 0.25494868E-01 0.17575075E+03</pdfrwt>
<totfact> 0.17031462E+05</totfact>
</mgrwt>
</event>
<event>
12    1  0.2762290E-001  0.2833151E+03  0.7546771E-02  0.1094045E+00
         21   -1    0    0  504  503  0.00000000000E+00  0.00000000000E+00  0.36283720780E+03  0.36283720780E+03  0.00000000000E+00 0.  1.
         21   -1    0    0  502  504 -0.00000000000E+00 -0.00000000000E+00 -0.22038137500E+03  0.22038137500E+03  0.00000000000E+00 0. -1.
          6    2    1    2  502    0  0.60881493131E+02  0.21443373135E+03  0.66795367721E+02  0.28997472312E+03  0.17301831566E+03 0.  0.
         24    2    3    3    0    0  0.10673630800E+03  0.13602446656E+03  0.63277378807E+02  0.19895196169E+03  0.75382766220E+02 0.  0.
         -6    2    1    2    0  503 -0.60881493131E+02 -0.21443373135E+03  0.75660465084E+02  0.29324385968E+03  0.17486873338E+03 0.  0.
        -24    2    5    5    0    0 -0.33989997945E+02 -0.19940540027E+03  0.72869638892E+01  0.21810379770E+03  0.81230124392E+02 0.  0.
          4    1    4    4  501    0  0.11383899158E+03  0.13596967131E+03  0.50584377749E+02  0.18440674281E+03  0.00000000000E+00 0. -1.
         -3    1    4    4    0  501 -0.71026835775E+01  0.54795249408E-01  0.12693001058E+02  0.14545218884E+02  0.00000000000E+00 0.  1.
          5    1    3    3  502    0 -0.45854814873E+02  0.78409264793E+02  0.35179889134E+01  0.91022761431E+02  0.47000000000E+01 0. -1.
         13    1    6    6    0    0  0.23012491473E+02 -0.10652677821E+03  0.51988249843E+01  0.10910800621E+03  0.00000000000E+00 0. -1.
        -14    1    6    6    0    0 -0.57002489418E+02 -0.92878622067E+02  0.20881389049E+01  0.10899579148E+03  0.00000000000E+00 0.  1.
         -5    1    5    5    0  503 -0.26891495186E+02 -0.15028331080E+02  0.68373501195E+02  0.75140061978E+02  0.47000000000E+01 0.  1.
<mgrwt>
<rscale>  2 0.28303010E+03</rscale>
<asrwt>0</asrwt>
<pdfrwt beam="1">  1       21 0.55821109E-01 0.28331512E+03</pdfrwt>
<pdfrwt beam="2">  1       21 0.33904827E-01 0.28331512E+03</pdfrwt>
<totfact> 0.24232608E+04</totfact>
</mgrwt>
</event>
<event>
12    1  0.2762290E-001  0.2109159E+03  0.7546771E-02  0.1141662E+00
         21   -1    0    0  504  503  0.00000000000E+00  0.00000000000E+00  0.72133794232E+03  0.72133794232E+03  0.00000000000E+00 0.  1.
         21   -1    0    0  502  504 -0.00000000000E+00 -0.00000000000E+00 -0.73618489920E+02  0.73618489920E+02  0.00000000000E+00 0. -1.
          6    2    1    2  502    0  0.89826028446E+02  0.80118234315E+02  0.15852481291E+03  0.26384774088E+03  0.17319892379E+03 0.  0.
         24    2    3    3    0    0  0.74154463578E+02  0.38841074743E+00  0.34284693851E+02  0.11532117795E+03  0.81391022355E+02 0.  0.
         -6    2    1    2    0  503 -0.89826028446E+02 -0.80118234315E+02  0.48919463948E+03  0.53110869136E+03  0.16815885310E+03 0.  0.
        -24    2    5    5    0    0 -0.84390046954E+01  0.93286307288E+01  0.16550474002E+03  0.18553405352E+03  0.82902508371E+02 0.  0.
          2    1    4    4  501    0  0.36387569969E+02  0.39415309300E+02  0.56896457290E+01  0.53944359520E+02  0.00000000000E+00 0. -1.
         -1    1    4    4    0  501  0.37766893609E+02 -0.39026898553E+02  0.28595048123E+02  0.61376818431E+02  0.00000000000E+00 0.  1.
          5    1    3    3  502    0  0.15671564868E+02  0.79729823568E+02  0.12424011906E+03  0.14852656293E+03  0.47000000000E+01 0. -1.
         13    1    6    6    0    0 -0.22154354472E+02 -0.25135131523E+02  0.12978041263E+03  0.13403561378E+03  0.00000000000E+00 0. -1.
        -14    1    6    6    0    0  0.13715349777E+02  0.34463762252E+02  0.35724327391E+02  0.51498439739E+02  0.00000000000E+00 0.  1.
         -5    1    5    5    0  503 -0.81387023751E+02 -0.89446865044E+02  0.32368989946E+03  0.34557463783E+03  0.47000000000E+01 0.  1.
<mgrwt>
<rscale>  2 0.20987857E+03</rscale>
<asrwt>0</asrwt>
<pdfrwt beam="1">  1       21 0.11097506E+00 0.21091589E+03</pdfrwt>
<pdfrwt beam="2">  1       21 0.11325922E-01 0.21091589E+03</pdfrwt>
<totfact> 0.41186767E+04</totfact>
</mgrwt>
</event>
<event>
12    1  0.2762290E-001  0.2293391E+03  0.7546771E-02  0.1127125E+00
         21   -1    0    0  504  503  0.00000000000E+00  0.00000000000E+00  0.88302500304E+02  0.88302500304E+02  0.00000000000E+00 0. -1.
         21   -1    0    0  502  504 -0.00000000000E+00 -0.00000000000E+00 -0.12520750539E+04  0.12520750539E+04  0.00000000000E+00 0.  1.
          6    2    1    2  502    0 -0.14058912866E+03 -0.56901533612E+02 -0.10671897299E+04  0.10915308963E+04  0.17187987214E+03 0.  0.
         24    2    3    3    0    0 -0.45987097504E+02 -0.29572128630E+02 -0.81471142718E+03  0.82048878888E+03  0.80360557293E+02 0.  0.
         -6    2    1    2    0  503  0.14058912866E+03  0.56901533612E+02 -0.96582823690E+02  0.24884665785E+03  0.17202711899E+03 0.  0.
        -24    2    5    5    0    0  0.13712828021E+03  0.16475691696E+02 -0.12042227310E+03  0.20155357681E+03  0.83944665195E+02 0.  0.
          4    1    4    4  501    0  0.19877429066E+02 -0.19549477064E+02 -0.16151897402E+03  0.16390751419E+03  0.00000000000E+00 0. -1.
         -3    1    4    4    0  501 -0.65864526570E+02 -0.10022651566E+02 -0.65319245316E+03  0.65658127469E+03  0.00000000000E+00 0.  1.
          5    1    3    3  502    0 -0.94602031157E+02 -0.27329404982E+02 -0.25247830272E+03  0.27104210746E+03  0.47000000000E+01 0. -1.
         11    1    6    6    0    0  0.62875180574E+02  0.20952998251E+02 -0.10715153451E+03  0.12599114181E+03  0.00000000000E+00 0. -1.
        -12    1    6    6    0    0  0.74253099633E+02 -0.44773065551E+01 -0.13270738593E+02  0.75562434992E+02  0.00000000000E+00 0.  1.
         -5    1    5    5    0  503  0.34608484536E+01  0.40425841916E+02  0.23839449412E+02  0.47293081047E+02  0.47000000000E+01 0.  1.
<mgrwt>
<rscale>  2 0.22931148E+03</rscale>
<asrwt>0</asrwt>
<pdfrwt beam="1">  1       21 0.13585001E-01 0.22933909E+03</pdfrwt>
<pdfrwt beam="2">  1       21 0.19262692E+00 0.22933909E+03</pdfrwt>
<totfact> 0.68283389E+03</totfact>
</mgrwt>
</event>
<event>
12    1  0.2762290E-001  0.2443608E+03  0.7546771E-02  0.1117136E+00
         21   -1    0    0  504  503  0.00000000000E+00  0.00000000000E+00  0.67558748845E+03  0.67558748845E+03  0.00000000000E+00 0.  1.
         21   -1    0    0  502  504 -0.00000000000E+00 -0.00000000000E+00 -0.90275418219E+02  0.90275418219E+02  0.00000000000E+00 0.  1.
          6    2    1    2  502    0 -0.17062157154E+03 -0.17613206998E+01  0.35386734264E+03  0.42929365829E+03  0.17307838090E+03 0.  0.
         24    2    3    3    0    0 -0.18082096313E+03  0.13711740440E+02  0.23130787683E+03  0.30525190778E+03  0.82408499494E+02 0.  0.
         -6    2    1    2    0  503  0.17062157154E+03  0.17613206998E+01  0.23144472759E+03  0.33656924837E+03  0.17492105104E+03 0.  0.
        -24    2    5    5    0    0  0.11689555037E+03  0.50129720199E+02  0.21484927205E+03  0.26224908579E+03  0.80229762300E+02 0.  0.
          4    1    4    4  501    0 -0.96009394734E+02 -0.25802873749E+02  0.81161528741E+02  0.12833855975E+03  0.00000000000E+00 0. -1.
         -3    1    4    4    0  501 -0.84811568393E+02  0.39514614189E+02  0.15014634809E+03  0.17691334803E+03  0.00000000000E+00 0.  1.
          5    1    3    3  502    0  0.10199391587E+02 -0.15473061140E+02  0.12255946581E+03  0.12404175051E+03  0.47000000000E+01 0. -1.
         13    1    6    6    0    0  0.85790672714E+02  0.42707279531E+02  0.83639641886E+02  0.12719882446E+03  0.00000000000E+00 0. -1.
        -14    1    6    6    0    0  0.31104877651E+02  0.74224406681E+01  0.13120963016E+03  0.13505026133E+03  0.00000000000E+00 0.  1.
         -5    1    5    5    0  503  0.53726021175E+02 -0.48368399499E+02  0.16595455542E+02  0.74320162581E+02  0.47000000000E+01 0.  1.
<mgrwt>
<rscale>  2 0.24403122E+03</rscale>
<asrwt>0</asrwt>
<pdfrwt beam="1">  1       21 0.10393653E+00 0.24436079E+03</pdfrwt>
<pdfrwt beam="2">  1       21 0.13888526E-01 0.24436079E+03</pdfrwt>
<totfact> 0.32877144E+04</totfact>
</mgrwt>
</event>
<event>
12    1  0.2762290E-001  0.2331151E+03  0.7546771E-02  0.1124484E+00
         21   -1    0    0  504  503  0.00000000000E+00  0.00000000000E+00  0.10216025245E+03  0.10216025245E+03  0.00000000000E+00 0. -1.
         21   -1    0    0  502  504 -0.00000000000E+00 -0.00000000000E+00 -0.53817896371E+03  0.53817896371E+03  0.00000000000E+00 0.  1.
          6    2    1    2  502    0 -0.84461088388E+02  0.13116896999E+03 -0.18293884334E+03  0.29632629423E+03  0.17321569821E+03 0.  0.
         24    2    3    3    0    0 -0.87969123960E+02  0.19050131031E+02 -0.92436534705E+02  0.15211915768E+03  0.80586915325E+02 0.  0.
         -6    2    1    2    0  503  0.84461088388E+02 -0.13116896999E+03 -0.25307986791E+03  0.34401292193E+03  0.17307945220E+03 0.  0.
        -24    2    5    5    0    0  0.15418024547E+01 -0.63612122888E+02 -0.20026496741E+03  0.22463520506E+03  0.79410571390E+02 0.  0.
          4    1    4    4  501    0 -0.58949734615E+01  0.32307413233E+01 -0.63218277425E+02  0.63574672647E+02  0.00000000000E+00 0. -1.
         -3    1    4    4    0  501 -0.82074150499E+02  0.15819389708E+02 -0.29218257280E+02  0.88544485030E+02  0.00000000000E+00 0.  1.
          5    1    3    3  502    0  0.35080355720E+01  0.11211883896E+03 -0.90502308637E+02  0.14420713655E+03  0.47000000000E+01 0. -1.
         11    1    6    6    0    0 -0.16789794832E+02 -0.75288606815E+02 -0.13082347800E+03  0.15187183387E+03  0.00000000000E+00 0. -1.
        -12    1    6    6    0    0  0.18331597287E+02  0.11676483927E+02 -0.69441489408E+02  0.72763371192E+02  0.00000000000E+00 0.  1.
         -5    1    5    5    0  503  0.82919285933E+02 -0.67556847105E+02 -0.52814900505E+02  0.11937771687E+03  0.47000000000E+01 0.  1.
<mgrwt>
<rscale>  2 0.23308980E+03</rscale>
<asrwt>0</asrwt>
<pdfrwt beam="1">  1       21 0.15716962E-01 0.23311511E+03</pdfrwt>
<pdfrwt beam="2">  1       21 0.82796763E-01 0.23311511E+03</pdfrwt>
<totfact> 0.44941179E+04</totfact>
</mgrwt>
</event>
<event>
12    1  0.2762290E-001  0.1874745E+03  0.7546771E-02  0.1160946E+00
         21   -1    0    0  504  503  0.00000000000E+00  0.00000000000E+00  0.32509367498E+03  0.32509367498E+03  0.00000000000E+00 0. -1.
         21   -1    0    0  502  504 -0.00000000000E+00 -0.00000000000E+00 -0.13785835197E+03  0.13785835197E+03  0.00000000000E+00 0. -1.
          6    2    1    2  502    0  0.71423548628E+02  0.76528212489E+01 -0.14588943249E+02  0.18804124641E+03  0.17316692558E+03 0.  0.
         24    2    3    3    0    0  0.13183016548E+01 -0.25118359420E+02 -0.53977624115E+02  0.10108002450E+03  0.81675685174E+02 0.  0.
         -6    2    1    2    0  503 -0.71423548628E+02 -0.76528212489E+01  0.20182426626E+03  0.27491078055E+03  0.17228759050E+03 0.  0.
        -24    2    5    5    0    0 -0.80683130010E+02  0.43733912329E+02  0.18185936602E+03  0.21881244299E+03  0.79897644786E+02 0.  0.
          4    1    4    4  501    0  0.40990433692E+02 -0.11328978539E+02 -0.34603048527E+02  0.54826383944E+02  0.00000000000E+00 0. -1.
         -3    1    4    4    0  501 -0.39672132038E+02 -0.13789380881E+02 -0.19374575588E+02  0.46253640556E+02  0.00000000000E+00 0.  1.
          5    1    3    3  502    0  0.70105246973E+02  0.32771180669E+02  0.39388680866E+02  0.86961221909E+02  0.47000000000E+01 0. -1.
         11    1    6    6    0    0 -0.73452355953E+01 -0.19110293366E+02  0.59532145105E+02  0.62954206367E+02  0.00000000000E+00 0. -1.
        -12    1    6    6    0    0 -0.73337894414E+02  0.62844205694E+02  0.12232722092E+03  0.15585823663E+03  0.00000000000E+00 0.  1.
         -5    1    5    5    0  503  0.92595813817E+01 -0.51386733577E+02  0.19964900234E+02  0.56098337555E+02  0.47000000000E+01 0.  1.
<mgrwt>
<rscale>  2 0.18727115E+03</rscale>
<asrwt>0</asrwt>
<pdfrwt beam="1">  1       21 0.50014411E-01 0.18747446E+03</pdfrwt>
<pdfrwt beam="2">  1       21 0.21208977E-01 0.18747446E+03</pdfrwt>
<totfact> 0.78919305E+04</totfact>
</mgrwt>
</event>
<event>
12    1  0.2762290E-001  0.2544681E+03  0.7546771E-02  0.1110739E+00
         21   -1    0    0  504  503  0.00000000000E+00  0.00000000000E+00  0.83091089657E+03  0.83091089657E+03  0.00000000000E+00 0. -1.
         21   -1    0    0  502  504 -0.00000000000E+00 -0.00000000000E+00 -0.11836255861E+03  0.11836255861E+03  0.00000000000E+00 0.  1.
          6    2    1    2  502    0 -0.17527386729E+03 -0.60247867423E+02  0.63586768841E+03  0.68489540597E+03  0.17436532302E+03 0.  0.
         24    2    3    3    0    0 -0.10944192186E+03 -0.10510285915E+03  0.38285307353E+03  0.41959500894E+03  0.80370083691E+02 0.  0.
         -6    2    1    2    0  503  0.17527386729E+03  0.60247867423E+02  0.76680649550E+02  0.26437804921E+03  0.17223558519E+03 0.  0.
        -24    2    5    5    0    0  0.68415963474E+02  0.86276209426E+02  0.11457975224E+02  0.13642425505E+03  0.79724298665E+02 0.  0.
          2    1    4    4  501    0 -0.65144184599E+02 -0.10814174065E+03  0.30255441479E+03  0.32783772627E+03  0.00000000000E+00 0. -1.
         -1    1    4    4    0  501 -0.44297737264E+02  0.30388814938E+01  0.80298658740E+02  0.91757282670E+02  0.00000000000E+00 0.  1.
          5    1    3    3  502    0 -0.65831945425E+02  0.44854991729E+02  0.25301461488E+03  0.26530039703E+03  0.47000000000E+01 0. -1.
         11    1    6    6    0    0  0.25710467370E+02  0.33512669314E+02 -0.34425780907E+02  0.54490930695E+02  0.00000000000E+00 0. -1.
        -12    1    6    6    0    0  0.42705496103E+02  0.52763540111E+02  0.45883756130E+02  0.81933324350E+02  0.00000000000E+00 0.  1.
         -5    1    5    5    0  503  0.10685790381E+03 -0.26028342002E+02  0.65222674327E+02  0.12795379416E+03  0.47000000000E+01 0.  1.
<mgrwt>
<rscale>  2 0.25410365E+03</rscale>
<asrwt>0</asrwt>
<pdfrwt beam="1">  1       21 0.12783244E+00 0.25446807E+03</pdfrwt>
<pdfrwt beam="2">  1       21 0.18209625E-01 0.25446807E+03</pdfrwt>
<totfact> 0.11915737E+04</totfact>
</mgrwt>
</event>
<event>
12    1  0.2762290E-001  0.2518117E+03  0.7546771E-02  0.1112286E+00
         21   -1    0    0  504  503  0.00000000000E+00  0.00000000000E+00  0.34643515425E+02  0.34643515425E+02  0.00000000000E+00 0.  1.
         21   -1    0    0  502  504 -0.00000000000E+00 -0.00000000000E+00 -0.20013167919E+04  0.20013167919E+04  0.00000000000E+00 0. -1.
          6    2    1    2  502    0  0.10975127866E+03 -0.14544232967E+03 -0.12870887479E+04  0.13114902048E+04  0.17381109845E+03 0.  0.
         24    2    3    3    0    0  0.12207548186E+03 -0.95779276906E+02 -0.11791247832E+04  0.11919217622E+04  0.79158952233E+02 0.  0.
         -6    2    1    2    0  503 -0.10975127866E+03  0.14544232967E+03 -0.67958452855E+03  0.72447010248E+03  0.17269332215E+03 0.  0.
        -24    2    5    5    0    0 -0.14382995468E+03  0.13718998629E+03 -0.58883556509E+03  0.62706927240E+03  0.83548796961E+02 0.  0.
          4    1    4    4  501    0  0.11749963954E+02 -0.51542194495E+02 -0.46173362294E+03  0.46475003822E+03  0.00000000000E+00 0. -1.
         -3    1    4    4    0  501  0.11032551791E+03 -0.44237082411E+02 -0.71739116028E+03  0.72717172401E+03  0.00000000000E+00 0.  1.
          5    1    3    3  502    0 -0.12324203204E+02 -0.49663052762E+02 -0.10796396468E+03  0.11956844259E+03  0.47000000000E+01 0. -1.
         13    1    6    6    0    0 -0.27425047298E+02 -0.11127176544E+01 -0.35000083852E+02  0.44478952658E+02  0.00000000000E+00 0. -1.
        -14    1    6    6    0    0 -0.11640490738E+03  0.13830270394E+03 -0.55383548124E+03  0.58259031975E+03  0.00000000000E+00 0.  1.
         -5    1    5    5    0  503  0.34078676022E+02  0.82523433785E+01 -0.90748963456E+02  0.97400830073E+02  0.47000000000E+01 0.  1.
<mgrwt>
<rscale>  2 0.25161888E+03</rscale>
<asrwt>0</asrwt>
<pdfrwt beam="1">  1       21 0.53297703E-02 0.25181166E+03</pdfrwt>
<pdfrwt beam="2">  1       21 0.30789497E+00 0.25181166E+03</pdfrwt>
<totfact> 0.69931672E+03</totfact>
</mgrwt>
</event>
<event>
12    1  0.2762290E-001  0.2335958E+03  0.7546771E-02  0.1124237E+00
         21   -1    0    0  504  503  0.00000000000E+00  0.00000000000E+00  0.37898324429E+03  0.37898324429E+03  0.00000000000E+00 0.  1.
         21   -1    0    0  502  504 -0.00000000000E+00 -0.00000000000E+00 -0.15001469239E+03  0.15001469239E+03  0.00000000000E+00 0. -1.
          6    2    1    2  502    0 -0.13513838771E+03  0.79056791544E+02  0.16925349722E+03  0.28846792631E+03  0.17336273551E+03 0.  0.
         24    2    3    3    0    0 -0.34555309835E+02  0.95821154910E+02  0.10690303270E+03  0.16885325388E+03  0.81898716594E+02 0.  0.
         -6    2    1    2    0  503  0.13513838771E+03 -0.79056791544E+02  0.59715054675E+02  0.24053001038E+03  0.17255850607E+03 0.  0.
        -24    2    5    5    0    0  0.75555942237E+02 -0.44845079203E+02  0.10346380069E+03  0.15894231617E+03  0.82692927627E+02 0.  0.
          4    1    4    4  501    0 -0.17151042774E+02  0.73100059923E+02  0.20500111460E+02  0.77833357879E+02  0.00000000000E+00 0. -1.
         -3    1    4    4    0  501 -0.17404267061E+02  0.22721094988E+02  0.86402921239E+02  0.91019896001E+02  0.00000000000E+00 0.  1.
          5    1    3    3  502    0 -0.10058307787E+03 -0.16764363366E+02  0.62350464523E+02  0.11961467242E+03  0.47000000000E+01 0. -1.
         13    1    6    6    0    0  0.46127653123E+02  0.17184974347E+02  0.60315445869E+02  0.77852660432E+02  0.00000000000E+00 0. -1.
        -14    1    6    6    0    0  0.29428289114E+02 -0.62030053550E+02  0.43148354820E+02  0.81089655735E+02  0.00000000000E+00 0.  1.
         -5    1    5    5    0  503  0.59582445469E+02 -0.34211712341E+02 -0.43748746014E+02  0.81587694214E+02  0.47000000000E+01 0.  1.
<mgrwt>
<rscale>  2 0.23344660E+03</rscale>
<asrwt>0</asrwt>
<pdfrwt beam="1">  1       21 0.58305114E-01 0.23359580E+03</pdfrwt>
<pdfrwt beam="2">  1       21 0.23079184E-01 0.23359580E+03</pdfrwt>
<totfact> 0.47661096E+04</totfact>
</mgrwt>
</event>
<event>
12    1  0.2762290E-001  0.2299738E+03  0.7546771E-02  0.1126814E+00
         21   -1    0    0  504  503  0.00000000000E+00  0.00000000000E+00  0.11979996996E+04  0.11979996996E+04  0.00000000000E+00 0.  1.
         21   -1    0    0  502  504 -0.00000000000E+00 -0.00000000000E+00 -0.40308779811E+03  0.40308779811E+03  0.00000000000E+00 0.  1.
          6    2    1    2  502    0 -0.14356047282E+03  0.48430292341E+02 -0.35823990699E+03  0.42522736081E+03  0.17183531316E+03 0.  0.
         24    2    3    3    0    0 -0.13751596086E+03  0.84140524668E+02 -0.20401167261E+03  0.26673384328E+03  0.59463545215E+02 0.  0.
         -6    2    1    2    0  503  0.14356047282E+03 -0.48430292341E+02  0.11531518085E+04  0.11758601369E+04  0.17301117187E+03 0.  0.
        -24    2    5    5    0    0  0.99600199065E+01 -0.43617766831E+02  0.57624345695E+03  0.58364600546E+03  0.81144478741E+02 0.  0.
          2    1    4    4  501    0 -0.93585385076E+02  0.29783909319E+02 -0.91187074941E+02  0.13401637284E+03  0.00000000000E+00 0. -1.
         -1    1    4    4    0  501 -0.43930575785E+02  0.54356615350E+02 -0.11282459767E+03  0.13271747044E+03  0.00000000000E+00 0.  1.
          5    1    3    3  502    0 -0.60445119596E+01 -0.35710232327E+02 -0.15422823438E+03  0.15849351752E+03  0.47000000000E+01 0. -1.
         13    1    6    6    0    0  0.36113538725E+02 -0.46483214133E+02  0.27356269838E+03  0.27982392110E+03  0.00000000000E+00 0. -1.
        -14    1    6    6    0    0 -0.26153518818E+02  0.28654473015E+01  0.30268075857E+03  0.30382208436E+03  0.00000000000E+00 0.  1.
         -5    1    5    5    0  503  0.13360045291E+03 -0.48125255095E+01  0.57690835153E+03  0.59221413144E+03  0.47000000000E+01 0.  1.
<mgrwt>
<rscale>  2 0.22975270E+03</rscale>
<asrwt>0</asrwt>
<pdfrwt beam="1">  1       21 0.18430765E+00 0.22997384E+03</pdfrwt>
<pdfrwt beam="2">  1       21 0.62013508E-01 0.22997384E+03</pdfrwt>
<totfact> 0.39362077E+02</totfact>
</mgrwt>
</event>
<event>
12    1  0.2762290E-001  0.1832672E+03  0.7546771E-02  0.1165932E+00
         21   -1    0    0  504  503  0.00000000000E+00  0.00000000000E+00  0.38391457461E+02  0.38391457461E+02  0.00000000000E+00 0.  1.
         21   -1    0    0  502  504 -0.00000000000E+00 -0.00000000000E+00 -0.85302333304E+03  0.85302333304E+03  0.00000000000E+00 0.  1.
          6    2    1    2  502    0 -0.21698392090E+01  0.60249836893E+02 -0.42759970772E+03  0.46318497488E+03  0.16752331141E+03 0.  0.
         24    2    3    3    0    0 -0.21076946391E+02  0.80172058048E+02 -0.16974110589E+03  0.20382514350E+03  0.76556185466E+02 0.  0.
         -6    2    1    2    0  503  0.21698392090E+01 -0.60249836893E+02 -0.38703216786E+03  0.42822981562E+03  0.17306682229E+03 0.  0.
        -24    2    5    5    0    0  0.61832538333E+02 -0.20870742624E+02 -0.28527385517E+03  0.30378225665E+03  0.81508504569E+02 0.  0.
          2    1    4    4  501    0  0.79248848087E+01  0.69935161437E+02 -0.69271693953E+02  0.98753724930E+02  0.00000000000E+00 0. -1.
         -1    1    4    4    0  501 -0.29001831200E+02  0.10236896611E+02 -0.10046941194E+03  0.10507141857E+03  0.00000000000E+00 0.  1.
          5    1    3    3  502    0  0.18907107182E+02 -0.19922221155E+02 -0.25785860182E+03  0.25935983137E+03  0.47000000000E+01 0. -1.
         11    1    6    6    0    0 -0.17977629081E+02 -0.15776964727E+02 -0.53630199996E+02  0.58722279545E+02  0.00000000000E+00 0. -1.
        -12    1    6    6    0    0  0.79810167414E+02 -0.50937778978E+01 -0.23164365517E+03  0.24505997710E+03  0.00000000000E+00 0.  1.
         -5    1    5    5    0  503 -0.59662699124E+02 -0.39379094268E+02 -0.10175831269E+03  0.12444755897E+03  0.47000000000E+01 0.  1.
<mgrwt>
<rscale>  2 0.18194661E+03</rscale>
<asrwt>0</asrwt>
<pdfrwt beam="1">  1       21 0.59063783E-02 0.18326723E+03</pdfrwt>
<pdfrwt beam="2">  1       21 0.13123435E+00 0.18326723E+03</pdfrwt>
<totfact> 0.85863805E+04</totfact>
</mgrwt>
</event>
<event>
12    1  0.2762290E-001  0.1780723E+03  0.7546771E-02  0.1169757E+00
         21   -1    0    0  504  503  0.00000000000E+00  0.00000000000E+00  0.13870202240E+04  0.13870202240E+04  0.00000000000E+00 0.  1.
         21   -1    0    0  502  504 -0.00000000000E+00 -0.00000000000E+00 -0.22822437634E+02  0.22822437634E+02  0.00000000000E+00 0.  1.
          6    2    1    2  502    0  0.42404445377E+02  0.36765162416E+01  0.68334201355E+03  0.70616290285E+03  0.17291062466E+03 0.  0.
         24    2    3    3    0    0 -0.14991642034E+02  0.32129096935E+02  0.55625742925E+03  0.56376753156E+03  0.84584122892E+02 0.  0.
         -6    2    1    2    0  503 -0.42404445377E+02 -0.36765162416E+01  0.68085577278E+03  0.70367975875E+03  0.17259480230E+03 0.  0.
        -24    2    5    5    0    0 -0.87851435840E+01  0.30322472896E+02  0.17238086590E+03  0.19294008959E+03  0.80709876316E+02 0.  0.
          4    1    4    4  501    0 -0.74711579169E+01  0.32105572827E+02  0.55519457441E+03  0.55617227678E+03  0.00000000000E+00 0. -1.
         -3    1    4    4    0  501 -0.75204841172E+01  0.23524108449E-01  0.10628548406E+01  0.75952547787E+01  0.00000000000E+00 0.  1.
          5    1    3    3  502    0  0.57396087411E+02 -0.28452580694E+02  0.12708458430E+03  0.14239537129E+03  0.47000000000E+01 0. -1.
         11    1    6    6    0    0 -0.26529322216E+02 -0.11237888849E+02  0.22977059525E+02  0.36851598980E+02  0.00000000000E+00 0. -1.
        -12    1    6    6    0    0  0.17744178632E+02  0.41560361744E+02  0.14940380637E+03  0.15608849061E+03  0.00000000000E+00 0.  1.
         -5    1    5    5    0  503 -0.33619301793E+02 -0.33998989137E+02  0.50847490689E+03  0.51073966915E+03  0.47000000000E+01 0.  1.
<mgrwt>
<rscale>  2 0.17799557E+03</rscale>
<asrwt>0</asrwt>
<pdfrwt beam="1">  1       21 0.21338766E+00 0.17807228E+03</pdfrwt>
<pdfrwt beam="2">  1       21 0.35111453E-02 0.17807228E+03</pdfrwt>
<totfact> 0.54390741E+04</totfact>
</mgrwt>
</event>
<event>
12    1  0.2762290E-001  0.2401454E+03  0.7546771E-02  0.1120504E+00
         21   -1    0    0  504  503  0.00000000000E+00  0.00000000000E+00  0.67022412025E+03  0.67022412025E+03  0.00000000000E+00 0.  1.
         21   -1    0    0  502  504 -0.00000000000E+00 -0.00000000000E+00 -0.13654187351E+03  0.13654187351E+03  0.00000000000E+00 0. -1.
          6    2    1    2  502    0  0.11868512151E+03 -0.87362283432E+02  0.19080796556E+02  0.24090222397E+03  0.18960875002E+03 0.  0.
         24    2    3    3    0    0  0.15599002649E+03 -0.91889453349E+02 -0.63716133190E-02  0.19849277701E+03  0.81380725484E+02 0.  0.
         -6    2    1    2    0  503 -0.11868512151E+03  0.87362283432E+02  0.51460145018E+03  0.56586376979E+03  0.18349067223E+03 0.  0.
        -24    2    5    5    0    0 -0.38642966055E+02 -0.37363099078E+02  0.23237201681E+03  0.24705550334E+03  0.64423501438E+02 0.  0.
          2    1    4    4  501    0  0.14828288734E+03 -0.51259206410E+02 -0.40158854775E+01  0.15694409277E+03  0.00000000000E+00 0. -1.
         -1    1    4    4    0  501  0.77071391554E+01 -0.40630246938E+02  0.40095138642E+01  0.41548684235E+02  0.00000000000E+00 0.  1.
          5    1    3    3  502    0 -0.37304904984E+02  0.45271699167E+01  0.19087168169E+02  0.42409446967E+02  0.47000000000E+01 0. -1.
         11    1    6    6    0    0 -0.34578640257E+02 -0.39140708215E+02  0.86001423121E+02  0.10061770312E+03  0.00000000000E+00 0. -1.
        -12    1    6    6    0    0 -0.40643257975E+01  0.17776091367E+01  0.14637059368E+03  0.14643780022E+03  0.00000000000E+00 0.  1.
         -5    1    5    5    0  503 -0.80042155455E+02  0.12472538251E+03  0.28222943338E+03  0.31880826645E+03  0.47000000000E+01 0.  1.
<mgrwt>
<rscale>  2 0.23893612E+03</rscale>
<asrwt>0</asrwt>
<pdfrwt beam="1">  1       21 0.10311140E+00 0.24014538E+03</pdfrwt>
<pdfrwt beam="2">  1       21 0.21006443E-01 0.24014538E+03</pdfrwt>
<totfact> 0.15612114E+04</totfact>
</mgrwt>
</event>
<event>
12    1  0.2762290E-001  0.1814121E+03  0.7546771E-02  0.1166977E+00
         21   -1    0    0  504  503  0.00000000000E+00  0.00000000000E+00  0.52632984314E+03  0.52632984314E+03  0.00000000000E+00 0. -1.
         21   -1    0    0  502  504 -0.00000000000E+00 -0.00000000000E+00 -0.66265808573E+02  0.66265808573E+02  0.00000000000E+00 0. -1.
          6    2    1    2  502    0 -0.46308909348E+02 -0.17490689367E+02  0.30854596097E+03  0.35792593653E+03  0.17452772477E+03 0.  0.
         24    2    3    3    0    0 -0.98339971870E+02 -0.43233689104E+01  0.22079573124E+03  0.25495602533E+03  0.81008507777E+02 0.  0.
         -6    2    1    2    0  503  0.46308909348E+02  0.17490689367E+02  0.15151807360E+03  0.23466971518E+03  0.17222575097E+03 0.  0.
        -24    2    5    5    0    0  0.73460281606E+02 -0.31197968248E+02  0.13409890626E+03  0.17607534867E+03  0.81549282977E+02 0.  0.
          4    1    4    4  501    0 -0.36163309186E+01 -0.29277331455E+02  0.48901472719E+02  0.57110367015E+02  0.00000000000E+00 0. -1.
         -3    1    4    4    0  501 -0.94723640952E+02  0.24953962545E+02  0.17189425852E+03  0.19784565832E+03  0.00000000000E+00 0.  1.
          5    1    3    3  502    0  0.52031062523E+02 -0.13167320456E+02  0.87750229727E+02  0.10296991120E+03  0.47000000000E+01 0. -1.
         11    1    6    6    0    0 -0.14422186260E+02  0.94078521219E+01  0.22613870291E+02  0.28423480920E+02  0.00000000000E+00 0. -1.
        -12    1    6    6    0    0  0.87882467866E+02 -0.40605820370E+02  0.11148503597E+03  0.14765186775E+03  0.00000000000E+00 0.  1.
         -5    1    5    5    0  503 -0.27151372258E+02  0.48688657614E+02  0.17419167340E+02  0.58594366509E+02  0.47000000000E+01 0.  1.
<mgrwt>
<rscale>  2 0.18085622E+03</rscale>
<asrwt>0</asrwt>
<pdfrwt beam="1">  1       21 0.80973819E-01 0.18141214E+03</pdfrwt>
<pdfrwt beam="2">  1       21 0.10194740E-01 0.18141214E+03</pdfrwt>
<totfact> 0.10540725E+05</totfact>
</mgrwt>
</event>
<event>
12    1  0.2762290E-001  0.1882597E+03  0.7546771E-02  0.1160991E+00
         21   -1    0    0  504  503  0.00000000000E+00  0.00000000000E+00  0.11873651925E+03  0.11873651925E+03  0.00000000000E+00 0. -1.
         21   -1    0    0  502  504 -0.00000000000E+00 -0.00000000000E+00 -0.34369592008E+03  0.34369592008E+03  0.00000000000E+00 0. -1.
          6    2    1    2  502    0  0.34773939189E+02 -0.63211055451E+02 -0.20320301157E+03  0.27700754276E+03  0.17388746492E+03 0.  0.
         24    2    3    3    0    0 -0.27869223472E+02 -0.25233617791E+02 -0.17797667678E+03  0.19938725182E+03  0.81646491822E+02 0.  0.
         -6    2    1    2    0  503 -0.34773939189E+02  0.63211055451E+02 -0.21756389261E+02  0.18542489657E+03  0.16942310178E+03 0.  0.
        -24    2    5    5    0    0  0.48401233484E+01 -0.22295552745E+02  0.10998328234E+02  0.85546893413E+02  0.81711622689E+02 0.  0.
          4    1    4    4  501    0  0.47562003498E+01 -0.46591038893E+02 -0.12590551406E+03  0.13433370693E+03  0.00000000000E+00 0. -1.
         -3    1    4    4    0  501 -0.32625423822E+02  0.21357421101E+02 -0.52071162717E+02  0.65053544887E+02  0.00000000000E+00 0.  1.
          5    1    3    3  502    0  0.62643162661E+02 -0.37977437660E+02 -0.25226334795E+02  0.77620290946E+02  0.47000000000E+01 0. -1.
         11    1    6    6    0    0 -0.29157565481E+02  0.93697419048E+01  0.22114241011E+02  0.37775591904E+02  0.00000000000E+00 0. -1.
        -12    1    6    6    0    0  0.33997688830E+02 -0.31665294650E+02 -0.11115912777E+02  0.47771301509E+02  0.00000000000E+00 0.  1.
         -5    1    5    5    0  503 -0.39614062537E+02  0.85506608196E+02 -0.32754717496E+02  0.99878003155E+02  0.47000000000E+01 0.  1.
<mgrwt>
<rscale>  2 0.18722226E+03</rscale>
<asrwt>0</asrwt>
<pdfrwt beam="1">  1       21 0.18267157E-01 0.18825970E+03</pdfrwt>
<pdfrwt beam="2">  1       21 0.52876296E-01 0.18825970E+03</pdfrwt>
<totfact> 0.92757475E+04</totfact>
</mgrwt>
</event>
<event>
12    1  0.2762290E-001  0.1922579E+03  0.7546771E-02  0.1156458E+00
         21   -1    0    0  504  503  0.00000000000E+00  0.00000000000E+00  0.89722827552E+03  0.89722827552E+03  0.00000000000E+00 0. -1.
         21   -1    0    0  502  504 -0.00000000000E+00 -0.00000000000E+00 -0.26560780253E+03  0.26560780253E+03  0.00000000000E+00 0. -1.
          6    2    1    2  502    0  0.58923618425E+02 -0.60096112223E+02 -0.21862876260E+03  0.29113853601E+03  0.17285709647E+03 0.  0.
         24    2    3    3    0    0  0.96535294966E+01 -0.93012499111E+02 -0.10111947645E+03  0.15945120739E+03  0.80343160236E+02 0.  0.
         -6    2    1    2    0  503 -0.58923618425E+02  0.60096112223E+02  0.85024923559E+03  0.87169754205E+03  0.17276951896E+03 0.  0.
        -24    2    5    5    0    0  0.18298259060E+02 -0.10207551443E+02  0.29128088858E+03  0.30303813041E+03  0.80923000684E+02 0.  0.
          2    1    4    4  501    0 -0.15169568127E+01 -0.57950758770E+02 -0.10747091503E+03  0.12210892342E+03  0.00000000000E+00 0. -1.
         -1    1    4    4    0  501  0.11170486309E+02 -0.35061740341E+02  0.63514385804E+01  0.37342283971E+02  0.00000000000E+00 0.  1.
          5    1    3    3  502    0  0.49270088929E+02  0.32916386889E+02 -0.11750928614E+03  0.13168732862E+03  0.47000000000E+01 0. -1.
         11    1    6    6    0    0  0.10880026075E+02 -0.22040399827E+01  0.29189706469E+03  0.29210807784E+03  0.00000000000E+00 0. -1.
        -12    1    6    6    0    0  0.74182329851E+01 -0.80035114607E+01 -0.61617611277E+00  0.10930052576E+02  0.00000000000E+00 0.  1.
         -5    1    5    5    0  503 -0.77221877485E+02  0.70303663666E+02  0.55896834700E+03  0.56865941163E+03  0.47000000000E+01 0.  1.
<mgrwt>
<rscale>  2 0.19223824E+03</rscale>
<asrwt>0</asrwt>
<pdfrwt beam="1">  1       21 0.13803512E+00 0.19225793E+03</pdfrwt>
<pdfrwt beam="2">  1       21 0.40862739E-01 0.19225793E+03</pdfrwt>
<totfact> 0.21418594E+03</totfact>
</mgrwt>
</event>
<event>
12    1  0.2762290E-001  0.2032922E+03  0.7546771E-02  0.1147564E+00
         21   -1    0    0  504  503  0.00000000000E+00  0.00000000000E+00  0.17801856518E+04  0.17801856518E+04  0.00000000000E+00 0.  1.
         21   -1    0    0  502  504 -0.00000000000E+00 -0.00000000000E+00 -0.23689465943E+02  0.23689465943E+02  0.00000000000E+00 0.  1.
          6    2    1    2  502    0 -0.69282449397E+02 -0.77399310454E+02  0.70796392316E+03  0.73581724543E+03  0.17153247835E+03 0.  0.
         24    2    3    3    0    0  0.47552403260E+01 -0.98023430958E+02  0.43409013235E+03  0.45132493071E+03  0.75024960822E+02 0.  0.
         -6    2    1    2    0  503  0.69282449397E+02  0.77399310454E+02  0.10485322627E+04  0.10680578723E+04  0.17474839521E+03 0.  0.
        -24    2    5    5    0    0  0.32618885947E+02  0.55336151560E+01  0.23918520826E+03  0.25468610025E+03  0.80998970339E+02 0.  0.
          2    1    4    4  501    0  0.10117765137E+02 -0.10593588435E+03  0.32859210278E+03  0.34539477526E+03  0.00000000000E+00 0. -1.
         -1    1    4    4    0  501 -0.53625248110E+01  0.79124533889E+01  0.10549802957E+03  0.10593015545E+03  0.00000000000E+00 0.  1.
          5    1    3    3  502    0 -0.74037689723E+02  0.20624120504E+02  0.27387379081E+03  0.28449231473E+03  0.47000000000E+01 0. -1.
         11    1    6    6    0    0  0.11695278047E+02  0.42985727362E+02  0.12599536834E+03  0.13363901051E+03  0.00000000000E+00 0. -1.
        -12    1    6    6    0    0  0.20923607900E+02 -0.37452112206E+02  0.11318983991E+03  0.12104708974E+03  0.00000000000E+00 0.  1.
         -5    1    5    5    0  503  0.36663563450E+02  0.71865695298E+02  0.80934705441E+03  0.81337177202E+03  0.47000000000E+01 0.  1.
<mgrwt>
<rscale>  2 0.20259924E+03</rscale>
<asrwt>0</asrwt>
<pdfrwt beam="1">  1       21 0.27387461E+00 0.20329219E+03</pdfrwt>
<pdfrwt beam="2">  1       21 0.36445346E-02 0.20329219E+03</pdfrwt>
<totfact> 0.21891493E+04</totfact>
</mgrwt>
</event>
<event>
12    1  0.2762290E-001  0.1885462E+03  0.7546771E-02  0.1159926E+00
         21   -1    0    0  504  503  0.00000000000E+00  0.00000000000E+00  0.14456447813E+03  0.14456447813E+03  0.00000000000E+00 0.  1.
         21   -1    0    0  502  504 -0.00000000000E+00 -0.00000000000E+00 -0.29224989892E+03  0.29224989892E+03  0.00000000000E+00 0. -1.
          6    2    1    2  502    0  0.28647439005E+02 -0.67627092212E+02 -0.16149271357E+03  0.24776329046E+03  0.17295274558E+03 0.  0.
         24    2    3    3    0    0 -0.67617682691E+01  0.30059432387E+01 -0.18049217285E+02  0.83931168209E+02  0.81632772509E+02 0.  0.
         -6    2    1    2    0  503 -0.28647439005E+02  0.67627092212E+02  0.13807292772E+02  0.18905108659E+03  0.17365359957E+03 0.  0.
        -24    2    5    5    0    0  0.25521172981E+02 -0.26121417669E+02 -0.14325346319E+02  0.77084319143E+02  0.66355994298E+02 0.  0.
          2    1    4    4  501    0 -0.13129647721E+02 -0.13789951157E+02  0.28364544201E+02  0.34162812676E+02  0.00000000000E+00 0. -1.
         -1    1    4    4    0  501  0.63678794523E+01  0.16795894396E+02 -0.46413761486E+02  0.49768355534E+02  0.00000000000E+00 0.  1.
          5    1    3    3  502    0  0.35409207274E+02 -0.70633035451E+02 -0.14344349628E+03  0.16383212226E+03  0.47000000000E+01 0. -1.
         11    1    6    6    0    0 -0.86425805044E+01  0.75219875793E+01 -0.25407995389E+02  0.27871862597E+02  0.00000000000E+00 0. -1.
        -12    1    6    6    0    0  0.34163753486E+02 -0.33643405248E+02  0.11082649070E+02  0.49212456546E+02  0.00000000000E+00 0.  1.
         -5    1    5    5    0  503 -0.54168611986E+02  0.93748509881E+02  0.28132639091E+02  0.11196676744E+03  0.47000000000E+01 0.  1.
<mgrwt>
<rscale>  2 0.18838467E+03</rscale>
<asrwt>0</asrwt>
<pdfrwt beam="1">  1       21 0.22240689E-01 0.18854621E+03</pdfrwt>
<pdfrwt beam="2">  1       21 0.44961522E-01 0.18854621E+03</pdfrwt>
<totfact> 0.89915555E+04</totfact>
</mgrwt>
</event>
<event>
12    1  0.2762290E-001  0.2005560E+03  0.7546771E-02  0.1152086E+00
         21   -1    0    0  504  503  0.00000000000E+00  0.00000000000E+00  0.60646246128E+02  0.60646246128E+02  0.00000000000E+00 0. -1.
         21   -1    0    0  502  504 -0.00000000000E+00 -0.00000000000E+00 -0.65178895110E+03  0.65178895110E+03  0.00000000000E+00 0. -1.
          6    2    1    2  502    0 -0.52659834532E+02 -0.35502639109E+01 -0.38210980382E+03  0.43154444640E+03  0.19348654862E+03 0.  0.
         24    2    3    3    0    0 -0.11336816683E+03  0.10593828282E+02 -0.27896624927E+03  0.31093665312E+03  0.76778014916E+02 0.  0.
         -6    2    1    2    0  503  0.52659834532E+02  0.35502639109E+01 -0.20903290115E+03  0.28089075083E+03  0.18005331874E+03 0.  0.
        -24    2    5    5    0    0 -0.22994578069E+02  0.34098864523E+00 -0.33133074824E+02  0.89326848967E+02  0.79703314895E+02 0.  0.
          4    1    4    4  501    0 -0.56786833408E+02 -0.31638469155E+02 -0.15837129055E+03  0.17119346614E+03  0.00000000000E+00 0. -1.
         -3    1    4    4    0  501 -0.56581333422E+02  0.42232297437E+02 -0.12059495872E+03  0.13974318698E+03  0.00000000000E+00 0.  1.
          5    1    3    3  502    0  0.60708332298E+02 -0.14144092193E+02 -0.10314355455E+03  0.12060779328E+03  0.47000000000E+01 0. -1.
         11    1    6    6    0    0  0.32945620193E+01  0.34075208042E+02  0.15407861160E+01  0.34268760757E+02  0.00000000000E+00 0. -1.
        -12    1    6    6    0    0 -0.26289140088E+02 -0.33734219396E+02 -0.34673860940E+02  0.55058088210E+02  0.00000000000E+00 0.  1.
         -5    1    5    5    0  503  0.75654412601E+02  0.32092752657E+01 -0.17589982633E+03  0.19156390186E+03  0.47000000000E+01 0.  1.
<mgrwt>
<rscale>  2 0.19724321E+03</rscale>
<asrwt>0</asrwt>
<pdfrwt beam="1">  1       21 0.93301910E-02 0.20055599E+03</pdfrwt>
<pdfrwt beam="2">  1       21 0.10027523E+00 0.20055599E+03</pdfrwt>
<totfact> 0.74510081E+04</totfact>
</mgrwt>
</event>
<event>
12    1  0.2762290E-001  0.1949961E+03  0.7546771E-02  0.1154187E+00
         21   -1    0    0  504  503  0.00000000000E+00  0.00000000000E+00  0.10066968099E+04  0.10066968099E+04  0.00000000000E+00 0.  1.
         21   -1    0    0  502  504 -0.00000000000E+00 -0.00000000000E+00 -0.10963813859E+03  0.10963813859E+03  0.00000000000E+00 0.  1.
          6    2    1    2  502    0  0.71876366198E+02 -0.52081648477E+02 -0.35310936762E+01  0.19502806538E+03  0.17362248569E+03 0.  0.
         24    2    3    3    0    0  0.69468154994E+02 -0.35270590028E+02 -0.66577667620E+02  0.12956531525E+03  0.79276390004E+02 0.  0.
         -6    2    1    2    0  503 -0.71876366198E+02  0.52081648477E+02  0.90058976502E+03  0.92130688315E+03  0.17281706504E+03 0.  0.
        -24    2    5    5    0    0 -0.86644315198E+02  0.73945997272E+02  0.48332972631E+03  0.50318707739E+03  0.81328732034E+02 0.  0.
          4    1    4    4  501    0  0.48993661516E+02 -0.37979647135E+02 -0.22804253891E+01  0.62032514097E+02  0.00000000000E+00 0. -1.
         -3    1    4    4    0  501  0.20474493478E+02  0.27090571075E+01 -0.64297242231E+02  0.67532801157E+02  0.00000000000E+00 0.  1.
          5    1    3    3  502    0  0.24082112042E+01 -0.16811058449E+02  0.63046573944E+02  0.65462750121E+02  0.47000000000E+01 0. -1.
         13    1    6    6    0    0  0.80395866769E+01 -0.98585787215E+01  0.62054453781E+02  0.63344942675E+02  0.00000000000E+00 0. -1.
        -14    1    6    6    0    0 -0.94683901875E+02  0.83804575994E+02  0.42127527253E+03  0.43984213472E+03  0.00000000000E+00 0.  1.
         -5    1    5    5    0  503  0.14767949000E+02 -0.21864348795E+02  0.41726003871E+03  0.41811980576E+03  0.47000000000E+01 0.  1.
<mgrwt>
<rscale>  2 0.19481665E+03</rscale>
<asrwt>0</asrwt>
<pdfrwt beam="1">  1       21 0.15487643E+00 0.19499610E+03</pdfrwt>
<pdfrwt beam="2">  1       21 0.16867407E-01 0.19499610E+03</pdfrwt>
<totfact> 0.86770611E+03</totfact>
</mgrwt>
</event>
<event>
12    1  0.2762290E-001  0.2265707E+03  0.7546771E-02  0.1129949E+00
         21   -1    0    0  504  503  0.00000000000E+00  0.00000000000E+00  0.20235075601E+04  0.20235075601E+04  0.00000000000E+00 0. -1.
         21   -1    0    0  502  504 -0.00000000000E+00 -0.00000000000E+00 -0.26027023049E+02  0.26027023049E+02  0.00000000000E+00 0. -1.
          6    2    1    2  502    0 -0.52299364086E+02 -0.13054912701E+03  0.76910572316E+03  0.80043931981E+03  0.17146776159E+03 0.  0.
         24    2    3    3    0    0 -0.13897837562E+02 -0.47862530849E+02  0.62410548526E+03  0.62909490229E+03  0.61390289246E+02 0.  0.
         -6    2    1    2    0  503  0.52299364086E+02  0.13054912701E+03  0.12283748139E+04  0.12490952633E+04  0.17764007270E+03 0.  0.
        -24    2    5    5    0    0 -0.30947160009E+02  0.72533087946E+02  0.84635577570E+03  0.85380235914E+03  0.80259540583E+02 0.  0.
          2    1    4    4  501    0  0.12875281183E+02 -0.32606060243E+02  0.15222771090E+03  0.15621204817E+03  0.00000000000E+00 0. -1.
         -1    1    4    4    0  501 -0.26773118745E+02 -0.15256470605E+02  0.47187777436E+03  0.47288285412E+03  0.00000000000E+00 0.  1.
          5    1    3    3  502    0 -0.38401526524E+02 -0.82686596165E+02  0.14500023790E+03  0.17134441752E+03  0.47000000000E+01 0. -1.
         13    1    6    6    0    0 -0.27147362094E+02  0.87630455186E+01  0.82750470837E+02  0.87529484514E+02  0.00000000000E+00 0. -1.
        -14    1    6    6    0    0 -0.37997979152E+01  0.63770042427E+02  0.76360530486E+03  0.76627287463E+03  0.00000000000E+00 0.  1.
         -5    1    5    5    0  503  0.83246524095E+02  0.58016039068E+02  0.38201903819E+03  0.39529290419E+03  0.47000000000E+01 0.  1.
<mgrwt>
<rscale>  2 0.22535949E+03</rscale>
<asrwt>0</asrwt>
<pdfrwt beam="1">  1       21 0.31130873E+00 0.22657073E+03</pdfrwt>
<pdfrwt beam="2">  1       21 0.40041590E-02 0.22657073E+03</pdfrwt>
<totfact> 0.11100593E+04</totfact>
</mgrwt>
</event>
<event>
12    1  0.2762290E-001  0.1980133E+03  0.7546771E-02  0.1152124E+00
         21   -1    0    0  504  503  0.00000000000E+00  0.00000000000E+00  0.55584333784E+02  0.55584333784E+02  0.00000000000E+00 0.  1.
         21   -1    0    0  502  504 -0.00000000000E+00 -0.00000000000E+00 -0.73383847599E+03  0.73383847599E+03  0.00000000000E+00 0.  1.
          6    2    1    2  502    0  0.63238644422E+02  0.70404895341E+02 -0.43383707721E+03  0.47688977556E+03  0.17393468037E+03 0.  0.
         24    2    3    3    0    0  0.73213725285E+02  0.19011142607E+02 -0.39843042572E+03  0.41351358896E+03  0.80777540206E+02 0.  0.
         -6    2    1    2    0  503 -0.63238644422E+02 -0.70404895341E+02 -0.24441706499E+03  0.31253303421E+03  0.17023871586E+03 0.  0.
        -24    2    5    5    0    0  0.18638093815E+01 -0.95189685386E+02 -0.16665014023E+03  0.20802274814E+03  0.80228701312E+02 0.  0.
          4    1    4    4  501    0  0.33847489193E+02  0.49337746797E+02 -0.24675080653E+03  0.25390121367E+03  0.00000000000E+00 0. -1.
         -3    1    4    4    0  501  0.39366236092E+02 -0.30326604190E+02 -0.15167961919E+03  0.15961237528E+03  0.00000000000E+00 0.  1.
          5    1    3    3  502    0 -0.99750808632E+01  0.51393752734E+02 -0.35406651495E+02  0.63376186604E+02  0.47000000000E+01 0. -1.
         13    1    6    6    0    0  0.26044308030E+02 -0.33247464753E+01 -0.58221489056E+02  0.63867845649E+02  0.00000000000E+00 0. -1.
        -14    1    6    6    0    0 -0.24180498648E+02 -0.91864938910E+02 -0.10842865117E+03  0.14415490249E+03  0.00000000000E+00 0.  1.
         -5    1    5    5    0  503 -0.65102453804E+02  0.24784790044E+02 -0.77766924765E+02  0.10451028608E+03  0.47000000000E+01 0.  1.
<mgrwt>
<rscale>  2 0.19719861E+03</rscale>
<asrwt>0</asrwt>
<pdfrwt beam="1">  1       21 0.85514369E-02 0.19801325E+03</pdfrwt>
<pdfrwt beam="2">  1       21 0.11289822E+00 0.19801325E+03</pdfrwt>
<totfact> 0.65333550E+04</totfact>
</mgrwt>
</event>
<event>
12    1  0.2762290E-001  0.1957685E+03  0.7546771E-02  0.1154342E+00
         21   -1    0    0  504  503  0.00000000000E+00  0.00000000000E+00  0.29929238122E+03  0.29929238122E+03  0.00000000000E+00 0.  1.
         21   -1    0    0  502  504 -0.00000000000E+00 -0.00000000000E+00 -0.24135321412E+03  0.24135321412E+03  0.00000000000E+00 0.  1.
          6    2    1    2  502    0 -0.10124622654E+02  0.88663344720E+02 -0.15842739665E+03  0.25184228430E+03  0.17424580188E+03 0.  0.
         24    2    3    3    0    0  0.45462268986E+02  0.86850050690E+01 -0.10533918005E+03  0.14081577361E+03  0.81181845440E+02 0.  0.
         -6    2    1    2    0  503  0.10124622654E+02 -0.88663344720E+02  0.21636656374E+03  0.28880331104E+03  0.16920155401E+03 0.  0.
        -24    2    5    5    0    0  0.52531236610E+02 -0.16994904914E+02  0.16596831738E+03  0.19135199289E+03  0.77599904625E+02 0.  0.
          2    1    4    4  501    0  0.50645045627E+02 -0.12712086993E+02 -0.10666505152E+03  0.11876005649E+03  0.00000000000E+00 0. -1.
         -1    1    4    4    0  501 -0.51827766403E+01  0.21397092062E+02  0.13258714693E+01  0.22055717118E+02  0.00000000000E+00 0.  1.
          5    1    3    3  502    0 -0.55586891641E+02  0.79978339651E+02 -0.53088216595E+02  0.11102651069E+03  0.47000000000E+01 0. -1.
         11    1    6    6    0    0 -0.68824017587E+01  0.11061733838E+02  0.19202905509E+00  0.13029439152E+02  0.00000000000E+00 0. -1.
        -12    1    6    6    0    0  0.59413638369E+02 -0.28056638752E+02  0.16577628832E+03  0.17832255374E+03  0.00000000000E+00 0.  1.
         -5    1    5    5    0  503 -0.42406613956E+02 -0.71668439806E+02  0.50398246368E+02  0.97451318146E+02  0.47000000000E+01 0.  1.
<mgrwt>
<rscale>  2 0.19463979E+03</rscale>
<asrwt>0</asrwt>
<pdfrwt beam="1">  1       21 0.46044982E-01 0.19576848E+03</pdfrwt>
<pdfrwt beam="2">  1       21 0.37131264E-01 0.19576848E+03</pdfrwt>
<totfact> 0.31566223E+04</totfact>
</mgrwt>
</event>
<event>
12    1  0.2762290E-001  0.1854612E+03  0.7546771E-02  0.1163039E+00
         21   -1    0    0  504  503  0.00000000000E+00  0.00000000000E+00  0.10037149915E+04  0.10037149915E+04  0.00000000000E+00 0. -1.
         21   -1    0    0  502  504 -0.00000000000E+00 -0.00000000000E+00 -0.80185227759E+02  0.80185227759E+02  0.00000000000E+00 0.  1.
          6    2    1    2  502    0  0.58578803004E+02  0.39440155962E+02  0.49236892850E+02  0.19015311132E+03  0.16954920249E+03 0.  0.
         24    2    3    3    0    0  0.55877634748E+02  0.12705501693E+02 -0.31221517875E+02  0.10519615807E+03  0.82508839872E+02 0.  0.
         -6    2    1    2    0  503 -0.58578803004E+02 -0.39440155962E+02  0.87429287089E+03  0.89374710793E+03  0.17149013613E+03 0.  0.
        -24    2    5    5    0    0 -0.87764006289E+02  0.15531419671E+02  0.51956207875E+03  0.53356704864E+03  0.82494217534E+02 0.  0.
          2    1    4    4  501    0  0.34241323644E+02  0.10687095262E+02  0.25792945360E+02  0.44180971927E+02  0.00000000000E+00 0. -1.
         -1    1    4    4    0  501  0.21636311103E+02  0.20184064308E+01 -0.57014463235E+02  0.61015186148E+02  0.00000000000E+00 0.  1.
          5    1    3    3  502    0  0.27011682567E+01  0.26734654269E+02  0.80458410725E+02  0.84956953249E+02  0.47000000000E+01 0. -1.
         11    1    6    6    0    0 -0.11640589779E+02  0.37959478411E+02  0.22632700927E+03  0.22978324669E+03  0.00000000000E+00 0. -1.
        -12    1    6    6    0    0 -0.76123416511E+02 -0.22428058740E+02  0.29323506948E+03  0.30378380196E+03  0.00000000000E+00 0.  1.
         -5    1    5    5    0  503  0.29185203285E+02 -0.54971575633E+02  0.35473079214E+03  0.36018005929E+03  0.47000000000E+01 0.  1.
<mgrwt>
<rscale>  2 0.18501129E+03</rscale>
<asrwt>0</asrwt>
<pdfrwt beam="1">  1       21 0.15441768E+00 0.18546123E+03</pdfrwt>
<pdfrwt beam="2">  1       21 0.12336190E-01 0.18546123E+03</pdfrwt>
<totfact> 0.15539876E+04</totfact>
</mgrwt>
</event>
<event>
12    1  0.2762290E-001  0.2866879E+03  0.7546771E-02  0.1092110E+00
         21   -1    0    0  504  503  0.00000000000E+00  0.00000000000E+00  0.17614956075E+03  0.17614956075E+03  0.00000000000E+00 0. -1.
         21   -1    0    0  502  504 -0.00000000000E+00 -0.00000000000E+00 -0.10381324466E+04  0.10381324466E+04  0.00000000000E+00 0. -1.
          6    2    1    2  502    0  0.22716017181E+03 -0.20145127074E+02 -0.88152512550E+03  0.92692883720E+03  0.17350202460E+03 0.  0.
         24    2    3    3    0    0  0.13886282454E+03 -0.62936158505E+02 -0.69591143112E+03  0.71692401000E+03  0.80271240560E+02 0.  0.
         -6    2    1    2    0  503 -0.22716017181E+03  0.20145127074E+02  0.19542239646E+02  0.28735317015E+03  0.17373075566E+03 0.  0.
        -24    2    5    5    0    0 -0.23867348815E+03 -0.66296493482E+01  0.33645286227E+02  0.25463572789E+03  0.81843524092E+02 0.  0.
          4    1    4    4  501    0  0.12010729329E+03 -0.41477834639E+02 -0.65407023923E+03  0.66629876971E+03  0.00000000000E+00 0. -1.
         -3    1    4    4    0  501  0.18755531250E+02 -0.21458323866E+02 -0.41841191890E+02  0.50625240290E+02  0.00000000000E+00 0.  1.
          5    1    3    3  502    0  0.88297347278E+02  0.42791031431E+02 -0.18561369438E+03  0.21000482720E+03  0.47000000000E+01 0. -1.
         11    1    6    6    0    0 -0.69234967841E+02  0.33166440997E+02  0.23524107433E+02  0.80292448031E+02  0.00000000000E+00 0. -1.
        -12    1    6    6    0    0 -0.16943852031E+03 -0.39796090345E+02  0.10121178795E+02  0.17434327986E+03  0.00000000000E+00 0.  1.
         -5    1    5    5    0  503  0.11513316333E+02  0.26774776422E+02 -0.14103046581E+02  0.32717442264E+02  0.47000000000E+01 0.  1.
<mgrwt>
<rscale>  2 0.28665324E+03</rscale>
<asrwt>0</asrwt>
<pdfrwt beam="1">  1       21 0.27099932E-01 0.28668789E+03</pdfrwt>
<pdfrwt beam="2">  1       21 0.15971268E+00 0.28668789E+03</pdfrwt>
<totfact> 0.30553579E+03</totfact>
</mgrwt>
</event>
<event>
12    1  0.2762290E-001  0.2769654E+03  0.7546771E-02  0.1098240E+00
         21   -1    0    0  504  503  0.00000000000E+00  0.00000000000E+00  0.56994657555E+02  0.56994657555E+02  0.00000000000E+00 0.  1.
         21   -1    0    0  502  504 -0.00000000000E+00 -0.00000000000E+00 -0.15307690276E+04  0.15307690276E+04  0.00000000000E+00 0.  1.
          6    2    1    2  502    0  0.37718239216E+02 -0.21310361345E+03 -0.10272973982E+04  0.10623576572E+04  0.16256700711E+03 0.  0.
         24    2    3    3    0    0  0.13816278558E+02 -0.22010306730E+03 -0.78028554166E+03  0.81404889103E+03  0.72068166883E+02 0.  0.
         -6    2    1    2    0  503 -0.37718239216E+02  0.21310361345E+03 -0.44647697185E+03  0.52540602797E+03  0.17284094482E+03 0.  0.
        -24    2    5    5    0    0 -0.39053575358E+02  0.15610793587E+03 -0.42968589858E+03  0.46578790550E+03  0.80209301753E+02 0.  0.
          4    1    4    4  501    0  0.42834418977E+02 -0.12191054896E+03 -0.41127264945E+03  0.43109414469E+03  0.00000000000E+00 0. -1.
         -3    1    4    4    0  501 -0.29018140420E+02 -0.98192518338E+02 -0.36901289221E+03  0.38295474634E+03  0.00000000000E+00 0.  1.
          5    1    3    3  502    0  0.23901960658E+02  0.69994538545E+01 -0.24701185655E+03  0.24830876617E+03  0.47000000000E+01 0. -1.
         11    1    6    6    0    0 -0.33551335898E+02  0.12092816035E+02 -0.87794005070E+02  0.94761361674E+02  0.00000000000E+00 0. -1.
        -12    1    6    6    0    0 -0.55022394603E+01  0.14401511983E+03 -0.34189189351E+03  0.37102654383E+03  0.00000000000E+00 0.  1.
         -5    1    5    5    0  503  0.13353361419E+01  0.56995677580E+02 -0.16791073272E+02  0.59618122472E+02  0.47000000000E+01 0.  1.
<mgrwt>
<rscale>  2 0.27537867E+03</rscale>
<asrwt>0</asrwt>
<pdfrwt beam="1">  1       21 0.87684079E-02 0.27696535E+03</pdfrwt>
<pdfrwt beam="2">  1       21 0.23550295E+00 0.27696535E+03</pdfrwt>
<totfact> 0.77445492E+03</totfact>
</mgrwt>
</event>
<event>
12    1  0.2762290E-001  0.2048214E+03  0.7546771E-02  0.1146935E+00
         21   -1    0    0  504  503  0.00000000000E+00  0.00000000000E+00  0.62849062311E+03  0.62849062311E+03  0.00000000000E+00 0. -1.
         21   -1    0    0  502  504 -0.00000000000E+00 -0.00000000000E+00 -0.65369671781E+02  0.65369671781E+02  0.00000000000E+00 0.  1.
          6    2    1    2  502    0 -0.10766150571E+03 -0.29835953630E+02  0.25550225482E+03  0.32746481789E+03  0.17167009290E+03 0.  0.
         24    2    3    3    0    0 -0.11036260391E+03  0.30395637790E+02  0.13715170101E+03  0.19455851960E+03  0.77062502703E+02 0.  0.
         -6    2    1    2    0  503  0.10766150571E+03  0.29835953630E+02  0.30761869652E+03  0.36639547701E+03  0.16472765155E+03 0.  0.
        -24    2    5    5    0    0  0.10778777463E+03 -0.25001840782E+02  0.16784493409E+03  0.21617565707E+03  0.79477647228E+02 0.  0.
          4    1    4    4  501    0 -0.95387304581E+02 -0.89546914879E+01  0.92119837549E+02  0.13290970185E+03  0.00000000000E+00 0. -1.
         -3    1    4    4    0  501 -0.14975299326E+02  0.39350329278E+02  0.45031863458E+02  0.61648817755E+02  0.00000000000E+00 0.  1.
          5    1    3    3  502    0  0.27010981975E+01 -0.60231591420E+02  0.11835055381E+03  0.13290629828E+03  0.47000000000E+01 0. -1.
         13    1    6    6    0    0  0.29540951440E+02 -0.31350907692E+02  0.17355904774E+02  0.46441088011E+02  0.00000000000E+00 0. -1.
        -14    1    6    6    0    0  0.78246823185E+02  0.63490669109E+01  0.15048902932E+03  0.16973456906E+03  0.00000000000E+00 0.  1.
         -5    1    5    5    0  503 -0.12626891637E+00  0.54837794412E+02  0.13977376243E+03  0.15021981994E+03  0.47000000000E+01 0.  1.
<mgrwt>
<rscale>  2 0.20336015E+03</rscale>
<asrwt>0</asrwt>
<pdfrwt beam="1">  1       21 0.96690861E-01 0.20482140E+03</pdfrwt>
<pdfrwt beam="2">  1       21 0.10056873E-01 0.20482140E+03</pdfrwt>
<totfact> 0.70995775E+04</totfact>
</mgrwt>
</event>
<event>
12    1  0.2762290E-001  0.2694025E+03  0.7546771E-02  0.1101651E+00
         21   -1    0    0  504  503  0.00000000000E+00  0.00000000000E+00  0.37475823207E+03  0.37475823207E+03  0.00000000000E+00 0. -1.
         21   -1    0    0  502  504 -0.00000000000E+00 -0.00000000000E+00 -0.23166500631E+03  0.23166500631E+03  0.00000000000E+00 0. -1.
          6    2    1    2  502    0  0.14776612672E+02  0.20639910766E+03 -0.51467278068E+02  0.27427470296E+03  0.17250736810E+03 0.  0.
         24    2    3    3    0    0 -0.57677386872E+02  0.98875249516E+02 -0.35077341167E+02  0.14350130295E+03  0.79115157599E+02 0.  0.
         -6    2    1    2    0  503 -0.14776612672E+02 -0.20639910766E+03  0.19456050382E+03  0.33214853542E+03  0.17219152130E+03 0.  0.
        -24    2    5    5    0    0 -0.33828801061E+02 -0.10677960859E+03  0.18583316193E+03  0.23024030723E+03  0.77008846283E+02 0.  0.
          2    1    4    4  501    0 -0.32873959605E+02  0.10427269309E+03 -0.13455417083E+02  0.11015688809E+03  0.00000000000E+00 0. -1.
         -1    1    4    4    0  501 -0.24803427267E+02 -0.53974435751E+01 -0.21621924084E+02  0.33344414861E+02  0.00000000000E+00 0.  1.
          5    1    3    3  502    0  0.72453999544E+02  0.10752385814E+03 -0.16389936901E+02  0.13077340001E+03  0.47000000000E+01 0. -1.
         13    1    6    6    0    0 -0.31866141289E+02 -0.11311932120E+03  0.13504840135E+03  0.17902374841E+03  0.00000000000E+00 0. -1.
        -14    1    6    6    0    0 -0.19626597714E+01  0.63397126034E+01  0.50784760586E+02  0.51216558817E+02  0.00000000000E+00 0.  1.
         -5    1    5    5    0  503  0.19052188389E+02 -0.99619499062E+02  0.87273418890E+01  0.10190822819E+03  0.47000000000E+01 0.  1.
<mgrwt>
<rscale>  2 0.26935200E+03</rscale>
<asrwt>0</asrwt>
<pdfrwt beam="1">  1       21 0.57655113E-01 0.26940255E+03</pdfrwt>
<pdfrwt beam="2">  1       21 0.35640770E-01 0.26940255E+03</pdfrwt>
<totfact> 0.20581228E+04</totfact>
</mgrwt>
</event>
<event>
12    1  0.2762290E-001  0.3089239E+03  0.7546771E-02  0.1080904E+00
         21   -1    0    0  504  503  0.00000000000E+00  0.00000000000E+00  0.19516549998E+03  0.19516549998E+03  0.00000000000E+00 0.  1.
         21   -1    0    0  502  504 -0.00000000000E+00 -0.00000000000E+00 -0.51299144130E+03  0.51299144130E+03  0.00000000000E+00 0. -1.
          6    2    1    2  502    0  0.25539334298E+03  0.32789555988E+00 -0.23644827368E+03  0.38902668370E+03  0.17380479668E+03 0.  0.
         24    2    3    3    0    0  0.23585632006E+03  0.49314835004E+02 -0.19360612468E+03  0.32091680753E+03  0.86279251158E+02 0.  0.
         -6    2    1    2    0  503 -0.25539334298E+03 -0.32789555988E+00 -0.81377667645E+02  0.31913025758E+03  0.17319332941E+03 0.  0.
        -24    2    5    5    0    0 -0.19064155091E+03 -0.27227225294E+02  0.43555677228E+01  0.20827609138E+03  0.79211340971E+02 0.  0.
          4    1    4    4  501    0  0.18006567612E+03  0.64259548094E+01 -0.16704245771E+03  0.24569925374E+03  0.00000000000E+00 0. -1.
         -3    1    4    4    0  501  0.55790643937E+02  0.42888880194E+02 -0.26563666973E+02  0.75217553790E+02  0.00000000000E+00 0.  1.
          5    1    3    3  502    0  0.19537022927E+02 -0.48986939444E+02 -0.42842148991E+02  0.68109876164E+02  0.47000000000E+01 0. -1.
         11    1    6    6    0    0  0.90340260524E+00  0.11922778127E+02  0.44868392623E+01  0.12771080655E+02  0.00000000000E+00 0. -1.
        -12    1    6    6    0    0 -0.19154495351E+03 -0.39150003421E+02 -0.13127153950E+00  0.19550501072E+03  0.00000000000E+00 0.  1.
         -5    1    5    5    0  503 -0.64751792074E+02  0.26899329734E+02 -0.85733235368E+02  0.11085416620E+03  0.47000000000E+01 0.  1.
<mgrwt>
<rscale>  2 0.30883796E+03</rscale>
<asrwt>0</asrwt>
<pdfrwt beam="1">  1       21 0.30025462E-01 0.30892390E+03</pdfrwt>
<pdfrwt beam="2">  1       21 0.78921759E-01 0.30892390E+03</pdfrwt>
<totfact> 0.14196179E+04</totfact>
</mgrwt>
</event>
<event>
12    1  0.2762290E-001  0.2341989E+03  0.7546771E-02  0.1123826E+00
         21   -1    0    0  504  503  0.00000000000E+00  0.00000000000E+00  0.39018642642E+03  0.39018642642E+03  0.00000000000E+00 0. -1.
         21   -1    0    0  502  504 -0.00000000000E+00 -0.00000000000E+00 -0.19335097550E+03  0.19335097550E+03  0.00000000000E+00 0.  1.
          6    2    1    2  502    0 -0.71870766849E+01  0.15688281904E+03  0.25148885703E+03  0.34365066135E+03  0.17373905392E+03 0.  0.
         24    2    3    3    0    0  0.10906438550E+02  0.16535723258E+03  0.14196363492E+03  0.23221882005E+03  0.79435143199E+02 0.  0.
         -6    2    1    2    0  503  0.71870766849E+01 -0.15688281904E+03 -0.54653406113E+02  0.23988674057E+03  0.17290107148E+03 0.  0.
        -24    2    5    5    0    0 -0.99307704347E+01 -0.23199486753E+02  0.17887293775E+02  0.86757719274E+02  0.81056216220E+02 0.  0.
          4    1    4    4  501    0  0.33664955022E+02  0.12235074568E+03  0.13091472802E+03  0.18232306540E+03  0.00000000000E+00 0. -1.
         -3    1    4    4    0  501 -0.22758516472E+02  0.43006486901E+02  0.11048906895E+02  0.49895754641E+02  0.00000000000E+00 0.  1.
          5    1    3    3  502    0 -0.18093515235E+02 -0.84744135421E+01  0.10952522211E+03  0.11143184131E+03  0.47000000000E+01 0. -1.
         11    1    6    6    0    0 -0.34509336323E+02  0.78163885749E+01 -0.11785871584E+02  0.37294731435E+02  0.00000000000E+00 0. -1.
        -12    1    6    6    0    0  0.24578565888E+02 -0.31015875328E+02  0.29673165359E+02  0.49462987839E+02  0.00000000000E+00 0.  1.
         -5    1    5    5    0  503  0.17117847120E+02 -0.13368333229E+03 -0.72540699888E+02  0.15312902129E+03  0.47000000000E+01 0.  1.
<mgrwt>
<rscale>  2 0.23404352E+03</rscale>
<asrwt>0</asrwt>
<pdfrwt beam="1">  1       21 0.60028681E-01 0.23419892E+03</pdfrwt>
<pdfrwt beam="2">  1       21 0.29746304E-01 0.23419892E+03</pdfrwt>
<totfact> 0.27432930E+04</totfact>
</mgrwt>
</event>
<event>
12    1  0.2762290E-001  0.3103114E+03  0.7546771E-02  0.1080228E+00
         21   -1    0    0  504  503  0.00000000000E+00  0.00000000000E+00  0.18932167908E+03  0.18932167908E+03  0.00000000000E+00 0.  1.
         21   -1    0    0  502  504 -0.00000000000E+00 -0.00000000000E+00 -0.61128261502E+03  0.61128261502E+03  0.00000000000E+00 0. -1.
          6    2    1    2  502    0  0.20589500475E+03 -0.15352941472E+03 -0.37544473798E+03  0.48708509698E+03  0.17415253732E+03 0.  0.
         24    2    3    3    0    0  0.12104227539E+03 -0.16947962122E+03 -0.27403725985E+03  0.35381859185E+03  0.81954876085E+02 0.  0.
         -6    2    1    2    0  503 -0.20589500475E+03  0.15352941472E+03 -0.46516197950E+02  0.31351919712E+03  0.17368504866E+03 0.  0.
        -24    2    5    5    0    0 -0.20972453091E+03  0.14707489912E+03 -0.79042881861E+02  0.27980864672E+03  0.80185390122E+02 0.  0.
          2    1    4    4  501    0  0.36856267404E+02 -0.36192277488E+02 -0.13152048423E+03  0.14130075432E+03  0.00000000000E+00 0. -1.
         -1    1    4    4    0  501  0.84186007985E+02 -0.13328734373E+03 -0.14251677561E+03  0.21251783754E+03  0.00000000000E+00 0.  1.
          5    1    3    3  502    0  0.84852729362E+02  0.15950206497E+02 -0.10140747814E+03  0.13326650513E+03  0.47000000000E+01 0. -1.
         13    1    6    6    0    0 -0.11220402319E+03  0.64024912739E+02 -0.79553208285E+02  0.15171567229E+03  0.00000000000E+00 0. -1.
        -14    1    6    6    0    0 -0.97520507722E+02  0.83049986380E+02  0.51032642366E+00  0.12809297443E+03  0.00000000000E+00 0.  1.
         -5    1    5    5    0  503  0.38295261609E+01  0.64545156038E+01  0.32526683911E+02  0.33710550404E+02  0.47000000000E+01 0.  1.
<mgrwt>
<rscale>  2 0.31024581E+03</rscale>
<asrwt>0</asrwt>
<pdfrwt beam="1">  1       21 0.29126411E-01 0.31031136E+03</pdfrwt>
<pdfrwt beam="2">  1       21 0.94043482E-01 0.31031136E+03</pdfrwt>
<totfact> 0.10021507E+04</totfact>
</mgrwt>
</event>
<event>
12    1  0.2762290E-001  0.2410124E+03  0.7546771E-02  0.1119247E+00
         21   -1    0    0  504  503  0.00000000000E+00  0.00000000000E+00  0.16327996009E+03  0.16327996009E+03  0.00000000000E+00 0.  1.
         21   -1    0    0  502  504 -0.00000000000E+00 -0.00000000000E+00 -0.38500876953E+03  0.38500876953E+03  0.00000000000E+00 0.  1.
          6    2    1    2  502    0  0.71740736095E+02  0.15199263114E+03 -0.18803564430E+03  0.30568670923E+03  0.17273814732E+03 0.  0.
         24    2    3    3    0    0  0.11379676972E+03  0.14332001202E+03 -0.15730155470E+03  0.25267163072E+03  0.74892210643E+02 0.  0.
         -6    2    1    2    0  503 -0.71740736095E+02 -0.15199263114E+03 -0.33693165135E+02  0.24260202039E+03  0.17167416166E+03 0.  0.
        -24    2    5    5    0    0 -0.47089346024E+02 -0.17968408687E+03 -0.23871422178E+02  0.20396182904E+03  0.80788646019E+02 0.  0.
          2    1    4    4  501    0  0.83638536897E+02  0.10464392139E+03 -0.15312037196E+03  0.20344926504E+03  0.00000000000E+00 0. -1.
         -1    1    4    4    0  501  0.30158232820E+02  0.38676090634E+02 -0.41811827397E+01  0.49222365675E+02  0.00000000000E+00 0.  1.
          5    1    3    3  502    0 -0.42056033623E+02  0.86726191204E+01 -0.30734089601E+02  0.53015078516E+02  0.47000000000E+01 0. -1.
         13    1    6    6    0    0  0.19884444858E+02 -0.23470640930E+02  0.61381053325E+01  0.31367793516E+02  0.00000000000E+00 0. -1.
        -14    1    6    6    0    0 -0.66973790882E+02 -0.15621344594E+03 -0.30009527511E+02  0.17259403553E+03  0.00000000000E+00 0.  1.
         -5    1    5    5    0  503 -0.24651390070E+02  0.27691455726E+02 -0.98217429564E+01  0.38640191347E+02  0.47000000000E+01 0.  1.
<mgrwt>
<rscale>  2 0.24082178E+03</rscale>
<asrwt>0</asrwt>
<pdfrwt beam="1">  1       21 0.25119994E-01 0.24101237E+03</pdfrwt>
<pdfrwt beam="2">  1       21 0.59232118E-01 0.24101237E+03</pdfrwt>
<totfact> 0.39057684E+04</totfact>
</mgrwt>
</event>
<event>
12    1  0.2762290E-001  0.2952945E+03  0.7546771E-02  0.1087658E+00
         21   -1    0    0  504  503  0.00000000000E+00  0.00000000000E+00  0.31657451080E+03  0.31657451080E+03  0.00000000000E+00 0. -1.
         21   -1    0    0  502  504 -0.00000000000E+00 -0.00000000000E+00 -0.41099093364E+03  0.41099093364E+03  0.00000000000E+00 0.  1.
          6    2    1    2  502    0  0.10648018099E+03  0.21370687781E+03 -0.25637516005E+03  0.39105892601E+03  0.17375328011E+03 0.  0.
         24    2    3    3    0    0 -0.11012737832E+01  0.40671394591E+02 -0.93645857861E+02  0.13025638833E+03  0.80881424721E+02 0.  0.
         -6    2    1    2    0  503 -0.10648018099E+03 -0.21370687781E+03  0.16195873721E+03  0.33650651844E+03  0.17319741864E+03 0.  0.
        -24    2    5    5    0    0  0.29878789432E+01 -0.10005279912E+03  0.11202881232E+03  0.17092997074E+03  0.81529810947E+02 0.  0.
          4    1    4    4  501    0 -0.40294709175E+02  0.12301692732E+02 -0.42092178528E+02  0.59554569302E+02  0.00000000000E+00 0. -1.
         -3    1    4    4    0  501  0.39193435392E+02  0.28369701859E+02 -0.51553679333E+02  0.70701819030E+02  0.00000000000E+00 0.  1.
          5    1    3    3  502    0  0.10758145478E+03  0.17303548322E+03 -0.16272930219E+03  0.26080253767E+03  0.47000000000E+01 0. -1.
         11    1    6    6    0    0 -0.34164899413E+02 -0.61373166812E+02  0.86797421814E+02  0.11165884824E+03  0.00000000000E+00 0. -1.
        -12    1    6    6    0    0  0.37152778356E+02 -0.38679632310E+02  0.25231390508E+02  0.59271122498E+02  0.00000000000E+00 0.  1.
         -5    1    5    5    0  503 -0.10946805994E+03 -0.11365407869E+03  0.49929924889E+02  0.16557654770E+03  0.47000000000E+01 0.  1.
<mgrwt>
<rscale>  2 0.29521282E+03</rscale>
<asrwt>0</asrwt>
<pdfrwt beam="1">  1       21 0.48703771E-01 0.29529453E+03</pdfrwt>
<pdfrwt beam="2">  1       21 0.63229374E-01 0.29529453E+03</pdfrwt>
<totfact> 0.87743598E+03</totfact>
</mgrwt>
</event>
<event>
12    1  0.2762290E-001  0.1800003E+03  0.7546771E-02  0.1167834E+00
         21   -1    0    0  504  503  0.00000000000E+00  0.00000000000E+00  0.70542118333E+02  0.70542118333E+02  0.00000000000E+00 0.  1.
         21   -1    0    0  502  504 -0.00000000000E+00 -0.00000000000E+00 -0.99356206558E+03  0.99356206558E+03  0.00000000000E+00 0.  1.
          6    2    1    2  502    0  0.49789304991E+02 -0.19307038486E+01 -0.85170560496E+03  0.87049157011E+03  0.17283065005E+03 0.  0.
         24    2    3    3    0    0  0.25638371489E+02  0.57652727110E+02 -0.34394521547E+03  0.35865550654E+03  0.79713851306E+02 0.  0.
         -6    2    1    2    0  503 -0.49789304991E+02  0.19307038486E+01 -0.71314342284E+02  0.19361261380E+03  0.17296648895E+03 0.  0.
        -24    2    5    5    0    0 -0.88733277466E+00  0.63018319948E+01 -0.98406386426E+02  0.13734025377E+03  0.95593033061E+02 0.  0.
          4    1    4    4  501    0 -0.81560358801E+01  0.64134093826E+02 -0.26030859080E+03  0.26821682527E+03  0.00000000000E+00 0. -1.
         -3    1    4    4    0  501  0.33794407369E+02 -0.64813667160E+01 -0.83636624667E+02  0.90438681269E+02  0.00000000000E+00 0.  1.
          5    1    3    3  502    0  0.24150933502E+02 -0.59583430958E+02 -0.50776038949E+03  0.51183606357E+03  0.47000000000E+01 0. -1.
         13    1    6    6    0    0  0.70628453902E+01 -0.43869255331E+02 -0.38469701900E+02  0.58773406509E+02  0.00000000000E+00 0. -1.
        -14    1    6    6    0    0 -0.79501781648E+01  0.50171087326E+02 -0.59936684526E+02  0.78566847259E+02  0.00000000000E+00 0.  1.
         -5    1    5    5    0  503 -0.48901972216E+02 -0.43711281462E+01  0.27092044143E+02  0.56272360033E+02  0.47000000000E+01 0.  1.
<mgrwt>
<rscale>  2 0.17996766E+03</rscale>
<asrwt>0</asrwt>
<pdfrwt beam="1">  1       21 0.10852634E-01 0.18000030E+03</pdfrwt>
<pdfrwt beam="2">  1       21 0.15285570E+00 0.18000030E+03</pdfrwt>
<totfact> 0.20135909E+04</totfact>
</mgrwt>
</event>
<event>
12    1  0.2762290E-001  0.2480637E+03  0.7546771E-02  0.1114714E+00
         21   -1    0    0  504  503  0.00000000000E+00  0.00000000000E+00  0.22720396100E+03  0.22720396100E+03  0.00000000000E+00 0.  1.
         21   -1    0    0  502  504 -0.00000000000E+00 -0.00000000000E+00 -0.36851341005E+03  0.36851341005E+03  0.00000000000E+00 0.  1.
          6    2    1    2  502    0 -0.16473056723E+03 -0.60470302632E+02 -0.22507632590E+03  0.33495513350E+03  0.17533616767E+03 0.  0.
         24    2    3    3    0    0 -0.34340079448E+02 -0.75628923708E+02 -0.88375888713E+02  0.14537516983E+03  0.80154021354E+02 0.  0.
         -6    2    1    2    0  503  0.16473056723E+03  0.60470302632E+02  0.83766876847E+02  0.26076223755E+03  0.17374474839E+03 0.  0.
        -24    2    5    5    0    0  0.48038420470E+02  0.49819611354E+02  0.96169836875E+02  0.14283676211E+03  0.79774805350E+02 0.  0.
          2    1    4    4  501    0  0.42462637982E+01 -0.44957662834E+02 -0.84651699432E+02  0.95943381327E+02  0.00000000000E+00 0. -1.
         -1    1    4    4    0  501 -0.38586343246E+02 -0.30671260874E+02 -0.37241892812E+01  0.49431788502E+02  0.00000000000E+00 0.  1.
          5    1    3    3  502    0 -0.13039048778E+03  0.15158621076E+02 -0.13670043719E+03  0.18957996367E+03  0.47000000000E+01 0. -1.
         11    1    6    6    0    0 -0.21272585772E+02  0.19548616655E+02  0.36188801269E+02  0.46306594086E+02  0.00000000000E+00 0. -1.
        -12    1    6    6    0    0  0.69311006241E+02  0.30270994699E+02  0.59981035606E+02  0.96530168023E+02  0.00000000000E+00 0.  1.
         -5    1    5    5    0  503  0.11669214676E+03  0.10650691278E+02 -0.12402960027E+02  0.11792547544E+03  0.47000000000E+01 0.  1.
<mgrwt>
<rscale>  2 0.24778263E+03</rscale>
<asrwt>0</asrwt>
<pdfrwt beam="1">  1       21 0.34954456E-01 0.24806368E+03</pdfrwt>
<pdfrwt beam="2">  1       21 0.56694370E-01 0.24806368E+03</pdfrwt>
<totfact> 0.22401323E+04</totfact>
</mgrwt>
</event>
<event>
12    1  0.2762290E-001  0.1737543E+03  0.7546771E-02  0.1174138E+00
         21   -1    0    0  504  503  0.00000000000E+00  0.00000000000E+00  0.25001198985E+03  0.25001198985E+03  0.00000000000E+00 0. -1.
         21   -1    0    0  502  504 -0.00000000000E+00 -0.00000000000E+00 -0.14146434012E+03  0.14146434012E+03  0.00000000000E+00 0. -1.
          6    2    1    2  502    0 -0.89665807463E+01  0.40269121914E+01 -0.21272686846E+02  0.17505163786E+03  0.17347603039E+03 0.  0.
         24    2    3    3    0    0  0.32129616179E+02  0.40363336217E+02 -0.53171816991E+02  0.11142084644E+03  0.83221702415E+02 0.  0.
         -6    2    1    2    0  503  0.89665807463E+01 -0.40269121914E+01  0.12982033658E+03  0.21642469211E+03  0.17288641350E+03 0.  0.
        -24    2    5    5    0    0 -0.14399384573E+02 -0.64993453252E+02  0.63479804368E+02  0.12322574534E+03  0.81996387182E+02 0.  0.
          2    1    4    4  501    0  0.57047208123E+02  0.10697856340E+02 -0.40045506003E+02  0.70515747432E+02  0.00000000000E+00 0. -1.
         -1    1    4    4    0  501 -0.24917591944E+02  0.29665479877E+02 -0.13126310989E+02  0.40905099008E+02  0.00000000000E+00 0.  1.
          5    1    3    3  502    0 -0.41096196925E+02 -0.36336424026E+02  0.31899130146E+02  0.63630791420E+02  0.47000000000E+01 0. -1.
         11    1    6    6    0    0  0.18256998822E+02 -0.10010555613E+02  0.54884228738E+02  0.58701003346E+02  0.00000000000E+00 0. -1.
        -12    1    6    6    0    0 -0.32656383395E+02 -0.54982897639E+02  0.85955756294E+01  0.64524741996E+02  0.00000000000E+00 0.  1.
         -5    1    5    5    0  503  0.23365965320E+02  0.60966541061E+02  0.66340532211E+02  0.93198946766E+02  0.47000000000E+01 0.  1.
<mgrwt>
<rscale>  2 0.17360692E+03</rscale>
<asrwt>0</asrwt>
<pdfrwt beam="1">  1       21 0.38463383E-01 0.17375428E+03</pdfrwt>
<pdfrwt beam="2">  1       21 0.21763745E-01 0.17375428E+03</pdfrwt>
<totfact> 0.12924709E+05</totfact>
</mgrwt>
</event>
<event>
12    1  0.2762290E-001  0.2418137E+03  0.7546771E-02  0.1118728E+00
         21   -1    0    0  504  503  0.00000000000E+00  0.00000000000E+00  0.43470530771E+03  0.43470530771E+03  0.00000000000E+00 0.  1.
         21   -1    0    0  502  504 -0.00000000000E+00 -0.00000000000E+00 -0.27695136889E+03  0.27695136889E+03  0.00000000000E+00 0.  1.
          6    2    1    2  502    0  0.16836343077E+03 -0.54559303483E+01 -0.17665360580E+03  0.29946678457E+03  0.17348730968E+03 0.  0.
         24    2    3    3    0    0  0.63878488153E+02 -0.62217795717E+01 -0.16398942526E+03  0.19410948189E+03  0.81650398482E+02 0.  0.
         -6    2    1    2    0  503 -0.16836343077E+03  0.54559303483E+01  0.33440754462E+03  0.41218989203E+03  0.17232553263E+03 0.  0.
        -24    2    5    5    0    0 -0.56817731549E+02  0.54476085155E+02  0.20324303505E+03  0.23310433381E+03  0.82668014812E+02 0.  0.
          4    1    4    4  501    0 -0.44621048031E+01 -0.29363692853E+02 -0.66433627125E+02  0.72770623539E+02  0.00000000000E+00 0. -1.
         -3    1    4    4    0  501  0.68340592956E+02  0.23141913281E+02 -0.97555798135E+02  0.12133885835E+03  0.00000000000E+00 0.  1.
          5    1    3    3  502    0  0.10448494262E+03  0.76584922337E+00 -0.12664180536E+02  0.10535730268E+03  0.47000000000E+01 0. -1.
         11    1    6    6    0    0  0.54076403539E+01 -0.17364305456E+02  0.22835950852E+02  0.29193189779E+02  0.00000000000E+00 0. -1.
        -12    1    6    6    0    0 -0.62225371902E+02  0.71840390611E+02  0.18040708420E+03  0.20391114403E+03  0.00000000000E+00 0.  1.
         -5    1    5    5    0  503 -0.11154569922E+03 -0.49020154806E+02  0.13116450957E+03  0.17908555822E+03  0.47000000000E+01 0.  1.
<mgrwt>
<rscale>  2 0.24160538E+03</rscale>
<asrwt>0</asrwt>
<pdfrwt beam="1">  1       21 0.66877740E-01 0.24181369E+03</pdfrwt>
<pdfrwt beam="2">  1       21 0.42607903E-01 0.24181369E+03</pdfrwt>
<totfact> 0.10522240E+04</totfact>
</mgrwt>
</event>
<event>
12    1  0.2762290E-001  0.2001227E+03  0.7546771E-02  0.1149829E+00
         21   -1    0    0  504  503  0.00000000000E+00  0.00000000000E+00  0.33794422471E+03  0.33794422471E+03  0.00000000000E+00 0.  1.
         21   -1    0    0  502  504 -0.00000000000E+00 -0.00000000000E+00 -0.19266509776E+03  0.19266509776E+03  0.00000000000E+00 0.  1.
          6    2    1    2  502    0  0.88681150948E+02  0.42037064294E+02 -0.92657670627E+02  0.21970253252E+03  0.17335598508E+03 0.  0.
         24    2    3    3    0    0 -0.64036866091E+01  0.59888841931E+02 -0.31981052963E+02  0.10540662608E+03  0.80374675633E+02 0.  0.
         -6    2    1    2    0  503 -0.88681150948E+02 -0.42037064294E+02  0.23793679758E+03  0.31090678994E+03  0.17440656835E+03 0.  0.
        -24    2    5    5    0    0 -0.15345127695E+02 -0.30098828743E+02  0.29309623392E+02  0.89393626489E+02  0.77399961226E+02 0.  0.
          4    1    4    4  501    0 -0.46360486280E+01 -0.99788428963E+01 -0.33745751072E+02  0.35494308950E+02  0.00000000000E+00 0. -1.
         -3    1    4    4    0  501 -0.17676379810E+01  0.69867684828E+02  0.17646981087E+01  0.69912317131E+02  0.00000000000E+00 0.  1.
          5    1    3    3  502    0  0.95084837557E+02 -0.17851777637E+02 -0.60676617664E+02  0.11429590644E+03  0.47000000000E+01 0. -1.
         11    1    6    6    0    0 -0.13352751461E+02  0.23688928813E+02 -0.17517957320E+01  0.27249405648E+02  0.00000000000E+00 0. -1.
        -12    1    6    6    0    0 -0.19923762344E+01 -0.53787757556E+02  0.31061419124E+02  0.62144220842E+02  0.00000000000E+00 0.  1.
         -5    1    5    5    0  503 -0.73336023253E+02 -0.11938235551E+02  0.20862717418E+03  0.22151316345E+03  0.47000000000E+01 0.  1.
<mgrwt>
<rscale>  2 0.19989362E+03</rscale>
<asrwt>0</asrwt>
<pdfrwt beam="1">  1       21 0.51991419E-01 0.20012274E+03</pdfrwt>
<pdfrwt beam="2">  1       21 0.29640784E-01 0.20012274E+03</pdfrwt>
<totfact> 0.38159180E+04</totfact>
</mgrwt>
</event>
<event>
12    1  0.2762290E-001  0.1867659E+03  0.7546771E-02  0.1161761E+00
         21   -1    0    0  504  503  0.00000000000E+00  0.00000000000E+00  0.23899610954E+03  0.23899610954E+03  0.00000000000E+00 0. -1.
         21   -1    0    0  502  504 -0.00000000000E+00 -0.00000000000E+00 -0.14646903483E+03  0.14646903483E+03  0.00000000000E+00 0. -1.
          6    2    1    2  502    0  0.25688206043E+02  0.57441673456E+02  0.67205679300E+02  0.19848957556E+03  0.17584674719E+03 0.  0.
         24    2    3    3    0    0 -0.54169676085E+01  0.57022105407E+02  0.10773250861E+03  0.14718439299E+03  0.82316997552E+02 0.  0.
         -6    2    1    2    0  503 -0.25688206043E+02 -0.57441673456E+02  0.25321395405E+02  0.18697556881E+03  0.17423909001E+03 0.  0.
        -24    2    5    5    0    0 -0.15806590332E+02 -0.95794234833E+02 -0.19816238317E+02  0.12674217880E+03  0.79022230176E+02 0.  0.
          2    1    4    4  501    0  0.22414110672E+02  0.22680407555E+02  0.96420959583E+02  0.10155685448E+03  0.00000000000E+00 0. -1.
         -1    1    4    4    0  501 -0.27831078280E+02  0.34341697852E+02  0.11311549025E+02  0.45627538515E+02  0.00000000000E+00 0.  1.
          5    1    3    3  502    0  0.31105173651E+02  0.41956804902E+00 -0.40526829308E+02  0.51305182574E+02  0.47000000000E+01 0. -1.
         13    1    6    6    0    0 -0.36975889739E+02 -0.50459879856E+02  0.16761805339E+02  0.64763987025E+02  0.00000000000E+00 0. -1.
        -14    1    6    6    0    0  0.21169299407E+02 -0.45334354977E+02 -0.36578043657E+02  0.61978191780E+02  0.00000000000E+00 0.  1.
         -5    1    5    5    0  503 -0.98816157104E+01  0.38352561377E+02  0.45137633723E+02  0.60233390003E+02  0.47000000000E+01 0.  1.
<mgrwt>
<rscale>  2 0.18638655E+03</rscale>
<asrwt>0</asrwt>
<pdfrwt beam="1">  1       21 0.36768632E-01 0.18676592E+03</pdfrwt>
<pdfrwt beam="2">  1       21 0.22533698E-01 0.18676592E+03</pdfrwt>
<totfact> 0.13187560E+05</totfact>
</mgrwt>
</event>
<event>
12    1  0.2762290E-001  0.3106300E+03  0.7546771E-02  0.1080099E+00
         21   -1    0    0  504  503  0.00000000000E+00  0.00000000000E+00  0.35934491898E+03  0.35934491898E+03  0.00000000000E+00 0. -1.
         21   -1    0    0  502  504 -0.00000000000E+00 -0.00000000000E+00 -0.29912725649E+03  0.29912725649E+03  0.00000000000E+00 0. -1.
          6    2    1    2  502    0  0.34488114803E+02 -0.25575661277E+03 -0.75902255212E+02  0.31932671896E+03  0.17206837612E+03 0.  0.
         24    2    3    3    0    0  0.39936818392E+02 -0.46076567553E+02 -0.27684295406E+02  0.10405370305E+03  0.79641404850E+02 0.  0.
         -6    2    1    2    0  503 -0.34488114803E+02  0.25575661277E+03  0.13611991770E+03  0.33914545651E+03  0.17288763299E+03 0.  0.
        -24    2    5    5    0    0 -0.54889318151E+02  0.24041406928E+03  0.70298282197E+02  0.26839108959E+03  0.79247501758E+02 0.  0.
          4    1    4    4  501    0 -0.48716331365E+01  0.90045339124E+01  0.17225406480E+02  0.20038190257E+02  0.00000000000E+00 0. -1.
         -3    1    4    4    0  501  0.44808451528E+02 -0.55081101466E+02 -0.44909701886E+02  0.84015512797E+02  0.00000000000E+00 0.  1.
          5    1    3    3  502    0 -0.54487035888E+01 -0.20968004521E+03 -0.48217959806E+02  0.21527301591E+03  0.47000000000E+01 0. -1.
         13    1    6    6    0    0 -0.45466357486E+02  0.47230771393E+02  0.15521527208E+02  0.67371011839E+02  0.00000000000E+00 0. -1.
        -14    1    6    6    0    0 -0.94229606644E+01  0.19318329789E+03  0.54776754990E+02  0.20102007775E+03  0.00000000000E+00 0.  1.
         -5    1    5    5    0  503  0.20401203348E+02  0.15342543481E+02  0.65821635499E+02  0.70754366920E+02  0.47000000000E+01 0.  1.
<mgrwt>
<rscale>  2 0.31051615E+03</rscale>
<asrwt>0</asrwt>
<pdfrwt beam="1">  1       21 0.55283834E-01 0.31063002E+03</pdfrwt>
<pdfrwt beam="2">  1       21 0.46019578E-01 0.31063002E+03</pdfrwt>
<totfact> 0.13124981E+04</totfact>
</mgrwt>
</event>
<event>
12    1  0.2762290E-001  0.2216292E+03  0.7546771E-02  0.1133491E+00
         21   -1    0    0  504  503  0.00000000000E+00  0.00000000000E+00  0.11882672803E+03  0.11882672803E+03  0.00000000000E+00 0. -1.
         21   -1    0    0  502  504 -0.00000000000E+00 -0.00000000000E+00 -0.57304152559E+03  0.57304152559E+03  0.00000000000E+00 0.  1.
          6    2    1    2  502    0 -0.69785322227E+02  0.11057656289E+03 -0.41524125621E+02  0.22548563769E+03  0.17894790398E+03 0.  0.
         24    2    3    3    0    0 -0.91852419885E+02  0.75773059387E+02 -0.83658119847E+02  0.16636200346E+03  0.80617687958E+02 0.  0.
         -6    2    1    2    0  503  0.69785322227E+02 -0.11057656289E+03 -0.41269067193E+03  0.46638261593E+03  0.17349924002E+03 0.  0.
        -24    2    5    5    0    0 -0.33266339996E+02 -0.38031208705E+02 -0.17000762791E+03  0.19288741788E+03  0.75828360246E+02 0.  0.
          4    1    4    4  501    0 -0.26650997377E+02  0.66360007838E+02 -0.18859124275E+02  0.73956695910E+02  0.00000000000E+00 0. -1.
         -3    1    4    4    0  501 -0.65201422508E+02  0.94130515488E+01 -0.64798995572E+02  0.92405307551E+02  0.00000000000E+00 0.  1.
          5    1    3    3  502    0  0.22067097659E+02  0.34803503499E+02  0.42133994226E+02  0.59123634228E+02  0.47000000000E+01 0. -1.
         13    1    6    6    0    0 -0.29004046688E+02  0.42206309622E+01 -0.13412816553E+03  0.13729316530E+03  0.00000000000E+00 0. -1.
        -14    1    6    6    0    0 -0.42622933085E+01 -0.42251839667E+02 -0.35879462381E+02  0.55594252583E+02  0.00000000000E+00 0.  1.
         -5    1    5    5    0  503  0.10305166222E+03 -0.72545354180E+02 -0.24268304403E+03  0.27349519805E+03  0.47000000000E+01 0.  1.
<mgrwt>
<rscale>  2 0.22052715E+03</rscale>
<asrwt>0</asrwt>
<pdfrwt beam="1">  1       21 0.18281035E-01 0.22162924E+03</pdfrwt>
<pdfrwt beam="2">  1       21 0.88160236E-01 0.22162924E+03</pdfrwt>
<totfact> 0.29589327E+04</totfact>
</mgrwt>
</event>
<event>
12    1  0.2762290E-001  0.3560369E+03  0.7546771E-02  0.1060197E+00
         21   -1    0    0  504  503  0.00000000000E+00  0.00000000000E+00  0.20541781881E+03  0.20541781881E+03  0.00000000000E+00 0.  1.
         21   -1    0    0  502  504 -0.00000000000E+00 -0.00000000000E+00 -0.28959090852E+04  0.28959090852E+04  0.00000000000E+00 0. -1.
          6    2    1    2  502    0 -0.22316373792E+03  0.21723272017E+03 -0.27211092338E+04  0.27443027804E+04  0.17254037185E+03 0.  0.
         24    2    3    3    0    0 -0.13430608789E+03  0.13865668437E+03 -0.11601104205E+04  0.11787967088E+04  0.80260148805E+02 0.  0.
         -6    2    1    2    0  503  0.22316373792E+03 -0.21723272017E+03  0.30617967369E+02  0.35702412359E+03  0.17186231777E+03 0.  0.
        -24    2    5    5    0    0  0.11691570495E+03 -0.16789561120E+03 -0.35384072960E+02  0.22248359380E+03  0.79929334823E+02 0.  0.
          4    1    4    4  501    0 -0.13372056340E+03  0.10204519228E+03 -0.84608689007E+03  0.86264560272E+03  0.00000000000E+00 0. -1.
         -3    1    4    4    0  501 -0.58552449129E+00  0.36611492084E+02 -0.31402353046E+03  0.31615110608E+03  0.00000000000E+00 0.  1.
          5    1    3    3  502    0 -0.88857650021E+02  0.78576035800E+02 -0.15609988132E+04  0.15655060716E+04  0.47000000000E+01 0. -1.
         13    1    6    6    0    0  0.10054882596E+02 -0.23066896858E+02  0.22153479469E+02  0.33525498464E+02  0.00000000000E+00 0. -1.
        -14    1    6    6    0    0  0.10686082235E+03 -0.14482871434E+03 -0.57537552429E+02  0.18895809533E+03  0.00000000000E+00 0.  1.
         -5    1    5    5    0  503  0.10624803297E+03 -0.49337108965E+02  0.66002040330E+02  0.13454052980E+03  0.47000000000E+01 0.  1.
<mgrwt>
<rscale>  2 0.35595487E+03</rscale>
<asrwt>0</asrwt>
<pdfrwt beam="1">  1       21 0.31602743E-01 0.35603692E+03</pdfrwt>
<pdfrwt beam="2">  1       21 0.44552445E+00 0.35603692E+03</pdfrwt>
<totfact> 0.34118620E+01</totfact>
</mgrwt>
</event>
<event>
12    1  0.2762290E-001  0.1740606E+03  0.7546771E-02  0.1173687E+00
         21   -1    0    0  504  503  0.00000000000E+00  0.00000000000E+00  0.44329656049E+03  0.44329656049E+03  0.00000000000E+00 0.  1.
         21   -1    0    0  502  504 -0.00000000000E+00 -0.00000000000E+00 -0.10383232586E+03  0.10383232586E+03  0.00000000000E+00 0.  1.
          6    2    1    2  502    0  0.99080823497E+01 -0.82117553861E+01  0.97824329221E+01  0.17433528979E+03  0.17358425692E+03 0.  0.
         24    2    3    3    0    0 -0.26624865564E+02 -0.61548631687E+02 -0.11081667006E+02  0.10624065474E+03  0.81652653649E+02 0.  0.
         -6    2    1    2    0  503 -0.99080823497E+01  0.82117553861E+01  0.32968180171E+03  0.37279359656E+03  0.17354933659E+03 0.  0.
        -24    2    5    5    0    0 -0.29131957270E+02  0.68079898354E+02  0.23676342246E+03  0.26050082247E+03  0.79499791185E+02 0.  0.
          4    1    4    4  501    0 -0.31063611463E+02 -0.27274182548E+02 -0.42676434503E+02  0.59414704011E+02  0.00000000000E+00 0. -1.
         -3    1    4    4    0  501  0.44387458990E+01 -0.34274449138E+02  0.31594767497E+02  0.46825950733E+02  0.00000000000E+00 0.  1.
          5    1    3    3  502    0  0.36532947914E+02  0.53336876300E+02  0.20864099929E+02  0.68094635050E+02  0.47000000000E+01 0. -1.
         11    1    6    6    0    0 -0.36862212277E+01 -0.14877525036E+02  0.11679291594E+02  0.19270050085E+02  0.00000000000E+00 0. -1.
        -12    1    6    6    0    0 -0.25445736043E+02  0.82957423389E+02  0.22508413087E+03  0.24123077239E+03  0.00000000000E+00 0.  1.
         -5    1    5    5    0  503  0.19223874921E+02 -0.59868142967E+02  0.92918379251E+02  0.11229277409E+03  0.47000000000E+01 0.  1.
<mgrwt>
<rscale>  2 0.17405191E+03</rscale>
<asrwt>0</asrwt>
<pdfrwt beam="1">  1       21 0.68199470E-01 0.17406061E+03</pdfrwt>
<pdfrwt beam="2">  1       21 0.15974204E-01 0.17406061E+03</pdfrwt>
<totfact> 0.69185786E+04</totfact>
</mgrwt>
</event>
<event>
12    1  0.2762290E-001  0.1809952E+03  0.7546771E-02  0.1167528E+00
         21   -1    0    0  504  503  0.00000000000E+00  0.00000000000E+00  0.16522215806E+04  0.16522215806E+04  0.00000000000E+00 0.  1.
         21   -1    0    0  502  504 -0.00000000000E+00 -0.00000000000E+00 -0.19905472118E+02  0.19905472118E+02  0.00000000000E+00 0.  1.
          6    2    1    2  502    0  0.48910040210E+02 -0.91320922876E+01  0.69339109102E+03  0.71591607168E+03  0.17108193780E+03 0.  0.
         24    2    3    3    0    0  0.46190911451E+02 -0.68302159131E+01  0.17914370871E+03  0.20163487184E+03  0.79899318032E+02 0.  0.
         -6    2    1    2    0  503 -0.48910040210E+02  0.91320922876E+01  0.93892501741E+03  0.95621098099E+03  0.17402202360E+03 0.  0.
        -24    2    5    5    0    0 -0.74150049583E+02  0.55914434618E+02  0.74635808410E+03  0.75638665956E+03  0.80285336236E+02 0.  0.
          2    1    4    4  501    0  0.54423170921E+02  0.13471098183E+02  0.16789504133E+03  0.17700874816E+03  0.00000000000E+00 0. -1.
         -1    1    4    4    0  501 -0.82322594702E+01 -0.20301314096E+02  0.11248667376E+02  0.24626123685E+02  0.00000000000E+00 0.  1.
          5    1    3    3  502    0  0.27191287592E+01 -0.23018763745E+01  0.51424738231E+03  0.51428119984E+03  0.47000000000E+01 0. -1.
         13    1    6    6    0    0 -0.25165708499E+01 -0.10844881978E+02  0.26165413587E+03  0.26189087692E+03  0.00000000000E+00 0. -1.
        -14    1    6    6    0    0 -0.71633478733E+02  0.66759316596E+02  0.48470394823E+03  0.49449578265E+03  0.00000000000E+00 0.  1.
         -5    1    5    5    0  503  0.25240009373E+02 -0.46782342330E+02  0.19256693332E+03  0.19982432143E+03  0.47000000000E+01 0.  1.
<mgrwt>
<rscale>  2 0.18028475E+03</rscale>
<asrwt>0</asrwt>
<pdfrwt beam="1">  1       21 0.25418783E+00 0.18099517E+03</pdfrwt>
<pdfrwt beam="2">  1       21 0.30623816E-02 0.18099517E+03</pdfrwt>
<totfact> 0.38797223E+04</totfact>
</mgrwt>
</event>
<event>
12    1  0.2762290E-001  0.2063401E+03  0.7546771E-02  0.1144620E+00
         21   -1    0    0  504  503  0.00000000000E+00  0.00000000000E+00  0.65507691503E+02  0.65507691503E+02  0.00000000000E+00 0. -1.
         21   -1    0    0  502  504 -0.00000000000E+00 -0.00000000000E+00 -0.87026013519E+03  0.87026013519E+03  0.00000000000E+00 0. -1.
          6    2    1    2  502    0  0.10896613910E+03  0.20281553194E+02 -0.63836555151E+03  0.67070022598E+03  0.17332990196E+03 0.  0.
         24    2    3    3    0    0  0.38019680787E+02 -0.48912408574E+02 -0.42070413497E+03  0.43149364886E+03  0.73190709675E+02 0.  0.
         -6    2    1    2    0  503 -0.10896613910E+03 -0.20281553194E+02 -0.16638689218E+03  0.26506760071E+03  0.17404388581E+03 0.  0.
        -24    2    5    5    0    0 -0.10096226219E+03  0.43585085167E+02 -0.83485797296E+02  0.16000718441E+03  0.80866449624E+02 0.  0.
          2    1    4    4  501    0  0.53123048315E+02 -0.10481722898E+02 -0.25911486579E+03  0.26471199151E+03  0.00000000000E+00 0. -1.
         -1    1    4    4    0  501 -0.15103367528E+02 -0.38430685676E+02 -0.16158926919E+03  0.16678165735E+03  0.00000000000E+00 0.  1.
          5    1    3    3  502    0  0.70946458309E+02  0.69193961768E+02 -0.21766141653E+03  0.23920657712E+03  0.47000000000E+01 0. -1.
         11    1    6    6    0    0 -0.21757776951E+02 -0.16426574877E+02  0.40714666334E+01  0.27564652375E+02  0.00000000000E+00 0. -1.
        -12    1    6    6    0    0 -0.79204485243E+02  0.60011660043E+02 -0.87557263929E+02  0.13244253203E+03  0.00000000000E+00 0.  1.
         -5    1    5    5    0  503 -0.80038769014E+01 -0.63866638361E+02 -0.82901094885E+02  0.10506041630E+03  0.47000000000E+01 0.  1.
<mgrwt>
<rscale>  2 0.20618946E+03</rscale>
<asrwt>0</asrwt>
<pdfrwt beam="1">  1       21 0.10078106E-01 0.20634010E+03</pdfrwt>
<pdfrwt beam="2">  1       21 0.13388618E+00 0.20634010E+03</pdfrwt>
<totfact> 0.31849689E+04</totfact>
</mgrwt>
</event>
<event>
12    1  0.2762290E-001  0.1781681E+03  0.7546771E-02  0.1169966E+00
         21   -1    0    0  504  503  0.00000000000E+00  0.00000000000E+00  0.26593554722E+03  0.26593554722E+03  0.00000000000E+00 0. -1.
         21   -1    0    0  502  504 -0.00000000000E+00 -0.00000000000E+00 -0.10722751538E+04  0.10722751538E+04  0.00000000000E+00 0. -1.
          6    2    1    2  502    0  0.23269844213E+02 -0.30591084511E+02 -0.10340801775E+04  0.10490573748E+04  0.17240145603E+03 0.  0.
         24    2    3    3    0    0  0.80628831735E+02 -0.17868576289E+02 -0.72850077900E+03  0.73784559089E+03  0.82960451189E+02 0.  0.
         -6    2    1    2    0  503 -0.23269844213E+02  0.30591084511E+02  0.22774057091E+03  0.28915332622E+03  0.17397292411E+03 0.  0.
        -24    2    5    5    0    0 -0.55659640816E+02  0.73860673004E+02  0.17084683558E+03  0.21053816653E+03  0.81143599300E+02 0.  0.
          2    1    4    4  501    0  0.79733580728E+02  0.14878820261E+02 -0.58849329713E+03  0.59405654946E+03  0.00000000000E+00 0. -1.
         -1    1    4    4    0  501  0.89525100767E+00 -0.32747396550E+02 -0.14000748187E+03  0.14378904143E+03  0.00000000000E+00 0.  1.
          5    1    3    3  502    0 -0.57358987522E+02 -0.12722508222E+02 -0.30557939852E+03  0.31121178394E+03  0.47000000000E+01 0. -1.
         13    1    6    6    0    0 -0.68335671128E+02  0.28348257538E+02  0.12126629595E+03  0.14205246280E+03  0.00000000000E+00 0. -1.
        -14    1    6    6    0    0  0.12676030312E+02  0.45512415465E+02  0.49580539630E+02  0.68485703734E+02  0.00000000000E+00 0.  1.
         -5    1    5    5    0  503  0.32389796603E+02 -0.43269588493E+02  0.56893735335E+02  0.78615159688E+02  0.47000000000E+01 0.  1.
<mgrwt>
<rscale>  2 0.17778334E+03</rscale>
<asrwt>0</asrwt>
<pdfrwt beam="1">  1       21 0.40913162E-01 0.17816812E+03</pdfrwt>
<pdfrwt beam="2">  1       21 0.16496540E+00 0.17816812E+03</pdfrwt>
<totfact> 0.13539590E+03</totfact>
</mgrwt>
</event>
<event>
12    1  0.2762290E-001  0.1985735E+03  0.7546771E-02  0.1150989E+00
         21   -1    0    0  504  503  0.00000000000E+00  0.00000000000E+00  0.48207152713E+03  0.48207152713E+03  0.00000000000E+00 0. -1.
         21   -1    0    0  502  504 -0.00000000000E+00 -0.00000000000E+00 -0.38180416555E+03  0.38180416555E+03  0.00000000000E+00 0. -1.
          6    2    1    2  502    0 -0.62335094914E+02  0.75166435551E+02 -0.33279608982E+03  0.38753667727E+03  0.17290396682E+03 0.  0.
         24    2    3    3    0    0 -0.12323679910E+02 -0.30927221202E+02 -0.14856389287E+03  0.16908622974E+03  0.73556486630E+02 0.  0.
         -6    2    1    2    0  503  0.62335094914E+02 -0.75166435551E+02  0.43306345139E+03  0.47633901540E+03  0.17268250512E+03 0.  0.
        -24    2    5    5    0    0 -0.11754778645E+01 -0.16761257008E+02  0.85239363118E+02  0.11794196726E+03  0.79763632888E+02 0.  0.
          4    1    4    4  501    0  0.91002045584E+01 -0.33531866755E+02 -0.14249177524E+03  0.14666664864E+03  0.00000000000E+00 0. -1.
         -3    1    4    4    0  501 -0.21423884469E+02  0.26046455529E+01 -0.60721176227E+01  0.22419581098E+02  0.00000000000E+00 0.  1.
          5    1    3    3  502    0 -0.50011415004E+02  0.10609365675E+03 -0.18423219695E+03  0.21845044753E+03  0.47000000000E+01 0. -1.
         13    1    6    6    0    0  0.93563494310E+00 -0.48007570153E+02  0.64376748893E+02  0.80311692815E+02  0.00000000000E+00 0. -1.
        -14    1    6    6    0    0 -0.21111128076E+01  0.31246313145E+02  0.20862614225E+02  0.37630274444E+02  0.00000000000E+00 0.  1.
         -5    1    5    5    0  503  0.63510572779E+02 -0.58405178542E+02  0.34782408828E+03  0.35839704815E+03  0.47000000000E+01 0.  1.
<mgrwt>
<rscale>  2 0.19852529E+03</rscale>
<asrwt>0</asrwt>
<pdfrwt beam="1">  1       21 0.74164850E-01 0.19857351E+03</pdfrwt>
<pdfrwt beam="2">  1       21 0.58739102E-01 0.19857351E+03</pdfrwt>
<totfact> 0.43999141E+03</totfact>
</mgrwt>
</event>
<event>
12    1  0.2762290E-001  0.1885024E+03  0.7546771E-02  0.1162859E+00
         21   -1    0    0  504  503  0.00000000000E+00  0.00000000000E+00  0.44838575420E+03  0.44838575420E+03  0.00000000000E+00 0. -1.
         21   -1    0    0  502  504 -0.00000000000E+00 -0.00000000000E+00 -0.73956152577E+02  0.73956152577E+02  0.00000000000E+00 0. -1.
          6    2    1    2  502    0  0.53264745997E+02 -0.37092242692E+02  0.18485300917E+03  0.25499862795E+03  0.16321978319E+03 0.  0.
         24    2    3    3    0    0  0.74810318422E+02 -0.52324540345E+02  0.19192469715E+03  0.22727980125E+03  0.80539291123E+02 0.  0.
         -6    2    1    2    0  503 -0.53264745997E+02  0.37092242692E+02  0.18957659245E+03  0.26734327882E+03  0.17697507365E+03 0.  0.
        -24    2    5    5    0    0  0.30853823052E+02  0.28248752278E+02  0.45659078583E+02  0.10034483039E+03  0.78958109952E+02 0.  0.
          4    1    4    4  501    0  0.79928449330E+02 -0.11727552862E+02  0.13009512227E+03  0.15313664926E+03  0.00000000000E+00 0. -1.
         -3    1    4    4    0  501 -0.51181309086E+01 -0.40596987484E+02  0.61829574880E+02  0.74143151987E+02  0.00000000000E+00 0.  1.
          5    1    3    3  502    0 -0.21545572425E+02  0.15232297654E+02 -0.70716879779E+01  0.27718826703E+02  0.47000000000E+01 0. -1.
         13    1    6    6    0    0 -0.15532277543E+02  0.36311490600E+02  0.33322909204E+02  0.51673903211E+02  0.00000000000E+00 0. -1.
        -14    1    6    6    0    0  0.46386100595E+02 -0.80627383219E+01  0.12336169379E+02  0.48670927181E+02  0.00000000000E+00 0.  1.
         -5    1    5    5    0  503 -0.84118569049E+02  0.88434904141E+01  0.14391751386E+03  0.16699844843E+03  0.47000000000E+01 0.  1.
<mgrwt>
<rscale>  2 0.18520426E+03</rscale>
<asrwt>0</asrwt>
<pdfrwt beam="1">  1       21 0.68982422E-01 0.18850237E+03</pdfrwt>
<pdfrwt beam="2">  1       21 0.11377870E-01 0.18850237E+03</pdfrwt>
<totfact> 0.12368011E+05</totfact>
</mgrwt>
</event>
<event>
12    1  0.2762290E-001  0.2139069E+03  0.7546771E-02  0.1138701E+00
         21   -1    0    0  504  503  0.00000000000E+00  0.00000000000E+00  0.52814970459E+03  0.52814970459E+03  0.00000000000E+00 0.  1.
         21   -1    0    0  502  504 -0.00000000000E+00 -0.00000000000E+00 -0.89166583946E+02  0.89166583946E+02  0.00000000000E+00 0.  1.
          6    2    1    2  502    0  0.12312297800E+03 -0.18358949522E+02  0.16401414639E+03  0.26954929607E+03  0.17395362617E+03 0.  0.
         24    2    3    3    0    0 -0.28838633558E+01 -0.10719340164E+02  0.32025313270E+02  0.86849460909E+02  0.79962411474E+02 0.  0.
         -6    2    1    2    0  503 -0.12312297800E+03  0.18358949522E+02  0.27496897425E+03  0.34776699246E+03  0.17273570999E+03 0.  0.
        -24    2    5    5    0    0 -0.89769271873E+02 -0.53991385187E+02  0.15613586737E+03  0.20462217790E+03  0.80735585475E+02 0.  0.
          4    1    4    4  501    0 -0.15577536299E+02  0.30420062024E+02  0.26898279943E+02  0.43492036909E+02  0.00000000000E+00 0. -1.
         -3    1    4    4    0  501  0.12693672943E+02 -0.41139402188E+02  0.51270333277E+01  0.43357424000E+02  0.00000000000E+00 0.  1.
          5    1    3    3  502    0  0.12600684136E+03 -0.76396093585E+01  0.13198883312E+03  0.18269983517E+03  0.47000000000E+01 0. -1.
         13    1    6    6    0    0 -0.58930512086E+02 -0.35298640114E+02  0.15384864317E+03  0.16848799439E+03  0.00000000000E+00 0. -1.
        -14    1    6    6    0    0 -0.30838759788E+02 -0.18692745073E+02  0.22872242053E+01  0.36134183513E+02  0.00000000000E+00 0.  1.
         -5    1    5    5    0  503 -0.33353706129E+02  0.72350334710E+02  0.11883310688E+03  0.14314481456E+03  0.47000000000E+01 0.  1.
<mgrwt>
<rscale>  2 0.21365921E+03</rscale>
<asrwt>0</asrwt>
<pdfrwt beam="1">  1       21 0.81253799E-01 0.21390695E+03</pdfrwt>
<pdfrwt beam="2">  1       21 0.13717936E-01 0.21390695E+03</pdfrwt>
<totfact> 0.60645192E+04</totfact>
</mgrwt>
</event>
<event>
12    1  0.2762290E-001  0.2584684E+03  0.7546771E-02  0.1108117E+00
         21   -1    0    0  504  503  0.00000000000E+00  0.00000000000E+00  0.50597221352E+03  0.50597221352E+03  0.00000000000E+00 0. -1.
         21   -1    0    0  502  504 -0.00000000000E+00 -0.00000000000E+00 -0.13693594472E+03  0.13693594472E+03  0.00000000000E+00 0. -1.
          6    2    1    2  502    0 -0.10833298519E+03  0.15870041736E+03  0.12256069481E+03  0.28575817391E+03  0.17237967367E+03 0.  0.
         24    2    3    3    0    0 -0.13446576092E+02  0.17568925835E+02  0.71154376617E+02  0.10803302633E+03  0.78222195720E+02 0.  0.
         -6    2    1    2    0  503  0.10833298519E+03 -0.15870041736E+03  0.24647557399E+03  0.35714998432E+03  0.17287002222E+03 0.  0.
        -24    2    5    5    0    0  0.38920936183E+02 -0.13130820402E+03  0.23182319802E+03  0.28095846235E+03  0.80243247135E+02 0.  0.
          4    1    4    4  501    0 -0.38862273838E+02  0.32522261372E+02  0.36066403815E+02  0.62199351257E+02  0.00000000000E+00 0. -1.
         -3    1    4    4    0  501  0.25415697746E+02 -0.14953335537E+02  0.35087972802E+02  0.45833675076E+02  0.00000000000E+00 0.  1.
          5    1    3    3  502    0 -0.94886409101E+02  0.14113149152E+03  0.51406318196E+02  0.17772514758E+03  0.47000000000E+01 0. -1.
         11    1    6    6    0    0  0.58134573739E+02 -0.67583357211E+02  0.15911466053E+03  0.18238589318E+03  0.00000000000E+00 0. -1.
        -12    1    6    6    0    0 -0.19213637557E+02 -0.63724846813E+02  0.72708537492E+02  0.98572569175E+02  0.00000000000E+00 0.  1.
         -5    1    5    5    0  503  0.69412049011E+02 -0.27392213332E+02  0.14652375969E+02  0.76191521973E+02  0.47000000000E+01 0.  1.
<mgrwt>
<rscale>  2 0.25838641E+03</rscale>
<asrwt>0</asrwt>
<pdfrwt beam="1">  1       21 0.77841878E-01 0.25846838E+03</pdfrwt>
<pdfrwt beam="2">  1       21 0.21067069E-01 0.25846838E+03</pdfrwt>
<totfact> 0.29641792E+04</totfact>
</mgrwt>
</event>
<event>
12    1  0.2762290E-001  0.1756280E+03  0.7546771E-02  0.1172235E+00
         21   -1    0    0  504  503  0.00000000000E+00  0.00000000000E+00  0.85742687229E+02  0.85742687229E+02  0.00000000000E+00 0.  1.
         21   -1    0    0  502  504 -0.00000000000E+00 -0.00000000000E+00 -0.78895089592E+03  0.78895089592E+03  0.00000000000E+00 0.  1.
          6    2    1    2  502    0 -0.21641631638E+02 -0.19368970631E+02 -0.67434748401E+03  0.69671002433E+03  0.17267545154E+03 0.  0.
         24    2    3    3    0    0 -0.72477997001E+02  0.13913826896E+02 -0.34404447091E+03  0.36083169648E+03  0.79914082564E+02 0.  0.
         -6    2    1    2    0  503  0.21641631638E+02  0.19368970631E+02 -0.28860724684E+02  0.17798355883E+03  0.17320995508E+03 0.  0.
        -24    2    5    5    0    0  0.51078227409E+02  0.60393311654E+02 -0.41616184534E+02  0.12569301013E+03  0.88376968563E+02 0.  0.
          2    1    4    4  501    0 -0.81524028213E+02  0.26057915789E+02 -0.22328139910E+03  0.23912290843E+03  0.00000000000E+00 0. -1.
         -1    1    4    4    0  501  0.90460312121E+01 -0.12144088893E+02 -0.12076307181E+03  0.12170878805E+03  0.00000000000E+00 0.  1.
          5    1    3    3  502    0  0.50836365363E+02 -0.33282797527E+02 -0.33030301310E+03  0.33587832784E+03  0.47000000000E+01 0. -1.
         13    1    6    6    0    0  0.53709723643E+02  0.61970710716E+02  0.19392483677E+01  0.82029653691E+02  0.00000000000E+00 0. -1.
        -14    1    6    6    0    0 -0.26314962340E+01 -0.15773990614E+01 -0.43555432902E+02  0.43663356439E+02  0.00000000000E+00 0.  1.
         -5    1    5    5    0  503 -0.29436595771E+02 -0.41024341023E+02  0.12755459850E+02  0.52290548696E+02  0.47000000000E+01 0.  1.
<mgrwt>
<rscale>  2 0.17549610E+03</rscale>
<asrwt>0</asrwt>
<pdfrwt beam="1">  1       21 0.13191182E-01 0.17562803E+03</pdfrwt>
<pdfrwt beam="2">  1       21 0.12137706E+00 0.17562803E+03</pdfrwt>
<totfact> 0.25682895E+04</totfact>
</mgrwt>
</event>
<event>
12    1  0.2762290E-001  0.1876866E+03  0.7546771E-02  0.1162998E+00
         21   -1    0    0  504  503  0.00000000000E+00  0.00000000000E+00  0.45912995408E+02  0.45912995408E+02  0.00000000000E+00 0. -1.
         21   -1    0    0  502  504 -0.00000000000E+00 -0.00000000000E+00 -0.87543461747E+03  0.87543461747E+03  0.00000000000E+00 0. -1.
          6    2    1    2  502    0  0.37137956499E+02 -0.60923120873E+02 -0.61493543073E+03  0.64294000874E+03  0.17359555410E+03 0.  0.
         24    2    3    3    0    0 -0.36820066089E+02 -0.38550698282E+02 -0.46123569275E+03  0.47084697038E+03  0.78208897465E+02 0.  0.
         -6    2    1    2    0  503 -0.37137956499E+02  0.60923120873E+02 -0.21458619133E+03  0.27840760414E+03  0.16239675508E+03 0.  0.
        -24    2    5    5    0    0  0.19603329339E+02  0.23761726314E+02 -0.47738330545E+02  0.98238679478E+02  0.80143494957E+02 0.  0.
          2    1    4    4  501    0 -0.21261812543E+02 -0.60333951016E+02 -0.25594116034E+03  0.26381457100E+03  0.00000000000E+00 0. -1.
         -1    1    4    4    0  501 -0.15558253546E+02  0.21783252734E+02 -0.20529453241E+03  0.20703239938E+03  0.00000000000E+00 0.  1.
          5    1    3    3  502    0  0.73958022588E+02 -0.22372422591E+02 -0.15369973798E+03  0.17209303836E+03  0.47000000000E+01 0. -1.
         13    1    6    6    0    0 -0.52432498612E+01  0.49257292907E+02 -0.21429950205E+02  0.53972357179E+02  0.00000000000E+00 0. -1.
        -14    1    6    6    0    0  0.24846579200E+02 -0.25495566593E+02 -0.26308380340E+02  0.44266322300E+02  0.00000000000E+00 0.  1.
         -5    1    5    5    0  503 -0.56741285838E+02  0.37161394559E+02 -0.16684786079E+03  0.18016892466E+03  0.47000000000E+01 0.  1.
<mgrwt>
<rscale>  2 0.18505507E+03</rscale>
<asrwt>0</asrwt>
<pdfrwt beam="1">  1       21 0.70635390E-02 0.18768663E+03</pdfrwt>
<pdfrwt beam="2">  1       21 0.13468222E+00 0.18768663E+03</pdfrwt>
<totfact> 0.59004753E+04</totfact>
</mgrwt>
</event>
<event>
12    1  0.2762290E-001  0.2391923E+03  0.7546771E-02  0.1120359E+00
         21   -1    0    0  504  503  0.00000000000E+00  0.00000000000E+00  0.14308412621E+03  0.14308412621E+03  0.00000000000E+00 0. -1.
         21   -1    0    0  502  504 -0.00000000000E+00 -0.00000000000E+00 -0.40100742638E+03  0.40100742638E+03  0.00000000000E+00 0. -1.
          6    2    1    2  502    0  0.14884049844E+03 -0.69652360721E+02 -0.11273188544E+03  0.26428179592E+03  0.17358411312E+03 0.  0.
         24    2    3    3    0    0  0.16717054830E+03 -0.75684101541E+02 -0.63194475773E+02  0.21091122742E+03  0.82558637594E+02 0.  0.
         -6    2    1    2    0  503 -0.14884049844E+03  0.69652360721E+02 -0.14519141473E+03  0.27980975667E+03  0.17380450997E+03 0.  0.
        -24    2    5    5    0    0 -0.47558919077E+02 -0.22195535141E+02 -0.89770953035E+02  0.13220382228E+03  0.81636597501E+02 0.  0.
          4    1    4    4  501    0  0.13121091033E+03 -0.84596688474E+02 -0.73358564248E+02  0.17249458437E+03  0.00000000000E+00 0. -1.
         -3    1    4    4    0  501  0.35959637968E+02  0.89125869332E+01  0.10164088475E+02  0.38416643049E+02  0.00000000000E+00 0.  1.
          5    1    3    3  502    0 -0.18330049851E+02  0.60317408203E+01 -0.49537409669E+02  0.53370568496E+02  0.47000000000E+01 0. -1.
         11    1    6    6    0    0 -0.18641979815E+02  0.15416974048E+02  0.63510695393E+01  0.25010849337E+02  0.00000000000E+00 0. -1.
        -12    1    6    6    0    0 -0.28916939261E+02 -0.37612509189E+02 -0.96122022574E+02  0.10719297294E+03  0.00000000000E+00 0.  1.
         -5    1    5    5    0  503 -0.10128157937E+03  0.91847895861E+02 -0.55420461695E+02  0.14760593439E+03  0.47000000000E+01 0.  1.
<mgrwt>
<rscale>  2 0.23915226E+03</rscale>
<asrwt>0</asrwt>
<pdfrwt beam="1">  1       21 0.22012942E-01 0.23919229E+03</pdfrwt>
<pdfrwt beam="2">  1       21 0.61693451E-01 0.23919229E+03</pdfrwt>
<totfact> 0.46045037E+04</totfact>
</mgrwt>
</event>
<event>
12    1  0.2762290E-001  0.2157974E+03  0.7546771E-02  0.1138059E+00
         21   -1    0    0  504  503  0.00000000000E+00  0.00000000000E+00  0.98652698116E+03  0.98652698116E+03  0.00000000000E+00 0. -1.
         21   -1    0    0  502  504 -0.00000000000E+00 -0.00000000000E+00 -0.96090401167E+02  0.96090401167E+02  0.00000000000E+00 0. -1.
          6    2    1    2  502    0  0.75238936997E+02  0.93456790181E+02  0.52115922640E+02  0.21696730532E+03  0.17310018172E+03 0.  0.
         24    2    3    3    0    0  0.26328960054E+02  0.11464466435E+03  0.72328743187E+02  0.15976800487E+03  0.80360158588E+02 0.  0.
         -6    2    1    2    0  503 -0.75238936997E+02 -0.93456790181E+02  0.83832065735E+03  0.86565007701E+03  0.17936962400E+03 0.  0.
        -24    2    5    5    0    0 -0.65265991069E+02  0.13215588624E+02  0.49775721131E+03  0.50860105121E+03  0.80489045838E+02 0.  0.
          2    1    4    4  501    0  0.17728679221E+02  0.12753268316E+02 -0.14003497453E+02  0.25943204516E+02  0.00000000000E+00 0. -1.
         -1    1    4    4    0  501  0.86002808326E+01  0.10189139604E+03  0.86332240640E+02  0.13382480036E+03  0.00000000000E+00 0.  1.
          5    1    3    3  502    0  0.48909976944E+02 -0.21187874173E+02 -0.20212820546E+02  0.57199300442E+02  0.47000000000E+01 0. -1.
         11    1    6    6    0    0 -0.47069968164E+02 -0.31052185363E+02  0.25298548994E+03  0.25919390085E+03  0.00000000000E+00 0. -1.
        -12    1    6    6    0    0 -0.18196022905E+02  0.44267773987E+02  0.24477172138E+03  0.24940715036E+03  0.00000000000E+00 0.  1.
         -5    1    5    5    0  503 -0.99729459287E+01 -0.10667237881E+03  0.34056344604E+03  0.35704902580E+03  0.47000000000E+01 0.  1.
<mgrwt>
<rscale>  2 0.21449003E+03</rscale>
<asrwt>0</asrwt>
<pdfrwt beam="1">  1       21 0.15177337E+00 0.21579743E+03</pdfrwt>
<pdfrwt beam="2">  1       21 0.14783139E-01 0.21579743E+03</pdfrwt>
<totfact> 0.11479027E+04</totfact>
</mgrwt>
</event>
<event>
12    1  0.2762290E-001  0.1871161E+03  0.7546771E-02  0.1161335E+00
         21   -1    0    0  504  503  0.00000000000E+00  0.00000000000E+00  0.24405947978E+03  0.24405947978E+03  0.00000000000E+00 0.  1.
         21   -1    0    0  502  504 -0.00000000000E+00 -0.00000000000E+00 -0.22269006857E+03  0.22269006857E+03  0.00000000000E+00 0.  1.
          6    2    1    2  502    0  0.70165697274E+02 -0.18367813640E+01 -0.12925656669E+03  0.22654002720E+03  0.17229778018E+03 0.  0.
         24    2    3    3    0    0  0.26401606556E+02 -0.71815030440E+02 -0.86000139560E+02  0.13323697544E+03  0.67094144265E+02 0.  0.
         -6    2    1    2    0  503 -0.70165697274E+02  0.18367813640E+01  0.15062597790E+03  0.24020952114E+03  0.17345267363E+03 0.  0.
        -24    2    5    5    0    0 -0.29363411800E+02  0.51295722472E+01  0.19471333912E+01  0.85926800863E+02  0.80567371275E+02 0.  0.
          4    1    4    4  501    0 -0.83660048066E+01 -0.52917232395E+02 -0.21840075707E+02  0.57855098545E+02  0.00000000000E+00 0. -1.
         -3    1    4    4    0  501  0.34767611363E+02 -0.18897798045E+02 -0.64160063853E+02  0.75381876896E+02  0.00000000000E+00 0.  1.
          5    1    3    3  502    0  0.43764090718E+02  0.69978249076E+02 -0.43256427130E+02  0.93303051762E+02  0.47000000000E+01 0. -1.
         11    1    6    6    0    0  0.14397943014E+02 -0.25785647839E+02 -0.97197527236E+01  0.31091381290E+02  0.00000000000E+00 0. -1.
        -12    1    6    6    0    0 -0.43761354814E+02  0.30915220086E+02  0.11666886115E+02  0.54835419573E+02  0.00000000000E+00 0.  1.
         -5    1    5    5    0  503 -0.40802285474E+02 -0.32927908832E+01  0.14867884451E+03  0.15428272028E+03  0.47000000000E+01 0.  1.
<mgrwt>
<rscale>  2 0.18684799E+03</rscale>
<asrwt>0</asrwt>
<pdfrwt beam="1">  1       21 0.37547612E-01 0.18711608E+03</pdfrwt>
<pdfrwt beam="2">  1       21 0.34260011E-01 0.18711608E+03</pdfrwt>
<totfact> 0.56303015E+04</totfact>
</mgrwt>
</event>
<event>
12    1  0.2762290E-001  0.2954691E+03  0.7546771E-02  0.1087688E+00
         21   -1    0    0  504  503  0.00000000000E+00  0.00000000000E+00  0.68886219786E+03  0.68886219786E+03  0.00000000000E+00 0. -1.
         21   -1    0    0  502  504 -0.00000000000E+00 -0.00000000000E+00 -0.20184528075E+03  0.20184528075E+03  0.00000000000E+00 0. -1.
          6    2    1    2  502    0  0.32349744181E+02  0.23767025969E+03 -0.28811272309E+02  0.29687042803E+03  0.17253493367E+03 0.  0.
         24    2    3    3    0    0  0.77888941789E+02  0.21714348063E+03 -0.26587883635E+02  0.24664891237E+03  0.83131173370E+02 0.  0.
         -6    2    1    2    0  503 -0.32349744181E+02 -0.23767025969E+03  0.51582818942E+03  0.59383705058E+03  0.17038210983E+03 0.  0.
        -24    2    5    5    0    0  0.45931087770E+02 -0.14263576367E+03  0.27338863909E+03  0.32188398542E+03  0.80083245341E+02 0.  0.
          2    1    4    4  501    0  0.21759157214E+02  0.17077256180E+03 -0.23782457637E+02  0.17378818739E+03  0.00000000000E+00 0. -1.
         -1    1    4    4    0  501  0.56129784575E+02  0.46370918831E+02 -0.28054259976E+01  0.72860724980E+02  0.00000000000E+00 0.  1.
          5    1    3    3  502    0 -0.45539197608E+02  0.20526779057E+02 -0.22233886745E+01  0.50221515652E+02  0.47000000000E+01 0. -1.
         11    1    6    6    0    0  0.97308410547E+00 -0.11797798053E+03  0.17724426529E+03  0.21292083121E+03  0.00000000000E+00 0. -1.
        -12    1    6    6    0    0  0.44958003665E+02 -0.24657783140E+02  0.96144373799E+02  0.10896315421E+03  0.00000000000E+00 0.  1.
         -5    1    5    5    0  503 -0.78280831951E+02 -0.95034496012E+02  0.24243955033E+03  0.27195306516E+03  0.47000000000E+01 0.  1.
<mgrwt>
<rscale>  2 0.29515558E+03</rscale>
<asrwt>0</asrwt>
<pdfrwt beam="1">  1       21 0.10597880E+00 0.29546905E+03</pdfrwt>
<pdfrwt beam="2">  1       21 0.31053120E-01 0.29546905E+03</pdfrwt>
<totfact> 0.66753417E+03</totfact>
</mgrwt>
</event>
<event>
12    1  0.2762290E-001  0.2299673E+03  0.7546771E-02  0.1126692E+00
         21   -1    0    0  504  503  0.00000000000E+00  0.00000000000E+00  0.33116970862E+03  0.33116970862E+03  0.00000000000E+00 0. -1.
         21   -1    0    0  502  504 -0.00000000000E+00 -0.00000000000E+00 -0.16862226687E+03  0.16862226687E+03  0.00000000000E+00 0.  1.
          6    2    1    2  502    0  0.10089410427E+03  0.11235996489E+03  0.23365402853E+02  0.23098606536E+03  0.17321731540E+03 0.  0.
         24    2    3    3    0    0  0.10660534292E+03  0.73975543096E+02 -0.39051420635E+02  0.15733871688E+03  0.79958603431E+02 0.  0.
         -6    2    1    2    0  503 -0.10089410427E+03 -0.11235996489E+03  0.13918203890E+03  0.26880591013E+03  0.17343758353E+03 0.  0.
        -24    2    5    5    0    0 -0.99743528983E+02 -0.11140984001E+03  0.16842551345E+03  0.23914958932E+03  0.80401793915E+02 0.  0.
          4    1    4    4  501    0  0.14581281772E+02  0.98097065762E+01 -0.41561937207E+02  0.45124702166E+02  0.00000000000E+00 0. -1.
         -3    1    4    4    0  501  0.92024061144E+02  0.64165836520E+02  0.25105165716E+01  0.11221401472E+03  0.00000000000E+00 0.  1.
          5    1    3    3  502    0 -0.57112386445E+01  0.38384421790E+02  0.62416823488E+02  0.73647348475E+02  0.47000000000E+01 0. -1.
         11    1    6    6    0    0 -0.10446650021E+02  0.74025388263E+01  0.42376344499E+02  0.44268325594E+02  0.00000000000E+00 0. -1.
        -12    1    6    6    0    0 -0.89296878962E+02 -0.11881237884E+03  0.12604916895E+03  0.19488126372E+03  0.00000000000E+00 0.  1.
         -5    1    5    5    0  503 -0.11505752884E+01 -0.95012487176E+00 -0.29243474544E+02  0.29656320813E+02  0.47000000000E+01 0.  1.
<mgrwt>
<rscale>  2 0.22992581E+03</rscale>
<asrwt>0</asrwt>
<pdfrwt beam="1">  1       21 0.50949186E-01 0.22996734E+03</pdfrwt>
<pdfrwt beam="2">  1       21 0.25941887E-01 0.22996734E+03</pdfrwt>
<totfact> 0.50817496E+04</totfact>
</mgrwt>
</event>
<event>
12    1  0.2762290E-001  0.2400655E+03  0.7546771E-02  0.1119948E+00
         21   -1    0    0  504  503  0.00000000000E+00  0.00000000000E+00  0.15537819127E+03  0.15537819127E+03  0.00000000000E+00 0. -1.
         21   -1    0    0  502  504 -0.00000000000E+00 -0.00000000000E+00 -0.37173887872E+03  0.37173887872E+03  0.00000000000E+00 0. -1.
          6    2    1    2  502    0  0.15560242798E+03  0.63414613386E+02 -0.13021920043E+03  0.27206455175E+03  0.16978972694E+03 0.  0.
         24    2    3    3    0    0  0.29215984150E+02  0.41935490063E+02 -0.10427223122E+03  0.14118208106E+03  0.80296467878E+02 0.  0.
         -6    2    1    2    0  503 -0.15560242798E+03 -0.63414613386E+02 -0.86141487017E+02  0.25505251824E+03  0.17145816543E+03 0.  0.
        -24    2    5    5    0    0 -0.15267178053E+03 -0.10240144289E+03 -0.73317400068E+02  0.21363864647E+03  0.80444403386E+02 0.  0.
          2    1    4    4  501    0  0.41147728168E+02  0.60364167652E+02 -0.83671619585E+02  0.11107613692E+03  0.00000000000E+00 0. -1.
         -1    1    4    4    0  501 -0.11931744018E+02 -0.18428677589E+02 -0.20600611632E+02  0.30105944141E+02  0.00000000000E+00 0.  1.
          5    1    3    3  502    0  0.12638644383E+03  0.21479123323E+02 -0.25946969215E+02  0.13088247069E+03  0.47000000000E+01 0. -1.
         11    1    6    6    0    0 -0.65936927785E+02 -0.35252102469E+02 -0.72205903724E+02  0.10394268472E+03  0.00000000000E+00 0. -1.
        -12    1    6    6    0    0 -0.86734852746E+02 -0.67149340422E+02 -0.11114963432E+01  0.10969596175E+03  0.00000000000E+00 0.  1.
         -5    1    5    5    0  503 -0.29306474482E+01  0.38986829505E+02 -0.12824086949E+02  0.41413871775E+02  0.47000000000E+01 0.  1.
<mgrwt>
<rscale>  2 0.23976773E+03</rscale>
<asrwt>0</asrwt>
<pdfrwt beam="1">  1       21 0.23904337E-01 0.24006547E+03</pdfrwt>
<pdfrwt beam="2">  1       21 0.57190596E-01 0.24006547E+03</pdfrwt>
<totfact> 0.46330979E+04</totfact>
</mgrwt>
</event>
<event>
12    1  0.2762290E-001  0.1766669E+03  0.7546771E-02  0.1171263E+00
         21   -1    0    0  504  503  0.00000000000E+00  0.00000000000E+00  0.37091326983E+03  0.37091326983E+03  0.00000000000E+00 0. -1.
         21   -1    0    0  502  504 -0.00000000000E+00 -0.00000000000E+00 -0.12882723978E+03  0.12882723978E+03  0.00000000000E+00 0. -1.
          6    2    1    2  502    0 -0.63108012742E+00 -0.31359759998E+02  0.26898304510E+03  0.32181214686E+03  0.17386013488E+03 0.  0.
         24    2    3    3    0    0 -0.58232124989E+02  0.16203159549E+02  0.13662390260E+03  0.16975576162E+03  0.80606482885E+02 0.  0.
         -6    2    1    2    0  503  0.63108012742E+00  0.31359759998E+02 -0.26897015058E+02  0.17792836275E+03  0.17306420786E+03 0.  0.
        -24    2    5    5    0    0 -0.28958930777E+02  0.36098508695E+02 -0.76815424091E+02  0.11951636017E+03  0.79005246468E+02 0.  0.
          2    1    4    4  501    0 -0.72791230337E+02  0.12659970808E+02  0.71091553735E+02  0.10253217586E+03  0.00000000000E+00 0. -1.
         -1    1    4    4    0  501  0.14559105348E+02  0.35431887409E+01  0.65532348861E+02  0.67223585758E+02  0.00000000000E+00 0.  1.
          5    1    3    3  502    0  0.57601044862E+02 -0.47562919547E+02  0.13235914251E+03  0.15205638523E+03  0.47000000000E+01 0. -1.
         13    1    6    6    0    0  0.48227731299E+01  0.53331935533E+02 -0.42365693279E+02  0.68281816433E+02  0.00000000000E+00 0. -1.
        -14    1    6    6    0    0 -0.33781703907E+02 -0.17233426838E+02 -0.34449730812E+02  0.51234543742E+02  0.00000000000E+00 0.  1.
         -5    1    5    5    0  503  0.29590010905E+02 -0.47387486969E+01  0.49918409033E+02  0.58412002576E+02  0.47000000000E+01 0.  1.
<mgrwt>
<rscale>  2 0.17647073E+03</rscale>
<asrwt>0</asrwt>
<pdfrwt beam="1">  1       21 0.57063579E-01 0.17666686E+03</pdfrwt>
<pdfrwt beam="2">  1       21 0.19819576E-01 0.17666686E+03</pdfrwt>
<totfact> 0.68196259E+04</totfact>
</mgrwt>
</event>
<event>
12    1  0.2762290E-001  0.2155808E+03  0.7546771E-02  0.1137291E+00
         21   -1    0    0  504  503  0.00000000000E+00  0.00000000000E+00  0.15688556781E+04  0.15688556781E+04  0.00000000000E+00 0. -1.
         21   -1    0    0  502  504 -0.00000000000E+00 -0.00000000000E+00 -0.35510965619E+02  0.35510965619E+02  0.00000000000E+00 0.  1.
          6    2    1    2  502    0  0.98070700456E+02 -0.79953322240E+02  0.43812842555E+03  0.48813467493E+03  0.17409350239E+03 0.  0.
         24    2    3    3    0    0  0.10734005493E+03 -0.11406172254E+03  0.39197814110E+03  0.42981450126E+03  0.81004187849E+02 0.  0.
         -6    2    1    2    0  503 -0.98070700456E+02  0.79953322240E+02  0.10952162870E+04  0.11162319688E+04  0.17454139036E+03 0.  0.
        -24    2    5    5    0    0 -0.10687914143E+03  0.66786641970E+02  0.10880355970E+04  0.10982152430E+04  0.79822635637E+02 0.  0.
          2    1    4    4  501    0  0.46481834551E+02 -0.28951911653E+02  0.23405323815E+03  0.24037406769E+03  0.00000000000E+00 0. -1.
         -1    1    4    4    0  501  0.60858220378E+02 -0.85109810884E+02  0.15792490296E+03  0.18944043357E+03  0.00000000000E+00 0.  1.
          5    1    3    3  502    0 -0.92693544732E+01  0.34108400298E+02  0.46150284443E+02  0.58320173674E+02  0.47000000000E+01 0. -1.
         11    1    6    6    0    0 -0.53483506805E+02  0.27686430765E+02  0.81699751708E+03  0.81921423746E+03  0.00000000000E+00 0. -1.
        -12    1    6    6    0    0 -0.53395634625E+02  0.39100211206E+02  0.27103807992E+03  0.27900100552E+03  0.00000000000E+00 0.  1.
         -5    1    5    5    0  503  0.88084409737E+01  0.13166680270E+02  0.71806899788E+01  0.18016725848E+02  0.47000000000E+01 0.  1.
<mgrwt>
<rscale>  2 0.21549015E+03</rscale>
<asrwt>0</asrwt>
<pdfrwt beam="1">  1       21 0.24136236E+00 0.21558083E+03</pdfrwt>
<pdfrwt beam="2">  1       21 0.54632267E-02 0.21558083E+03</pdfrwt>
<totfact> 0.16973017E+04</totfact>
</mgrwt>
</event>
<event>
12    1  0.2762290E-001  0.1775469E+03  0.7546771E-02  0.1170944E+00
         21   -1    0    0  504  503  0.00000000000E+00  0.00000000000E+00  0.17049455878E+03  0.17049455878E+03  0.00000000000E+00 0. -1.
         21   -1    0    0  502  504 -0.00000000000E+00 -0.00000000000E+00 -0.18756956749E+03  0.18756956749E+03  0.00000000000E+00 0. -1.
          6    2    1    2  502    0  0.20171855329E+02  0.15339567220E+02  0.22844596106E+02  0.17901057737E+03  0.17572906751E+03 0.  0.
         24    2    3    3    0    0 -0.41263712742E+02  0.36431690505E+02  0.48543502878E+02  0.10899821775E+03  0.80586461267E+02 0.  0.
         -6    2    1    2    0  503 -0.20171855329E+02 -0.15339567220E+02 -0.39919604810E+02  0.17905354890E+03  0.17269740142E+03 0.  0.
        -24    2    5    5    0    0 -0.37181972151E+02 -0.58929703182E+02 -0.64851808509E+02  0.12582621750E+03  0.82287732820E+02 0.  0.
          2    1    4    4  501    0 -0.62557481707E+02  0.19605273156E+02  0.49014031902E+02  0.81854630757E+02  0.00000000000E+00 0. -1.
         -1    1    4    4    0  501  0.21293768965E+02  0.16826417349E+02 -0.47052902324E+00  0.27143586998E+02  0.00000000000E+00 0.  1.
          5    1    3    3  502    0  0.61435568072E+02 -0.21092123285E+02 -0.25698906772E+02  0.70012359611E+02  0.47000000000E+01 0. -1.
         11    1    6    6    0    0 -0.19912088606E+02  0.16852464438E+02 -0.32405486996E+02  0.41600630016E+02  0.00000000000E+00 0. -1.
        -12    1    6    6    0    0 -0.17269883545E+02 -0.75782167620E+02 -0.32446321513E+02  0.84225587481E+02  0.00000000000E+00 0.  1.
         -5    1    5    5    0  503  0.17010116822E+02  0.43590135962E+02  0.24932203699E+02  0.53227331407E+02  0.47000000000E+01 0.  1.
<mgrwt>
<rscale>  2 0.17679210E+03</rscale>
<asrwt>0</asrwt>
<pdfrwt beam="1">  1       21 0.26229932E-01 0.17754693E+03</pdfrwt>
<pdfrwt beam="2">  1       21 0.28856857E-01 0.17754693E+03</pdfrwt>
<totfact> 0.15954039E+05</totfact>
</mgrwt>
</event>
<event>
12    1  0.2762290E-001  0.1918027E+03  0.7546771E-02  0.1156985E+00
         21   -1    0    0  504  503  0.00000000000E+00  0.00000000000E+00  0.97262688360E+02  0.97262688360E+02  0.00000000000E+00 0.  1.
         21   -1    0    0  502  504 -0.00000000000E+00 -0.00000000000E+00 -0.39271225171E+03  0.39271225171E+03  0.00000000000E+00 0.  1.
          6    2    1    2  502    0 -0.65627002325E+02  0.47937551821E+02 -0.19648650651E+03  0.27414641372E+03  0.17304449313E+03 0.  0.
         24    2    3    3    0    0  0.17202167344E+02 -0.97406873346E+01 -0.51015790351E+02  0.97027047525E+02  0.80130153720E+02 0.  0.
         -6    2    1    2    0  503  0.65627002325E+02 -0.47937551821E+02 -0.98963056839E+02  0.21582852635E+03  0.17373357148E+03 0.  0.
        -24    2    5    5    0    0  0.34371895416E+01  0.10449154669E+02 -0.98970558929E+02  0.13039627035E+03  0.84184420663E+02 0.  0.
          4    1    4    4  501    0  0.33556437509E+02 -0.11879156207E+02 -0.65842442548E+02  0.74849021979E+02  0.00000000000E+00 0. -1.
         -3    1    4    4    0  501 -0.16354270165E+02  0.21384688720E+01  0.14826652197E+02  0.22178025546E+02  0.00000000000E+00 0.  1.
          5    1    3    3  502    0 -0.82829169669E+02  0.57678239155E+02 -0.14547071616E+03  0.17711936619E+03  0.47000000000E+01 0. -1.
         11    1    6    6    0    0  0.29580773601E+02  0.87830220074E+01 -0.31016780216E+01  0.31012643373E+02  0.00000000000E+00 0. -1.
        -12    1    6    6    0    0 -0.26143584059E+02  0.16661326618E+01 -0.95868880907E+02  0.99383626981E+02  0.00000000000E+00 0.  1.
         -5    1    5    5    0  503  0.62189812783E+02 -0.58386706490E+02  0.75020903828E-02  0.85432255999E+02  0.47000000000E+01 0.  1.
<mgrwt>
<rscale>  2 0.19164650E+03</rscale>
<asrwt>0</asrwt>
<pdfrwt beam="1">  1       21 0.14963490E-01 0.19180268E+03</pdfrwt>
<pdfrwt beam="2">  1       21 0.60417270E-01 0.19180268E+03</pdfrwt>
<totfact> 0.10062893E+05</totfact>
</mgrwt>
</event>
<event>
12    1  0.2762290E-001  0.2082678E+03  0.7546771E-02  0.1143418E+00
         21   -1    0    0  504  503  0.00000000000E+00  0.00000000000E+00  0.98089142193E+03  0.98089142193E+03  0.00000000000E+00 0.  1.
         21   -1    0    0  502  504 -0.00000000000E+00 -0.00000000000E+00 -0.46431371220E+02  0.46431371220E+02  0.00000000000E+00 0.  1.
          6    2    1    2  502    0 -0.47002747855E+01  0.11709769862E+03  0.34566644542E+03  0.40356010003E+03  0.17216706780E+03 0.  0.
         24    2    3    3    0    0  0.55751123706E+02  0.62890182457E+02  0.13537423079E+03  0.17808785800E+03  0.79534520566E+02 0.  0.
         -6    2    1    2    0  503  0.47002747855E+01 -0.11709769862E+03  0.58879360529E+03  0.62376269313E+03  0.16931634328E+03 0.  0.
        -24    2    5    5    0    0  0.53558470087E+02 -0.11634083087E+03  0.37378247792E+03  0.40321888571E+03  0.80426552508E+02 0.  0.
          4    1    4    4  501    0 -0.13143019405E+02  0.38402360296E+02  0.33148980222E+02  0.52405487547E+02  0.00000000000E+00 0. -1.
         -3    1    4    4    0  501  0.68894143111E+02  0.24487822162E+02  0.10222525057E+03  0.12568237046E+03  0.00000000000E+00 0.  1.
          5    1    3    3  502    0 -0.60451398492E+02  0.54207516163E+02  0.21029221463E+03  0.22547224202E+03  0.47000000000E+01 0. -1.
         11    1    6    6    0    0  0.11314330805E+02  0.42422348951E+01  0.52654433178E+01  0.13180877505E+02  0.00000000000E+00 0. -1.
        -12    1    6    6    0    0  0.42244139282E+02 -0.12058306576E+03  0.36851703460E+03  0.39003800820E+03  0.00000000000E+00 0.  1.
         -5    1    5    5    0  503 -0.48858195302E+02 -0.75686775310E+00  0.21501112737E+03  0.22054380742E+03  0.47000000000E+01 0.  1.
<mgrwt>
<rscale>  2 0.20767768E+03</rscale>
<asrwt>0</asrwt>
<pdfrwt beam="1">  1       21 0.15090636E+00 0.20826777E+03</pdfrwt>
<pdfrwt beam="2">  1       21 0.71432886E-02 0.20826777E+03</pdfrwt>
<totfact> 0.42580734E+04</totfact>
</mgrwt>
</event>
<event>
12    1  0.2762290E-001  0.1894122E+03  0.7546771E-02  0.1159213E+00
         21   -1    0    0  504  503  0.00000000000E+00  0.00000000000E+00  0.48038373808E+02  0.48038373808E+02  0.00000000000E+00 0.  1.
         21   -1    0    0  502  504 -0.00000000000E+00 -0.00000000000E+00 -0.77586686452E+03  0.77586686452E+03  0.00000000000E+00 0.  1.
          6    2    1    2  502    0 -0.78301196366E+02  0.22849045545E+02 -0.44958700636E+03  0.48785803765E+03  0.17094979491E+03 0.  0.
         24    2    3    3    0    0 -0.98146998415E+02 -0.37945255239E+01 -0.43209296591E+03  0.45001801665E+03  0.78515300395E+02 0.  0.
         -6    2    1    2    0  503  0.78301196366E+02 -0.22849045545E+02 -0.27824148436E+03  0.33604720068E+03  0.16987124899E+03 0.  0.
        -24    2    5    5    0    0  0.27475674425E+02 -0.73882253677E+02 -0.19799103112E+03  0.22811274252E+03  0.81372445001E+02 0.  0.
          2    1    4    4  501    0 -0.36349106871E+02 -0.72643937360E+01 -0.46391501039E+02  0.59381818390E+02  0.00000000000E+00 0. -1.
         -1    1    4    4    0  501 -0.61797891544E+02  0.34698682121E+01 -0.38570146487E+03  0.39063619826E+03  0.00000000000E+00 0.  1.
          5    1    3    3  502    0  0.19845802049E+02  0.26643571068E+02 -0.17494040448E+02  0.37840021002E+02  0.47000000000E+01 0. -1.
         13    1    6    6    0    0  0.18214788211E+02 -0.29862099115E+02 -0.17330668918E+03  0.17680139136E+03  0.00000000000E+00 0. -1.
        -14    1    6    6    0    0  0.92608862144E+01 -0.44020154562E+02 -0.24684341937E+02  0.51311351161E+02  0.00000000000E+00 0.  1.
         -5    1    5    5    0  503  0.50825521941E+02  0.51033208132E+02 -0.80250453242E+02  0.10793445816E+03  0.47000000000E+01 0.  1.
<mgrwt>
<rscale>  2 0.18916854E+03</rscale>
<asrwt>0</asrwt>
<pdfrwt beam="1">  1       21 0.73905189E-02 0.18941222E+03</pdfrwt>
<pdfrwt beam="2">  1       21 0.11936414E+00 0.18941222E+03</pdfrwt>
<totfact> 0.73799871E+04</totfact>
</mgrwt>
</event>
<event>
12    1  0.2762290E-001  0.1949241E+03  0.7546771E-02  0.1154814E+00
         21   -1    0    0  504  503  0.00000000000E+00  0.00000000000E+00  0.32831238990E+02  0.32831238990E+02  0.00000000000E+00 0. -1.
         21   -1    0    0  502  504 -0.00000000000E+00 -0.00000000000E+00 -0.16698164890E+04  0.16698164890E+04  0.00000000000E+00 0. -1.
          6    2    1    2  502    0  0.60858646168E+02 -0.60115727507E+02 -0.12942265716E+04  0.13083395978E+04  0.17150046325E+03 0.  0.
         24    2    3    3    0    0  0.20718218656E+02 -0.11534442264E+02 -0.28566462870E+03  0.29779980246E+03  0.80735087242E+02 0.  0.
         -6    2    1    2    0  503 -0.60858646168E+02  0.60115727507E+02 -0.34275867843E+03  0.39430813026E+03  0.17515054794E+03 0.  0.
        -24    2    5    5    0    0 -0.59133360077E+02  0.33215678634E+02 -0.34776432188E+03  0.36649202508E+03  0.93682150333E+02 0.  0.
          4    1    4    4  501    0  0.15459420092E+02 -0.43729563973E+02 -0.11419940198E+03  0.12325896254E+03  0.00000000000E+00 0. -1.
         -3    1    4    4    0  501  0.52587985641E+01  0.32195121709E+02 -0.17146522672E+03  0.17454083991E+03  0.00000000000E+00 0.  1.
          5    1    3    3  502    0  0.40140427513E+02 -0.48581285243E+02 -0.10085619429E+04  0.10105397953E+04  0.47000000000E+01 0. -1.
         11    1    6    6    0    0 -0.21899866358E+02  0.21077611046E+02 -0.19974327713E+02  0.36370916974E+02  0.00000000000E+00 0. -1.
        -12    1    6    6    0    0 -0.37233493719E+02  0.12138067588E+02 -0.32778999417E+03  0.33012110810E+03  0.00000000000E+00 0.  1.
         -5    1    5    5    0  503 -0.17252860919E+01  0.26900048873E+02  0.50056434476E+01  0.27816105187E+02  0.47000000000E+01 0.  1.
<mgrwt>
<rscale>  2 0.19410058E+03</rscale>
<asrwt>0</asrwt>
<pdfrwt beam="1">  1       21 0.50509593E-02 0.19492406E+03</pdfrwt>
<pdfrwt beam="2">  1       21 0.25689487E+00 0.19492406E+03</pdfrwt>
<totfact> 0.15985286E+04</totfact>
</mgrwt>
</event>
<event>
12    1  0.2762290E-001  0.2415659E+03  0.7546771E-02  0.1118908E+00
         21   -1    0    0  504  503  0.00000000000E+00  0.00000000000E+00  0.43677096875E+03  0.43677096875E+03  0.00000000000E+00 0. -1.
         21   -1    0    0  502  504 -0.00000000000E+00 -0.00000000000E+00 -0.15698489977E+03  0.15698489977E+03  0.00000000000E+00 0. -1.
          6    2    1    2  502    0 -0.61224053516E+02  0.15396643763E+03  0.23842390953E+02  0.24181656401E+03  0.17450714133E+03 0.  0.
         24    2    3    3    0    0 -0.52102953447E+02  0.12399666312E+02 -0.60313119273E+01  0.96768732819E+02  0.80370028277E+02 0.  0.
         -6    2    1    2    0  503  0.61224053516E+02 -0.15396643763E+03  0.25594367802E+03  0.35193930451E+03  0.17578412640E+03 0.  0.
        -24    2    5    5    0    0  0.70856421403E+02 -0.50698673096E+02  0.64555795711E+02  0.13420454569E+03  0.79072254404E+02 0.  0.
          2    1    4    4  501    0 -0.71074842941E+02  0.22642070529E+02 -0.86941149002E+00  0.74599279710E+02  0.00000000000E+00 0. -1.
         -1    1    4    4    0  501  0.18971889493E+02 -0.10242404216E+02 -0.51619004373E+01  0.22169453110E+02  0.00000000000E+00 0.  1.
          5    1    3    3  502    0 -0.91211000684E+01  0.14156677132E+03  0.29873702881E+02  0.14504783119E+03  0.47000000000E+01 0. -1.
         13    1    6    6    0    0  0.10376073665E+02 -0.54401787308E+02  0.42163129128E+02  0.69605652248E+02  0.00000000000E+00 0. -1.
        -14    1    6    6    0    0  0.60480347738E+02  0.37031142116E+01  0.22392666583E+02  0.64598893443E+02  0.00000000000E+00 0.  1.
         -5    1    5    5    0  503 -0.96323678872E+01 -0.10326776454E+03  0.19138788231E+03  0.21773475882E+03  0.47000000000E+01 0.  1.
<mgrwt>
<rscale>  2 0.24133370E+03</rscale>
<asrwt>0</asrwt>
<pdfrwt beam="1">  1       21 0.67195533E-01 0.24156595E+03</pdfrwt>
<pdfrwt beam="2">  1       21 0.24151523E-01 0.24156595E+03</pdfrwt>
<totfact> 0.31988913E+04</totfact>
</mgrwt>
</event>
<event>
12    1  0.2762290E-001  0.2023471E+03  0.7546771E-02  0.1149171E+00
         21   -1    0    0  504  503  0.00000000000E+00  0.00000000000E+00  0.10792653126E+03  0.10792653126E+03  0.00000000000E+00 0. -1.
         21   -1    0    0  502  504 -0.00000000000E+00 -0.00000000000E+00 -0.57179168513E+03  0.57179168513E+03  0.00000000000E+00 0.  1.
          6    2    1    2  502    0 -0.83720455246E+02  0.62708250607E+02 -0.43773762063E+03  0.48224326176E+03  0.17321345120E+03 0.  0.
         24    2    3    3    0    0 -0.28998541087E+02  0.40650116968E+01 -0.89129134320E+02  0.12449546779E+03  0.81839350019E+02 0.  0.
         -6    2    1    2    0  503  0.83720455246E+02 -0.62708250607E+02 -0.26127533240E+02  0.19747495463E+03  0.16544567203E+03 0.  0.
        -24    2    5    5    0    0  0.10138349245E+03 -0.84434354968E+02  0.61237456702E+01  0.15450704236E+03  0.80169526855E+02 0.  0.
          4    1    4    4  501    0  0.62972053904E+01 -0.25791178062E+02 -0.29663218646E+01  0.26714017425E+02  0.00000000000E+00 0. -1.
         -3    1    4    4    0  501 -0.35295746477E+02  0.29856189759E+02 -0.86162812456E+02  0.97781450370E+02  0.00000000000E+00 0.  1.
          5    1    3    3  502    0 -0.54721914159E+02  0.58643238910E+02 -0.34860848631E+03  0.35774779396E+03  0.47000000000E+01 0. -1.
         11    1    6    6    0    0  0.32398259224E+02 -0.46936316575E+02  0.39306583664E+02  0.69265233225E+02  0.00000000000E+00 0. -1.
        -12    1    6    6    0    0  0.68985233228E+02 -0.37498038393E+02 -0.33182837993E+02  0.85241809132E+02  0.00000000000E+00 0.  1.
         -5    1    5    5    0  503 -0.17663037206E+02  0.21726104361E+02 -0.32251278910E+02  0.42967912276E+02  0.47000000000E+01 0.  1.
<mgrwt>
<rscale>  2 0.20067440E+03</rscale>
<asrwt>0</asrwt>
<pdfrwt beam="1">  1       21 0.16604082E-01 0.20234708E+03</pdfrwt>
<pdfrwt beam="2">  1       21 0.87967949E-01 0.20234708E+03</pdfrwt>
<totfact> 0.35889169E+04</totfact>
</mgrwt>
</event>
<event>
12    1  0.2762290E-001  0.1773878E+03  0.7546771E-02  0.1170413E+00
         21   -1    0    0  504  503  0.00000000000E+00  0.00000000000E+00  0.33833016140E+03  0.33833016140E+03  0.00000000000E+00 0. -1.
         21   -1    0    0  502  504 -0.00000000000E+00 -0.00000000000E+00 -0.32669109126E+03  0.32669109126E+03  0.00000000000E+00 0. -1.
          6    2    1    2  502    0 -0.44688876542E+02  0.13773754532E+00 -0.27547695609E+03  0.32764917019E+03  0.17166627722E+03 0.  0.
         24    2    3    3    0    0 -0.33318129688E+02  0.36472336969E+01 -0.52179065363E+02  0.10398502812E+03  0.83467545378E+02 0.  0.
         -6    2    1    2    0  503  0.44688876542E+02 -0.13773754532E+00  0.28711602623E+03  0.33737208247E+03  0.17142693737E+03 0.  0.
        -24    2    5    5    0    0  0.43670468719E+02  0.63795674533E+02  0.16908839844E+03  0.20305481160E+03  0.81629480564E+02 0.  0.
          4    1    4    4  501    0 -0.67223167529E+01  0.38602448117E+02 -0.49602514188E+01  0.39496109141E+02  0.00000000000E+00 0. -1.
         -3    1    4    4    0  501 -0.26595812935E+02 -0.34955214420E+02 -0.47218813944E+02  0.64488918979E+02  0.00000000000E+00 0.  1.
          5    1    3    3  502    0 -0.11370746855E+02 -0.35094961515E+01 -0.22329789073E+03  0.22366414207E+03  0.47000000000E+01 0. -1.
         11    1    6    6    0    0 -0.11925639553E+02  0.44002818777E+02  0.11210000333E+03  0.12101603070E+03  0.00000000000E+00 0. -1.
        -12    1    6    6    0    0  0.55596108271E+02  0.19792855756E+02  0.56988395114E+02  0.82038780900E+02  0.00000000000E+00 0.  1.
         -5    1    5    5    0  503  0.10184078236E+01 -0.63933412079E+02  0.11802762778E+03  0.13431727087E+03  0.47000000000E+01 0.  1.
<mgrwt>
<rscale>  2 0.17732985E+03</rscale>
<asrwt>0</asrwt>
<pdfrwt beam="1">  1       21 0.52050794E-01 0.17738778E+03</pdfrwt>
<pdfrwt beam="2">  1       21 0.50260168E-01 0.17738778E+03</pdfrwt>
<totfact> 0.13337886E+04</totfact>
</mgrwt>
</event>
<event>
12    1  0.2762290E-001  0.3957823E+03  0.7546771E-02  0.1045315E+00
         21   -1    0    0  504  503  0.00000000000E+00  0.00000000000E+00  0.41364685693E+03  0.41364685693E+03  0.00000000000E+00 0.  1.
         21   -1    0    0  502  504 -0.00000000000E+00 -0.00000000000E+00 -0.51946214736E+03  0.51946214736E+03  0.00000000000E+00 0.  1.
          6    2    1    2  502    0  0.26379214233E+03 -0.23851074433E+03 -0.29642645766E+03  0.49448184645E+03  0.17369508384E+03 0.  0.
         24    2    3    3    0    0  0.23608913341E+03 -0.16675492387E+03 -0.28940756837E+03  0.41710155645E+03  0.81680378397E+02 0.  0.
         -6    2    1    2    0  503 -0.26379214233E+03  0.23851074433E+03  0.19061116723E+03  0.43862715784E+03  0.17201016540E+03 0.  0.
        -24    2    5    5    0    0 -0.21666077344E+03  0.25218029883E+03  0.14435269795E+03  0.37102420943E+03  0.79274641001E+02 0.  0.
          2    1    4    4  501    0  0.80983445977E+02 -0.14221360418E+02 -0.67905119614E+02  0.10663803676E+03  0.00000000000E+00 0. -1.
         -1    1    4    4    0  501  0.15510568743E+03 -0.15253356345E+03 -0.22150244876E+03  0.31046351969E+03  0.00000000000E+00 0.  1.
          5    1    3    3  502    0  0.27703008924E+02 -0.71755820463E+02 -0.70188892895E+01  0.77380290001E+02  0.47000000000E+01 0. -1.
         11    1    6    6    0    0 -0.40583804451E+02  0.40625480054E+02 -0.54057813862E+01  0.57677528429E+02  0.00000000000E+00 0. -1.
        -12    1    6    6    0    0 -0.17607696899E+03  0.21155481878E+03  0.14975847934E+03  0.31334668100E+03  0.00000000000E+00 0.  1.
         -5    1    5    5    0  503 -0.47131368885E+02 -0.13669554500E+02  0.46258469283E+02  0.67602948409E+02  0.47000000000E+01 0.  1.
<mgrwt>
<rscale>  2 0.39559806E+03</rscale>
<asrwt>0</asrwt>
<pdfrwt beam="1">  1       21 0.63637978E-01 0.39578233E+03</pdfrwt>
<pdfrwt beam="2">  1       21 0.79917253E-01 0.39578233E+03</pdfrwt>
<totfact> 0.27916068E+03</totfact>
</mgrwt>
</event>
<event>
12    1  0.2762290E-001  0.1846803E+03  0.7546771E-02  0.1163535E+00
         21   -1    0    0  504  503  0.00000000000E+00  0.00000000000E+00  0.11722783012E+04  0.11722783012E+04  0.00000000000E+00 0.  1.
         21   -1    0    0  502  504 -0.00000000000E+00 -0.00000000000E+00 -0.56087041412E+02  0.56087041412E+02  0.00000000000E+00 0.  1.
          6    2    1    2  502    0  0.60141330146E+02 -0.17690282244E+02  0.13041441980E+03  0.22543823398E+03  0.17287148629E+03 0.  0.
         24    2    3    3    0    0  0.50892769859E+02  0.36505532502E+02  0.22650209323E+02  0.10436826552E+03  0.80355304362E+02 0.  0.
         -6    2    1    2    0  503 -0.60141330146E+02  0.17690282244E+02  0.98577684004E+03  0.10029271087E+04  0.17371494260E+03 0.  0.
        -24    2    5    5    0    0 -0.50415773879E+02  0.36323570017E+01  0.21424153415E+03  0.23118814378E+03  0.70665257348E+02 0.  0.
          4    1    4    4  501    0  0.34694999582E+02 -0.19230367892E+02  0.23902585561E+02  0.46312888506E+02  0.00000000000E+00 0. -1.
         -3    1    4    4    0  501  0.16197770278E+02  0.55735900393E+02 -0.12523762388E+01  0.58055377019E+02  0.00000000000E+00 0.  1.
          5    1    3    3  502    0  0.92485602865E+01 -0.54195814746E+02  0.10776421047E+03  0.12106996846E+03  0.47000000000E+01 0. -1.
         13    1    6    6    0    0  0.69249540366E+01 -0.17231964957E+02  0.18731420309E+02  0.26377295378E+02  0.00000000000E+00 0. -1.
        -14    1    6    6    0    0 -0.57340727915E+02  0.20864321959E+02  0.19551011384E+03  0.20481084840E+03  0.00000000000E+00 0.  1.
         -5    1    5    5    0  503 -0.97255562671E+01  0.14057925242E+02  0.77153530589E+03  0.77173896490E+03  0.47000000000E+01 0.  1.
<mgrwt>
<rscale>  2 0.18448167E+03</rscale>
<asrwt>0</asrwt>
<pdfrwt beam="1">  1       21 0.18035049E+00 0.18468028E+03</pdfrwt>
<pdfrwt beam="2">  1       21 0.86287765E-02 0.18468028E+03</pdfrwt>
<totfact> 0.19141654E+04</totfact>
</mgrwt>
</event>
<event>
12    1  0.2762290E-001  0.1898605E+03  0.7546771E-02  0.1158833E+00
         21   -1    0    0  504  503  0.00000000000E+00  0.00000000000E+00  0.20844241277E+03  0.20844241277E+03  0.00000000000E+00 0. -1.
         21   -1    0    0  502  504 -0.00000000000E+00 -0.00000000000E+00 -0.20258258155E+03  0.20258258155E+03  0.00000000000E+00 0. -1.
          6    2    1    2  502    0 -0.73882089767E+02  0.89674149756E+01 -0.76993796868E+02  0.20387356336E+03  0.17348604371E+03 0.  0.
         24    2    3    3    0    0 -0.86444869201E+01  0.51304073602E+02 -0.30037192258E+01  0.96426092109E+02  0.81130350597E+02 0.  0.
         -6    2    1    2    0  503  0.73882089767E+02 -0.89674149756E+01  0.82853628093E+02  0.20715143096E+03  0.17466543430E+03 0.  0.
        -24    2    5    5    0    0 -0.20067802593E+02  0.12131693863E+01  0.19623923251E+02  0.93351992703E+02  0.89024197255E+02 0.  0.
          2    1    4    4  501    0  0.25796789474E+01  0.23353456445E+02 -0.41413907625E+02  0.47614602972E+02  0.00000000000E+00 0. -1.
         -1    1    4    4    0  501 -0.11224165868E+02  0.27950617158E+02  0.38410188399E+02  0.48811489137E+02  0.00000000000E+00 0.  1.
          5    1    3    3  502    0 -0.65237602846E+02 -0.42336658627E+02 -0.73990077642E+02  0.10744747125E+03  0.47000000000E+01 0. -1.
         13    1    6    6    0    0 -0.96178972223E+01 -0.23097130364E+02  0.48261263606E+02  0.54361116093E+02  0.00000000000E+00 0. -1.
        -14    1    6    6    0    0 -0.10449905370E+02  0.24310299750E+02 -0.28637340355E+02  0.38990876610E+02  0.00000000000E+00 0.  1.
         -5    1    5    5    0  503  0.93949892359E+02 -0.10180584362E+02  0.63229704842E+02  0.11379943825E+03  0.47000000000E+01 0.  1.
<mgrwt>
<rscale>  2 0.18958876E+03</rscale>
<asrwt>0</asrwt>
<pdfrwt beam="1">  1       21 0.32068064E-01 0.18986045E+03</pdfrwt>
<pdfrwt beam="2">  1       21 0.31166551E-01 0.18986045E+03</pdfrwt>
<totfact> 0.92614304E+04</totfact>
</mgrwt>
</event>
<event>
12    1  0.2762290E-001  0.1900370E+03  0.7546771E-02  0.1158735E+00
         21   -1    0    0  504  503  0.00000000000E+00  0.00000000000E+00  0.84333087750E+03  0.84333087750E+03  0.00000000000E+00 0. -1.
         21   -1    0    0  502  504 -0.00000000000E+00 -0.00000000000E+00 -0.43486034558E+02  0.43486034558E+02  0.00000000000E+00 0. -1.
          6    2    1    2  502    0  0.62228535651E+02  0.41132055655E+02  0.46467241756E+03  0.50151881242E+03  0.17331020431E+03 0.  0.
         24    2    3    3    0    0  0.94555030228E+02  0.10002366535E+02  0.22332324226E+03  0.25598760419E+03  0.81336842132E+02 0.  0.
         -6    2    1    2    0  503 -0.62228535651E+02 -0.41132055655E+02  0.33517242538E+03  0.38529809964E+03  0.17478510862E+03 0.  0.
        -24    2    5    5    0    0 -0.75875960833E+02 -0.61675399336E+02  0.33705993412E+03  0.36012005617E+03  0.80721988010E+02 0.  0.
          4    1    4    4  501    0  0.10278972950E+03 -0.21999261431E+01  0.15432670783E+03  0.18543813231E+03  0.00000000000E+00 0. -1.
         -3    1    4    4    0  501 -0.82346992745E+01  0.12202292678E+02  0.68996534435E+02  0.70549471882E+02  0.00000000000E+00 0.  1.
          5    1    3    3  502    0 -0.32326494576E+02  0.31129689120E+02  0.24134917529E+03  0.24553120822E+03  0.47000000000E+01 0. -1.
         11    1    6    6    0    0 -0.55449662577E+02 -0.78660682583E+02  0.22078363021E+03  0.24084762701E+03  0.00000000000E+00 0. -1.
        -12    1    6    6    0    0 -0.20426298256E+02  0.16985283247E+02  0.11627630391E+03  0.11927242916E+03  0.00000000000E+00 0.  1.
         -5    1    5    5    0  503  0.13647425182E+02  0.20543343681E+02 -0.18875087413E+01  0.25178043469E+02  0.47000000000E+01 0.  1.
<mgrwt>
<rscale>  2 0.18969720E+03</rscale>
<asrwt>0</asrwt>
<pdfrwt beam="1">  1       21 0.12974320E+00 0.19003702E+03</pdfrwt>
<pdfrwt beam="2">  1       21 0.66901598E-02 0.19003702E+03</pdfrwt>
<totfact> 0.71140742E+04</totfact>
</mgrwt>
</event>
<event>
12    1  0.2762290E-001  0.2038870E+03  0.7546771E-02  0.1147478E+00
         21   -1    0    0  504  503  0.00000000000E+00  0.00000000000E+00  0.17100567634E+03  0.17100567634E+03  0.00000000000E+00 0. -1.
         21   -1    0    0  502  504 -0.00000000000E+00 -0.00000000000E+00 -0.46120640186E+03  0.46120640186E+03  0.00000000000E+00 0. -1.
          6    2    1    2  502    0 -0.67234728668E+02  0.73345059481E+02 -0.36610255924E+03  0.41904771309E+03  0.17796037614E+03 0.  0.
         24    2    3    3    0    0 -0.11144503901E+03  0.73378765092E+02 -0.31228391694E+03  0.34924019963E+03  0.81504799686E+02 0.  0.
         -6    2    1    2    0  503  0.67234728668E+02 -0.73345059481E+02  0.75901833732E+02  0.21316436511E+03  0.17256289201E+03 0.  0.
        -24    2    5    5    0    0  0.23636097835E+02 -0.25417594751E+02 -0.24228217160E+02  0.93807758346E+02  0.83714812162E+02 0.  0.
          4    1    4    4  501    0 -0.67399872435E+01  0.26703077407E+02 -0.13739490130E+03  0.14012794394E+03  0.00000000000E+00 0. -1.
         -3    1    4    4    0  501 -0.10470505177E+03  0.46675687685E+02 -0.17488901565E+03  0.20911225569E+03  0.00000000000E+00 0.  1.
          5    1    3    3  502    0  0.44210310342E+02 -0.33705611120E-01 -0.53818642301E+02  0.69807513462E+02  0.47000000000E+01 0. -1.
         11    1    6    6    0    0  0.25322481234E+02  0.80722148113E+01  0.23500281365E+02  0.35477484861E+02  0.00000000000E+00 0. -1.
        -12    1    6    6    0    0 -0.16863833988E+01 -0.33489809562E+02 -0.47728498525E+02  0.58330273486E+02  0.00000000000E+00 0.  1.
         -5    1    5    5    0  503  0.43598630833E+02 -0.47927464730E+02  0.10013005089E+03  0.11935660676E+03  0.47000000000E+01 0.  1.
<mgrwt>
<rscale>  2 0.20270329E+03</rscale>
<asrwt>0</asrwt>
<pdfrwt beam="1">  1       21 0.26308566E-01 0.20388698E+03</pdfrwt>
<pdfrwt beam="2">  1       21 0.70954831E-01 0.20388698E+03</pdfrwt>
<totfact> 0.24543722E+04</totfact>
</mgrwt>
</event>
<event>
12    1  0.2762290E-001  0.2595481E+03  0.7546771E-02  0.1109848E+00
         21   -1    0    0  504  503  0.00000000000E+00  0.00000000000E+00  0.10183427348E+03  0.10183427348E+03  0.00000000000E+00 0. -1.
         21   -1    0    0  502  504 -0.00000000000E+00 -0.00000000000E+00 -0.80638031394E+03  0.80638031394E+03  0.00000000000E+00 0.  1.
          6    2    1    2  502    0  0.13659732248E+03 -0.10784336612E+03 -0.56073276420E+03  0.61148667299E+03  0.17089674741E+03 0.  0.
         24    2    3    3    0    0  0.58832501336E+02 -0.64428771311E+02 -0.46947053635E+03  0.48388150584E+03  0.78271306460E+02 0.  0.
         -6    2    1    2    0  503 -0.13659732248E+03  0.10784336612E+03 -0.14381327625E+03  0.29672791443E+03  0.19255175057E+03 0.  0.
        -24    2    5    5    0    0 -0.13747348166E+03  0.13294543200E+03 -0.16360224049E+03  0.26440803708E+03  0.81070777299E+02 0.  0.
          4    1    4    4  501    0  0.34709386047E+01 -0.61148005364E+02 -0.26873148396E+03  0.27562245272E+03  0.00000000000E+00 0. -1.
         -3    1    4    4    0  501  0.55361562731E+02 -0.32807659466E+01 -0.20073905239E+03  0.20825905312E+03  0.00000000000E+00 0.  1.
          5    1    3    3  502    0  0.77764821142E+02 -0.43414594812E+02 -0.91262227853E+02  0.12760516715E+03  0.47000000000E+01 0. -1.
         11    1    6    6    0    0 -0.11719626980E+03  0.59958989782E+02 -0.96696777508E+02  0.16334109370E+03  0.00000000000E+00 0. -1.
        -12    1    6    6    0    0 -0.20277211864E+02  0.72986442218E+02 -0.66905462981E+02  0.10106694339E+03  0.00000000000E+00 0.  1.
         -5    1    5    5    0  503  0.87615918314E+00 -0.25102065877E+02  0.19788964234E+02  0.32319877346E+02  0.47000000000E+01 0.  1.
<mgrwt>
<rscale>  2 0.25554839E+03</rscale>
<asrwt>0</asrwt>
<pdfrwt beam="1">  1       21 0.15666811E-01 0.25954806E+03</pdfrwt>
<pdfrwt beam="2">  1       21 0.12405851E+00 0.25954806E+03</pdfrwt>
<totfact> 0.16935859E+04</totfact>
</mgrwt>
</event>
<event>
12    1  0.2762290E-001  0.4224320E+03  0.7546771E-02  0.1036300E+00
         21   -1    0    0  504  503  0.00000000000E+00  0.00000000000E+00  0.15379832051E+03  0.15379832051E+03  0.00000000000E+00 0.  1.
         21   -1    0    0  502  504 -0.00000000000E+00 -0.00000000000E+00 -0.11778918797E+04  0.11778918797E+04  0.00000000000E+00 0. -1.
          6    2    1    2  502    0  0.29766909620E+03  0.24454811183E+03 -0.59538012208E+03  0.73001797707E+03  0.17331499430E+03 0.  0.
         24    2    3    3    0    0  0.12464779081E+03  0.16413490754E+03 -0.23825030983E+03  0.32509026953E+03  0.80269132162E+02 0.  0.
         -6    2    1    2    0  503 -0.29766909620E+03 -0.24454811183E+03 -0.42871343707E+03  0.60167222309E+03  0.17263714284E+03 0.  0.
        -24    2    5    5    0    0 -0.18812064708E+03 -0.16982556644E+03 -0.37210394158E+03  0.45741188041E+03  0.80834300401E+02 0.  0.
          2    1    4    4  501    0  0.75822080289E+02  0.13160105296E+03 -0.21205657277E+03  0.26083675940E+03  0.00000000000E+00 0. -1.
         -1    1    4    4    0  501  0.48825710524E+02  0.32533854576E+02 -0.26193737057E+02  0.64253510121E+02  0.00000000000E+00 0.  1.
          5    1    3    3  502    0  0.17302130538E+03  0.80413204288E+02 -0.35712981225E+03  0.40492770755E+03  0.47000000000E+01 0. -1.
         13    1    6    6    0    0 -0.10754372231E+03 -0.10249608915E+03 -0.14688256949E+03  0.20891526923E+03  0.00000000000E+00 0. -1.
        -14    1    6    6    0    0 -0.80576924779E+02 -0.67329477298E+02 -0.22522137210E+03  0.24849661118E+03  0.00000000000E+00 0.  1.
         -5    1    5    5    0  503 -0.10954844911E+03 -0.74722545385E+02 -0.56609495487E+02  0.14426034268E+03  0.47000000000E+01 0.  1.
<mgrwt>
<rscale>  2 0.42236252E+03</rscale>
<asrwt>0</asrwt>
<pdfrwt beam="1">  1       21 0.23661280E-01 0.42243196E+03</pdfrwt>
<pdfrwt beam="2">  1       21 0.18121413E+00 0.42243196E+03</pdfrwt>
<totfact> 0.25938198E+03</totfact>
</mgrwt>
</event>
<event>
12    1  0.2762290E-001  0.2448360E+03  0.7546771E-02  0.1118744E+00
         21   -1    0    0  504  503  0.00000000000E+00  0.00000000000E+00  0.14578625486E+03  0.14578625486E+03  0.00000000000E+00 0.  1.
         21   -1    0    0  502  504 -0.00000000000E+00 -0.00000000000E+00 -0.39006260714E+03  0.39006260714E+03  0.00000000000E+00 0.  1.
          6    2    1    2  502    0 -0.14502564274E+03 -0.50953709933E+02 -0.11628650573E+03  0.25957709971E+03  0.17386489487E+03 0.  0.
         24    2    3    3    0    0 -0.13919534239E+03 -0.19667602861E+02 -0.14436787043E+03  0.21687503955E+03  0.80190665434E+02 0.  0.
         -6    2    1    2    0  503  0.14502564274E+03  0.50953709933E+02 -0.12798984655E+03  0.27627176230E+03  0.19056748993E+03 0.  0.
        -24    2    5    5    0    0  0.35526893892E+01 -0.26407161770E+02 -0.42653843925E+02  0.93778956020E+02  0.79152905164E+02 0.  0.
          2    1    4    4  501    0 -0.17060485628E+02 -0.25873539839E+02 -0.48871825088E+01  0.31374906956E+02  0.00000000000E+00 0. -1.
         -1    1    4    4    0  501 -0.12213485677E+03  0.62059369774E+01 -0.13948068792E+03  0.18550013260E+03  0.00000000000E+00 0.  1.
          5    1    3    3  502    0 -0.58303003437E+01 -0.31286107072E+02  0.28081364700E+02  0.42702060152E+02  0.47000000000E+01 0. -1.
         13    1    6    6    0    0  0.12464516369E+02  0.19163501354E+02 -0.41442189355E+02  0.47329261678E+02  0.00000000000E+00 0. -1.
        -14    1    6    6    0    0 -0.89118269794E+01 -0.45570663124E+02 -0.12116545706E+01  0.46449694342E+02  0.00000000000E+00 0.  1.
         -5    1    5    5    0  503  0.14147295335E+03  0.77360871704E+02 -0.85336002627E+02  0.18249280628E+03  0.47000000000E+01 0.  1.
<mgrwt>
<rscale>  2 0.24158085E+03</rscale>
<asrwt>0</asrwt>
<pdfrwt beam="1">  1       21 0.22428655E-01 0.24483604E+03</pdfrwt>
<pdfrwt beam="2">  1       21 0.60009632E-01 0.24483604E+03</pdfrwt>
<totfact> 0.47072680E+04</totfact>
</mgrwt>
</event>
<event>
12    1  0.2762290E-001  0.2022566E+03  0.7546771E-02  0.1147894E+00
         21   -1    0    0  504  503  0.00000000000E+00  0.00000000000E+00  0.34640325382E+03  0.34640325382E+03  0.00000000000E+00 0. -1.
         21   -1    0    0  502  504 -0.00000000000E+00 -0.00000000000E+00 -0.19601817367E+03  0.19601817367E+03  0.00000000000E+00 0. -1.
          6    2    1    2  502    0  0.91497621143E+02  0.50582361725E+02 -0.95970772428E+02  0.22367551533E+03  0.17288712215E+03 0.  0.
         24    2    3    3    0    0  0.47809948843E+02  0.74750928626E+01  0.16238470105E+02  0.95691713818E+02  0.80941633048E+02 0.  0.
         -6    2    1    2    0  503 -0.91497621143E+02 -0.50582361725E+02  0.24635585258E+03  0.31874591216E+03  0.17313971361E+03 0.  0.
        -24    2    5    5    0    0 -0.86907346534E+02 -0.97039572872E+02  0.21007578569E+03  0.25943591012E+03  0.78775568196E+02 0.  0.
          2    1    4    4  501    0  0.30867293138E+02 -0.34552835395E+02  0.19481210870E+02  0.50261374796E+02  0.00000000000E+00 0. -1.
         -1    1    4    4    0  501  0.16942655705E+02  0.42027928257E+02 -0.32427407650E+01  0.45430339022E+02  0.00000000000E+00 0.  1.
          5    1    3    3  502    0  0.43687672300E+02  0.43107268862E+02 -0.11220924253E+03  0.12798380151E+03  0.47000000000E+01 0. -1.
         11    1    6    6    0    0 -0.11501405960E+02  0.10588336845E+02  0.49668780234E+02  0.52070941475E+02  0.00000000000E+00 0. -1.
        -12    1    6    6    0    0 -0.75405940574E+02 -0.10762790972E+03  0.16040700545E+03  0.20736496865E+03  0.00000000000E+00 0.  1.
         -5    1    5    5    0  503 -0.45902746088E+01  0.46457211147E+02  0.36280066890E+02  0.59310002041E+02  0.47000000000E+01 0.  1.
<mgrwt>
<rscale>  2 0.20220258E+03</rscale>
<asrwt>0</asrwt>
<pdfrwt beam="1">  1       21 0.53292808E-01 0.20225664E+03</pdfrwt>
<pdfrwt beam="2">  1       21 0.30156642E-01 0.20225664E+03</pdfrwt>
<totfact> 0.34987261E+04</totfact>
</mgrwt>
</event>
<event>
12    1  0.2762290E-001  0.2148947E+03  0.7546771E-02  0.1137779E+00
         21   -1    0    0  504  503  0.00000000000E+00  0.00000000000E+00  0.51597953751E+03  0.51597953751E+03  0.00000000000E+00 0. -1.
         21   -1    0    0  502  504 -0.00000000000E+00 -0.00000000000E+00 -0.10139870239E+03  0.10139870239E+03  0.00000000000E+00 0.  1.
          6    2    1    2  502    0  0.12644160731E+03  0.72259596922E+01  0.10116873921E+03  0.23736917521E+03  0.17340506623E+03 0.  0.
         24    2    3    3    0    0  0.73842513211E+02  0.72069656129E+02  0.53834045741E+02  0.14127529990E+03  0.80086539371E+02 0.  0.
         -6    2    1    2    0  503 -0.12644160731E+03 -0.72259596922E+01  0.31341209591E+03  0.38000906469E+03  0.17360890770E+03 0.  0.
        -24    2    5    5    0    0 -0.38977120945E+02 -0.13630521914E+02  0.52359721428E+02  0.10457942392E+03  0.80562450280E+02 0.  0.
          4    1    4    4  501    0  0.57414563082E+02  0.13859076145E+02  0.55104676116E+02  0.80777666316E+02  0.00000000000E+00 0. -1.
         -3    1    4    4    0  501  0.16427950129E+02  0.58210579983E+02 -0.12706303751E+01  0.60497633582E+02  0.00000000000E+00 0.  1.
          5    1    3    3  502    0  0.52599094095E+02 -0.64843696436E+02  0.47334693465E+02  0.96093875313E+02  0.47000000000E+01 0. -1.
         13    1    6    6    0    0  0.90933062524E+01 -0.13581784001E+02  0.54062058299E+02  0.56478838717E+02  0.00000000000E+00 0. -1.
        -14    1    6    6    0    0 -0.48070427197E+02 -0.48737913328E-01 -0.17023368714E+01  0.48100585206E+02  0.00000000000E+00 0.  1.
         -5    1    5    5    0  503 -0.87464486362E+02  0.64045622222E+01  0.26105237449E+03  0.27542964077E+03  0.47000000000E+01 0.  1.
<mgrwt>
<rscale>  2 0.21485356E+03</rscale>
<asrwt>0</asrwt>
<pdfrwt beam="1">  1       21 0.79381466E-01 0.21489474E+03</pdfrwt>
<pdfrwt beam="2">  1       21 0.15599801E-01 0.21489474E+03</pdfrwt>
<totfact> 0.50565261E+04</totfact>
</mgrwt>
</event>
<event>
12    1  0.2762290E-001  0.1941939E+03  0.7546771E-02  0.1155306E+00
         21   -1    0    0  504  503  0.00000000000E+00  0.00000000000E+00  0.10051037026E+03  0.10051037026E+03  0.00000000000E+00 0. -1.
         21   -1    0    0  502  504 -0.00000000000E+00 -0.00000000000E+00 -0.37402990566E+03  0.37402990566E+03  0.00000000000E+00 0. -1.
          6    2    1    2  502    0 -0.70646769867E+02 -0.47718874092E+02 -0.11364585347E+03  0.22500366998E+03  0.17447983968E+03 0.  0.
         24    2    3    3    0    0 -0.69790109802E+02  0.25263638538E+02 -0.10652954306E+03  0.15151957040E+03  0.78107143165E+02 0.  0.
         -6    2    1    2    0  503  0.70646769867E+02  0.47718874092E+02 -0.15987368193E+03  0.24953660594E+03  0.17158340972E+03 0.  0.
        -24    2    5    5    0    0  0.91398516519E+02  0.13167459390E+02 -0.16852985744E+03  0.20804618992E+03  0.79710937019E+02 0.  0.
          2    1    4    4  501    0 -0.24135083547E+02  0.24111592247E+01 -0.96483442756E+02  0.99485529966E+02  0.00000000000E+00 0. -1.
         -1    1    4    4    0  501 -0.45655026255E+02  0.22852479313E+02 -0.10046100301E+02  0.52034040439E+02  0.00000000000E+00 0.  1.
          5    1    3    3  502    0 -0.85666006502E+00 -0.72982512630E+02 -0.71163104119E+01  0.73484099573E+02  0.47000000000E+01 0. -1.
         11    1    6    6    0    0  0.61449630937E+02  0.29600574050E+02 -0.15832694643E+03  0.17239394738E+03  0.00000000000E+00 0. -1.
        -12    1    6    6    0    0  0.29948885582E+02 -0.16433114660E+02 -0.10202911015E+02  0.35652242541E+02  0.00000000000E+00 0.  1.
         -5    1    5    5    0  503 -0.20751746652E+02  0.34551414701E+02  0.86561755143E+01  0.41490416020E+02  0.47000000000E+01 0.  1.
<mgrwt>
<rscale>  2 0.19354107E+03</rscale>
<asrwt>0</asrwt>
<pdfrwt beam="1">  1       21 0.15463134E-01 0.19419390E+03</pdfrwt>
<pdfrwt beam="2">  1       21 0.57543063E-01 0.19419390E+03</pdfrwt>
<totfact> 0.10510858E+05</totfact>
</mgrwt>
</event>
<event>
12    1  0.2762290E-001  0.1806426E+03  0.7546771E-02  0.1168430E+00
         21   -1    0    0  504  503  0.00000000000E+00  0.00000000000E+00  0.79661613859E+02  0.79661613859E+02  0.00000000000E+00 0. -1.
         21   -1    0    0  502  504 -0.00000000000E+00 -0.00000000000E+00 -0.18181246577E+04  0.18181246577E+04  0.00000000000E+00 0. -1.
          6    2    1    2  502    0  0.48431926399E+02  0.13461469626E+02 -0.17050707017E+04  0.17140832446E+04  0.16819158453E+03 0.  0.
         24    2    3    3    0    0 -0.22078282630E+02  0.45389012533E+02 -0.77989833671E+03  0.78566682271E+03  0.80519113751E+02 0.  0.
         -6    2    1    2    0  503 -0.48431926399E+02 -0.13461469626E+02 -0.33392342150E+02  0.18370302693E+03  0.17350761058E+03 0.  0.
        -24    2    5    5    0    0  0.89345905046E+01 -0.60850709683E+02 -0.15771910389E+02  0.10709214682E+03  0.86240007986E+02 0.  0.
          2    1    4    4  501    0 -0.97982790827E+01  0.27922270211E+02 -0.73844628410E+03  0.73903895293E+03  0.00000000000E+00 0. -1.
         -1    1    4    4    0  501 -0.12280003548E+02  0.17466742323E+02 -0.41452052609E+02  0.46627869778E+02  0.00000000000E+00 0.  1.
          5    1    3    3  502    0  0.70510209029E+02 -0.31927542907E+02 -0.92517236495E+03  0.92841642190E+03  0.47000000000E+01 0. -1.
         11    1    6    6    0    0 -0.14286219292E+02  0.16491480932E+02  0.74682366968E+01  0.23061647043E+02  0.00000000000E+00 0. -1.
        -12    1    6    6    0    0  0.23220809797E+02 -0.77342190614E+02 -0.23240147085E+02  0.84030499780E+02  0.00000000000E+00 0.  1.
         -5    1    5    5    0  503 -0.57366516903E+02  0.47389240057E+02 -0.17620431761E+02  0.76610880103E+02  0.47000000000E+01 0.  1.
<mgrwt>
<rscale>  2 0.17935393E+03</rscale>
<asrwt>0</asrwt>
<pdfrwt beam="1">  1       21 0.12255635E-01 0.18064261E+03</pdfrwt>
<pdfrwt beam="2">  1       21 0.27971145E+00 0.18064261E+03</pdfrwt>
<totfact> 0.25618964E+03</totfact>
</mgrwt>
</event>
<event>
12    1  0.2762290E-001  0.1871654E+03  0.7546771E-02  0.1161557E+00
         21   -1    0    0  504  503  0.00000000000E+00  0.00000000000E+00  0.37904212966E+02  0.37904212966E+02  0.00000000000E+00 0.  1.
         21   -1    0    0  502  504 -0.00000000000E+00 -0.00000000000E+00 -0.91652273565E+03  0.91652273565E+03  0.00000000000E+00 0. -1.
          6    2    1    2  502    0 -0.62060042885E+02 -0.31042787443E+02 -0.40825026338E+03  0.44818869106E+03  0.17143430713E+03 0.  0.
         24    2    3    3    0    0 -0.48174748940E+02 -0.89311831529E+02 -0.29755598828E+03  0.32223871913E+03  0.70716449712E+02 0.  0.
         -6    2    1    2    0  503  0.62060042885E+02  0.31042787443E+02 -0.47036825930E+03  0.50623825756E+03  0.17382684053E+03 0.  0.
        -24    2    5    5    0    0  0.27596773312E+02  0.40684134121E+01 -0.91687775528E+02  0.12500823173E+03  0.80263789685E+02 0.  0.
          4    1    4    4  501    0 -0.39051128261E+02 -0.78996627711E+02 -0.29544467352E+03  0.30830668647E+03  0.00000000000E+00 0. -1.
         -3    1    4    4    0  501 -0.91236206790E+01 -0.10315203818E+02 -0.21113147562E+01  0.13932032662E+02  0.00000000000E+00 0.  1.
          5    1    3    3  502    0 -0.13885293945E+02  0.58269044087E+02 -0.11069427511E+03  0.12594997192E+03  0.47000000000E+01 0. -1.
         11    1    6    6    0    0  0.24742844794E+02 -0.31599625595E+02 -0.19899548967E+02  0.44796615445E+02  0.00000000000E+00 0. -1.
        -12    1    6    6    0    0  0.28539285178E+01  0.35668039007E+02 -0.71788226561E+02  0.80211616287E+02  0.00000000000E+00 0.  1.
         -5    1    5    5    0  503  0.34463269573E+02  0.26974374030E+02 -0.37868048377E+03  0.38123002583E+03  0.47000000000E+01 0.  1.
<mgrwt>
<rscale>  2 0.18660790E+03</rscale>
<asrwt>0</asrwt>
<pdfrwt beam="1">  1       21 0.58314178E-02 0.18716537E+03</pdfrwt>
<pdfrwt beam="2">  1       21 0.14100349E+00 0.18716537E+03</pdfrwt>
<totfact> 0.72923280E+04</totfact>
</mgrwt>
</event>
<event>
12    1  0.2762290E-001  0.3029318E+03  0.7546771E-02  0.1083951E+00
         21   -1    0    0  504  503  0.00000000000E+00  0.00000000000E+00  0.17427631184E+03  0.17427631184E+03  0.00000000000E+00 0.  1.
         21   -1    0    0  502  504 -0.00000000000E+00 -0.00000000000E+00 -0.52459776827E+03  0.52459776827E+03  0.00000000000E+00 0.  1.
          6    2    1    2  502    0 -0.23830619118E+03  0.65052362042E+02 -0.18404150510E+03  0.35330685130E+03  0.17301099681E+03 0.  0.
         24    2    3    3    0    0 -0.15336477778E+03  0.93485726004E+02 -0.17427515430E+03  0.26307951895E+03  0.81108987491E+02 0.  0.
         -6    2    1    2    0  503  0.23830619118E+03 -0.65052362042E+02 -0.16627995132E+03  0.34556722881E+03  0.17534547855E+03 0.  0.
        -24    2    5    5    0    0  0.25133693108E+03 -0.75331527145E+02 -0.12668755854E+03  0.30238032126E+03  0.80864264587E+02 0.  0.
          2    1    4    4  501    0 -0.16259454583E+02  0.44329315475E+02 -0.67967237495E+02  0.82758706168E+02  0.00000000000E+00 0. -1.
         -1    1    4    4    0  501 -0.13710532320E+03  0.49156410529E+02 -0.10630791681E+03  0.18032081278E+03  0.00000000000E+00 0.  1.
          5    1    3    3  502    0 -0.84941413400E+02 -0.28433363961E+02 -0.97663507961E+01  0.90227332358E+02  0.47000000000E+01 0. -1.
         13    1    6    6    0    0  0.48751367267E+02  0.17358847682E+02 -0.25599232382E+02  0.57735137497E+02  0.00000000000E+00 0. -1.
        -14    1    6    6    0    0  0.20258556381E+03 -0.92690374827E+02 -0.10108832616E+03  0.24464518376E+03  0.00000000000E+00 0.  1.
         -5    1    5    5    0  503 -0.13030739896E+02  0.10279165103E+02 -0.39592392782E+02  0.43186907549E+02  0.47000000000E+01 0.  1.
<mgrwt>
<rscale>  2 0.30259494E+03</rscale>
<asrwt>0</asrwt>
<pdfrwt beam="1">  1       21 0.26811740E-01 0.30293182E+03</pdfrwt>
<pdfrwt beam="2">  1       21 0.80707349E-01 0.30293182E+03</pdfrwt>
<totfact> 0.16876323E+04</totfact>
</mgrwt>
</event>
<event>
12    1  0.2762290E-001  0.2207196E+03  0.7546771E-02  0.1134010E+00
         21   -1    0    0  504  503  0.00000000000E+00  0.00000000000E+00  0.29136560337E+03  0.29136560337E+03  0.00000000000E+00 0. -1.
         21   -1    0    0  502  504 -0.00000000000E+00 -0.00000000000E+00 -0.25039871217E+03  0.25039871217E+03  0.00000000000E+00 0. -1.
          6    2    1    2  502    0  0.40055620162E+02  0.13043424034E+03 -0.13824819812E+03  0.25744904708E+03  0.16896716781E+03 0.  0.
         24    2    3    3    0    0 -0.12669892976E+02  0.84915913879E+02 -0.24734578206E+02  0.12418491204E+03  0.86248793629E+02 0.  0.
         -6    2    1    2    0  503 -0.40055620162E+02 -0.13043424034E+03  0.17921508932E+03  0.28431526847E+03  0.17349230497E+03 0.  0.
        -24    2    5    5    0    0 -0.99325297203E+01 -0.14758683518E+03  0.18181209852E+03  0.24923754699E+03  0.84753681891E+02 0.  0.
          2    1    4    4  501    0 -0.16585974416E+02  0.90232941703E+02 -0.45490793895E+02  0.10240356754E+03  0.00000000000E+00 0. -1.
         -1    1    4    4    0  501  0.39160814396E+01 -0.53170278236E+01  0.20756215689E+02  0.21781344505E+02  0.00000000000E+00 0.  1.
          5    1    3    3  502    0  0.52725513138E+02  0.45518326465E+02 -0.11351361991E+03  0.13326413503E+03  0.47000000000E+01 0. -1.
         13    1    6    6    0    0  0.72437488514E+01 -0.67563263466E+02  0.14369378752E+03  0.15895021560E+03  0.00000000000E+00 0. -1.
        -14    1    6    6    0    0 -0.17176278572E+02 -0.80023571717E+02  0.38118311006E+02  0.90287331392E+02  0.00000000000E+00 0.  1.
         -5    1    5    5    0  503 -0.30123090441E+02  0.17152594839E+02 -0.25970092032E+01  0.35077721480E+02  0.47000000000E+01 0.  1.
<mgrwt>
<rscale>  2 0.21982947E+03</rscale>
<asrwt>0</asrwt>
<pdfrwt beam="1">  1       21 0.44825477E-01 0.22071956E+03</pdfrwt>
<pdfrwt beam="2">  1       21 0.38522879E-01 0.22071956E+03</pdfrwt>
<totfact> 0.30579024E+04</totfact>
</mgrwt>
</event>
<event>
12    1  0.2762290E-001  0.1730948E+03  0.7546771E-02  0.1175404E+00
         21   -1    0    0  504  503  0.00000000000E+00  0.00000000000E+00  0.20761894270E+03  0.20761894270E+03  0.00000000000E+00 0. -1.
         21   -1    0    0  502  504 -0.00000000000E+00 -0.00000000000E+00 -0.23541355821E+03  0.23541355821E+03  0.00000000000E+00 0. -1.
          6    2    1    2  502    0  0.42281386846E+01  0.67635656569E+01 -0.15357711306E+03  0.23140381668E+03  0.17291088382E+03 0.  0.
         24    2    3    3    0    0  0.68190069509E+02 -0.18685196340E+01 -0.90607629946E+02  0.14111047643E+03  0.83958602937E+02 0.  0.
         -6    2    1    2    0  503 -0.42281386846E+01 -0.67635656569E+01  0.12578249755E+03  0.21162868423E+03  0.17000541263E+03 0.  0.
        -24    2    5    5    0    0 -0.44289586945E+02  0.44162578823E+02  0.97776020268E+02  0.14088375792E+03  0.79851000166E+02 0.  0.
          4    1    4    4  501    0  0.22403459269E+02  0.32525282088E+02 -0.69767801863E+02  0.80170787316E+02  0.00000000000E+00 0. -1.
         -3    1    4    4    0  501  0.45786610240E+02 -0.34393801722E+02 -0.20839828084E+02  0.60939689109E+02  0.00000000000E+00 0.  1.
          5    1    3    3  502    0 -0.63961930824E+02  0.86320852909E+01 -0.62969483112E+02  0.90293340256E+02  0.47000000000E+01 0. -1.
         13    1    6    6    0    0 -0.12263102803E+02 -0.22664387073E+02  0.15142605880E+02  0.29889072328E+02  0.00000000000E+00 0. -1.
        -14    1    6    6    0    0 -0.32026484142E+02  0.66826965896E+02  0.82633414387E+02  0.11099468560E+03  0.00000000000E+00 0.  1.
         -5    1    5    5    0  503  0.40061448260E+02 -0.50926144480E+02  0.28006477287E+02  0.70744926308E+02  0.47000000000E+01 0.  1.
<mgrwt>
<rscale>  2 0.17236457E+03</rscale>
<asrwt>0</asrwt>
<pdfrwt beam="1">  1       21 0.31941376E-01 0.17309476E+03</pdfrwt>
<pdfrwt beam="2">  1       21 0.36217470E-01 0.17309476E+03</pdfrwt>
<totfact> 0.69886534E+04</totfact>
</mgrwt>
</event>
<event>
12    1  0.2762290E-001  0.1754909E+03  0.7546771E-02  0.1172281E+00
         21   -1    0    0  504  503  0.00000000000E+00  0.00000000000E+00  0.22098701056E+03  0.22098701056E+03  0.00000000000E+00 0.  1.
         21   -1    0    0  502  504 -0.00000000000E+00 -0.00000000000E+00 -0.18150611654E+03  0.18150611654E+03  0.00000000000E+00 0.  1.
          6    2    1    2  502    0  0.14836031189E+02 -0.28850777200E+02 -0.77376578940E+02  0.19179208848E+03  0.17246621428E+03 0.  0.
         24    2    3    3    0    0 -0.47489656081E+01 -0.60016598308E+02 -0.10539459221E+03  0.14529499640E+03  0.79862827181E+02 0.  0.
         -6    2    1    2    0  503 -0.14836031189E+02  0.28850777200E+02  0.11685747296E+03  0.21070103861E+03  0.17229853023E+03 0.  0.
        -24    2    5    5    0    0  0.66846910616E+01  0.37488588954E+02 -0.25060093881E+01  0.89015032034E+02  0.80419627260E+02 0.  0.
          2    1    4    4  501    0  0.75499004123E+01  0.96087284595E+01 -0.60094777952E+02  0.61324636126E+02  0.00000000000E+00 0. -1.
         -1    1    4    4    0  501 -0.12298866020E+02 -0.69625326767E+02 -0.45299814253E+02  0.83970360272E+02  0.00000000000E+00 0.  1.
          5    1    3    3  502    0  0.19584996797E+02  0.31165821108E+02  0.28018013266E+02  0.46497092084E+02  0.47000000000E+01 0. -1.
         13    1    6    6    0    0 -0.33659068506E+02 -0.30265610676E+00  0.34659826089E+00  0.33662213590E+02  0.00000000000E+00 0. -1.
        -14    1    6    6    0    0  0.40343759568E+02  0.37791245061E+02 -0.28526076490E+01  0.55352818444E+02  0.00000000000E+00 0.  1.
         -5    1    5    5    0  503 -0.21520722250E+02 -0.86378117546E+01  0.11936348235E+03  0.12168600657E+03  0.47000000000E+01 0.  1.
<mgrwt>
<rscale>  2 0.17544973E+03</rscale>
<asrwt>0</asrwt>
<pdfrwt beam="1">  1       21 0.33998002E-01 0.17549094E+03</pdfrwt>
<pdfrwt beam="2">  1       21 0.27924018E-01 0.17549094E+03</pdfrwt>
<totfact> 0.10275069E+05</totfact>
</mgrwt>
</event>
<event>
12    1  0.2762290E-001  0.2487169E+03  0.7546771E-02  0.1114202E+00
         21   -1    0    0  504  503  0.00000000000E+00  0.00000000000E+00  0.16522862635E+03  0.16522862635E+03  0.00000000000E+00 0.  1.
         21   -1    0    0  502  504 -0.00000000000E+00 -0.00000000000E+00 -0.71853988116E+03  0.71853988116E+03  0.00000000000E+00 0. -1.
          6    2    1    2  502    0  0.13410484568E+03  0.11843403019E+03 -0.58266777055E+03  0.63332508935E+03  0.17201223451E+03 0.  0.
         24    2    3    3    0    0  0.31199111383E+02  0.10600670677E+03 -0.25580624412E+03  0.29038985352E+03  0.81722861315E+02 0.  0.
         -6    2    1    2    0  503 -0.13410484568E+03 -0.11843403019E+03  0.29356515732E+02  0.25044341816E+03  0.17276970667E+03 0.  0.
        -24    2    5    5    0    0 -0.77310178831E+02 -0.14727511620E+03  0.25447703611E+02  0.18645270605E+03  0.80313151919E+02 0.  0.
          4    1    4    4  501    0 -0.18301529436E+02  0.67993674826E+01 -0.81534913644E+02  0.83839844471E+02  0.00000000000E+00 0. -1.
         -3    1    4    4    0  501  0.49500640819E+02  0.99207339286E+02 -0.17427133048E+03  0.20655000904E+03  0.00000000000E+00 0.  1.
          5    1    3    3  502    0  0.10290573430E+03  0.12427323422E+02 -0.32686152642E+03  0.34293523583E+03  0.47000000000E+01 0. -1.
         11    1    6    6    0    0  0.12701015218E+02 -0.14149598525E+02 -0.10586600022E+02  0.21762422338E+02  0.00000000000E+00 0. -1.
        -12    1    6    6    0    0 -0.90011194049E+02 -0.13312551767E+03  0.36034303633E+02  0.16469028371E+03  0.00000000000E+00 0.  1.
         -5    1    5    5    0  503 -0.56794666852E+02  0.28841086006E+02  0.39088121213E+01  0.63990712115E+02  0.47000000000E+01 0.  1.
<mgrwt>
<rscale>  2 0.24858541E+03</rscale>
<asrwt>0</asrwt>
<pdfrwt beam="1">  1       21 0.25419789E-01 0.24871691E+03</pdfrwt>
<pdfrwt beam="2">  1       21 0.11054460E+00 0.24871691E+03</pdfrwt>
<totfact> 0.91263341E+03</totfact>
</mgrwt>
</event>
<event>
12    1  0.2762290E-001  0.1747220E+03  0.7546771E-02  0.1173246E+00
         21   -1    0    0  504  503  0.00000000000E+00  0.00000000000E+00  0.16358189497E+03  0.16358189497E+03  0.00000000000E+00 0.  1.
         21   -1    0    0  502  504 -0.00000000000E+00 -0.00000000000E+00 -0.36040783847E+03  0.36040783847E+03  0.00000000000E+00 0.  1.
          6    2    1    2  502    0  0.14676574993E+02  0.80075735472E+01 -0.28072612928E+03  0.33016758930E+03  0.17298541637E+03 0.  0.
         24    2    3    3    0    0 -0.29980541000E+02 -0.16335506839E+01 -0.63410174072E+02  0.10805157531E+03  0.82175369933E+02 0.  0.
         -6    2    1    2    0  503 -0.14676574993E+02 -0.80075735472E+01  0.83900185790E+02  0.19382214414E+03  0.17392026706E+03 0.  0.
        -24    2    5    5    0    0  0.21800879395E+02  0.46041079467E+02  0.12522674308E+02  0.97030095306E+02  0.81626972763E+02 0.  0.
          2    1    4    4  501    0 -0.11613180551E+02 -0.11686056440E+02  0.17759634209E+02  0.24224666868E+02  0.00000000000E+00 0. -1.
         -1    1    4    4    0  501 -0.18367360449E+02  0.10052505756E+02 -0.81169808281E+02  0.83826908438E+02  0.00000000000E+00 0.  1.
          5    1    3    3  502    0  0.44657115993E+02  0.96411242311E+01 -0.21731595521E+03  0.22211601400E+03  0.47000000000E+01 0. -1.
         13    1    6    6    0    0 -0.71481286820E+01  0.24091807989E+02 -0.31278831691E+02  0.40123263424E+02  0.00000000000E+00 0. -1.
        -14    1    6    6    0    0  0.28949008077E+02  0.21949271479E+02  0.43801505999E+02  0.56906831882E+02  0.00000000000E+00 0.  1.
         -5    1    5    5    0  503 -0.36477454388E+02 -0.54048653015E+02  0.71377511483E+02  0.96792048830E+02  0.47000000000E+01 0.  1.
<mgrwt>
<rscale>  2 0.17448891E+03</rscale>
<asrwt>0</asrwt>
<pdfrwt beam="1">  1       21 0.25166446E-01 0.17472201E+03</pdfrwt>
<pdfrwt beam="2">  1       21 0.55447359E-01 0.17472201E+03</pdfrwt>
<totfact> 0.46260904E+04</totfact>
</mgrwt>
</event>
<event>
12    1  0.2762290E-001  0.2056320E+03  0.7546771E-02  0.1146605E+00
         21   -1    0    0  504  503  0.00000000000E+00  0.00000000000E+00  0.39184475026E+02  0.39184475026E+02  0.00000000000E+00 0. -1.
         21   -1    0    0  502  504 -0.00000000000E+00 -0.00000000000E+00 -0.17631622008E+04  0.17631622008E+04  0.00000000000E+00 0. -1.
          6    2    1    2  502    0 -0.10972972135E+03 -0.14858700528E+02 -0.14481034734E+04  0.14626305770E+04  0.17327187473E+03 0.  0.
         24    2    3    3    0    0 -0.10893814796E+03 -0.14222776461E+02 -0.62489801726E+03  0.63941107778E+03  0.79241321054E+02 0.  0.
         -6    2    1    2    0  503  0.10972972135E+03  0.14858700528E+02 -0.27587425243E+03  0.33971609881E+03  0.16443549467E+03 0.  0.
        -24    2    5    5    0    0  0.12492993950E+03  0.52242245270E+02 -0.21253749736E+03  0.26446843711E+03  0.80216111031E+02 0.  0.
          4    1    4    4  501    0 -0.10605559545E+03 -0.29777227993E+02 -0.43048424909E+03  0.44435476969E+03  0.00000000000E+00 0. -1.
         -3    1    4    4    0  501 -0.28825525124E+01  0.15554451533E+02 -0.19441376817E+03  0.19505630809E+03  0.00000000000E+00 0.  1.
          5    1    3    3  502    0 -0.79157338770E+00 -0.63592406739E+00 -0.82320545612E+03  0.82321949927E+03  0.47000000000E+01 0. -1.
         11    1    6    6    0    0  0.57681565929E+02  0.35322404727E+02 -0.17038140914E+03  0.18331573829E+03  0.00000000000E+00 0. -1.
        -12    1    6    6    0    0  0.67248373568E+02  0.16919840543E+02 -0.42156088217E+02  0.81152698817E+02  0.00000000000E+00 0.  1.
         -5    1    5    5    0  503 -0.15200218144E+02 -0.37383544742E+02 -0.63336755069E+02  0.75247661703E+02  0.47000000000E+01 0.  1.
<mgrwt>
<rscale>  2 0.20375944E+03</rscale>
<asrwt>0</asrwt>
<pdfrwt beam="1">  1       21 0.60283820E-02 0.20563204E+03</pdfrwt>
<pdfrwt beam="2">  1       21 0.27125567E+00 0.20563204E+03</pdfrwt>
<totfact> 0.96530794E+03</totfact>
</mgrwt>
</event>
<event>
12    1  0.2762290E-001  0.1803918E+03  0.7546771E-02  0.1168084E+00
         21   -1    0    0  504  503  0.00000000000E+00  0.00000000000E+00  0.78421855086E+03  0.78421855086E+03  0.00000000000E+00 0. -1.
         21   -1    0    0  502  504 -0.00000000000E+00 -0.00000000000E+00 -0.43859740862E+02  0.43859740862E+02  0.00000000000E+00 0. -1.
          6    2    1    2  502    0  0.33777534677E+02 -0.33461947150E+02  0.47559890597E+03  0.50770505735E+03  0.17120012307E+03 0.  0.
         24    2    3    3    0    0  0.49675232901E+02 -0.30535223977E+02  0.48016924059E+03  0.49026142023E+03  0.79960814727E+02 0.  0.
         -6    2    1    2    0  503 -0.33777534677E+02  0.33461947150E+02  0.26475990403E+03  0.32037323437E+03  0.17401315688E+03 0.  0.
        -24    2    5    5    0    0 -0.83118415430E+02  0.22564908898E+02  0.23143029354E+03  0.25965897829E+03  0.80280496660E+02 0.  0.
          2    1    4    4  501    0  0.52233410356E+02 -0.26886317696E+02  0.48190972141E+03  0.48547727324E+03  0.00000000000E+00 0. -1.
         -1    1    4    4    0  501 -0.25581774554E+01 -0.36489062800E+01 -0.17404808263E+01  0.47841469920E+01  0.00000000000E+00 0.  1.
          5    1    3    3  502    0 -0.15897698224E+02 -0.29267231740E+01 -0.45703346172E+01  0.17443637117E+02  0.47000000000E+01 0. -1.
         11    1    6    6    0    0 -0.19512833217E+02  0.20055518530E+02  0.10740270091E+02  0.29972118465E+02  0.00000000000E+00 0. -1.
        -12    1    6    6    0    0 -0.63605582213E+02  0.25093903684E+01  0.22069002345E+03  0.22968685983E+03  0.00000000000E+00 0.  1.
         -5    1    5    5    0  503  0.49340880753E+02  0.10897038252E+02  0.33329610488E+02  0.60714256081E+02  0.47000000000E+01 0.  1.
<mgrwt>
<rscale>  2 0.17970994E+03</rscale>
<asrwt>0</asrwt>
<pdfrwt beam="1">  1       21 0.12064900E+00 0.18039180E+03</pdfrwt>
<pdfrwt beam="2">  1       21 0.67476530E-02 0.18039180E+03</pdfrwt>
<totfact> 0.84445190E+04</totfact>
</mgrwt>
</event>
<event>
12    1  0.2762290E-001  0.1991023E+03  0.7546771E-02  0.1150631E+00
         21   -1    0    0  504  503  0.00000000000E+00  0.00000000000E+00  0.32766777849E+03  0.32766777849E+03  0.00000000000E+00 0. -1.
         21   -1    0    0  502  504 -0.00000000000E+00 -0.00000000000E+00 -0.13100009727E+03  0.13100009727E+03  0.00000000000E+00 0. -1.
          6    2    1    2  502    0 -0.78349186347E+02  0.58653106815E+02  0.33584699763E+02  0.20130083246E+03  0.17267110688E+03 0.  0.
         24    2    3    3    0    0 -0.12245325558E+02  0.45373247618E+02 -0.38177249606E+02  0.10272120755E+03  0.82978699041E+02 0.  0.
         -6    2    1    2    0  503  0.78349186347E+02 -0.58653106815E+02  0.16308298146E+03  0.25736704329E+03  0.17338671861E+03 0.  0.
        -24    2    5    5    0    0  0.10138994401E+03 -0.33534383137E+02  0.54568571001E+02  0.14352814805E+03  0.78855086978E+02 0.  0.
          4    1    4    4  501    0 -0.32321799558E+02  0.28201102809E+00 -0.42248271426E+02  0.53194874709E+02  0.00000000000E+00 0. -1.
         -3    1    4    4    0  501  0.20076474000E+02  0.45091236590E+02  0.40710218196E+01  0.49526332836E+02  0.00000000000E+00 0.  1.
          5    1    3    3  502    0 -0.66103860790E+02  0.13279859196E+02  0.71761949370E+02  0.98579624918E+02  0.47000000000E+01 0. -1.
         13    1    6    6    0    0 -0.85266676191E+01  0.92006645693E+01 -0.20476080821E+01  0.12710192290E+02  0.00000000000E+00 0. -1.
        -14    1    6    6    0    0  0.10991661163E+03 -0.42735047706E+02  0.56616179083E+02  0.13081795576E+03  0.00000000000E+00 0.  1.
         -5    1    5    5    0  503 -0.23040757666E+02 -0.25118723678E+02  0.10851441046E+03  0.11383889524E+03  0.47000000000E+01 0.  1.
<mgrwt>
<rscale>  2 0.19894642E+03</rscale>
<asrwt>0</asrwt>
<pdfrwt beam="1">  1       21 0.50410427E-01 0.19910233E+03</pdfrwt>
<pdfrwt beam="2">  1       21 0.20153861E-01 0.19910233E+03</pdfrwt>
<totfact> 0.85006584E+04</totfact>
</mgrwt>
</event>
<event>
12    1  0.2762290E-001  0.2285548E+03  0.7546771E-02  0.1127773E+00
         21   -1    0    0  504  503  0.00000000000E+00  0.00000000000E+00  0.38499769249E+03  0.38499769249E+03  0.00000000000E+00 0.  1.
         21   -1    0    0  502  504 -0.00000000000E+00 -0.00000000000E+00 -0.13557247042E+03  0.13557247042E+03  0.00000000000E+00 0.  1.
          6    2    1    2  502    0  0.14048493018E+03 -0.47051841365E+02  0.13635735105E+03  0.26614019194E+03  0.17403270726E+03 0.  0.
         24    2    3    3    0    0  0.67299906543E+02  0.14542022961E+02  0.13033258863E+03  0.17018061936E+03  0.85053581312E+02 0.  0.
         -6    2    1    2    0  503 -0.14048493018E+03  0.47051841365E+02  0.11306787103E+03  0.25442997097E+03  0.17320616411E+03 0.  0.
        -24    2    5    5    0    0 -0.51271719042E+02  0.38333658469E+02 -0.84445821002E+01  0.10335922589E+03  0.80706629620E+02 0.  0.
          2    1    4    4  501    0  0.20719751209E+02  0.25366524253E+01  0.11892626832E+03  0.12074435802E+03  0.00000000000E+00 0. -1.
         -1    1    4    4    0  501  0.46580155333E+02  0.12005370535E+02  0.11406320307E+02  0.49436261343E+02  0.00000000000E+00 0.  1.
          5    1    3    3  502    0  0.73185023637E+02 -0.61593864325E+02  0.60247624183E+01  0.95959572579E+02  0.47000000000E+01 0. -1.
         13    1    6    6    0    0  0.20451075448E+02  0.34063768799E+01  0.74224818962E+01  0.22021424294E+02  0.00000000000E+00 0. -1.
        -14    1    6    6    0    0 -0.71722794490E+02  0.34927281589E+02 -0.15867063996E+02  0.81337801596E+02  0.00000000000E+00 0.  1.
         -5    1    5    5    0  503 -0.89213211138E+02  0.87181828955E+01  0.12151245313E+03  0.15107074508E+03  0.47000000000E+01 0.  1.
<mgrwt>
<rscale>  2 0.22839740E+03</rscale>
<asrwt>0</asrwt>
<pdfrwt beam="1">  1       21 0.59230414E-01 0.22855475E+03</pdfrwt>
<pdfrwt beam="2">  1       21 0.20857303E-01 0.22855475E+03</pdfrwt>
<totfact> 0.55924240E+04</totfact>
</mgrwt>
</event>
<event>
12    1  0.2762290E-001  0.1858732E+03  0.7546771E-02  0.1163025E+00
         21   -1    0    0  504  503  0.00000000000E+00  0.00000000000E+00  0.70604053287E+03  0.70604053287E+03  0.00000000000E+00 0. -1.
         21   -1    0    0  502  504 -0.00000000000E+00 -0.00000000000E+00 -0.51137402706E+02  0.51137402706E+02  0.00000000000E+00 0. -1.
          6    2    1    2  502    0  0.43065627804E+02  0.39058716390E+02  0.23727039679E+03  0.30140687044E+03  0.17654639257E+03 0.  0.
         24    2    3    3    0    0  0.50620753790E+02  0.71391305977E+01  0.24741811299E+03  0.26675133654E+03  0.85598627377E+02 0.  0.
         -6    2    1    2    0  503 -0.43065627804E+02 -0.39058716390E+02  0.41763273337E+03  0.45577106513E+03  0.17300269422E+03 0.  0.
        -24    2    5    5    0    0 -0.37520415988E+02 -0.85734219436E+02  0.22158575587E+03  0.25411328734E+03  0.81946187215E+02 0.  0.
          2    1    4    4  501    0  0.93660046715E+01  0.43225227614E+02  0.12594482086E+03  0.13348498135E+03  0.00000000000E+00 0. -1.
         -1    1    4    4    0  501  0.41254749118E+02 -0.36086097017E+02  0.12147329213E+03  0.13326635519E+03  0.00000000000E+00 0.  1.
          5    1    3    3  502    0 -0.75551259855E+01  0.31919585792E+02 -0.10147716201E+02  0.34655533900E+02  0.47000000000E+01 0. -1.
         13    1    6    6    0    0  0.74139602713E+01 -0.12212093285E+01  0.95586186432E+02  0.95881057544E+02  0.00000000000E+00 0. -1.
        -14    1    6    6    0    0 -0.44934376259E+02 -0.84513010107E+02  0.12599956944E+03  0.15823222980E+03  0.00000000000E+00 0.  1.
         -5    1    5    5    0  503 -0.55452118167E+01  0.46675503046E+02  0.19604697750E+03  0.20165777779E+03  0.47000000000E+01 0.  1.
<mgrwt>
<rscale>  2 0.18502684E+03</rscale>
<asrwt>0</asrwt>
<pdfrwt beam="1">  1       21 0.10862161E+00 0.18587324E+03</pdfrwt>
<pdfrwt beam="2">  1       21 0.78672932E-02 0.18587324E+03</pdfrwt>
<totfact> 0.83434954E+04</totfact>
</mgrwt>
</event>
<event>
12    1  0.2762290E-001  0.2608877E+03  0.7546771E-02  0.1106627E+00
         21   -1    0    0  504  503  0.00000000000E+00  0.00000000000E+00  0.57890430947E+02  0.57890430947E+02  0.00000000000E+00 0.  1.
         21   -1    0    0  502  504 -0.00000000000E+00 -0.00000000000E+00 -0.11962317482E+04  0.11962317482E+04  0.00000000000E+00 0.  1.
          6    2    1    2  502    0 -0.19282606259E+03  0.29262822909E+02 -0.48596059932E+03  0.55151061223E+03  0.17311281898E+03 0.  0.
         24    2    3    3    0    0 -0.10175536232E+03  0.42428004916E+02 -0.14850034908E+03  0.20169822686E+03  0.80470688331E+02 0.  0.
         -6    2    1    2    0  503  0.19282606259E+03 -0.29262822909E+02 -0.65238071796E+03  0.70261156694E+03  0.17327495381E+03 0.  0.
        -24    2    5    5    0    0  0.28177767198E+02 -0.26233649925E+02 -0.15860758284E+03  0.18208084160E+03  0.80714785444E+02 0.  0.
          4    1    4    4  501    0 -0.63009905854E+02  0.31409505733E+02 -0.14509331091E+03  0.16127267021E+03  0.00000000000E+00 0. -1.
         -3    1    4    4    0  501 -0.38745456468E+02  0.11018499182E+02 -0.34070381626E+01  0.40425556646E+02  0.00000000000E+00 0.  1.
          5    1    3    3  502    0 -0.91070700268E+02 -0.13165182007E+02 -0.33746025024E+03  0.34981238537E+03  0.47000000000E+01 0. -1.
         11    1    6    6    0    0  0.18836044114E+01 -0.51693758558E+02 -0.10657014130E+03  0.11846091193E+03  0.00000000000E+00 0. -1.
        -12    1    6    6    0    0  0.26294162787E+02  0.25460108633E+02 -0.52037441547E+02  0.63619929668E+02  0.00000000000E+00 0.  1.
         -5    1    5    5    0  503  0.16464829539E+03 -0.30291729838E+01 -0.49377313511E+03  0.52053072534E+03  0.47000000000E+01 0.  1.
<mgrwt>
<rscale>  2 0.26086082E+03</rscale>
<asrwt>0</asrwt>
<pdfrwt beam="1">  1       21 0.89062207E-02 0.26088774E+03</pdfrwt>
<pdfrwt beam="2">  1       21 0.18403564E+00 0.26088774E+03</pdfrwt>
<totfact> 0.16247559E+04</totfact>
</mgrwt>
</event>
<event>
12    1  0.2762290E-001  0.1754680E+03  0.7546771E-02  0.1172752E+00
         21   -1    0    0  504  503  0.00000000000E+00  0.00000000000E+00  0.14020633167E+03  0.14020633167E+03  0.00000000000E+00 0. -1.
         21   -1    0    0  502  504 -0.00000000000E+00 -0.00000000000E+00 -0.44491385217E+03  0.44491385217E+03  0.00000000000E+00 0. -1.
          6    2    1    2  502    0 -0.33659174777E+02  0.11480828481E+02 -0.36207987179E+03  0.40235661315E+03  0.17182625271E+03 0.  0.
         24    2    3    3    0    0  0.95677193186E+01 -0.87278320342E+01 -0.34009124420E+03  0.34960678778E+03  0.79969590341E+02 0.  0.
         -6    2    1    2    0  503  0.33659174777E+02 -0.11480828481E+02  0.57372351287E+02  0.18276357069E+03  0.16984165158E+03 0.  0.
        -24    2    5    5    0    0 -0.27620058973E+02  0.38186914314E+02  0.20567309231E+02  0.95592874447E+02  0.80584585087E+02 0.  0.
          2    1    4    4  501    0 -0.33881493994E+02  0.14863109828E+01 -0.10582364532E+03  0.11112519366E+03  0.00000000000E+00 0. -1.
         -1    1    4    4    0  501  0.43449213313E+02 -0.10214143017E+02 -0.23426759887E+03  0.23848159412E+03  0.00000000000E+00 0.  1.
          5    1    3    3  502    0 -0.43226894095E+02  0.20208660515E+02 -0.21988627596E+02  0.52749825369E+02  0.47000000000E+01 0. -1.
         13    1    6    6    0    0  0.28077383944E+02  0.83885866147E+01  0.47774605682E+00  0.29307611909E+02  0.00000000000E+00 0. -1.
        -14    1    6    6    0    0 -0.55697442917E+02  0.29798327699E+02  0.20089563174E+02  0.66285262538E+02  0.00000000000E+00 0.  1.
         -5    1    5    5    0  503  0.61279233750E+02 -0.49667742795E+02  0.36805042056E+02  0.87170696246E+02  0.47000000000E+01 0.  1.
<mgrwt>
<rscale>  2 0.17498021E+03</rscale>
<asrwt>0</asrwt>
<pdfrwt beam="1">  1       21 0.21570205E-01 0.17546798E+03</pdfrwt>
<pdfrwt beam="2">  1       21 0.68448284E-01 0.17546798E+03</pdfrwt>
<totfact> 0.39344173E+04</totfact>
</mgrwt>
</event>
<event>
12    1  0.2762290E-001  0.2229251E+03  0.7546771E-02  0.1131963E+00
         21   -1    0    0  504  503  0.00000000000E+00  0.00000000000E+00  0.48536818557E+03  0.48536818557E+03  0.00000000000E+00 0.  1.
         21   -1    0    0  502  504 -0.00000000000E+00 -0.00000000000E+00 -0.28848523851E+03  0.28848523851E+03  0.00000000000E+00 0.  1.
          6    2    1    2  502    0  0.12075800536E+03 -0.68797749110E+02 -0.21293277894E+03  0.30732952400E+03  0.17261356214E+03 0.  0.
         24    2    3    3    0    0  0.56611003715E+02 -0.16417762682E+02 -0.19943177700E+03  0.22328865388E+03  0.81304616114E+02 0.  0.
         -6    2    1    2    0  503 -0.12075800536E+03  0.68797749110E+02  0.40981572601E+03  0.46652390009E+03  0.17429857696E+03 0.  0.
        -24    2    5    5    0    0 -0.53533823717E+02  0.93933743761E+02  0.17355434012E+03  0.21955742203E+03  0.79968331818E+02 0.  0.
          2    1    4    4  501    0 -0.17664282224E+02  0.40542712927E+00 -0.77807586569E+02  0.79788544074E+02  0.00000000000E+00 0. -1.
         -1    1    4    4    0  501  0.74275285939E+02 -0.16823189811E+02 -0.12162419043E+03  0.14350010980E+03  0.00000000000E+00 0.  1.
          5    1    3    3  502    0  0.64147001642E+02 -0.52379986428E+02 -0.13501001949E+02  0.84040870125E+02  0.47000000000E+01 0. -1.
         11    1    6    6    0    0 -0.68054461760E+02  0.49684049059E+02  0.86067391113E+02  0.12044712661E+03  0.00000000000E+00 0. -1.
        -12    1    6    6    0    0  0.14520638043E+02  0.44249694703E+02  0.87486949005E+02  0.99110295412E+02  0.00000000000E+00 0.  1.
         -5    1    5    5    0  503 -0.67224181639E+02 -0.25135994652E+02  0.23626138589E+03  0.24696647806E+03  0.47000000000E+01 0.  1.
<mgrwt>
<rscale>  2 0.22259567E+03</rscale>
<asrwt>0</asrwt>
<pdfrwt beam="1">  1       21 0.74672029E-01 0.22292514E+03</pdfrwt>
<pdfrwt beam="2">  1       21 0.44382344E-01 0.22292514E+03</pdfrwt>
<totfact> 0.76635251E+03</totfact>
</mgrwt>
</event>
<event>
12    1  0.2762290E-001  0.2599233E+03  0.7546771E-02  0.1108576E+00
         21   -1    0    0  504  503  0.00000000000E+00  0.00000000000E+00  0.68800528304E+03  0.68800528304E+03  0.00000000000E+00 0. -1.
         21   -1    0    0  502  504 -0.00000000000E+00 -0.00000000000E+00 -0.13817269385E+03  0.13817269385E+03  0.00000000000E+00 0. -1.
          6    2    1    2  502    0 -0.13785993464E+03 -0.13349363631E+03  0.46858682815E+02  0.26411337875E+03  0.17531180269E+03 0.  0.
         24    2    3    3    0    0 -0.10742563860E+03 -0.70565872362E+02 -0.35667402361E+02  0.15585999734E+03  0.80624841141E+02 0.  0.
         -6    2    1    2    0  503  0.13785993464E+03  0.13349363631E+03  0.50297390637E+03  0.56206459815E+03  0.16157954539E+03 0.  0.
        -24    2    5    5    0    0  0.63627581110E+02  0.13213610486E+03  0.26906819928E+03  0.31661347265E+03  0.79611405667E+02 0.  0.
          2    1    4    4  501    0 -0.10460706030E+03 -0.27488194061E+02 -0.20369231804E+02  0.11005972689E+03  0.00000000000E+00 0. -1.
         -1    1    4    4    0  501 -0.28185782992E+01 -0.43077678301E+02 -0.15298170557E+02  0.45800270456E+02  0.00000000000E+00 0.  1.
          5    1    3    3  502    0 -0.30434296038E+02 -0.62927763946E+02  0.82526085176E+02  0.10825338140E+03  0.47000000000E+01 0. -1.
         13    1    6    6    0    0  0.50044103510E+02  0.82777906728E+02  0.96587081783E+02  0.13669549556E+03  0.00000000000E+00 0. -1.
        -14    1    6    6    0    0  0.13583477600E+02  0.49358198128E+02  0.17248111750E+03  0.17991797709E+03  0.00000000000E+00 0.  1.
         -5    1    5    5    0  503  0.74232353531E+02  0.13575314529E+01  0.23390570709E+03  0.24545112550E+03  0.47000000000E+01 0.  1.
<mgrwt>
<rscale>  2 0.25762885E+03</rscale>
<asrwt>0</asrwt>
<pdfrwt beam="1">  1       21 0.10584696E+00 0.25992334E+03</pdfrwt>
<pdfrwt beam="2">  1       21 0.21257338E-01 0.25992334E+03</pdfrwt>
<totfact> 0.14180985E+04</totfact>
</mgrwt>
</event>
<event>
12    1  0.2762290E-001  0.1784217E+03  0.7546771E-02  0.1169566E+00
         21   -1    0    0  504  503  0.00000000000E+00  0.00000000000E+00  0.11180672546E+04  0.11180672546E+04  0.00000000000E+00 0. -1.
         21   -1    0    0  502  504 -0.00000000000E+00 -0.00000000000E+00 -0.33566224537E+02  0.33566224537E+02  0.00000000000E+00 0. -1.
          6    2    1    2  502    0 -0.13240455240E+02  0.37548807685E+02  0.31591475041E+03  0.36281733350E+03  0.17392258434E+03 0.  0.
         24    2    3    3    0    0 -0.36591227278E+02  0.29580942534E+02  0.76676375456E+02  0.12226414711E+03  0.82796769504E+02 0.  0.
         -6    2    1    2    0  503  0.13240455240E+02 -0.37548807685E+02  0.76858627969E+03  0.78881614568E+03  0.17297635602E+03 0.  0.
        -24    2    5    5    0    0  0.55713570085E+02 -0.19545787626E+01  0.65205484390E+03  0.65969380003E+03  0.83141855176E+02 0.  0.
          2    1    4    4  501    0 -0.44340173160E+02  0.50051724447E+02  0.74746497856E+02  0.10029090197E+03  0.00000000000E+00 0. -1.
         -1    1    4    4    0  501  0.77489458823E+01 -0.20470781913E+02  0.19298775992E+01  0.21973245140E+02  0.00000000000E+00 0.  1.
          5    1    3    3  502    0  0.23350772038E+02  0.79678651508E+01  0.23923837496E+03  0.24055318639E+03  0.47000000000E+01 0. -1.
         11    1    6    6    0    0  0.47124665768E+02 -0.39484462719E+02  0.41662636263E+03  0.42113808063E+03  0.00000000000E+00 0. -1.
        -12    1    6    6    0    0  0.85889043175E+01  0.37529883957E+02  0.23542848127E+03  0.23855571940E+03  0.00000000000E+00 0.  1.
         -5    1    5    5    0  503 -0.42473114845E+02 -0.35594228923E+02  0.11653143579E+03  0.12912234564E+03  0.47000000000E+01 0.  1.
<mgrwt>
<rscale>  2 0.17819065E+03</rscale>
<asrwt>0</asrwt>
<pdfrwt beam="1">  1       21 0.17201032E+00 0.17842166E+03</pdfrwt>
<pdfrwt beam="2">  1       21 0.51640354E-02 0.17842166E+03</pdfrwt>
<totfact> 0.53052772E+04</totfact>
</mgrwt>
</event>
<event>
12    1  0.2762290E-001  0.2398708E+03  0.7546771E-02  0.1119922E+00
         21   -1    0    0  504  503  0.00000000000E+00  0.00000000000E+00  0.39106036406E+03  0.39106036406E+03  0.00000000000E+00 0. -1.
         21   -1    0    0  502  504 -0.00000000000E+00 -0.00000000000E+00 -0.21284286351E+03  0.21284286351E+03  0.00000000000E+00 0.  1.
          6    2    1    2  502    0  0.25040849973E+02 -0.16430996668E+03 -0.78831787623E+02  0.25249248769E+03  0.17295431848E+03 0.  0.
         24    2    3    3    0    0 -0.31613722116E+02 -0.13722515254E+03 -0.94713868389E+02  0.18754898774E+03  0.79835681383E+02 0.  0.
         -6    2    1    2    0  503 -0.25040849973E+02  0.16430996668E+03  0.25704928817E+03  0.35141073988E+03  0.17259884772E+03 0.  0.
        -24    2    5    5    0    0  0.21933975710E+02  0.10232870952E+03  0.71521296786E+02  0.15018689419E+03  0.80551494148E+02 0.  0.
          2    1    4    4  501    0 -0.94325018074E+01  0.10391113786E+01  0.91655769673E+01  0.13193166563E+02  0.00000000000E+00 0. -1.
         -1    1    4    4    0  501 -0.22181220309E+02 -0.13826426392E+03 -0.10387944536E+03  0.17435582118E+03  0.00000000000E+00 0.  1.
          5    1    3    3  502    0  0.56654572089E+02 -0.27084814139E+02  0.15882080766E+02  0.64943499944E+02  0.47000000000E+01 0. -1.
         13    1    6    6    0    0 -0.25160550976E+02  0.32542778825E+02  0.47083975538E+02  0.62521888420E+02  0.00000000000E+00 0. -1.
        -14    1    6    6    0    0  0.47094526686E+02  0.69785930690E+02  0.24437321248E+02  0.87665005766E+02  0.00000000000E+00 0.  1.
         -5    1    5    5    0  503 -0.46974825683E+02  0.61981257166E+02  0.18552799139E+03  0.20122384569E+03  0.47000000000E+01 0.  1.
<mgrwt>
<rscale>  2 0.23980674E+03</rscale>
<asrwt>0</asrwt>
<pdfrwt beam="1">  1       21 0.60163133E-01 0.23987081E+03</pdfrwt>
<pdfrwt beam="2">  1       21 0.32745056E-01 0.23987081E+03</pdfrwt>
<totfact> 0.22537168E+04</totfact>
</mgrwt>
</event>
<event>
12    1  0.2762290E-001  0.1901762E+03  0.7546771E-02  0.1158445E+00
         21   -1    0    0  504  503  0.00000000000E+00  0.00000000000E+00  0.19894735204E+03  0.19894735204E+03  0.00000000000E+00 0.  1.
         21   -1    0    0  502  504 -0.00000000000E+00 -0.00000000000E+00 -0.18323700768E+03  0.18323700768E+03  0.00000000000E+00 0.  1.
          6    2    1    2  502    0 -0.19149613691E+02 -0.74960520039E+02 -0.12345663363E+02  0.19057646631E+03  0.17372733474E+03 0.  0.
         24    2    3    3    0    0 -0.15296303597E+02 -0.22856251540E+02 -0.71600560233E+02  0.11143775519E+03  0.80841498733E+02 0.  0.
         -6    2    1    2    0  503  0.19149613691E+02  0.74960520039E+02  0.28056007731E+02  0.19160789341E+03  0.17303369030E+03 0.  0.
        -24    2    5    5    0    0 -0.16257126544E+02  0.10896276519E+03  0.40758027939E+02  0.14068421280E+03  0.77418683332E+02 0.  0.
          2    1    4    4  501    0 -0.11009660953E+02 -0.26419780101E+02 -0.88830880283E+02  0.93328145309E+02  0.00000000000E+00 0. -1.
         -1    1    4    4    0  501 -0.42866426440E+01  0.35635285606E+01  0.17230320050E+02  0.18109609879E+02  0.00000000000E+00 0.  1.
          5    1    3    3  502    0 -0.38533100941E+01 -0.52104268499E+02  0.59254896870E+02  0.79138711119E+02  0.47000000000E+01 0. -1.
         13    1    6    6    0    0 -0.18876265641E+02  0.11020373162E+02 -0.16333736871E+02  0.27286498297E+02  0.00000000000E+00 0. -1.
        -14    1    6    6    0    0  0.26191390963E+01  0.97942392029E+02  0.57091764809E+02  0.11339771451E+03  0.00000000000E+00 0.  1.
         -5    1    5    5    0  503  0.35406740236E+02 -0.34002245152E+02 -0.12702020207E+02  0.50923680610E+02  0.47000000000E+01 0.  1.
<mgrwt>
<rscale>  2 0.19001761E+03</rscale>
<asrwt>0</asrwt>
<pdfrwt beam="1">  1       21 0.30607285E-01 0.19017617E+03</pdfrwt>
<pdfrwt beam="2">  1       21 0.28190309E-01 0.19017617E+03</pdfrwt>
<totfact> 0.12333516E+05</totfact>
</mgrwt>
</event>
<event>
12    1  0.2762290E-001  0.2144966E+03  0.7546771E-02  0.1138333E+00
         21   -1    0    0  504  503  0.00000000000E+00  0.00000000000E+00  0.35590021488E+02  0.35590021488E+02  0.00000000000E+00 0. -1.
         21   -1    0    0  502  504 -0.00000000000E+00 -0.00000000000E+00 -0.13564330405E+04  0.13564330405E+04  0.00000000000E+00 0. -1.
          6    2    1    2  502    0 -0.16918082587E+02 -0.12385618319E+03 -0.50174555906E+03  0.54567149379E+03  0.17430489801E+03 0.  0.
         24    2    3    3    0    0 -0.33796528812E+02 -0.88081702653E+02 -0.48830506795E+03  0.50363065406E+03  0.79381387121E+02 0.  0.
         -6    2    1    2    0  503  0.16918082587E+02  0.12385618319E+03 -0.81909745997E+03  0.84635156821E+03  0.17252174488E+03 0.  0.
        -24    2    5    5    0    0  0.19977262116E+01  0.11293419194E+03 -0.81513458106E+03  0.82686564159E+03  0.80649125091E+02 0.  0.
          2    1    4    4  501    0  0.22893970653E+02 -0.30900704272E+02 -0.10167716604E+03  0.10870709963E+03  0.00000000000E+00 0. -1.
         -1    1    4    4    0  501 -0.56690499465E+02 -0.57180998381E+02 -0.38662790191E+03  0.39492355443E+03  0.00000000000E+00 0.  1.
          5    1    3    3  502    0  0.16878446225E+02 -0.35774480535E+02 -0.13440491117E+02  0.42040839739E+02  0.47000000000E+01 0. -1.
         13    1    6    6    0    0 -0.18263028980E+02  0.11665162750E+03 -0.70567281059E+03  0.71548253370E+03  0.00000000000E+00 0. -1.
        -14    1    6    6    0    0  0.20260755191E+02 -0.37174355533E+01 -0.10946177047E+03  0.11138310789E+03  0.00000000000E+00 0.  1.
         -5    1    5    5    0  503  0.14920356376E+02  0.10921991243E+02 -0.39628789045E+01  0.19485926621E+02  0.47000000000E+01 0.  1.
<mgrwt>
<rscale>  2 0.21413401E+03</rscale>
<asrwt>0</asrwt>
<pdfrwt beam="1">  1       21 0.54753885E-02 0.21449656E+03</pdfrwt>
<pdfrwt beam="2">  1       21 0.20868198E+00 0.21449656E+03</pdfrwt>
<totfact> 0.26834768E+04</totfact>
</mgrwt>
</event>
<event>
12    1  0.2762290E-001  0.4055468E+03  0.7546771E-02  0.1041931E+00
         21   -1    0    0  504  503  0.00000000000E+00  0.00000000000E+00  0.38790343619E+03  0.38790343619E+03  0.00000000000E+00 0. -1.
         21   -1    0    0  502  504 -0.00000000000E+00 -0.00000000000E+00 -0.44706183294E+03  0.44706183294E+03  0.00000000000E+00 0.  1.
          6    2    1    2  502    0  0.32466291974E+03  0.16955266753E+03  0.66621168318E+02  0.41098245368E+03  0.17410938701E+03 0.  0.
         24    2    3    3    0    0  0.25758492208E+03  0.59137773803E+02  0.51529085340E+02  0.28082575007E+03  0.79753287652E+02 0.  0.
         -6    2    1    2    0  503 -0.32466291974E+03 -0.16955266753E+03 -0.12577956508E+03  0.42398281545E+03  0.17258855782E+03 0.  0.
        -24    2    5    5    0    0 -0.10865333735E+03 -0.83913686015E+02  0.45551166017E+01  0.15751819475E+03  0.77098496566E+02 0.  0.
          4    1    4    4  501    0  0.23203756159E+03  0.55349533360E+02  0.19017692686E+02  0.23930456215E+03  0.00000000000E+00 0. -1.
         -3    1    4    4    0  501  0.25547360496E+02  0.37882404432E+01  0.32511392654E+02  0.41521187920E+02  0.00000000000E+00 0.  1.
          5    1    3    3  502    0  0.67077997651E+02  0.11041489373E+03  0.15092082977E+02  0.13015670361E+03  0.47000000000E+01 0. -1.
         13    1    6    6    0    0 -0.12067090962E+02 -0.29015317260E+01  0.26775341212E+02  0.29511903830E+02  0.00000000000E+00 0. -1.
        -14    1    6    6    0    0 -0.96586246389E+02 -0.81012154289E+02 -0.22220224610E+02  0.12800629092E+03  0.00000000000E+00 0.  1.
         -5    1    5    5    0  503 -0.21600958238E+03 -0.85638981514E+02 -0.13033468168E+03  0.26646462070E+03  0.47000000000E+01 0.  1.
<mgrwt>
<rscale>  2 0.40538404E+03</rscale>
<asrwt>0</asrwt>
<pdfrwt beam="1">  1       21 0.59677452E-01 0.40554679E+03</pdfrwt>
<pdfrwt beam="2">  1       21 0.68778744E-01 0.40554679E+03</pdfrwt>
<totfact> 0.45024721E+03</totfact>
</mgrwt>
</event>
<event>
12    1  0.2762290E-001  0.1958755E+03  0.7546771E-02  0.1153573E+00
         21   -1    0    0  504  503  0.00000000000E+00  0.00000000000E+00  0.73142189301E+02  0.73142189301E+02  0.00000000000E+00 0. -1.
         21   -1    0    0  502  504 -0.00000000000E+00 -0.00000000000E+00 -0.56393227052E+03  0.56393227052E+03  0.00000000000E+00 0. -1.
          6    2    1    2  502    0 -0.16462455961E+02 -0.87907201794E+02 -0.33431466800E+03  0.38747066825E+03  0.17426569636E+03 0.  0.
         24    2    3    3    0    0  0.55960316358E+02 -0.59988672198E+02 -0.22903605739E+03  0.25658836197E+03  0.81546760289E+02 0.  0.
         -6    2    1    2    0  503  0.16462455961E+02  0.87907201794E+02 -0.15647541322E+03  0.24960379157E+03  0.17268123593E+03 0.  0.
        -24    2    5    5    0    0 -0.37661683196E+02  0.92067363037E+02 -0.65595446655E+02  0.14364159216E+03  0.80220587504E+02 0.  0.
          4    1    4    4  501    0  0.43242067753E+02 -0.18956560642E+02 -0.37502409800E+02  0.60296420754E+02  0.00000000000E+00 0. -1.
         -3    1    4    4    0  501  0.12718248605E+02 -0.41032111556E+02 -0.19153364759E+03  0.19629194121E+03  0.00000000000E+00 0.  1.
          5    1    3    3  502    0 -0.72422772319E+02 -0.27918529596E+02 -0.10527861061E+03  0.13088230628E+03  0.47000000000E+01 0. -1.
         13    1    6    6    0    0 -0.17314266446E+02  0.80467449804E+02 -0.81101731384E+02  0.11555208840E+03  0.00000000000E+00 0. -1.
        -14    1    6    6    0    0 -0.20347416750E+02  0.11599913233E+02  0.15506284729E+02  0.28089503761E+02  0.00000000000E+00 0.  1.
         -5    1    5    5    0  503  0.54124139157E+02 -0.41601612435E+01 -0.90879966562E+02  0.10596219941E+03  0.47000000000E+01 0.  1.
<mgrwt>
<rscale>  2 0.19552249E+03</rscale>
<asrwt>0</asrwt>
<pdfrwt beam="1">  1       21 0.11252644E-01 0.19587553E+03</pdfrwt>
<pdfrwt beam="2">  1       21 0.86758812E-01 0.19587553E+03</pdfrwt>
<totfact> 0.75142611E+04</totfact>
</mgrwt>
</event>
<event>
12    1  0.2762290E-001  0.1778236E+03  0.7546771E-02  0.1170785E+00
         21   -1    0    0  504  503  0.00000000000E+00  0.00000000000E+00  0.35250697971E+02  0.35250697971E+02  0.00000000000E+00 0. -1.
         21   -1    0    0  502  504 -0.00000000000E+00 -0.00000000000E+00 -0.98442831326E+03  0.98442831326E+03  0.00000000000E+00 0.  1.
          6    2    1    2  502    0 -0.13173675446E+02 -0.39442090415E+02 -0.63672237908E+03  0.66016611153E+03  0.16933600495E+03 0.  0.
         24    2    3    3    0    0 -0.17766310125E+02 -0.42104893181E+02 -0.64413622198E+03  0.64990756005E+03  0.73347803914E+02 0.  0.
         -6    2    1    2    0  503  0.13173675446E+02  0.39442090415E+02 -0.31245523621E+03  0.35951289970E+03  0.17289310627E+03 0.  0.
        -24    2    5    5    0    0 -0.57345999043E+02 -0.89571144118E+01 -0.16468826170E+03  0.18871279351E+03  0.71564665788E+02 0.  0.
          2    1    4    4  501    0  0.76301774320E+01 -0.56457115938E+02 -0.40067870690E+03  0.40470860098E+03  0.00000000000E+00 0. -1.
         -1    1    4    4    0  501 -0.25396487557E+02  0.14352222756E+02 -0.24345751508E+03  0.24519895907E+03  0.00000000000E+00 0.  1.
          5    1    3    3  502    0  0.45926346789E+01  0.26628027668E+01  0.74138429014E+01  0.10258551478E+02  0.47000000000E+01 0. -1.
         11    1    6    6    0    0  0.59884546075E+01 -0.24531313784E+02 -0.31160046350E+02  0.40107299000E+02  0.00000000000E+00 0. -1.
        -12    1    6    6    0    0 -0.63334453651E+02  0.15574199372E+02 -0.13352821535E+03  0.14860549451E+03  0.00000000000E+00 0.  1.
         -5    1    5    5    0  503  0.70519674489E+02  0.48399204827E+02 -0.14776697451E+03  0.17080010619E+03  0.47000000000E+01 0.  1.
<mgrwt>
<rscale>  2 0.17695316E+03</rscale>
<asrwt>0</asrwt>
<pdfrwt beam="1">  1       21 0.54231848E-02 0.17782365E+03</pdfrwt>
<pdfrwt beam="2">  1       21 0.15145050E+00 0.17782365E+03</pdfrwt>
<totfact> 0.68817533E+04</totfact>
</mgrwt>
</event>
<event>
12    1  0.2762290E-001  0.2312976E+03  0.7546771E-02  0.1125919E+00
         21   -1    0    0  504  503  0.00000000000E+00  0.00000000000E+00  0.44278877524E+03  0.44278877524E+03  0.00000000000E+00 0. -1.
         21   -1    0    0  502  504 -0.00000000000E+00 -0.00000000000E+00 -0.12099723134E+03  0.12099723134E+03  0.00000000000E+00 0.  1.
          6    2    1    2  502    0  0.61362914779E+02 -0.14038159180E+03  0.13849603297E+03  0.26866602086E+03  0.17183678590E+03 0.  0.
         24    2    3    3    0    0  0.27966817827E+02 -0.16051297333E+03  0.14001817015E+03  0.22935980360E+03  0.80338496541E+02 0.  0.
         -6    2    1    2    0  503 -0.61362914779E+02  0.14038159180E+03  0.18329551092E+03  0.29511998572E+03  0.17328059043E+03 0.  0.
        -24    2    5    5    0    0  0.27923105445E+02  0.90449365383E+02  0.13069919953E+03  0.17999534624E+03  0.79719861986E+02 0.  0.
          4    1    4    4  501    0  0.30406223850E+02 -0.12866077523E+03  0.14588829628E+03  0.19687947715E+03  0.00000000000E+00 0. -1.
         -3    1    4    4    0  501 -0.24394060232E+01 -0.31852198102E+02 -0.58701261228E+01  0.32480326451E+02  0.00000000000E+00 0.  1.
          5    1    3    3  502    0  0.33396096951E+02  0.20131381530E+02 -0.15221371819E+01  0.39306217262E+02  0.47000000000E+01 0. -1.
         11    1    6    6    0    0  0.27160126920E+02  0.97215648425E+02  0.79880159614E+02  0.12872216085E+03  0.00000000000E+00 0. -1.
        -12    1    6    6    0    0  0.76297852474E+00 -0.67662830424E+01  0.50819039920E+02  0.51273185398E+02  0.00000000000E+00 0.  1.
         -5    1    5    5    0  503 -0.89286020224E+02  0.49932226420E+02  0.52596311389E+02  0.11512463948E+03  0.47000000000E+01 0.  1.
<mgrwt>
<rscale>  2 0.23102717E+03</rscale>
<asrwt>0</asrwt>
<pdfrwt beam="1">  1       21 0.68121349E-01 0.23129756E+03</pdfrwt>
<pdfrwt beam="2">  1       21 0.18614959E-01 0.23129756E+03</pdfrwt>
<totfact> 0.50971326E+04</totfact>
</mgrwt>
</event>
<event>
12    1  0.2762290E-001  0.1761424E+03  0.7546771E-02  0.1172323E+00
         21   -1    0    0  504  503  0.00000000000E+00  0.00000000000E+00  0.65480395062E+02  0.65480395062E+02  0.00000000000E+00 0.  1.
         21   -1    0    0  502  504 -0.00000000000E+00 -0.00000000000E+00 -0.84902220532E+03  0.84902220532E+03  0.00000000000E+00 0.  1.
          6    2    1    2  502    0 -0.22151684692E+02 -0.11012009166E+02 -0.69708687394E+03  0.71828690944E+03  0.17144682257E+03 0.  0.
         24    2    3    3    0    0 -0.56504728245E+02  0.44306791745E+02 -0.45319323175E+03  0.46580621704E+03  0.80221259129E+02 0.  0.
         -6    2    1    2    0  503  0.22151684692E+02  0.11012009166E+02 -0.86454936320E+02  0.19621569095E+03  0.17439661659E+03 0.  0.
        -24    2    5    5    0    0 -0.45977102208E+01  0.54446811118E+02 -0.10465285381E+03  0.14185240968E+03  0.78640270484E+02 0.  0.
          4    1    4    4  501    0 -0.52480075122E+02 -0.24808380085E+01 -0.14860247920E+03  0.15761665415E+03  0.00000000000E+00 0. -1.
         -3    1    4    4    0  501 -0.40246531226E+01  0.46787629753E+02 -0.30459075255E+03  0.30818956288E+03  0.00000000000E+00 0.  1.
          5    1    3    3  502    0  0.34353043553E+02 -0.55318800910E+02 -0.24389364219E+03  0.25248069240E+03  0.47000000000E+01 0. -1.
         13    1    6    6    0    0  0.11432617749E+02  0.30226372370E+02  0.94795063241E+00  0.32330124430E+02  0.00000000000E+00 0. -1.
        -14    1    6    6    0    0 -0.16030327970E+02  0.24220438748E+02 -0.10560080444E+03  0.10952228525E+03  0.00000000000E+00 0.  1.
         -5    1    5    5    0  503  0.26749394913E+02 -0.43434801953E+02  0.18197917490E+02  0.54363281264E+02  0.47000000000E+01 0.  1.
<mgrwt>
<rscale>  2 0.17540779E+03</rscale>
<asrwt>0</asrwt>
<pdfrwt beam="1">  1       21 0.10073908E-01 0.17614239E+03</pdfrwt>
<pdfrwt beam="2">  1       21 0.13061879E+00 0.17614239E+03</pdfrwt>
<totfact> 0.34541124E+04</totfact>
</mgrwt>
</event>
<event>
12    1  0.2762290E-001  0.2301750E+03  0.7546771E-02  0.1126879E+00
         21   -1    0    0  504  503  0.00000000000E+00  0.00000000000E+00  0.17010923068E+03  0.17010923068E+03  0.00000000000E+00 0. -1.
         21   -1    0    0  502  504 -0.00000000000E+00 -0.00000000000E+00 -0.34059548750E+03  0.34059548750E+03  0.00000000000E+00 0.  1.
          6    2    1    2  502    0 -0.14854810356E+03  0.17261704463E+02 -0.16375091565E+03  0.28247986562E+03  0.17497430267E+03 0.  0.
         24    2    3    3    0    0 -0.16798846879E+03  0.46994924255E+02 -0.12379791836E+03  0.22881121414E+03  0.81240375282E+02 0.  0.
         -6    2    1    2    0  503  0.14854810356E+03 -0.17261704463E+02 -0.67353411694E+01  0.22822485255E+03  0.17226930367E+03 0.  0.
        -24    2    5    5    0    0  0.10421423658E+03  0.44988860635E+02 -0.40559516906E+02  0.14451828482E+03  0.79723619768E+02 0.  0.
          4    1    4    4  501    0 -0.41643433008E+02  0.89829621846E+01  0.68306140298E+01  0.43145410073E+02  0.00000000000E+00 0. -1.
         -3    1    4    4    0  501 -0.12634503578E+03  0.38011962070E+02 -0.13062853239E+03  0.18566580407E+03  0.00000000000E+00 0.  1.
          5    1    3    3  502    0  0.19440365226E+02 -0.29733219792E+02 -0.39952997287E+02  0.53668651479E+02  0.47000000000E+01 0. -1.
         11    1    6    6    0    0  0.81758086809E+02  0.32779597390E+02 -0.64752287715E+02  0.10932403911E+03  0.00000000000E+00 0. -1.
        -12    1    6    6    0    0  0.22456149767E+02  0.12209263245E+02  0.24192770809E+02  0.35194245705E+02  0.00000000000E+00 0.  1.
         -5    1    5    5    0  503  0.44333866984E+02 -0.62250565098E+02  0.33824175737E+02  0.83706567730E+02  0.47000000000E+01 0.  1.
<mgrwt>
<rscale>  2 0.22966086E+03</rscale>
<asrwt>0</asrwt>
<pdfrwt beam="1">  1       21 0.26170651E-01 0.23017496E+03</pdfrwt>
<pdfrwt beam="2">  1       21 0.52399306E-01 0.23017496E+03</pdfrwt>
<totfact> 0.47095437E+04</totfact>
</mgrwt>
</event>
<event>
12    1  0.2762290E-001  0.2255614E+03  0.7546771E-02  0.1131529E+00
         21   -1    0    0  504  503  0.00000000000E+00  0.00000000000E+00  0.19191246001E+04  0.19191246001E+04  0.00000000000E+00 0. -1.
         21   -1    0    0  502  504 -0.00000000000E+00 -0.00000000000E+00 -0.25929048980E+02  0.25929048980E+02  0.00000000000E+00 0.  1.
          6    2    1    2  502    0 -0.70038364802E+02  0.11669868769E+03  0.83047443834E+03  0.86056127943E+03  0.17987208414E+03 0.  0.
         24    2    3    3    0    0 -0.39252036821E+02  0.39441028742E+02  0.69280844469E+03  0.69965584239E+03  0.80239887975E+02 0.  0.
         -6    2    1    2    0  503  0.70038364802E+02 -0.11669868769E+03  0.10627211128E+04  0.10844923697E+04  0.16799875013E+03 0.  0.
        -24    2    5    5    0    0  0.22204600845E+02 -0.70740608024E+02  0.29750930915E+03  0.31639640659E+03  0.78087253457E+02 0.  0.
          4    1    4    4  501    0 -0.45173050105E+02  0.56900561404E+02  0.63064799711E+03  0.63481900933E+03  0.00000000000E+00 0. -1.
         -3    1    4    4    0  501  0.59210132838E+01 -0.17459532662E+02  0.62160447575E+02  0.64836833064E+02  0.00000000000E+00 0.  1.
          5    1    3    3  502    0 -0.30786327981E+02  0.77257658951E+02  0.13766599366E+03  0.16090543703E+03  0.47000000000E+01 0. -1.
         11    1    6    6    0    0  0.11161206554E+02  0.96637471997E+01  0.12363548016E+03  0.12451382452E+03  0.00000000000E+00 0. -1.
        -12    1    6    6    0    0  0.11043394291E+02 -0.80404355224E+02  0.17387382898E+03  0.19188258207E+03  0.00000000000E+00 0.  1.
         -5    1    5    5    0  503  0.47833763956E+02 -0.45958079670E+02  0.76521180364E+03  0.76809596308E+03  0.47000000000E+01 0.  1.
<mgrwt>
<rscale>  2 0.22318672E+03</rscale>
<asrwt>0</asrwt>
<pdfrwt beam="1">  1       21 0.29524983E+00 0.22556135E+03</pdfrwt>
<pdfrwt beam="2">  1       21 0.39890860E-02 0.22556135E+03</pdfrwt>
<totfact> 0.13862351E+04</totfact>
</mgrwt>
</event>
<event>
12    1  0.2762290E-001  0.1875035E+03  0.7546771E-02  0.1160850E+00
         21   -1    0    0  504  503  0.00000000000E+00  0.00000000000E+00  0.56421155993E+02  0.56421155993E+02  0.00000000000E+00 0. -1.
         21   -1    0    0  502  504 -0.00000000000E+00 -0.00000000000E+00 -0.10179126972E+04  0.10179126972E+04  0.00000000000E+00 0. -1.
          6    2    1    2  502    0 -0.43738962169E+02 -0.52221960019E+02 -0.81639075195E+03  0.83764635229E+03  0.17469207684E+03 0.  0.
         24    2    3    3    0    0 -0.83510788873E+02 -0.39321630766E+02 -0.74630770137E+03  0.75590321390E+03  0.76773961477E+02 0.  0.
         -6    2    1    2    0  503  0.43738962169E+02  0.52221960019E+02 -0.14510078925E+03  0.23668750090E+03  0.17414506632E+03 0.  0.
        -24    2    5    5    0    0  0.86726206483E+02  0.33722462458E+02 -0.54072016193E+02  0.13422549766E+03  0.80212604507E+02 0.  0.
          4    1    4    4  501    0 -0.28132479976E+02  0.35539195561E+01 -0.47010269023E+03  0.47095711709E+03  0.00000000000E+00 0. -1.
         -3    1    4    4    0  501 -0.55378308897E+02 -0.42875550322E+02 -0.27620501114E+03  0.28494609681E+03  0.00000000000E+00 0.  1.
          5    1    3    3  502    0  0.39771826703E+02 -0.12900329253E+02 -0.70083050582E+02  0.81743138385E+02  0.47000000000E+01 0. -1.
         13    1    6    6    0    0  0.74251821700E+02 -0.11535177148E+01 -0.61533248690E+02  0.96441714643E+02  0.00000000000E+00 0. -1.
        -14    1    6    6    0    0  0.12474384782E+02  0.34875980173E+02  0.74612324967E+01  0.37783783017E+02  0.00000000000E+00 0.  1.
         -5    1    5    5    0  503 -0.42987244313E+02  0.18499497561E+02 -0.91028773061E+02  0.10246200324E+03  0.47000000000E+01 0.  1.
<mgrwt>
<rscale>  2 0.18737596E+03</rscale>
<asrwt>0</asrwt>
<pdfrwt beam="1">  1       21 0.86801779E-02 0.18750347E+03</pdfrwt>
<pdfrwt beam="2">  1       21 0.15660195E+00 0.18750347E+03</pdfrwt>
<totfact> 0.27842609E+04</totfact>
</mgrwt>
</event>
<event>
12    1  0.2762290E-001  0.1929012E+03  0.7546771E-02  0.1158394E+00
         21   -1    0    0  504  503  0.00000000000E+00  0.00000000000E+00  0.18535046411E+04  0.18535046411E+04  0.00000000000E+00 0. -1.
         21   -1    0    0  502  504 -0.00000000000E+00 -0.00000000000E+00 -0.20488097610E+02  0.20488097610E+02  0.00000000000E+00 0. -1.
          6    2    1    2  502    0  0.21930494020E+01  0.55649377494E+02  0.68416759019E+03  0.71084186154E+03  0.18468675634E+03 0.  0.
         24    2    3    3    0    0 -0.59110696886E+02  0.58557344905E+02  0.29760625371E+03  0.31941068950E+03  0.80812555895E+02 0.  0.
         -6    2    1    2    0  503 -0.21930494020E+01 -0.55649377494E+02  0.11488489532E+04  0.11631508771E+04  0.17310223247E+03 0.  0.
        -24    2    5    5    0    0 -0.20013974956E+02  0.34029101403E+02  0.47728480038E+03  0.48537486959E+03  0.78926829535E+02 0.  0.
          2    1    4    4  501    0 -0.21827281527E+02  0.14968872680E+02  0.22655835579E+03  0.22809907047E+03  0.00000000000E+00 0. -1.
         -1    1    4    4    0  501 -0.37283415359E+02  0.43588472226E+02  0.71047897914E+02  0.91311619030E+02  0.00000000000E+00 0.  1.
          5    1    3    3  502    0  0.61303746288E+02 -0.29079674111E+01  0.38656133649E+03  0.39143117205E+03  0.47000000000E+01 0. -1.
         11    1    6    6    0    0 -0.29587343665E+02 -0.31961854756E+01  0.67224142202E+02  0.73516745042E+02  0.00000000000E+00 0. -1.
        -12    1    6    6    0    0  0.95733687088E+01  0.37225286879E+02  0.41006065818E+03  0.41185812455E+03  0.00000000000E+00 0.  1.
         -5    1    5    5    0  503  0.17820925554E+02 -0.89678478897E+02  0.67156415287E+03  0.67777600753E+03  0.47000000000E+01 0.  1.
<mgrwt>
<rscale>  2 0.19007453E+03</rscale>
<asrwt>0</asrwt>
<pdfrwt beam="1">  1       21 0.28515443E+00 0.19290117E+03</pdfrwt>
<pdfrwt beam="2">  1       21 0.31520165E-02 0.19290117E+03</pdfrwt>
<totfact> 0.24222397E+04</totfact>
</mgrwt>
</event>
<event>
12    1  0.2762290E-001  0.2030476E+03  0.7546771E-02  0.1151107E+00
         21   -1    0    0  504  503  0.00000000000E+00  0.00000000000E+00  0.20199403452E+03  0.20199403452E+03  0.00000000000E+00 0. -1.
         21   -1    0    0  502  504 -0.00000000000E+00 -0.00000000000E+00 -0.18827337552E+03  0.18827337552E+03  0.00000000000E+00 0. -1.
          6    2    1    2  502    0  0.63500562537E+02 -0.15623428674E+02 -0.12867646549E+02  0.18548635640E+03  0.17309881315E+03 0.  0.
         24    2    3    3    0    0 -0.25925609549E+02 -0.22853028147E+02  0.19900683901E+02  0.89856022071E+02  0.80521235440E+02 0.  0.
         -6    2    1    2    0  503 -0.63500562537E+02  0.15623428674E+02  0.26588305551E+02  0.20478105364E+03  0.19222884532E+03 0.  0.
        -24    2    5    5    0    0 -0.10620557816E+03  0.60274102211E+01  0.62159753406E+02  0.14818405873E+03  0.82333017758E+02 0.  0.
          2    1    4    4  501    0 -0.46622148006E+01  0.29831474071E+02  0.12020936657E+02  0.32498553971E+02  0.00000000000E+00 0. -1.
         -1    1    4    4    0  501 -0.21263394749E+02 -0.52684502218E+02  0.78797472447E+01  0.57357468100E+02  0.00000000000E+00 0.  1.
          5    1    3    3  502    0  0.89426172086E+02  0.72295994728E+01 -0.32768330450E+02  0.95630334324E+02  0.47000000000E+01 0. -1.
         11    1    6    6    0    0 -0.10172904282E+02  0.31656632468E+02  0.26735139881E+02  0.42666123156E+02  0.00000000000E+00 0. -1.
        -12    1    6    6    0    0 -0.96032673880E+02 -0.25629222247E+02  0.35424613525E+02  0.10551793558E+03  0.00000000000E+00 0.  1.
         -5    1    5    5    0  503  0.42705015625E+02  0.95960184534E+01 -0.35571447855E+02  0.56596994904E+02  0.47000000000E+01 0.  1.
<mgrwt>
<rscale>  2 0.19838761E+03</rscale>
<asrwt>0</asrwt>
<pdfrwt beam="1">  1       21 0.31076005E-01 0.20304763E+03</pdfrwt>
<pdfrwt beam="2">  1       21 0.28965135E-01 0.20304763E+03</pdfrwt>
<totfact> 0.11303735E+05</totfact>
</mgrwt>
</event>
<event>
12    1  0.2762290E-001  0.3568841E+03  0.7546771E-02  0.1059892E+00
         21   -1    0    0  504  503  0.00000000000E+00  0.00000000000E+00  0.14193804061E+03  0.14193804061E+03  0.00000000000E+00 0.  1.
         21   -1    0    0  502  504 -0.00000000000E+00 -0.00000000000E+00 -0.89610206682E+03  0.89610206682E+03  0.00000000000E+00 0. -1.
          6    2    1    2  502    0 -0.15571572718E+03 -0.27028467946E+03 -0.38921272852E+03  0.52806517099E+03  0.17339285201E+03 0.  0.
         24    2    3    3    0    0 -0.67503552442E+02 -0.45683167602E+02 -0.96493372899E+02  0.14867890601E+03  0.78426811002E+02 0.  0.
         -6    2    1    2    0  503  0.15571572718E+03  0.27028467946E+03 -0.36495129769E+03  0.50997493645E+03  0.17199939091E+03 0.  0.
        -24    2    5    5    0    0  0.15908064632E+03  0.15295433220E+03 -0.27367956594E+03  0.36121219889E+03  0.82897937483E+02 0.  0.
          4    1    4    4  501    0 -0.10267435351E-01  0.19019012962E+02 -0.10908653898E+02  0.21925366345E+02  0.00000000000E+00 0. -1.
         -3    1    4    4    0  501 -0.67493285007E+02 -0.64702180564E+02 -0.85584719001E+02  0.12675353966E+03  0.00000000000E+00 0.  1.
          5    1    3    3  502    0 -0.88212174735E+02 -0.22460151186E+03 -0.29271935562E+03  0.37938626498E+03  0.47000000000E+01 0. -1.
         11    1    6    6    0    0  0.92327547743E+02  0.12615028003E+03 -0.14213056233E+03  0.21128030190E+03  0.00000000000E+00 0. -1.
        -12    1    6    6    0    0  0.66753098577E+02  0.26804052174E+02 -0.13154900361E+03  0.14993189699E+03  0.00000000000E+00 0.  1.
         -5    1    5    5    0  503 -0.33649191431E+01  0.11733034726E+03 -0.91271731752E+02  0.14876273756E+03  0.47000000000E+01 0.  1.
<mgrwt>
<rscale>  2 0.35671527E+03</rscale>
<asrwt>0</asrwt>
<pdfrwt beam="1">  1       21 0.21836622E-01 0.35688412E+03</pdfrwt>
<pdfrwt beam="2">  1       21 0.13786185E+00 0.35688412E+03</pdfrwt>
<totfact> 0.66245837E+03</totfact>
</mgrwt>
</event>
<event>
12    1  0.2762290E-001  0.2146813E+03  0.7546771E-02  0.1137915E+00
         21   -1    0    0  504  503  0.00000000000E+00  0.00000000000E+00  0.90638625518E+02  0.90638625518E+02  0.00000000000E+00 0.  1.
         21   -1    0    0  502  504 -0.00000000000E+00 -0.00000000000E+00 -0.81537314668E+03  0.81537314668E+03  0.00000000000E+00 0.  1.
          6    2    1    2  502    0 -0.10621280188E+03 -0.70890350825E+02 -0.64031831973E+03  0.67534852652E+03  0.17257311658E+03 0.  0.
         24    2    3    3    0    0  0.11782509444E+02 -0.31258941805E+02 -0.24131102605E+03  0.25735037762E+03  0.82959367134E+02 0.  0.
         -6    2    1    2    0  503  0.10621280188E+03  0.70890350825E+02 -0.84416201430E+02  0.23066324568E+03  0.17254807075E+03 0.  0.
        -24    2    5    5    0    0  0.35296003746E+02  0.69430302131E+02 -0.10818403300E+03  0.15570776677E+03  0.80465824443E+02 0.  0.
          2    1    4    4  501    0  0.80241738421E+01  0.20781910508E+02 -0.19888665226E+02  0.29863592796E+02  0.00000000000E+00 0. -1.
         -1    1    4    4    0  501  0.37583356024E+01 -0.52040852312E+02 -0.22142236082E+03  0.22748678482E+03  0.00000000000E+00 0.  1.
          5    1    3    3  502    0 -0.11799531133E+03 -0.39631409021E+02 -0.39900729368E+03  0.41799814890E+03  0.47000000000E+01 0. -1.
         11    1    6    6    0    0  0.33899659957E+02  0.22050644489E+02 -0.99652961768E+02  0.10754594672E+03  0.00000000000E+00 0. -1.
        -12    1    6    6    0    0  0.13963437889E+01  0.47379657642E+02 -0.85310712326E+01  0.48161820051E+02  0.00000000000E+00 0.  1.
         -5    1    5    5    0  503  0.70916798135E+02  0.14600486942E+01  0.23767831570E+02  0.74955478902E+02  0.47000000000E+01 0.  1.
<mgrwt>
<rscale>  2 0.21467632E+03</rscale>
<asrwt>0</asrwt>
<pdfrwt beam="1">  1       21 0.13944404E-01 0.21468135E+03</pdfrwt>
<pdfrwt beam="2">  1       21 0.12544203E+00 0.21468135E+03</pdfrwt>
<totfact> 0.20885983E+04</totfact>
</mgrwt>
</event>
<event>
12    1  0.2762290E-001  0.2769946E+03  0.7546771E-02  0.1097371E+00
         21   -1    0    0  504  503  0.00000000000E+00  0.00000000000E+00  0.25006853724E+03  0.25006853724E+03  0.00000000000E+00 0. -1.
         21   -1    0    0  502  504 -0.00000000000E+00 -0.00000000000E+00 -0.31012837633E+03  0.31012837633E+03  0.00000000000E+00 0. -1.
          6    2    1    2  502    0  0.10387952017E+03  0.19011376498E+03 -0.94226338883E-01  0.27678576402E+03  0.17226767525E+03 0.  0.
         24    2    3    3    0    0  0.77285075610E+02  0.39967661966E+02  0.23271582542E+02  0.12245116726E+03  0.82959778768E+02 0.  0.
         -6    2    1    2    0  503 -0.10387952017E+03 -0.19011376498E+03 -0.59965612754E+02  0.28341114955E+03  0.17260303193E+03 0.  0.
        -24    2    5    5    0    0 -0.13153853291E+03 -0.10199010677E+03 -0.38331293839E+02  0.18843255261E+03  0.79581224408E+02 0.  0.
          2    1    4    4  501    0  0.85842938620E+02  0.51978736525E+02  0.31977824233E+02  0.10532511763E+03  0.00000000000E+00 0. -1.
         -1    1    4    4    0  501 -0.85578630090E+01 -0.12011074559E+02 -0.87062416908E+01  0.17126049624E+02  0.00000000000E+00 0.  1.
          5    1    3    3  502    0  0.26594444557E+02  0.15014610302E+03 -0.23365808881E+02  0.15433459676E+03  0.47000000000E+01 0. -1.
         13    1    6    6    0    0 -0.18313867686E+02 -0.54386522598E+02 -0.31391422574E+02  0.65411872020E+02  0.00000000000E+00 0. -1.
        -14    1    6    6    0    0 -0.11322466522E+03 -0.47603584175E+02 -0.69398712649E+01  0.12302068059E+03  0.00000000000E+00 0.  1.
         -5    1    5    5    0  503  0.27659012737E+02 -0.88123658210E+02 -0.21634318915E+02  0.94978596941E+02  0.47000000000E+01 0.  1.
<mgrwt>
<rscale>  2 0.27694237E+03</rscale>
<asrwt>0</asrwt>
<pdfrwt beam="1">  1       21 0.38472083E-01 0.27699459E+03</pdfrwt>
<pdfrwt beam="2">  1       21 0.47712058E-01 0.27699459E+03</pdfrwt>
<totfact> 0.26261966E+04</totfact>
</mgrwt>
</event>
<event>
12    1  0.2762290E-001  0.2317340E+03  0.7546771E-02  0.1126593E+00
         21   -1    0    0  504  503  0.00000000000E+00  0.00000000000E+00  0.37220924009E+03  0.37220924009E+03  0.00000000000E+00 0. -1.
         21   -1    0    0  502  504 -0.00000000000E+00 -0.00000000000E+00 -0.14031737931E+03  0.14031737931E+03  0.00000000000E+00 0. -1.
          6    2    1    2  502    0 -0.13329390973E+03 -0.79579668575E+02  0.10671305069E+03  0.24914403221E+03  0.16304871535E+03 0.  0.
         24    2    3    3    0    0 -0.93694861545E+02  0.82949055118E+01  0.88831086560E+02  0.15100189025E+03  0.77865758720E+02 0.  0.
         -6    2    1    2    0  503  0.13329390973E+03  0.79579668575E+02  0.12517881010E+03  0.26338258719E+03  0.17204785007E+03 0.  0.
        -24    2    5    5    0    0  0.81182179595E+02  0.24818182239E+02  0.29475366249E+01  0.11958750028E+03  0.84178345188E+02 0.  0.
          2    1    4    4  501    0 -0.10061462091E+03 -0.11155458765E+02  0.77176213781E+02  0.12729459602E+03  0.00000000000E+00 0. -1.
         -1    1    4    4    0  501  0.69197593667E+01  0.19450364277E+02  0.11654872779E+02  0.23707294230E+02  0.00000000000E+00 0.  1.
          5    1    3    3  502    0 -0.39599048182E+02 -0.87874574087E+02  0.17881964125E+02  0.98142141961E+02  0.47000000000E+01 0. -1.
         13    1    6    6    0    0  0.26253546579E+02  0.47655182148E+02 -0.16743485883E+02  0.56926350780E+02  0.00000000000E+00 0. -1.
        -14    1    6    6    0    0  0.54928633015E+02 -0.22836999909E+02  0.19691022508E+02  0.62661149504E+02  0.00000000000E+00 0.  1.
         -5    1    5    5    0  503  0.52111730133E+02  0.54761486335E+02  0.12223127347E+03  0.14379508690E+03  0.47000000000E+01 0.  1.
<mgrwt>
<rscale>  2 0.23006595E+03</rscale>
<asrwt>0</asrwt>
<pdfrwt beam="1">  1       21 0.57262960E-01 0.23173401E+03</pdfrwt>
<pdfrwt beam="2">  1       21 0.21587289E-01 0.23173401E+03</pdfrwt>
<totfact> 0.56276900E+04</totfact>
</mgrwt>
</event>
<event>
12    1  0.2762290E-001  0.1821516E+03  0.7546771E-02  0.1167036E+00
         21   -1    0    0  504  503  0.00000000000E+00  0.00000000000E+00  0.10612551135E+04  0.10612551135E+04  0.00000000000E+00 0. -1.
         21   -1    0    0  502  504 -0.00000000000E+00 -0.00000000000E+00 -0.32730595067E+02  0.32730595067E+02  0.00000000000E+00 0. -1.
          6    2    1    2  502    0 -0.35672317373E+02 -0.71346725702E+01  0.37388312865E+03  0.41589399146E+03  0.17848193316E+03 0.  0.
         24    2    3    3    0    0  0.20844514840E+02  0.66010048444E+02  0.17857565872E+03  0.19976578797E+03  0.56791582650E+02 0.  0.
         -6    2    1    2    0  503  0.35672317373E+02  0.71346725702E+01  0.65464138980E+03  0.67809171713E+03  0.17300176245E+03 0.  0.
        -24    2    5    5    0    0  0.79645105093E+02 -0.20020830438E+02  0.54307553737E+03  0.55504677886E+03  0.80010693134E+02 0.  0.
          4    1    4    4  501    0  0.20009100786E+02 -0.28555841942E+01  0.32563122527E+02  0.38325910609E+02  0.00000000000E+00 0. -1.
         -3    1    4    4    0  501  0.83541405474E+00  0.68865632639E+02  0.14601253620E+03  0.16143987736E+03  0.00000000000E+00 0.  1.
          5    1    3    3  502    0 -0.56516832214E+02 -0.73144721015E+02  0.19530746992E+03  0.21612820349E+03  0.47000000000E+01 0. -1.
         13    1    6    6    0    0  0.48700409694E+02 -0.29184317317E+02  0.14582799223E+03  0.15649043932E+03  0.00000000000E+00 0. -1.
        -14    1    6    6    0    0  0.30944695399E+02  0.91634868789E+01  0.39724754514E+03  0.39855633954E+03  0.00000000000E+00 0.  1.
         -5    1    5    5    0  503 -0.43972787720E+02  0.27155503008E+02  0.11156585243E+03  0.12304493826E+03  0.47000000000E+01 0.  1.
<mgrwt>
<rscale>  2 0.18079496E+03</rscale>
<asrwt>0</asrwt>
<pdfrwt beam="1">  1       21 0.16326999E+00 0.18215164E+03</pdfrwt>
<pdfrwt beam="2">  1       21 0.50354770E-02 0.18215164E+03</pdfrwt>
<totfact> 0.63701584E+04</totfact>
</mgrwt>
</event>
<event>
12    1  0.2762290E-001  0.1987822E+03  0.7546771E-02  0.1150881E+00
         21   -1    0    0  504  503  0.00000000000E+00  0.00000000000E+00  0.19350225200E+03  0.19350225200E+03  0.00000000000E+00 0. -1.
         21   -1    0    0  502  504 -0.00000000000E+00 -0.00000000000E+00 -0.27750286402E+03  0.27750286402E+03  0.00000000000E+00 0. -1.
          6    2    1    2  502    0 -0.25199461046E+02 -0.92132617784E+02 -0.16343199643E+03  0.25694035619E+03  0.17373801278E+03 0.  0.
         24    2    3    3    0    0  0.55546263999E+01 -0.20998671524E+02 -0.41561405579E+01  0.79749102259E+02  0.76621457350E+02 0.  0.
         -6    2    1    2    0  503  0.25199461046E+02  0.92132617784E+02  0.79431384413E+02  0.21406475983E+03  0.17432998731E+03 0.  0.
        -24    2    5    5    0    0 -0.22181175558E+02  0.18135179459E+02  0.92026870872E+02  0.12517560479E+03  0.79869254347E+02 0.  0.
          2    1    4    4  501    0 -0.31277642274E+02  0.81001324039E+01  0.21825869188E+01  0.32383124260E+02  0.00000000000E+00 0. -1.
         -1    1    4    4    0  501  0.36832268674E+02 -0.29098803928E+02 -0.63387274767E+01  0.47365977998E+02  0.00000000000E+00 0.  1.
          5    1    3    3  502    0 -0.30754087445E+02 -0.71133946260E+02 -0.15927585587E+03  0.17719125393E+03  0.47000000000E+01 0. -1.
         11    1    6    6    0    0  0.24519391474E+02  0.24305202731E+02  0.56343666129E+02  0.66079892183E+02  0.00000000000E+00 0. -1.
        -12    1    6    6    0    0 -0.46700567032E+02 -0.61700232726E+01  0.35683204743E+02  0.59095712611E+02  0.00000000000E+00 0.  1.
         -5    1    5    5    0  503  0.47380636604E+02  0.73997438325E+02 -0.12595486460E+02  0.88889155035E+02  0.47000000000E+01 0.  1.
<mgrwt>
<rscale>  2 0.19865237E+03</rscale>
<asrwt>0</asrwt>
<pdfrwt beam="1">  1       21 0.29769577E-01 0.19878223E+03</pdfrwt>
<pdfrwt beam="2">  1       21 0.42692748E-01 0.19878223E+03</pdfrwt>
<totfact> 0.56924244E+04</totfact>
</mgrwt>
</event>
<event>
12    1  0.2762290E-001  0.1979822E+03  0.7546771E-02  0.1151473E+00
         21   -1    0    0  504  503  0.00000000000E+00  0.00000000000E+00  0.83035855993E+02  0.83035855993E+02  0.00000000000E+00 0.  1.
         21   -1    0    0  502  504 -0.00000000000E+00 -0.00000000000E+00 -0.86748043523E+03  0.86748043523E+03  0.00000000000E+00 0. -1.
          6    2    1    2  502    0  0.87943692690E+02 -0.38435403281E+02 -0.71313855448E+03  0.74008455615E+03  0.17305253267E+03 0.  0.
         24    2    3    3    0    0  0.11002175652E+03 -0.30797853052E+02 -0.69812138897E+03  0.71191758372E+03  0.79999235068E+02 0.  0.
         -6    2    1    2    0  503 -0.87943692690E+02  0.38435403281E+02 -0.71306024758E+02  0.21043173507E+03  0.17316348532E+03 0.  0.
        -24    2    5    5    0    0  0.16385598861E+02  0.81776352268E+01 -0.53553786704E+02  0.10026202254E+03  0.82759310808E+02 0.  0.
          4    1    4    4  501    0  0.10967862388E+03 -0.39564811409E+02 -0.69056318411E+03  0.70033726595E+03  0.00000000000E+00 0. -1.
         -3    1    4    4    0  501  0.34313264466E+00  0.87669583578E+01 -0.75582048643E+01  0.11580317769E+02  0.00000000000E+00 0.  1.
          5    1    3    3  502    0 -0.22078063832E+02 -0.76375502292E+01 -0.15017165507E+02  0.28166972431E+02  0.47000000000E+01 0. -1.
         11    1    6    6    0    0 -0.11663706168E+01 -0.30247186702E+02  0.21566767286E+01  0.30346399759E+02  0.00000000000E+00 0. -1.
        -12    1    6    6    0    0  0.17551969478E+02  0.38424821929E+02 -0.55710463432E+02  0.69915622780E+02  0.00000000000E+00 0.  1.
         -5    1    5    5    0  503 -0.10432929155E+03  0.30257768054E+02 -0.17752238054E+02  0.11016971253E+03  0.47000000000E+01 0.  1.
<mgrwt>
<rscale>  2 0.19795797E+03</rscale>
<asrwt>0</asrwt>
<pdfrwt beam="1">  1       21 0.12774748E-01 0.19798224E+03</pdfrwt>
<pdfrwt beam="2">  1       21 0.13345852E+00 0.19798224E+03</pdfrwt>
<totfact> 0.21143134E+04</totfact>
</mgrwt>
</event>
<event>
12    1  0.2762290E-001  0.1988865E+03  0.7546771E-02  0.1151790E+00
         21   -1    0    0  504  503  0.00000000000E+00  0.00000000000E+00  0.46984650481E+02  0.46984650481E+02  0.00000000000E+00 0. -1.
         21   -1    0    0  502  504 -0.00000000000E+00 -0.00000000000E+00 -0.11348604820E+04  0.11348604820E+04  0.00000000000E+00 0.  1.
          6    2    1    2  502    0 -0.74375514799E+02  0.46386695780E+02 -0.84989525116E+03  0.87169905698E+03  0.17278271109E+03 0.  0.
         24    2    3    3    0    0 -0.91884195462E+02 -0.53306826066E+01 -0.40567612341E+03  0.42411223346E+03  0.82625346705E+02 0.  0.
         -6    2    1    2    0  503  0.74375514799E+02 -0.46386695780E+02 -0.23798058035E+03  0.31014607549E+03  0.17852839766E+03 0.  0.
        -24    2    5    5    0    0 -0.16100706364E+02 -0.22664431221E+02 -0.36739330512E+02  0.88180260402E+02  0.75186905310E+02 0.  0.
          4    1    4    4  501    0 -0.33910604744E+02  0.35790923509E+02 -0.12015906316E+03  0.12988117562E+03  0.00000000000E+00 0. -1.
         -3    1    4    4    0  501 -0.57973590718E+02 -0.41121606116E+02 -0.28551706025E+03  0.29423105785E+03  0.00000000000E+00 0.  1.
          5    1    3    3  502    0  0.17508680662E+02  0.51717378387E+02 -0.44421912775E+03  0.44758682351E+03  0.47000000000E+01 0. -1.
         11    1    6    6    0    0  0.16031844532E+02 -0.27821197033E+02  0.77757236377E+01  0.33037871020E+02  0.00000000000E+00 0. -1.
        -12    1    6    6    0    0 -0.32132550897E+02  0.51567658119E+01 -0.44515054150E+02  0.55142389382E+02  0.00000000000E+00 0.  1.
         -5    1    5    5    0  503  0.90476221163E+02 -0.23722264559E+02 -0.20124124984E+03  0.22196581509E+03  0.47000000000E+01 0.  1.
<mgrwt>
<rscale>  2 0.19758858E+03</rscale>
<asrwt>0</asrwt>
<pdfrwt beam="1">  1       21 0.72284078E-02 0.19888648E+03</pdfrwt>
<pdfrwt beam="2">  1       21 0.17459392E+00 0.19888648E+03</pdfrwt>
<totfact> 0.28243686E+04</totfact>
</mgrwt>
</event>
<event>
12    1  0.2762290E-001  0.1877970E+03  0.7546771E-02  0.1161022E+00
         21   -1    0    0  504  503  0.00000000000E+00  0.00000000000E+00  0.11601550322E+03  0.11601550322E+03  0.00000000000E+00 0. -1.
         21   -1    0    0  502  504 -0.00000000000E+00 -0.00000000000E+00 -0.30061381696E+03  0.30061381696E+03  0.00000000000E+00 0. -1.
          6    2    1    2  502    0  0.63550005182E+02 -0.21322333436E+02 -0.10165537637E+03  0.21354510918E+03  0.17542648901E+03 0.  0.
         24    2    3    3    0    0 -0.12487831233E+02 -0.41587333181E+02 -0.98532567805E+02  0.13465109981E+03  0.80850476504E+02 0.  0.
         -6    2    1    2    0  503 -0.63550005182E+02  0.21322333436E+02 -0.82942937364E+02  0.20308421100E+03  0.17283061314E+03 0.  0.
        -24    2    5    5    0    0 -0.75807580756E+02  0.71347018222E+02 -0.48133232068E+02  0.14074222812E+03  0.81574385915E+02 0.  0.
          4    1    4    4  501    0  0.11123159606E+02 -0.49592826131E+02 -0.97197953874E+02  0.10968416167E+03  0.00000000000E+00 0. -1.
         -3    1    4    4    0  501 -0.23610990839E+02  0.80054929499E+01 -0.13346139314E+01  0.24966938140E+02  0.00000000000E+00 0.  1.
          5    1    3    3  502    0  0.76037836415E+02  0.20264999745E+02 -0.31228085671E+01  0.78894009371E+02  0.47000000000E+01 0. -1.
         11    1    6    6    0    0 -0.70364736453E+02  0.43021082825E+02  0.24525493672E+01  0.82510755068E+02  0.00000000000E+00 0. -1.
        -12    1    6    6    0    0 -0.54428443027E+01  0.28325935397E+02 -0.50585781435E+02  0.58231473051E+02  0.00000000000E+00 0.  1.
         -5    1    5    5    0  503  0.12257575574E+02 -0.50024684786E+02 -0.34809705296E+02  0.62341982882E+02  0.47000000000E+01 0.  1.
<mgrwt>
<rscale>  2 0.18718837E+03</rscale>
<asrwt>0</asrwt>
<pdfrwt beam="1">  1       21 0.17848539E-01 0.18779696E+03</pdfrwt>
<pdfrwt beam="2">  1       21 0.46248279E-01 0.18779696E+03</pdfrwt>
<totfact> 0.12795199E+05</totfact>
</mgrwt>
</event>
<event>
12    1  0.2762290E-001  0.1788381E+03  0.7546771E-02  0.1169076E+00
         21   -1    0    0  504  503  0.00000000000E+00  0.00000000000E+00  0.86591398521E+02  0.86591398521E+02  0.00000000000E+00 0.  1.
         21   -1    0    0  502  504 -0.00000000000E+00 -0.00000000000E+00 -0.47758923332E+03  0.47758923332E+03  0.00000000000E+00 0.  1.
          6    2    1    2  502    0 -0.31103669490E+02 -0.34425570672E+02 -0.33078933650E+03  0.37603810668E+03  0.17271512488E+03 0.  0.
         24    2    3    3    0    0  0.62974366310E+01  0.40975998013E+02 -0.20061276760E+03  0.22095016908E+03  0.82793747172E+02 0.  0.
         -6    2    1    2    0  503  0.31103669490E+02  0.34425570672E+02 -0.60208498300E+02  0.18814252516E+03  0.17210458545E+03 0.  0.
        -24    2    5    5    0    0  0.64510057766E+01 -0.97043219289E+01 -0.94820717492E+02  0.12669907989E+03  0.83221986518E+02 0.  0.
          4    1    4    4  501    0 -0.17607278817E+02  0.45522563250E+02 -0.55917945726E+02  0.74223558837E+02  0.00000000000E+00 0. -1.
         -3    1    4    4    0  501  0.23904715448E+02 -0.45465652368E+01 -0.14469482187E+03  0.14672661024E+03  0.00000000000E+00 0.  1.
          5    1    3    3  502    0 -0.37401106121E+02 -0.75401568685E+02 -0.13017656890E+03  0.15508793760E+03  0.47000000000E+01 0. -1.
         11    1    6    6    0    0 -0.13825355550E+02  0.74070520551E+01  0.99810836847E+01  0.18591043751E+02  0.00000000000E+00 0. -1.
        -12    1    6    6    0    0  0.20276361327E+02 -0.17111373984E+02 -0.10480180118E+03  0.10810803614E+03  0.00000000000E+00 0.  1.
         -5    1    5    5    0  503  0.24652663713E+02  0.44129892601E+02  0.34612219192E+02  0.61443445269E+02  0.47000000000E+01 0.  1.
<mgrwt>
<rscale>  2 0.17869054E+03</rscale>
<asrwt>0</asrwt>
<pdfrwt beam="1">  1       21 0.13321754E-01 0.17883812E+03</pdfrwt>
<pdfrwt beam="2">  1       21 0.73475266E-01 0.17883812E+03</pdfrwt>
<totfact> 0.81423508E+04</totfact>
</mgrwt>
</event>
<event>
12    1  0.2762290E-001  0.2285764E+03  0.7546771E-02  0.1127834E+00
         21   -1    0    0  504  503  0.00000000000E+00  0.00000000000E+00  0.14497877395E+03  0.14497877395E+03  0.00000000000E+00 0.  1.
         21   -1    0    0  502  504 -0.00000000000E+00 -0.00000000000E+00 -0.36871768207E+03  0.36871768207E+03  0.00000000000E+00 0.  1.
          6    2    1    2  502    0 -0.14976874758E+03  0.27785173356E+01 -0.15444150728E+03  0.27586108240E+03  0.17265213495E+03 0.  0.
         24    2    3    3    0    0 -0.23377938724E+01 -0.91663206182E+01 -0.63189961525E+02  0.10200050646E+03  0.79508775407E+02 0.  0.
         -6    2    1    2    0  503  0.14976874758E+03 -0.27785173356E+01 -0.69297400834E+02  0.23783537362E+03  0.17124583870E+03 0.  0.
        -24    2    5    5    0    0  0.39658496502E+01 -0.10507937956E+02 -0.10959936283E+02  0.80534455763E+02  0.78990718684E+02 0.  0.
          2    1    4    4  501    0  0.35415220201E+02 -0.13090673902E+02 -0.48112878198E+02  0.61159239806E+02  0.00000000000E+00 0. -1.
         -1    1    4    4    0  501 -0.37753014073E+02  0.39243532834E+01 -0.15077083326E+02  0.40841266655E+02  0.00000000000E+00 0.  1.
          5    1    3    3  502    0 -0.14743095371E+03  0.11944837954E+02 -0.91251545755E+02  0.17386057594E+03  0.47000000000E+01 0. -1.
         11    1    6    6    0    0  0.17748565888E+02  0.15428731327E+02  0.24854199168E+02  0.34216787660E+02  0.00000000000E+00 0. -1.
        -12    1    6    6    0    0 -0.13782716238E+02 -0.25936669283E+02 -0.35814135451E+02  0.46317668103E+02  0.00000000000E+00 0.  1.
         -5    1    5    5    0  503  0.14580289793E+03  0.77294206201E+01 -0.58337464551E+02  0.15730091785E+03  0.47000000000E+01 0.  1.
<mgrwt>
<rscale>  2 0.22831082E+03</rscale>
<asrwt>0</asrwt>
<pdfrwt beam="1">  1       21 0.22304427E-01 0.22857637E+03</pdfrwt>
<pdfrwt beam="2">  1       21 0.56725796E-01 0.22857637E+03</pdfrwt>
<totfact> 0.54050193E+04</totfact>
</mgrwt>
</event>
<event>
12    1  0.2762290E-001  0.1885972E+03  0.7546771E-02  0.1162551E+00
         21   -1    0    0  504  503  0.00000000000E+00  0.00000000000E+00  0.23542015868E+03  0.23542015868E+03  0.00000000000E+00 0.  1.
         21   -1    0    0  502  504 -0.00000000000E+00 -0.00000000000E+00 -0.18718302920E+03  0.18718302920E+03  0.00000000000E+00 0.  1.
          6    2    1    2  502    0  0.31151381391E+02 -0.15207867889E+02 -0.80635732923E+02  0.19418004316E+03  0.17321108489E+03 0.  0.
         24    2    3    3    0    0  0.52469217012E+02 -0.42155113011E+02  0.35286107087E+01  0.10315075735E+03  0.78086845003E+02 0.  0.
         -6    2    1    2    0  503 -0.31151381391E+02  0.15207867889E+02  0.12887286240E+03  0.22842314472E+03  0.18538400840E+03 0.  0.
        -24    2    5    5    0    0 -0.28435094560E+02 -0.64891742516E+02  0.61413446750E+02  0.12356043179E+03  0.80474070445E+02 0.  0.
          2    1    4    4  501    0  0.57116304186E+02 -0.38847526170E+02 -0.25451159769E+02  0.73614971487E+02  0.00000000000E+00 0. -1.
         -1    1    4    4    0  501 -0.46470871745E+01 -0.33075868417E+01  0.28979770477E+02  0.29535785868E+02  0.00000000000E+00 0.  1.
          5    1    3    3  502    0 -0.21317835621E+02  0.26947245123E+02 -0.84164343631E+02  0.91029285805E+02  0.47000000000E+01 0. -1.
         13    1    6    6    0    0 -0.43618002809E+02 -0.18323176675E+02  0.57444609743E+02  0.74418762158E+02  0.00000000000E+00 0. -1.
        -14    1    6    6    0    0  0.15182908250E+02 -0.46568565841E+02  0.39688370063E+01  0.49141669636E+02  0.00000000000E+00 0.  1.
         -5    1    5    5    0  503 -0.27162868310E+01  0.80099610405E+02  0.67459415654E+02  0.10486271292E+03  0.47000000000E+01 0.  1.
<mgrwt>
<rscale>  2 0.18553565E+03</rscale>
<asrwt>0</asrwt>
<pdfrwt beam="1">  1       21 0.36218486E-01 0.18859724E+03</pdfrwt>
<pdfrwt beam="2">  1       21 0.28797389E-01 0.18859724E+03</pdfrwt>
<totfact> 0.84963814E+04</totfact>
</mgrwt>
</event>
<event>
12    1  0.2762290E-001  0.2262734E+03  0.7546771E-02  0.1129495E+00
         21   -1    0    0  504  503  0.00000000000E+00  0.00000000000E+00  0.53557885841E+03  0.53557885841E+03  0.00000000000E+00 0. -1.
         21   -1    0    0  502  504 -0.00000000000E+00 -0.00000000000E+00 -0.10727508706E+03  0.10727508706E+03  0.00000000000E+00 0.  1.
          6    2    1    2  502    0  0.13724327101E+03 -0.42587556902E+02  0.10547245839E+03  0.24862086852E+03  0.17331613124E+03 0.  0.
         24    2    3    3    0    0  0.11212041179E+03 -0.52073506613E+02  0.86215052064E+01  0.14800606629E+03  0.80924832255E+02 0.  0.
         -6    2    1    2    0  503 -0.13724327101E+03  0.42587556902E+02  0.32283131296E+03  0.39423307695E+03  0.17478628920E+03 0.  0.
        -24    2    5    5    0    0 -0.86712586989E+02  0.89033733205E+02  0.16431579728E+03  0.22143303055E+03  0.81159271777E+02 0.  0.
          2    1    4    4  501    0  0.25739160136E+02 -0.55629387772E+02  0.41694189669E+01  0.61437099564E+02  0.00000000000E+00 0. -1.
         -1    1    4    4    0  501  0.86381251650E+02  0.35558811587E+01  0.44520862395E+01  0.86568966722E+02  0.00000000000E+00 0.  1.
          5    1    3    3  502    0  0.25122859223E+02  0.94859497113E+01  0.96850953179E+02  0.10061480224E+03  0.47000000000E+01 0. -1.
         13    1    6    6    0    0 -0.96497220976E+02  0.55467097112E+02  0.10762327761E+03  0.15482597457E+03  0.00000000000E+00 0. -1.
        -14    1    6    6    0    0  0.97846339866E+01  0.33566636094E+02  0.56692519665E+02  0.66607055984E+02  0.00000000000E+00 0.  1.
         -5    1    5    5    0  503 -0.50530684020E+02 -0.46446176304E+02  0.15851551569E+03  0.17280004639E+03  0.47000000000E+01 0.  1.
<mgrwt>
<rscale>  2 0.22598947E+03</rscale>
<asrwt>0</asrwt>
<pdfrwt beam="1">  1       21 0.82396746E-01 0.22627342E+03</pdfrwt>
<pdfrwt beam="2">  1       21 0.16503860E-01 0.22627342E+03</pdfrwt>
<totfact> 0.41667035E+04</totfact>
</mgrwt>
</event>
<event>
12    1  0.2762290E-001  0.1773691E+03  0.7546771E-02  0.1170460E+00
         21   -1    0    0  504  503  0.00000000000E+00  0.00000000000E+00  0.38987459348E+03  0.38987459348E+03  0.00000000000E+00 0. -1.
         21   -1    0    0  502  504 -0.00000000000E+00 -0.00000000000E+00 -0.89735483229E+02  0.89735483229E+02  0.00000000000E+00 0. -1.
          6    2    1    2  502    0 -0.10885578324E+01 -0.42944608966E+02  0.73146329243E+02  0.19153799213E+03  0.17172941668E+03 0.  0.
         24    2    3    3    0    0 -0.53005285701E+02  0.74453855914E+01  0.14270877204E+02  0.98141487720E+02  0.81012959438E+02 0.  0.
         -6    2    1    2    0  503  0.10885578324E+01  0.42944608966E+02  0.22699278101E+03  0.28807208458E+03  0.17208828805E+03 0.  0.
        -24    2    5    5    0    0  0.35781818999E+02  0.34999717020E+02  0.54168417988E+02  0.11155836236E+03  0.83700250548E+02 0.  0.
          4    1    4    4  501    0 -0.12181989547E+02 -0.32090551142E+02 -0.10861404495E+02  0.36002422828E+02  0.00000000000E+00 0. -1.
         -3    1    4    4    0  501 -0.40823296154E+02  0.39535936733E+02  0.25132281699E+02  0.62139064892E+02  0.00000000000E+00 0.  1.
          5    1    3    3  502    0  0.51916727869E+02 -0.50389994557E+02  0.58875452039E+02  0.93396504414E+02  0.47000000000E+01 0. -1.
         11    1    6    6    0    0  0.42409140981E+02  0.13372354450E+02  0.70713743856E+02  0.83533159119E+02  0.00000000000E+00 0. -1.
        -12    1    6    6    0    0 -0.66273219822E+01  0.21627362570E+02 -0.16545325868E+02  0.28025203237E+02  0.00000000000E+00 0.  1.
         -5    1    5    5    0  503 -0.34693261166E+02  0.79448919454E+01  0.17282436302E+03  0.17651372222E+03  0.47000000000E+01 0.  1.
<mgrwt>
<rscale>  2 0.17728201E+03</rscale>
<asrwt>0</asrwt>
<pdfrwt beam="1">  1       21 0.59980706E-01 0.17736912E+03</pdfrwt>
<pdfrwt beam="2">  1       21 0.13805459E-01 0.17736912E+03</pdfrwt>
<totfact> 0.11890836E+05</totfact>
</mgrwt>
</event>
<event>
12    1  0.2762290E-001  0.1896399E+03  0.7546771E-02  0.1158801E+00
         21   -1    0    0  504  503  0.00000000000E+00  0.00000000000E+00  0.34413623309E+02  0.34413623309E+02  0.00000000000E+00 0. -1.
         21   -1    0    0  502  504 -0.00000000000E+00 -0.00000000000E+00 -0.11100646636E+04  0.11100646636E+04  0.00000000000E+00 0.  1.
          6    2    1    2  502    0  0.59057814685E+02  0.48847719930E+02 -0.39885759034E+03  0.44161793127E+03  0.17339289093E+03 0.  0.
         24    2    3    3    0    0  0.94252515195E+02  0.50185758739E+02 -0.37731670333E+03  0.40006607084E+03  0.79264237981E+02 0.  0.
         -6    2    1    2    0  503 -0.59057814685E+02 -0.48847719930E+02 -0.67679344990E+03  0.70286035560E+03  0.17346290792E+03 0.  0.
        -24    2    5    5    0    0 -0.52715457469E+02 -0.90267563780E+02 -0.60677553653E+03  0.62112647552E+03  0.81819278499E+02 0.  0.
          2    1    4    4  501    0  0.53729798881E+02  0.68677088547E+02 -0.27446754623E+03  0.28798588110E+03  0.00000000000E+00 0. -1.
         -1    1    4    4    0  501  0.40522716314E+02 -0.18491329808E+02 -0.10284915710E+03  0.11208018974E+03  0.00000000000E+00 0.  1.
          5    1    3    3  502    0 -0.35194700510E+02 -0.13380388086E+01 -0.21540887015E+02  0.41551860430E+02  0.47000000000E+01 0. -1.
         13    1    6    6    0    0 -0.52897929293E+02 -0.27792459682E+02 -0.17654204534E+03  0.18638053952E+03  0.00000000000E+00 0. -1.
        -14    1    6    6    0    0  0.18247182386E+00 -0.62475104097E+02 -0.43023349119E+03  0.43474593600E+03  0.00000000000E+00 0.  1.
         -5    1    5    5    0  503 -0.63423572165E+01  0.41419843849E+02 -0.70017913374E+02  0.81733880079E+02  0.47000000000E+01 0.  1.
<mgrwt>
<rscale>  2 0.18962392E+03</rscale>
<asrwt>0</asrwt>
<pdfrwt beam="1">  1       21 0.52944036E-02 0.18963994E+03</pdfrwt>
<pdfrwt beam="2">  1       21 0.17077918E+00 0.18963994E+03</pdfrwt>
<totfact> 0.51523916E+04</totfact>
</mgrwt>
</event>
<event>
12    1  0.2762290E-001  0.2050468E+03  0.7546771E-02  0.1145634E+00
         21   -1    0    0  504  503  0.00000000000E+00  0.00000000000E+00  0.43924751994E+03  0.43924751994E+03  0.00000000000E+00 0.  1.
         21   -1    0    0  502  504 -0.00000000000E+00 -0.00000000000E+00 -0.45106687547E+03  0.45106687547E+03  0.00000000000E+00 0.  1.
          6    2    1    2  502    0 -0.10867268447E+03  0.15736508726E+02 -0.40112977271E+03  0.45049891703E+03  0.17316694151E+03 0.  0.
         24    2    3    3    0    0 -0.93937479701E+02 -0.84446358065E+00 -0.12579233184E+03  0.17422939057E+03  0.75546056010E+02 0.  0.
         -6    2    1    2    0  503  0.10867268447E+03 -0.15736508726E+02  0.38931041718E+03  0.43981547838E+03  0.17267791995E+03 0.  0.
        -24    2    5    5    0    0  0.96290803041E+02 -0.12125214485E+02  0.13458417518E+03  0.18471961248E+03  0.81175707260E+02 0.  0.
          4    1    4    4  501    0 -0.16155409997E+02 -0.32035738038E+02 -0.28498560889E+02  0.45819796558E+02  0.00000000000E+00 0. -1.
         -3    1    4    4    0  501 -0.77782069703E+02  0.31191274457E+02 -0.97293770952E+02  0.12840959402E+03  0.00000000000E+00 0.  1.
          5    1    3    3  502    0 -0.14735204768E+02  0.16580972307E+02 -0.27533744087E+03  0.27626952645E+03  0.47000000000E+01 0. -1.
         11    1    6    6    0    0 -0.82297519633E+01 -0.17024848373E+02  0.37427358066E+02  0.41933058692E+02  0.00000000000E+00 0. -1.
        -12    1    6    6    0    0  0.10452055500E+03  0.48996338880E+01  0.97156817112E+02  0.14278655379E+03  0.00000000000E+00 0.  1.
         -5    1    5    5    0  503  0.12381881427E+02 -0.36112942406E+01  0.25472624201E+03  0.25509586590E+03  0.47000000000E+01 0.  1.
<mgrwt>
<rscale>  2 0.20494349E+03</rscale>
<asrwt>0</asrwt>
<pdfrwt beam="1">  1       21 0.67576542E-01 0.20504677E+03</pdfrwt>
<pdfrwt beam="2">  1       21 0.69394904E-01 0.20504677E+03</pdfrwt>
<totfact> 0.37434732E+03</totfact>
</mgrwt>
</event>
<event>
12    1  0.2762290E-001  0.2636086E+03  0.7546771E-02  0.1105087E+00
         21   -1    0    0  504  503  0.00000000000E+00  0.00000000000E+00  0.96076332074E+03  0.96076332074E+03  0.00000000000E+00 0. -1.
         21   -1    0    0  502  504 -0.00000000000E+00 -0.00000000000E+00 -0.11676126929E+03  0.11676126929E+03  0.00000000000E+00 0.  1.
          6    2    1    2  502    0  0.10085643824E+03 -0.16967021463E+03  0.88694375917E+02  0.27753761172E+03  0.17378271125E+03 0.  0.
         24    2    3    3    0    0  0.41820331041E+02 -0.13325474476E+03 -0.28998971355E+01  0.16254652834E+03  0.83109550501E+02 0.  0.
         -6    2    1    2    0  503 -0.10085643824E+03  0.16967021463E+03  0.75530767553E+03  0.79998697831E+03  0.17472686651E+03 0.  0.
        -24    2    5    5    0    0 -0.86549185114E+02  0.19434983023E+03  0.71526148012E+03  0.75059498822E+03  0.80816046974E+02 0.  0.
          4    1    4    4  501    0  0.51367156900E+02 -0.38288416319E+02 -0.16448154932E+02  0.66144761189E+02  0.00000000000E+00 0. -1.
         -3    1    4    4    0  501 -0.95468258589E+01 -0.94966328439E+02  0.13548257797E+02  0.96401767154E+02  0.00000000000E+00 0.  1.
          5    1    3    3  502    0  0.59036107195E+02 -0.36415469875E+02  0.91594273052E+02  0.11499108337E+03  0.47000000000E+01 0. -1.
         11    1    6    6    0    0  0.17735516481E+00  0.60631305733E+02  0.12112888437E+03  0.13545624134E+03  0.00000000000E+00 0. -1.
        -12    1    6    6    0    0 -0.86726540279E+02  0.13371852449E+03  0.59413259575E+03  0.61513874688E+03  0.00000000000E+00 0.  1.
         -5    1    5    5    0  503 -0.14307253121E+02 -0.24679615595E+02  0.40046195413E+02  0.49391990088E+02  0.47000000000E+01 0.  1.
<mgrwt>
<rscale>  2 0.26345222E+03</rscale>
<asrwt>0</asrwt>
<pdfrwt beam="1">  1       21 0.14780974E+00 0.26360857E+03</pdfrwt>
<pdfrwt beam="2">  1       21 0.17963273E-01 0.26360857E+03</pdfrwt>
<totfact> 0.83431877E+03</totfact>
</mgrwt>
</event>
<event>
12    1  0.2762290E-001  0.1782910E+03  0.7546771E-02  0.1169735E+00
         21   -1    0    0  504  503  0.00000000000E+00  0.00000000000E+00  0.32648397270E+02  0.32648397270E+02  0.00000000000E+00 0. -1.
         21   -1    0    0  502  504 -0.00000000000E+00 -0.00000000000E+00 -0.10670937854E+04  0.10670937854E+04  0.00000000000E+00 0. -1.
          6    2    1    2  502    0 -0.13573612526E+02  0.40255626504E+02 -0.68360496171E+03  0.70619841718E+03  0.17203401503E+03 0.  0.
         24    2    3    3    0    0 -0.23574554928E+02  0.63782865314E+02 -0.66682147238E+03  0.67525774283E+03  0.81842102118E+02 0.  0.
         -6    2    1    2    0  503  0.13573612526E+02 -0.40255626504E+02 -0.35084042640E+03  0.39354376547E+03  0.17315580303E+03 0.  0.
        -24    2    5    5    0    0 -0.24160003548E+02 -0.45878846645E+02 -0.34102493885E+03  0.35387160669E+03  0.78984370352E+02 0.  0.
          2    1    4    4  501    0 -0.48311527570E+02  0.65393512548E+02 -0.53187686669E+03  0.53805512404E+03  0.00000000000E+00 0. -1.
         -1    1    4    4    0  501  0.24736972642E+02 -0.16106472340E+01 -0.13494460569E+03  0.13720261879E+03  0.00000000000E+00 0.  1.
          5    1    3    3  502    0  0.10000942403E+02 -0.23527238810E+02 -0.16783489335E+02  0.30940674350E+02  0.47000000000E+01 0. -1.
         11    1    6    6    0    0  0.27413658901E+02 -0.22743227967E+02 -0.95566795133E+02  0.10198909473E+03  0.00000000000E+00 0. -1.
        -12    1    6    6    0    0 -0.51573662450E+02 -0.23135618678E+02 -0.24545814372E+03  0.25188251195E+03  0.00000000000E+00 0.  1.
         -5    1    5    5    0  503  0.37733616074E+02  0.56232201414E+01 -0.98154875466E+01  0.39672158783E+02  0.47000000000E+01 0.  1.
<mgrwt>
<rscale>  2 0.17801808E+03</rscale>
<asrwt>0</asrwt>
<pdfrwt beam="1">  1       21 0.50228302E-02 0.17829103E+03</pdfrwt>
<pdfrwt beam="2">  1       21 0.16416828E+00 0.17829103E+03</pdfrwt>
<totfact> 0.63167758E+04</totfact>
</mgrwt>
</event>
<event>
12    1  0.2762290E-001  0.1804045E+03  0.7546771E-02  0.1167494E+00
         21   -1    0    0  504  503  0.00000000000E+00  0.00000000000E+00  0.12439055170E+03  0.12439055170E+03  0.00000000000E+00 0. -1.
         21   -1    0    0  502  504 -0.00000000000E+00 -0.00000000000E+00 -0.88734134947E+03  0.88734134947E+03  0.00000000000E+00 0. -1.
          6    2    1    2  502    0 -0.33764156233E+02  0.37487985220E+02 -0.80653683029E+03  0.82646685350E+03  0.17320633368E+03 0.  0.
         24    2    3    3    0    0 -0.19558841165E+00  0.85745526475E+02 -0.44152216558E+03  0.45671905501E+03  0.79360814894E+02 0.  0.
         -6    2    1    2    0  503  0.33764156233E+02 -0.37487985220E+02  0.43586032522E+02  0.18526504768E+03  0.17285262040E+03 0.  0.
        -24    2    5    5    0    0 -0.48664071789E+02 -0.26840671669E+02  0.23933968886E+02  0.99731009628E+02  0.79276893708E+02 0.  0.
          2    1    4    4  501    0 -0.36366377060E+02  0.33333598954E+02 -0.13704371301E+03  0.14565239948E+03  0.00000000000E+00 0. -1.
         -1    1    4    4    0  501  0.36170788648E+02  0.52411927521E+02 -0.30447845257E+03  0.31106665552E+03  0.00000000000E+00 0.  1.
          5    1    3    3  502    0 -0.33568567821E+02 -0.48257541255E+02 -0.36501466471E+03  0.36974779849E+03  0.47000000000E+01 0. -1.
         13    1    6    6    0    0 -0.20180174629E+02 -0.36189451304E+02  0.46444553291E+02  0.62241564602E+02  0.00000000000E+00 0. -1.
        -14    1    6    6    0    0 -0.28483897160E+02  0.93487796353E+01 -0.22510584404E+02  0.37489445025E+02  0.00000000000E+00 0.  1.
         -5    1    5    5    0  503  0.82428228021E+02 -0.10647313551E+02  0.19652063636E+02  0.85534038053E+02  0.47000000000E+01 0.  1.
<mgrwt>
<rscale>  2 0.18031960E+03</rscale>
<asrwt>0</asrwt>
<pdfrwt beam="1">  1       21 0.19137008E-01 0.18040455E+03</pdfrwt>
<pdfrwt beam="2">  1       21 0.13651405E+00 0.18040455E+03</pdfrwt>
<totfact> 0.96578049E+03</totfact>
</mgrwt>
</event>
<event>
12    1  0.2762290E-001  0.3322667E+03  0.7546771E-02  0.1070191E+00
         21   -1    0    0  504  503  0.00000000000E+00  0.00000000000E+00  0.32029610542E+03  0.32029610542E+03  0.00000000000E+00 0.  1.
         21   -1    0    0  502  504 -0.00000000000E+00 -0.00000000000E+00 -0.85571058581E+03  0.85571058581E+03  0.00000000000E+00 0. -1.
          6    2    1    2  502    0  0.13059797990E+03  0.25122069059E+03 -0.72225028805E+03  0.79481281350E+03  0.17295739990E+03 0.  0.
         24    2    3    3    0    0 -0.16368728063E+01  0.12498204382E+03 -0.34665425825E+03  0.37706082989E+03  0.79890575435E+02 0.  0.
         -6    2    1    2    0  503 -0.13059797990E+03 -0.25122069059E+03  0.18683580766E+03  0.38119387772E+03  0.17387778941E+03 0.  0.
        -24    2    5    5    0    0 -0.28810153680E+02 -0.60881353397E+02  0.17043959988E+02  0.10652828762E+03  0.80754042277E+02 0.  0.
          2    1    4    4  501    0 -0.31516964445E+02  0.64690138034E+02 -0.24341119300E+03  0.25382502218E+03  0.00000000000E+00 0. -1.
         -1    1    4    4    0  501  0.29880091639E+02  0.60291905786E+02 -0.10324306525E+03  0.12323580771E+03  0.00000000000E+00 0.  1.
          5    1    3    3  502    0  0.13223485271E+03  0.12623864677E+03 -0.37559602980E+03  0.41775198361E+03  0.47000000000E+01 0. -1.
         11    1    6    6    0    0 -0.20000604083E+02 -0.19872373956E+02  0.47122826825E+02  0.54913534018E+02  0.00000000000E+00 0. -1.
        -12    1    6    6    0    0 -0.88095495968E+01 -0.41008979441E+02 -0.30078866837E+02  0.51614753599E+02  0.00000000000E+00 0.  1.
         -5    1    5    5    0  503 -0.10178782622E+03 -0.19033933720E+03  0.16979184768E+03  0.27466559011E+03  0.47000000000E+01 0.  1.
<mgrwt>
<rscale>  2 0.33214644E+03</rscale>
<asrwt>0</asrwt>
<pdfrwt beam="1">  1       21 0.49276324E-01 0.33226669E+03</pdfrwt>
<pdfrwt beam="2">  1       21 0.13164778E+00 0.33226669E+03</pdfrwt>
<totfact> 0.14835651E+03</totfact>
</mgrwt>
</event>
<event>
12    1  0.2762290E-001  0.2924434E+03  0.7546771E-02  0.1089284E+00
         21   -1    0    0  504  503  0.00000000000E+00  0.00000000000E+00  0.51873344362E+03  0.51873344362E+03  0.00000000000E+00 0.  1.
         21   -1    0    0  502  504 -0.00000000000E+00 -0.00000000000E+00 -0.16731899007E+03  0.16731899007E+03  0.00000000000E+00 0. -1.
          6    2    1    2  502    0 -0.10561445440E+03  0.20939065977E+03  0.12775321720E+03  0.31913014678E+03  0.17471206225E+03 0.  0.
         24    2    3    3    0    0 -0.16913526668E+02  0.10708729936E+03  0.57281672068E+01  0.13679519412E+03  0.83224732902E+02 0.  0.
         -6    2    1    2    0  503  0.10561445440E+03 -0.20939065977E+03  0.22366123635E+03  0.36692228691E+03  0.17207194601E+03 0.  0.
        -24    2    5    5    0    0  0.12105756964E+03 -0.12088436796E+03  0.98667991133E+02  0.21291821278E+03  0.79566495918E+02 0.  0.
          4    1    4    4  501    0 -0.14523749322E+02  0.51158014941E+02 -0.38332629959E+02  0.65555108929E+02  0.00000000000E+00 0. -1.
         -3    1    4    4    0  501 -0.23897773454E+01  0.55929284415E+02  0.44060797166E+02  0.71240085190E+02  0.00000000000E+00 0.  1.
          5    1    3    3  502    0 -0.88700927737E+02  0.10230336042E+03  0.12202504999E+03  0.18233495266E+03  0.47000000000E+01 0. -1.
         13    1    6    6    0    0  0.10148108614E+02 -0.38791938513E+02 -0.48904800243E+01  0.40394497111E+02  0.00000000000E+00 0. -1.
        -14    1    6    6    0    0  0.11090946103E+03 -0.82092429445E+02  0.10355847116E+03  0.17252371566E+03  0.00000000000E+00 0.  1.
         -5    1    5    5    0  503 -0.15443115238E+02 -0.88506291816E+02  0.12499324522E+03  0.15400407414E+03  0.47000000000E+01 0.  1.
<mgrwt>
<rscale>  2 0.29205026E+03</rscale>
<asrwt>0</asrwt>
<pdfrwt beam="1">  1       21 0.79805144E-01 0.29244344E+03</pdfrwt>
<pdfrwt beam="2">  1       21 0.25741383E-01 0.29244344E+03</pdfrwt>
<totfact> 0.18820583E+04</totfact>
</mgrwt>
</event>
<event>
12    1  0.2762290E-001  0.2877973E+03  0.7546771E-02  0.1091937E+00
         21   -1    0    0  504  503  0.00000000000E+00  0.00000000000E+00  0.35775102222E+03  0.35775102222E+03  0.00000000000E+00 0. -1.
         21   -1    0    0  502  504 -0.00000000000E+00 -0.00000000000E+00 -0.93511843474E+03  0.93511843474E+03  0.00000000000E+00 0. -1.
          6    2    1    2  502    0 -0.21564414414E+03 -0.70959463117E+02 -0.85085211773E+03  0.89820743512E+03  0.17688874452E+03 0.  0.
         24    2    3    3    0    0 -0.23049816591E+03 -0.57772451929E+02 -0.68462663712E+03  0.73073343823E+03  0.93758545248E+02 0.  0.
         -6    2    1    2    0  503  0.21564414414E+03  0.70959463117E+02  0.27348470522E+03  0.39466202185E+03  0.17154178846E+03 0.  0.
        -24    2    5    5    0    0  0.22608816107E+03  0.48316368292E+02  0.28114266228E+03  0.36815689896E+03  0.55208492833E+02 0.  0.
          4    1    4    4  501    0 -0.20782814579E+03 -0.70927060646E+02 -0.65665495153E+03  0.69240083152E+03  0.00000000000E+00 0. -1.
         -3    1    4    4    0  501 -0.22670020124E+02  0.13154608717E+02 -0.27971685582E+02  0.38332606711E+02  0.00000000000E+00 0.  1.
          5    1    3    3  502    0  0.14854021770E+02 -0.13187011188E+02 -0.16622548062E+03  0.16747399689E+03  0.47000000000E+01 0. -1.
         13    1    6    6    0    0  0.14245763190E+03  0.53911520942E+02  0.20096990854E+03  0.25216965145E+03  0.00000000000E+00 0. -1.
        -14    1    6    6    0    0  0.83630529171E+02 -0.55951526506E+01  0.80172753738E+02  0.11598724751E+03  0.00000000000E+00 0.  1.
         -5    1    5    5    0  503 -0.10444016925E+02  0.22643094825E+02 -0.76579570555E+01  0.26505122883E+02  0.47000000000E+01 0.  1.
<mgrwt>
<rscale>  2 0.28698001E+03</rscale>
<asrwt>0</asrwt>
<pdfrwt beam="1">  1       21 0.55038619E-01 0.28779727E+03</pdfrwt>
<pdfrwt beam="2">  1       21 0.14386437E+00 0.28779727E+03</pdfrwt>
<totfact> 0.95690589E+02</totfact>
</mgrwt>
</event>
<event>
12    1  0.2762290E-001  0.2688950E+03  0.7546771E-02  0.1101955E+00
         21   -1    0    0  504  503  0.00000000000E+00  0.00000000000E+00  0.57380440899E+02  0.57380440899E+02  0.00000000000E+00 0.  1.
         21   -1    0    0  502  504 -0.00000000000E+00 -0.00000000000E+00 -0.13598738758E+04  0.13598738758E+04  0.00000000000E+00 0.  1.
          6    2    1    2  502    0 -0.69898030088E+02  0.19328352139E+03 -0.84479523514E+03  0.88655710490E+03  0.17337893952E+03 0.  0.
         24    2    3    3    0    0 -0.92126714878E+02  0.14555973138E+03 -0.45495436990E+03  0.49314934598E+03  0.80856859683E+02 0.  0.
         -6    2    1    2    0  503  0.69898030088E+02 -0.19328352139E+03 -0.45769819971E+03  0.53069721176E+03  0.17293823839E+03 0.  0.
        -24    2    5    5    0    0  0.29601780255E+02 -0.20631922362E+03 -0.40869793338E+03  0.46576006227E+03  0.80340198059E+02 0.  0.
          4    1    4    4  501    0 -0.23410300091E+02  0.97573313681E+02 -0.18469787878E+03  0.21019490983E+03  0.00000000000E+00 0. -1.
         -3    1    4    4    0  501 -0.68716414787E+02  0.47986417697E+02 -0.27025649112E+03  0.28295443615E+03  0.00000000000E+00 0.  1.
          5    1    3    3  502    0  0.22228684790E+02  0.47723790013E+02 -0.38984086524E+03  0.39340775892E+03  0.47000000000E+01 0. -1.
         13    1    6    6    0    0 -0.10155710550E+01 -0.40509415166E+02 -0.27602874074E+02  0.49030222912E+02  0.00000000000E+00 0. -1.
        -14    1    6    6    0    0  0.30617351310E+02 -0.16580980845E+03 -0.38109505931E+03  0.41672983936E+03  0.00000000000E+00 0.  1.
         -5    1    5    5    0  503  0.40296249833E+02  0.13035702230E+02 -0.49000266326E+02  0.64937149485E+02  0.47000000000E+01 0.  1.
<mgrwt>
<rscale>  2 0.26882397E+03</rscale>
<asrwt>0</asrwt>
<pdfrwt beam="1">  1       21 0.88277602E-02 0.26889498E+03</pdfrwt>
<pdfrwt beam="2">  1       21 0.20921136E+00 0.26889498E+03</pdfrwt>
<totfact> 0.11216868E+04</totfact>
</mgrwt>
</event>
<event>
12    1  0.2762290E-001  0.2044582E+03  0.7546771E-02  0.1147461E+00
         21   -1    0    0  504  503  0.00000000000E+00  0.00000000000E+00  0.12674905497E+03  0.12674905497E+03  0.00000000000E+00 0.  1.
         21   -1    0    0  502  504 -0.00000000000E+00 -0.00000000000E+00 -0.32442818937E+03  0.32442818937E+03  0.00000000000E+00 0.  1.
          6    2    1    2  502    0 -0.22336473719E+02  0.95209581450E+02 -0.13006468674E+03  0.24232209454E+03  0.17955331327E+03 0.  0.
         24    2    3    3    0    0  0.50117333072E+02  0.65685670281E+02 -0.37524959551E+02  0.12105005919E+03  0.80116414585E+02 0.  0.
         -6    2    1    2    0  503  0.22336473719E+02 -0.95209581450E+02 -0.67614447665E+02  0.20885514981E+03  0.17171190294E+03 0.  0.
        -24    2    5    5    0    0  0.29056537852E+01 -0.13315039885E+03 -0.50684881091E+02  0.16274915656E+03  0.78618440917E+02 0.  0.
          2    1    4    4  501    0  0.60932477371E+02  0.36943750810E+02 -0.50884629015E+02  0.87560567566E+02  0.00000000000E+00 0. -1.
         -1    1    4    4    0  501 -0.10815144299E+02  0.28741919471E+02  0.13359669463E+02  0.33489491624E+02  0.00000000000E+00 0.  1.
          5    1    3    3  502    0 -0.72453806791E+02  0.29523911169E+02 -0.92539727189E+02  0.12127203535E+03  0.47000000000E+01 0. -1.
         11    1    6    6    0    0  0.91162738427E+01 -0.28124070023E+02  0.20272416816E+02  0.35847463606E+02  0.00000000000E+00 0. -1.
        -12    1    6    6    0    0 -0.62106200575E+01 -0.10502632883E+03 -0.70957297907E+02  0.12690169296E+03  0.00000000000E+00 0.  1.
         -5    1    5    5    0  503  0.19430819934E+02  0.37940817404E+02 -0.16929566574E+02  0.46105993243E+02  0.47000000000E+01 0.  1.
<mgrwt>
<rscale>  2 0.20272363E+03</rscale>
<asrwt>0</asrwt>
<pdfrwt beam="1">  1       21 0.19499854E-01 0.20445825E+03</pdfrwt>
<pdfrwt beam="2">  1       21 0.49912029E-01 0.20445825E+03</pdfrwt>
<totfact> 0.92098861E+04</totfact>
</mgrwt>
</event>
<event>
12    1  0.2762290E-001  0.2093255E+03  0.7546771E-02  0.1142565E+00
         21   -1    0    0  504  503  0.00000000000E+00  0.00000000000E+00  0.56147535471E+03  0.56147535471E+03  0.00000000000E+00 0.  1.
         21   -1    0    0  502  504 -0.00000000000E+00 -0.00000000000E+00 -0.82957433585E+02  0.82957433585E+02  0.00000000000E+00 0.  1.
          6    2    1    2  502    0 -0.10188217891E+03 -0.52205603128E+02  0.15296080195E+03  0.25738680093E+03  0.17246899717E+03 0.  0.
         24    2    3    3    0    0 -0.94014519853E+02  0.73755239944E+01  0.14987005541E+03  0.19702577475E+03  0.86400197382E+02 0.  0.
         -6    2    1    2    0  503  0.10188217891E+03  0.52205603128E+02  0.32555711917E+03  0.38704598736E+03  0.17524769644E+03 0.  0.
        -24    2    5    5    0    0  0.29799508068E+02 -0.26793147256E+02  0.87477741919E+02  0.12600845390E+03  0.81362716910E+02 0.  0.
          2    1    4    4  501    0 -0.50662533548E+01 -0.29111207157E+01 -0.11261120551E+02  0.12686779849E+02  0.00000000000E+00 0. -1.
         -1    1    4    4    0  501 -0.88948266499E+02  0.10286644710E+02  0.16113117596E+03  0.18433899490E+03  0.00000000000E+00 0.  1.
          5    1    3    3  502    0 -0.78676590607E+01 -0.59581127123E+02  0.30907465384E+01  0.60361026188E+02  0.47000000000E+01 0. -1.
         13    1    6    6    0    0  0.47817522961E+02 -0.27919020929E+02  0.24599336863E+02  0.60589723599E+02  0.00000000000E+00 0. -1.
        -14    1    6    6    0    0 -0.18018014893E+02  0.11258736731E+01  0.62878405056E+02  0.65418730304E+02  0.00000000000E+00 0.  1.
         -5    1    5    5    0  503  0.72082670846E+02  0.78998750384E+02  0.23807937726E+03  0.26103753346E+03  0.47000000000E+01 0.  1.
<mgrwt>
<rscale>  2 0.20874287E+03</rscale>
<asrwt>0</asrwt>
<pdfrwt beam="1">  1       21 0.86380822E-01 0.20932548E+03</pdfrwt>
<pdfrwt beam="2">  1       21 0.12762682E-01 0.20932548E+03</pdfrwt>
<totfact> 0.60197102E+04</totfact>
</mgrwt>
</event>
<event>
12    1  0.2762290E-001  0.2093643E+03  0.7546771E-02  0.1142169E+00
         21   -1    0    0  504  503  0.00000000000E+00  0.00000000000E+00  0.10591977539E+04  0.10591977539E+04  0.00000000000E+00 0. -1.
         21   -1    0    0  502  504 -0.00000000000E+00 -0.00000000000E+00 -0.86299765298E+02  0.86299765298E+02  0.00000000000E+00 0. -1.
          6    2    1    2  502    0  0.26855238003E+02  0.11396868672E+03  0.73074732898E+02  0.22175064122E+03  0.17356083929E+03 0.  0.
         24    2    3    3    0    0 -0.13162424209E+01  0.57692873286E+02  0.10977368253E+03  0.14874720027E+03  0.82129581092E+02 0.  0.
         -6    2    1    2    0  503 -0.26855238003E+02 -0.11396868672E+03  0.89982325567E+03  0.92374687794E+03  0.17296339989E+03 0.  0.
        -24    2    5    5    0    0 -0.69677376157E+02 -0.42262814677E+02  0.66373105398E+03  0.67327315617E+03  0.78209644826E+02 0.  0.
          2    1    4    4  501    0 -0.30861529873E+02  0.50969132310E+02  0.37561531761E+02  0.70435467932E+02  0.00000000000E+00 0. -1.
         -1    1    4    4    0  501  0.29545287452E+02  0.67237409756E+01  0.72212150768E+02  0.78311732338E+02  0.00000000000E+00 0.  1.
          5    1    3    3  502    0  0.28171480423E+02  0.56275813433E+02 -0.36698949630E+02  0.73003440951E+02  0.47000000000E+01 0. -1.
         13    1    6    6    0    0  0.13253554245E+02  0.77312385728E+01  0.12128154891E+03  0.12224828366E+03  0.00000000000E+00 0. -1.
        -14    1    6    6    0    0 -0.82930930402E+02 -0.49994053250E+02  0.54244950507E+03  0.55102487251E+03  0.00000000000E+00 0.  1.
         -5    1    5    5    0  503  0.42822138154E+02 -0.71705872042E+02  0.23609220169E+03  0.25047372178E+03  0.47000000000E+01 0.  1.
<mgrwt>
<rscale>  2 0.20924049E+03</rscale>
<asrwt>0</asrwt>
<pdfrwt beam="1">  1       21 0.16295349E+00 0.20936435E+03</pdfrwt>
<pdfrwt beam="2">  1       21 0.13276888E-01 0.20936435E+03</pdfrwt>
<totfact> 0.11576871E+04</totfact>
</mgrwt>
</event>
<event>
12    1  0.2762290E-001  0.2191283E+03  0.7546771E-02  0.1135055E+00
         21   -1    0    0  504  503  0.00000000000E+00  0.00000000000E+00  0.45233741281E+03  0.45233741281E+03  0.00000000000E+00 0.  1.
         21   -1    0    0  502  504 -0.00000000000E+00 -0.00000000000E+00 -0.10504656356E+03  0.10504656356E+03  0.00000000000E+00 0.  1.
          6    2    1    2  502    0  0.41718501255E+02 -0.12757261419E+03  0.15965216413E+03  0.26889566892E+03  0.16970816720E+03 0.  0.
         24    2    3    3    0    0  0.34999978297E+02 -0.15466956149E+01  0.87261778138E+02  0.12332737331E+03  0.79797445675E+02 0.  0.
         -6    2    1    2    0  503 -0.41718501255E+02  0.12757261419E+03  0.18763868511E+03  0.28848830745E+03  0.17321091809E+03 0.  0.
        -24    2    5    5    0    0  0.36723819983E+02  0.36452552571E+02  0.11406090400E+03  0.14744986140E+03  0.77808381700E+02 0.  0.
          2    1    4    4  501    0  0.21629079914E+02  0.66965076172E+01  0.10035548845E+03  0.10287800724E+03  0.00000000000E+00 0. -1.
         -1    1    4    4    0  501  0.13370898383E+02 -0.82432032321E+01 -0.13093710309E+02  0.20449366072E+02  0.00000000000E+00 0.  1.
          5    1    3    3  502    0  0.67185229582E+01 -0.12602591857E+03  0.72390385991E+02  0.14556829561E+03  0.47000000000E+01 0. -1.
         11    1    6    6    0    0  0.88094584799E+01 -0.11918342546E+02  0.81430745055E+02  0.82768470373E+02  0.00000000000E+00 0. -1.
        -12    1    6    6    0    0  0.27914361504E+02  0.48370895117E+02  0.32630158948E+02  0.64681391030E+02  0.00000000000E+00 0.  1.
         -5    1    5    5    0  503 -0.78442321239E+02  0.91120061614E+02  0.73577781111E+02  0.14103844605E+03  0.47000000000E+01 0.  1.
<mgrwt>
<rscale>  2 0.21843553E+03</rscale>
<asrwt>0</asrwt>
<pdfrwt beam="1">  1       21 0.69590370E-01 0.21912834E+03</pdfrwt>
<pdfrwt beam="2">  1       21 0.16161010E-01 0.21912834E+03</pdfrwt>
<totfact> 0.63491629E+04</totfact>
</mgrwt>
</event>
<event>
12    1  0.2762290E-001  0.2330186E+03  0.7546771E-02  0.1124676E+00
         21   -1    0    0  504  503  0.00000000000E+00  0.00000000000E+00  0.81039910505E+03  0.81039910505E+03  0.00000000000E+00 0. -1.
         21   -1    0    0  502  504 -0.00000000000E+00 -0.00000000000E+00 -0.12866512255E+03  0.12866512255E+03  0.00000000000E+00 0. -1.
          6    2    1    2  502    0  0.15086120471E+03 -0.38358205017E+02  0.14881994273E+02  0.23267253301E+03  0.17229213239E+03 0.  0.
         24    2    3    3    0    0  0.87275332588E+02 -0.92433304484E+02  0.90400568150E+01  0.14886622209E+03  0.76931982928E+02 0.  0.
         -6    2    1    2    0  503 -0.15086120471E+03  0.38358205017E+02  0.66685198823E+03  0.70639169459E+03  0.17339895330E+03 0.  0.
        -24    2    5    5    0    0 -0.19674644496E+02  0.55199596493E+02  0.33322299531E+03  0.34747117280E+03  0.79149000212E+02 0.  0.
          2    1    4    4  501    0  0.10079674814E+03 -0.89180554482E+02  0.97751418632E+01  0.13493964997E+03  0.00000000000E+00 0. -1.
         -1    1    4    4    0  501 -0.13521415557E+02 -0.32527500023E+01 -0.73508504819E+00  0.13926572129E+02  0.00000000000E+00 0.  1.
          5    1    3    3  502    0  0.63585872124E+02  0.54075099467E+02  0.58419374583E+01  0.83806310916E+02  0.47000000000E+01 0. -1.
         13    1    6    6    0    0 -0.26135130518E+02  0.72020138432E+02  0.30052233826E+03  0.31013484355E+03  0.00000000000E+00 0. -1.
        -14    1    6    6    0    0  0.64604860229E+01 -0.16820541938E+02  0.32700657043E+02  0.37336329249E+02  0.00000000000E+00 0.  1.
         -5    1    5    5    0  503 -0.13118656022E+03 -0.16841391476E+02  0.33362899293E+03  0.35892052180E+03  0.47000000000E+01 0.  1.
<mgrwt>
<rscale>  2 0.23281268E+03</rscale>
<asrwt>0</asrwt>
<pdfrwt beam="1">  1       21 0.12467678E+00 0.23301857E+03</pdfrwt>
<pdfrwt beam="2">  1       21 0.19794635E-01 0.23301857E+03</pdfrwt>
<totfact> 0.10995480E+04</totfact>
</mgrwt>
</event>
<event>
12    1  0.2762290E-001  0.2401638E+03  0.7546771E-02  0.1119758E+00
         21   -1    0    0  504  503  0.00000000000E+00  0.00000000000E+00  0.13838825915E+03  0.13838825915E+03  0.00000000000E+00 0.  1.
         21   -1    0    0  502  504 -0.00000000000E+00 -0.00000000000E+00 -0.44320984103E+03  0.44320984103E+03  0.00000000000E+00 0. -1.
          6    2    1    2  502    0 -0.15504264565E+03  0.58137571963E+02 -0.22458349051E+03  0.32881059018E+03  0.17395534128E+03 0.  0.
         24    2    3    3    0    0 -0.16925178872E+03  0.11729296531E+02 -0.19929799001E+03  0.27388268916E+03  0.80673999630E+02 0.  0.
         -6    2    1    2    0  503  0.15504264565E+03 -0.58137571963E+02 -0.80238091364E+02  0.25278751001E+03  0.17333543972E+03 0.  0.
        -24    2    5    5    0    0  0.11438470064E+03  0.72011092107E+01 -0.10019554302E+03  0.17314705780E+03  0.82492672827E+02 0.  0.
          2    1    4    4  501    0 -0.17103180423E+03  0.24192332654E+02 -0.19517632988E+03  0.26063565904E+03  0.00000000000E+00 0. -1.
         -1    1    4    4    0  501  0.17800155166E+01 -0.12463036124E+02 -0.41216601335E+01  0.13247030117E+02  0.00000000000E+00 0.  1.
          5    1    3    3  502    0  0.14209143063E+02  0.46408275432E+02 -0.25285500498E+02  0.54927901021E+02  0.47000000000E+01 0. -1.
         13    1    6    6    0    0  0.38857195494E+02 -0.33723103400E+02 -0.18715211819E+02  0.54748410918E+02  0.00000000000E+00 0. -1.
        -14    1    6    6    0    0  0.75527505142E+02  0.40924212611E+02 -0.81480331204E+02  0.11839864688E+03  0.00000000000E+00 0.  1.
         -5    1    5    5    0  503  0.40657945018E+02 -0.65338681173E+02  0.19957451659E+02  0.79640452204E+02  0.47000000000E+01 0.  1.
<mgrwt>
<rscale>  2 0.24005158E+03</rscale>
<asrwt>0</asrwt>
<pdfrwt beam="1">  1       21 0.21290501E-01 0.24016382E+03</pdfrwt>
<pdfrwt beam="2">  1       21 0.68186130E-01 0.24016382E+03</pdfrwt>
<totfact> 0.39385049E+04</totfact>
</mgrwt>
</event>
<event>
12    1  0.2762290E-001  0.1815766E+03  0.7546771E-02  0.1166950E+00
         21   -1    0    0  504  503  0.00000000000E+00  0.00000000000E+00  0.18411360289E+03  0.18411360289E+03  0.00000000000E+00 0. -1.
         21   -1    0    0  502  504 -0.00000000000E+00 -0.00000000000E+00 -0.25227502973E+03  0.25227502973E+03  0.00000000000E+00 0. -1.
          6    2    1    2  502    0  0.13446256873E+01  0.46061556992E+02  0.85784090431E+02  0.19833550445E+03  0.17278479997E+03 0.  0.
         24    2    3    3    0    0  0.99605139037E+00 -0.43585276076E+02  0.39748675430E+02  0.97449303122E+02  0.77561208549E+02 0.  0.
         -6    2    1    2    0  503 -0.13446256873E+01 -0.46061556992E+02 -0.15394551728E+03  0.23805312818E+03  0.17563198596E+03 0.  0.
        -24    2    5    5    0    0  0.20164623507E+02 -0.26456465405E+01 -0.66974731960E+01  0.82967134073E+02  0.80156582401E+02 0.  0.
          4    1    4    4  501    0 -0.29250297279E+02 -0.25977792208E+02  0.47567888642E+02  0.61588388588E+02  0.00000000000E+00 0. -1.
         -3    1    4    4    0  501  0.30246348670E+02 -0.17607483868E+02 -0.78192132121E+01  0.35860914534E+02  0.00000000000E+00 0.  1.
          5    1    3    3  502    0  0.34857429693E+00  0.89646833068E+02  0.46035415001E+02  0.10088620132E+03  0.47000000000E+01 0. -1.
         13    1    6    6    0    0  0.16319352213E+02 -0.38011360915E+02 -0.18735357570E+02  0.45411435108E+02  0.00000000000E+00 0. -1.
        -14    1    6    6    0    0  0.38452712945E+01  0.35365714374E+02  0.12037884374E+02  0.37555698965E+02  0.00000000000E+00 0.  1.
         -5    1    5    5    0  503 -0.21509249195E+02 -0.43415910451E+02 -0.14724804408E+03  0.15508599410E+03  0.47000000000E+01 0.  1.
<mgrwt>
<rscale>  2 0.18088455E+03</rscale>
<asrwt>0</asrwt>
<pdfrwt beam="1">  1       21 0.28325170E-01 0.18157662E+03</pdfrwt>
<pdfrwt beam="2">  1       21 0.38811543E-01 0.18157662E+03</pdfrwt>
<totfact> 0.76612461E+04</totfact>
</mgrwt>
</event>
<event>
12    1  0.2762290E-001  0.1807445E+03  0.7546771E-02  0.1167633E+00
         21   -1    0    0  504  503  0.00000000000E+00  0.00000000000E+00  0.12945696209E+03  0.12945696209E+03  0.00000000000E+00 0. -1.
         21   -1    0    0  502  504 -0.00000000000E+00 -0.00000000000E+00 -0.63056409280E+03  0.63056409280E+03  0.00000000000E+00 0.  1.
          6    2    1    2  502    0 -0.30358861645E+02 -0.40648634167E+02 -0.54545716835E+03  0.57391485518E+03  0.17111623699E+03 0.  0.
         24    2    3    3    0    0 -0.86056663333E+02 -0.51429602628E+02 -0.39323114254E+03  0.41139308026E+03  0.67548365533E+02 0.  0.
         -6    2    1    2    0  503  0.30358861645E+02  0.40648634167E+02  0.44350037635E+02  0.18610619970E+03  0.17347800952E+03 0.  0.
        -24    2    5    5    0    0 -0.20722849395E+01 -0.42496993859E+02  0.26061822525E+02  0.94883814615E+02  0.80705828976E+02 0.  0.
          2    1    4    4  501    0 -0.44026308173E+02 -0.34151134115E+02 -0.32280267764E+03  0.32757622695E+03  0.00000000000E+00 0. -1.
         -1    1    4    4    0  501 -0.42030355161E+02 -0.17278468513E+02 -0.70428464901E+02  0.83816853302E+02  0.00000000000E+00 0.  1.
          5    1    3    3  502    0  0.55697801688E+02  0.10780968461E+02 -0.15222602580E+03  0.16252177493E+03  0.47000000000E+01 0. -1.
         13    1    6    6    0    0 -0.25303454496E+01 -0.70007761184E+01  0.50974545603E+02  0.51515219244E+02  0.00000000000E+00 0. -1.
        -14    1    6    6    0    0  0.45806051009E+00 -0.35496217740E+02 -0.24912723078E+02  0.43368595371E+02  0.00000000000E+00 0.  1.
         -5    1    5    5    0  503  0.32431146585E+02  0.83145628026E+02  0.18288215110E+02  0.91222385085E+02  0.47000000000E+01 0.  1.
<mgrwt>
<rscale>  2 0.18017547E+03</rscale>
<asrwt>0</asrwt>
<pdfrwt beam="1">  1       21 0.19916456E-01 0.18074455E+03</pdfrwt>
<pdfrwt beam="2">  1       21 0.97009861E-01 0.18074455E+03</pdfrwt>
<totfact> 0.20667651E+04</totfact>
</mgrwt>
</event>
<event>
12    1  0.2762290E-001  0.1999194E+03  0.7546771E-02  0.1151188E+00
         21   -1    0    0  504  503  0.00000000000E+00  0.00000000000E+00  0.66149290281E+03  0.66149290281E+03  0.00000000000E+00 0.  1.
         21   -1    0    0  502  504 -0.00000000000E+00 -0.00000000000E+00 -0.85587446078E+02  0.85587446078E+02  0.00000000000E+00 0.  1.
          6    2    1    2  502    0  0.93841067887E+02  0.33311376264E+02  0.81017821263E+02  0.21571194158E+03  0.17335501311E+03 0.  0.
         24    2    3    3    0    0  0.80345106836E+02 -0.10260143346E+02  0.11237461034E+03  0.16016055540E+03  0.80391191815E+02 0.  0.
         -6    2    1    2    0  503 -0.93841067887E+02 -0.33311376264E+02  0.49488763547E+03  0.53136840730E+03  0.16590002631E+03 0.  0.
        -24    2    5    5    0    0 -0.35155462193E+02  0.36274567693E+02  0.18344141029E+03  0.20685793738E+03  0.81164674977E+02 0.  0.
          4    1    4    4  501    0  0.41759695686E+02  0.20648882590E+01  0.11211092061E+03  0.11965364377E+03  0.00000000000E+00 0. -1.
         -3    1    4    4    0  501  0.38585411149E+02 -0.12325031605E+02  0.26368973720E+00  0.40506911631E+02  0.00000000000E+00 0.  1.
          5    1    3    3  502    0  0.13495961051E+02  0.43571519610E+02 -0.31356789081E+02  0.55551386187E+02  0.47000000000E+01 0. -1.
         11    1    6    6    0    0  0.21320063739E+02  0.28076478363E+02  0.97658589263E+02  0.10382694165E+03  0.00000000000E+00 0. -1.
        -12    1    6    6    0    0 -0.56475525931E+02  0.81980893299E+01  0.85782821024E+02  0.10303099573E+03  0.00000000000E+00 0.  1.
         -5    1    5    5    0  503 -0.58685605694E+02 -0.69585943957E+02  0.31144622518E+03  0.32451046993E+03  0.47000000000E+01 0.  1.
<mgrwt>
<rscale>  2 0.19829242E+03</rscale>
<asrwt>0</asrwt>
<pdfrwt beam="1">  1       21 0.10176814E+00 0.19991937E+03</pdfrwt>
<pdfrwt beam="2">  1       21 0.13167300E-01 0.19991937E+03</pdfrwt>
<totfact> 0.38958022E+04</totfact>
</mgrwt>
</event>
<event>
12    1  0.2762290E-001  0.2222119E+03  0.7546771E-02  0.1132514E+00
         21   -1    0    0  504  503  0.00000000000E+00  0.00000000000E+00  0.12475984487E+04  0.12475984487E+04  0.00000000000E+00 0. -1.
         21   -1    0    0  502  504 -0.00000000000E+00 -0.00000000000E+00 -0.42525445347E+02  0.42525445347E+02  0.00000000000E+00 0.  1.
          6    2    1    2  502    0 -0.12361118399E+03  0.61336613186E+02  0.42724862363E+03  0.48158020442E+03  0.17417290823E+03 0.  0.
         24    2    3    3    0    0 -0.10849777385E+03  0.10649019116E+03  0.29924161699E+03  0.34492317196E+03  0.79463963334E+02 0.  0.
         -6    2    1    2    0  503  0.12361118399E+03 -0.61336613186E+02  0.77782437970E+03  0.80854368961E+03  0.17230852397E+03 0.  0.
        -24    2    5    5    0    0  0.96930673627E+02 -0.46919332998E+01  0.27517883123E+03  0.30199151383E+03  0.77832612321E+02 0.  0.
          2    1    4    4  501    0 -0.10113547337E+03  0.49424053537E+02  0.21830751515E+03  0.24562021947E+03  0.00000000000E+00 0. -1.
         -1    1    4    4    0  501 -0.73623004862E+01  0.57066137627E+02  0.80934101844E+02  0.99302952491E+02  0.00000000000E+00 0.  1.
          5    1    3    3  502    0 -0.15113410139E+02 -0.45153577978E+02  0.12800700664E+03  0.13665703246E+03  0.47000000000E+01 0. -1.
         13    1    6    6    0    0  0.14843846861E+00 -0.21740280847E+01  0.11364913391E+03  0.11367002274E+03  0.00000000000E+00 0. -1.
        -14    1    6    6    0    0  0.96782235159E+02 -0.25179052151E+01  0.16152969732E+03  0.18832149109E+03  0.00000000000E+00 0.  1.
         -5    1    5    5    0  503  0.26680510365E+02 -0.56644679886E+02  0.50264554847E+03  0.50655217578E+03  0.47000000000E+01 0.  1.
<mgrwt>
<rscale>  2 0.22184638E+03</rscale>
<asrwt>0</asrwt>
<pdfrwt beam="1">  1       21 0.19193819E+00 0.22221185E+03</pdfrwt>
<pdfrwt beam="2">  1       21 0.65423772E-02 0.22221185E+03</pdfrwt>
<totfact> 0.25223411E+04</totfact>
</mgrwt>
</event>
<event>
12    1  0.2762290E-001  0.1880220E+03  0.7546771E-02  0.1160480E+00
         21   -1    0    0  504  503  0.00000000000E+00  0.00000000000E+00  0.65676672109E+02  0.65676672109E+02  0.00000000000E+00 0.  1.
         21   -1    0    0  502  504 -0.00000000000E+00 -0.00000000000E+00 -0.11716976113E+04  0.11716976113E+04  0.00000000000E+00 0.  1.
          6    2    1    2  502    0  0.69919378387E+02  0.25389521681E+02 -0.10082445238E+04  0.10254485647E+04  0.17162281830E+03 0.  0.
         24    2    3    3    0    0  0.63725757983E+02  0.79107453831E+02 -0.76854818381E+03  0.77968363112E+03  0.83194304570E+02 0.  0.
         -6    2    1    2    0  503 -0.69919378387E+02 -0.25389521681E+02 -0.97776415379E+02  0.21192571871E+03  0.17268160168E+03 0.  0.
        -24    2    5    5    0    0 -0.40101294075E+02  0.48966649332E+02 -0.29340466230E+02  0.10645758392E+03  0.80414598689E+02 0.  0.
          4    1    4    4  501    0 -0.14992113081E+02  0.30764229114E+02 -0.12747396864E+03  0.13198793100E+03  0.00000000000E+00 0. -1.
         -3    1    4    4    0  501  0.78717871064E+02  0.48343224717E+02 -0.64107421517E+03  0.64769570012E+03  0.00000000000E+00 0.  1.
          5    1    3    3  502    0  0.61936204040E+01 -0.53717932150E+02 -0.23969633998E+03  0.24576493356E+03  0.47000000000E+01 0. -1.
         11    1    6    6    0    0  0.76413472758E+01  0.19862120477E+02 -0.43806393200E+02  0.48702095470E+02  0.00000000000E+00 0. -1.
        -12    1    6    6    0    0 -0.47742641351E+02  0.29104528855E+02  0.14465926970E+02  0.57755488450E+02  0.00000000000E+00 0.  1.
         -5    1    5    5    0  503 -0.29818084312E+02 -0.74356171013E+02 -0.68435949149E+02  0.10546813479E+03  0.47000000000E+01 0.  1.
<mgrwt>
<rscale>  2 0.18777857E+03</rscale>
<asrwt>0</asrwt>
<pdfrwt beam="1">  1       21 0.10104103E-01 0.18802203E+03</pdfrwt>
<pdfrwt beam="2">  1       21 0.18026118E+00 0.18802203E+03</pdfrwt>
<totfact> 0.14489311E+04</totfact>
</mgrwt>
</event>
<event>
12    1  0.2762290E-001  0.2248992E+03  0.7546771E-02  0.1130393E+00
         21   -1    0    0  504  503  0.00000000000E+00  0.00000000000E+00  0.14125640810E+04  0.14125640810E+04  0.00000000000E+00 0.  1.
         21   -1    0    0  502  504 -0.00000000000E+00 -0.00000000000E+00 -0.35786821769E+02  0.35786821769E+02  0.00000000000E+00 0.  1.
          6    2    1    2  502    0  0.89763602914E+02  0.11006420386E+03  0.65581974088E+03  0.69331032348E+03  0.17437900886E+03 0.  0.
         24    2    3    3    0    0  0.80988652391E+02  0.17359675365E+02  0.23081381016E+03  0.25819739502E+03  0.80810640952E+02 0.  0.
         -6    2    1    2    0  503 -0.89763602914E+02 -0.11006420386E+03  0.72095751833E+03  0.75504057927E+03  0.17359406594E+03 0.  0.
        -24    2    5    5    0    0 -0.44421719570E+02 -0.83187249858E+02  0.22759960528E+03  0.25885273439E+03  0.79433935239E+02 0.  0.
          4    1    4    4  501    0  0.37309834298E+00  0.24097528703E+02  0.16727358030E+02  0.29336574419E+02  0.00000000000E+00 0. -1.
         -3    1    4    4    0  501  0.80615554048E+02 -0.67378533375E+01  0.21408645213E+03  0.22886082060E+03  0.00000000000E+00 0.  1.
          5    1    3    3  502    0  0.87749505224E+01  0.92704528499E+02  0.42500593072E+03  0.43511292845E+03  0.47000000000E+01 0. -1.
         13    1    6    6    0    0 -0.12728741929E+01  0.19833323735E+01 -0.60260555957E+01  0.64704839121E+01  0.00000000000E+00 0. -1.
        -14    1    6    6    0    0 -0.43148845377E+02 -0.85170582231E+02  0.23362566088E+03  0.25238225048E+03  0.00000000000E+00 0.  1.
         -5    1    5    5    0  503 -0.45341883344E+02 -0.26876954007E+02  0.49335791305E+03  0.49618784488E+03  0.47000000000E+01 0.  1.
<mgrwt>
<rscale>  2 0.22474708E+03</rscale>
<asrwt>0</asrwt>
<pdfrwt beam="1">  1       21 0.21731751E+00 0.22489925E+03</pdfrwt>
<pdfrwt beam="2">  1       21 0.55056660E-02 0.22489925E+03</pdfrwt>
<totfact> 0.23297303E+04</totfact>
</mgrwt>
</event>
<event>
12    1  0.2762290E-001  0.2027475E+03  0.7546771E-02  0.1147833E+00
         21   -1    0    0  504  503  0.00000000000E+00  0.00000000000E+00  0.17585469125E+03  0.17585469125E+03  0.00000000000E+00 0.  1.
         21   -1    0    0  502  504 -0.00000000000E+00 -0.00000000000E+00 -0.23208503121E+03  0.23208503121E+03  0.00000000000E+00 0.  1.
          6    2    1    2  502    0  0.37261444955E+02 -0.98825581765E+02 -0.37672719474E+02  0.20621784630E+03  0.17306546578E+03 0.  0.
         24    2    3    3    0    0  0.27531270921E+01 -0.32627471996E+02  0.41983676888E+02  0.96946417185E+02  0.81017572429E+02 0.  0.
         -6    2    1    2    0  503 -0.37261444955E+02  0.98825581765E+02 -0.18557620482E+02  0.20172187617E+03  0.17085789170E+03 0.  0.
        -24    2    5    5    0    0 -0.21721378693E+02  0.90535738175E+02 -0.73941326252E+02  0.14341527250E+03  0.80200264839E+02 0.  0.
          4    1    4    4  501    0 -0.25565933135E+02 -0.15286377627E+02  0.53968447253E+02  0.61643195706E+02  0.00000000000E+00 0. -1.
         -3    1    4    4    0  501  0.28319060227E+02 -0.17341094369E+02 -0.11984770364E+02  0.35303221479E+02  0.00000000000E+00 0.  1.
          5    1    3    3  502    0  0.34508317862E+02 -0.66198109769E+02 -0.79656396362E+02  0.10927142911E+03  0.47000000000E+01 0. -1.
         11    1    6    6    0    0  0.13252356568E+02  0.20037998094E+02 -0.58469524598E+02  0.63212590747E+02  0.00000000000E+00 0. -1.
        -12    1    6    6    0    0 -0.34973735261E+02  0.70497740080E+02 -0.15471801653E+02  0.80202681757E+02  0.00000000000E+00 0.  1.
         -5    1    5    5    0  503 -0.15540066261E+02  0.82898435907E+01  0.55383705770E+02  0.58306603665E+02  0.47000000000E+01 0.  1.
<mgrwt>
<rscale>  2 0.20227562E+03</rscale>
<asrwt>0</asrwt>
<pdfrwt beam="1">  1       21 0.27054568E-01 0.20274754E+03</pdfrwt>
<pdfrwt beam="2">  1       21 0.35705389E-01 0.20274754E+03</pdfrwt>
<totfact> 0.98063441E+04</totfact>
</mgrwt>
</event>
<event>
12    1  0.2762290E-001  0.2687611E+03  0.7546771E-02  0.1102289E+00
         21   -1    0    0  504  503  0.00000000000E+00  0.00000000000E+00  0.16290690675E+04  0.16290690675E+04  0.00000000000E+00 0.  1.
         21   -1    0    0  502  504 -0.00000000000E+00 -0.00000000000E+00 -0.48838342838E+02  0.48838342838E+02  0.00000000000E+00 0. -1.
          6    2    1    2  502    0 -0.19363408894E+03  0.59188385361E+02  0.52880360682E+03  0.59318277766E+03  0.17673462526E+03 0.  0.
         24    2    3    3    0    0 -0.27048301539E+02 -0.13482981144E+02  0.15077407079E+03  0.17370647060E+03  0.80794282648E+02 0.  0.
         -6    2    1    2    0  503  0.19363408894E+03 -0.59188385361E+02  0.10514271178E+04  0.10847246326E+04  0.17358317673E+03 0.  0.
        -24    2    5    5    0    0  0.93645086192E+02 -0.10094538289E+03  0.58589206060E+03  0.60672209395E+03  0.76699544411E+02 0.  0.
          4    1    4    4  501    0 -0.38359278868E+02 -0.32265298408E+02  0.50836564443E+02  0.71392156719E+02  0.00000000000E+00 0. -1.
         -3    1    4    4    0  501  0.11310977329E+02  0.18782317264E+02  0.99937506344E+02  0.10231431388E+03  0.00000000000E+00 0.  1.
          5    1    3    3  502    0 -0.16658578740E+03  0.72671366505E+02  0.37802953604E+03  0.41947630707E+03  0.47000000000E+01 0. -1.
         13    1    6    6    0    0  0.71359409494E+02 -0.88409660389E+02  0.31938913791E+03  0.33899536101E+03  0.00000000000E+00 0. -1.
        -14    1    6    6    0    0  0.22285676698E+02 -0.12535722503E+02  0.26650292269E+03  0.26772673294E+03  0.00000000000E+00 0.  1.
         -5    1    5    5    0  503  0.99989002747E+02  0.41756997531E+02  0.46553505721E+03  0.47800253870E+03  0.47000000000E+01 0.  1.
<mgrwt>
<rscale>  2 0.26824421E+03</rscale>
<asrwt>0</asrwt>
<pdfrwt beam="1">  1       21 0.25062597E+00 0.26876115E+03</pdfrwt>
<pdfrwt beam="2">  1       21 0.75135924E-02 0.26876115E+03</pdfrwt>
<totfact> 0.82784305E+03</totfact>
</mgrwt>
</event>
<event>
12    1  0.2762290E-001  0.1817672E+03  0.7546771E-02  0.1166447E+00
         21   -1    0    0  504  503  0.00000000000E+00  0.00000000000E+00  0.80727817625E+02  0.80727817625E+02  0.00000000000E+00 0.  1.
         21   -1    0    0  502  504 -0.00000000000E+00 -0.00000000000E+00 -0.43708018146E+03  0.43708018146E+03  0.00000000000E+00 0. -1.
          6    2    1    2  502    0  0.34341801309E+02 -0.28246552853E+02 -0.24781538569E+03  0.30733010282E+03  0.17624443154E+03 0.  0.
         24    2    3    3    0    0  0.87597129608E+01 -0.60091341095E+02 -0.49876503635E+02  0.10516575183E+03  0.69888968347E+02 0.  0.
         -6    2    1    2    0  503 -0.34341801309E+02  0.28246552853E+02 -0.10853697815E+03  0.21047789627E+03  0.17476682216E+03 0.  0.
        -24    2    5    5    0    0 -0.71855984289E+02 -0.20521289352E+02 -0.34939884047E+02  0.11443499639E+03  0.79310573734E+02 0.  0.
          2    1    4    4  501    0  0.18334295063E+02 -0.72820719075E+02 -0.33201407256E+02  0.82105645030E+02  0.00000000000E+00 0. -1.
         -1    1    4    4    0  501 -0.95745821020E+01  0.12729377980E+02 -0.16675096379E+02  0.23060106796E+02  0.00000000000E+00 0.  1.
          5    1    3    3  502    0  0.25582088348E+02  0.31844788243E+02 -0.19793888205E+03  0.20216435099E+03  0.47000000000E+01 0. -1.
         11    1    6    6    0    0 -0.32837615272E+02 -0.34282751832E+02 -0.51344327659E+02  0.69927505552E+02  0.00000000000E+00 0. -1.
        -12    1    6    6    0    0 -0.39018369016E+02  0.13761462479E+02  0.16404443612E+02  0.44507490835E+02  0.00000000000E+00 0.  1.
         -5    1    5    5    0  503  0.37514182980E+02  0.48767842205E+02 -0.73597094100E+02  0.96042899883E+02  0.47000000000E+01 0.  1.
<mgrwt>
<rscale>  2 0.18140808E+03</rscale>
<asrwt>0</asrwt>
<pdfrwt beam="1">  1       21 0.12419664E-01 0.18176723E+03</pdfrwt>
<pdfrwt beam="2">  1       21 0.67243104E-01 0.18176723E+03</pdfrwt>
<totfact> 0.11212662E+05</totfact>
</mgrwt>
</event>
<event>
12    1  0.2762290E-001  0.3871110E+03  0.7546771E-02  0.1048433E+00
         21   -1    0    0  504  503  0.00000000000E+00  0.00000000000E+00  0.12078240893E+03  0.12078240893E+03  0.00000000000E+00 0.  1.
         21   -1    0    0  502  504 -0.00000000000E+00 -0.00000000000E+00 -0.14809162956E+04  0.14809162956E+04  0.00000000000E+00 0. -1.
          6    2    1    2  502    0  0.27634808215E+03 -0.20792258726E+03 -0.10041095650E+04  0.10757631415E+04  0.17155247987E+03 0.  0.
         24    2    3    3    0    0  0.17581090906E+03 -0.93447014488E+02 -0.41471819349E+03  0.46698020916E+03  0.80234129123E+02 0.  0.
         -6    2    1    2    0  503 -0.27634808215E+03  0.20792258726E+03 -0.35602432175E+03  0.52593556307E+03  0.17393916758E+03 0.  0.
        -24    2    5    5    0    0 -0.22534917892E+03  0.18279196469E+03 -0.20346045565E+03  0.36305444211E+03  0.78849325504E+02 0.  0.
          4    1    4    4  501    0  0.11566900932E+03 -0.18033287772E+02 -0.20328181917E+03  0.23458051323E+03  0.00000000000E+00 0. -1.
         -3    1    4    4    0  501  0.60141899746E+02 -0.75413726716E+02 -0.21143637432E+03  0.23239969593E+03  0.00000000000E+00 0.  1.
          5    1    3    3  502    0  0.10053717309E+03 -0.11447557278E+03 -0.58939137146E+03  0.60878293233E+03  0.47000000000E+01 0. -1.
         11    1    6    6    0    0 -0.62822171680E+00 -0.99421082696E+00 -0.19144463404E+02  0.19180552566E+02  0.00000000000E+00 0. -1.
        -12    1    6    6    0    0 -0.22472095720E+03  0.18378617552E+03 -0.18431599224E+03  0.34387388955E+03  0.00000000000E+00 0.  1.
         -5    1    5    5    0  503 -0.50998903233E+02  0.25130622569E+02 -0.15256386611E+03  0.16288112096E+03  0.47000000000E+01 0.  1.
<mgrwt>
<rscale>  2 0.38684406E+03</rscale>
<asrwt>0</asrwt>
<pdfrwt beam="1">  1       21 0.18581911E-01 0.38711096E+03</pdfrwt>
<pdfrwt beam="2">  1       21 0.22783326E+00 0.38711096E+03</pdfrwt>
<totfact> 0.20619544E+03</totfact>
</mgrwt>
</event>
<event>
12    1  0.2762290E-001  0.1930954E+03  0.7546771E-02  0.1155907E+00
         21   -1    0    0  504  503  0.00000000000E+00  0.00000000000E+00  0.67311272081E+03  0.67311272081E+03  0.00000000000E+00 0.  1.
         21   -1    0    0  502  504 -0.00000000000E+00 -0.00000000000E+00 -0.81726671843E+02  0.81726671843E+02  0.00000000000E+00 0.  1.
          6    2    1    2  502    0  0.50774442342E+02 -0.68740547602E+02  0.80848990316E+02  0.20933802136E+03  0.17315467384E+03 0.  0.
         24    2    3    3    0    0  0.34879571454E+02 -0.11372638349E+03  0.73118621496E+02  0.16077650416E+03  0.79702425765E+02 0.  0.
         -6    2    1    2    0  503 -0.50774442342E+02  0.68740547602E+02  0.51053705865E+03  0.54550137129E+03  0.17210563891E+03 0.  0.
        -24    2    5    5    0    0 -0.39648578996E+02  0.93359326038E+02  0.50091106177E+03  0.51643904339E+03  0.74225468404E+02 0.  0.
          2    1    4    4  501    0 -0.93034099544E+01 -0.50586473771E+02  0.65581153630E+02  0.83345260674E+02  0.00000000000E+00 0. -1.
         -1    1    4    4    0  501  0.44182981408E+02 -0.63139909720E+02  0.75374678658E+01  0.77431243484E+02  0.00000000000E+00 0.  1.
          5    1    3    3  502    0  0.15894870888E+02  0.44985835889E+02  0.77303688202E+01  0.48561517206E+02  0.47000000000E+01 0. -1.
         13    1    6    6    0    0  0.74540602899E+01  0.97854166265E+01  0.89522502069E+01  0.15213815338E+02  0.00000000000E+00 0. -1.
        -14    1    6    6    0    0 -0.47102639286E+02  0.83573909412E+02  0.49195881157E+03  0.50122522806E+03  0.00000000000E+00 0.  1.
         -5    1    5    5    0  503 -0.11125863346E+02 -0.24618778437E+02  0.96259968793E+01  0.29062327897E+02  0.47000000000E+01 0.  1.
<mgrwt>
<rscale>  2 0.19285997E+03</rscale>
<asrwt>0</asrwt>
<pdfrwt beam="1">  1       21 0.10355580E+00 0.19309544E+03</pdfrwt>
<pdfrwt beam="2">  1       21 0.12573335E-01 0.19309544E+03</pdfrwt>
<totfact> 0.40758435E+04</totfact>
</mgrwt>
</event>
<event>
12    1  0.2762290E-001  0.1961446E+03  0.7546771E-02  0.1153741E+00
         21   -1    0    0  504  503  0.00000000000E+00  0.00000000000E+00  0.22241912503E+03  0.22241912503E+03  0.00000000000E+00 0. -1.
         21   -1    0    0  502  504 -0.00000000000E+00 -0.00000000000E+00 -0.21619504966E+03  0.21619504966E+03  0.00000000000E+00 0. -1.
          6    2    1    2  502    0  0.92163398373E+02  0.13855226165E+02 -0.98143113762E+02  0.21643129539E+03  0.16889160889E+03 0.  0.
         24    2    3    3    0    0  0.52216540761E+02  0.66163912626E+02 -0.28486427198E+02  0.12048290252E+03  0.81242986164E+02 0.  0.
         -6    2    1    2    0  503 -0.92163398373E+02 -0.13855226165E+02  0.10436718913E+03  0.22218287930E+03  0.17258812936E+03 0.  0.
        -24    2    5    5    0    0 -0.64440349644E+02  0.50293474787E+02  0.27222490420E+02  0.11798586493E+03  0.80607741997E+02 0.  0.
          4    1    4    4  501    0  0.20218541004E+02  0.79751118087E+02 -0.18786334931E+02  0.84391685707E+02  0.00000000000E+00 0. -1.
         -3    1    4    4    0  501  0.31997999757E+02 -0.13587205460E+02 -0.97000922668E+01  0.36091216808E+02  0.00000000000E+00 0.  1.
          5    1    3    3  502    0  0.39946857611E+02 -0.52308686461E+02 -0.69656686564E+02  0.95948392876E+02  0.47000000000E+01 0. -1.
         13    1    6    6    0    0 -0.67945450400E+02  0.20377129099E+02  0.44033593538E+02  0.83491131147E+02  0.00000000000E+00 0. -1.
        -14    1    6    6    0    0  0.35051007553E+01  0.29916345688E+02 -0.16811103118E+02  0.34494733782E+02  0.00000000000E+00 0.  1.
         -5    1    5    5    0  503 -0.27723048728E+02 -0.64148700952E+02  0.77144698711E+02  0.10419701437E+03  0.47000000000E+01 0.  1.
<mgrwt>
<rscale>  2 0.19532842E+03</rscale>
<asrwt>0</asrwt>
<pdfrwt beam="1">  1       21 0.34218327E-01 0.19614464E+03</pdfrwt>
<pdfrwt beam="2">  1       21 0.33260777E-01 0.19614464E+03</pdfrwt>
<totfact> 0.71526573E+04</totfact>
</mgrwt>
</event>
<event>
12    1  0.2762290E-001  0.1771951E+03  0.7546771E-02  0.1170609E+00
         21   -1    0    0  504  503  0.00000000000E+00  0.00000000000E+00  0.85441526438E+02  0.85441526438E+02  0.00000000000E+00 0. -1.
         21   -1    0    0  502  504 -0.00000000000E+00 -0.00000000000E+00 -0.40990307380E+03  0.40990307380E+03  0.00000000000E+00 0. -1.
          6    2    1    2  502    0  0.66848092613E+01  0.37580700412E+02 -0.24251419660E+03  0.30035187614E+03  0.17303502025E+03 0.  0.
         24    2    3    3    0    0  0.60077106947E+02  0.18370060756E+00 -0.20425058529E+03  0.22461901011E+03  0.71596826661E+02 0.  0.
         -6    2    1    2    0  503 -0.66848092613E+01 -0.37580700412E+02 -0.81947350765E+02  0.19499272410E+03  0.17277094210E+03 0.  0.
        -24    2    5    5    0    0 -0.13077154016E+01  0.33093095578E+02  0.49167059310E+00  0.86171858357E+02  0.79551771434E+02 0.  0.
          4    1    4    4  501    0  0.64634321977E+02 -0.18899488459E+01 -0.93081613620E+02  0.11333734723E+03  0.00000000000E+00 0. -1.
         -3    1    4    4    0  501 -0.45572150297E+01  0.20736494535E+01 -0.11116897167E+03  0.11128166288E+03  0.00000000000E+00 0.  1.
          5    1    3    3  502    0 -0.53392297686E+02  0.37396999804E+02 -0.38263611309E+02  0.75732866029E+02  0.47000000000E+01 0. -1.
         13    1    6    6    0    0 -0.15855461928E+02 -0.21296688159E+02  0.11276974053E+02  0.28846399139E+02  0.00000000000E+00 0. -1.
        -14    1    6    6    0    0  0.14547746527E+02  0.54389783736E+02 -0.10785303460E+02  0.57325459218E+02  0.00000000000E+00 0.  1.
         -5    1    5    5    0  503 -0.53770938598E+01 -0.70673795990E+02 -0.82439021358E+02  0.10882086574E+03  0.47000000000E+01 0.  1.
<mgrwt>
<rscale>  2 0.17713063E+03</rscale>
<asrwt>0</asrwt>
<pdfrwt beam="1">  1       21 0.13144850E-01 0.17719513E+03</pdfrwt>
<pdfrwt beam="2">  1       21 0.63062012E-01 0.17719513E+03</pdfrwt>
<totfact> 0.11662959E+05</totfact>
</mgrwt>
</event>
<event>
12    1  0.2762290E-001  0.1879182E+03  0.7546771E-02  0.1161569E+00
         21   -1    0    0  504  503  0.00000000000E+00  0.00000000000E+00  0.60993422831E+03  0.60993422831E+03  0.00000000000E+00 0. -1.
         21   -1    0    0  502  504 -0.00000000000E+00 -0.00000000000E+00 -0.11836850430E+03  0.11836850430E+03  0.00000000000E+00 0. -1.
          6    2    1    2  502    0 -0.23178856717E+02 -0.67997406871E+02 -0.16257626945E+02  0.18862012077E+03  0.17364427081E+03 0.  0.
         24    2    3    3    0    0 -0.34534882220E+02 -0.46223964914E+02 -0.76905062173E+02  0.12302100882E+03  0.76749377847E+02 0.  0.
         -6    2    1    2    0  503  0.23178856717E+02  0.67997406871E+02  0.50782335095E+03  0.53968261184E+03  0.16796386222E+03 0.  0.
        -24    2    5    5    0    0 -0.99995880494E+01  0.40437207265E+02  0.48018247256E+03  0.48823864273E+03  0.77888418945E+02 0.  0.
          2    1    4    4  501    0 -0.13402116540E+02 -0.50677894014E+02 -0.85076871661E+02  0.99929674076E+02  0.00000000000E+00 0. -1.
         -1    1    4    4    0  501 -0.21132765680E+02  0.44539290997E+01  0.81718094884E+01  0.23091334739E+02  0.00000000000E+00 0.  1.
          5    1    3    3  502    0  0.11356025503E+02 -0.21773441957E+02  0.60647435228E+02  0.65599111957E+02  0.47000000000E+01 0. -1.
         13    1    6    6    0    0 -0.11181080217E+02  0.59001601780E+02  0.43851054143E+03  0.44260332185E+03  0.00000000000E+00 0. -1.
        -14    1    6    6    0    0  0.11814921676E+01 -0.18564394515E+02  0.41671931129E+02  0.45635320876E+02  0.00000000000E+00 0.  1.
         -5    1    5    5    0  503  0.33178444767E+02  0.27560199606E+02  0.27640878384E+02  0.51443969105E+02  0.47000000000E+01 0.  1.
<mgrwt>
<rscale>  2 0.18659526E+03</rscale>
<asrwt>0</asrwt>
<pdfrwt beam="1">  1       21 0.93836033E-01 0.18791817E+03</pdfrwt>
<pdfrwt beam="2">  1       21 0.18210539E-01 0.18791817E+03</pdfrwt>
<totfact> 0.26270086E+04</totfact>
</mgrwt>
</event>
<event>
12    1  0.2762290E-001  0.1791017E+03  0.7546771E-02  0.1168951E+00
         21   -1    0    0  504  503  0.00000000000E+00  0.00000000000E+00  0.43283344585E+03  0.43283344585E+03  0.00000000000E+00 0. -1.
         21   -1    0    0  502  504 -0.00000000000E+00 -0.00000000000E+00 -0.73858273288E+02  0.73858273288E+02  0.00000000000E+00 0. -1.
          6    2    1    2  502    0 -0.37450889329E+02  0.21593793005E+02  0.16530143071E+03  0.24289838012E+03  0.17264471918E+03 0.  0.
         24    2    3    3    0    0 -0.81406387338E+01  0.12524341564E+01  0.85857828537E+01  0.82104269675E+02  0.81237656547E+02 0.  0.
         -6    2    1    2    0  503  0.37450889329E+02 -0.21593793005E+02  0.19367374185E+03  0.26379333902E+03  0.17380605979E+03 0.  0.
        -24    2    5    5    0    0 -0.97550492178E+01  0.10628456156E+01  0.18919060245E+03  0.21103054487E+03  0.92975890356E+02 0.  0.
          4    1    4    4  501    0 -0.42349193471E+02  0.14787519446E+02  0.53063380774E+01  0.45169482427E+02  0.00000000000E+00 0. -1.
         -3    1    4    4    0  501  0.34208554737E+02 -0.13535085289E+02  0.32794447762E+01  0.36934787247E+02  0.00000000000E+00 0.  1.
          5    1    3    3  502    0 -0.29310250595E+02  0.20341358849E+02  0.15671564786E+03  0.16079411044E+03  0.47000000000E+01 0. -1.
         11    1    6    6    0    0  0.33429438589E+02 -0.19390968281E+02  0.12608720978E+03  0.13187691794E+03  0.00000000000E+00 0. -1.
        -12    1    6    6    0    0 -0.43184487807E+02  0.20453813897E+02  0.63103392670E+02  0.79153626932E+02  0.00000000000E+00 0.  1.
         -5    1    5    5    0  503  0.47205938547E+02 -0.22656638621E+02  0.44831394043E+01  0.52762794151E+02  0.47000000000E+01 0.  1.
<mgrwt>
<rscale>  2 0.17881931E+03</rscale>
<asrwt>0</asrwt>
<pdfrwt beam="1">  1       21 0.66589759E-01 0.17910167E+03</pdfrwt>
<pdfrwt beam="2">  1       21 0.11362812E-01 0.17910167E+03</pdfrwt>
<totfact> 0.13437953E+05</totfact>
</mgrwt>
</event>
<event>
12    1  0.2762290E-001  0.1851231E+03  0.7546771E-02  0.1163047E+00
         21   -1    0    0  504  503  0.00000000000E+00  0.00000000000E+00  0.27678286829E+04  0.27678286829E+04  0.00000000000E+00 0.  1.
         21   -1    0    0  502  504 -0.00000000000E+00 -0.00000000000E+00 -0.16090962766E+02  0.16090962766E+02  0.00000000000E+00 0.  1.
          6    2    1    2  502    0  0.30439684369E+01 -0.64052201535E+02  0.70331703382E+03  0.72715085211E+03  0.17315184492E+03 0.  0.
         24    2    3    3    0    0 -0.48044906800E+02 -0.63084799069E+02  0.29761980021E+03  0.31822134180E+03  0.79995449621E+02 0.  0.
         -6    2    1    2    0  503 -0.30439684369E+01  0.64052201535E+02  0.20484206863E+04  0.20567687936E+04  0.17366234986E+03 0.  0.
        -24    2    5    5    0    0  0.11604539683E+02 -0.27878397736E+02  0.74796874689E+03  0.75298079292E+03  0.81307796473E+02 0.  0.
          2    1    4    4  501    0 -0.30807712879E+02 -0.43537133728E+02  0.28370982785E+03  0.28867951712E+03  0.00000000000E+00 0. -1.
         -1    1    4    4    0  501 -0.17237193921E+02 -0.19547665340E+02  0.13909972356E+02  0.29541824681E+02  0.00000000000E+00 0.  1.
          5    1    3    3  502    0  0.51088875237E+02 -0.96740246604E+00  0.40569723361E+03  0.40892951031E+03  0.47000000000E+01 0. -1.
         13    1    6    6    0    0 -0.13274176433E+02 -0.30951555802E+02  0.12351379879E+03  0.12802289271E+03  0.00000000000E+00 0. -1.
        -14    1    6    6    0    0  0.24878716115E+02  0.30731580652E+01  0.62445494811E+03  0.62495790021E+03  0.00000000000E+00 0.  1.
         -5    1    5    5    0  503 -0.14648508120E+02  0.91930599271E+02  0.13004519394E+04  0.13037880007E+04  0.47000000000E+01 0.  1.
<mgrwt>
<rscale>  2 0.18500328E+03</rscale>
<asrwt>0</asrwt>
<pdfrwt beam="1">  1       21 0.42581942E+00 0.18512310E+03</pdfrwt>
<pdfrwt beam="2">  1       21 0.24755349E-02 0.18512310E+03</pdfrwt>
<totfact> 0.52529825E+03</totfact>
</mgrwt>
</event>
<event>
12    1  0.2762290E-001  0.2085336E+03  0.7546771E-02  0.1143885E+00
         21   -1    0    0  504  503  0.00000000000E+00  0.00000000000E+00  0.91216539007E+02  0.91216539007E+02  0.00000000000E+00 0.  1.
         21   -1    0    0  502  504 -0.00000000000E+00 -0.00000000000E+00 -0.72883054348E+03  0.72883054348E+03  0.00000000000E+00 0.  1.
          6    2    1    2  502    0 -0.53498150135E+01  0.11277472835E+03 -0.56883878640E+03  0.60585794356E+03  0.17532690321E+03 0.  0.
         24    2    3    3    0    0  0.42193202770E+01  0.14617978301E+03 -0.51783184922E+03  0.54396074114E+03  0.79731626167E+02 0.  0.
         -6    2    1    2    0  503  0.53498150135E+01 -0.11277472835E+03 -0.68775218074E+02  0.21418913893E+03  0.16852357918E+03 0.  0.
        -24    2    5    5    0    0  0.20209346079E+02 -0.21712325327E+02  0.17962926368E+02  0.87465965797E+02  0.80298105264E+02 0.  0.
          2    1    4    4  501    0  0.41995976284E+02  0.78815014225E+02 -0.28230493688E+03  0.29609381263E+03  0.00000000000E+00 0. -1.
         -1    1    4    4    0  501 -0.37776656007E+02  0.67364768780E+02 -0.23552691233E+03  0.24786692850E+03  0.00000000000E+00 0.  1.
          5    1    3    3  502    0 -0.95691352904E+01 -0.33405054660E+02 -0.51006937181E+02  0.61897202422E+02  0.47000000000E+01 0. -1.
         13    1    6    6    0    0 -0.25933437840E+02  0.57037913235E+01  0.20781916309E+02  0.33718903884E+02  0.00000000000E+00 0. -1.
        -14    1    6    6    0    0  0.46142783919E+02 -0.27416116650E+02 -0.28189899408E+01  0.53747061913E+02  0.00000000000E+00 0.  1.
         -5    1    5    5    0  503 -0.14859531065E+02 -0.91062403019E+02 -0.86738144443E+02  0.12672317313E+03  0.47000000000E+01 0.  1.
<mgrwt>
<rscale>  2 0.20709725E+03</rscale>
<asrwt>0</asrwt>
<pdfrwt beam="1">  1       21 0.14033314E-01 0.20853365E+03</pdfrwt>
<pdfrwt beam="2">  1       21 0.11212777E+00 0.20853365E+03</pdfrwt>
<totfact> 0.27345761E+04</totfact>
</mgrwt>
</event>
<event>
12    1  0.2762290E-001  0.2182973E+03  0.7546771E-02  0.1135389E+00
         21   -1    0    0  504  503  0.00000000000E+00  0.00000000000E+00  0.15159242911E+03  0.15159242911E+03  0.00000000000E+00 0.  1.
         21   -1    0    0  502  504 -0.00000000000E+00 -0.00000000000E+00 -0.40533126635E+03  0.40533126635E+03  0.00000000000E+00 0.  1.
          6    2    1    2  502    0  0.10339029671E+03 -0.85097451642E+02 -0.25978379027E+03  0.33854274170E+03  0.17085795429E+03 0.  0.
         24    2    3    3    0    0  0.11865083069E+03 -0.11361722865E+03 -0.22237328483E+03  0.28886480400E+03  0.83702466582E+02 0.  0.
         -6    2    1    2    0  503 -0.10339029671E+03  0.85097451642E+02  0.60449530325E+01  0.21838095376E+03  0.17240234853E+03 0.  0.
        -24    2    5    5    0    0 -0.93614468097E+02  0.12178728725E+03 -0.17504742716E+02  0.17345446902E+03  0.78639842518E+02 0.  0.
          2    1    4    4  501    0  0.49425422929E+02 -0.22852536566E+02 -0.22969487173E+02  0.59099138744E+02  0.00000000000E+00 0. -1.
         -1    1    4    4    0  501  0.69225407761E+02 -0.90764692079E+02 -0.19940379766E+03  0.22976566525E+03  0.00000000000E+00 0.  1.
          5    1    3    3  502    0 -0.15260533979E+02  0.28519777004E+02 -0.37410505437E+02  0.49677937706E+02  0.47000000000E+01 0. -1.
         13    1    6    6    0    0  0.13581703330E+02  0.94933426222E+01 -0.65682218795E+01  0.17824919583E+02  0.00000000000E+00 0. -1.
        -14    1    6    6    0    0 -0.10719617143E+03  0.11229394463E+03 -0.10936520836E+02  0.15562954943E+03  0.00000000000E+00 0.  1.
         -5    1    5    5    0  503 -0.97758286149E+01 -0.36689835607E+02  0.23549695748E+02  0.44926484748E+02  0.47000000000E+01 0.  1.
<mgrwt>
<rscale>  2 0.21799223E+03</rscale>
<asrwt>0</asrwt>
<pdfrwt beam="1">  1       21 0.23321913E-01 0.21829727E+03</pdfrwt>
<pdfrwt beam="2">  1       21 0.62358655E-01 0.21829727E+03</pdfrwt>
<totfact> 0.40695744E+04</totfact>
</mgrwt>
</event>
<event>
12    1  0.2762290E-001  0.2003572E+03  0.7546771E-02  0.1149442E+00
         21   -1    0    0  504  503  0.00000000000E+00  0.00000000000E+00  0.45298091891E+03  0.45298091891E+03  0.00000000000E+00 0. -1.
         21   -1    0    0  502  504 -0.00000000000E+00 -0.00000000000E+00 -0.94704201315E+02  0.94704201315E+02  0.00000000000E+00 0.  1.
          6    2    1    2  502    0 -0.83604829055E+02  0.55732321661E+02  0.10967300728E+03  0.22839400930E+03  0.17331992338E+03 0.  0.
         24    2    3    3    0    0 -0.54397139051E+02  0.64938707680E+01 -0.79197669123E+01  0.97521304951E+02  0.80289869329E+02 0.  0.
         -6    2    1    2    0  503  0.83604829055E+02 -0.55732321661E+02  0.24860371032E+03  0.31929111093E+03  0.17334113653E+03 0.  0.
        -24    2    5    5    0    0 -0.23041460009E+02 -0.21054326843E+02  0.99146884411E+02  0.13238089958E+03  0.81978072232E+02 0.  0.
          2    1    4    4  501    0  0.36233866597E+01 -0.11443894235E+02 -0.30462530834E+02  0.32742288115E+02  0.00000000000E+00 0. -1.
         -1    1    4    4    0  501 -0.58020525711E+02  0.17937765003E+02  0.22542763922E+02  0.64779016836E+02  0.00000000000E+00 0.  1.
          5    1    3    3  502    0 -0.29207690004E+02  0.49238450893E+02  0.11759277419E+03  0.13087270435E+03  0.47000000000E+01 0. -1.
         11    1    6    6    0    0 -0.77917802326E+00 -0.50357908852E+02  0.49852153505E+02  0.70864400875E+02  0.00000000000E+00 0. -1.
        -12    1    6    6    0    0 -0.22262281986E+02  0.29303582008E+02  0.49294730906E+02  0.61516498704E+02  0.00000000000E+00 0.  1.
         -5    1    5    5    0  503  0.10664628906E+03 -0.34677994817E+02  0.14945682591E+03  0.18691021135E+03  0.47000000000E+01 0.  1.
<mgrwt>
<rscale>  2 0.20035261E+03</rscale>
<asrwt>0</asrwt>
<pdfrwt beam="1">  1       21 0.69689371E-01 0.20035720E+03</pdfrwt>
<pdfrwt beam="2">  1       21 0.14569877E-01 0.20035720E+03</pdfrwt>
<totfact> 0.77127134E+04</totfact>
</mgrwt>
</event>
<event>
12    1  0.2762290E-001  0.2202724E+03  0.7546771E-02  0.1134343E+00
         21   -1    0    0  504  503  0.00000000000E+00  0.00000000000E+00  0.34190016895E+03  0.34190016895E+03  0.00000000000E+00 0.  1.
         21   -1    0    0  502  504 -0.00000000000E+00 -0.00000000000E+00 -0.14256304942E+03  0.14256304942E+03  0.00000000000E+00 0. -1.
          6    2    1    2  502    0  0.41819581912E+02  0.12357805247E+03  0.64233842959E+02  0.22605883250E+03  0.17307858529E+03 0.  0.
         24    2    3    3    0    0  0.27123782786E+02  0.15484927662E+03  0.33188577732E+02  0.17937099185E+03  0.79740033611E+02 0.  0.
         -6    2    1    2    0  503 -0.41819581912E+02 -0.12357805247E+03  0.13510327657E+03  0.25840438586E+03  0.17748103789E+03 0.  0.
        -24    2    5    5    0    0  0.24922754703E+02 -0.10551949020E+03  0.41221410069E+02  0.14171442903E+03  0.81414177100E+02 0.  0.
          2    1    4    4  501    0 -0.10885713802E+02  0.75166113311E+02  0.48008607596E+02  0.89851375941E+02  0.00000000000E+00 0. -1.
         -1    1    4    4    0  501  0.38009496589E+02  0.79683163314E+02 -0.14820029864E+02  0.89519615905E+02  0.00000000000E+00 0.  1.
          5    1    3    3  502    0  0.14695799126E+02 -0.31271224152E+02  0.31045265227E+02  0.46687840654E+02  0.47000000000E+01 0. -1.
         13    1    6    6    0    0 -0.19020211676E+02 -0.65940517114E+02 -0.16854299570E+01  0.68649551517E+02  0.00000000000E+00 0. -1.
        -14    1    6    6    0    0  0.43942966379E+02 -0.39578973088E+02  0.42906840026E+02  0.73064877513E+02  0.00000000000E+00 0.  1.
         -5    1    5    5    0  503 -0.66742336616E+02 -0.18058562271E+02  0.93881866502E+02  0.11668995683E+03  0.47000000000E+01 0.  1.
<mgrwt>
<rscale>  2 0.21938416E+03</rscale>
<asrwt>0</asrwt>
<pdfrwt beam="1">  1       21 0.52600026E-01 0.22027240E+03</pdfrwt>
<pdfrwt beam="2">  1       21 0.21932777E-01 0.22027240E+03</pdfrwt>
<totfact> 0.65721735E+04</totfact>
</mgrwt>
</event>
<event>
12    1  0.2762290E-001  0.2819740E+03  0.7546771E-02  0.1094986E+00
         21   -1    0    0  504  503  0.00000000000E+00  0.00000000000E+00  0.37497056546E+03  0.37497056546E+03  0.00000000000E+00 0. -1.
         21   -1    0    0  502  504 -0.00000000000E+00 -0.00000000000E+00 -0.23163704342E+03  0.23163704342E+03  0.00000000000E+00 0. -1.
          6    2    1    2  502    0  0.19282767327E+03 -0.10725818955E+03 -0.21353022776E+02  0.28006361700E+03  0.17115153280E+03 0.  0.
         24    2    3    3    0    0  0.15214010134E+03 -0.13405641293E+03  0.14947070671E+02  0.21912586129E+03  0.81700647976E+02 0.  0.
         -6    2    1    2    0  503 -0.19282767327E+03  0.10725818955E+03  0.16468654481E+03  0.32654399188E+03  0.17556334979E+03 0.  0.
        -24    2    5    5    0    0 -0.58622535458E+02  0.22757126991E+02  0.12695811969E+03  0.16345820878E+03  0.81521367561E+02 0.  0.
          4    1    4    4  501    0  0.12507432591E+03 -0.74204545478E+02 -0.16382486923E+02  0.14634988025E+03  0.00000000000E+00 0. -1.
         -3    1    4    4    0  501  0.27065775436E+02 -0.59851867456E+02  0.31329557594E+02  0.72775981044E+02  0.00000000000E+00 0.  1.
          5    1    3    3  502    0  0.40687571929E+02  0.26798223388E+02 -0.36300093447E+02  0.60937755706E+02  0.47000000000E+01 0. -1.
         13    1    6    6    0    0 -0.79192187135E+02  0.22720721622E+02  0.10181559391E+03  0.13097346624E+03  0.00000000000E+00 0. -1.
        -14    1    6    6    0    0  0.20569651677E+02  0.36405369500E-01  0.25142525780E+02  0.32484742542E+02  0.00000000000E+00 0.  1.
         -5    1    5    5    0  503 -0.13420513781E+03  0.84501062555E+02  0.37728425119E+02  0.16308578310E+03  0.47000000000E+01 0.  1.
<mgrwt>
<rscale>  2 0.28129010E+03</rscale>
<asrwt>0</asrwt>
<pdfrwt beam="1">  1       21 0.57687779E-01 0.28197397E+03</pdfrwt>
<pdfrwt beam="2">  1       21 0.35636468E-01 0.28197397E+03</pdfrwt>
<totfact> 0.20449044E+04</totfact>
</mgrwt>
</event>
<event>
12    1  0.2762290E-001  0.1744285E+03  0.7546771E-02  0.1173451E+00
         21   -1    0    0  504  503  0.00000000000E+00  0.00000000000E+00  0.39820841608E+02  0.39820841608E+02  0.00000000000E+00 0. -1.
         21   -1    0    0  502  504 -0.00000000000E+00 -0.00000000000E+00 -0.93300754450E+03  0.93300754450E+03  0.00000000000E+00 0. -1.
          6    2    1    2  502    0  0.21600896160E+02 -0.21072763987E+01 -0.65570749794E+03  0.67851132950E+03  0.17307299637E+03 0.  0.
         24    2    3    3    0    0  0.76225611732E+02 -0.94060324604E+01 -0.33088157092E+03  0.34901003321E+03  0.80165902823E+02 0.  0.
         -6    2    1    2    0  503 -0.21600896160E+02  0.21072763987E+01 -0.23747920495E+03  0.29431705661E+03  0.17249671793E+03 0.  0.
        -24    2    5    5    0    0 -0.20081300777E+02  0.13435532740E+02 -0.37170500237E+02  0.93627481031E+02  0.82466277565E+02 0.  0.
          2    1    4    4  501    0  0.23260073280E+02  0.31916839141E+02 -0.78968637493E+02  0.88293608700E+02  0.00000000000E+00 0. -1.
         -1    1    4    4    0  501  0.52965538453E+02 -0.41322871602E+02 -0.25191293343E+03  0.26071642451E+03  0.00000000000E+00 0.  1.
          5    1    3    3  502    0 -0.54624715572E+02  0.72987560617E+01 -0.32482592702E+03  0.32950129629E+03  0.47000000000E+01 0. -1.
         13    1    6    6    0    0 -0.27530430267E+02 -0.30009269291E+02 -0.25429174622E+02  0.48011704365E+02  0.00000000000E+00 0. -1.
        -14    1    6    6    0    0  0.74491294906E+01  0.43444802031E+02 -0.11741325615E+02  0.45615776666E+02  0.00000000000E+00 0.  1.
         -5    1    5    5    0  503 -0.15195953838E+01 -0.11328256341E+02 -0.20030870471E+03  0.20068957558E+03  0.47000000000E+01 0.  1.
<mgrwt>
<rscale>  2 0.17428538E+03</rscale>
<asrwt>0</asrwt>
<pdfrwt beam="1">  1       21 0.61262839E-02 0.17442850E+03</pdfrwt>
<pdfrwt beam="2">  1       21 0.14353961E+00 0.17442850E+03</pdfrwt>
<totfact> 0.64430363E+04</totfact>
</mgrwt>
</event>
<event>
12    1  0.2762290E-001  0.1881797E+03  0.7546771E-02  0.1160508E+00
         21   -1    0    0  504  503  0.00000000000E+00  0.00000000000E+00  0.27225660626E+02  0.27225660626E+02  0.00000000000E+00 0. -1.
         21   -1    0    0  502  504 -0.00000000000E+00 -0.00000000000E+00 -0.24886834852E+04  0.24886834852E+04  0.00000000000E+00 0. -1.
          6    2    1    2  502    0  0.32402363876E+02 -0.63969990968E+02 -0.21012686520E+04  0.21095252882E+04  0.17211891353E+03 0.  0.
         24    2    3    3    0    0  0.49949099472E+01 -0.87383372994E+01 -0.41231429299E+03  0.41943930778E+03  0.76321353799E+02 0.  0.
         -6    2    1    2    0  503 -0.32402363876E+02  0.63969990968E+02 -0.36018917250E+03  0.40638385764E+03  0.17398139795E+03 0.  0.
        -24    2    5    5    0    0 -0.77019718390E+02  0.55295751644E+02 -0.16819761078E+03  0.20902935294E+03  0.80082313577E+02 0.  0.
          4    1    4    4  501    0  0.61348016063E+01  0.33066865302E+02 -0.14328937322E+03  0.14718321184E+03  0.00000000000E+00 0. -1.
         -3    1    4    4    0  501 -0.11398916591E+01 -0.41805202601E+02 -0.26902491977E+03  0.27225609594E+03  0.00000000000E+00 0.  1.
          5    1    3    3  502    0  0.27407453929E+02 -0.55231653669E+02 -0.16889543591E+04  0.16900859804E+04  0.47000000000E+01 0. -1.
         11    1    6    6    0    0 -0.69033137426E+01  0.53442517895E+02 -0.69354959683E+02  0.87828633669E+02  0.00000000000E+00 0. -1.
        -12    1    6    6    0    0 -0.70116404648E+02  0.18532337490E+01 -0.98842651098E+02  0.12120071927E+03  0.00000000000E+00 0.  1.
         -5    1    5    5    0  503  0.44617354514E+02  0.86742393246E+01 -0.19199156172E+03  0.19735450469E+03  0.47000000000E+01 0.  1.
<mgrwt>
<rscale>  2 0.18774807E+03</rscale>
<asrwt>0</asrwt>
<pdfrwt beam="1">  1       21 0.41885641E-02 0.18817970E+03</pdfrwt>
<pdfrwt beam="2">  1       21 0.38287430E+00 0.18817970E+03</pdfrwt>
<totfact> 0.40536325E+03</totfact>
</mgrwt>
</event>
<event>
12    1  0.2762290E-001  0.2396198E+03  0.7546771E-02  0.1120187E+00
         21   -1    0    0  504  503  0.00000000000E+00  0.00000000000E+00  0.36664556546E+03  0.36664556546E+03  0.00000000000E+00 0.  1.
         21   -1    0    0  502  504 -0.00000000000E+00 -0.00000000000E+00 -0.18417932631E+03  0.18417932631E+03  0.00000000000E+00 0. -1.
          6    2    1    2  502    0 -0.16428069892E+03 -0.42488859158E+01 -0.16257446894E+02  0.24017063957E+03  0.17438873376E+03 0.  0.
         24    2    3    3    0    0 -0.10568248744E+03  0.26409299092E+02  0.38581323749E+02  0.15412962922E+03  0.10198619922E+03 0.  0.
         -6    2    1    2    0  503  0.16428069892E+03  0.42488859158E+01  0.19872368604E+03  0.31065425220E+03  0.17323036670E+03 0.  0.
        -24    2    5    5    0    0  0.44042638882E+02  0.57093063716E+02  0.92993932947E+02  0.14198128786E+03  0.79444588066E+02 0.  0.
          2    1    4    4  501    0 -0.12545071563E+03  0.29570683869E+02  0.36755398749E+02  0.13402711193E+03  0.00000000000E+00 0. -1.
         -1    1    4    4    0  501  0.19768228185E+02 -0.31613847774E+01  0.18259249994E+01  0.20102517290E+02  0.00000000000E+00 0.  1.
          5    1    3    3  502    0 -0.58598211480E+02 -0.30658185007E+02 -0.54838770642E+02  0.86041010351E+02  0.47000000000E+01 0. -1.
         13    1    6    6    0    0  0.64684115243E+02  0.43047414513E+02  0.86317364306E+02  0.11613699687E+03  0.00000000000E+00 0. -1.
        -14    1    6    6    0    0 -0.20641476362E+02  0.14045649203E+02  0.66765686408E+01  0.25844290989E+02  0.00000000000E+00 0.  1.
         -5    1    5    5    0  503  0.12023806004E+03 -0.52844177801E+02  0.10572975309E+03  0.16867296434E+03  0.47000000000E+01 0.  1.
<mgrwt>
<rscale>  2 0.23940906E+03</rscale>
<asrwt>0</asrwt>
<pdfrwt beam="1">  1       21 0.56407010E-01 0.23961976E+03</pdfrwt>
<pdfrwt beam="2">  1       21 0.28335281E-01 0.23961976E+03</pdfrwt>
<totfact> 0.34387527E+04</totfact>
</mgrwt>
</event>
<event>
12    1  0.2762290E-001  0.2056463E+03  0.7546771E-02  0.1145232E+00
         21   -1    0    0  504  503  0.00000000000E+00  0.00000000000E+00  0.63922280360E+03  0.63922280360E+03  0.00000000000E+00 0.  1.
         21   -1    0    0  502  504 -0.00000000000E+00 -0.00000000000E+00 -0.76392802055E+02  0.76392802055E+02  0.00000000000E+00 0. -1.
          6    2    1    2  502    0  0.49149892398E+02 -0.96835847270E+02  0.41359617127E+03  0.46152678442E+03  0.17364413783E+03 0.  0.
         24    2    3    3    0    0  0.24766088036E+02 -0.76664742659E+02  0.41429428671E+03  0.42952646033E+03  0.79764542487E+02 0.  0.
         -6    2    1    2    0  503 -0.49149892398E+02  0.96835847270E+02  0.14923383027E+03  0.25408882124E+03  0.17463533360E+03 0.  0.
        -24    2    5    5    0    0 -0.15640229181E+02  0.43309668769E+02  0.14613123753E+01  0.93319556890E+02  0.81154544461E+02 0.  0.
          4    1    4    4  501    0 -0.52364013165E+01 -0.10057635140E+02  0.24351334811E+03  0.24377720696E+03  0.00000000000E+00 0. -1.
         -3    1    4    4    0  501  0.30002489353E+02 -0.66607107520E+02  0.17078093860E+03  0.18574925337E+03  0.00000000000E+00 0.  1.
          5    1    3    3  502    0  0.24383804362E+02 -0.20171104610E+02 -0.69811543988E+00  0.32000324085E+02  0.47000000000E+01 0. -1.
         13    1    6    6    0    0  0.10187601962E+02  0.49041388593E+02  0.26695949726E+02  0.56758424579E+02  0.00000000000E+00 0. -1.
        -14    1    6    6    0    0 -0.25827831143E+02 -0.57317198247E+01 -0.25234637350E+02  0.36561132311E+02  0.00000000000E+00 0.  1.
         -5    1    5    5    0  503 -0.33509663218E+02  0.53526178501E+02  0.14777251790E+03  0.16076926435E+03  0.47000000000E+01 0.  1.
<mgrwt>
<rscale>  2 0.20543569E+03</rscale>
<asrwt>0</asrwt>
<pdfrwt beam="1">  1       21 0.98341966E-01 0.20564628E+03</pdfrwt>
<pdfrwt beam="2">  1       21 0.11752739E-01 0.20564628E+03</pdfrwt>
<totfact> 0.51677197E+04</totfact>
</mgrwt>
</event>
<event>
12    1  0.2762290E-001  0.2343618E+03  0.7546771E-02  0.1123753E+00
         21   -1    0    0  504  503  0.00000000000E+00  0.00000000000E+00  0.39471281713E+03  0.39471281713E+03  0.00000000000E+00 0. -1.
         21   -1    0    0  502  504 -0.00000000000E+00 -0.00000000000E+00 -0.24998734028E+03  0.24998734028E+03  0.00000000000E+00 0. -1.
          6    2    1    2  502    0  0.44610279118E+02  0.15003362758E+03 -0.14283297850E+03  0.27373479692E+03  0.17328967912E+03 0.  0.
         24    2    3    3    0    0  0.46157334556E+02  0.17936555235E+03 -0.11962008684E+03  0.23600306585E+03  0.84178269232E+02 0.  0.
         -6    2    1    2    0  503 -0.44610279118E+02 -0.15003362758E+03  0.28755845535E+03  0.37096536049E+03  0.17442840087E+03 0.  0.
        -24    2    5    5    0    0 -0.72821158965E+02 -0.39978599272E+02  0.10461547960E+03  0.15556298034E+03  0.79713441073E+02 0.  0.
          4    1    4    4  501    0 -0.32154563853E+01  0.79209335768E+02 -0.91082620017E+02  0.12074974825E+03  0.00000000000E+00 0. -1.
         -3    1    4    4    0  501  0.49372790941E+02  0.10015621658E+03 -0.28537466822E+02  0.11525331760E+03  0.00000000000E+00 0.  1.
          5    1    3    3  502    0 -0.15470554380E+01 -0.29331924763E+02 -0.23212891662E+02  0.37731731078E+02  0.47000000000E+01 0. -1.
         13    1    6    6    0    0 -0.67229614590E+02 -0.62327342164E+02  0.88698444558E+02  0.12756148606E+03  0.00000000000E+00 0. -1.
        -14    1    6    6    0    0 -0.55915443741E+01  0.22348742892E+02  0.15917035047E+02  0.28001494282E+02  0.00000000000E+00 0.  1.
         -5    1    5    5    0  503  0.28210879847E+02 -0.11005502831E+03  0.18294297575E+03  0.21540238015E+03  0.47000000000E+01 0.  1.
<mgrwt>
<rscale>  2 0.23414990E+03</rscale>
<asrwt>0</asrwt>
<pdfrwt beam="1">  1       21 0.60725049E-01 0.23436176E+03</pdfrwt>
<pdfrwt beam="2">  1       21 0.38459591E-01 0.23436176E+03</pdfrwt>
<totfact> 0.16061433E+04</totfact>
</mgrwt>
</event>
<event>
12    1  0.2762290E-001  0.2310641E+03  0.7546771E-02  0.1125987E+00
         21   -1    0    0  504  503  0.00000000000E+00  0.00000000000E+00  0.16619277597E+03  0.16619277597E+03  0.00000000000E+00 0.  1.
         21   -1    0    0  502  504 -0.00000000000E+00 -0.00000000000E+00 -0.51993708960E+03  0.51993708960E+03  0.00000000000E+00 0.  1.
          6    2    1    2  502    0 -0.12219249753E+03  0.90906133447E+02 -0.38921115944E+03  0.45235962926E+03  0.17305772446E+03 0.  0.
         24    2    3    3    0    0 -0.29617772049E+02 -0.94245528248E+01 -0.20496782246E+03  0.22300395867E+03  0.82176168832E+02 0.  0.
         -6    2    1    2    0  503  0.12219249753E+03 -0.90906133447E+02  0.35466845818E+02  0.23377023632E+03  0.17376908438E+03 0.  0.
        -24    2    5    5    0    0  0.14128236815E+03 -0.55513201746E+02  0.63965749012E+02  0.18425902286E+03  0.82567229225E+02 0.  0.
          4    1    4    4  501    0 -0.44563591948E+02 -0.75257960049E+01 -0.20280957968E+03  0.20778420763E+03  0.00000000000E+00 0. -1.
         -3    1    4    4    0  501  0.14945819899E+02 -0.18987568199E+01 -0.21582427841E+01  0.15219751044E+02  0.00000000000E+00 0.  1.
          5    1    3    3  502    0 -0.92574725480E+02  0.10033068627E+03 -0.18424333698E+03  0.22935567058E+03  0.47000000000E+01 0. -1.
         11    1    6    6    0    0  0.73230997872E+01  0.18396684099E+02  0.76884966241E+01  0.21240968826E+02  0.00000000000E+00 0. -1.
        -12    1    6    6    0    0  0.13395926836E+03 -0.73909885846E+02  0.56277252388E+02  0.16301805404E+03  0.00000000000E+00 0.  1.
         -5    1    5    5    0  503 -0.19089870618E+02 -0.35392931701E+02 -0.28498903194E+02  0.49511213456E+02  0.47000000000E+01 0.  1.
<mgrwt>
<rscale>  2 0.23093038E+03</rscale>
<asrwt>0</asrwt>
<pdfrwt beam="1">  1       21 0.25568119E-01 0.23106412E+03</pdfrwt>
<pdfrwt beam="2">  1       21 0.79990322E-01 0.23106412E+03</pdfrwt>
<totfact> 0.19522274E+04</totfact>
</mgrwt>
</event>
<event>
12    1  0.2762290E-001  0.1818908E+03  0.7546771E-02  0.1166348E+00
         21   -1    0    0  504  503  0.00000000000E+00  0.00000000000E+00  0.50274660173E+03  0.50274660173E+03  0.00000000000E+00 0. -1.
         21   -1    0    0  502  504 -0.00000000000E+00 -0.00000000000E+00 -0.21108448070E+03  0.21108448070E+03  0.00000000000E+00 0. -1.
          6    2    1    2  502    0  0.24613369922E+02 -0.43556401914E+02 -0.15101040822E+03  0.23524648514E+03  0.17330258870E+03 0.  0.
         24    2    3    3    0    0  0.62388794667E+02 -0.35019606594E+02 -0.37132620693E+02  0.11487165354E+03  0.81840886611E+02 0.  0.
         -6    2    1    2    0  503 -0.24613369922E+02  0.43556401914E+02  0.44267252926E+03  0.47858459729E+03  0.17487501388E+03 0.  0.
        -24    2    5    5    0    0  0.37939931665E+02  0.62865008287E+02  0.34301979144E+03  0.35925942822E+03  0.77545546378E+02 0.  0.
          2    1    4    4  501    0  0.69103397530E+02 -0.38919598425E+02 -0.54240822451E+02  0.96083721368E+02  0.00000000000E+00 0. -1.
         -1    1    4    4    0  501 -0.67146028628E+01  0.38999918309E+01  0.17108201758E+02  0.18787932171E+02  0.00000000000E+00 0.  1.
          5    1    3    3  502    0 -0.37775424745E+02 -0.85367953206E+01 -0.11387778753E+03  0.12037483160E+03  0.47000000000E+01 0. -1.
         13    1    6    6    0    0  0.71135269202E+01  0.45849484924E+02  0.70014781021E+02  0.83993137186E+02  0.00000000000E+00 0. -1.
        -14    1    6    6    0    0  0.30826404745E+02  0.17015523363E+02  0.27300501042E+03  0.27526629103E+03  0.00000000000E+00 0.  1.
         -5    1    5    5    0  503 -0.62553301587E+02 -0.19308606372E+02  0.99652737820E+02  0.11932516907E+03  0.47000000000E+01 0.  1.
<mgrwt>
<rscale>  2 0.18151176E+03</rscale>
<asrwt>0</asrwt>
<pdfrwt beam="1">  1       21 0.77345630E-01 0.18189076E+03</pdfrwt>
<pdfrwt beam="2">  1       21 0.32474536E-01 0.18189076E+03</pdfrwt>
<totfact> 0.13636098E+04</totfact>
</mgrwt>
</event>
<event>
12    1  0.2762290E-001  0.2016941E+03  0.7546771E-02  0.1148511E+00
         21   -1    0    0  504  503  0.00000000000E+00  0.00000000000E+00  0.34460997305E+03  0.34460997305E+03  0.00000000000E+00 0.  1.
         21   -1    0    0  502  504 -0.00000000000E+00 -0.00000000000E+00 -0.22137938161E+03  0.22137938161E+03  0.00000000000E+00 0. -1.
          6    2    1    2  502    0 -0.30870429957E+02 -0.10599340329E+03 -0.13230748905E+03  0.24044332662E+03  0.16769059804E+03 0.  0.
         24    2    3    3    0    0 -0.25588744359E+02  0.97486977220E+01 -0.54573333438E+02  0.10084096597E+03  0.80254786462E+02 0.  0.
         -6    2    1    2    0  503  0.30870429957E+02  0.10599340329E+03  0.25553808048E+03  0.32554602804E+03  0.16879846210E+03 0.  0.
        -24    2    5    5    0    0 -0.32111712218E+01  0.45698272083E+02  0.44022098747E+02  0.10292940935E+03  0.80980704118E+02 0.  0.
          4    1    4    4  501    0 -0.54919575682E+01  0.36334908733E+02 -0.56565714835E+02  0.67454186567E+02  0.00000000000E+00 0. -1.
         -3    1    4    4    0  501 -0.20096786791E+02 -0.26586211011E+02  0.19923813977E+01  0.33386779403E+02  0.00000000000E+00 0.  1.
          5    1    3    3  502    0 -0.52816855977E+01 -0.11574210102E+03 -0.77734155613E+02  0.13960236065E+03  0.47000000000E+01 0. -1.
         13    1    6    6    0    0 -0.39422932653E+02  0.39999012506E+02  0.23142948769E+02  0.60742774863E+02  0.00000000000E+00 0. -1.
        -14    1    6    6    0    0  0.36211761431E+02  0.56992595776E+01  0.20879149978E+02  0.42186634488E+02  0.00000000000E+00 0.  1.
         -5    1    5    5    0  503  0.34081601179E+02  0.60295131210E+02  0.21151598174E+03  0.22261661869E+03  0.47000000000E+01 0.  1.
<mgrwt>
<rscale>  2 0.20146212E+03</rscale>
<asrwt>0</asrwt>
<pdfrwt beam="1">  1       21 0.53016919E-01 0.20169409E+03</pdfrwt>
<pdfrwt beam="2">  1       21 0.34058366E-01 0.20169409E+03</pdfrwt>
<totfact> 0.27854268E+04</totfact>
</mgrwt>
</event>
<event>
12    1  0.2762290E-001  0.2027485E+03  0.7546771E-02  0.1148804E+00
         21   -1    0    0  504  503  0.00000000000E+00  0.00000000000E+00  0.79865996219E+02  0.79865996219E+02  0.00000000000E+00 0. -1.
         21   -1    0    0  502  504 -0.00000000000E+00 -0.00000000000E+00 -0.73298166370E+03  0.73298166370E+03  0.00000000000E+00 0. -1.
          6    2    1    2  502    0 -0.81178039932E+02  0.43668210913E+02 -0.56004684338E+03  0.59561682598E+03  0.18058280594E+03 0.  0.
         24    2    3    3    0    0  0.34276376081E+01  0.25373381595E+02 -0.11938298363E+03  0.14650709691E+03  0.80972066006E+02 0.  0.
         -6    2    1    2    0  503  0.81178039932E+02 -0.43668210913E+02 -0.93068824098E+02  0.21723083393E+03  0.17329351511E+03 0.  0.
        -24    2    5    5    0    0  0.82156241059E+02 -0.91960742681E+02 -0.59735381298E+02  0.15835525401E+03  0.79382898380E+02 0.  0.
          4    1    4    4  501    0  0.34814392859E+01  0.54792234201E+02 -0.85782583243E+02  0.10184773407E+03  0.00000000000E+00 0. -1.
         -3    1    4    4    0  501 -0.53801677774E-01 -0.29418852606E+02 -0.33600400385E+02  0.44659362840E+02  0.00000000000E+00 0.  1.
          5    1    3    3  502    0 -0.84605677540E+02  0.18294829318E+02 -0.44066385975E+03  0.44910972907E+03  0.47000000000E+01 0. -1.
         11    1    6    6    0    0  0.64094319798E+02 -0.91580551303E+02 -0.18454776414E+02  0.11329456289E+03  0.00000000000E+00 0. -1.
        -12    1    6    6    0    0  0.18061921261E+02 -0.38019137855E+00 -0.41280604884E+02  0.45060691126E+02  0.00000000000E+00 0.  1.
         -5    1    5    5    0  503 -0.97820112767E+00  0.48292531768E+02 -0.33333442800E+02  0.58875579920E+02  0.47000000000E+01 0.  1.
<mgrwt>
<rscale>  2 0.20111267E+03</rscale>
<asrwt>0</asrwt>
<pdfrwt beam="1">  1       21 0.12287077E-01 0.20274846E+03</pdfrwt>
<pdfrwt beam="2">  1       21 0.11276641E+00 0.20274846E+03</pdfrwt>
<totfact> 0.34391622E+04</totfact>
</mgrwt>
</event>
<event>
12    1  0.2762290E-001  0.2984818E+03  0.7546771E-02  0.1086630E+00
         21   -1    0    0  504  503  0.00000000000E+00  0.00000000000E+00  0.25928164117E+03  0.25928164117E+03  0.00000000000E+00 0. -1.
         21   -1    0    0  502  504 -0.00000000000E+00 -0.00000000000E+00 -0.34202125289E+03  0.34202125289E+03  0.00000000000E+00 0.  1.
          6    2    1    2  502    0  0.21441171069E+03 -0.11025723267E+03 -0.81638024993E+01  0.29364572072E+03  0.16742796239E+03 0.  0.
         24    2    3    3    0    0  0.19182481006E+03 -0.75658295484E+02  0.39064234524E+02  0.23071852457E+03  0.95833646132E+02 0.  0.
         -6    2    1    2    0  503 -0.21441171069E+03  0.11025723267E+03 -0.74575809219E+02  0.30765717333E+03  0.17596120579E+03 0.  0.
        -24    2    5    5    0    0 -0.23391211010E+03  0.80313639247E+02 -0.51450593453E+02  0.26483486643E+03  0.79531044314E+02 0.  0.
          2    1    4    4  501    0  0.16304062003E+03 -0.33281764512E+02  0.57824485414E+02  0.17616353409E+03  0.00000000000E+00 0. -1.
         -1    1    4    4    0  501  0.28784190024E+02 -0.42376530972E+02 -0.18760250891E+02  0.54554990478E+02  0.00000000000E+00 0.  1.
          5    1    3    3  502    0  0.22586900634E+02 -0.34598937190E+02 -0.47228037023E+02  0.62927196155E+02  0.47000000000E+01 0. -1.
         11    1    6    6    0    0 -0.57665627936E+02  0.40115539928E+02  0.15723886198E+02  0.71984871926E+02  0.00000000000E+00 0. -1.
        -12    1    6    6    0    0 -0.17624648216E+03  0.40198099319E+02 -0.67174479650E+02  0.19284999450E+03  0.00000000000E+00 0.  1.
         -5    1    5    5    0  503  0.19500399408E+02  0.29943593426E+02 -0.23125215766E+02  0.42822306904E+02  0.47000000000E+01 0.  1.
<mgrwt>
<rscale>  2 0.29723663E+03</rscale>
<asrwt>0</asrwt>
<pdfrwt beam="1">  1       21 0.39889484E-01 0.29848180E+03</pdfrwt>
<pdfrwt beam="2">  1       21 0.52618654E-01 0.29848180E+03</pdfrwt>
<totfact> 0.19681663E+04</totfact>
</mgrwt>
</event>
<event>
12    1  0.2762290E-001  0.1926513E+03  0.7546771E-02  0.1156441E+00
         21   -1    0    0  504  503  0.00000000000E+00  0.00000000000E+00  0.75298205635E+02  0.75298205635E+02  0.00000000000E+00 0. -1.
         21   -1    0    0  502  504 -0.00000000000E+00 -0.00000000000E+00 -0.10669191251E+04  0.10669191251E+04  0.00000000000E+00 0. -1.
          6    2    1    2  502    0 -0.81919921400E+02 -0.21608851231E+02 -0.91710788569E+03  0.93712400542E+03  0.17302228632E+03 0.  0.
         24    2    3    3    0    0  0.12486019978E+02  0.25384157719E+02 -0.36207295774E+03  0.37214021282E+03  0.81186545137E+02 0.  0.
         -6    2    1    2    0  503  0.81919921400E+02  0.21608851231E+02 -0.74513033728E+02  0.20509332527E+03  0.17126956502E+03 0.  0.
        -24    2    5    5    0    0  0.19390666523E+02  0.20160257895E+02 -0.10514178156E+03  0.13529206216E+03  0.80415880934E+02 0.  0.
          4    1    4    4  501    0  0.12284738300E+02 -0.33885415352E+01 -0.32481612873E+03  0.32506601559E+03  0.00000000000E+00 0. -1.
         -3    1    4    4    0  501  0.20128167887E+00  0.28772699255E+02 -0.37256829011E+02  0.47074197228E+02  0.00000000000E+00 0.  1.
          5    1    3    3  502    0 -0.94405941379E+02 -0.46993008951E+02 -0.55503492795E+03  0.56498379260E+03  0.47000000000E+01 0. -1.
         13    1    6    6    0    0  0.22553191047E+02 -0.77713006949E+00  0.50162213216E+01  0.23117370826E+02  0.00000000000E+00 0. -1.
        -14    1    6    6    0    0 -0.31625245243E+01  0.20937387964E+02 -0.11015800288E+03  0.11217469133E+03  0.00000000000E+00 0.  1.
         -5    1    5    5    0  503  0.62529254877E+02  0.14485933368E+01  0.30628747834E+02  0.69801263112E+02  0.47000000000E+01 0.  1.
<mgrwt>
<rscale>  2 0.19225696E+03</rscale>
<asrwt>0</asrwt>
<pdfrwt beam="1">  1       21 0.11584340E-01 0.19265131E+03</pdfrwt>
<pdfrwt beam="2">  1       21 0.16414139E+00 0.19265131E+03</pdfrwt>
<totfact> 0.14678968E+04</totfact>
</mgrwt>
</event>
<event>
12    1  0.2762290E-001  0.2082747E+03  0.7546771E-02  0.1143124E+00
         21   -1    0    0  504  503  0.00000000000E+00  0.00000000000E+00  0.26900582673E+03  0.26900582673E+03  0.00000000000E+00 0. -1.
         21   -1    0    0  502  504 -0.00000000000E+00 -0.00000000000E+00 -0.54514716941E+03  0.54514716941E+03  0.00000000000E+00 0. -1.
          6    2    1    2  502    0 -0.70453198361E+02 -0.92953373852E+02 -0.47990145445E+03  0.52278291253E+03  0.17144265741E+03 0.  0.
         24    2    3    3    0    0 -0.86977010474E+02 -0.47625089270E+02 -0.19102535301E+03  0.22986793898E+03  0.80718240796E+02 0.  0.
         -6    2    1    2    0  503  0.70453198361E+02  0.92953373852E+02  0.20376011176E+03  0.29137008361E+03  0.17255248364E+03 0.  0.
        -24    2    5    5    0    0  0.83519847759E+02  0.11397599953E+03  0.20590152892E+03  0.26608443978E+03  0.91866185517E+02 0.  0.
          4    1    4    4  501    0 -0.93759411814E+02 -0.43001239217E+02 -0.19511051521E+03  0.22069899643E+03  0.00000000000E+00 0. -1.
         -3    1    4    4    0  501  0.67824013398E+01 -0.46238500522E+01  0.40851622013E+01  0.91689425481E+01  0.00000000000E+00 0.  1.
          5    1    3    3  502    0  0.16523812113E+02 -0.45328284582E+02 -0.28887610144E+03  0.29291497355E+03  0.47000000000E+01 0. -1.
         11    1    6    6    0    0  0.57649863967E+02  0.83361019335E+01  0.55320725787E+02  0.80332932926E+02  0.00000000000E+00 0. -1.
        -12    1    6    6    0    0  0.25869983793E+02  0.10563989759E+03  0.15058080313E+03  0.18575150685E+03  0.00000000000E+00 0.  1.
         -5    1    5    5    0  503 -0.13066649398E+02 -0.21022625675E+02 -0.21414171579E+01  0.25285643836E+02  0.47000000000E+01 0.  1.
<mgrwt>
<rscale>  2 0.20804466E+03</rscale>
<asrwt>0</asrwt>
<pdfrwt beam="1">  1       21 0.41385512E-01 0.20827468E+03</pdfrwt>
<pdfrwt beam="2">  1       21 0.83868794E-01 0.20827468E+03</pdfrwt>
<totfact> 0.68667982E+03</totfact>
</mgrwt>
</event>
<event>
12    1  0.2762290E-001  0.1770633E+03  0.7546771E-02  0.1171817E+00
         21   -1    0    0  504  503  0.00000000000E+00  0.00000000000E+00  0.57968033337E+03  0.57968033337E+03  0.00000000000E+00 0. -1.
         21   -1    0    0  502  504 -0.00000000000E+00 -0.00000000000E+00 -0.63449231872E+02  0.63449231872E+02  0.00000000000E+00 0. -1.
          6    2    1    2  502    0 -0.34806828419E+02  0.16658254301E+02  0.12299195472E+03  0.21186580775E+03  0.16814008097E+03 0.  0.
         24    2    3    3    0    0 -0.57358068441E+02  0.51771583024E+02  0.40542445092E+02  0.11933734771E+03  0.81409261634E+02 0.  0.
         -6    2    1    2    0  503  0.34806828419E+02 -0.16658254301E+02  0.39323914678E+03  0.43126375749E+03  0.17280737607E+03 0.  0.
        -24    2    5    5    0    0 -0.85458763182E+01  0.51758217051E+02  0.20286748252E+03  0.22432480245E+03  0.80090302135E+02 0.  0.
          2    1    4    4  501    0  0.13580771543E+02  0.22614719533E+02 -0.91823507507E+01  0.27931674861E+02  0.00000000000E+00 0. -1.
         -1    1    4    4    0  501 -0.70938839984E+02  0.29156863492E+02  0.49724795843E+02  0.91405672847E+02  0.00000000000E+00 0.  1.
          5    1    3    3  502    0  0.22551240022E+02 -0.35113328723E+02  0.82449509628E+02  0.92528460046E+02  0.47000000000E+01 0. -1.
         11    1    6    6    0    0  0.12742869536E+02  0.65667106903E+02  0.11701393661E+03  0.13478431294E+03  0.00000000000E+00 0. -1.
        -12    1    6    6    0    0 -0.21288745854E+02 -0.13908889852E+02  0.85853545904E+02  0.89540489508E+02  0.00000000000E+00 0.  1.
         -5    1    5    5    0  503  0.43352704737E+02 -0.68416471352E+02  0.19037166426E+03  0.20693895504E+03  0.47000000000E+01 0.  1.
<mgrwt>
<rscale>  2 0.17591410E+03</rscale>
<asrwt>0</asrwt>
<pdfrwt beam="1">  1       21 0.89181586E-01 0.17706327E+03</pdfrwt>
<pdfrwt beam="2">  1       21 0.97614207E-02 0.17706327E+03</pdfrwt>
<totfact> 0.91450766E+04</totfact>
</mgrwt>
</event>
<event>
12    1  0.2762290E-001  0.2180203E+03  0.7546771E-02  0.1135606E+00
         21   -1    0    0  504  503  0.00000000000E+00  0.00000000000E+00  0.47858925205E+03  0.47858925205E+03  0.00000000000E+00 0. -1.
         21   -1    0    0  502  504 -0.00000000000E+00 -0.00000000000E+00 -0.18238645003E+03  0.18238645003E+03  0.00000000000E+00 0.  1.
          6    2    1    2  502    0  0.94792758371E+02 -0.92862270886E+02 -0.75469540504E+02  0.23071301862E+03  0.17298490404E+03 0.  0.
         24    2    3    3    0    0  0.13261899017E+03 -0.55605703345E+02 -0.58994198885E+02  0.17492410827E+03  0.80239250717E+02 0.  0.
         -6    2    1    2    0  503 -0.94792758371E+02  0.92862270886E+02  0.37167234252E+03  0.43026268345E+03  0.17139596899E+03 0.  0.
        -24    2    5    5    0    0 -0.59812690285E+02 -0.20979716900E+02  0.12356226336E+03  0.15500951866E+03  0.68866621156E+02 0.  0.
          2    1    4    4  501    0  0.13303111773E+03 -0.26617812065E+02 -0.49562989733E+02  0.14443779337E+03  0.00000000000E+00 0. -1.
         -1    1    4    4    0  501 -0.41212756373E+00 -0.28987891280E+02 -0.94312091520E+01  0.30486314898E+02  0.00000000000E+00 0.  1.
          5    1    3    3  502    0 -0.37826231795E+02 -0.37256567541E+02 -0.16475341619E+02  0.55788910352E+02  0.47000000000E+01 0. -1.
         13    1    6    6    0    0 -0.57597638785E+02 -0.24916863395E+02  0.13159539266E+03  0.14579329698E+03  0.00000000000E+00 0. -1.
        -14    1    6    6    0    0 -0.22150515001E+01  0.39371464954E+01 -0.80331293029E+01  0.92162216808E+01  0.00000000000E+00 0.  1.
         -5    1    5    5    0  503 -0.34980068086E+02  0.11384198779E+03  0.24811007916E+03  0.27525316479E+03  0.47000000000E+01 0.  1.
<mgrwt>
<rscale>  2 0.21770496E+03</rscale>
<asrwt>0</asrwt>
<pdfrwt beam="1">  1       21 0.73629115E-01 0.21802029E+03</pdfrwt>
<pdfrwt beam="2">  1       21 0.28059454E-01 0.21802029E+03</pdfrwt>
<totfact> 0.19802006E+04</totfact>
</mgrwt>
</event>
<event>
12    1  0.2762290E-001  0.1821888E+03  0.7546771E-02  0.1166002E+00
         21   -1    0    0  504  503  0.00000000000E+00  0.00000000000E+00  0.84865115359E+02  0.84865115359E+02  0.00000000000E+00 0. -1.
         21   -1    0    0  502  504 -0.00000000000E+00 -0.00000000000E+00 -0.38859027238E+03  0.38859027238E+03  0.00000000000E+00 0. -1.
          6    2    1    2  502    0  0.39190093012E+02  0.38539486900E+02 -0.15612422626E+03  0.23897978726E+03  0.17238158037E+03 0.  0.
         24    2    3    3    0    0  0.33033163873E+02 -0.41264599934E+01 -0.17231754147E+03  0.19269151382E+03  0.79551661281E+02 0.  0.
         -6    2    1    2    0  503 -0.39190093012E+02 -0.38539486900E+02 -0.14760093075E+03  0.23447560047E+03  0.17369978992E+03 0.  0.
        -24    2    5    5    0    0  0.27002082118E+02  0.10761161838E+02 -0.12177948468E+03  0.14786846975E+03  0.78676085413E+02 0.  0.
          2    1    4    4  501    0 -0.12936825866E+02 -0.27076548618E+02 -0.96859693250E+02  0.10140168206E+03  0.00000000000E+00 0. -1.
         -1    1    4    4    0  501  0.45969989739E+02  0.22950088624E+02 -0.75457848221E+02  0.91289831759E+02  0.00000000000E+00 0.  1.
          5    1    3    3  502    0  0.61569291390E+01  0.42665946894E+02  0.16193315205E+02  0.46288273440E+02  0.47000000000E+01 0. -1.
         13    1    6    6    0    0 -0.79179725453E+01 -0.12296669335E+02 -0.99291487546E+02  0.10036285102E+03  0.00000000000E+00 0. -1.
        -14    1    6    6    0    0  0.34920054663E+02  0.23057831173E+02 -0.22487997131E+02  0.47505618731E+02  0.00000000000E+00 0.  1.
         -5    1    5    5    0  503 -0.66192175130E+02 -0.49300648738E+02 -0.25821446076E+02  0.86607130722E+02  0.47000000000E+01 0.  1.
<mgrwt>
<rscale>  2 0.18187393E+03</rscale>
<asrwt>0</asrwt>
<pdfrwt beam="1">  1       21 0.13056172E-01 0.18218884E+03</pdfrwt>
<pdfrwt beam="2">  1       21 0.59783119E-01 0.18218884E+03</pdfrwt>
<totfact> 0.13219117E+05</totfact>
</mgrwt>
</event>
<event>
12    1  0.2762290E-001  0.1837315E+03  0.7546771E-02  0.1164465E+00
         21   -1    0    0  504  503  0.00000000000E+00  0.00000000000E+00  0.71584988035E+02  0.71584988035E+02  0.00000000000E+00 0. -1.
         21   -1    0    0  502  504 -0.00000000000E+00 -0.00000000000E+00 -0.63030725176E+03  0.63030725176E+03  0.00000000000E+00 0.  1.
          6    2    1    2  502    0  0.57122542658E+02  0.22563349211E+02 -0.45736921929E+03  0.49289337634E+03  0.17316231715E+03 0.  0.
         24    2    3    3    0    0 -0.18427456357E+01  0.25506939220E+02 -0.40406328175E+03  0.41321161605E+03  0.82599662977E+02 0.  0.
         -6    2    1    2    0  503 -0.57122542658E+02 -0.22563349211E+02 -0.10135304444E+03  0.20899886346E+03  0.17215108394E+03 0.  0.
        -24    2    5    5    0    0  0.30108288712E+02  0.16232639395E+02 -0.40795165514E+02  0.95845457085E+02  0.79700053222E+02 0.  0.
          4    1    4    4  501    0 -0.19864782918E+02  0.47037532447E+02 -0.17092331400E+03  0.17838699036E+03  0.00000000000E+00 0. -1.
         -3    1    4    4    0  501  0.18022037282E+02 -0.21530593227E+02 -0.23313996774E+03  0.23482462569E+03  0.00000000000E+00 0.  1.
          5    1    3    3  502    0  0.58965288294E+02 -0.29435900090E+01 -0.53305937540E+02  0.79681760289E+02  0.47000000000E+01 0. -1.
         13    1    6    6    0    0  0.20919564583E+02  0.36690179110E+02  0.72231784809E+01  0.42848240721E+02  0.00000000000E+00 0. -1.
        -14    1    6    6    0    0  0.91887241289E+01 -0.20457539715E+02 -0.48018343995E+02  0.52997216364E+02  0.00000000000E+00 0.  1.
         -5    1    5    5    0  503 -0.87230831371E+02 -0.38795988606E+02 -0.60557878925E+02  0.11315340637E+03  0.47000000000E+01 0.  1.
<mgrwt>
<rscale>  2 0.18349289E+03</rscale>
<asrwt>0</asrwt>
<pdfrwt beam="1">  1       21 0.11013075E-01 0.18373154E+03</pdfrwt>
<pdfrwt beam="2">  1       21 0.96970349E-01 0.18373154E+03</pdfrwt>
<totfact> 0.60625947E+04</totfact>
</mgrwt>
</event>
<event>
12    1  0.2762290E-001  0.1825343E+03  0.7546771E-02  0.1166489E+00
         21   -1    0    0  504  503  0.00000000000E+00  0.00000000000E+00  0.66491457824E+02  0.66491457824E+02  0.00000000000E+00 0.  1.
         21   -1    0    0  502  504 -0.00000000000E+00 -0.00000000000E+00 -0.48882894544E+03  0.48882894544E+03  0.00000000000E+00 0.  1.
          6    2    1    2  502    0  0.37268889221E+02 -0.17084892844E+02 -0.20077815817E+03  0.26825365624E+03  0.17311063405E+03 0.  0.
         24    2    3    3    0    0  0.24619352063E+02 -0.68048070502E+02 -0.18325047534E+03  0.21269678509E+03  0.80140709244E+02 0.  0.
         -6    2    1    2    0  503 -0.37268889221E+02  0.17084892844E+02 -0.22155932944E+03  0.28706674702E+03  0.17787050659E+03 0.  0.
        -24    2    5    5    0    0 -0.11590821976E+02  0.47247044113E+02 -0.28063857351E+02  0.89502311388E+02  0.69688258141E+02 0.  0.
          4    1    4    4  501    0  0.42578395613E+02 -0.54841109144E+02 -0.17608895197E+03  0.18928229191E+03  0.00000000000E+00 0. -1.
         -3    1    4    4    0  501 -0.17959043550E+02 -0.13206961358E+02 -0.71615233670E+01  0.23414493172E+02  0.00000000000E+00 0.  1.
          5    1    3    3  502    0  0.12649537159E+02  0.50963177659E+02 -0.17527682831E+02  0.55556871158E+02  0.47000000000E+01 0. -1.
         11    1    6    6    0    0 -0.23509548406E+02 -0.10679424751E+02 -0.74891299788E+01  0.26885610410E+02  0.00000000000E+00 0. -1.
        -12    1    6    6    0    0  0.11918726431E+02  0.57926468865E+02 -0.20574727372E+02  0.62616700977E+02  0.00000000000E+00 0.  1.
         -5    1    5    5    0  503 -0.25678067246E+02 -0.30162151270E+02 -0.19349547209E+03  0.19756443563E+03  0.47000000000E+01 0.  1.
<mgrwt>
<rscale>  2 0.18136437E+03</rscale>
<asrwt>0</asrwt>
<pdfrwt beam="1">  1       21 0.10229455E-01 0.18253433E+03</pdfrwt>
<pdfrwt beam="2">  1       21 0.75204456E-01 0.18253433E+03</pdfrwt>
<totfact> 0.12364387E+05</totfact>
</mgrwt>
</event>
<event>
12    1  0.2762290E-001  0.2136677E+03  0.7546771E-02  0.1138886E+00
         21   -1    0    0  504  503  0.00000000000E+00  0.00000000000E+00  0.91765761734E+03  0.91765761734E+03  0.00000000000E+00 0. -1.
         21   -1    0    0  502  504 -0.00000000000E+00 -0.00000000000E+00 -0.13463581104E+03  0.13463581104E+03  0.00000000000E+00 0. -1.
          6    2    1    2  502    0  0.36401768847E+02  0.11887379758E+03 -0.27163949044E+02  0.21440629779E+03  0.17255756105E+03 0.  0.
         24    2    3    3    0    0 -0.13758975555E+02  0.15251006700E+02  0.28260406227E+02  0.86548047264E+02  0.79183403005E+02 0.  0.
         -6    2    1    2    0  503 -0.36401768847E+02 -0.11887379758E+03  0.81018575535E+03  0.83788713059E+03  0.17377519074E+03 0.  0.
        -24    2    5    5    0    0 -0.76032738404E+02 -0.28345291167E+02  0.40831711614E+03  0.42401937708E+03  0.80530317036E+02 0.  0.
          2    1    4    4  501    0 -0.21202881622E+02 -0.29554901938E+02  0.13248692470E+02  0.38711526317E+02  0.00000000000E+00 0. -1.
         -1    1    4    4    0  501  0.74439060665E+01  0.44805908638E+02  0.15011713757E+02  0.47836520947E+02  0.00000000000E+00 0.  1.
          5    1    3    3  502    0  0.50160744402E+02  0.10362279088E+03 -0.55424355271E+02  0.12785825052E+03  0.47000000000E+01 0. -1.
         13    1    6    6    0    0 -0.37791745129E+02 -0.50327859555E+02  0.30905212150E+03  0.31539550290E+03  0.00000000000E+00 0. -1.
        -14    1    6    6    0    0 -0.38240993274E+02  0.21982568388E+02  0.99264994646E+02  0.10862387418E+03  0.00000000000E+00 0.  1.
         -5    1    5    5    0  503  0.39630969557E+02 -0.90528506416E+02  0.40186863921E+03  0.41386775352E+03  0.47000000000E+01 0.  1.
<mgrwt>
<rscale>  2 0.21341999E+03</rscale>
<asrwt>0</asrwt>
<pdfrwt beam="1">  1       21 0.14117809E+00 0.21366770E+03</pdfrwt>
<pdfrwt beam="2">  1       21 0.20713202E-01 0.21366770E+03</pdfrwt>
<totfact> 0.74492793E+03</totfact>
</mgrwt>
</event>
<event>
12    1  0.2762290E-001  0.1855405E+03  0.7546771E-02  0.1162938E+00
         21   -1    0    0  504  503  0.00000000000E+00  0.00000000000E+00  0.31907079362E+02  0.31907079362E+02  0.00000000000E+00 0. -1.
         21   -1    0    0  502  504 -0.00000000000E+00 -0.00000000000E+00 -0.15236273424E+04  0.15236273424E+04  0.00000000000E+00 0. -1.
          6    2    1    2  502    0 -0.16651659960E+02 -0.58370669091E+02 -0.11729941055E+04  0.11875775579E+04  0.17533074999E+03 0.  0.
         24    2    3    3    0    0 -0.17915379713E+02 -0.10742165164E+03 -0.81275223031E+03  0.82397902317E+03  0.80714748824E+02 0.  0.
         -6    2    1    2    0  503  0.16651659960E+02  0.58370669091E+02 -0.31872615760E+03  0.36795686384E+03  0.17355540130E+03 0.  0.
        -24    2    5    5    0    0  0.73337735835E+02  0.24670989603E+02 -0.15089634465E+03  0.18757417146E+03  0.80170329581E+02 0.  0.
          2    1    4    4  501    0  0.10243722413E+02 -0.75278381170E+02 -0.68649631538E+03  0.69068730954E+03  0.00000000000E+00 0. -1.
         -1    1    4    4    0  501 -0.28159102125E+02 -0.32143270471E+02 -0.12625591492E+03  0.13329171363E+03  0.00000000000E+00 0.  1.
          5    1    3    3  502    0  0.12637197530E+01  0.49050982550E+02 -0.36024187515E+03  0.36359853478E+03  0.47000000000E+01 0. -1.
         11    1    6    6    0    0  0.84434234158E+02  0.35376710294E+02 -0.14410766655E+03  0.17072689035E+03  0.00000000000E+00 0. -1.
        -12    1    6    6    0    0 -0.11096498322E+02 -0.10705720691E+02 -0.67886780964E+01  0.16847281111E+02  0.00000000000E+00 0.  1.
         -5    1    5    5    0  503 -0.56686075875E+02  0.33699679489E+02 -0.16782981295E+03  0.18038269238E+03  0.47000000000E+01 0.  1.
<mgrwt>
<rscale>  2 0.18511991E+03</rscale>
<asrwt>0</asrwt>
<pdfrwt beam="1">  1       21 0.49087816E-02 0.18554052E+03</pdfrwt>
<pdfrwt beam="2">  1       21 0.23440420E+00 0.18554052E+03</pdfrwt>
<totfact> 0.22968658E+04</totfact>
</mgrwt>
</event>
<event>
12    1  0.2762290E-001  0.2132494E+03  0.7546771E-02  0.1142127E+00
         21   -1    0    0  504  503  0.00000000000E+00  0.00000000000E+00  0.15428178070E+03  0.15428178070E+03  0.00000000000E+00 0. -1.
         21   -1    0    0  502  504 -0.00000000000E+00 -0.00000000000E+00 -0.55962519601E+03  0.55962519601E+03  0.00000000000E+00 0. -1.
          6    2    1    2  502    0  0.92904094242E+02  0.88750559465E+01 -0.46136788901E+03  0.50826730630E+03  0.19174302673E+03 0.  0.
         24    2    3    3    0    0  0.43418381548E+02 -0.74089927442E+02 -0.19536798968E+03  0.22523009907E+03  0.72010227976E+02 0.  0.
         -6    2    1    2    0  503 -0.92904094242E+02 -0.88750559465E+01  0.56024473707E+02  0.20563967040E+03  0.17446774786E+03 0.  0.
        -24    2    5    5    0    0 -0.77633686334E+02 -0.63138619744E+01 -0.31026821762E+02  0.11709723360E+03  0.81744995816E+02 0.  0.
          2    1    4    4  501    0 -0.73550012221E+01 -0.24339347458E+02 -0.11132571266E+02  0.27756693259E+02  0.00000000000E+00 0. -1.
         -1    1    4    4    0  501  0.50773382770E+02 -0.49750579984E+02 -0.18423541841E+03  0.19747340581E+03  0.00000000000E+00 0.  1.
          5    1    3    3  502    0  0.49485712694E+02  0.82964983388E+02 -0.26599989934E+03  0.28303720723E+03  0.47000000000E+01 0. -1.
         11    1    6    6    0    0 -0.66535817558E+02  0.26675678391E+02 -0.18959779036E+01  0.71709145637E+02  0.00000000000E+00 0. -1.
        -12    1    6    6    0    0 -0.11097868776E+02 -0.32989540366E+02 -0.29130843859E+02  0.45388087962E+02  0.00000000000E+00 0.  1.
         -5    1    5    5    0  503 -0.15270407907E+02 -0.25611939721E+01  0.87051295469E+02  0.88542436804E+02  0.47000000000E+01 0.  1.
<mgrwt>
<rscale>  2 0.20929359E+03</rscale>
<asrwt>0</asrwt>
<pdfrwt beam="1">  1       21 0.23735658E-01 0.21324944E+03</pdfrwt>
<pdfrwt beam="2">  1       21 0.86096185E-01 0.21324944E+03</pdfrwt>
<totfact> 0.19213726E+04</totfact>
</mgrwt>
</event>
<event>
12    1  0.2762290E-001  0.1952533E+03  0.7546771E-02  0.1154219E+00
         21   -1    0    0  504  503  0.00000000000E+00  0.00000000000E+00  0.79902732864E+02  0.79902732864E+02  0.00000000000E+00 0.  1.
         21   -1    0    0  502  504 -0.00000000000E+00 -0.00000000000E+00 -0.57208472231E+03  0.57208472231E+03  0.00000000000E+00 0.  1.
          6    2    1    2  502    0  0.29468238720E+02  0.80888194710E+02 -0.38108975349E+03  0.42734255528E+03  0.17315017240E+03 0.  0.
         24    2    3    3    0    0 -0.18775747330E+01  0.93777495429E+02 -0.37153900907E+03  0.39181790450E+03  0.81745281737E+02 0.  0.
         -6    2    1    2    0  503 -0.29468238720E+02 -0.80888194710E+02 -0.11109223596E+03  0.22464489990E+03  0.17525001861E+03 0.  0.
        -24    2    5    5    0    0 -0.29965003068E+02 -0.11348244816E+03 -0.38017287165E+02  0.14449085899E+03  0.75207225447E+02 0.  0.
          2    1    4    4  501    0 -0.13915026494E+02  0.48995892615E+02 -0.69091602702E+02  0.85836326922E+02  0.00000000000E+00 0. -1.
         -1    1    4    4    0  501  0.12037451761E+02  0.44781602814E+02 -0.30244740637E+03  0.30598157758E+03  0.00000000000E+00 0.  1.
          5    1    3    3  502    0  0.31345813453E+02 -0.12889300719E+02 -0.95507444137E+01  0.35524650779E+02  0.47000000000E+01 0. -1.
         13    1    6    6    0    0 -0.11935853303E+02  0.44022081084E+01 -0.20256658879E+02  0.23920206087E+02  0.00000000000E+00 0. -1.
        -14    1    6    6    0    0 -0.18029149765E+02 -0.11788465627E+03 -0.17760628286E+02  0.12057065290E+03  0.00000000000E+00 0.  1.
         -5    1    5    5    0  503  0.49676434765E+00  0.32594253448E+02 -0.73074948792E+02  0.80154040907E+02  0.47000000000E+01 0.  1.
<mgrwt>
<rscale>  2 0.19478095E+03</rscale>
<asrwt>0</asrwt>
<pdfrwt beam="1">  1       21 0.12292728E-01 0.19525329E+03</pdfrwt>
<pdfrwt beam="2">  1       21 0.88013034E-01 0.19525329E+03</pdfrwt>
<totfact> 0.62095012E+04</totfact>
</mgrwt>
</event>
<event>
12    1  0.2762290E-001  0.2156338E+03  0.7546771E-02  0.1137408E+00
         21   -1    0    0  504  503  0.00000000000E+00  0.00000000000E+00  0.52243016982E+03  0.52243016982E+03  0.00000000000E+00 0. -1.
         21   -1    0    0  502  504 -0.00000000000E+00 -0.00000000000E+00 -0.19740117433E+03  0.19740117433E+03  0.00000000000E+00 0. -1.
          6    2    1    2  502    0 -0.15652247017E+02 -0.12575503584E+03 -0.10459330613E+03  0.23966164161E+03  0.17446667561E+03 0.  0.
         24    2    3    3    0    0 -0.22155723541E+02 -0.41257068464E+02  0.15954802994E+02  0.92229832596E+02  0.77838065869E+02 0.  0.
         -6    2    1    2    0  503  0.15652247017E+02  0.12575503584E+03  0.42962230162E+03  0.48016970254E+03  0.17299797488E+03 0.  0.
        -24    2    5    5    0    0  0.70971454669E+00  0.15903933756E+03  0.38508651091E+03  0.42240595377E+03  0.69578404013E+02 0.  0.
          4    1    4    4  501    0 -0.17013287009E+02 -0.26370990474E+02  0.47523547617E+02  0.56950580783E+02  0.00000000000E+00 0. -1.
         -3    1    4    4    0  501 -0.51424365319E+01 -0.14886077990E+02 -0.31568744623E+02  0.35279251813E+02  0.00000000000E+00 0.  1.
          5    1    3    3  502    0  0.65034765238E+01 -0.84497967371E+02 -0.12054810912E+03  0.14743180901E+03  0.47000000000E+01 0. -1.
         13    1    6    6    0    0 -0.31207914498E+02  0.56371494488E+02  0.11710024591E+03  0.13365682516E+03  0.00000000000E+00 0. -1.
        -14    1    6    6    0    0  0.31917629045E+02  0.10266784307E+03  0.26798626500E+03  0.28874912861E+03  0.00000000000E+00 0.  1.
         -5    1    5    5    0  503  0.14942532470E+02 -0.33284301727E+02  0.44535790710E+02  0.57763748772E+02  0.47000000000E+01 0.  1.
<mgrwt>
<rscale>  2 0.21533656E+03</rscale>
<asrwt>0</asrwt>
<pdfrwt beam="1">  1       21 0.80373872E-01 0.21563382E+03</pdfrwt>
<pdfrwt beam="2">  1       21 0.30369412E-01 0.21563382E+03</pdfrwt>
<totfact> 0.13954086E+04</totfact>
</mgrwt>
</event>
<event>
12    1  0.2762290E-001  0.2180423E+03  0.7546771E-02  0.1136282E+00
         21   -1    0    0  504  503  0.00000000000E+00  0.00000000000E+00  0.25062435842E+03  0.25062435842E+03  0.00000000000E+00 0.  1.
         21   -1    0    0  502  504 -0.00000000000E+00 -0.00000000000E+00 -0.36393374960E+03  0.36393374960E+03  0.00000000000E+00 0.  1.
          6    2    1    2  502    0 -0.11279650114E+03  0.57539943329E+02 -0.27214675602E+03  0.34872092346E+03  0.17750642213E+03 0.  0.
         24    2    3    3    0    0 -0.13816629649E+03  0.91929281979E+01 -0.17365860097E+03  0.23601303965E+03  0.79814846846E+02 0.  0.
         -6    2    1    2    0  503  0.11279650114E+03 -0.57539943329E+02  0.15883736484E+03  0.26583718456E+03  0.17148237367E+03 0.  0.
        -24    2    5    5    0    0  0.64763354764E+02  0.13691061970E+02  0.11026841984E+03  0.16703398783E+03  0.10658091470E+03 0.  0.
          2    1    4    4  501    0 -0.98919588053E+02 -0.19360546176E+02 -0.73609052642E+02  0.12481269278E+03  0.00000000000E+00 0. -1.
         -1    1    4    4    0  501 -0.39246708442E+02  0.28553474374E+02 -0.10004954833E+03  0.11120034687E+03  0.00000000000E+00 0.  1.
          5    1    3    3  502    0  0.25369795354E+02  0.48347015132E+02 -0.98488155047E+02  0.11270788381E+03  0.47000000000E+01 0. -1.
         11    1    6    6    0    0  0.31952668767E+02 -0.26540307318E+02 -0.37966624516E+01  0.41710617349E+02  0.00000000000E+00 0. -1.
        -12    1    6    6    0    0  0.32810685998E+02  0.40231369288E+02  0.11406508229E+03  0.12532337048E+03  0.00000000000E+00 0.  1.
         -5    1    5    5    0  503  0.48033146376E+02 -0.71231005300E+02  0.48568944997E+02  0.98803196734E+02  0.47000000000E+01 0.  1.
<mgrwt>
<rscale>  2 0.21681305E+03</rscale>
<asrwt>0</asrwt>
<pdfrwt beam="1">  1       21 0.38557594E-01 0.21804226E+03</pdfrwt>
<pdfrwt beam="2">  1       21 0.55989808E-01 0.21804226E+03</pdfrwt>
<totfact> 0.19191422E+04</totfact>
</mgrwt>
</event>
<event>
12    1  0.2762290E-001  0.2318140E+03  0.7546771E-02  0.1125848E+00
         21   -1    0    0  504  503  0.00000000000E+00  0.00000000000E+00  0.10104730969E+03  0.10104730969E+03  0.00000000000E+00 0.  1.
         21   -1    0    0  502  504 -0.00000000000E+00 -0.00000000000E+00 -0.62539057519E+03  0.62539057519E+03  0.00000000000E+00 0. -1.
          6    2    1    2  502    0 -0.10682448541E+03 -0.10702205861E+03 -0.40598110115E+03  0.46615472477E+03  0.17208829484E+03 0.  0.
         24    2    3    3    0    0 -0.11328990606E+03 -0.22956886706E+02 -0.29234568767E+03  0.32457841323E+03  0.80768333985E+02 0.  0.
         -6    2    1    2    0  503  0.10682448541E+03  0.10702205861E+03 -0.11836216435E+03  0.26028316011E+03  0.17570580462E+03 0.  0.
        -24    2    5    5    0    0  0.14780594390E+03  0.78365355985E+02 -0.96059226618E+02  0.20532683585E+03  0.70313643267E+02 0.  0.
          2    1    4    4  501    0 -0.80065730347E+02 -0.49879046406E+02 -0.23351114375E+03  0.25184498149E+03  0.00000000000E+00 0. -1.
         -1    1    4    4    0  501 -0.33224175718E+02  0.26922159699E+02 -0.58834543925E+02  0.72733431748E+02  0.00000000000E+00 0.  1.
          5    1    3    3  502    0  0.64654206504E+01 -0.84065171899E+02 -0.11363541348E+03  0.14157631153E+03  0.47000000000E+01 0. -1.
         13    1    6    6    0    0  0.61503432062E+02 -0.13304946776E+01 -0.17326885244E+02  0.63911370848E+02  0.00000000000E+00 0. -1.
        -14    1    6    6    0    0  0.86302511842E+02  0.79695850662E+02 -0.78732341375E+02  0.14141546500E+03  0.00000000000E+00 0.  1.
         -5    1    5    5    0  503 -0.40981458489E+02  0.28656702621E+02 -0.22302937733E+02  0.54956324263E+02  0.47000000000E+01 0.  1.
<mgrwt>
<rscale>  2 0.23112850E+03</rscale>
<asrwt>0</asrwt>
<pdfrwt beam="1">  1       21 0.15545740E-01 0.23181398E+03</pdfrwt>
<pdfrwt beam="2">  1       21 0.96213933E-01 0.23181398E+03</pdfrwt>
<totfact> 0.32366762E+04</totfact>
</mgrwt>
</event>
<event>
12    1  0.2762290E-001  0.1808128E+03  0.7546771E-02  0.1167200E+00
         21   -1    0    0  504  503  0.00000000000E+00  0.00000000000E+00  0.11281450735E+03  0.11281450735E+03  0.00000000000E+00 0. -1.
         21   -1    0    0  502  504 -0.00000000000E+00 -0.00000000000E+00 -0.63376052782E+03  0.63376052782E+03  0.00000000000E+00 0. -1.
          6    2    1    2  502    0 -0.42638595997E+01  0.48564582422E+02 -0.53570943361E+03  0.56516054891E+03  0.17333536747E+03 0.  0.
         24    2    3    3    0    0 -0.61894093532E+02  0.62562721891E+02 -0.37998130934E+03  0.39845562858E+03  0.81462380979E+02 0.  0.
         -6    2    1    2    0  503  0.42638595997E+01 -0.48564582422E+02  0.14763413144E+02  0.18141448626E+03  0.17411650781E+03 0.  0.
        -24    2    5    5    0    0 -0.35541557190E+02  0.24495667903E+02  0.30018851275E+02  0.96696779868E+02  0.81153532095E+02 0.  0.
          2    1    4    4  501    0 -0.60100487085E+02  0.69216318416E+02 -0.38065004401E+03  0.39153214847E+03  0.00000000000E+00 0. -1.
         -1    1    4    4    0  501 -0.17936064462E+01 -0.66535965245E+01  0.66873466598E+00  0.69234801110E+01  0.00000000000E+00 0.  1.
          5    1    3    3  502    0  0.57630233932E+02 -0.13998139470E+02 -0.15572812427E+03  0.16670492032E+03  0.47000000000E+01 0. -1.
         11    1    6    6    0    0 -0.62032807783E+02  0.15686238535E+02  0.21733077600E+02  0.67575542786E+02  0.00000000000E+00 0. -1.
        -12    1    6    6    0    0  0.26491250593E+02  0.88094293683E+01  0.82857736749E+01  0.29121237082E+02  0.00000000000E+00 0.  1.
         -5    1    5    5    0  503  0.39805416790E+02 -0.73060250325E+02 -0.15255438132E+02  0.84717706390E+02  0.47000000000E+01 0.  1.
<mgrwt>
<rscale>  2 0.18062445E+03</rscale>
<asrwt>0</asrwt>
<pdfrwt beam="1">  1       21 0.17356078E-01 0.18081277E+03</pdfrwt>
<pdfrwt beam="2">  1       21 0.97501617E-01 0.18081277E+03</pdfrwt>
<totfact> 0.26350522E+04</totfact>
</mgrwt>
</event>
<event>
12    1  0.2762290E-001  0.1800181E+03  0.7546771E-02  0.1171774E+00
         21   -1    0    0  504  503  0.00000000000E+00  0.00000000000E+00  0.13210016687E+03  0.13210016687E+03  0.00000000000E+00 0.  1.
         21   -1    0    0  502  504 -0.00000000000E+00 -0.00000000000E+00 -0.35518889097E+03  0.35518889097E+03  0.00000000000E+00 0.  1.
          6    2    1    2  502    0 -0.46357875704E+02  0.13957950133E+02 -0.26251363578E+03  0.31830789782E+03  0.17338578902E+03 0.  0.
         24    2    3    3    0    0  0.71849154410E+01 -0.14642466836E+02 -0.47859453170E+02  0.95186131863E+02  0.80646435732E+02 0.  0.
         -6    2    1    2    0  503  0.46357875704E+02 -0.13957950133E+02  0.39424911672E+02  0.16898116001E+03  0.15702366627E+03 0.  0.
        -24    2    5    5    0    0  0.32094177298E+02 -0.45725841219E+02  0.71335600061E+02  0.12151502440E+03  0.80970640037E+02 0.  0.
          2    1    4    4  501    0  0.30749196498E+01 -0.10713694485E+01  0.22843943054E+02  0.23074849893E+02  0.00000000000E+00 0. -1.
         -1    1    4    4    0  501  0.41099957912E+01 -0.13571097387E+02 -0.70703396224E+02  0.72111281970E+02  0.00000000000E+00 0.  1.
          5    1    3    3  502    0 -0.53542791145E+02  0.28600416969E+02 -0.21465418261E+03  0.22312176596E+03  0.47000000000E+01 0. -1.
         11    1    6    6    0    0  0.30916748314E+01  0.10774825197E+02 -0.12206939101E+02  0.16573010393E+02  0.00000000000E+00 0. -1.
        -12    1    6    6    0    0  0.29002502466E+02 -0.56500666416E+02  0.83542539162E+02  0.10494201401E+03  0.00000000000E+00 0.  1.
         -5    1    5    5    0  503  0.14263698407E+02  0.31767891086E+02 -0.31910688389E+02  0.47466135610E+02  0.47000000000E+01 0.  1.
<mgrwt>
<rscale>  2 0.17595766E+03</rscale>
<asrwt>0</asrwt>
<pdfrwt beam="1">  1       21 0.20323103E-01 0.18001808E+03</pdfrwt>
<pdfrwt beam="2">  1       21 0.54644445E-01 0.18001808E+03</pdfrwt>
<totfact> 0.71221922E+04</totfact>
</mgrwt>
</event>
<event>
12    1  0.2762290E-001  0.1844014E+03  0.7546771E-02  0.1163733E+00
         21   -1    0    0  504  503  0.00000000000E+00  0.00000000000E+00  0.10296000761E+03  0.10296000761E+03  0.00000000000E+00 0.  1.
         21   -1    0    0  502  504 -0.00000000000E+00 -0.00000000000E+00 -0.40901174257E+03  0.40901174257E+03  0.00000000000E+00 0. -1.
          6    2    1    2  502    0 -0.18185487977E+02  0.57865776044E+02 -0.26619063739E+03  0.32382300064E+03  0.17413994458E+03 0.  0.
         24    2    3    3    0    0 -0.32662437158E+02  0.57860373195E+02 -0.66768941872E+02  0.12382128882E+03  0.80367669984E+02 0.  0.
         -6    2    1    2    0  503  0.18185487977E+02 -0.57865776044E+02 -0.39861097570E+02  0.18814874954E+03  0.17358538200E+03 0.  0.
        -24    2    5    5    0    0  0.20247633385E+02  0.28236093730E+02  0.10962696357E+02  0.88034152947E+02  0.80141048950E+02 0.  0.
          4    1    4    4  501    0  0.12231111333E+02 -0.47975884658E+01  0.88501943223E+01  0.15841176694E+02  0.00000000000E+00 0. -1.
         -3    1    4    4    0  501 -0.44893548490E+02  0.62657961661E+02 -0.75619136195E+02  0.10798011212E+03  0.00000000000E+00 0.  1.
          5    1    3    3  502    0  0.14476949181E+02  0.54028491358E-02 -0.19942169552E+03  0.20000171182E+03  0.47000000000E+01 0. -1.
         13    1    6    6    0    0 -0.24086736611E+02  0.32461299282E+02  0.15449448864E+02  0.43273459555E+02  0.00000000000E+00 0. -1.
        -14    1    6    6    0    0  0.44334369996E+02 -0.42252055523E+01 -0.44867525068E+01  0.44760693392E+02  0.00000000000E+00 0.  1.
         -5    1    5    5    0  503 -0.20621454085E+01 -0.86101869774E+02 -0.50823793927E+02  0.10011459660E+03  0.47000000000E+01 0.  1.
<mgrwt>
<rscale>  2 0.18427037E+03</rscale>
<asrwt>0</asrwt>
<pdfrwt beam="1">  1       21 0.15840001E-01 0.18440141E+03</pdfrwt>
<pdfrwt beam="2">  1       21 0.62924884E-01 0.18440141E+03</pdfrwt>
<totfact> 0.83331346E+04</totfact>
</mgrwt>
</event>
<event>
12    1  0.2762290E-001  0.2191168E+03  0.7546771E-02  0.1134720E+00
         21   -1    0    0  504  503  0.00000000000E+00  0.00000000000E+00  0.10504623198E+04  0.10504623198E+04  0.00000000000E+00 0. -1.
         21   -1    0    0  502  504 -0.00000000000E+00 -0.00000000000E+00 -0.54501690586E+02  0.54501690586E+02  0.00000000000E+00 0.  1.
          6    2    1    2  502    0  0.65144885335E+02 -0.11753859185E+03  0.27267886839E+03  0.34922021194E+03  0.17187732399E+03 0.  0.
         24    2    3    3    0    0  0.37860791669E+02 -0.12442317253E+03  0.12426006664E+03  0.19808434614E+03  0.82959499856E+02 0.  0.
         -6    2    1    2    0  503 -0.65144885335E+02  0.11753859185E+03  0.72328176087E+03  0.75574379849E+03  0.17306936959E+03 0.  0.
        -24    2    5    5    0    0 -0.59175991046E+02  0.10468208794E+03  0.30268879282E+03  0.33488580324E+03  0.77896459887E+02 0.  0.
          4    1    4    4  501    0 -0.24700066611E+02 -0.55159274822E+02  0.41211496844E+02  0.73150709918E+02  0.00000000000E+00 0. -1.
         -3    1    4    4    0  501  0.62560858280E+02 -0.69263897709E+02  0.83048569800E+02  0.12493363623E+03  0.00000000000E+00 0.  1.
          5    1    3    3  502    0  0.27284093665E+02  0.68845806803E+01  0.14841880175E+03  0.15113586580E+03  0.47000000000E+01 0. -1.
         11    1    6    6    0    0 -0.33356734378E+01  0.49226786317E+02  0.19717980397E+03  0.20325914075E+03  0.00000000000E+00 0. -1.
        -12    1    6    6    0    0 -0.55840317608E+02  0.55455301622E+02  0.10550898885E+03  0.13162666249E+03  0.00000000000E+00 0.  1.
         -5    1    5    5    0  503 -0.59688942888E+01  0.12856503911E+02  0.42059296805E+03  0.42085799525E+03  0.47000000000E+01 0.  1.
<mgrwt>
<rscale>  2 0.21888137E+03</rscale>
<asrwt>0</asrwt>
<pdfrwt beam="1">  1       21 0.16160957E+00 0.21911683E+03</pdfrwt>
<pdfrwt beam="2">  1       21 0.83848762E-02 0.21911683E+03</pdfrwt>
<totfact> 0.26632021E+04</totfact>
</mgrwt>
</event>
<event>
12    1  0.2762290E-001  0.1823686E+03  0.7546771E-02  0.1165665E+00
         21   -1    0    0  504  503  0.00000000000E+00  0.00000000000E+00  0.65042072062E+03  0.65042072062E+03  0.00000000000E+00 0.  1.
         21   -1    0    0  502  504 -0.00000000000E+00 -0.00000000000E+00 -0.32639800188E+03  0.32639800188E+03  0.00000000000E+00 0.  1.
          6    2    1    2  502    0 -0.15114151499E+02  0.55051770576E+02 -0.28660218335E+03  0.33970446868E+03  0.17320271221E+03 0.  0.
         24    2    3    3    0    0 -0.42074983941E+00 -0.35908771787E+02 -0.13567225365E+03  0.16281000862E+03  0.82525884269E+02 0.  0.
         -6    2    1    2    0  503  0.15114151499E+02 -0.55051770576E+02  0.61062490209E+03  0.63711425383E+03  0.17260552240E+03 0.  0.
        -24    2    5    5    0    0  0.14176698873E+02 -0.84415538847E+02  0.57715409607E+03  0.59233150537E+03  0.10209211354E+03 0.  0.
          4    1    4    4  501    0  0.15444720765E+02  0.16547839236E+02 -0.82325095254E+01  0.24086190981E+02  0.00000000000E+00 0. -1.
         -3    1    4    4    0  501 -0.15865470604E+02 -0.52456611023E+02 -0.12743974413E+03  0.13872381764E+03  0.00000000000E+00 0.  1.
          5    1    3    3  502    0 -0.14693401660E+02  0.90960542363E+02 -0.15092992970E+03  0.17689446005E+03  0.47000000000E+01 0. -1.
         11    1    6    6    0    0 -0.13677271042E+02  0.16794564704E+02  0.45232635241E+02  0.50150936558E+02  0.00000000000E+00 0. -1.
        -12    1    6    6    0    0  0.27853969915E+02 -0.10121010355E+03  0.53192146083E+03  0.54218056881E+03  0.00000000000E+00 0.  1.
         -5    1    5    5    0  503  0.93745262605E+00  0.29363768271E+02  0.33470806014E+02  0.44782748461E+02  0.47000000000E+01 0.  1.
<mgrwt>
<rscale>  2 0.18222669E+03</rscale>
<asrwt>0</asrwt>
<pdfrwt beam="1">  1       21 0.10006473E+00 0.18236862E+03</pdfrwt>
<pdfrwt beam="2">  1       21 0.50215077E-01 0.18236862E+03</pdfrwt>
<totfact> 0.31233397E+03</totfact>
</mgrwt>
</event>
<event>
12    1  0.2762290E-001  0.1813643E+03  0.7546771E-02  0.1167403E+00
         21   -1    0    0  504  503  0.00000000000E+00  0.00000000000E+00  0.10236434075E+03  0.10236434075E+03  0.00000000000E+00 0. -1.
         21   -1    0    0  502  504 -0.00000000000E+00 -0.00000000000E+00 -0.57011790499E+03  0.57011790499E+03  0.00000000000E+00 0. -1.
          6    2    1    2  502    0  0.52383234200E+02  0.14141511244E+02 -0.46029080661E+03  0.49473289305E+03  0.17305786098E+03 0.  0.
         24    2    3    3    0    0 -0.32063286516E+02  0.20943936898E+02 -0.28980279599E+03  0.30429723562E+03  0.84524814135E+02 0.  0.
         -6    2    1    2    0  503 -0.52383234200E+02 -0.14141511244E+02 -0.74627576286E+01  0.17774935269E+03  0.16910101734E+03 0.  0.
        -24    2    5    5    0    0 -0.40434791369E+02  0.53849871384E+02 -0.14886865026E+02  0.10815911797E+03  0.83318635667E+02 0.  0.
          4    1    4    4  501    0 -0.25740922987E+01  0.50746545983E+02 -0.15340190342E+03  0.16159821117E+03  0.00000000000E+00 0. -1.
         -3    1    4    4    0  501 -0.29489194218E+02 -0.29802609085E+02 -0.13640089257E+03  0.14269902445E+03  0.00000000000E+00 0.  1.
          5    1    3    3  502    0  0.84446520717E+02 -0.68024256544E+01 -0.17048801062E+03  0.19043565743E+03  0.47000000000E+01 0. -1.
         11    1    6    6    0    0 -0.58241823033E+02  0.43603751039E+02  0.12604324066E+02  0.73839461266E+02  0.00000000000E+00 0. -1.
        -12    1    6    6    0    0  0.17807031664E+02  0.10246120345E+02 -0.27491189093E+02  0.34319656708E+02  0.00000000000E+00 0.  1.
         -5    1    5    5    0  503 -0.11948442831E+02 -0.67991382628E+02  0.74241073978E+01  0.69590234720E+02  0.47000000000E+01 0.  1.
<mgrwt>
<rscale>  2 0.18041394E+03</rscale>
<asrwt>0</asrwt>
<pdfrwt beam="1">  1       21 0.15748360E-01 0.18136430E+03</pdfrwt>
<pdfrwt beam="2">  1       21 0.87710450E-01 0.18136430E+03</pdfrwt>
<totfact> 0.40254863E+04</totfact>
</mgrwt>
</event>
<event>
12    1  0.2762290E-001  0.1956046E+03  0.7546771E-02  0.1153876E+00
         21   -1    0    0  504  503  0.00000000000E+00  0.00000000000E+00  0.38619205858E+03  0.38619205858E+03  0.00000000000E+00 0.  1.
         21   -1    0    0  502  504 -0.00000000000E+00 -0.00000000000E+00 -0.11325282161E+03  0.11325282161E+03  0.00000000000E+00 0.  1.
          6    2    1    2  502    0  0.81055538099E+02 -0.39421504868E+02  0.44921686940E+02  0.19902325423E+03  0.17166316572E+03 0.  0.
         24    2    3    3    0    0  0.74074006287E+02  0.35303761560E+02  0.44800121637E+02  0.12382543507E+03  0.81193432514E+02 0.  0.
         -6    2    1    2    0  503 -0.81055538099E+02  0.39421504868E+02  0.22801755002E+03  0.30042162596E+03  0.17360038860E+03 0.  0.
        -24    2    5    5    0    0 -0.17341005620E+02  0.83999499142E+02  0.17424530151E+03  0.20576284965E+03  0.67972780324E+02 0.  0.
          2    1    4    4  501    0  0.22597383815E+02  0.52669255607E+02  0.72151680319E+01  0.57764616256E+02  0.00000000000E+00 0. -1.
         -1    1    4    4    0  501  0.51476622473E+02 -0.17365494047E+02  0.37584953605E+02  0.66060818812E+02  0.00000000000E+00 0.  1.
          5    1    3    3  502    0  0.69815318111E+01 -0.74725266428E+02  0.12156530331E+00  0.75197819166E+02  0.47000000000E+01 0. -1.
         13    1    6    6    0    0  0.24039529384E+02  0.13386752930E+02  0.40506605714E+02  0.48968247196E+02  0.00000000000E+00 0. -1.
        -14    1    6    6    0    0 -0.41380535004E+02  0.70612746212E+02  0.13373869580E+03  0.15679460245E+03  0.00000000000E+00 0.  1.
         -5    1    5    5    0  503 -0.63714532478E+02 -0.44577994274E+02  0.53772248514E+02  0.94658776311E+02  0.47000000000E+01 0.  1.
<mgrwt>
<rscale>  2 0.19517384E+03</rscale>
<asrwt>0</asrwt>
<pdfrwt beam="1">  1       21 0.59414162E-01 0.19560458E+03</pdfrwt>
<pdfrwt beam="2">  1       21 0.17423511E-01 0.19560458E+03</pdfrwt>
<totfact> 0.78800949E+04</totfact>
</mgrwt>
</event>
<event>
12    1  0.2762290E-001  0.1788332E+03  0.7546771E-02  0.1169837E+00
         21   -1    0    0  504  503  0.00000000000E+00  0.00000000000E+00  0.42345664405E+03  0.42345664405E+03  0.00000000000E+00 0.  1.
         21   -1    0    0  502  504 -0.00000000000E+00 -0.00000000000E+00 -0.12770977537E+03  0.12770977537E+03  0.00000000000E+00 0. -1.
          6    2    1    2  502    0 -0.18570072725E+02 -0.41415076579E+02 -0.31736516339E+02  0.17803548903E+03  0.16920216522E+03 0.  0.
         24    2    3    3    0    0 -0.76807930003E+02 -0.34709973380E+02 -0.29091939684E+02  0.11916537594E+03  0.79055711405E+02 0.  0.
         -6    2    1    2    0  503  0.18570072725E+02  0.41415076579E+02  0.32748338501E+03  0.37313093039E+03  0.17297765052E+03 0.  0.
        -24    2    5    5    0    0 -0.51349246090E+02  0.38598812690E+02  0.23650883251E+03  0.25826099660E+03  0.81459812739E+02 0.  0.
          4    1    4    4  501    0 -0.88814988725E+02 -0.37676461622E+02 -0.10791782457E+02  0.97077703677E+02  0.00000000000E+00 0. -1.
         -3    1    4    4    0  501  0.12007058722E+02  0.29664882414E+01 -0.18300157227E+02  0.22087672267E+02  0.00000000000E+00 0.  1.
          5    1    3    3  502    0  0.58237857278E+02 -0.67051031992E+01 -0.26445766553E+01  0.58870113087E+02  0.47000000000E+01 0. -1.
         13    1    6    6    0    0 -0.15152461000E+02  0.52199447174E+02  0.77778726215E+02  0.94888933029E+02  0.00000000000E+00 0. -1.
        -14    1    6    6    0    0 -0.36196785089E+02 -0.13600634484E+02  0.15873010630E+03  0.16337206357E+03  0.00000000000E+00 0.  1.
         -5    1    5    5    0  503  0.69919318815E+02  0.28162638892E+01  0.90974552501E+02  0.11486993379E+03  0.47000000000E+01 0.  1.
<mgrwt>
<rscale>  2 0.17791385E+03</rscale>
<asrwt>0</asrwt>
<pdfrwt beam="1">  1       21 0.65147175E-01 0.17883323E+03</pdfrwt>
<pdfrwt beam="2">  1       21 0.19647658E-01 0.17883323E+03</pdfrwt>
<totfact> 0.52089523E+04</totfact>
</mgrwt>
</event>
<event>
12    1  0.2762290E-001  0.2138906E+03  0.7546771E-02  0.1139737E+00
         21   -1    0    0  504  503  0.00000000000E+00  0.00000000000E+00  0.82565895152E+02  0.82565895152E+02  0.00000000000E+00 0. -1.
         21   -1    0    0  502  504 -0.00000000000E+00 -0.00000000000E+00 -0.77402201833E+03  0.77402201833E+03  0.00000000000E+00 0.  1.
          6    2    1    2  502    0 -0.10992220373E+03 -0.42126127181E+02 -0.57859759366E+03  0.61474860734E+03  0.17112326954E+03 0.  0.
         24    2    3    3    0    0  0.23465584721E+01 -0.57315527413E+02 -0.30285942803E+03  0.31660666325E+03  0.72286721081E+02 0.  0.
         -6    2    1    2    0  503  0.10992220373E+03  0.42126127181E+02 -0.11285852953E+03  0.24183930615E+03  0.17858247631E+03 0.  0.
        -24    2    5    5    0    0  0.43681823893E+02  0.60739729017E+01 -0.13421474953E+03  0.16331718262E+03  0.81938441920E+02 0.  0.
          2    1    4    4  501    0  0.21373049025E+01  0.16707273715E+02 -0.80718211291E+02  0.82456841446E+02  0.00000000000E+00 0. -1.
         -1    1    4    4    0  501  0.20925356959E+00 -0.74022801128E+02 -0.22214121674E+03  0.23414982180E+03  0.00000000000E+00 0.  1.
          5    1    3    3  502    0 -0.11226876220E+03  0.15189400232E+02 -0.27573816562E+03  0.29814194409E+03  0.47000000000E+01 0. -1.
         11    1    6    6    0    0 -0.12554121383E+02  0.86389441742E+01  0.25210879276E+01  0.15446462523E+02  0.00000000000E+00 0. -1.
        -12    1    6    6    0    0  0.56235945276E+02 -0.25649712726E+01 -0.13673583746E+03  0.14787072010E+03  0.00000000000E+00 0.  1.
         -5    1    5    5    0  503  0.66240379839E+02  0.36052154279E+02  0.21356220002E+02  0.78522123521E+02  0.47000000000E+01 0.  1.
<mgrwt>
<rscale>  2 0.21232674E+03</rscale>
<asrwt>0</asrwt>
<pdfrwt beam="1">  1       21 0.12702446E-01 0.21389063E+03</pdfrwt>
<pdfrwt beam="2">  1       21 0.11908031E+00 0.21389063E+03</pdfrwt>
<totfact> 0.28171075E+04</totfact>
</mgrwt>
</event>
<event>
12    1  0.2762290E-001  0.1841457E+03  0.7546771E-02  0.1165603E+00
         21   -1    0    0  504  503  0.00000000000E+00  0.00000000000E+00  0.45011059810E+03  0.45011059810E+03  0.00000000000E+00 0.  1.
         21   -1    0    0  502  504 -0.00000000000E+00 -0.00000000000E+00 -0.11458843978E+03  0.11458843978E+03  0.00000000000E+00 0.  1.
          6    2    1    2  502    0 -0.93140139417E+01 -0.63396946146E+02 -0.14387648718E+01  0.18415130980E+03  0.17263751395E+03 0.  0.
         24    2    3    3    0    0  0.23791937488E+01 -0.10869729808E+03 -0.19392963985E+02  0.13381944855E+03  0.75569799426E+02 0.  0.
         -6    2    1    2    0  503  0.93140139417E+01  0.63396946146E+02  0.33696092320E+03  0.38054772807E+03  0.16482713958E+03 0.  0.
        -24    2    5    5    0    0  0.54703411333E+02  0.80491082083E+02  0.21253386635E+03  0.24691917815E+03  0.79543438983E+02 0.  0.
          2    1    4    4  501    0 -0.35233377290E+02 -0.36778215640E+02 -0.11975087575E+02  0.52320461995E+02  0.00000000000E+00 0. -1.
         -1    1    4    4    0  501  0.37612571038E+02 -0.71919082440E+02 -0.74178764104E+01  0.81498986556E+02  0.00000000000E+00 0.  1.
          5    1    3    3  502    0 -0.11693207690E+02  0.45300351934E+02  0.17954199114E+02  0.50331861254E+02  0.47000000000E+01 0. -1.
         13    1    6    6    0    0  0.53476099908E+02  0.21218320648E+02  0.59325960624E+02  0.82640667933E+02  0.00000000000E+00 0. -1.
        -14    1    6    6    0    0  0.12273114256E+01  0.59272761435E+02  0.15320790573E+03  0.16427851021E+03  0.00000000000E+00 0.  1.
         -5    1    5    5    0  503 -0.45389397392E+02 -0.17094135937E+02  0.12442705685E+03  0.13362854993E+03  0.47000000000E+01 0.  1.
<mgrwt>
<rscale>  2 0.18229256E+03</rscale>
<asrwt>0</asrwt>
<pdfrwt beam="1">  1       21 0.69247784E-01 0.18414569E+03</pdfrwt>
<pdfrwt beam="2">  1       21 0.17628991E-01 0.18414569E+03</pdfrwt>
<totfact> 0.55581986E+04</totfact>
</mgrwt>
</event>
<event>
12    1  0.2762290E-001  0.1896437E+03  0.7546771E-02  0.1159143E+00
         21   -1    0    0  504  503  0.00000000000E+00  0.00000000000E+00  0.12877078150E+03  0.12877078150E+03  0.00000000000E+00 0. -1.
         21   -1    0    0  502  504 -0.00000000000E+00 -0.00000000000E+00 -0.28170891380E+03  0.28170891380E+03  0.00000000000E+00 0.  1.
          6    2    1    2  502    0 -0.46524790975E+02 -0.59281776895E+02 -0.10342708425E+03  0.21601367991E+03  0.17402833938E+03 0.  0.
         24    2    3    3    0    0 -0.64347481176E+02 -0.59435886812E+02 -0.13458062436E+03  0.17981554326E+03  0.80922568979E+02 0.  0.
         -6    2    1    2    0  503  0.46524790975E+02  0.59281776895E+02 -0.49511048042E+02  0.19446601539E+03  0.17229858390E+03 0.  0.
        -24    2    5    5    0    0  0.58526035546E+02  0.83242740728E+02 -0.81522538963E+02  0.15245431214E+03  0.79004697388E+02 0.  0.
          4    1    4    4  501    0 -0.78900442836E+02 -0.66366702323E+02 -0.11783793219E+03  0.15657457431E+03  0.00000000000E+00 0. -1.
         -3    1    4    4    0  501  0.14552961660E+02  0.69308155114E+01 -0.16742692170E+02  0.23240968952E+02  0.00000000000E+00 0.  1.
          5    1    3    3  502    0  0.17822690201E+02  0.15410991630E+00  0.31153540108E+02  0.36198136653E+02  0.47000000000E+01 0. -1.
         13    1    6    6    0    0 -0.15410369248E+02  0.19263140869E+02 -0.38287901268E+02  0.45546805157E+02  0.00000000000E+00 0. -1.
        -14    1    6    6    0    0  0.73936404794E+02  0.63979599858E+02 -0.43234637694E+02  0.10690750698E+03  0.00000000000E+00 0.  1.
         -5    1    5    5    0  503 -0.12001244572E+02 -0.23960963832E+02  0.32011490921E+02  0.42011703250E+02  0.47000000000E+01 0.  1.
<mgrwt>
<rscale>  2 0.18924597E+03</rscale>
<asrwt>0</asrwt>
<pdfrwt beam="1">  1       21 0.19810889E-01 0.18964374E+03</pdfrwt>
<pdfrwt beam="2">  1       21 0.43339833E-01 0.18964374E+03</pdfrwt>
<totfact> 0.12038147E+05</totfact>
</mgrwt>
</event>
<event>
12    1  0.2762290E-001  0.1983012E+03  0.7546771E-02  0.1151359E+00
         21   -1    0    0  504  503  0.00000000000E+00  0.00000000000E+00  0.16904108586E+03  0.16904108586E+03  0.00000000000E+00 0.  1.
         21   -1    0    0  502  504 -0.00000000000E+00 -0.00000000000E+00 -0.24954153557E+03  0.24954153557E+03  0.00000000000E+00 0. -1.
          6    2    1    2  502    0  0.73741143902E+01 -0.98002114540E+02 -0.96219698424E+02  0.21965934301E+03  0.17126939187E+03 0.  0.
         24    2    3    3    0    0  0.34925666769E+01 -0.11942855777E+03 -0.24277205445E+02  0.14434685283E+03  0.77273881641E+02 0.  0.
         -6    2    1    2    0  503 -0.73741143902E+01  0.98002114540E+02  0.15719248711E+02  0.19892327842E+03  0.17223409622E+03 0.  0.
        -24    2    5    5    0    0  0.73120523223E+01  0.40136176368E+02 -0.55095697237E+02  0.10618171890E+03  0.81084171151E+02 0.  0.
          2    1    4    4  501    0  0.87178780040E+01 -0.12600839944E+03 -0.86517504617E+01  0.12660557220E+03  0.00000000000E+00 0. -1.
         -1    1    4    4    0  501 -0.52253113271E+01  0.65798416694E+01 -0.15625454983E+02  0.17741280627E+02  0.00000000000E+00 0.  1.
          5    1    3    3  502    0  0.38815477133E+01  0.21426443228E+02 -0.71942492980E+02  0.75312490187E+02  0.47000000000E+01 0. -1.
         13    1    6    6    0    0 -0.25103086729E+01  0.59644029356E+02 -0.16666885597E+02  0.61979810930E+02  0.00000000000E+00 0. -1.
        -14    1    6    6    0    0  0.98223609952E+01 -0.19507852989E+02 -0.38428811640E+02  0.44201907966E+02  0.00000000000E+00 0.  1.
         -5    1    5    5    0  503 -0.14686166713E+02  0.57865938172E+02  0.70814945948E+02  0.92741559524E+02  0.47000000000E+01 0.  1.
<mgrwt>
<rscale>  2 0.19809156E+03</rscale>
<asrwt>0</asrwt>
<pdfrwt beam="1">  1       21 0.26006321E-01 0.19830123E+03</pdfrwt>
<pdfrwt beam="2">  1       21 0.38391005E-01 0.19830123E+03</pdfrwt>
<totfact> 0.91682577E+04</totfact>
</mgrwt>
</event>
<event>
12    1  0.2762290E-001  0.2568976E+03  0.7546771E-02  0.1109346E+00
         21   -1    0    0  504  503  0.00000000000E+00  0.00000000000E+00  0.22525878109E+04  0.22525878109E+04  0.00000000000E+00 0.  1.
         21   -1    0    0  502  504 -0.00000000000E+00 -0.00000000000E+00 -0.30064849795E+02  0.30064849795E+02  0.00000000000E+00 0.  1.
          6    2    1    2  502    0 -0.15345731524E+03  0.11023014301E+03  0.89788174716E+03  0.93333033500E+03  0.17092118162E+03 0.  0.
         24    2    3    3    0    0 -0.83511154780E+02  0.12273538193E+03  0.47129785709E+03  0.50084362812E+03  0.81759297824E+02 0.  0.
         -6    2    1    2    0  503  0.15345731524E+03 -0.11023014301E+03  0.13246412140E+04  0.13493223257E+04  0.17405907303E+03 0.  0.
        -24    2    5    5    0    0  0.98001015867E+02 -0.92927187484E+02  0.53387116309E+03  0.55640735123E+03  0.79567961085E+02 0.  0.
          2    1    4    4  501    0  0.83140213360E+01  0.62339728104E+01  0.10698435928E+03  0.10748785279E+03  0.00000000000E+00 0. -1.
         -1    1    4    4    0  501 -0.91825176116E+02  0.11650140912E+03  0.36431349781E+03  0.39335577532E+03  0.00000000000E+00 0.  1.
          5    1    3    3  502    0 -0.69946160456E+02 -0.12505238917E+02  0.42658389008E+03  0.43248670689E+03  0.47000000000E+01 0. -1.
         13    1    6    6    0    0  0.16978128645E+02 -0.38056423468E+02  0.63411152014E+02  0.75878339592E+02  0.00000000000E+00 0. -1.
        -14    1    6    6    0    0  0.81022887222E+02 -0.54870764016E+02  0.47046001108E+03  0.48052901163E+03  0.00000000000E+00 0.  1.
         -5    1    5    5    0  503  0.55456299369E+02 -0.17302955529E+02  0.79077005088E+03  0.79291497450E+03  0.47000000000E+01 0.  1.
<mgrwt>
<rscale>  2 0.25636709E+03</rscale>
<asrwt>0</asrwt>
<pdfrwt beam="1">  1       21 0.34655184E+00 0.25689763E+03</pdfrwt>
<pdfrwt beam="2">  1       21 0.46253633E-02 0.25689763E+03</pdfrwt>
<totfact> 0.52436273E+03</totfact>
</mgrwt>
</event>
<event>
12    1  0.2762290E-001  0.2487543E+03  0.7546771E-02  0.1114268E+00
         21   -1    0    0  504  503  0.00000000000E+00  0.00000000000E+00  0.10169914498E+03  0.10169914498E+03  0.00000000000E+00 0.  1.
         21   -1    0    0  502  504 -0.00000000000E+00 -0.00000000000E+00 -0.60591156072E+03  0.60591156072E+03  0.00000000000E+00 0.  1.
          6    2    1    2  502    0  0.38515526939E+02  0.17436483366E+03 -0.24751820387E+03  0.35091871498E+03  0.17318239588E+03 0.  0.
         24    2    3    3    0    0 -0.42137667035E+02  0.10980412150E+03 -0.16781396100E+03  0.22035118615E+03  0.80997479284E+02 0.  0.
         -6    2    1    2    0  503 -0.38515526939E+02 -0.17436483366E+03 -0.25669421187E+03  0.35669199072E+03  0.17161211148E+03 0.  0.
        -24    2    5    5    0    0 -0.75713587659E+02 -0.15295400893E+03 -0.14642463807E+03  0.23827075934E+03  0.78773751451E+02 0.  0.
          2    1    4    4  501    0 -0.62232094992E+02  0.67078963406E+02 -0.13406830014E+03  0.16231675847E+03  0.00000000000E+00 0. -1.
         -1    1    4    4    0  501  0.20094427957E+02  0.42725158098E+02 -0.33745660863E+02  0.58034427683E+02  0.00000000000E+00 0.  1.
          5    1    3    3  502    0  0.80653193974E+02  0.64560712158E+02 -0.79704242870E+02  0.13056752883E+03  0.47000000000E+01 0. -1.
         13    1    6    6    0    0 -0.46480083695E+01 -0.12725270467E+02 -0.54501709056E+02  0.56160241989E+02  0.00000000000E+00 0. -1.
        -14    1    6    6    0    0 -0.71065579289E+02 -0.14022873846E+03 -0.91922929012E+02  0.18211051735E+03  0.00000000000E+00 0.  1.
         -5    1    5    5    0  503  0.37198060720E+02 -0.21410824733E+02 -0.11026957380E+03  0.11842123139E+03  0.47000000000E+01 0.  1.
<mgrwt>
<rscale>  2 0.24848115E+03</rscale>
<asrwt>0</asrwt>
<pdfrwt beam="1">  1       21 0.15646022E-01 0.24875426E+03</pdfrwt>
<pdfrwt beam="2">  1       21 0.93217164E-01 0.24875426E+03</pdfrwt>
<totfact> 0.34190946E+04</totfact>
</mgrwt>
</event>
<event>
12    1  0.2762290E-001  0.2243490E+03  0.7546771E-02  0.1130934E+00
         21   -1    0    0  504  503  0.00000000000E+00  0.00000000000E+00  0.50356633930E+03  0.50356633930E+03  0.00000000000E+00 0. -1.
         21   -1    0    0  502  504 -0.00000000000E+00 -0.00000000000E+00 -0.10057981702E+03  0.10057981702E+03  0.00000000000E+00 0. -1.
          6    2    1    2  502    0  0.40281001431E+02 -0.13705945575E+03  0.16729416251E+03  0.27874893164E+03  0.17118930047E+03 0.  0.
         24    2    3    3    0    0  0.84662455225E+02 -0.12692222280E+03  0.15446451377E+03  0.23121823820E+03  0.79533676487E+02 0.  0.
         -6    2    1    2    0  503 -0.40281001431E+02  0.13705945575E+03  0.23569235977E+03  0.32539722467E+03  0.17298731712E+03 0.  0.
        -24    2    5    5    0    0 -0.54088782605E+01  0.16214460230E+03  0.18562229873E+03  0.25925774656E+03  0.80242216734E+02 0.  0.
          2    1    4    4  501    0  0.86448032226E+02 -0.12935914760E+03  0.11965082957E+03  0.19627371796E+03  0.00000000000E+00 0. -1.
         -1    1    4    4    0  501 -0.17855770009E+01  0.24369247940E+01  0.34813684194E+02  0.34944520240E+02  0.00000000000E+00 0.  1.
          5    1    3    3  502    0 -0.44381453794E+02 -0.10137232945E+02  0.12829648746E+02  0.47530693448E+02  0.47000000000E+01 0. -1.
         11    1    6    6    0    0 -0.15122094107E+02  0.15457968451E+03  0.19069389159E+03  0.24594250727E+03  0.00000000000E+00 0. -1.
        -12    1    6    6    0    0  0.97132158464E+01  0.75649177945E+01 -0.50715928573E+01  0.13315239293E+02  0.00000000000E+00 0.  1.
         -5    1    5    5    0  503 -0.34872123171E+02 -0.25085146554E+02  0.50070061044E+02  0.66139478112E+02  0.47000000000E+01 0.  1.
<mgrwt>
<rscale>  2 0.22400232E+03</rscale>
<asrwt>0</asrwt>
<pdfrwt beam="1">  1       21 0.77471743E-01 0.22434898E+03</pdfrwt>
<pdfrwt beam="2">  1       21 0.15473818E-01 0.22434898E+03</pdfrwt>
<totfact> 0.53992018E+04</totfact>
</mgrwt>
</event>
<event>
12    1  0.2762290E-001  0.1827171E+03  0.7546771E-02  0.1165647E+00
         21   -1    0    0  504  503  0.00000000000E+00  0.00000000000E+00  0.11206408805E+03  0.11206408805E+03  0.00000000000E+00 0. -1.
         21   -1    0    0  502  504 -0.00000000000E+00 -0.00000000000E+00 -0.30527634982E+03  0.30527634982E+03  0.00000000000E+00 0. -1.
          6    2    1    2  502    0  0.18908656787E+02 -0.57895801363E+02 -0.13562924077E+03  0.22755403436E+03  0.17226748529E+03 0.  0.
         24    2    3    3    0    0 -0.13588074190E+02 -0.95828468503E+02 -0.66942336844E+02  0.14249578649E+03  0.80349496388E+02 0.  0.
         -6    2    1    2    0  503 -0.18908656787E+02  0.57895801363E+02 -0.57583021005E+02  0.18978640350E+03  0.17027511130E+03 0.  0.
        -24    2    5    5    0    0  0.43594541225E+02 -0.43299351653E+01 -0.36891021639E+02  0.99072893559E+02  0.80840945056E+02 0.  0.
          4    1    4    4  501    0  0.32293138050E+02 -0.55239279857E+02 -0.27550773250E+02  0.69665414022E+02  0.00000000000E+00 0. -1.
         -3    1    4    4    0  501 -0.45881212240E+02 -0.40589188646E+02 -0.39391563594E+02  0.72830372469E+02  0.00000000000E+00 0.  1.
          5    1    3    3  502    0  0.32496730977E+02  0.37932667140E+02 -0.68686903921E+02  0.85058247871E+02  0.47000000000E+01 0. -1.
         13    1    6    6    0    0  0.24435680076E+01  0.14193699810E+02  0.21127755477E+02  0.25569790582E+02  0.00000000000E+00 0. -1.
        -14    1    6    6    0    0  0.41150973217E+02 -0.18523634975E+02 -0.58018777115E+02  0.73503102978E+02  0.00000000000E+00 0.  1.
         -5    1    5    5    0  503 -0.62503198012E+02  0.62225736528E+02 -0.20691999367E+02  0.90713509942E+02  0.47000000000E+01 0.  1.
<mgrwt>
<rscale>  2 0.18224600E+03</rscale>
<asrwt>0</asrwt>
<pdfrwt beam="1">  1       21 0.17240629E-01 0.18271712E+03</pdfrwt>
<pdfrwt beam="2">  1       21 0.46965591E-01 0.18271712E+03</pdfrwt>
<totfact> 0.13235813E+05</totfact>
</mgrwt>
</event>
<event>
12    1  0.2762290E-001  0.1964935E+03  0.7546771E-02  0.1152832E+00
         21   -1    0    0  504  503  0.00000000000E+00  0.00000000000E+00  0.96009421758E+02  0.96009421758E+02  0.00000000000E+00 0. -1.
         21   -1    0    0  502  504 -0.00000000000E+00 -0.00000000000E+00 -0.42382765208E+03  0.42382765208E+03  0.00000000000E+00 0. -1.
          6    2    1    2  502    0  0.87223228546E+02 -0.32029782300E+02 -0.22379070408E+03  0.29750528407E+03  0.17260740502E+03 0.  0.
         24    2    3    3    0    0  0.28038195636E+02 -0.31634767677E+02 -0.31460763284E+02  0.96219615721E+02  0.80507986452E+02 0.  0.
         -6    2    1    2    0  503 -0.87223228546E+02  0.32029782300E+02 -0.10402752625E+03  0.22233178977E+03  0.17313549600E+03 0.  0.
        -24    2    5    5    0    0 -0.78200669931E+01 -0.68672667340E+01  0.62687839286E+01  0.80892019811E+02  0.79974423517E+02 0.  0.
          4    1    4    4  501    0 -0.23493621833E+02  0.65727419192E+01  0.80995332622E+00  0.24409162779E+02  0.00000000000E+00 0. -1.
         -3    1    4    4    0  501  0.51531817469E+02 -0.38207509597E+02 -0.32270716611E+02  0.71810452942E+02  0.00000000000E+00 0.  1.
          5    1    3    3  502    0  0.59185032911E+02 -0.39501462230E+00 -0.19232994079E+03  0.20128566835E+03  0.47000000000E+01 0. -1.
         11    1    6    6    0    0 -0.77488483770E+01  0.35762138540E+02 -0.46504240587E+01  0.36886334164E+02  0.00000000000E+00 0. -1.
        -12    1    6    6    0    0 -0.71218616110E-01 -0.42629405274E+02  0.10919207987E+02  0.44005685646E+02  0.00000000000E+00 0.  1.
         -5    1    5    5    0  503 -0.79403161553E+02  0.38897049034E+02 -0.11029631018E+03  0.14143976996E+03  0.47000000000E+01 0.  1.
<mgrwt>
<rscale>  2 0.19637712E+03</rscale>
<asrwt>0</asrwt>
<pdfrwt beam="1">  1       21 0.14770680E-01 0.19649351E+03</pdfrwt>
<pdfrwt beam="2">  1       21 0.65204253E-01 0.19649351E+03</pdfrwt>
<totfact> 0.87189421E+04</totfact>
</mgrwt>
</event>
<event>
12    1  0.2762290E-001  0.1777601E+03  0.7546771E-02  0.1170252E+00
         21   -1    0    0  504  503  0.00000000000E+00  0.00000000000E+00  0.38538038124E+03  0.38538038124E+03  0.00000000000E+00 0.  1.
         21   -1    0    0  502  504 -0.00000000000E+00 -0.00000000000E+00 -0.26964255034E+03  0.26964255034E+03  0.00000000000E+00 0.  1.
          6    2    1    2  502    0 -0.25679996988E+02 -0.23622297911E+02  0.33138971539E+03  0.37555131777E+03  0.17321135530E+03 0.  0.
         24    2    3    3    0    0  0.19177740972E+02  0.30135352156E+02  0.26409911863E+03  0.27832881004E+03  0.80266162488E+02 0.  0.
         -6    2    1    2    0  503  0.25679996988E+02  0.23622297911E+02 -0.21565188449E+03  0.27947161381E+03  0.17430195764E+03 0.  0.
        -24    2    5    5    0    0 -0.76445752911E+01 -0.41882715924E+02 -0.61443775857E+02  0.10858081616E+03  0.78751854716E+02 0.  0.
          2    1    4    4  501    0  0.27362484167E+02 -0.78367558357E+01  0.31279422024E+02  0.42290927206E+02  0.00000000000E+00 0. -1.
         -1    1    4    4    0  501 -0.81847431944E+01  0.37972107991E+02  0.23281969660E+03  0.23603788283E+03  0.00000000000E+00 0.  1.
          5    1    3    3  502    0 -0.44857737960E+02 -0.53757650066E+02  0.67290596768E+02  0.97222507728E+02  0.47000000000E+01 0. -1.
         13    1    6    6    0    0  0.78685084035E+01 -0.11798062675E+02  0.17595309156E+02  0.22598730310E+02  0.00000000000E+00 0. -1.
        -14    1    6    6    0    0 -0.15513083695E+02 -0.30084653249E+02 -0.79039085013E+02  0.85982085846E+02  0.00000000000E+00 0.  1.
         -5    1    5    5    0  503  0.33324572279E+02  0.65505013834E+02 -0.15420810863E+03  0.17089079766E+03  0.47000000000E+01 0.  1.
<mgrwt>
<rscale>  2 0.17749217E+03</rscale>
<asrwt>0</asrwt>
<pdfrwt beam="1">  1       21 0.59289289E-01 0.17776008E+03</pdfrwt>
<pdfrwt beam="2">  1       21 0.41483469E-01 0.17776008E+03</pdfrwt>
<totfact> 0.15016093E+04</totfact>
</mgrwt>
</event>
<event>
12    1  0.2762290E-001  0.2666401E+03  0.7546771E-02  0.1103257E+00
         21   -1    0    0  504  503  0.00000000000E+00  0.00000000000E+00  0.11897071715E+03  0.11897071715E+03  0.00000000000E+00 0.  1.
         21   -1    0    0  502  504 -0.00000000000E+00 -0.00000000000E+00 -0.62927927822E+03  0.62927927822E+03  0.00000000000E+00 0.  1.
          6    2    1    2  502    0  0.18970096623E+03 -0.70669193419E+02 -0.34000221899E+03  0.43208615900E+03  0.17354062462E+03 0.  0.
         24    2    3    3    0    0  0.55252404701E+02  0.76435690016E+01 -0.20067549213E+03  0.22317629501E+03  0.80160795523E+02 0.  0.
         -6    2    1    2    0  503 -0.18970096623E+03  0.70669193419E+02 -0.17030634208E+03  0.31616383637E+03  0.17313211658E+03 0.  0.
        -24    2    5    5    0    0 -0.12767851444E+03  0.56029019706E+01 -0.35451099555E+02  0.15402675473E+03  0.78321549722E+02 0.  0.
          4    1    4    4  501    0  0.24180022507E+02  0.43649536527E+02 -0.95628384266E+02  0.10786446776E+03  0.00000000000E+00 0. -1.
         -3    1    4    4    0  501  0.31072382195E+02 -0.36005967526E+02 -0.10504710786E+03  0.11531182725E+03  0.00000000000E+00 0.  1.
          5    1    3    3  502    0  0.13444856153E+03 -0.78312762420E+02 -0.13932672686E+03  0.20890986399E+03  0.47000000000E+01 0. -1.
         11    1    6    6    0    0 -0.60193636427E+02  0.36880846893E+02  0.22648903364E+01  0.70630025216E+02  0.00000000000E+00 0. -1.
        -12    1    6    6    0    0 -0.67484878016E+02 -0.31277944923E+02 -0.37715989891E+02  0.83396729510E+02  0.00000000000E+00 0.  1.
         -5    1    5    5    0  503 -0.62022451791E+02  0.65066291448E+02 -0.13485524253E+03  0.16213708165E+03  0.47000000000E+01 0.  1.
<mgrwt>
<rscale>  2 0.26657365E+03</rscale>
<asrwt>0</asrwt>
<pdfrwt beam="1">  1       21 0.18303187E-01 0.26664009E+03</pdfrwt>
<pdfrwt beam="2">  1       21 0.96812197E-01 0.26664009E+03</pdfrwt>
<totfact> 0.23199848E+04</totfact>
</mgrwt>
</event>
<event>
12    1  0.2762290E-001  0.2037712E+03  0.7546771E-02  0.1147106E+00
         21   -1    0    0  504  503  0.00000000000E+00  0.00000000000E+00  0.12078247146E+03  0.12078247146E+03  0.00000000000E+00 0. -1.
         21   -1    0    0  502  504 -0.00000000000E+00 -0.00000000000E+00 -0.43130130726E+03  0.43130130726E+03  0.00000000000E+00 0. -1.
          6    2    1    2  502    0  0.11376452709E+02  0.10064665323E+03 -0.28177071879E+03  0.34629466802E+03  0.17397151102E+03 0.  0.
         24    2    3    3    0    0  0.22644641380E+02  0.94197547450E+02 -0.29875138269E+03  0.32440869105E+03  0.81256707050E+02 0.  0.
         -6    2    1    2    0  503 -0.11376452709E+02 -0.10064665323E+03 -0.28748117009E+02  0.20578911071E+03  0.17681496365E+03 0.  0.
        -24    2    5    5    0    0 -0.62096940655E+02 -0.10661640533E+03 -0.37236283058E+02  0.15380502852E+03  0.83942588114E+02 0.  0.
          2    1    4    4  501    0 -0.27733959226E+02  0.53969405690E+02 -0.12176979254E+03  0.13605054803E+03  0.00000000000E+00 0. -1.
         -1    1    4    4    0  501  0.50378600607E+02  0.40228141760E+02 -0.17698159016E+03  0.18835814302E+03  0.00000000000E+00 0.  1.
          5    1    3    3  502    0 -0.11268188671E+02  0.64491057828E+01  0.16980663901E+02  0.21885976968E+02  0.47000000000E+01 0. -1.
         11    1    6    6    0    0  0.16408957375E+02 -0.49137802821E+02 -0.99381696644E+01  0.52749831891E+02  0.00000000000E+00 0. -1.
        -12    1    6    6    0    0 -0.78505898030E+02 -0.57478602509E+02 -0.27298113394E+02  0.10105519663E+03  0.00000000000E+00 0.  1.
         -5    1    5    5    0  503  0.50720487946E+02  0.59697520968E+01  0.84881660493E+01  0.51984082184E+02  0.47000000000E+01 0.  1.
<mgrwt>
<rscale>  2 0.20315281E+03</rscale>
<asrwt>0</asrwt>
<pdfrwt beam="1">  1       21 0.18581919E-01 0.20377120E+03</pdfrwt>
<pdfrwt beam="2">  1       21 0.66354046E-01 0.20377120E+03</pdfrwt>
<totfact> 0.54859437E+04</totfact>
</mgrwt>
</event>
<event>
12    1  0.2762290E-001  0.1765067E+03  0.7546771E-02  0.1171285E+00
         21   -1    0    0  504  503  0.00000000000E+00  0.00000000000E+00  0.92393625476E+03  0.92393625476E+03  0.00000000000E+00 0. -1.
         21   -1    0    0  502  504 -0.00000000000E+00 -0.00000000000E+00 -0.42131234438E+02  0.42131234438E+02  0.00000000000E+00 0. -1.
          6    2    1    2  502    0 -0.94882512573E+01  0.31832182873E+02  0.22427472989E+03  0.28525863951E+03  0.17311852059E+03 0.  0.
         24    2    3    3    0    0  0.57460088745E+02  0.50040824609E+02  0.14413579936E+03  0.17915504368E+03  0.74267456479E+02 0.  0.
         -6    2    1    2    0  503  0.94882512573E+01 -0.31832182873E+02  0.65753029044E+03  0.68080884969E+03  0.17335308533E+03 0.  0.
        -24    2    5    5    0    0  0.60525464565E+02  0.13114123153E+02  0.47812598431E+03  0.48888969321E+03  0.81076279912E+02 0.  0.
          2    1    4    4  501    0  0.47782867622E+02 -0.52050858594E+01  0.48479831679E+02  0.68268509846E+02  0.00000000000E+00 0. -1.
         -1    1    4    4    0  501  0.96772211229E+01  0.55245910468E+02  0.95655967681E+02  0.11088653383E+03  0.00000000000E+00 0.  1.
          5    1    3    3  502    0 -0.66948340003E+02 -0.18208641736E+02  0.80138930526E+02  0.10610359583E+03  0.47000000000E+01 0. -1.
         11    1    6    6    0    0  0.18159481924E+02  0.35096255732E+02  0.96302480076E+02  0.10409458016E+03  0.00000000000E+00 0. -1.
        -12    1    6    6    0    0  0.42365982641E+02 -0.21982132579E+02  0.38182350424E+03  0.38479511305E+03  0.00000000000E+00 0.  1.
         -5    1    5    5    0  503 -0.51037213308E+02 -0.44946306026E+02  0.17940430612E+03  0.19191915648E+03  0.47000000000E+01 0.  1.
<mgrwt>
<rscale>  2 0.17644906E+03</rscale>
<asrwt>0</asrwt>
<pdfrwt beam="1">  1       21 0.14214402E+00 0.17650668E+03</pdfrwt>
<pdfrwt beam="2">  1       21 0.64817291E-02 0.17650668E+03</pdfrwt>
<totfact> 0.59926553E+04</totfact>
</mgrwt>
</event>
<event>
12    1  0.2762290E-001  0.2078544E+03  0.7546771E-02  0.1143517E+00
         21   -1    0    0  504  503  0.00000000000E+00  0.00000000000E+00  0.61320653214E+02  0.61320653214E+02  0.00000000000E+00 0. -1.
         21   -1    0    0  502  504 -0.00000000000E+00 -0.00000000000E+00 -0.79459458948E+03  0.79459458948E+03  0.00000000000E+00 0. -1.
          6    2    1    2  502    0  0.70564346996E+02 -0.84348017949E+02 -0.51483627829E+03  0.55521153160E+03  0.17637895615E+03 0.  0.
         24    2    3    3    0    0  0.45985683027E+02 -0.60980029991E+02 -0.50780823981E+03  0.52025932268E+03  0.83470397783E+02 0.  0.
         -6    2    1    2    0  503 -0.70564346996E+02  0.84348017949E+02 -0.21843765797E+03  0.30070371110E+03  0.17496798635E+03 0.  0.
        -24    2    5    5    0    0  0.29598669076E+02  0.16487332914E+02 -0.92237060466E+02  0.12581407969E+03  0.78572221345E+02 0.  0.
          2    1    4    4  501    0  0.28874006306E+02 -0.48361018750E+01 -0.36052676682E+03  0.36171348567E+03  0.00000000000E+00 0. -1.
         -1    1    4    4    0  501  0.17111676722E+02 -0.56143928116E+02 -0.14728147299E+03  0.15854583701E+03  0.00000000000E+00 0.  1.
          5    1    3    3  502    0  0.24578663969E+02 -0.23367987958E+02 -0.70280384781E+01  0.34952208922E+02  0.47000000000E+01 0. -1.
         11    1    6    6    0    0 -0.14427261864E+02 -0.53614158679E+01  0.55572050662E+01  0.16363776861E+02  0.00000000000E+00 0. -1.
        -12    1    6    6    0    0  0.44025930940E+02  0.21848748782E+02 -0.97794265532E+02  0.10945030283E+03  0.00000000000E+00 0.  1.
         -5    1    5    5    0  503 -0.10016301607E+03  0.67860685035E+02 -0.12620059751E+03  0.17488963141E+03  0.47000000000E+01 0.  1.
<mgrwt>
<rscale>  2 0.20755476E+03</rscale>
<asrwt>0</asrwt>
<pdfrwt beam="1">  1       21 0.94339470E-02 0.20785440E+03</pdfrwt>
<pdfrwt beam="2">  1       21 0.12224532E+00 0.20785440E+03</pdfrwt>
<totfact> 0.44978631E+04</totfact>
</mgrwt>
</event>
<event>
12    1  0.2762290E-001  0.2424849E+03  0.7546771E-02  0.1118198E+00
         21   -1    0    0  504  503  0.00000000000E+00  0.00000000000E+00  0.11008059977E+04  0.11008059977E+04  0.00000000000E+00 0. -1.
         21   -1    0    0  502  504 -0.00000000000E+00 -0.00000000000E+00 -0.62820219054E+02  0.62820219054E+02  0.00000000000E+00 0.  1.
          6    2    1    2  502    0 -0.16953736159E+03  0.19987655897E+01  0.74518785410E+03  0.78364779068E+03  0.17335515539E+03 0.  0.
         24    2    3    3    0    0 -0.16853261711E+03  0.47991341002E+02  0.66137301200E+03  0.68792243217E+03  0.71530412043E+02 0.  0.
         -6    2    1    2    0  503  0.16953736159E+03 -0.19987655897E+01  0.29279792455E+03  0.37997842608E+03  0.17293370876E+03 0.  0.
        -24    2    5    5    0    0  0.59558935638E+02  0.34789391685E+02  0.21452213957E+03  0.23998624343E+03  0.82559554744E+02 0.  0.
          2    1    4    4  501    0 -0.12875385449E+03  0.25290548096E+01  0.44061242631E+03  0.45904603406E+03  0.00000000000E+00 0. -1.
         -1    1    4    4    0  501 -0.39778762614E+02  0.45462286193E+02  0.22076058569E+03  0.22887639812E+03  0.00000000000E+00 0.  1.
          5    1    3    3  502    0 -0.10047444843E+01 -0.45992575412E+02  0.83814842100E+02  0.95725358504E+02  0.47000000000E+01 0. -1.
         11    1    6    6    0    0 -0.57425366768E+01  0.36676804695E+02  0.11580661729E+03  0.12161141944E+03  0.00000000000E+00 0. -1.
        -12    1    6    6    0    0  0.65301472315E+02 -0.18874130099E+01  0.98715522276E+02  0.11837482398E+03  0.00000000000E+00 0.  1.
         -5    1    5    5    0  503  0.10997842595E+03 -0.36788157275E+02  0.78275784984E+02  0.13999218266E+03  0.47000000000E+01 0.  1.
<mgrwt>
<rscale>  2 0.24240958E+03</rscale>
<asrwt>0</asrwt>
<pdfrwt beam="1">  1       21 0.16935475E+00 0.24248489E+03</pdfrwt>
<pdfrwt beam="2">  1       21 0.96646499E-02 0.24248489E+03</pdfrwt>
<totfact> 0.17981458E+04</totfact>
</mgrwt>
</event>
<event>
12    1  0.2762290E-001  0.2082699E+03  0.7546771E-02  0.1143460E+00
         21   -1    0    0  504  503  0.00000000000E+00  0.00000000000E+00  0.72776953728E+03  0.72776953728E+03  0.00000000000E+00 0. -1.
         21   -1    0    0  502  504 -0.00000000000E+00 -0.00000000000E+00 -0.69224838115E+02  0.69224838115E+02  0.00000000000E+00 0.  1.
          6    2    1    2  502    0  0.10396877531E+03  0.38763633154E+02  0.17342515588E+03  0.26905752365E+03  0.17321530200E+03 0.  0.
         24    2    3    3    0    0  0.64449998171E+02  0.77820999653E+02  0.58851247739E+02  0.14163506860E+03  0.79919415952E+02 0.  0.
         -6    2    1    2    0  503 -0.10396877531E+03 -0.38763633154E+02  0.48511954329E+03  0.52793685174E+03  0.17625045433E+03 0.  0.
        -24    2    5    5    0    0 -0.11427440444E+03  0.54848440681E+01  0.44643750043E+03  0.46808266085E+03  0.81891468248E+02 0.  0.
          2    1    4    4  501    0  0.37924365145E+02  0.56051300631E+02  0.77247808290E+02  0.10269970623E+03  0.00000000000E+00 0. -1.
         -1    1    4    4    0  501  0.26525633026E+02  0.21769699022E+02 -0.18396560551E+02  0.38935362372E+02  0.00000000000E+00 0.  1.
          5    1    3    3  502    0  0.39518777143E+02 -0.39057366499E+02  0.11457390814E+03  0.12742245505E+03  0.47000000000E+01 0. -1.
         13    1    6    6    0    0 -0.80527219206E+02 -0.15518088183E+02  0.39309769437E+03  0.40156100584E+03  0.00000000000E+00 0. -1.
        -14    1    6    6    0    0 -0.33747185232E+02  0.21002932251E+02  0.53339806063E+02  0.66521655008E+02  0.00000000000E+00 0.  1.
         -5    1    5    5    0  503  0.10305629124E+02 -0.44248477222E+02  0.38682042858E+02  0.59854190896E+02  0.47000000000E+01 0.  1.
<mgrwt>
<rscale>  2 0.20762637E+03</rscale>
<asrwt>0</asrwt>
<pdfrwt beam="1">  1       21 0.11196454E+00 0.20826989E+03</pdfrwt>
<pdfrwt beam="2">  1       21 0.10649976E-01 0.20826989E+03</pdfrwt>
<totfact> 0.45038887E+04</totfact>
</mgrwt>
</event>
<event>
12    1  0.2762290E-001  0.1957970E+03  0.7546771E-02  0.1153390E+00
         21   -1    0    0  504  503  0.00000000000E+00  0.00000000000E+00  0.11722758099E+03  0.11722758099E+03  0.00000000000E+00 0.  1.
         21   -1    0    0  502  504 -0.00000000000E+00 -0.00000000000E+00 -0.51875793218E+03  0.51875793218E+03  0.00000000000E+00 0. -1.
          6    2    1    2  502    0  0.28982300104E+02 -0.86544894740E+02 -0.39438733579E+03  0.44031560137E+03  0.17322374450E+03 0.  0.
         24    2    3    3    0    0  0.50011425849E+02 -0.41928063700E+02 -0.37043920954E+03  0.38528389694E+03  0.83422826856E+02 0.  0.
         -6    2    1    2    0  503 -0.28982300104E+02  0.86544894740E+02 -0.71430154078E+01  0.19566991179E+03  0.17293264350E+03 0.  0.
        -24    2    5    5    0    0  0.20574954837E+02  0.15431423542E+02 -0.50712416019E+02  0.98544065733E+02  0.80484322409E+02 0.  0.
          4    1    4    4  501    0  0.56776774406E+02 -0.13420069331E+01 -0.28306673547E+03  0.28870777583E+03  0.00000000000E+00 0. -1.
         -3    1    4    4    0  501 -0.67653485565E+01 -0.40586056767E+02 -0.87372474071E+02  0.96576121118E+02  0.00000000000E+00 0.  1.
          5    1    3    3  502    0 -0.21029125745E+02 -0.44616831039E+02 -0.23948126250E+02  0.55031704430E+02  0.47000000000E+01 0. -1.
         13    1    6    6    0    0 -0.24154500059E+02  0.23969000236E+02 -0.38530636790E+02  0.51405863643E+02  0.00000000000E+00 0. -1.
        -14    1    6    6    0    0  0.44729454896E+02 -0.85375766940E+01 -0.12181779230E+02  0.47138202091E+02  0.00000000000E+00 0.  1.
         -5    1    5    5    0  503 -0.49557254941E+02  0.71113471197E+02  0.43569400611E+02  0.97125846059E+02  0.47000000000E+01 0.  1.
<mgrwt>
<rscale>  2 0.19573258E+03</rscale>
<asrwt>0</asrwt>
<pdfrwt beam="1">  1       21 0.18035013E-01 0.19579698E+03</pdfrwt>
<pdfrwt beam="2">  1       21 0.79808912E-01 0.19579698E+03</pdfrwt>
<totfact> 0.38620691E+04</totfact>
</mgrwt>
</event>
<event>
12    1  0.2762290E-001  0.1976517E+03  0.7546771E-02  0.1151827E+00
         21   -1    0    0  504  503  0.00000000000E+00  0.00000000000E+00  0.46210816406E+03  0.46210816406E+03  0.00000000000E+00 0.  1.
         21   -1    0    0  502  504 -0.00000000000E+00 -0.00000000000E+00 -0.11794009773E+03  0.11794009773E+03  0.00000000000E+00 0.  1.
          6    2    1    2  502    0  0.16524164275E+02 -0.94014263272E+02  0.17187934951E+02  0.19797210105E+03  0.17258562507E+03 0.  0.
         24    2    3    3    0    0  0.28356304929E+02 -0.46753151342E+02  0.73581273634E+02  0.12330007884E+03  0.82454644634E+02 0.  0.
         -6    2    1    2    0  503 -0.16524164275E+02  0.94014263272E+02  0.32698013138E+03  0.38207616074E+03  0.17307355830E+03 0.  0.
        -24    2    5    5    0    0  0.58362594288E+02  0.42475817156E+02  0.18100230627E+03  0.21004170646E+03  0.78391939126E+02 0.  0.
          2    1    4    4  501    0 -0.18405663719E+02  0.70449947721E+01  0.39816336577E+02  0.44426805723E+02  0.00000000000E+00 0. -1.
         -1    1    4    4    0  501  0.46761968648E+02 -0.53798146114E+02  0.33764937056E+02  0.78873273113E+02  0.00000000000E+00 0.  1.
          5    1    3    3  502    0 -0.11832140654E+02 -0.47261111930E+02 -0.56393338683E+02  0.74672022211E+02  0.47000000000E+01 0. -1.
         13    1    6    6    0    0  0.23205327753E+02  0.57199838370E+02  0.14507958274E+03  0.15766544984E+03  0.00000000000E+00 0. -1.
        -14    1    6    6    0    0  0.35157266536E+02 -0.14724021214E+02  0.35922723531E+02  0.52376256613E+02  0.00000000000E+00 0.  1.
         -5    1    5    5    0  503 -0.74886758563E+02  0.51538446116E+02  0.14597782511E+03  0.17203445428E+03  0.47000000000E+01 0.  1.
<mgrwt>
<rscale>  2 0.19754481E+03</rscale>
<asrwt>0</asrwt>
<pdfrwt beam="1">  1       21 0.71093563E-01 0.19765168E+03</pdfrwt>
<pdfrwt beam="2">  1       21 0.18144631E-01 0.19765168E+03</pdfrwt>
<totfact> 0.49410418E+04</totfact>
</mgrwt>
</event>
<event>
12    1  0.2762290E-001  0.2102746E+03  0.7546771E-02  0.1141781E+00
         21   -1    0    0  504  503  0.00000000000E+00  0.00000000000E+00  0.39850918165E+02  0.39850918165E+02  0.00000000000E+00 0. -1.
         21   -1    0    0  502  504 -0.00000000000E+00 -0.00000000000E+00 -0.13970091948E+04  0.13970091948E+04  0.00000000000E+00 0. -1.
          6    2    1    2  502    0 -0.10451789051E+03  0.49570992068E+02 -0.10081380475E+04  0.10293916925E+04  0.17298456887E+03 0.  0.
         24    2    3    3    0    0 -0.11598735434E+03  0.23130547900E+02 -0.97364666133E+03  0.98419886775E+03  0.81679260189E+02 0.  0.
         -6    2    1    2    0  503  0.10451789051E+03 -0.49570992068E+02 -0.34902022913E+03  0.40746842047E+03  0.17559647105E+03 0.  0.
        -24    2    5    5    0    0  0.12373366972E+03  0.82505608108E+01 -0.23322754203E+03  0.27653861280E+03  0.81856125210E+02 0.  0.
          4    1    4    4  501    0 -0.92610216731E+02  0.42944438436E+02 -0.87413824705E+03  0.88007871920E+03  0.00000000000E+00 0. -1.
         -3    1    4    4    0  501 -0.23377137607E+02 -0.19813890536E+02 -0.99508414284E+02  0.10412014855E+03  0.00000000000E+00 0.  1.
          5    1    3    3  502    0  0.11469463830E+02  0.26440444168E+02 -0.34491386161E+02  0.45192824736E+02  0.47000000000E+01 0. -1.
         11    1    6    6    0    0  0.90303910234E+02 -0.32371487354E+02 -0.15398922781E+03  0.18142599505E+03  0.00000000000E+00 0. -1.
        -12    1    6    6    0    0  0.33429759490E+02  0.40622048165E+02 -0.79238314213E+02  0.95112617754E+02  0.00000000000E+00 0.  1.
         -5    1    5    5    0  503 -0.19215779216E+02 -0.57821552879E+02 -0.11579268711E+03  0.13092980767E+03  0.47000000000E+01 0.  1.
<mgrwt>
<rscale>  2 0.20972839E+03</rscale>
<asrwt>0</asrwt>
<pdfrwt beam="1">  1       21 0.61309119E-02 0.21027457E+03</pdfrwt>
<pdfrwt beam="2">  1       21 0.21492444E+00 0.21027457E+03</pdfrwt>
<totfact> 0.20266579E+04</totfact>
</mgrwt>
</event>
<event>
12    1  0.2762290E-001  0.1953438E+03  0.7546771E-02  0.1154669E+00
         21   -1    0    0  504  503  0.00000000000E+00  0.00000000000E+00  0.35124567493E+03  0.35124567493E+03  0.00000000000E+00 0.  1.
         21   -1    0    0  502  504 -0.00000000000E+00 -0.00000000000E+00 -0.10751284893E+03  0.10751284893E+03  0.00000000000E+00 0.  1.
          6    2    1    2  502    0 -0.14658412375E+02  0.82441514353E+02  0.95931576999E+02  0.21380051965E+03  0.17174493412E+03 0.  0.
         24    2    3    3    0    0 -0.20511032770E+02  0.95510927744E+02  0.12707010809E+03  0.17920628819E+03  0.80156357021E+02 0.  0.
         -6    2    1    2    0  503  0.14658412375E+02 -0.82441514353E+02  0.14780124900E+03  0.24495800422E+03  0.17648722980E+03 0.  0.
        -24    2    5    5    0    0  0.11182764138E+02 -0.92240821918E+02  0.31068706542E+02  0.12766911716E+03  0.81857898259E+02 0.  0.
          2    1    4    4  501    0 -0.23652903751E+02  0.89500176148E+02  0.13810064427E+03  0.16625741888E+03  0.00000000000E+00 0. -1.
         -1    1    4    4    0  501  0.31418709812E+01  0.60107515954E+01 -0.11030536173E+02  0.12948869304E+02  0.00000000000E+00 0.  1.
          5    1    3    3  502    0  0.58526203948E+01 -0.13069413391E+02 -0.31138531095E+02  0.34594231464E+02  0.47000000000E+01 0. -1.
         13    1    6    6    0    0  0.32751696770E+02 -0.53658071313E+02 -0.14147996199E+02  0.64436232469E+02  0.00000000000E+00 0. -1.
        -14    1    6    6    0    0 -0.21568932632E+02 -0.38582750605E+02  0.45216702741E+02  0.63232884687E+02  0.00000000000E+00 0.  1.
         -5    1    5    5    0  503  0.34756482368E+01  0.97993075654E+01  0.11673254246E+03  0.11728888706E+03  0.47000000000E+01 0.  1.
<mgrwt>
<rscale>  2 0.19426653E+03</rscale>
<asrwt>0</asrwt>
<pdfrwt beam="1">  1       21 0.54037795E-01 0.19534384E+03</pdfrwt>
<pdfrwt beam="2">  1       21 0.16540439E-01 0.19534384E+03</pdfrwt>
<totfact> 0.10611360E+05</totfact>
</mgrwt>
</event>
<event>
12    1  0.2762290E-001  0.2105468E+03  0.7546771E-02  0.1141166E+00
         21   -1    0    0  504  503  0.00000000000E+00  0.00000000000E+00  0.61670720405E+02  0.61670720405E+02  0.00000000000E+00 0.  1.
         21   -1    0    0  502  504 -0.00000000000E+00 -0.00000000000E+00 -0.79731066346E+03  0.79731066346E+03  0.00000000000E+00 0.  1.
          6    2    1    2  502    0  0.11300917971E+03 -0.42960558575E+02 -0.23245193723E+03  0.31352001123E+03  0.17217494019E+03 0.  0.
         24    2    3    3    0    0  0.11178636658E+03 -0.89110955820E+02 -0.17530780049E+03  0.23990685479E+03  0.79909447891E+02 0.  0.
         -6    2    1    2    0  503 -0.11300917971E+03  0.42960558575E+02 -0.50318800583E+03  0.54546137263E+03  0.17237533331E+03 0.  0.
        -24    2    5    5    0    0 -0.14372379821E+03  0.59708783085E+02 -0.40384919015E+03  0.44003755600E+03  0.79480899296E+02 0.  0.
          2    1    4    4  501    0  0.33805739855E+02 -0.89934871067E+01 -0.97793454084E+02  0.10386178565E+03  0.00000000000E+00 0. -1.
         -1    1    4    4    0  501  0.77980626727E+02 -0.80117468713E+02 -0.77514346404E+02  0.13604506914E+03  0.00000000000E+00 0.  1.
          5    1    3    3  502    0  0.12228131271E+01  0.46150397245E+02 -0.57144136739E+02  0.73613156442E+02  0.47000000000E+01 0. -1.
         11    1    6    6    0    0 -0.17356343361E+01  0.23303881867E+02 -0.27135140870E+02  0.35810601875E+02  0.00000000000E+00 0. -1.
        -12    1    6    6    0    0 -0.14198816387E+03  0.36404901218E+02 -0.37671404928E+03  0.40422695413E+03  0.00000000000E+00 0.  1.
         -5    1    5    5    0  503  0.30714618500E+02 -0.16748224510E+02 -0.99338815673E+02  0.10542381663E+03  0.47000000000E+01 0.  1.
<mgrwt>
<rscale>  2 0.21050574E+03</rscale>
<asrwt>0</asrwt>
<pdfrwt beam="1">  1       21 0.94878044E-02 0.21054676E+03</pdfrwt>
<pdfrwt beam="2">  1       21 0.12266316E+00 0.21054676E+03</pdfrwt>
<totfact> 0.44088644E+04</totfact>
</mgrwt>
</event>
<event>
12    1  0.2762290E-001  0.2026104E+03  0.7546771E-02  0.1147730E+00
         21   -1    0    0  504  503  0.00000000000E+00  0.00000000000E+00  0.19056931058E+03  0.19056931058E+03  0.00000000000E+00 0.  1.
         21   -1    0    0  502  504 -0.00000000000E+00 -0.00000000000E+00 -0.42070765024E+03  0.42070765024E+03  0.00000000000E+00 0.  1.
          6    2    1    2  502    0  0.10238329969E+03 -0.23699452287E+02 -0.32891540529E+03  0.38587093493E+03  0.17224119860E+03 0.  0.
         24    2    3    3    0    0  0.13814063093E+03 -0.20004707986E+02 -0.29441664332E+03  0.33582603060E+03  0.81332285752E+02 0.  0.
         -6    2    1    2    0  503 -0.10238329969E+03  0.23699452287E+02  0.98777065631E+02  0.22540602589E+03  0.17322518211E+03 0.  0.
        -24    2    5    5    0    0  0.45937996958E+01 -0.79250860070E+01  0.84338541013E+01  0.81780829332E+02  0.80827372637E+02 0.  0.
          4    1    4    4  501    0  0.83472659375E+02 -0.68622386624E+01 -0.25154033087E+03  0.26511754607E+03  0.00000000000E+00 0. -1.
         -3    1    4    4    0  501  0.54667971558E+02 -0.13142469323E+02 -0.42876312455E+02  0.70708484526E+02  0.00000000000E+00 0.  1.
          5    1    3    3  502    0 -0.35757331239E+02 -0.36947443016E+01 -0.34498761966E+02  0.50044904335E+02  0.47000000000E+01 0. -1.
         13    1    6    6    0    0 -0.14477677168E+02  0.33064425076E+02  0.50276694177E+01  0.36443611258E+02  0.00000000000E+00 0. -1.
        -14    1    6    6    0    0  0.19071476863E+02 -0.40989511083E+02  0.34061846835E+01  0.45337218074E+02  0.00000000000E+00 0.  1.
         -5    1    5    5    0  503 -0.10697709939E+03  0.31624538294E+02  0.90343211529E+02  0.14362519656E+03  0.47000000000E+01 0.  1.
<mgrwt>
<rscale>  2 0.20239990E+03</rscale>
<asrwt>0</asrwt>
<pdfrwt beam="1">  1       21 0.29318356E-01 0.20261038E+03</pdfrwt>
<pdfrwt beam="2">  1       21 0.64724253E-01 0.20261038E+03</pdfrwt>
<totfact> 0.24372248E+04</totfact>
</mgrwt>
</event>
<event>
12    1  0.2762290E-001  0.1871139E+03  0.7546771E-02  0.1161413E+00
         21   -1    0    0  504  503  0.00000000000E+00  0.00000000000E+00  0.79435961348E+02  0.79435961348E+02  0.00000000000E+00 0. -1.
         21   -1    0    0  502  504 -0.00000000000E+00 -0.00000000000E+00 -0.72625953593E+03  0.72625953593E+03  0.00000000000E+00 0. -1.
          6    2    1    2  502    0  0.49818902314E+01 -0.67547694715E+02 -0.57671083046E+03  0.60587704074E+03  0.17292800883E+03 0.  0.
         24    2    3    3    0    0  0.54681041882E+02 -0.81590150364E+02 -0.34261945635E+03  0.36611036736E+03  0.83676401909E+02 0.  0.
         -6    2    1    2    0  503 -0.49818902314E+01  0.67547694715E+02 -0.70112744120E+02  0.19981845653E+03  0.17442507959E+03 0.  0.
        -24    2    5    5    0    0  0.32351121839E+02  0.43670443892E+02  0.20459882324E+02  0.98876059305E+02  0.80026030546E+02 0.  0.
          4    1    4    4  501    0  0.56664757614E+02 -0.87849628771E+02 -0.34388465209E+03  0.35942329637E+03  0.00000000000E+00 0. -1.
         -3    1    4    4    0  501 -0.19837157320E+01  0.62594784072E+01  0.12651957424E+01  0.66870709807E+01  0.00000000000E+00 0.  1.
          5    1    3    3  502    0 -0.49699151651E+02  0.14042455649E+02 -0.23409137411E+03  0.23976667339E+03  0.47000000000E+01 0. -1.
         13    1    6    6    0    0 -0.21692647058E+02  0.20300138642E+02 -0.11527753240E+02  0.31867784047E+02  0.00000000000E+00 0. -1.
        -14    1    6    6    0    0  0.54043768897E+02  0.23370305250E+02  0.31987635564E+02  0.67008275258E+02  0.00000000000E+00 0.  1.
         -5    1    5    5    0  503 -0.37333012070E+02  0.23877250823E+02 -0.90572626444E+02  0.10094239723E+03  0.47000000000E+01 0.  1.
<mgrwt>
<rscale>  2 0.18676425E+03</rscale>
<asrwt>0</asrwt>
<pdfrwt beam="1">  1       21 0.12220916E-01 0.18711392E+03</pdfrwt>
<pdfrwt beam="2">  1       21 0.11173224E+00 0.18711392E+03</pdfrwt>
<totfact> 0.35824768E+04</totfact>
</mgrwt>
</event>
<event>
12    1  0.2762290E-001  0.1874685E+03  0.7546771E-02  0.1160797E+00
         21   -1    0    0  504  503  0.00000000000E+00  0.00000000000E+00  0.63637199634E+02  0.63637199634E+02  0.00000000000E+00 0. -1.
         21   -1    0    0  502  504 -0.00000000000E+00 -0.00000000000E+00 -0.65755448636E+03  0.65755448636E+03  0.00000000000E+00 0. -1.
          6    2    1    2  502    0  0.63850357434E+02 -0.25634818023E+02 -0.15228829108E+03  0.24142026099E+03  0.17423549230E+03 0.  0.
         24    2    3    3    0    0 -0.21901283878E+02 -0.51007292906E+02 -0.91327505383E+02  0.13309014578E+03  0.79314963903E+02 0.  0.
         -6    2    1    2    0  503 -0.63850357434E+02  0.25634818023E+02 -0.44162899565E+03  0.47977142500E+03  0.17438588938E+03 0.  0.
        -24    2    5    5    0    0 -0.59951265343E+02 -0.47893360417E+02 -0.29629122654E+03  0.31677831757E+03  0.81682821727E+02 0.  0.
          4    1    4    4  501    0  0.25344730392E+02 -0.25555920945E+02 -0.13262155270E+02  0.38358117998E+02  0.00000000000E+00 0. -1.
         -3    1    4    4    0  501 -0.47246014270E+02 -0.25451371961E+02 -0.78065350113E+02  0.94732027780E+02  0.00000000000E+00 0.  1.
          5    1    3    3  502    0  0.85751641312E+02  0.25372474882E+02 -0.60960785698E+02  0.10833011521E+03  0.47000000000E+01 0. -1.
         13    1    6    6    0    0 -0.60629113041E+02 -0.52396931121E+01 -0.23025946942E+03  0.23816541938E+03  0.00000000000E+00 0. -1.
        -14    1    6    6    0    0  0.67784769800E+00 -0.42653667304E+02 -0.66031757123E+02  0.78612898183E+02  0.00000000000E+00 0.  1.
         -5    1    5    5    0  503 -0.38990920909E+01  0.73528178440E+02 -0.14533776910E+03  0.16299310743E+03  0.47000000000E+01 0.  1.
<mgrwt>
<rscale>  2 0.18743355E+03</rscale>
<asrwt>0</asrwt>
<pdfrwt beam="1">  1       21 0.97903378E-02 0.18746853E+03</pdfrwt>
<pdfrwt beam="2">  1       21 0.10116223E+00 0.18746853E+03</pdfrwt>
<totfact> 0.67440720E+04</totfact>
</mgrwt>
</event>
<event>
12    1  0.2762290E-001  0.2433234E+03  0.7546771E-02  0.1118131E+00
         21   -1    0    0  504  503  0.00000000000E+00  0.00000000000E+00  0.58195597656E+02  0.58195597656E+02  0.00000000000E+00 0. -1.
         21   -1    0    0  502  504 -0.00000000000E+00 -0.00000000000E+00 -0.14906579927E+04  0.14906579927E+04  0.00000000000E+00 0. -1.
          6    2    1    2  502    0  0.69923932330E+02  0.15136915582E+03 -0.11555336982E+04  0.11802131515E+04  0.17275120143E+03 0.  0.
         24    2    3    3    0    0  0.26867157952E+02  0.28595494336E+01 -0.45750076375E+03  0.46524388180E+03  0.80093067857E+02 0.  0.
         -6    2    1    2    0  503 -0.69923932330E+02 -0.15136915582E+03 -0.27692869683E+03  0.36864043887E+03  0.17721256274E+03 0.  0.
        -24    2    5    5    0    0 -0.39681031130E+00 -0.65027808345E+02 -0.45606493938E+02  0.11208459596E+03  0.79083696453E+02 0.  0.
          2    1    4    4  501    0 -0.73391500847E+01  0.31481771934E+02 -0.29389701401E+03  0.29566944369E+03  0.00000000000E+00 0. -1.
         -1    1    4    4    0  501  0.34206308037E+02 -0.28622222501E+02 -0.16360374974E+03  0.16957443811E+03  0.00000000000E+00 0.  1.
          5    1    3    3  502    0  0.43056774378E+02  0.14850960639E+03 -0.69803293450E+03  0.71496926973E+03  0.47000000000E+01 0. -1.
         11    1    6    6    0    0  0.18744551964E+02 -0.50866726968E+02 -0.62616336998E+02  0.82822628549E+02  0.00000000000E+00 0. -1.
        -12    1    6    6    0    0 -0.19141362276E+02 -0.14161081377E+02  0.17009843061E+02  0.29261967406E+02  0.00000000000E+00 0.  1.
         -5    1    5    5    0  503 -0.69527122019E+02 -0.86341347478E+02 -0.23132220289E+03  0.25655584291E+03  0.47000000000E+01 0.  1.
<mgrwt>
<rscale>  2 0.24251190E+03</rscale>
<asrwt>0</asrwt>
<pdfrwt beam="1">  1       21 0.89531689E-02 0.24332339E+03</pdfrwt>
<pdfrwt beam="2">  1       21 0.22933200E+00 0.24332339E+03</pdfrwt>
<totfact> 0.83384138E+03</totfact>
</mgrwt>
</event>
<event>
12    1  0.2762290E-001  0.2337828E+03  0.7546771E-02  0.1124489E+00
         21   -1    0    0  504  503  0.00000000000E+00  0.00000000000E+00  0.26992782296E+03  0.26992782296E+03  0.00000000000E+00 0.  1.
         21   -1    0    0  502  504 -0.00000000000E+00 -0.00000000000E+00 -0.21462443780E+03  0.21462443780E+03  0.00000000000E+00 0.  1.
          6    2    1    2  502    0 -0.94451889161E+02  0.11913170701E+03  0.90594566177E+02  0.24812077232E+03  0.17390520192E+03 0.  0.
         24    2    3    3    0    0 -0.65519767884E+02  0.15351338886E+03  0.63252782903E+02  0.19531139057E+03  0.79286973697E+02 0.  0.
         -6    2    1    2    0  503  0.94451889161E+02 -0.11913170701E+03 -0.35291181020E+02  0.23643148844E+03  0.17759746138E+03 0.  0.
        -24    2    5    5    0    0  0.65173304821E+02 -0.15523304376E+03 -0.21777235934E+02  0.18779756275E+03  0.80304539318E+02 0.  0.
          4    1    4    4  501    0 -0.67037176681E+02  0.71268851209E+02  0.55996339831E+02  0.11273341246E+03  0.00000000000E+00 0. -1.
         -3    1    4    4    0  501  0.15174087966E+01  0.82244537649E+02  0.72564430725E+01  0.82577978109E+02  0.00000000000E+00 0.  1.
          5    1    3    3  502    0 -0.28932121276E+02 -0.34381681853E+02  0.27341783274E+02  0.52809381753E+02  0.47000000000E+01 0. -1.
         11    1    6    6    0    0  0.66166462373E+02 -0.70896315979E+02  0.10386441291E+02  0.97530336434E+02  0.00000000000E+00 0. -1.
        -12    1    6    6    0    0 -0.99315755219E+00 -0.84336727780E+02 -0.32163677225E+02  0.90267226318E+02  0.00000000000E+00 0.  1.
         -5    1    5    5    0  503  0.29278584340E+02  0.36101336753E+02 -0.13513945085E+02  0.48633925691E+02  0.47000000000E+01 0.  1.
<mgrwt>
<rscale>  2 0.23308151E+03</rscale>
<asrwt>0</asrwt>
<pdfrwt beam="1">  1       21 0.41527357E-01 0.23378277E+03</pdfrwt>
<pdfrwt beam="2">  1       21 0.33019144E-01 0.23378277E+03</pdfrwt>
<totfact> 0.48371575E+04</totfact>
</mgrwt>
</event>
<event>
12    1  0.2762290E-001  0.1803879E+03  0.7546771E-02  0.1167734E+00
         21   -1    0    0  504  503  0.00000000000E+00  0.00000000000E+00  0.12133175995E+03  0.12133175995E+03  0.00000000000E+00 0.  1.
         21   -1    0    0  502  504 -0.00000000000E+00 -0.00000000000E+00 -0.27609236610E+03  0.27609236610E+03  0.00000000000E+00 0. -1.
          6    2    1    2  502    0 -0.39481009799E+02 -0.29826158204E+02 -0.11504371367E+03  0.21395061913E+03  0.17346890650E+03 0.  0.
         24    2    3    3    0    0  0.31916915994E+02 -0.58478992050E+02 -0.58549097569E+02  0.11838713058E+03  0.78415775347E+02 0.  0.
         -6    2    1    2    0  503  0.39481009799E+02  0.29826158204E+02 -0.39716892477E+02  0.18347350693E+03  0.17215326412E+03 0.  0.
        -24    2    5    5    0    0 -0.28897193785E+02 -0.25245699032E+02 -0.33472455069E+01  0.88324521618E+02  0.79483482172E+02 0.  0.
          4    1    4    4  501    0  0.41438683281E+02  0.11899056666E+01 -0.15775513028E+02  0.44355914587E+02  0.00000000000E+00 0. -1.
         -3    1    4    4    0  501 -0.95217672870E+01 -0.59668897717E+02 -0.42773584542E+02  0.74031215994E+02  0.00000000000E+00 0.  1.
          5    1    3    3  502    0 -0.71397925793E+02  0.28652833846E+02 -0.56494616103E+02  0.95563488549E+02  0.47000000000E+01 0. -1.
         13    1    6    6    0    0 -0.50343492943E+01 -0.51073155314E+02 -0.10641012920E+02  0.52412241152E+02  0.00000000000E+00 0. -1.
        -14    1    6    6    0    0 -0.23862844491E+02  0.25827456282E+02  0.72937674127E+01  0.35912280466E+02  0.00000000000E+00 0.  1.
         -5    1    5    5    0  503  0.68378203584E+02  0.55071857236E+02 -0.36369646970E+02  0.95148985310E+02  0.47000000000E+01 0.  1.
<mgrwt>
<rscale>  2 0.18007091E+03</rscale>
<asrwt>0</asrwt>
<pdfrwt beam="1">  1       21 0.18666425E-01 0.18038795E+03</pdfrwt>
<pdfrwt beam="2">  1       21 0.42475748E-01 0.18038795E+03</pdfrwt>
<totfact> 0.14053741E+05</totfact>
</mgrwt>
</event>
<event>
12    1  0.2762290E-001  0.1792068E+03  0.7546771E-02  0.1170117E+00
         21   -1    0    0  504  503  0.00000000000E+00  0.00000000000E+00  0.14439921222E+04  0.14439921222E+04  0.00000000000E+00 0.  1.
         21   -1    0    0  502  504 -0.00000000000E+00 -0.00000000000E+00 -0.27450191280E+02  0.27450191280E+02  0.00000000000E+00 0.  1.
          6    2    1    2  502    0 -0.27172728089E+02 -0.32372096209E+02  0.35525257985E+03  0.39512909004E+03  0.16773876278E+03 0.  0.
         24    2    3    3    0    0 -0.92006572912E+00  0.22729454089E+01  0.66594536542E+02  0.10317868816E+03  0.78771800738E+02 0.  0.
         -6    2    1    2    0  503  0.27172728089E+02  0.32372096209E+02  0.10612893511E+04  0.10763132235E+04  0.17415153889E+03 0.  0.
        -24    2    5    5    0    0  0.60315181085E+02 -0.29355486383E+01  0.95682685371E+03  0.96107627047E+03  0.67107608877E+02 0.  0.
          4    1    4    4  501    0 -0.12874740636E+01  0.39965582312E+02  0.25553549094E+02  0.47454074960E+02  0.00000000000E+00 0. -1.
         -3    1    4    4    0  501  0.36740833449E+00 -0.37692636904E+02  0.41040987449E+02  0.55724613201E+02  0.00000000000E+00 0.  1.
          5    1    3    3  502    0 -0.26252662360E+02 -0.34645041618E+02  0.28865804331E+03  0.29195040188E+03  0.47000000000E+01 0. -1.
         11    1    6    6    0    0  0.10557117907E+02 -0.87718827509E+01  0.65317964171E+03  0.65332384237E+03  0.00000000000E+00 0. -1.
        -12    1    6    6    0    0  0.49758063178E+02  0.58363341126E+01  0.30364721199E+03  0.30775242810E+03  0.00000000000E+00 0.  1.
         -5    1    5    5    0  503 -0.33142452996E+02  0.35307644847E+02  0.10446249737E+03  0.11523695298E+03  0.47000000000E+01 0.  1.
<mgrwt>
<rscale>  2 0.17762976E+03</rscale>
<asrwt>0</asrwt>
<pdfrwt beam="1">  1       21 0.22215258E+00 0.17920678E+03</pdfrwt>
<pdfrwt beam="2">  1       21 0.42231075E-02 0.17920678E+03</pdfrwt>
<totfact> 0.35267361E+04</totfact>
</mgrwt>
</event>
<event>
12    1  0.2762290E-001  0.2327775E+03  0.7546771E-02  0.1125454E+00
         21   -1    0    0  504  503  0.00000000000E+00  0.00000000000E+00  0.15598579638E+03  0.15598579638E+03  0.00000000000E+00 0.  1.
         21   -1    0    0  502  504 -0.00000000000E+00 -0.00000000000E+00 -0.36693884193E+03  0.36693884193E+03  0.00000000000E+00 0.  1.
          6    2    1    2  502    0 -0.15458007006E+03 -0.55376660483E+01 -0.17411082670E+03  0.28724963879E+03  0.16814312716E+03 0.  0.
         24    2    3    3    0    0 -0.11525485517E+03  0.30102066373E+02 -0.18377232724E+03  0.23310079166E+03  0.79836675621E+02 0.  0.
         -6    2    1    2    0  503  0.15458007006E+03  0.55376660483E+01 -0.36842218859E+02  0.23567499952E+03  0.17395313307E+03 0.  0.
        -24    2    5    5    0    0  0.82007031954E+02  0.65487570642E+02  0.70981832002E+01  0.13168612582E+03  0.79228002182E+02 0.  0.
          2    1    4    4  501    0 -0.86971326531E+02  0.46162673159E+02 -0.17259965981E+03  0.19870995596E+03  0.00000000000E+00 0. -1.
         -1    1    4    4    0  501 -0.28283528637E+02 -0.16060606786E+02 -0.11172667427E+02  0.34390835697E+02  0.00000000000E+00 0.  1.
          5    1    3    3  502    0 -0.39325214888E+02 -0.35639732421E+02  0.96615005444E+01  0.54148847133E+02  0.47000000000E+01 0. -1.
         13    1    6    6    0    0 -0.12424525661E+02  0.11519369614E+02  0.15007266234E+02  0.22633664176E+02  0.00000000000E+00 0. -1.
        -14    1    6    6    0    0  0.94431557615E+02  0.53968201028E+02 -0.79090830339E+01  0.10905246164E+03  0.00000000000E+00 0.  1.
         -5    1    5    5    0  503  0.72573038102E+02 -0.59949904593E+02 -0.43940402059E+02  0.10398887370E+03  0.47000000000E+01 0.  1.
<mgrwt>
<rscale>  2 0.23169263E+03</rscale>
<asrwt>0</asrwt>
<pdfrwt beam="1">  1       21 0.23997815E-01 0.23277748E+03</pdfrwt>
<pdfrwt beam="2">  1       21 0.56452129E-01 0.23277748E+03</pdfrwt>
<totfact> 0.47428454E+04</totfact>
</mgrwt>
</event>
<event>
12    1  0.2762290E-001  0.1816187E+03  0.7546771E-02  0.1166829E+00
         21   -1    0    0  504  503  0.00000000000E+00  0.00000000000E+00  0.13489033013E+04  0.13489033013E+04  0.00000000000E+00 0.  1.
         21   -1    0    0  502  504 -0.00000000000E+00 -0.00000000000E+00 -0.28500224486E+02  0.28500224486E+02  0.00000000000E+00 0.  1.
          6    2    1    2  502    0  0.35376732778E+02 -0.35767778878E+02  0.39422407480E+03  0.43404833420E+03  0.17451214295E+03 0.  0.
         24    2    3    3    0    0  0.27944627223E+02 -0.21329766692E+02  0.40473151678E+03  0.41414384411E+03  0.80446639452E+02 0.  0.
         -6    2    1    2    0  503 -0.35376732778E+02  0.35767778878E+02  0.92617900206E+03  0.94335519164E+03  0.17199019305E+03 0.  0.
        -24    2    5    5    0    0 -0.55904358704E+02  0.31915462338E+02  0.30722892429E+03  0.32403498969E+03  0.80406271929E+02 0.  0.
          2    1    4    4  501    0 -0.25568119171E+02  0.51784375965E+01  0.86136599787E+02  0.90000326426E+02  0.00000000000E+00 0. -1.
         -1    1    4    4    0  501  0.53512746393E+02 -0.26508204288E+02  0.31859491699E+03  0.32414351768E+03  0.00000000000E+00 0.  1.
          5    1    3    3  502    0  0.74321055560E+01 -0.14438012186E+02 -0.10507441976E+02  0.19904490090E+02  0.47000000000E+01 0. -1.
         13    1    6    6    0    0 -0.83108328306E+01 -0.24702320537E+02  0.11844915953E+03  0.12128263675E+03  0.00000000000E+00 0. -1.
        -14    1    6    6    0    0 -0.47593525874E+02  0.56617782875E+02  0.18877976476E+03  0.20275235295E+03  0.00000000000E+00 0.  1.
         -5    1    5    5    0  503  0.20527625926E+02  0.38523165397E+01  0.61895007777E+03  0.61932020195E+03  0.47000000000E+01 0.  1.
<mgrwt>
<rscale>  2 0.18101012E+03</rscale>
<asrwt>0</asrwt>
<pdfrwt beam="1">  1       21 0.20752353E+00 0.18161865E+03</pdfrwt>
<pdfrwt beam="2">  1       21 0.43846510E-02 0.18161865E+03</pdfrwt>
<totfact> 0.40703174E+04</totfact>
</mgrwt>
</event>
<event>
12    1  0.2762290E-001  0.2450585E+03  0.7546771E-02  0.1116546E+00
         21   -1    0    0  504  503  0.00000000000E+00  0.00000000000E+00  0.45428406508E+03  0.45428406508E+03  0.00000000000E+00 0.  1.
         21   -1    0    0  502  504 -0.00000000000E+00 -0.00000000000E+00 -0.14101368485E+03  0.14101368485E+03  0.00000000000E+00 0. -1.
          6    2    1    2  502    0  0.17245892146E+03 -0.15863404868E+02  0.23230666891E+03  0.33766855471E+03  0.17337801827E+03 0.  0.
         24    2    3    3    0    0  0.16845773628E+03 -0.31608184875E+02  0.24940965454E+03  0.31361632617E+03  0.82297861445E+02 0.  0.
         -6    2    1    2    0  503 -0.17245892146E+03  0.15863404868E+02  0.80963711327E+02  0.25762919522E+03  0.17269612755E+03 0.  0.
        -24    2    5    5    0    0 -0.14846631559E+03  0.61334375314E+02  0.22903027290E+02  0.17993500418E+03  0.77768275098E+02 0.  0.
          2    1    4    4  501    0  0.11717412275E+03  0.17974381092E+02  0.14778671800E+03  0.18945650539E+03  0.00000000000E+00 0. -1.
         -1    1    4    4    0  501  0.51283613530E+02 -0.49582565967E+02  0.10162293654E+03  0.12415982078E+03  0.00000000000E+00 0.  1.
          5    1    3    3  502    0  0.40011851839E+01  0.15744780007E+02 -0.17102985635E+02  0.24052228544E+02  0.47000000000E+01 0. -1.
         13    1    6    6    0    0 -0.32710619964E+02  0.26854890127E+02 -0.25953385664E+02  0.49646228554E+02  0.00000000000E+00 0. -1.
        -14    1    6    6    0    0 -0.11575569562E+03  0.34479485187E+02  0.48856412954E+02  0.13028877563E+03  0.00000000000E+00 0.  1.
         -5    1    5    5    0  503 -0.23992605876E+02 -0.45470970446E+02  0.58060684037E+02  0.77694191037E+02  0.47000000000E+01 0.  1.
<mgrwt>
<rscale>  2 0.24493791E+03</rscale>
<asrwt>0</asrwt>
<pdfrwt beam="1">  1       21 0.69889855E-01 0.24505849E+03</pdfrwt>
<pdfrwt beam="2">  1       21 0.21694413E-01 0.24505849E+03</pdfrwt>
<totfact> 0.35913094E+04</totfact>
</mgrwt>
</event>
<event>
12    1  0.2762290E-001  0.2258873E+03  0.7546771E-02  0.1129804E+00
         21   -1    0    0  504  503  0.00000000000E+00  0.00000000000E+00  0.80189867096E+02  0.80189867096E+02  0.00000000000E+00 0. -1.
         21   -1    0    0  502  504 -0.00000000000E+00 -0.00000000000E+00 -0.66806924718E+03  0.66806924718E+03  0.00000000000E+00 0.  1.
          6    2    1    2  502    0 -0.26054416645E+02  0.14341747265E+03 -0.38090238564E+03  0.44284498784E+03  0.17256202301E+03 0.  0.
         24    2    3    3    0    0  0.86492576537E+01  0.39448967156E+02 -0.27929625403E+03  0.29331341551E+03  0.79970816780E+02 0.  0.
         -6    2    1    2    0  503  0.26054416645E+02 -0.14341747265E+03 -0.20697699444E+03  0.30541412643E+03  0.17085347028E+03 0.  0.
        -24    2    5    5    0    0  0.55177064174E+02 -0.11811267450E+03 -0.21670111437E+03  0.26535030339E+03  0.80351093631E+02 0.  0.
          2    1    4    4  501    0 -0.17008232016E+01  0.62096087013E+02 -0.22772502791E+03  0.23604555738E+03  0.00000000000E+00 0. -1.
         -1    1    4    4    0  501  0.10350080855E+02 -0.22647119857E+02 -0.51571226116E+02  0.57267858129E+02  0.00000000000E+00 0.  1.
          5    1    3    3  502    0 -0.34703674298E+02  0.10396850549E+03 -0.10160613161E+03  0.14953157233E+03  0.47000000000E+01 0. -1.
         11    1    6    6    0    0  0.57742481361E+01 -0.86096591428E+02 -0.85157152331E+02  0.12123409417E+03  0.00000000000E+00 0. -1.
        -12    1    6    6    0    0  0.49402816038E+02 -0.32016083073E+02 -0.13154396204E+03  0.14411620921E+03  0.00000000000E+00 0.  1.
         -5    1    5    5    0  503 -0.29122647529E+02 -0.25304798144E+02  0.97241199337E+01  0.40063823042E+02  0.47000000000E+01 0.  1.
<mgrwt>
<rscale>  2 0.22556093E+03</rscale>
<asrwt>0</asrwt>
<pdfrwt beam="1">  1       21 0.12336903E-01 0.22588726E+03</pdfrwt>
<pdfrwt beam="2">  1       21 0.10277988E+00 0.22588726E+03</pdfrwt>
<totfact> 0.42216637E+04</totfact>
</mgrwt>
</event>
<event>
12    1  0.2762290E-001  0.1782113E+03  0.7546771E-02  0.1170147E+00
         21   -1    0    0  504  503  0.00000000000E+00  0.00000000000E+00  0.17655027204E+03  0.17655027204E+03  0.00000000000E+00 0.  1.
         21   -1    0    0  502  504 -0.00000000000E+00 -0.00000000000E+00 -0.29953451995E+03  0.29953451995E+03  0.00000000000E+00 0.  1.
          6    2    1    2  502    0  0.17320166312E+02  0.36713497220E+02 -0.21321839875E+03  0.27633124961E+03  0.17102340456E+03 0.  0.
         24    2    3    3    0    0  0.39162961348E+02 -0.13328603975E+02 -0.20067458959E+03  0.22011064187E+03  0.80417750098E+02 0.  0.
         -6    2    1    2    0  503 -0.17320166312E+02 -0.36713497220E+02  0.90234150839E+02  0.19975354238E+03  0.17352638611E+03 0.  0.
        -24    2    5    5    0    0 -0.19176711331E+02 -0.50397258182E+02  0.12738149792E+03  0.15984480313E+03  0.80104214526E+02 0.  0.
          4    1    4    4  501    0  0.36715308199E+02 -0.44338945395E+02 -0.14978911344E+03  0.16047035377E+03  0.00000000000E+00 0. -1.
         -3    1    4    4    0  501  0.24476531496E+01  0.31010341421E+02 -0.50885476148E+02  0.59640288093E+02  0.00000000000E+00 0.  1.
          5    1    3    3  502    0 -0.21842795036E+02  0.50042101195E+02 -0.12543809157E+02  0.56220607744E+02  0.47000000000E+01 0. -1.
         11    1    6    6    0    0 -0.68271577846E+01  0.20277260797E+02  0.49650647657E+02  0.54064444893E+02  0.00000000000E+00 0. -1.
        -12    1    6    6    0    0 -0.12349553546E+02 -0.70674518978E+02  0.77730850265E+02  0.10578035824E+03  0.00000000000E+00 0.  1.
         -5    1    5    5    0  503  0.18565450184E+01  0.13683760961E+02 -0.37147347083E+02  0.39908739253E+02  0.47000000000E+01 0.  1.
<mgrwt>
<rscale>  2 0.17759911E+03</rscale>
<asrwt>0</asrwt>
<pdfrwt beam="1">  1       21 0.27161581E-01 0.17821132E+03</pdfrwt>
<pdfrwt beam="2">  1       21 0.46082233E-01 0.17821132E+03</pdfrwt>
<totfact> 0.58682821E+04</totfact>
</mgrwt>
</event>
<event>
12    1  0.2762290E-001  0.1789595E+03  0.7546771E-02  0.1168941E+00
         21   -1    0    0  504  503  0.00000000000E+00  0.00000000000E+00  0.15422279762E+03  0.15422279762E+03  0.00000000000E+00 0. -1.
         21   -1    0    0  502  504 -0.00000000000E+00 -0.00000000000E+00 -0.22006147171E+03  0.22006147171E+03  0.00000000000E+00 0. -1.
          6    2    1    2  502    0  0.38948104607E+02  0.23702793867E+02 -0.78449777629E+02  0.19539922882E+03  0.17305407746E+03 0.  0.
         24    2    3    3    0    0  0.25775875483E+02  0.25413556182E+01  0.24821520884E+02  0.89058431450E+02  0.81513447161E+02 0.  0.
         -6    2    1    2    0  503 -0.38948104607E+02 -0.23702793867E+02  0.12611103540E+02  0.17888504051E+03  0.17251678323E+03 0.  0.
        -24    2    5    5    0    0  0.23618437525E+01  0.48073506717E+02 -0.82740200499E+01  0.93347753049E+02  0.79553147251E+02 0.  0.
          2    1    4    4  501    0 -0.57482568293E+01  0.32747183144E+02 -0.82867376764E+01  0.34265003747E+02  0.00000000000E+00 0. -1.
         -1    1    4    4    0  501  0.31524132313E+02 -0.30205827526E+02  0.33108258560E+02  0.54793427703E+02  0.00000000000E+00 0.  1.
          5    1    3    3  502    0  0.13172229124E+02  0.21161438249E+02 -0.10327129851E+03  0.10634079737E+03  0.47000000000E+01 0. -1.
         11    1    6    6    0    0 -0.41225353713E+01 -0.21798012915E+02  0.26081150464E+01  0.22337209518E+02  0.00000000000E+00 0. -1.
        -12    1    6    6    0    0  0.64843791238E+01  0.69871519632E+02 -0.10882135096E+02  0.71010543531E+02  0.00000000000E+00 0.  1.
         -5    1    5    5    0  503 -0.41309948360E+02 -0.71776300584E+02  0.20885123590E+02  0.85537287462E+02  0.47000000000E+01 0.  1.
<mgrwt>
<rscale>  2 0.17882945E+03</rscale>
<asrwt>0</asrwt>
<pdfrwt beam="1">  1       21 0.23726584E-01 0.17895947E+03</pdfrwt>
<pdfrwt beam="2">  1       21 0.33855611E-01 0.17895947E+03</pdfrwt>
<totfact> 0.14126976E+05</totfact>
</mgrwt>
</event>
<event>
12    1  0.2762290E-001  0.2163255E+03  0.7546771E-02  0.1138506E+00
         21   -1    0    0  504  503  0.00000000000E+00  0.00000000000E+00  0.11496566252E+04  0.11496566252E+04  0.00000000000E+00 0.  1.
         21   -1    0    0  502  504 -0.00000000000E+00 -0.00000000000E+00 -0.39087994691E+02  0.39087994691E+02  0.00000000000E+00 0. -1.
          6    2    1    2  502    0  0.59300583580E+02 -0.96991416419E+02  0.53085384471E+03  0.57323863562E+03  0.18404574120E+03 0.  0.
         24    2    3    3    0    0 -0.35484154164E+02 -0.28422102748E+02  0.15660901156E+03  0.18110704747E+03  0.78780955952E+02 0.  0.
         -6    2    1    2    0  503 -0.59300583580E+02  0.96991416419E+02  0.57971478578E+03  0.61550598425E+03  0.17278451818E+03 0.  0.
        -24    2    5    5    0    0 -0.26745229585E+02 -0.74264282157E+01  0.14348118532E+03  0.16574517946E+03  0.78193061282E+02 0.  0.
          4    1    4    4  501    0 -0.34587468436E+02  0.58171480254E+01  0.20222590947E+02  0.40485619281E+02  0.00000000000E+00 0. -1.
         -3    1    4    4    0  501 -0.89668572875E+00 -0.34239250773E+02  0.13638642061E+03  0.14062142819E+03  0.00000000000E+00 0.  1.
          5    1    3    3  502    0  0.94784737744E+02 -0.68569313672E+02  0.37424483315E+03  0.39213158815E+03  0.47000000000E+01 0. -1.
         13    1    6    6    0    0 -0.20975450623E+01  0.28246356479E+02  0.19465427848E+02  0.34367997192E+02  0.00000000000E+00 0. -1.
        -14    1    6    6    0    0 -0.24647684522E+02 -0.35672784695E+02  0.12401575747E+03  0.13137718227E+03  0.00000000000E+00 0.  1.
         -5    1    5    5    0  503 -0.32555353995E+02  0.10441784464E+03  0.43623360046E+03  0.44976080479E+03  0.47000000000E+01 0.  1.
<mgrwt>
<rscale>  2 0.21391136E+03</rscale>
<asrwt>0</asrwt>
<pdfrwt beam="1">  1       21 0.17687022E+00 0.21632552E+03</pdfrwt>
<pdfrwt beam="2">  1       21 0.60135385E-02 0.21632552E+03</pdfrwt>
<totfact> 0.36991032E+04</totfact>
</mgrwt>
</event>
<event>
12    1  0.2762290E-001  0.1743628E+03  0.7546771E-02  0.1173578E+00
         21   -1    0    0  504  503  0.00000000000E+00  0.00000000000E+00  0.16479603510E+03  0.16479603510E+03  0.00000000000E+00 0. -1.
         21   -1    0    0  502  504 -0.00000000000E+00 -0.00000000000E+00 -0.33967166136E+03  0.33967166136E+03  0.00000000000E+00 0. -1.
          6    2    1    2  502    0 -0.16503910052E+02 -0.82343423341E+01 -0.25828842699E+03  0.31118011072E+03  0.17256872935E+03 0.  0.
         24    2    3    3    0    0  0.15268801383E+02  0.27062389326E+02 -0.56181506833E+02  0.10351532884E+03  0.81200692009E+02 0.  0.
         -6    2    1    2    0  503  0.16503910052E+02  0.82343423341E+01  0.83412800735E+02  0.19328758574E+03  0.17338457842E+03 0.  0.
        -24    2    5    5    0    0  0.11609205860E+01  0.34357563449E+02  0.11802841369E+03  0.14704733630E+03  0.80687190881E+02 0.  0.
          2    1    4    4  501    0  0.30102196463E+02  0.50376879714E+02 -0.32268573443E+02  0.66971882709E+02  0.00000000000E+00 0. -1.
         -1    1    4    4    0  501 -0.14833395080E+02 -0.23314490388E+02 -0.23912933390E+02  0.36543446129E+02  0.00000000000E+00 0.  1.
          5    1    3    3  502    0 -0.31772711435E+02 -0.35296731660E+02 -0.20210692016E+03  0.20766478188E+03  0.47000000000E+01 0. -1.
         13    1    6    6    0    0 -0.33412697757E+02  0.30917265083E+02  0.36243736559E+02  0.58188436062E+02  0.00000000000E+00 0. -1.
        -14    1    6    6    0    0  0.34573618343E+02  0.34402983659E+01  0.81784677135E+02  0.88858900242E+02  0.00000000000E+00 0.  1.
         -5    1    5    5    0  503  0.15342989466E+02 -0.26123221115E+02 -0.34615612959E+02  0.46240249434E+02  0.47000000000E+01 0.  1.
<mgrwt>
<rscale>  2 0.17415966E+03</rscale>
<asrwt>0</asrwt>
<pdfrwt beam="1">  1       21 0.25353236E-01 0.17436283E+03</pdfrwt>
<pdfrwt beam="2">  1       21 0.52257178E-01 0.17436283E+03</pdfrwt>
<totfact> 0.51676533E+04</totfact>
</mgrwt>
</event>
<event>
12    1  0.2762290E-001  0.2250184E+03  0.7546771E-02  0.1130492E+00
         21   -1    0    0  504  503  0.00000000000E+00  0.00000000000E+00  0.15623150258E+03  0.15623150258E+03  0.00000000000E+00 0. -1.
         21   -1    0    0  502  504 -0.00000000000E+00 -0.00000000000E+00 -0.44322746875E+03  0.44322746875E+03  0.00000000000E+00 0. -1.
          6    2    1    2  502    0  0.32058524284E+02  0.14036128252E+03  0.13791961794E+02  0.22381732084E+03  0.17080672202E+03 0.  0.
         24    2    3    3    0    0 -0.42484089428E+02  0.47768419739E+02 -0.88100007499E+01  0.10272653586E+03  0.79927500132E+02 0.  0.
         -6    2    1    2    0  503 -0.32058524284E+02 -0.14036128252E+03 -0.30078792796E+03  0.37564165049E+03  0.17292840530E+03 0.  0.
        -24    2    5    5    0    0  0.27849566142E+02 -0.18113835872E+02 -0.90692464089E+02  0.12525073322E+03  0.79742797444E+02 0.  0.
          4    1    4    4  501    0 -0.36347798963E+02 -0.14941634780E+02 -0.19977217464E+01  0.39349788201E+02  0.00000000000E+00 0. -1.
         -3    1    4    4    0  501 -0.61362904652E+01  0.62710054518E+02 -0.68122790035E+01  0.63376747657E+02  0.00000000000E+00 0.  1.
          5    1    3    3  502    0  0.74542613711E+02  0.92592862785E+02  0.22601962544E+02  0.12109078499E+03  0.47000000000E+01 0. -1.
         13    1    6    6    0    0 -0.10349004805E+02 -0.23851904344E+02 -0.81497204395E+02  0.85544196562E+02  0.00000000000E+00 0. -1.
        -14    1    6    6    0    0  0.38198570947E+02  0.57380684718E+01 -0.91952596945E+01  0.39706536653E+02  0.00000000000E+00 0.  1.
         -5    1    5    5    0  503 -0.59908090426E+02 -0.12224744665E+03 -0.21009546387E+03  0.25039091727E+03  0.47000000000E+01 0.  1.
<mgrwt>
<rscale>  2 0.22461067E+03</rscale>
<asrwt>0</asrwt>
<pdfrwt beam="1">  1       21 0.24035616E-01 0.22501838E+03</pdfrwt>
<pdfrwt beam="2">  1       21 0.68188840E-01 0.22501838E+03</pdfrwt>
<totfact> 0.31503087E+04</totfact>
</mgrwt>
</event>
<event>
12    1  0.2762290E-001  0.2173521E+03  0.7546771E-02  0.1135960E+00
         21   -1    0    0  504  503  0.00000000000E+00  0.00000000000E+00  0.38378900790E+03  0.38378900790E+03  0.00000000000E+00 0.  1.
         21   -1    0    0  502  504 -0.00000000000E+00 -0.00000000000E+00 -0.12319410542E+03  0.12319410542E+03  0.00000000000E+00 0. -1.
          6    2    1    2  502    0 -0.33611767543E+02 -0.12736408978E+03  0.14414963796E+03  0.26080847065E+03  0.17288891797E+03 0.  0.
         24    2    3    3    0    0 -0.26083316311E+02 -0.10231014804E+03  0.17515623245E+03  0.21996882721E+03  0.80986871747E+02 0.  0.
         -6    2    1    2    0  503  0.33611767543E+02  0.12736408978E+03  0.11644526453E+03  0.24617464267E+03  0.17231103500E+03 0.  0.
        -24    2    5    5    0    0  0.50963072137E+02  0.97388365523E+02  0.14645749420E+03  0.20010474202E+03  0.80686936444E+02 0.  0.
          4    1    4    4  501    0 -0.14782266487E+02 -0.10517310235E+03  0.10677683616E+03  0.15060275429E+03  0.00000000000E+00 0. -1.
         -3    1    4    4    0  501 -0.11301049825E+02  0.28629543107E+01  0.68379396292E+02  0.69366072916E+02  0.00000000000E+00 0.  1.
          5    1    3    3  502    0 -0.75284512313E+01 -0.25053941737E+02 -0.31006594493E+02  0.40839643443E+02  0.47000000000E+01 0. -1.
         13    1    6    6    0    0  0.26612875075E+02  0.44512793485E+02  0.11491191492E+02  0.53119500991E+02  0.00000000000E+00 0. -1.
        -14    1    6    6    0    0  0.24350197062E+02  0.52875572038E+02  0.13496630271E+03  0.14698524103E+03  0.00000000000E+00 0.  1.
         -5    1    5    5    0  503 -0.17351304594E+02  0.29975724252E+02 -0.30012229673E+02  0.46069900646E+02  0.47000000000E+01 0.  1.
<mgrwt>
<rscale>  2 0.21723717E+03</rscale>
<asrwt>0</asrwt>
<pdfrwt beam="1">  1       21 0.59044462E-01 0.21735211E+03</pdfrwt>
<pdfrwt beam="2">  1       21 0.18952940E-01 0.21735211E+03</pdfrwt>
<totfact> 0.67685304E+04</totfact>
</mgrwt>
</event>
<event>
12    1  0.2762290E-001  0.2220740E+03  0.7546771E-02  0.1132467E+00
         21   -1    0    0  504  503  0.00000000000E+00  0.00000000000E+00  0.14603072374E+03  0.14603072374E+03  0.00000000000E+00 0.  1.
         21   -1    0    0  502  504 -0.00000000000E+00 -0.00000000000E+00 -0.66230901328E+03  0.66230901328E+03  0.00000000000E+00 0.  1.
          6    2    1    2  502    0  0.10053079393E+03 -0.94813422768E+02 -0.54132420060E+03  0.58485781083E+03  0.17300503770E+03 0.  0.
         24    2    3    3    0    0  0.35805081792E+02 -0.97968752658E+02 -0.47325739742E+03  0.49075917315E+03  0.77408794309E+02 0.  0.
         -6    2    1    2    0  503 -0.10053079393E+03  0.94813422768E+02  0.25045911054E+02  0.22348192619E+03  0.17384144503E+03 0.  0.
        -24    2    5    5    0    0 -0.30117232545E+01  0.18425052326E+02  0.51980132928E+02  0.96624941394E+02  0.79283617790E+02 0.  0.
          4    1    4    4  501    0 -0.21775323992E+02 -0.32137366337E+02 -0.97197858411E+02  0.10466326351E+03  0.00000000000E+00 0. -1.
         -3    1    4    4    0  501  0.57580405784E+02 -0.65831386321E+02 -0.37605953901E+03  0.38609590963E+03  0.00000000000E+00 0.  1.
          5    1    3    3  502    0  0.64725712137E+02  0.31553298892E+01 -0.68066803178E+02  0.94098637680E+02  0.47000000000E+01 0. -1.
         13    1    6    6    0    0 -0.76136651940E+01 -0.25888933906E+02  0.43623994604E+02  0.51295786393E+02  0.00000000000E+00 0. -1.
        -14    1    6    6    0    0  0.46019419395E+01  0.44313986232E+02  0.83561383241E+01  0.45329155001E+02  0.00000000000E+00 0.  1.
         -5    1    5    5    0  503 -0.97519070675E+02  0.76388370442E+02 -0.26934221875E+02  0.12685698480E+03  0.47000000000E+01 0.  1.
<mgrwt>
<rscale>  2 0.22191031E+03</rscale>
<asrwt>0</asrwt>
<pdfrwt beam="1">  1       21 0.22466265E-01 0.22207403E+03</pdfrwt>
<pdfrwt beam="2">  1       21 0.10189369E+00 0.22207403E+03</pdfrwt>
<totfact> 0.14294981E+04</totfact>
</mgrwt>
</event>
<event>
12    1  0.2762290E-001  0.1812868E+03  0.7546771E-02  0.1166583E+00
         21   -1    0    0  504  503  0.00000000000E+00  0.00000000000E+00  0.11300535890E+03  0.11300535890E+03  0.00000000000E+00 0.  1.
         21   -1    0    0  502  504 -0.00000000000E+00 -0.00000000000E+00 -0.31220747524E+03  0.31220747524E+03  0.00000000000E+00 0.  1.
          6    2    1    2  502    0 -0.25836609207E+02 -0.48122089068E+02 -0.15543108276E+03  0.23879640004E+03  0.17286304796E+03 0.  0.
         24    2    3    3    0    0  0.30695634815E+02 -0.78528389392E+02 -0.90491816197E+02  0.14736535468E+03  0.80117719785E+02 0.  0.
         -6    2    1    2    0  503  0.25836609207E+02  0.48122089068E+02 -0.43771033579E+02  0.18641643410E+03  0.17277707513E+03 0.  0.
        -24    2    5    5    0    0 -0.33686443647E+02 -0.13080286345E+02  0.46065718220E+01  0.88175875871E+02  0.80298780845E+02 0.  0.
          4    1    4    4  501    0  0.26586500923E+02 -0.37638109176E+02 -0.95430131621E+02  0.10597348402E+03  0.00000000000E+00 0. -1.
         -3    1    4    4    0  501  0.41091338921E+01 -0.40890280216E+02  0.49383154239E+01  0.41391870660E+02  0.00000000000E+00 0.  1.
          5    1    3    3  502    0 -0.56532244022E+02  0.30406300324E+02 -0.64939266564E+02  0.91431045359E+02  0.47000000000E+01 0. -1.
         13    1    6    6    0    0  0.81830300220E+01 -0.26677475743E+02 -0.23044814104E+02  0.36189959235E+02  0.00000000000E+00 0. -1.
        -14    1    6    6    0    0 -0.41869473669E+02  0.13597189398E+02  0.27651385926E+02  0.51985916636E+02  0.00000000000E+00 0.  1.
         -5    1    5    5    0  503  0.59523052854E+02  0.61202375413E+02 -0.48377605401E+02  0.98240558231E+02  0.47000000000E+01 0.  1.
<mgrwt>
<rscale>  2 0.18126629E+03</rscale>
<asrwt>0</asrwt>
<pdfrwt beam="1">  1       21 0.17385440E-01 0.18128679E+03</pdfrwt>
<pdfrwt beam="2">  1       21 0.48031919E-01 0.18128679E+03</pdfrwt>
<totfact> 0.12448990E+05</totfact>
</mgrwt>
</event>
<event>
12    1  0.2762290E-001  0.1770532E+03  0.7546771E-02  0.1171737E+00
         21   -1    0    0  504  503  0.00000000000E+00  0.00000000000E+00  0.60048250562E+03  0.60048250562E+03  0.00000000000E+00 0. -1.
         21   -1    0    0  502  504 -0.00000000000E+00 -0.00000000000E+00 -0.57254474207E+02  0.57254474207E+02  0.00000000000E+00 0. -1.
          6    2    1    2  502    0  0.11211519542E+02  0.16623163189E+02  0.38342474951E+03  0.42232967798E+03  0.17591415702E+03 0.  0.
         24    2    3    3    0    0  0.70075443231E+02  0.19879434095E+02  0.17875278902E+03  0.20928445691E+03  0.80880558084E+02 0.  0.
         -6    2    1    2    0  503 -0.11211519542E+02 -0.16623163189E+02  0.15980328190E+03  0.23540730185E+03  0.17169007290E+03 0.  0.
        -24    2    5    5    0    0  0.19172472495E+02 -0.21471900466E+02  0.18285054028E+02  0.90506659866E+02  0.83836066631E+02 0.  0.
          2    1    4    4  501    0  0.77151164736E+02 -0.75726108152E+01  0.10697381714E+03  0.13210997013E+03  0.00000000000E+00 0. -1.
         -1    1    4    4    0  501 -0.70757215056E+01  0.27452044910E+02  0.71778971885E+02  0.77174486778E+02  0.00000000000E+00 0.  1.
          5    1    3    3  502    0 -0.58863923688E+02 -0.32562709055E+01  0.20467196049E+03  0.21304522108E+03  0.47000000000E+01 0. -1.
         13    1    6    6    0    0 -0.29908934885E+02  0.64455113185E+01 -0.16119189233E+01  0.30638003929E+02  0.00000000000E+00 0. -1.
        -14    1    6    6    0    0  0.49081407380E+02 -0.27917411785E+02  0.19896972951E+02  0.59868655938E+02  0.00000000000E+00 0.  1.
         -5    1    5    5    0  503 -0.30383992037E+02  0.48487372771E+01  0.14151822788E+03  0.14490064198E+03  0.47000000000E+01 0.  1.
<mgrwt>
<rscale>  2 0.17599463E+03</rscale>
<asrwt>0</asrwt>
<pdfrwt beam="1">  1       21 0.92381920E-01 0.17705315E+03</pdfrwt>
<pdfrwt beam="2">  1       21 0.88083811E-02 0.17705315E+03</pdfrwt>
<totfact> 0.10093598E+05</totfact>
</mgrwt>
</event>
<event>
12    1  0.2762290E-001  0.1788380E+03  0.7546771E-02  0.1169703E+00
         21   -1    0    0  504  503  0.00000000000E+00  0.00000000000E+00  0.14123341582E+04  0.14123341582E+04  0.00000000000E+00 0.  1.
         21   -1    0    0  502  504 -0.00000000000E+00 -0.00000000000E+00 -0.26796275783E+02  0.26796275783E+02  0.00000000000E+00 0.  1.
          6    2    1    2  502    0 -0.31151540346E+02  0.29921876299E+02  0.39135281279E+03  0.42898837417E+03  0.17031812570E+03 0.  0.
         24    2    3    3    0    0  0.23286536041E+02 -0.26060742490E+02  0.22135103104E+03  0.24185138272E+03  0.90963659351E+02 0.  0.
         -6    2    1    2    0  503  0.31151540346E+02 -0.29921876299E+02  0.99418506963E+03  0.10101420598E+04  0.17354334099E+03 0.  0.
        -24    2    5    5    0    0 -0.27818069823E+02 -0.49938952885E+02  0.39573751233E+03  0.40844473798E+03  0.83373744622E+02 0.  0.
          4    1    4    4  501    0  0.30945508166E+02 -0.44080918512E+02  0.65611996486E+02  0.84886311826E+02  0.00000000000E+00 0. -1.
         -3    1    4    4    0  501 -0.76589721255E+01  0.18020176022E+02  0.15573903455E+03  0.15696507089E+03  0.00000000000E+00 0.  1.
          5    1    3    3  502    0 -0.54438076387E+02  0.55982618789E+02  0.17000178176E+03  0.18713699145E+03  0.47000000000E+01 0. -1.
         13    1    6    6    0    0  0.11581129074E+01  0.17353759522E+02  0.17507868183E+03  0.17594044171E+03  0.00000000000E+00 0. -1.
        -14    1    6    6    0    0 -0.28976182730E+02 -0.67292712407E+02  0.22065883049E+03  0.23250429627E+03  0.00000000000E+00 0.  1.
         -5    1    5    5    0  503  0.58969610169E+02  0.20017076586E+02  0.59844755730E+03  0.60169732185E+03  0.47000000000E+01 0.  1.
<mgrwt>
<rscale>  2 0.17805081E+03</rscale>
<asrwt>0</asrwt>
<pdfrwt beam="1">  1       21 0.21728212E+00 0.17883799E+03</pdfrwt>
<pdfrwt beam="2">  1       21 0.41225051E-02 0.17883799E+03</pdfrwt>
<totfact> 0.39340830E+04</totfact>
</mgrwt>
</event>
<event>
12    1  0.2762290E-001  0.1780645E+03  0.7546771E-02  0.1170597E+00
         21   -1    0    0  504  503  0.00000000000E+00  0.00000000000E+00  0.61257912020E+02  0.61257912020E+02  0.00000000000E+00 0.  1.
         21   -1    0    0  502  504 -0.00000000000E+00 -0.00000000000E+00 -0.58824649087E+03  0.58824649087E+03  0.00000000000E+00 0.  1.
          6    2    1    2  502    0  0.95325180758E+01  0.15450312654E+02 -0.38651788303E+03  0.42556202876E+03  0.17713662908E+03 0.  0.
         24    2    3    3    0    0  0.58181116472E+02  0.53386701218E+02 -0.28994783552E+03  0.31087236149E+03  0.79603364465E+02 0.  0.
         -6    2    1    2    0  503 -0.95325180758E+01 -0.15450312654E+02 -0.14047069582E+03  0.22394237413E+03  0.17346062805E+03 0.  0.
        -24    2    5    5    0    0  0.24095778641E+02 -0.42847483473E+02 -0.20989397099E+02  0.96744347205E+02  0.80637463608E+02 0.  0.
          2    1    4    4  501    0  0.34231410285E+02 -0.16677865243E+02 -0.99232753778E+02  0.10628772300E+03  0.00000000000E+00 0. -1.
         -1    1    4    4    0  501  0.23949706187E+02  0.70064566461E+02 -0.19071508174E+03  0.20458463848E+03  0.00000000000E+00 0.  1.
          5    1    3    3  502    0 -0.48648598396E+02 -0.37936388564E+02 -0.96570047507E+02  0.11468966727E+03  0.47000000000E+01 0. -1.
         11    1    6    6    0    0  0.19273247223E+01 -0.89562580125E+01 -0.47477620387E+02  0.48353423620E+02  0.00000000000E+00 0. -1.
        -12    1    6    6    0    0  0.22168453919E+02 -0.33891225461E+02  0.26488223288E+02  0.48390923584E+02  0.00000000000E+00 0.  1.
         -5    1    5    5    0  503 -0.33628296717E+02  0.27397170819E+02 -0.11948129872E+03  0.12719802693E+03  0.47000000000E+01 0.  1.
<mgrwt>
<rscale>  2 0.17714327E+03</rscale>
<asrwt>0</asrwt>
<pdfrwt beam="1">  1       21 0.94242943E-02 0.17806450E+03</pdfrwt>
<pdfrwt beam="2">  1       21 0.90499459E-01 0.17806450E+03</pdfrwt>
<totfact> 0.94002243E+04</totfact>
</mgrwt>
</event>
<event>
12    1  0.2762290E-001  0.1956547E+03  0.7546771E-02  0.1154689E+00
         21   -1    0    0  504  503  0.00000000000E+00  0.00000000000E+00  0.57536407602E+03  0.57536407602E+03  0.00000000000E+00 0. -1.
         21   -1    0    0  502  504 -0.00000000000E+00 -0.00000000000E+00 -0.97140650982E+02  0.97140650982E+02  0.00000000000E+00 0. -1.
          6    2    1    2  502    0  0.46913389158E+02  0.66200512433E+02  0.42344002325E+02  0.19472693326E+03  0.17187841655E+03 0.  0.
         24    2    3    3    0    0  0.13183728801E+02 -0.52339900777E+01 -0.28662460214E+02  0.88403907257E+02  0.82416678139E+02 0.  0.
         -6    2    1    2    0  503 -0.46913389158E+02 -0.66200512433E+02  0.43587942272E+03  0.47777779374E+03  0.17803756659E+03 0.  0.
        -24    2    5    5    0    0 -0.53153756798E+02  0.76001899953E+01  0.35109587794E+03  0.36510204067E+03  0.84546435997E+02 0.  0.
          2    1    4    4  501    0  0.41898905017E+02  0.18843051897E+02 -0.12635656434E+02  0.47647021522E+02  0.00000000000E+00 0. -1.
         -1    1    4    4    0  501 -0.28715176216E+02 -0.24077041975E+02 -0.16026803781E+02  0.40756885735E+02  0.00000000000E+00 0.  1.
          5    1    3    3  502    0  0.33729660356E+02  0.71434502511E+02  0.71006462539E+02  0.10632302601E+03  0.47000000000E+01 0. -1.
         11    1    6    6    0    0 -0.38000155913E+02 -0.36567977222E+02  0.16420545656E+03  0.17246640476E+03  0.00000000000E+00 0. -1.
        -12    1    6    6    0    0 -0.15153600885E+02  0.44168167217E+02  0.18689042138E+03  0.19263563590E+03  0.00000000000E+00 0.  1.
         -5    1    5    5    0  503  0.62403676402E+01 -0.73800702428E+02  0.84783544773E+02  0.11267575308E+03  0.47000000000E+01 0.  1.
<mgrwt>
<rscale>  2 0.19424260E+03</rscale>
<asrwt>0</asrwt>
<pdfrwt beam="1">  1       21 0.88517548E-01 0.19565467E+03</pdfrwt>
<pdfrwt beam="2">  1       21 0.14944716E-01 0.19565467E+03</pdfrwt>
<totfact> 0.43047460E+04</totfact>
</mgrwt>
</event>
<event>
12    1  0.2762290E-001  0.2012244E+03  0.7546771E-02  0.1148924E+00
         21   -1    0    0  504  503  0.00000000000E+00  0.00000000000E+00  0.47010000204E+02  0.47010000204E+02  0.00000000000E+00 0.  1.
         21   -1    0    0  502  504 -0.00000000000E+00 -0.00000000000E+00 -0.19051720442E+04  0.19051720442E+04  0.00000000000E+00 0.  1.
          6    2    1    2  502    0 -0.99954474061E+02  0.18343627718E+02 -0.16541486834E+04  0.16663430399E+04  0.17367750090E+03 0.  0.
         24    2    3    3    0    0 -0.84572124712E+02  0.57795193823E+02 -0.15197345789E+04  0.15253384860E+04  0.81065268944E+02 0.  0.
         -6    2    1    2    0  503  0.99954474061E+02 -0.18343627718E+02 -0.20401336060E+03  0.28583900449E+03  0.17249666554E+03 0.  0.
        -24    2    5    5    0    0 -0.17310952431E+02 -0.10969638179E+02 -0.95999642321E+02  0.12616869007E+03  0.79262885336E+02 0.  0.
          4    1    4    4  501    0 -0.16838727463E+02  0.43629797611E+02 -0.29814684427E+03  0.30179238349E+03  0.00000000000E+00 0. -1.
         -3    1    4    4    0  501 -0.67733397249E+02  0.14165396212E+02 -0.12215877346E+04  0.12235461025E+04  0.00000000000E+00 0.  1.
          5    1    3    3  502    0 -0.15382349349E+02 -0.39451566104E+02 -0.13441410451E+03  0.14100455393E+03  0.47000000000E+01 0. -1.
         11    1    6    6    0    0 -0.11793961666E+02 -0.45392817558E+02 -0.51858637916E+02  0.69920839126E+02  0.00000000000E+00 0. -1.
        -12    1    6    6    0    0 -0.55169907642E+01  0.34423179379E+02 -0.44141004406E+02  0.56247850942E+02  0.00000000000E+00 0.  1.
         -5    1    5    5    0  503  0.11726542649E+03 -0.73739895393E+01 -0.10801371828E+03  0.15967031442E+03  0.47000000000E+01 0.  1.
<mgrwt>
<rscale>  2 0.20096934E+03</rscale>
<asrwt>0</asrwt>
<pdfrwt beam="1">  1       21 0.72323085E-02 0.20122440E+03</pdfrwt>
<pdfrwt beam="2">  1       21 0.29310336E+00 0.20122440E+03</pdfrwt>
<totfact> 0.52963011E+03</totfact>
</mgrwt>
</event>
<event>
12    1  0.2762290E-001  0.2711969E+03  0.7546771E-02  0.1100646E+00
         21   -1    0    0  504  503  0.00000000000E+00  0.00000000000E+00  0.41432992969E+03  0.41432992969E+03  0.00000000000E+00 0.  1.
         21   -1    0    0  502  504 -0.00000000000E+00 -0.00000000000E+00 -0.17753366547E+03  0.17753366547E+03  0.00000000000E+00 0.  1.
          6    2    1    2  502    0  0.19278484945E+03  0.79131552414E+02  0.10715655799E+03  0.29127384277E+03  0.17300324505E+03 0.  0.
         24    2    3    3    0    0  0.88674717963E+02  0.10239582544E+03  0.95012099120E+02  0.18380420167E+03  0.80053575183E+02 0.  0.
         -6    2    1    2    0  503 -0.19278484945E+03 -0.79131552414E+02  0.12963970622E+03  0.30058975239E+03  0.17355098688E+03 0.  0.
        -24    2    5    5    0    0 -0.55668211915E+02 -0.77990342330E+02  0.10039490448E+03  0.16030567247E+03  0.80232963710E+02 0.  0.
          2    1    4    4  501    0  0.32497289893E+01 -0.12819451043E+02  0.13186431103E+02  0.18675680142E+02  0.00000000000E+00 0. -1.
         -1    1    4    4    0  501  0.85424988973E+02  0.11521527648E+03  0.81825668017E+02  0.16512852153E+03  0.00000000000E+00 0.  1.
          5    1    3    3  502    0  0.10411013149E+03 -0.23264273023E+02  0.12144458874E+02  0.10746964110E+03  0.47000000000E+01 0. -1.
         13    1    6    6    0    0 -0.49768684848E+02 -0.18704460690E+02  0.13339928621E+02  0.54815440679E+02  0.00000000000E+00 0. -1.
        -14    1    6    6    0    0 -0.58995270675E+01 -0.59285881640E+02  0.87054975858E+02  0.10549023179E+03  0.00000000000E+00 0.  1.
         -5    1    5    5    0  503 -0.13711663753E+03 -0.11412100837E+01  0.29244801741E+02  0.14028407992E+03  0.47000000000E+01 0.  1.
<mgrwt>
<rscale>  2 0.27110928E+03</rscale>
<asrwt>0</asrwt>
<pdfrwt beam="1">  1       21 0.63743066E-01 0.27119688E+03</pdfrwt>
<pdfrwt beam="2">  1       21 0.27312872E-01 0.27119688E+03</pdfrwt>
<totfact> 0.27971519E+04</totfact>
</mgrwt>
</event>
<event>
12    1  0.2762290E-001  0.2078793E+03  0.7546771E-02  0.1143635E+00
         21   -1    0    0  504  503  0.00000000000E+00  0.00000000000E+00  0.37388116503E+03  0.37388116503E+03  0.00000000000E+00 0. -1.
         21   -1    0    0  502  504 -0.00000000000E+00 -0.00000000000E+00 -0.12651698665E+03  0.12651698665E+03  0.00000000000E+00 0. -1.
          6    2    1    2  502    0 -0.60608292041E+02 -0.10566348562E+03  0.20015670701E+03  0.28722599953E+03  0.16612624774E+03 0.  0.
         24    2    3    3    0    0 -0.12626703166E+02 -0.88504734640E+02  0.20281338288E+03  0.23598340463E+03  0.81008501382E+02 0.  0.
         -6    2    1    2    0  503  0.60608292041E+02  0.10566348562E+03  0.47207471373E+02  0.21317215215E+03  0.16845083508E+03 0.  0.
        -24    2    5    5    0    0  0.94320160948E+02  0.46574442350E+02  0.63102077741E+01  0.13365686236E+03  0.82212326893E+02 0.  0.
          2    1    4    4  501    0 -0.26981017151E+02 -0.72016822088E+02  0.78987323270E+02  0.11024243823E+03  0.00000000000E+00 0. -1.
         -1    1    4    4    0  501  0.14354313985E+02 -0.16487912551E+02  0.12382605961E+03  0.12574096639E+03  0.00000000000E+00 0.  1.
          5    1    3    3  502    0 -0.47981588875E+02 -0.17158750978E+02 -0.26566758713E+01  0.51242594906E+02  0.47000000000E+01 0. -1.
         11    1    6    6    0    0  0.48528307810E+02  0.55447974910E+02  0.32082785441E+02  0.80366533471E+02  0.00000000000E+00 0. -1.
        -12    1    6    6    0    0  0.45791853137E+02 -0.88735325592E+01 -0.25772577667E+02  0.53290328892E+02  0.00000000000E+00 0.  1.
         -5    1    5    5    0  503 -0.33711868907E+02  0.59089043268E+02  0.40897263599E+02  0.79515289784E+02  0.47000000000E+01 0.  1.
<mgrwt>
<rscale>  2 0.20740795E+03</rscale>
<asrwt>0</asrwt>
<pdfrwt beam="1">  1       21 0.57520179E-01 0.20787934E+03</pdfrwt>
<pdfrwt beam="2">  1       21 0.19464152E-01 0.20787934E+03</pdfrwt>
<totfact> 0.68398245E+04</totfact>
</mgrwt>
</event>
<event>
12    1  0.2762290E-001  0.2029258E+03  0.7546771E-02  0.1147595E+00
         21   -1    0    0  504  503  0.00000000000E+00  0.00000000000E+00  0.75294215159E+02  0.75294215159E+02  0.00000000000E+00 0. -1.
         21   -1    0    0  502  504 -0.00000000000E+00 -0.00000000000E+00 -0.55474797898E+03  0.55474797898E+03  0.00000000000E+00 0. -1.
          6    2    1    2  502    0  0.10372625437E+03  0.25029520383E+02 -0.28639781306E+03  0.35100227107E+03  0.17260728326E+03 0.  0.
         24    2    3    3    0    0  0.91944625469E+01  0.49782278432E+02 -0.20170595108E+03  0.22160458878E+03  0.76553835179E+02 0.  0.
         -6    2    1    2    0  503 -0.10372625437E+03 -0.25029520383E+02 -0.19305595076E+03  0.27903992306E+03  0.17090074840E+03 0.  0.
        -24    2    5    5    0    0 -0.73042681271E+02 -0.25365889683E+02 -0.32337156377E+02  0.11535053529E+03  0.79255237447E+02 0.  0.
          4    1    4    4  501    0 -0.33218252756E+01  0.26837902862E+02 -0.19173233592E+03  0.19363004981E+03  0.00000000000E+00 0. -1.
         -3    1    4    4    0  501  0.12516287823E+02  0.22944375570E+02 -0.99736151606E+01  0.27974538969E+02  0.00000000000E+00 0.  1.
          5    1    3    3  502    0  0.94531791824E+02 -0.24752758049E+02 -0.84691861982E+02  0.12939768229E+03  0.47000000000E+01 0. -1.
         11    1    6    6    0    0 -0.35048662394E+02  0.52231521965E+01 -0.51860688947E+02  0.62810995156E+02  0.00000000000E+00 0. -1.
        -12    1    6    6    0    0 -0.37994018877E+02 -0.30589041880E+02  0.19523532570E+02  0.52539540135E+02  0.00000000000E+00 0.  1.
         -5    1    5    5    0  503 -0.30683573100E+02  0.33636930027E+00 -0.16071879438E+03  0.16368938777E+03  0.47000000000E+01 0.  1.
<mgrwt>
<rscale>  2 0.20256245E+03</rscale>
<asrwt>0</asrwt>
<pdfrwt beam="1">  1       21 0.11583726E-01 0.20292582E+03</pdfrwt>
<pdfrwt beam="2">  1       21 0.85345841E-01 0.20292582E+03</pdfrwt>
<totfact> 0.73854106E+04</totfact>
</mgrwt>
</event>
<event>
12    1  0.2762290E-001  0.2133583E+03  0.7546771E-02  0.1139352E+00
         21   -1    0    0  504  503  0.00000000000E+00  0.00000000000E+00  0.83539933029E+02  0.83539933029E+02  0.00000000000E+00 0.  1.
         21   -1    0    0  502  504 -0.00000000000E+00 -0.00000000000E+00 -0.53946079202E+03  0.53946079202E+03  0.00000000000E+00 0. -1.
          6    2    1    2  502    0  0.82863573764E+02 -0.91994461686E+02 -0.23052318312E+03  0.31410617409E+03  0.17375959774E+03 0.  0.
         24    2    3    3    0    0  0.11624833864E+02 -0.50063765669E+02 -0.32362919717E+02  0.99344163193E+02  0.78615436095E+02 0.  0.
         -6    2    1    2    0  503 -0.82863573764E+02  0.91994461686E+02 -0.22539767587E+03  0.30889455096E+03  0.17112094696E+03 0.  0.
        -24    2    5    5    0    0 -0.11976964505E+03  0.64053640143E+02 -0.20392665300E+03  0.25765157652E+03  0.79690767270E+02 0.  0.
          4    1    4    4  501    0 -0.86014228245E+01 -0.10435844797E+02  0.23993437412E+02  0.27542265159E+02  0.00000000000E+00 0. -1.
         -3    1    4    4    0  501  0.20226256689E+02 -0.39627920873E+02 -0.56356357130E+02  0.71801898034E+02  0.00000000000E+00 0.  1.
          5    1    3    3  502    0  0.71238739900E+02 -0.41930696017E+02 -0.19816026341E+03  0.21476201090E+03  0.47000000000E+01 0. -1.
         13    1    6    6    0    0  0.67300876630E+01  0.43766866958E+01 -0.45982047901E+02  0.46677598434E+02  0.00000000000E+00 0. -1.
        -14    1    6    6    0    0 -0.12649973272E+03  0.59676953447E+02 -0.15794460510E+03  0.21097397809E+03  0.00000000000E+00 0.  1.
         -5    1    5    5    0  503  0.36906071289E+02  0.27940821543E+02 -0.21471022868E+02  0.51242974440E+02  0.47000000000E+01 0.  1.
<mgrwt>
<rscale>  2 0.21282039E+03</rscale>
<asrwt>0</asrwt>
<pdfrwt beam="1">  1       21 0.12852298E-01 0.21335827E+03</pdfrwt>
<pdfrwt beam="2">  1       21 0.82993966E-01 0.21335827E+03</pdfrwt>
<totfact> 0.65030105E+04</totfact>
</mgrwt>
</event>
<event>
12    1  0.2762290E-001  0.2147743E+03  0.7546771E-02  0.1137859E+00
         21   -1    0    0  504  503  0.00000000000E+00  0.00000000000E+00  0.42341036687E+02  0.42341036687E+02  0.00000000000E+00 0.  1.
         21   -1    0    0  502  504 -0.00000000000E+00 -0.00000000000E+00 -0.13652804965E+04  0.13652804965E+04  0.00000000000E+00 0.  1.
          6    2    1    2  502    0 -0.11033217950E+03 -0.63213728138E+02 -0.97822926181E+03  0.10015290725E+04  0.17308618992E+03 0.  0.
         24    2    3    3    0    0 -0.14697260046E+03 -0.57599856929E+02 -0.82383324981E+03  0.84267613888E+03  0.80518089533E+02 0.  0.
         -6    2    1    2    0  503  0.11033217950E+03  0.63213728138E+02 -0.34471019797E+03  0.40609246066E+03  0.17296473848E+03 0.  0.
        -24    2    5    5    0    0  0.13499361730E+03  0.17411416245E+02 -0.29020233643E+03  0.33059918109E+03  0.80944353377E+02 0.  0.
          2    1    4    4  501    0 -0.36661822894E+02 -0.55900958117E+02 -0.30321715635E+03  0.31049903427E+03  0.00000000000E+00 0. -1.
         -1    1    4    4    0  501 -0.11031077757E+03 -0.16988988119E+01 -0.52061609346E+03  0.53217710461E+03  0.00000000000E+00 0.  1.
          5    1    3    3  502    0  0.36640420958E+02 -0.56138712089E+01 -0.15439601199E+03  0.15885293361E+03  0.47000000000E+01 0. -1.
         13    1    6    6    0    0  0.35730158813E+02 -0.24123644064E+02 -0.13521148884E+03  0.14191807906E+03  0.00000000000E+00 0. -1.
        -14    1    6    6    0    0  0.99263458489E+02  0.41535060309E+02 -0.15499084759E+03  0.18868110203E+03  0.00000000000E+00 0.  1.
         -5    1    5    5    0  503 -0.24661437800E+02  0.45802311894E+02 -0.54507861545E+02  0.75493279564E+02  0.47000000000E+01 0.  1.
<mgrwt>
<rscale>  2 0.21474982E+03</rscale>
<asrwt>0</asrwt>
<pdfrwt beam="1">  1       21 0.65140063E-02 0.21477429E+03</pdfrwt>
<pdfrwt beam="2">  1       21 0.21004313E+00 0.21477429E+03</pdfrwt>
<totfact> 0.19526393E+04</totfact>
</mgrwt>
</event>
<event>
12    1  0.2762290E-001  0.2116829E+03  0.7546771E-02  0.1140421E+00
         21   -1    0    0  504  503  0.00000000000E+00  0.00000000000E+00  0.16508730822E+04  0.16508730822E+04  0.00000000000E+00 0. -1.
         21   -1    0    0  502  504 -0.00000000000E+00 -0.00000000000E+00 -0.51513886440E+02  0.51513886440E+02  0.00000000000E+00 0. -1.
          6    2    1    2  502    0 -0.16286312202E+01 -0.12171075177E+03  0.21371511198E+03  0.30080523895E+03  0.17318626723E+03 0.  0.
         24    2    3    3    0    0  0.11371042769E+01  0.16190707556E+01  0.52078584367E+02  0.97418043004E+02  0.82305417542E+02 0.  0.
         -6    2    1    2    0  503  0.16286312202E+01  0.12171075177E+03  0.13856440838E+04  0.14015817297E+04  0.17206294937E+03 0.  0.
        -24    2    5    5    0    0 -0.45787058528E+02  0.57473836182E+02  0.47046305463E+03  0.48291256450E+03  0.80432347985E+02 0.  0.
          2    1    4    4  501    0 -0.27017356573E+02  0.14371640393E+02  0.58343024307E+02  0.65881636965E+02  0.00000000000E+00 0. -1.
         -1    1    4    4    0  501  0.28154460850E+02 -0.12752569638E+02 -0.62644399403E+01  0.31536406039E+02  0.00000000000E+00 0.  1.
          5    1    3    3  502    0 -0.27657354971E+01 -0.12332982252E+03  0.16163652761E+03  0.20338719594E+03  0.47000000000E+01 0. -1.
         13    1    6    6    0    0 -0.16375104221E+02  0.55625249417E+02  0.42362205703E+03  0.42757216890E+03  0.00000000000E+00 0. -1.
        -14    1    6    6    0    0 -0.29411954306E+02  0.18485867651E+01  0.46840997598E+02  0.55340395599E+02  0.00000000000E+00 0.  1.
         -5    1    5    5    0  503  0.47415689748E+02  0.64236915586E+02  0.91518102917E+03  0.91866916522E+03  0.47000000000E+01 0.  1.
<mgrwt>
<rscale>  2 0.21145300E+03</rscale>
<asrwt>0</asrwt>
<pdfrwt beam="1">  1       21 0.25398043E+00 0.21168288E+03</pdfrwt>
<pdfrwt beam="2">  1       21 0.79252146E-02 0.21168288E+03</pdfrwt>
<totfact> 0.75460087E+03</totfact>
</mgrwt>
</event>
<event>
12    1  0.2762290E-001  0.1977405E+03  0.7546771E-02  0.1151973E+00
         21   -1    0    0  504  503  0.00000000000E+00  0.00000000000E+00  0.20616490416E+02  0.20616490416E+02  0.00000000000E+00 0. -1.
         21   -1    0    0  502  504 -0.00000000000E+00 -0.00000000000E+00 -0.18898339007E+04  0.18898339007E+04  0.00000000000E+00 0. -1.
          6    2    1    2  502    0 -0.93365029909E+02 -0.10374498054E+02 -0.87913164675E+03  0.90109585833E+03  0.17400182342E+03 0.  0.
         24    2    3    3    0    0 -0.53212146946E+02  0.74203057083E+02 -0.46814178295E+03  0.47955063538E+03  0.49743911027E+02 0.  0.
         -6    2    1    2    0  503  0.93365029909E+02  0.10374498054E+02 -0.99008576349E+03  0.10093545328E+04  0.17234295661E+03 0.  0.
        -24    2    5    5    0    0  0.93946938171E+02  0.54987138802E+02 -0.88057854981E+03  0.89101372753E+03  0.81469427608E+02 0.  0.
          4    1    4    4  501    0 -0.29223758472E+02  0.40991955961E+01 -0.15249524166E+03  0.15532427432E+03  0.00000000000E+00 0. -1.
         -3    1    4    4    0  501 -0.23988388474E+02  0.70103861487E+02 -0.31564654129E+03  0.32422636106E+03  0.00000000000E+00 0.  1.
          5    1    3    3  502    0 -0.40152882963E+02 -0.84577555137E+02 -0.41098986380E+03  0.42154522295E+03  0.47000000000E+01 0. -1.
         11    1    6    6    0    0  0.15212787800E+02  0.37014034426E+02 -0.12788708647E+03  0.13400214380E+03  0.00000000000E+00 0. -1.
        -12    1    6    6    0    0  0.78734150371E+02  0.17973104375E+02 -0.75269146334E+03  0.75701158373E+03  0.00000000000E+00 0.  1.
         -5    1    5    5    0  503 -0.58190826219E+00 -0.44612640747E+02 -0.10950721368E+03  0.11834080522E+03  0.47000000000E+01 0.  1.
<mgrwt>
<rscale>  2 0.19737492E+03</rscale>
<asrwt>0</asrwt>
<pdfrwt beam="1">  1       21 0.31717666E-02 0.19774047E+03</pdfrwt>
<pdfrwt beam="2">  1       21 0.29074378E+00 0.19774047E+03</pdfrwt>
<totfact> 0.22157356E+04</totfact>
</mgrwt>
</event>
<event>
12    1  0.2762290E-001  0.2512290E+03  0.7546771E-02  0.1112565E+00
         21   -1    0    0  504  503  0.00000000000E+00  0.00000000000E+00  0.50257689854E+03  0.50257689854E+03  0.00000000000E+00 0.  1.
         21   -1    0    0  502  504 -0.00000000000E+00 -0.00000000000E+00 -0.17695152540E+03  0.17695152540E+03  0.00000000000E+00 0. -1.
          6    2    1    2  502    0  0.61745657942E+01 -0.18202331937E+03 -0.20490526668E+02  0.25184604866E+03  0.17273087878E+03 0.  0.
         24    2    3    3    0    0  0.35729378371E+02 -0.25774926694E+02 -0.12700503268E+02  0.92566980272E+02  0.80413977196E+02 0.  0.
         -6    2    1    2    0  503 -0.61745657942E+01  0.18202331937E+03  0.34611589981E+03  0.42768237529E+03  0.17304734605E+03 0.  0.
        -24    2    5    5    0    0 -0.48003960419E+02  0.14129606903E+03  0.15256303941E+03  0.22546168658E+03  0.72722292192E+02 0.  0.
          4    1    4    4  501    0  0.61731607081E+02 -0.15392887898E+02 -0.71314601911E+01  0.64020231451E+02  0.00000000000E+00 0. -1.
         -3    1    4    4    0  501 -0.26002228709E+02 -0.10382038796E+02 -0.55690430768E+01  0.28546748820E+02  0.00000000000E+00 0.  1.
          5    1    3    3  502    0 -0.29554812577E+02 -0.15624839268E+03 -0.77900234002E+01  0.15927906838E+03  0.47000000000E+01 0. -1.
         13    1    6    6    0    0 -0.48733062084E+01 -0.42087300993E+01 -0.38673964466E+01  0.75112767040E+01  0.00000000000E+00 0. -1.
        -14    1    6    6    0    0 -0.43130654211E+02  0.14550479913E+03  0.15643043586E+03  0.21795040987E+03  0.00000000000E+00 0.  1.
         -5    1    5    5    0  503  0.41829394625E+02  0.40727250344E+02  0.19355286040E+03  0.20222068871E+03  0.47000000000E+01 0.  1.
<mgrwt>
<rscale>  2 0.25117449E+03</rscale>
<asrwt>0</asrwt>
<pdfrwt beam="1">  1       21 0.77319522E-01 0.25122898E+03</pdfrwt>
<pdfrwt beam="2">  1       21 0.27223312E-01 0.25122898E+03</pdfrwt>
<totfact> 0.18489086E+04</totfact>
</mgrwt>
</event>
<event>
12    1  0.2762290E-001  0.2015917E+03  0.7546771E-02  0.1148518E+00
         21   -1    0    0  504  503  0.00000000000E+00  0.00000000000E+00  0.88756273717E+03  0.88756273717E+03  0.00000000000E+00 0.  1.
         21   -1    0    0  502  504 -0.00000000000E+00 -0.00000000000E+00 -0.12658897882E+03  0.12658897882E+03  0.00000000000E+00 0.  1.
          6    2    1    2  502    0 -0.75681398407E+02 -0.68714992879E+02 -0.25135668628E+02  0.20260551777E+03  0.17311201484E+03 0.  0.
         24    2    3    3    0    0 -0.65881766808E+02 -0.42412614108E+02 -0.81360372710E+02  0.13958841487E+03  0.82013281147E+02 0.  0.
         -6    2    1    2    0  503  0.75681398407E+02  0.68714992879E+02  0.78610942698E+03  0.81154619822E+03  0.17375205421E+03 0.  0.
        -24    2    5    5    0    0 -0.21304426343E+02  0.14887761688E+02  0.44296927132E+03  0.45089279473E+03  0.80043819105E+02 0.  0.
          2    1    4    4  501    0 -0.43069959779E+02  0.11864542688E+02 -0.64289535170E+02  0.78287503096E+02  0.00000000000E+00 0. -1.
         -1    1    4    4    0  501 -0.22811807029E+02 -0.54277156796E+02 -0.17070837540E+02  0.61300911772E+02  0.00000000000E+00 0.  1.
          5    1    3    3  502    0 -0.97996315991E+01 -0.26302378771E+02  0.56224704082E+02  0.63017102898E+02  0.47000000000E+01 0. -1.
         11    1    6    6    0    0  0.28637407805E+02  0.94879894445E+01  0.10635119687E+03  0.11054727561E+03  0.00000000000E+00 0. -1.
        -12    1    6    6    0    0 -0.49941834148E+02  0.53997722434E+01  0.33661807445E+03  0.34034551912E+03  0.00000000000E+00 0.  1.
         -5    1    5    5    0  503  0.96985824750E+02  0.53827231191E+02  0.34314015567E+03  0.36065340349E+03  0.47000000000E+01 0.  1.
<mgrwt>
<rscale>  2 0.20145368E+03</rscale>
<asrwt>0</asrwt>
<pdfrwt beam="1">  1       21 0.13654811E+00 0.20159167E+03</pdfrwt>
<pdfrwt beam="2">  1       21 0.19475228E-01 0.20159167E+03</pdfrwt>
<totfact> 0.91943710E+03</totfact>
</mgrwt>
</event>
<event>
12    1  0.2762290E-001  0.2268313E+03  0.7546771E-02  0.1128957E+00
         21   -1    0    0  504  503  0.00000000000E+00  0.00000000000E+00  0.96395637570E+03  0.96395637570E+03  0.00000000000E+00 0.  1.
         21   -1    0    0  502  504 -0.00000000000E+00 -0.00000000000E+00 -0.58186544141E+02  0.58186544141E+02  0.00000000000E+00 0. -1.
          6    2    1    2  502    0 -0.10512606317E+03 -0.10178752989E+03  0.30494493738E+03  0.38005771136E+03  0.17332125875E+03 0.  0.
         24    2    3    3    0    0 -0.33785700494E+01 -0.70995869080E+02  0.21437281565E+03  0.24032196802E+03  0.82140830659E+02 0.  0.
         -6    2    1    2    0  503  0.10512606317E+03  0.10178752989E+03  0.60082489418E+03  0.64208520848E+03  0.17283133709E+03 0.  0.
        -24    2    5    5    0    0  0.53230244360E+02  0.96816232539E+02  0.55857262631E+03  0.57481534934E+03  0.78755731115E+02 0.  0.
          2    1    4    4  501    0 -0.25787658851E+02 -0.26258880978E+01  0.11347953263E+03  0.11640233229E+03  0.00000000000E+00 0. -1.
         -1    1    4    4    0  501  0.22409088802E+02 -0.68369980982E+02  0.10089328303E+03  0.12391963573E+03  0.00000000000E+00 0.  1.
          5    1    3    3  502    0 -0.10174749312E+03 -0.30791660812E+02  0.90572121725E+02  0.13973574334E+03  0.47000000000E+01 0. -1.
         11    1    6    6    0    0  0.96160018652E+00  0.20084913429E+02  0.20221843664E+02  0.28517562721E+02  0.00000000000E+00 0. -1.
        -12    1    6    6    0    0  0.52268644174E+02  0.76731319110E+02  0.53835078264E+03  0.54629778662E+03  0.00000000000E+00 0.  1.
         -5    1    5    5    0  503  0.51895818814E+02  0.49712973532E+01  0.42252267875E+02  0.67269859137E+02  0.47000000000E+01 0.  1.
<mgrwt>
<rscale>  2 0.22673773E+03</rscale>
<asrwt>0</asrwt>
<pdfrwt beam="1">  1       21 0.14830097E+00 0.22683132E+03</pdfrwt>
<pdfrwt beam="2">  1       21 0.89517767E-02 0.22683132E+03</pdfrwt>
<totfact> 0.29754586E+04</totfact>
</mgrwt>
</event>
<event>
12    1  0.2762290E-001  0.1946572E+03  0.7546771E-02  0.1154941E+00
         21   -1    0    0  504  503  0.00000000000E+00  0.00000000000E+00  0.17641051948E+03  0.17641051948E+03  0.00000000000E+00 0. -1.
         21   -1    0    0  502  504 -0.00000000000E+00 -0.00000000000E+00 -0.27686545874E+03  0.27686545874E+03  0.00000000000E+00 0.  1.
          6    2    1    2  502    0  0.28643398841E+02 -0.80510662680E+02 -0.15987958988E+03  0.24975023792E+03  0.17178849490E+03 0.  0.
         24    2    3    3    0    0  0.38359208657E+02 -0.11597465967E+03 -0.99227254072E+02  0.17866656975E+03  0.84582176730E+02 0.  0.
         -6    2    1    2    0  503 -0.28643398841E+02  0.80510662680E+02  0.59424650625E+02  0.20352574030E+03  0.17489718911E+03 0.  0.
        -24    2    5    5    0    0  0.43108721373E+01 -0.23528064410E+02  0.38245572198E+02  0.92257217916E+02  0.80476810520E+02 0.  0.
          4    1    4    4  501    0  0.43873802477E+01 -0.11165148375E+03 -0.89222219562E+02  0.14298918628E+03  0.00000000000E+00 0. -1.
         -3    1    4    4    0  501  0.33971828409E+02 -0.43231759166E+01 -0.10005034510E+02  0.35677383467E+02  0.00000000000E+00 0.  1.
          5    1    3    3  502    0 -0.97158098160E+01  0.35463996988E+02 -0.60652335806E+02  0.71083668177E+02  0.47000000000E+01 0. -1.
         11    1    6    6    0    0  0.29058411392E+01  0.12952887143E+02  0.51678582562E+02  0.53356321965E+02  0.00000000000E+00 0. -1.
        -12    1    6    6    0    0  0.14050309981E+01 -0.36480951554E+02 -0.13433010364E+02  0.38900895951E+02  0.00000000000E+00 0.  1.
         -5    1    5    5    0  503 -0.32954270978E+02  0.10403872709E+03  0.21179078427E+02  0.11126852238E+03  0.47000000000E+01 0.  1.
<mgrwt>
<rscale>  2 0.19395639E+03</rscale>
<asrwt>0</asrwt>
<pdfrwt beam="1">  1       21 0.27140080E-01 0.19465723E+03</pdfrwt>
<pdfrwt beam="2">  1       21 0.42594686E-01 0.19465723E+03</pdfrwt>
<totfact> 0.68551611E+04</totfact>
</mgrwt>
</event>
<event>
12    1  0.2762290E-001  0.2279056E+03  0.7546771E-02  0.1128368E+00
         21   -1    0    0  504  503  0.00000000000E+00  0.00000000000E+00  0.24008974152E+04  0.24008974152E+04  0.00000000000E+00 0.  1.
         21   -1    0    0  502  504 -0.00000000000E+00 -0.00000000000E+00 -0.22296514189E+02  0.22296514189E+02  0.00000000000E+00 0.  1.
          6    2    1    2  502    0  0.23537631650E+02  0.14660858216E+03  0.95734156789E+03  0.98377770683E+03  0.17107776705E+03 0.  0.
         24    2    3    3    0    0  0.24976037794E+02  0.13745734124E+03  0.95929401062E+03  0.97320811577E+03  0.85852866290E+02 0.  0.
         -6    2    1    2    0  503 -0.23537631650E+02 -0.14660858216E+03  0.14212593331E+04  0.14394162226E+04  0.17289555608E+03 0.  0.
        -24    2    5    5    0    0 -0.45639601930E+02 -0.34771593338E+02  0.39689845851E+03  0.40872068041E+03  0.78944102149E+02 0.  0.
          4    1    4    4  501    0  0.55007773744E+02  0.99216735371E+02  0.73506752095E+03  0.74377017694E+03  0.00000000000E+00 0. -1.
         -3    1    4    4    0  501 -0.30031735950E+02  0.38240605872E+02  0.22422648967E+03  0.22943793883E+03  0.00000000000E+00 0.  1.
          5    1    3    3  502    0 -0.14384061435E+01  0.91512409206E+01 -0.19524427342E+01  0.10569591064E+02  0.47000000000E+01 0. -1.
         13    1    6    6    0    0  0.22241991675E+02 -0.24435513286E+01  0.86853272668E+02  0.89689286483E+02  0.00000000000E+00 0. -1.
        -14    1    6    6    0    0 -0.67881593604E+02 -0.32328042010E+02  0.31004518584E+03  0.31903139393E+03  0.00000000000E+00 0.  1.
         -5    1    5    5    0  503  0.22101970279E+02 -0.11183698883E+03  0.10243608746E+04  0.10306955422E+04  0.47000000000E+01 0.  1.
<mgrwt>
<rscale>  2 0.22756085E+03</rscale>
<asrwt>0</asrwt>
<pdfrwt beam="1">  1       21 0.36936863E+00 0.22790562E+03</pdfrwt>
<pdfrwt beam="2">  1       21 0.34302348E-02 0.22790562E+03</pdfrwt>
<totfact> 0.65129521E+03</totfact>
</mgrwt>
</event>
<event>
12    1  0.2762290E-001  0.2023933E+03  0.7546771E-02  0.1148982E+00
         21   -1    0    0  504  503  0.00000000000E+00  0.00000000000E+00  0.35128987110E+03  0.35128987110E+03  0.00000000000E+00 0. -1.
         21   -1    0    0  502  504 -0.00000000000E+00 -0.00000000000E+00 -0.12069519104E+03  0.12069519104E+03  0.00000000000E+00 0.  1.
          6    2    1    2  502    0 -0.66011645920E+02 -0.70348209970E+02  0.17559085068E+03  0.26794629057E+03  0.17792318496E+03 0.  0.
         24    2    3    3    0    0 -0.64866915471E+02 -0.11360798600E+03  0.11196144163E+03  0.19085212525E+03  0.82308432710E+02 0.  0.
         -6    2    1    2    0  503  0.66011645920E+02  0.70348209970E+02  0.55003829374E+02  0.20403877156E+03  0.17117240143E+03 0.  0.
        -24    2    5    5    0    0  0.10872140751E+03  0.40864777499E+02  0.28633568272E+02  0.14563605591E+03  0.83064463274E+02 0.  0.
          2    1    4    4  501    0 -0.79813611101E+02 -0.65048452831E+02  0.65705262840E+02  0.12214211107E+03  0.00000000000E+00 0. -1.
         -1    1    4    4    0  501  0.14946695630E+02 -0.48559533171E+02  0.46256178793E+02  0.68710014180E+02  0.00000000000E+00 0.  1.
          5    1    3    3  502    0 -0.11447304497E+01  0.43259776033E+02  0.63629409050E+02  0.77094165319E+02  0.47000000000E+01 0. -1.
         13    1    6    6    0    0  0.40925039520E+02 -0.24702620831E+02  0.16363535546E+02  0.50525672991E+02  0.00000000000E+00 0. -1.
        -14    1    6    6    0    0  0.67796367986E+02  0.65567398330E+02  0.12270032726E+02  0.95110382919E+02  0.00000000000E+00 0.  1.
         -5    1    5    5    0  503 -0.42709761585E+02  0.29483432471E+02  0.26370261102E+02  0.58402715652E+02  0.47000000000E+01 0.  1.
<mgrwt>
<rscale>  2 0.20089984E+03</rscale>
<asrwt>0</asrwt>
<pdfrwt beam="1">  1       21 0.54044595E-01 0.20239335E+03</pdfrwt>
<pdfrwt beam="2">  1       21 0.18568491E-01 0.20239335E+03</pdfrwt>
<totfact> 0.85437331E+04</totfact>
</mgrwt>
</event>
<event>
12    1  0.2762290E-001  0.2575699E+03  0.7546771E-02  0.1108630E+00
         21   -1    0    0  504  503  0.00000000000E+00  0.00000000000E+00  0.33449429329E+03  0.33449429329E+03  0.00000000000E+00 0.  1.
         21   -1    0    0  502  504 -0.00000000000E+00 -0.00000000000E+00 -0.24184269621E+03  0.24184269621E+03  0.00000000000E+00 0. -1.
          6    2    1    2  502    0 -0.16203707247E+03  0.10063915746E+03 -0.76030639087E+02  0.26844750677E+03  0.17291371531E+03 0.  0.
         24    2    3    3    0    0 -0.11961837815E+02  0.47880706882E+02 -0.61880783372E+01  0.94648474965E+02  0.80525734050E+02 0.  0.
         -6    2    1    2    0  503  0.16203707247E+03 -0.10063915746E+03  0.16868223617E+03  0.30788948273E+03  0.17308374824E+03 0.  0.
        -24    2    5    5    0    0  0.18440364337E+03 -0.73364180509E+02  0.11786307620E+03  0.24585026222E+03  0.84638289414E+02 0.  0.
          4    1    4    4  501    0 -0.13997672312E+02  0.69835442661E+02  0.16618634333E+01  0.71243846555E+02  0.00000000000E+00 0. -1.
         -3    1    4    4    0  501  0.20358344975E+01 -0.21954735779E+02 -0.78499417705E+01  0.23404628410E+02  0.00000000000E+00 0.  1.
          5    1    3    3  502    0 -0.15007523466E+03  0.52758450582E+02 -0.69842560750E+02  0.17379903181E+03  0.47000000000E+01 0. -1.
         11    1    6    6    0    0  0.12641896670E+03 -0.46868796837E+02  0.31417472038E+02  0.13843950595E+03  0.00000000000E+00 0. -1.
        -12    1    6    6    0    0  0.57984676667E+02 -0.26495383672E+02  0.86445604164E+02  0.10741075627E+03  0.00000000000E+00 0.  1.
         -5    1    5    5    0  503 -0.22366570893E+02 -0.27274976955E+02  0.50819159965E+02  0.62039220506E+02  0.47000000000E+01 0.  1.
<mgrwt>
<rscale>  2 0.25754131E+03</rscale>
<asrwt>0</asrwt>
<pdfrwt beam="1">  1       21 0.51460660E-01 0.25756987E+03</pdfrwt>
<pdfrwt beam="2">  1       21 0.37206569E-01 0.25756987E+03</pdfrwt>
<totfact> 0.24173554E+04</totfact>
</mgrwt>
</event>
<event>
12    1  0.2762290E-001  0.2009936E+03  0.7546771E-02  0.1149139E+00
         21   -1    0    0  504  503  0.00000000000E+00  0.00000000000E+00  0.59417149269E+03  0.59417149269E+03  0.00000000000E+00 0.  1.
         21   -1    0    0  502  504 -0.00000000000E+00 -0.00000000000E+00 -0.91914775642E+02  0.91914775642E+02  0.00000000000E+00 0. -1.
          6    2    1    2  502    0  0.35624031655E+02 -0.94499900539E+02  0.74218428611E+02  0.21320655998E+03  0.17248002562E+03 0.  0.
         24    2    3    3    0    0  0.48307665746E+02 -0.13449452223E+03  0.76809573676E+02  0.17090705205E+03  0.53731766693E+02 0.  0.
         -6    2    1    2    0  503 -0.35624031655E+02  0.94499900539E+02  0.42803828844E+03  0.47287970836E+03  0.17377899578E+03 0.  0.
        -24    2    5    5    0    0 -0.66659626128E+02  0.54888794164E+01  0.23954730298E+03  0.26207858975E+03  0.82635605453E+02 0.  0.
          4    1    4    4  501    0  0.21127037052E+01 -0.52717962635E+02  0.56294948546E+01  0.53059761719E+02  0.00000000000E+00 0. -1.
         -3    1    4    4    0  501  0.46194962041E+02 -0.81776559598E+02  0.71180078821E+02  0.11784729033E+03  0.00000000000E+00 0.  1.
          5    1    3    3  502    0 -0.12683634091E+02  0.39994621693E+02 -0.25911450649E+01  0.42299507927E+02  0.47000000000E+01 0. -1.
         11    1    6    6    0    0 -0.36636299099E+02 -0.38220801433E+02  0.13016118136E+03  0.14051683602E+03  0.00000000000E+00 0. -1.
        -12    1    6    6    0    0 -0.30023327030E+02  0.43709680849E+02  0.10938612163E+03  0.12156175373E+03  0.00000000000E+00 0.  1.
         -5    1    5    5    0  503  0.31035594473E+02  0.89011021123E+02  0.18849098546E+03  0.21080111860E+03  0.47000000000E+01 0.  1.
<mgrwt>
<rscale>  2 0.20071254E+03</rscale>
<asrwt>0</asrwt>
<pdfrwt beam="1">  1       21 0.91410996E-01 0.20099364E+03</pdfrwt>
<pdfrwt beam="2">  1       21 0.14140735E-01 0.20099364E+03</pdfrwt>
<totfact> 0.44057117E+04</totfact>
</mgrwt>
</event>
<event>
12    1  0.2762290E-001  0.1768820E+03  0.7546771E-02  0.1171157E+00
         21   -1    0    0  504  503  0.00000000000E+00  0.00000000000E+00  0.55669781431E+03  0.55669781431E+03  0.00000000000E+00 0.  1.
         21   -1    0    0  502  504 -0.00000000000E+00 -0.00000000000E+00 -0.59357987793E+02  0.59357987793E+02  0.00000000000E+00 0.  1.
          6    2    1    2  502    0 -0.32723748541E+01 -0.30667267157E+02  0.17423735652E+03  0.24828589860E+03  0.17417244708E+03 0.  0.
         24    2    3    3    0    0  0.31428221370E+02 -0.68591088530E+02  0.64204084962E+02  0.12674677545E+03  0.79057637434E+02 0.  0.
         -6    2    1    2    0  503  0.32723748541E+01  0.30667267157E+02  0.32310246999E+03  0.36776990350E+03  0.17294018068E+03 0.  0.
        -24    2    5    5    0    0  0.78927675625E+01 -0.42597399706E+02  0.23846106689E+03  0.25563018459E+03  0.81279004710E+02 0.  0.
          4    1    4    4  501    0 -0.92330719707E+01 -0.15044084248E+02  0.56354855586E+02  0.59054583539E+02  0.00000000000E+00 0. -1.
         -3    1    4    4    0  501  0.40661293341E+02 -0.53547004283E+02  0.78492293759E+01  0.67692191910E+02  0.00000000000E+00 0.  1.
          5    1    3    3  502    0 -0.34700596224E+02  0.37923821373E+02  0.11003327156E+03  0.12153912315E+03  0.47000000000E+01 0. -1.
         11    1    6    6    0    0 -0.13078920278E+02 -0.54052129025E+02  0.94099196341E+02  0.10930393204E+03  0.00000000000E+00 0. -1.
        -12    1    6    6    0    0  0.20971687841E+02  0.11454729318E+02  0.14436187055E+03  0.14632625254E+03  0.00000000000E+00 0.  1.
         -5    1    5    5    0  503 -0.46203927084E+01  0.73264666864E+02  0.84641403102E+02  0.11213971892E+03  0.47000000000E+01 0.  1.
<mgrwt>
<rscale>  2 0.17657787E+03</rscale>
<asrwt>0</asrwt>
<pdfrwt beam="1">  1       21 0.85645814E-01 0.17688197E+03</pdfrwt>
<pdfrwt beam="2">  1       21 0.91319985E-02 0.17688197E+03</pdfrwt>
<totfact> 0.11281832E+05</totfact>
</mgrwt>
</event>
<event>
12    1  0.2762290E-001  0.2106833E+03  0.7546771E-02  0.1141206E+00
         21   -1    0    0  504  503  0.00000000000E+00  0.00000000000E+00  0.89492990835E+03  0.89492990835E+03  0.00000000000E+00 0.  1.
         21   -1    0    0  502  504 -0.00000000000E+00 -0.00000000000E+00 -0.60242007284E+02  0.60242007284E+02  0.00000000000E+00 0. -1.
          6    2    1    2  502    0  0.28877068563E+02 -0.11642935985E+03  0.62083195892E+03  0.65560642820E+03  0.17319869099E+03 0.  0.
         24    2    3    3    0    0 -0.28914604395E+02 -0.61872821156E+02  0.18951699775E+03  0.21700526644E+03  0.80686385952E+02 0.  0.
         -6    2    1    2    0  503 -0.28877068563E+02  0.11642935985E+03  0.21385594215E+03  0.29956548743E+03  0.17209136046E+03 0.  0.
        -24    2    5    5    0    0  0.28167379832E+02  0.11512655526E+03  0.97788271099E+02  0.17014539373E+03  0.73071088866E+02 0.  0.
          2    1    4    4  501    0 -0.43672536457E+02 -0.50414251006E+02  0.18651359615E+03  0.19808131838E+03  0.00000000000E+00 0. -1.
         -1    1    4    4    0  501  0.14757932062E+02 -0.11458570150E+02  0.30034016067E+01  0.18923948051E+02  0.00000000000E+00 0.  1.
          5    1    3    3  502    0  0.57791672958E+02 -0.54556538697E+02  0.43131496117E+03  0.43860116177E+03  0.47000000000E+01 0. -1.
         13    1    6    6    0    0  0.42873361101E+02  0.48847001921E+02  0.73319640713E+02  0.97979203932E+02  0.00000000000E+00 0. -1.
        -14    1    6    6    0    0 -0.14705981270E+02  0.66279553343E+02  0.24468630386E+02  0.72166189795E+02  0.00000000000E+00 0.  1.
         -5    1    5    5    0  503 -0.57044448395E+02  0.13028045880E+01  0.11606767105E+03  0.12942009371E+03  0.47000000000E+01 0.  1.
<mgrwt>
<rscale>  2 0.21045562E+03</rscale>
<asrwt>0</asrwt>
<pdfrwt beam="1">  1       21 0.13768151E+00 0.21068333E+03</pdfrwt>
<pdfrwt beam="2">  1       21 0.92680018E-02 0.21068333E+03</pdfrwt>
<totfact> 0.34293753E+04</totfact>
</mgrwt>
</event>
<event>
12    1  0.2762290E-001  0.1997898E+03  0.7546771E-02  0.1150382E+00
         21   -1    0    0  504  503  0.00000000000E+00  0.00000000000E+00  0.21990592962E+03  0.21990592962E+03  0.00000000000E+00 0.  1.
         21   -1    0    0  502  504 -0.00000000000E+00 -0.00000000000E+00 -0.47410162899E+03  0.47410162899E+03  0.00000000000E+00 0.  1.
          6    2    1    2  502    0 -0.31912169590E+02  0.95662470324E+02 -0.40088441126E+03  0.44791099484E+03  0.17247102167E+03 0.  0.
         24    2    3    3    0    0  0.44641362847E+01  0.56213175951E+02 -0.37591027714E+03  0.38853692786E+03  0.80452210564E+02 0.  0.
         -6    2    1    2    0  503  0.31912169590E+02 -0.95662470324E+02  0.14668871189E+03  0.24609656377E+03  0.16993012007E+03 0.  0.
        -24    2    5    5    0    0 -0.27671366949E+02 -0.14581705198E+01  0.73580469259E+02  0.11271158310E+03  0.80758805705E+02 0.  0.
          4    1    4    4  501    0  0.10663639517E+02  0.35863318102E+02 -0.36008337819E+03  0.36202200215E+03  0.00000000000E+00 0. -1.
         -3    1    4    4    0  501 -0.61995032318E+01  0.20349857849E+02 -0.15826898954E+02  0.26514925708E+02  0.00000000000E+00 0.  1.
          5    1    3    3  502    0 -0.36376305875E+02  0.39449294373E+02 -0.24974134118E+02  0.59374066987E+02  0.47000000000E+01 0. -1.
         11    1    6    6    0    0 -0.25712323166E+02 -0.50661372363E+01 -0.10717646377E+02  0.28313552461E+02  0.00000000000E+00 0. -1.
        -12    1    6    6    0    0 -0.19590437829E+01  0.36079667165E+01  0.84298115635E+02  0.84398030641E+02  0.00000000000E+00 0.  1.
         -5    1    5    5    0  503  0.59583536539E+02 -0.94204299804E+02  0.73108242630E+02  0.13338498067E+03  0.47000000000E+01 0.  1.
<mgrwt>
<rscale>  2 0.19924017E+03</rscale>
<asrwt>0</asrwt>
<pdfrwt beam="1">  1       21 0.33831682E-01 0.19978976E+03</pdfrwt>
<pdfrwt beam="2">  1       21 0.72938712E-01 0.19978976E+03</pdfrwt>
<totfact> 0.14172985E+04</totfact>
</mgrwt>
</event>
<event>
12    1  0.2762290E-001  0.1986597E+03  0.7546771E-02  0.1152882E+00
         21   -1    0    0  504  503  0.00000000000E+00  0.00000000000E+00  0.36329383634E+02  0.36329383634E+02  0.00000000000E+00 0.  1.
         21   -1    0    0  502  504 -0.00000000000E+00 -0.00000000000E+00 -0.12664431200E+04  0.12664431200E+04  0.00000000000E+00 0.  1.
          6    2    1    2  502    0  0.51709681928E+02  0.58734559338E+02 -0.90441609368E+03  0.92597739632E+03  0.18259799647E+03 0.  0.
         24    2    3    3    0    0 -0.17181127474E+02  0.91104692936E+02 -0.55734121421E+03  0.57062288160E+03  0.79912375340E+02 0.  0.
         -6    2    1    2    0  503 -0.51709681928E+02 -0.58734559338E+02 -0.32569764265E+03  0.37679510729E+03  0.17254552669E+03 0.  0.
        -24    2    5    5    0    0  0.33716592148E+02 -0.12069862938E+02 -0.12073903585E+03  0.14984717781E+03  0.81202042716E+02 0.  0.
          4    1    4    4  501    0 -0.45560623145E+02  0.62566871775E+02 -0.43499484904E+03  0.44182677886E+03  0.00000000000E+00 0. -1.
         -3    1    4    4    0  501  0.28379495671E+02  0.28537821161E+02 -0.12234636517E+03  0.12879610274E+03  0.00000000000E+00 0.  1.
          5    1    3    3  502    0  0.68890809402E+02 -0.32370133598E+02 -0.34707487947E+03  0.35535451472E+03  0.47000000000E+01 0. -1.
         13    1    6    6    0    0  0.21838779295E+01  0.31889586944E+02 -0.28057103525E+02  0.42531354745E+02  0.00000000000E+00 0. -1.
        -14    1    6    6    0    0  0.31532714218E+02 -0.43959449882E+02 -0.92681932324E+02  0.10731582306E+03  0.00000000000E+00 0.  1.
         -5    1    5    5    0  503 -0.85426274076E+02 -0.46664696399E+02 -0.20495860680E+03  0.22694792948E+03  0.47000000000E+01 0.  1.
<mgrwt>
<rscale>  2 0.19631905E+03</rscale>
<asrwt>0</asrwt>
<pdfrwt beam="1">  1       21 0.55891363E-02 0.19865968E+03</pdfrwt>
<pdfrwt beam="2">  1       21 0.19483739E+00 0.19865968E+03</pdfrwt>
<totfact> 0.32138244E+04</totfact>
</mgrwt>
</event>
<event>
12    1  0.2762290E-001  0.2310022E+03  0.7546771E-02  0.1126007E+00
         21   -1    0    0  504  503  0.00000000000E+00  0.00000000000E+00  0.55970357117E+03  0.55970357117E+03  0.00000000000E+00 0. -1.
         21   -1    0    0  502  504 -0.00000000000E+00 -0.00000000000E+00 -0.10136171576E+03  0.10136171576E+03  0.00000000000E+00 0.  1.
          6    2    1    2  502    0 -0.14756211464E+03  0.37821411878E+02  0.14768272214E+03  0.27417549039E+03  0.17365764088E+03 0.  0.
         24    2    3    3    0    0 -0.43082563756E+02  0.73867318921E+02  0.99335117768E+02  0.15344908559E+03  0.79791403934E+02 0.  0.
         -6    2    1    2    0  503  0.14756211464E+03 -0.37821411878E+02  0.31065913327E+03  0.38688979654E+03  0.17311724557E+03 0.  0.
        -24    2    5    5    0    0  0.38090111006E+02 -0.26989694117E+02  0.72073965144E+02  0.12412294525E+03  0.89624488514E+02 0.  0.
          2    1    4    4  501    0  0.19773192116E+02  0.22019306901E+01  0.80408375083E+01  0.21458860479E+02  0.00000000000E+00 0. -1.
         -1    1    4    4    0  501 -0.62855755871E+02  0.71665388231E+02  0.91294280260E+02  0.13199022511E+03  0.00000000000E+00 0.  1.
          5    1    3    3  502    0 -0.10447955088E+03 -0.36045907043E+02  0.48347604375E+02  0.12072640480E+03  0.47000000000E+01 0. -1.
         13    1    6    6    0    0  0.16106840307E+02 -0.51074504736E+02  0.74127967562E+02  0.91449389903E+02  0.00000000000E+00 0. -1.
        -14    1    6    6    0    0  0.21983270699E+02  0.24084810619E+02 -0.20540024182E+01  0.32673555348E+02  0.00000000000E+00 0.  1.
         -5    1    5    5    0  503  0.10947200363E+03 -0.10831717761E+02  0.23858516812E+03  0.26276685129E+03  0.47000000000E+01 0.  1.
<mgrwt>
<rscale>  2 0.23090063E+03</rscale>
<asrwt>0</asrwt>
<pdfrwt beam="1">  1       21 0.86108240E-01 0.23100219E+03</pdfrwt>
<pdfrwt beam="2">  1       21 0.15594110E-01 0.23100219E+03</pdfrwt>
<totfact> 0.41706270E+04</totfact>
</mgrwt>
</event>
<event>
12    1  0.2762290E-001  0.3414024E+03  0.7546771E-02  0.1066465E+00
         21   -1    0    0  504  503  0.00000000000E+00  0.00000000000E+00  0.78011228370E+03  0.78011228370E+03  0.00000000000E+00 0. -1.
         21   -1    0    0  502  504 -0.00000000000E+00 -0.00000000000E+00 -0.31110494456E+03  0.31110494456E+03  0.00000000000E+00 0.  1.
          6    2    1    2  502    0 -0.98690908111E+02  0.27679443472E+03 -0.15975383470E+03  0.37693086862E+03  0.17378301868E+03 0.  0.
         24    2    3    3    0    0 -0.12356335053E+03  0.24560230872E+03 -0.17330171375E+03  0.33453721175E+03  0.79330110390E+02 0.  0.
         -6    2    1    2    0  503  0.98690908111E+02 -0.27679443472E+03  0.62876117385E+03  0.71428635964E+03  0.16884707694E+03 0.  0.
        -24    2    5    5    0    0  0.42253384259E+02 -0.12716016407E+03  0.43945246397E+03  0.46642452981E+03  0.80487999790E+02 0.  0.
          4    1    4    4  501    0 -0.75568345022E+02  0.75254438891E+02 -0.87018582931E+02  0.13764461165E+03  0.00000000000E+00 0. -1.
         -3    1    4    4    0  501 -0.47995005509E+02  0.17034786983E+03 -0.86283130817E+02  0.19689260009E+03  0.00000000000E+00 0.  1.
          5    1    3    3  502    0  0.24872442420E+02  0.31192125999E+02  0.13547879045E+02  0.42393656871E+02  0.47000000000E+01 0. -1.
         11    1    6    6    0    0  0.32456061707E+01 -0.11261799073E+03  0.35155330804E+03  0.36916537512E+03  0.00000000000E+00 0. -1.
        -12    1    6    6    0    0  0.39007778088E+02 -0.14542173332E+02  0.87899155931E+02  0.97259154684E+02  0.00000000000E+00 0.  1.
         -5    1    5    5    0  503  0.56437523852E+02 -0.14963427065E+03  0.18930870988E+03  0.24786182983E+03  0.47000000000E+01 0.  1.
<mgrwt>
<rscale>  2 0.34077921E+03</rscale>
<asrwt>0</asrwt>
<pdfrwt beam="1">  1       21 0.12001727E+00 0.34140239E+03</pdfrwt>
<pdfrwt beam="2">  1       21 0.47862299E-01 0.34140239E+03</pdfrwt>
<totfact> 0.19873796E+03</totfact>
</mgrwt>
</event>
<event>
12    1  0.2762290E-001  0.1771505E+03  0.7546771E-02  0.1171456E+00
         21   -1    0    0  504  503  0.00000000000E+00  0.00000000000E+00  0.48325340044E+03  0.48325340044E+03  0.00000000000E+00 0. -1.
         21   -1    0    0  502  504 -0.00000000000E+00 -0.00000000000E+00 -0.64538104509E+02  0.64538104509E+02  0.00000000000E+00 0. -1.
          6    2    1    2  502    0  0.56923629398E+01 -0.87514689445E+00  0.17970536735E+03  0.25234168463E+03  0.17705687750E+03 0.  0.
         24    2    3    3    0    0  0.74497564734E+02  0.98538603017E+01  0.11301395078E+03  0.15580618632E+03  0.76527308275E+02 0.  0.
         -6    2    1    2    0  503 -0.56923629398E+01  0.87514689445E+00  0.23900992858E+03  0.29544982032E+03  0.17358479625E+03 0.  0.
        -24    2    5    5    0    0 -0.66180877706E+02 -0.25650750983E+02  0.16182394350E+03  0.19375296702E+03  0.79469201211E+02 0.  0.
          2    1    4    4  501    0  0.42912604628E+02  0.42865042124E+02  0.74366188732E+02  0.95964751335E+02  0.00000000000E+00 0. -1.
         -1    1    4    4    0  501  0.31584960105E+02 -0.33011181823E+02  0.38647762044E+02  0.59841434986E+02  0.00000000000E+00 0.  1.
          5    1    3    3  502    0 -0.68805201794E+02 -0.10729007196E+02  0.66691416570E+02  0.96535498307E+02  0.47000000000E+01 0. -1.
         11    1    6    6    0    0 -0.46912577137E+02 -0.44547790085E+02  0.59380645275E+02  0.87814329857E+02  0.00000000000E+00 0. -1.
        -12    1    6    6    0    0 -0.19268300569E+02  0.18897039102E+02  0.10244329822E+03  0.10593863717E+03  0.00000000000E+00 0.  1.
         -5    1    5    5    0  503  0.60488514766E+02  0.26525897877E+02  0.77185985085E+02  0.10169685330E+03  0.47000000000E+01 0.  1.
<mgrwt>
<rscale>  2 0.17627652E+03</rscale>
<asrwt>0</asrwt>
<pdfrwt beam="1">  1       21 0.74346675E-01 0.17715052E+03</pdfrwt>
<pdfrwt beam="2">  1       21 0.99289394E-02 0.17715052E+03</pdfrwt>
<totfact> 0.13395951E+05</totfact>
</mgrwt>
</event>
<event>
12    1  0.2762290E-001  0.1961621E+03  0.7546771E-02  0.1153048E+00
         21   -1    0    0  504  503  0.00000000000E+00  0.00000000000E+00  0.28891342347E+03  0.28891342347E+03  0.00000000000E+00 0. -1.
         21   -1    0    0  502  504 -0.00000000000E+00 -0.00000000000E+00 -0.13314751681E+03  0.13314751681E+03  0.00000000000E+00 0. -1.
          6    2    1    2  502    0 -0.84754151408E+02  0.37972213947E+02  0.82090910395E+02  0.21251960782E+03  0.17262824486E+03 0.  0.
         24    2    3    3    0    0 -0.72688537546E+02  0.85631346520E+02  0.85761320327E+02  0.16299654385E+03  0.81218952503E+02 0.  0.
         -6    2    1    2    0  503  0.84754151408E+02 -0.37972213947E+02  0.73674996262E+02  0.20954133246E+03  0.17278428667E+03 0.  0.
        -24    2    5    5    0    0  0.89063055170E+02  0.20825352065E+02  0.83653584352E+02  0.14956314775E+03  0.83697609912E+02 0.  0.
          4    1    4    4  501    0 -0.84196153494E+02  0.87815886678E+02  0.62090970390E+02  0.13658664217E+03  0.00000000000E+00 0. -1.
         -3    1    4    4    0  501  0.11507615948E+02 -0.21845401580E+01  0.23670349936E+02  0.26409901677E+02  0.00000000000E+00 0.  1.
          5    1    3    3  502    0 -0.12065613862E+02 -0.47659132573E+02 -0.36704099314E+01  0.49523063965E+02  0.47000000000E+01 0. -1.
         13    1    6    6    0    0  0.37900262494E+02  0.50392872981E+02  0.30334832048E+02  0.69971948520E+02  0.00000000000E+00 0. -1.
        -14    1    6    6    0    0  0.51162792676E+02 -0.29567520915E+02  0.53318752304E+02  0.79591199229E+02  0.00000000000E+00 0.  1.
         -5    1    5    5    0  503 -0.43089037622E+01 -0.58797566013E+02 -0.99785880902E+01  0.59978184708E+02  0.47000000000E+01 0.  1.
<mgrwt>
<rscale>  2 0.19612772E+03</rscale>
<asrwt>0</asrwt>
<pdfrwt beam="1">  1       21 0.44448219E-01 0.19616209E+03</pdfrwt>
<pdfrwt beam="2">  1       21 0.20484233E-01 0.19616209E+03</pdfrwt>
<totfact> 0.10713364E+05</totfact>
</mgrwt>
</event>
<event>
12    1  0.2762290E-001  0.1967133E+03  0.7546771E-02  0.1152562E+00
         21   -1    0    0  504  503  0.00000000000E+00  0.00000000000E+00  0.72090190596E+02  0.72090190596E+02  0.00000000000E+00 0.  1.
         21   -1    0    0  502  504 -0.00000000000E+00 -0.00000000000E+00 -0.13625693558E+04  0.13625693558E+04  0.00000000000E+00 0.  1.
          6    2    1    2  502    0  0.68923074152E+02 -0.62274231071E+02 -0.12037045308E+04  0.12196572867E+04  0.17329405543E+03 0.  0.
         24    2    3    3    0    0  0.86653284434E+02 -0.74451583755E+02 -0.11760938847E+04  0.11843431812E+04  0.80125620813E+02 0.  0.
         -6    2    1    2    0  503 -0.68923074152E+02  0.62274231071E+02 -0.86774634376E+02  0.21500225962E+03  0.17340030122E+03 0.  0.
        -24    2    5    5    0    0  0.11994422575E+02  0.40450131458E+02 -0.94255751014E+02  0.13072895598E+03  0.80161300039E+02 0.  0.
          4    1    4    4  501    0  0.61061945126E+02 -0.55772127672E+01 -0.38593442595E+03  0.39077493212E+03  0.00000000000E+00 0. -1.
         -3    1    4    4    0  501  0.25591339308E+02 -0.68874370987E+02 -0.79015945877E+03  0.79356824906E+03  0.00000000000E+00 0.  1.
          5    1    3    3  502    0 -0.17730210282E+02  0.12177352684E+02 -0.27610646081E+02  0.35314105568E+02  0.47000000000E+01 0. -1.
         13    1    6    6    0    0  0.55321718733E+01  0.57734212326E+02 -0.96035909273E+02  0.11219064163E+03  0.00000000000E+00 0. -1.
        -14    1    6    6    0    0  0.64622507019E+01 -0.17284080868E+02  0.17801582594E+01  0.18538314352E+02  0.00000000000E+00 0.  1.
         -5    1    5    5    0  503 -0.80917496727E+02  0.21824099613E+02  0.74811166385E+01  0.84273303641E+02  0.47000000000E+01 0.  1.
<mgrwt>
<rscale>  2 0.19668991E+03</rscale>
<asrwt>0</asrwt>
<pdfrwt beam="1">  1       21 0.11090800E-01 0.19671333E+03</pdfrwt>
<pdfrwt beam="2">  1       21 0.20962602E+00 0.19671333E+03</pdfrwt>
<totfact> 0.78511989E+03</totfact>
</mgrwt>
</event>
<event>
12    1  0.2762290E-001  0.2019444E+03  0.7546771E-02  0.1148497E+00
         21   -1    0    0  504  503  0.00000000000E+00  0.00000000000E+00  0.21113224162E+03  0.21113224162E+03  0.00000000000E+00 0. -1.
         21   -1    0    0  502  504 -0.00000000000E+00 -0.00000000000E+00 -0.49671117129E+03  0.49671117129E+03  0.00000000000E+00 0. -1.
          6    2    1    2  502    0 -0.15811904339E+02  0.99320011581E+02 -0.42001791604E+03  0.46524215833E+03  0.17297611126E+03 0.  0.
         24    2    3    3    0    0  0.68070412536E+01  0.45632148395E+02 -0.82816962885E+02  0.12301332236E+03  0.78390046305E+02 0.  0.
         -6    2    1    2    0  503  0.15811904339E+02 -0.99320011581E+02  0.13443898637E+03  0.24260125458E+03  0.17512009208E+03 0.  0.
        -24    2    5    5    0    0  0.26296757419E+02 -0.31225027178E+02 -0.86874568751E+00  0.90689663850E+02  0.80977395841E+02 0.  0.
          4    1    4    4  501    0 -0.50641081903E+01 -0.18931246091E+02 -0.32546703519E+01  0.19865300134E+02  0.00000000000E+00 0. -1.
         -3    1    4    4    0  501  0.11871149444E+02  0.64563394486E+02 -0.79562292533E+02  0.10314802223E+03  0.00000000000E+00 0.  1.
          5    1    3    3  502    0 -0.22618945593E+02  0.53687863186E+02 -0.33720095316E+03  0.34222883596E+03  0.47000000000E+01 0. -1.
         13    1    6    6    0    0  0.22678316414E+02 -0.43534529149E+02  0.29814246647E+02  0.57432138797E+02  0.00000000000E+00 0. -1.
        -14    1    6    6    0    0  0.36184410057E+01  0.12309501971E+02 -0.30682992335E+02  0.33257525054E+02  0.00000000000E+00 0.  1.
         -5    1    5    5    0  503 -0.10484853080E+02 -0.68094984403E+02  0.13530773206E+03  0.15191159073E+03  0.47000000000E+01 0.  1.
<mgrwt>
<rscale>  2 0.20147867E+03</rscale>
<asrwt>0</asrwt>
<pdfrwt beam="1">  1       21 0.32481884E-01 0.20194437E+03</pdfrwt>
<pdfrwt beam="2">  1       21 0.76417102E-01 0.20194437E+03</pdfrwt>
<totfact> 0.13821975E+04</totfact>
</mgrwt>
</event>
<event>
12    1  0.2762290E-001  0.1952988E+03  0.7546771E-02  0.1153978E+00
         21   -1    0    0  504  503  0.00000000000E+00  0.00000000000E+00  0.93760394551E+02  0.93760394551E+02  0.00000000000E+00 0.  1.
         21   -1    0    0  502  504 -0.00000000000E+00 -0.00000000000E+00 -0.41662055621E+03  0.41662055621E+03  0.00000000000E+00 0.  1.
          6    2    1    2  502    0  0.49386240319E+02 -0.72786079296E+02 -0.11802608886E+03  0.22736395445E+03  0.17328414833E+03 0.  0.
         24    2    3    3    0    0 -0.25596261883E+02  0.67694099197E+01 -0.53034229622E+02  0.10009462088E+03  0.80655502506E+02 0.  0.
         -6    2    1    2    0  503 -0.49386240319E+02  0.72786079296E+02 -0.20483407280E+03  0.28301699631E+03  0.17436974723E+03 0.  0.
        -24    2    5    5    0    0 -0.99309133537E+02  0.51307524067E+02 -0.12406180500E+03  0.18554970514E+03  0.80886312741E+02 0.  0.
          4    1    4    4  501    0 -0.17390516174E+02  0.12874674887E+02 -0.73821594477E+02  0.76927336607E+02  0.00000000000E+00 0. -1.
         -3    1    4    4    0  501 -0.82057457089E+01 -0.61052649671E+01  0.20787364856E+02  0.23167284273E+02  0.00000000000E+00 0.  1.
          5    1    3    3  502    0  0.74982502202E+02 -0.79555489215E+02 -0.64991859236E+02  0.12726933357E+03  0.47000000000E+01 0. -1.
         13    1    6    6    0    0 -0.62694430049E+02  0.48473428209E+01 -0.20240305508E+02  0.66058748540E+02  0.00000000000E+00 0. -1.
        -14    1    6    6    0    0 -0.36614703488E+02  0.46460181246E+02 -0.10382149950E+03  0.11949095660E+03  0.00000000000E+00 0.  1.
         -5    1    5    5    0  503  0.49922893218E+02  0.21478555229E+02 -0.80772267801E+02  0.97467291168E+02  0.47000000000E+01 0.  1.
<mgrwt>
<rscale>  2 0.19505619E+03</rscale>
<asrwt>0</asrwt>
<pdfrwt beam="1">  1       21 0.14424676E-01 0.19529880E+03</pdfrwt>
<pdfrwt beam="2">  1       21 0.64095471E-01 0.19529880E+03</pdfrwt>
<totfact> 0.94537505E+04</totfact>
</mgrwt>
</event>
<event>
12    1  0.2762290E-001  0.2947296E+03  0.7546771E-02  0.1087933E+00
         21   -1    0    0  504  503  0.00000000000E+00  0.00000000000E+00  0.13929797242E+04  0.13929797242E+04  0.00000000000E+00 0. -1.
         21   -1    0    0  502  504 -0.00000000000E+00 -0.00000000000E+00 -0.98981604819E+02  0.98981604819E+02  0.00000000000E+00 0. -1.
          6    2    1    2  502    0  0.73755061523E+02  0.22750462725E+03  0.19310829521E+03  0.35235829051E+03  0.17224223260E+03 0.  0.
         24    2    3    3    0    0  0.72554276749E+02  0.12029621122E+03  0.41755360395E+02  0.16681884126E+03  0.79685093756E+02 0.  0.
         -6    2    1    2    0  503 -0.73755061523E+02 -0.22750462725E+03  0.11008898242E+04  0.11396030385E+04  0.17186772793E+03 0.  0.
        -24    2    5    5    0    0 -0.11546180214E+03 -0.16690352205E+03  0.78706641021E+03  0.81723807249E+03  0.84948923645E+02 0.  0.
          2    1    4    4  501    0  0.24601758740E+02  0.10963560165E+03  0.30356370517E+02  0.11639038153E+03  0.00000000000E+00 0. -1.
         -1    1    4    4    0  501  0.47952518009E+02  0.10660609574E+02  0.11398989878E+02  0.50428459724E+02  0.00000000000E+00 0.  1.
          5    1    3    3  502    0  0.12007847742E+01  0.10720841603E+03  0.15135293482E+03  0.18553944926E+03  0.47000000000E+01 0. -1.
         13    1    6    6    0    0 -0.32298459351E+01  0.63231646426E+01  0.89338886104E+02  0.89620594096E+02  0.00000000000E+00 0. -1.
        -14    1    6    6    0    0 -0.11223195621E+03 -0.17322668670E+03  0.69772752410E+03  0.72761747840E+03  0.00000000000E+00 0.  1.
         -5    1    5    5    0  503  0.41706740620E+02 -0.60601105200E+02  0.31382341399E+03  0.32236496604E+03  0.47000000000E+01 0.  1.
<mgrwt>
<rscale>  2 0.29467493E+03</rscale>
<asrwt>0</asrwt>
<pdfrwt beam="1">  1       21 0.21430456E+00 0.29472962E+03</pdfrwt>
<pdfrwt beam="2">  1       21 0.15227940E-01 0.29472962E+03</pdfrwt>
<totfact> 0.38356901E+03</totfact>
</mgrwt>
</event>
<event>
12    1  0.2762290E-001  0.2161831E+03  0.7546771E-02  0.1136852E+00
         21   -1    0    0  504  503  0.00000000000E+00  0.00000000000E+00  0.19845521883E+03  0.19845521883E+03  0.00000000000E+00 0.  1.
         21   -1    0    0  502  504 -0.00000000000E+00 -0.00000000000E+00 -0.25187444188E+03  0.25187444188E+03  0.00000000000E+00 0.  1.
          6    2    1    2  502    0  0.12621135806E+03  0.25836816643E+02 -0.85057810517E+02  0.23231431782E+03  0.17360375323E+03 0.  0.
         24    2    3    3    0    0  0.26446641695E+02 -0.26637762152E+01  0.17400500649E+02  0.86420253675E+02  0.80368913528E+02 0.  0.
         -6    2    1    2    0  503 -0.12621135806E+03 -0.25836816643E+02  0.31638587469E+02  0.21801534289E+03  0.17301110230E+03 0.  0.
        -24    2    5    5    0    0 -0.60631324244E+02 -0.58642072704E+02 -0.29599693042E+02  0.12236419203E+03  0.83557186961E+02 0.  0.
          4    1    4    4  501    0  0.27548585970E+02 -0.35955393206E+02 -0.60295446841E+01  0.45695407851E+02  0.00000000000E+00 0. -1.
         -3    1    4    4    0  501 -0.11019442753E+01  0.33291616991E+02  0.23430045334E+02  0.40724845824E+02  0.00000000000E+00 0.  1.
          5    1    3    3  502    0  0.99764716368E+02  0.28500592859E+02 -0.10245831117E+03  0.14589406414E+03  0.47000000000E+01 0. -1.
         11    1    6    6    0    0  0.13169964723E+02 -0.14458813425E+02  0.15763053805E+02  0.25119297795E+02  0.00000000000E+00 0. -1.
        -12    1    6    6    0    0 -0.73801288966E+02 -0.44183259279E+02 -0.45362746847E+02  0.97244894237E+02  0.00000000000E+00 0.  1.
         -5    1    5    5    0  503 -0.65580033819E+02  0.32805256060E+02  0.61238280511E+02  0.95651150860E+02  0.47000000000E+01 0.  1.
<mgrwt>
<rscale>  2 0.21606404E+03</rscale>
<asrwt>0</asrwt>
<pdfrwt beam="1">  1       21 0.30531572E-01 0.21618305E+03</pdfrwt>
<pdfrwt beam="2">  1       21 0.38749914E-01 0.21618305E+03</pdfrwt>
<totfact> 0.65436176E+04</totfact>
</mgrwt>
</event>
<event>
12    1  0.2762290E-001  0.2422330E+03  0.7546771E-02  0.1118324E+00
         21   -1    0    0  504  503  0.00000000000E+00  0.00000000000E+00  0.40809178355E+03  0.40809178355E+03  0.00000000000E+00 0.  1.
         21   -1    0    0  502  504 -0.00000000000E+00 -0.00000000000E+00 -0.18558994040E+03  0.18558994040E+03  0.00000000000E+00 0.  1.
          6    2    1    2  502    0 -0.14579811625E+03  0.86277036433E+02 -0.29683857662E+02  0.24404496889E+03  0.17313577827E+03 0.  0.
         24    2    3    3    0    0 -0.17488835623E+03  0.67003174657E+02 -0.17146579909E+02  0.20666854393E+03  0.85688501475E+02 0.  0.
         -6    2    1    2    0  503  0.14579811625E+03 -0.86277036433E+02  0.25218570081E+03  0.34963675506E+03  0.17305321457E+03 0.  0.
        -24    2    5    5    0    0  0.15034655275E+03 -0.99750933221E+02  0.15541013295E+03  0.25170905364E+03  0.81552459553E+02 0.  0.
          2    1    4    4  501    0 -0.30290973068E+02 -0.14611688602E+02  0.16173591392E+02  0.37317952137E+02  0.00000000000E+00 0. -1.
         -1    1    4    4    0  501 -0.14459738317E+03  0.81614863258E+02 -0.33320171301E+02  0.16935059179E+03  0.00000000000E+00 0.  1.
          5    1    3    3  502    0  0.29090239982E+02  0.19273861776E+02 -0.12537277753E+02  0.37376424969E+02  0.47000000000E+01 0. -1.
         11    1    6    6    0    0  0.34611160578E+02  0.12009288990E+02  0.22247646858E+02  0.42861559110E+02  0.00000000000E+00 0. -1.
        -12    1    6    6    0    0  0.11573539217E+03 -0.11176022221E+03  0.13316248609E+03  0.20884749453E+03  0.00000000000E+00 0.  1.
         -5    1    5    5    0  503 -0.45484365000E+01  0.13473896788E+02  0.96775567861E+02  0.97927701413E+02  0.47000000000E+01 0.  1.
<mgrwt>
<rscale>  2 0.24221822E+03</rscale>
<asrwt>0</asrwt>
<pdfrwt beam="1">  1       21 0.62783351E-01 0.24223298E+03</pdfrwt>
<pdfrwt beam="2">  1       21 0.28552299E-01 0.24223298E+03</pdfrwt>
<totfact> 0.26861301E+04</totfact>
</mgrwt>
</event>
<event>
12    1  0.2762290E-001  0.1842870E+03  0.7546771E-02  0.1164586E+00
         21   -1    0    0  504  503  0.00000000000E+00  0.00000000000E+00  0.42069060814E+03  0.42069060814E+03  0.00000000000E+00 0.  1.
         21   -1    0    0  502  504 -0.00000000000E+00 -0.00000000000E+00 -0.93586188564E+02  0.93586188564E+02  0.00000000000E+00 0.  1.
          6    2    1    2  502    0  0.45179944862E+02 -0.48898779755E+02  0.63890974773E+02  0.19504806527E+03  0.17184112729E+03 0.  0.
         24    2    3    3    0    0  0.14236413808E+02 -0.75983035414E+02  0.91798999298E+02  0.14512806074E+03  0.81602699673E+02 0.  0.
         -6    2    1    2    0  503 -0.45179944862E+02  0.48898779755E+02  0.26321344480E+03  0.31922873144E+03  0.16790874716E+03 0.  0.
        -24    2    5    5    0    0 -0.72327759543E+02  0.32495395399E+01  0.95167857756E+02  0.14292709702E+03  0.78290290609E+02 0.  0.
          4    1    4    4  501    0  0.39606460809E+02 -0.24424096920E+02  0.14358492422E+02  0.48696761215E+02  0.00000000000E+00 0. -1.
         -3    1    4    4    0  501 -0.25370047001E+02 -0.51558938494E+02  0.77440506876E+02  0.96431299528E+02  0.00000000000E+00 0.  1.
          5    1    3    3  502    0  0.30943531054E+02  0.27084255659E+02 -0.27908024525E+02  0.49920004523E+02  0.47000000000E+01 0. -1.
         11    1    6    6    0    0 -0.79195856219E+02  0.20255274104E+02  0.93967203137E+02  0.12454756134E+03  0.00000000000E+00 0. -1.
        -12    1    6    6    0    0  0.68680966754E+01 -0.17005734564E+02  0.12006546190E+01  0.18379535672E+02  0.00000000000E+00 0.  1.
         -5    1    5    5    0  503  0.27147814682E+02  0.45649240215E+02  0.16804558705E+03  0.17630163442E+03  0.47000000000E+01 0.  1.
<mgrwt>
<rscale>  2 0.18336478E+03</rscale>
<asrwt>0</asrwt>
<pdfrwt beam="1">  1       21 0.64721631E-01 0.18428698E+03</pdfrwt>
<pdfrwt beam="2">  1       21 0.14397875E-01 0.18428698E+03</pdfrwt>
<totfact> 0.93278411E+04</totfact>
</mgrwt>
</event>
<event>
12    1  0.2762290E-001  0.1769633E+03  0.7546771E-02  0.1171109E+00
         21   -1    0    0  504  503  0.00000000000E+00  0.00000000000E+00  0.10715227811E+03  0.10715227811E+03  0.00000000000E+00 0. -1.
         21   -1    0    0  502  504 -0.00000000000E+00 -0.00000000000E+00 -0.40168858929E+03  0.40168858929E+03  0.00000000000E+00 0. -1.
          6    2    1    2  502    0  0.34194745060E+02  0.11042955059E+02 -0.28180767004E+03  0.33276353634E+03  0.17327660193E+03 0.  0.
         24    2    3    3    0    0 -0.26203843856E+02  0.21210162443E+02 -0.63705732738E+02  0.10617601086E+03  0.77964174298E+02 0.  0.
         -6    2    1    2    0  503 -0.34194745060E+02 -0.11042955059E+02 -0.12728641148E+02  0.17607733106E+03  0.17190107842E+03 0.  0.
        -24    2    5    5    0    0 -0.63960250398E+02  0.17429793850E+02 -0.55500092088E+02  0.11651081569E+03  0.78101207457E+02 0.  0.
          4    1    4    4  501    0 -0.14565522328E+02  0.98834667611E+00  0.16858597536E+02  0.22301201329E+02  0.00000000000E+00 0. -1.
         -3    1    4    4    0  501 -0.11638321528E+02  0.20221815766E+02 -0.80564330273E+02  0.83874809527E+02  0.00000000000E+00 0.  1.
          5    1    3    3  502    0  0.60398588916E+02 -0.10167207383E+02 -0.21810193730E+03  0.22658752548E+03  0.47000000000E+01 0. -1.
         13    1    6    6    0    0 -0.89943208109E+01  0.30310426252E+02  0.69016664113E+01  0.32361284673E+02  0.00000000000E+00 0. -1.
        -14    1    6    6    0    0 -0.54965929587E+02 -0.12880632402E+02 -0.62401758500E+02  0.84149531016E+02  0.00000000000E+00 0.  1.
         -5    1    5    5    0  503  0.29765505338E+02 -0.28472748909E+02  0.42771450940E+02  0.59566515375E+02  0.47000000000E+01 0.  1.
<mgrwt>
<rscale>  2 0.17662567E+03</rscale>
<asrwt>0</asrwt>
<pdfrwt beam="1">  1       21 0.16484966E-01 0.17696330E+03</pdfrwt>
<pdfrwt beam="2">  1       21 0.61798245E-01 0.17696330E+03</pdfrwt>
<totfact> 0.80793790E+04</totfact>
</mgrwt>
</event>
<event>
12    1  0.2762290E-001  0.1973241E+03  0.7546771E-02  0.1152356E+00
         21   -1    0    0  504  503  0.00000000000E+00  0.00000000000E+00  0.10999851188E+04  0.10999851188E+04  0.00000000000E+00 0. -1.
         21   -1    0    0  502  504 -0.00000000000E+00 -0.00000000000E+00 -0.39650575050E+02  0.39650575050E+02  0.00000000000E+00 0.  1.
          6    2    1    2  502    0  0.88458568859E+02  0.21285606026E+02  0.33558462093E+03  0.38850372085E+03  0.17332082355E+03 0.  0.
         24    2    3    3    0    0  0.13609241513E+02 -0.40795222811E+02  0.21382334946E+03  0.23260520147E+03  0.80841161034E+02 0.  0.
         -6    2    1    2    0  503 -0.88458568859E+02 -0.21285606026E+02  0.72474992285E+03  0.75113197304E+03  0.17509653000E+03 0.  0.
        -24    2    5    5    0    0 -0.21634550431E+02 -0.25225693444E+02  0.62411011872E+03  0.63017150882E+03  0.80612039175E+02 0.  0.
          4    1    4    4  501    0 -0.49656757349E+00  0.24613855693E+02  0.60469055327E+02  0.65288552776E+02  0.00000000000E+00 0. -1.
         -3    1    4    4    0  501  0.14105809086E+02 -0.65409078505E+02  0.15335429414E+03  0.16731664870E+03  0.00000000000E+00 0.  1.
          5    1    3    3  502    0  0.74849327347E+02  0.62080828838E+02  0.12176127147E+03  0.15589851938E+03  0.47000000000E+01 0. -1.
         11    1    6    6    0    0 -0.31377059609E+02  0.21582259107E+02  0.33161197694E+03  0.33379157723E+03  0.00000000000E+00 0. -1.
        -12    1    6    6    0    0  0.97425091775E+01 -0.46807952551E+02  0.29249814177E+03  0.29637993159E+03  0.00000000000E+00 0.  1.
         -5    1    5    5    0  503 -0.66824018428E+02  0.39400874177E+01  0.10063980414E+03  0.12096046422E+03  0.47000000000E+01 0.  1.
<mgrwt>
<rscale>  2 0.19692940E+03</rscale>
<asrwt>0</asrwt>
<pdfrwt beam="1">  1       21 0.16922846E+00 0.19732407E+03</pdfrwt>
<pdfrwt beam="2">  1       21 0.61000893E-02 0.19732407E+03</pdfrwt>
<totfact> 0.41293613E+04</totfact>
</mgrwt>
</event>
<event>
12    1  0.2762290E-001  0.1761631E+03  0.7546771E-02  0.1173711E+00
         21   -1    0    0  504  503  0.00000000000E+00  0.00000000000E+00  0.70536801250E+03  0.70536801250E+03  0.00000000000E+00 0.  1.
         21   -1    0    0  502  504 -0.00000000000E+00 -0.00000000000E+00 -0.43466467621E+02  0.43466467621E+02  0.00000000000E+00 0.  1.
          6    2    1    2  502    0 -0.17740318620E+02  0.24764009817E+02  0.25272493258E+03  0.30334719561E+03  0.16498986165E+03 0.  0.
         24    2    3    3    0    0 -0.13999405201E+02  0.78991960620E+02  0.17629783266E+03  0.20944375220E+03  0.79687178054E+02 0.  0.
         -6    2    1    2    0  503  0.17740318620E+02 -0.24764009817E+02  0.40917661229E+03  0.44548728451E+03  0.17350920876E+03 0.  0.
        -24    2    5    5    0    0 -0.19856554067E+02  0.53427688103E+02  0.24078510572E+03  0.25600046189E+03  0.65650352302E+02 0.  0.
          4    1    4    4  501    0 -0.67671726205E+01  0.63089630469E+02  0.18062531279E+03  0.19144607522E+03  0.00000000000E+00 0. -1.
         -3    1    4    4    0  501 -0.72322325803E+01  0.15902330151E+02 -0.43274801283E+01  0.17997676977E+02  0.00000000000E+00 0.  1.
          5    1    3    3  502    0 -0.37409134193E+01 -0.54227950803E+02  0.76427099919E+02  0.93903443406E+02  0.47000000000E+01 0. -1.
         13    1    6    6    0    0 -0.13401272674E+02  0.24623448963E+02  0.23105953665E+02  0.36328961489E+02  0.00000000000E+00 0. -1.
        -14    1    6    6    0    0 -0.64552813934E+01  0.28804239140E+02  0.21767915205E+03  0.21967150040E+03  0.00000000000E+00 0.  1.
         -5    1    5    5    0  503  0.37596872687E+02 -0.78191697920E+02  0.16839150658E+03  0.18948682262E+03  0.47000000000E+01 0.  1.
<mgrwt>
<rscale>  2 0.17402843E+03</rscale>
<asrwt>0</asrwt>
<pdfrwt beam="1">  1       21 0.10851815E+00 0.17616305E+03</pdfrwt>
<pdfrwt beam="2">  1       21 0.66871494E-02 0.17616305E+03</pdfrwt>
<totfact> 0.11121135E+05</totfact>
</mgrwt>
</event>
<event>
12    1  0.2762290E-001  0.2015279E+03  0.7546771E-02  0.1148725E+00
         21   -1    0    0  504  503  0.00000000000E+00  0.00000000000E+00  0.63137644774E+02  0.63137644774E+02  0.00000000000E+00 0. -1.
         21   -1    0    0  502  504 -0.00000000000E+00 -0.00000000000E+00 -0.87688060565E+03  0.87688060565E+03  0.00000000000E+00 0. -1.
          6    2    1    2  502    0  0.10119304297E+03 -0.16090400503E+00 -0.65252824023E+03  0.68293968260E+03  0.17427979784E+03 0.  0.
         24    2    3    3    0    0  0.38753078792E+02  0.35951504886E+02 -0.17463467779E+03  0.19961039296E+03  0.80948912725E+02 0.  0.
         -6    2    1    2    0  503 -0.10119304297E+03  0.16090400503E+00 -0.16121472064E+03  0.25707856782E+03  0.17279799202E+03 0.  0.
        -24    2    5    5    0    0  0.19949120433E+01  0.60175855340E+01 -0.22734442870E+02  0.84217548184E+02  0.80842745622E+02 0.  0.
          2    1    4    4  501    0  0.57265243001E+02  0.13919304933E+01 -0.10979519860E+03  0.12383953796E+03  0.00000000000E+00 0. -1.
         -1    1    4    4    0  501 -0.18512164209E+02  0.34559574392E+02 -0.64839479193E+02  0.75770855003E+02  0.00000000000E+00 0.  1.
          5    1    3    3  502    0  0.62439964175E+02 -0.36112408891E+02 -0.47789356244E+03  0.48332928964E+03  0.47000000000E+01 0. -1.
         13    1    6    6    0    0  0.15010982992E+01  0.37352623396E+02 -0.34376557864E+02  0.50786016789E+02  0.00000000000E+00 0. -1.
        -14    1    6    6    0    0  0.49381374413E+00 -0.31335037862E+02  0.11642114994E+02  0.33431531395E+02  0.00000000000E+00 0.  1.
         -5    1    5    5    0  503 -0.10318795501E+03 -0.58566815289E+01 -0.13848027777E+03  0.17286101964E+03  0.47000000000E+01 0.  1.
<mgrwt>
<rscale>  2 0.20120714E+03</rscale>
<asrwt>0</asrwt>
<pdfrwt beam="1">  1       21 0.97134840E-02 0.20152793E+03</pdfrwt>
<pdfrwt beam="2">  1       21 0.13490471E+00 0.20152793E+03</pdfrwt>
<totfact> 0.33438027E+04</totfact>
</mgrwt>
</event>
<event>
12    1  0.2762290E-001  0.2491187E+03  0.7546771E-02  0.1115957E+00
         21   -1    0    0  504  503  0.00000000000E+00  0.00000000000E+00  0.19054810961E+03  0.19054810961E+03  0.00000000000E+00 0. -1.
         21   -1    0    0  502  504 -0.00000000000E+00 -0.00000000000E+00 -0.30914171273E+03  0.30914171273E+03  0.00000000000E+00 0. -1.
          6    2    1    2  502    0 -0.18972164437E+02 -0.16387716530E+03 -0.61493988189E+02  0.25659622773E+03  0.18666666861E+03 0.  0.
         24    2    3    3    0    0  0.46566662295E+02 -0.43195137102E+02 -0.59756700348E+02  0.11917498516E+03  0.81225242044E+02 0.  0.
         -6    2    1    2    0  503  0.18972164437E+02  0.16387716530E+03 -0.57099614926E+02  0.24309359460E+03  0.16916991866E+03 0.  0.
        -24    2    5    5    0    0 -0.33111690704E+02  0.98709590132E+02  0.16793906673E+02  0.13155040407E+03  0.78635273665E+02 0.  0.
          4    1    4    4  501    0  0.47256880879E+02 -0.14466363962E+02 -0.72497332217E+02  0.87740251056E+02  0.00000000000E+00 0. -1.
         -3    1    4    4    0  501 -0.69021858397E+00 -0.28728773140E+02  0.12740631870E+02  0.31434734106E+02  0.00000000000E+00 0.  1.
          5    1    3    3  502    0 -0.65538826731E+02 -0.12068202820E+03 -0.17372878417E+01  0.13742124257E+03  0.47000000000E+01 0. -1.
         13    1    6    6    0    0  0.21932036022E+01  0.42987067395E+02  0.42747135624E+02  0.60663133032E+02  0.00000000000E+00 0. -1.
        -14    1    6    6    0    0 -0.35304894306E+02  0.55722522737E+02 -0.25953228951E+02  0.70887271037E+02  0.00000000000E+00 0.  1.
         -5    1    5    5    0  503  0.52083855140E+02  0.65167575173E+02 -0.73893521599E+02  0.11154319053E+03  0.47000000000E+01 0.  1.
<mgrwt>
<rscale>  2 0.24584828E+03</rscale>
<asrwt>0</asrwt>
<pdfrwt beam="1">  1       21 0.29315094E-01 0.24911867E+03</pdfrwt>
<pdfrwt beam="2">  1       21 0.47560263E-01 0.24911867E+03</pdfrwt>
<totfact> 0.45928821E+04</totfact>
</mgrwt>
</event>
<event>
12    1  0.2762290E-001  0.1833003E+03  0.7546771E-02  0.1165471E+00
         21   -1    0    0  504  503  0.00000000000E+00  0.00000000000E+00  0.50310049687E+03  0.50310049687E+03  0.00000000000E+00 0.  1.
         21   -1    0    0  502  504 -0.00000000000E+00 -0.00000000000E+00 -0.66272327696E+02  0.66272327696E+02  0.00000000000E+00 0.  1.
          6    2    1    2  502    0 -0.19830313238E+02  0.47454455697E+02  0.18627275656E+03  0.25892632453E+03  0.17233727109E+03 0.  0.
         24    2    3    3    0    0 -0.14916109269E+02  0.92051230956E+02  0.88874947858E+02  0.15158833077E+03  0.79902104048E+02 0.  0.
         -6    2    1    2    0  503  0.19830313238E+02 -0.47454455697E+02  0.25055541261E+03  0.31044650004E+03  0.17593705667E+03 0.  0.
        -24    2    5    5    0    0 -0.27998784289E+02  0.16032218176E+02  0.67786881371E+02  0.11108600661E+03  0.81878419848E+02 0.  0.
          2    1    4    4  501    0 -0.47299407729E+02  0.51120960586E+02  0.60085993605E+02  0.91983222439E+02  0.00000000000E+00 0. -1.
         -1    1    4    4    0  501  0.32383298459E+02  0.40930270370E+02  0.28788954253E+02  0.59605108327E+02  0.00000000000E+00 0.  1.
          5    1    3    3  502    0 -0.49142039687E+01 -0.44596775259E+02  0.97397808706E+02  0.10733799376E+03  0.47000000000E+01 0. -1.
         11    1    6    6    0    0 -0.52572562993E+02  0.20513264132E+02  0.25398170469E+02  0.61884856372E+02  0.00000000000E+00 0. -1.
        -12    1    6    6    0    0  0.24573778704E+02 -0.44810459553E+01  0.42388710901E+02  0.49201150236E+02  0.00000000000E+00 0.  1.
         -5    1    5    5    0  503  0.47829097527E+02 -0.63486673873E+02  0.18276853124E+03  0.19936049343E+03  0.47000000000E+01 0.  1.
<mgrwt>
<rscale>  2 0.18243109E+03</rscale>
<asrwt>0</asrwt>
<pdfrwt beam="1">  1       21 0.77400074E-01 0.18330034E+03</pdfrwt>
<pdfrwt beam="2">  1       21 0.10195743E-01 0.18330034E+03</pdfrwt>
<totfact> 0.11658160E+05</totfact>
</mgrwt>
</event>
<event>
12    1  0.2762290E-001  0.2141702E+03  0.7546771E-02  0.1138603E+00
         21   -1    0    0  504  503  0.00000000000E+00  0.00000000000E+00  0.49137433002E+03  0.49137433002E+03  0.00000000000E+00 0. -1.
         21   -1    0    0  502  504 -0.00000000000E+00 -0.00000000000E+00 -0.97029905871E+02  0.97029905871E+02  0.00000000000E+00 0.  1.
          6    2    1    2  502    0  0.12306680468E+02  0.12473571147E+03  0.13555235084E+03  0.25346262532E+03  0.17366177045E+03 0.  0.
         24    2    3    3    0    0 -0.28907110057E+02  0.12747216711E+03  0.44019479326E+02  0.15293192709E+03  0.66073333224E+02 0.  0.
         -6    2    1    2    0  503 -0.12306680468E+02 -0.12473571147E+03  0.25879207331E+03  0.33494161057E+03  0.17176173376E+03 0.  0.
        -24    2    5    5    0    0 -0.22409917537E+02 -0.55707016561E+02  0.41859557442E+02  0.10701872326E+03  0.78072456607E+02 0.  0.
          2    1    4    4  501    0 -0.33016257354E+02  0.12714177829E+03  0.54083146833E+02  0.14205664999E+03  0.00000000000E+00 0. -1.
         -1    1    4    4    0  501  0.41091472968E+01  0.33038882656E+00 -0.10063667507E+02  0.10875277099E+02  0.00000000000E+00 0.  1.
          5    1    3    3  502    0  0.41213790525E+02 -0.27364556465E+01  0.91532871512E+02  0.10053069823E+03  0.47000000000E+01 0. -1.
         13    1    6    6    0    0 -0.25640649162E+02 -0.67588792739E+02  0.53610063485E+02  0.89998481655E+02  0.00000000000E+00 0. -1.
        -14    1    6    6    0    0  0.32307316249E+01  0.11881776178E+02 -0.11750506043E+02  0.17020241604E+02  0.00000000000E+00 0.  1.
         -5    1    5    5    0  503  0.10103237069E+02 -0.69028694906E+02  0.21693251587E+03  0.22792288731E+03  0.47000000000E+01 0.  1.
<mgrwt>
<rscale>  2 0.21378469E+03</rscale>
<asrwt>0</asrwt>
<pdfrwt beam="1">  1       21 0.75596050E-01 0.21417017E+03</pdfrwt>
<pdfrwt beam="2">  1       21 0.14927678E-01 0.21417017E+03</pdfrwt>
<totfact> 0.61201969E+04</totfact>
</mgrwt>
</event>
<event>
12    1  0.2762290E-001  0.2307285E+03  0.7546771E-02  0.1126455E+00
         21   -1    0    0  504  503  0.00000000000E+00  0.00000000000E+00  0.35689146835E+03  0.35689146835E+03  0.00000000000E+00 0. -1.
         21   -1    0    0  502  504 -0.00000000000E+00 -0.00000000000E+00 -0.30013463736E+03  0.30013463736E+03  0.00000000000E+00 0. -1.
          6    2    1    2  502    0 -0.54028844848E+02 -0.14267684362E+03 -0.20547765183E+03  0.30896065797E+03  0.17308906664E+03 0.  0.
         24    2    3    3    0    0  0.77305511247E+01 -0.21406170232E+02 -0.46026435426E+02  0.99276181605E+02  0.84966710725E+02 0.  0.
         -6    2    1    2    0  503  0.54028844848E+02  0.14267684362E+03  0.26223448282E+03  0.34806544775E+03  0.17060725118E+03 0.  0.
        -24    2    5    5    0    0  0.94660705366E+02  0.66604044101E+02  0.17708402392E+03  0.22677773375E+03  0.81686236093E+02 0.  0.
          4    1    4    4  501    0 -0.21532691364E+01  0.21767019578E+02 -0.50231142271E+02  0.54786926936E+02  0.00000000000E+00 0. -1.
         -3    1    4    4    0  501  0.98838202610E+01 -0.43173189811E+02  0.42047068448E+01  0.44489254669E+02  0.00000000000E+00 0.  1.
          5    1    3    3  502    0 -0.61759395973E+02 -0.12127067339E+03 -0.15945121640E+03  0.20968447636E+03  0.47000000000E+01 0. -1.
         11    1    6    6    0    0  0.24634830659E+02  0.55611496885E+02  0.41038379534E+02  0.73373442485E+02  0.00000000000E+00 0. -1.
        -12    1    6    6    0    0  0.70025874707E+02  0.10992547216E+02  0.13604564438E+03  0.15340429126E+03  0.00000000000E+00 0.  1.
         -5    1    5    5    0  503 -0.40631860517E+02  0.76072799520E+02  0.85150458902E+02  0.12128771400E+03  0.47000000000E+01 0.  1.
<mgrwt>
<rscale>  2 0.23026307E+03</rscale>
<asrwt>0</asrwt>
<pdfrwt beam="1">  1       21 0.54906380E-01 0.23072846E+03</pdfrwt>
<pdfrwt beam="2">  1       21 0.46174559E-01 0.23072846E+03</pdfrwt>
<totfact> 0.13743331E+04</totfact>
</mgrwt>
</event>
<event>
12    1  0.2762290E-001  0.2100127E+03  0.7546771E-02  0.1141882E+00
         21   -1    0    0  504  503  0.00000000000E+00  0.00000000000E+00  0.13640223797E+03  0.13640223797E+03  0.00000000000E+00 0.  1.
         21   -1    0    0  502  504 -0.00000000000E+00 -0.00000000000E+00 -0.70755558400E+03  0.70755558400E+03  0.00000000000E+00 0.  1.
          6    2    1    2  502    0 -0.88955081715E+02 -0.78397960631E+02 -0.59703785097E+03  0.63235597953E+03  0.17134947494E+03 0.  0.
         24    2    3    3    0    0 -0.52194981450E+02  0.23049664491E+02 -0.34090372900E+03  0.35438169285E+03  0.78201206281E+02 0.  0.
         -6    2    1    2    0  503  0.88955081715E+02  0.78397960631E+02  0.25884504936E+02  0.21160184244E+03  0.17333806661E+03 0.  0.
        -24    2    5    5    0    0  0.71192387369E+02 -0.21980602068E+02  0.80156491671E+01  0.10800283102E+03  0.77774404474E+02 0.  0.
          4    1    4    4  501    0 -0.44450794852E+02  0.50631801848E+02 -0.21751935608E+03  0.22771500343E+03  0.00000000000E+00 0. -1.
         -3    1    4    4    0  501 -0.77441865977E+01 -0.27582137357E+02 -0.12338437292E+03  0.12666668942E+03  0.00000000000E+00 0.  1.
          5    1    3    3  502    0 -0.36760100265E+02 -0.10144762512E+03 -0.25613412197E+03  0.27797428668E+03  0.47000000000E+01 0. -1.
         11    1    6    6    0    0  0.62872600661E+02  0.90991841748E+01 -0.18656855976E+02  0.66210553097E+02  0.00000000000E+00 0. -1.
        -12    1    6    6    0    0  0.83197867082E+01 -0.31079786243E+02  0.26672505143E+02  0.41792277928E+02  0.00000000000E+00 0.  1.
         -5    1    5    5    0  503  0.17762694346E+02  0.10037856270E+03  0.17868855769E+02  0.10359901142E+03  0.47000000000E+01 0.  1.
<mgrwt>
<rscale>  2 0.20960192E+03</rscale>
<asrwt>0</asrwt>
<pdfrwt beam="1">  1       21 0.20984960E-01 0.21001270E+03</pdfrwt>
<pdfrwt beam="2">  1       21 0.10885470E+00 0.21001270E+03</pdfrwt>
<totfact> 0.13969426E+04</totfact>
</mgrwt>
</event>
<event>
12    1  0.2762290E-001  0.2709682E+03  0.7546771E-02  0.1100924E+00
         21   -1    0    0  504  503  0.00000000000E+00  0.00000000000E+00  0.91960730812E+03  0.91960730812E+03  0.00000000000E+00 0.  1.
         21   -1    0    0  502  504 -0.00000000000E+00 -0.00000000000E+00 -0.79488135245E+02  0.79488135245E+02  0.00000000000E+00 0.  1.
          6    2    1    2  502    0  0.13196013724E+03 -0.16241613904E+03  0.40834301564E+03  0.49006917615E+03  0.17213744203E+03 0.  0.
         24    2    3    3    0    0  0.13445351602E+03 -0.11915969794E+03  0.21384791266E+03  0.29075090876E+03  0.80798388658E+02 0.  0.
         -6    2    1    2    0  503 -0.13196013724E+03  0.16241613904E+03  0.43177615724E+03  0.50902626722E+03  0.16995473138E+03 0.  0.
        -24    2    5    5    0    0 -0.11444369032E+03  0.18972469911E+03  0.39333679138E+03  0.45850638784E+03  0.80133991094E+02 0.  0.
          4    1    4    4  501    0  0.10199734965E+02  0.90820306326E+01  0.21891890307E+01  0.13831501089E+02  0.00000000000E+00 0. -1.
         -3    1    4    4    0  501  0.12425378105E+03 -0.12824172857E+03  0.21165872363E+03  0.27691940767E+03  0.00000000000E+00 0.  1.
          5    1    3    3  502    0 -0.24933787795E+01 -0.43256441104E+02  0.19449510297E+03  0.19931826739E+03  0.47000000000E+01 0. -1.
         11    1    6    6    0    0  0.29102341886E+01  0.42487347662E+02  0.41531325589E+02  0.59485251782E+02  0.00000000000E+00 0. -1.
        -12    1    6    6    0    0 -0.11735392450E+03  0.14723735145E+03  0.35180546580E+03  0.39902113606E+03  0.00000000000E+00 0.  1.
         -5    1    5    5    0  503 -0.17516446920E+02 -0.27308560063E+02  0.38439365859E+02  0.50519879385E+02  0.47000000000E+01 0.  1.
<mgrwt>
<rscale>  2 0.27062223E+03</rscale>
<asrwt>0</asrwt>
<pdfrwt beam="1">  1       21 0.14147804E+00 0.27096823E+03</pdfrwt>
<pdfrwt beam="2">  1       21 0.12228944E-01 0.27096823E+03</pdfrwt>
<totfact> 0.18876114E+04</totfact>
</mgrwt>
</event>
<event>
12    1  0.2762290E-001  0.2559329E+03  0.7546771E-02  0.1109747E+00
         21   -1    0    0  504  503  0.00000000000E+00  0.00000000000E+00  0.35270605179E+03  0.35270605179E+03  0.00000000000E+00 0.  1.
         21   -1    0    0  502  504 -0.00000000000E+00 -0.00000000000E+00 -0.21281111489E+03  0.21281111489E+03  0.00000000000E+00 0.  1.
          6    2    1    2  502    0  0.21837789090E+02 -0.18572407379E+03 -0.32027214615E+02  0.25792899998E+03  0.17473209762E+03 0.  0.
         24    2    3    3    0    0  0.32153717150E+02 -0.19526858152E+03  0.79658218615E+01  0.21527868971E+03  0.84366933518E+02 0.  0.
         -6    2    1    2    0  503 -0.21837789090E+02  0.18572407379E+03  0.17192215151E+03  0.30758816670E+03  0.17344432390E+03 0.  0.
        -24    2    5    5    0    0 -0.38895690828E+02  0.86896389222E+02  0.16521767232E+03  0.20696548888E+03  0.80461028556E+02 0.  0.
          4    1    4    4  501    0  0.54433018913E+02 -0.12701178357E+03  0.27442654369E+02  0.14088309335E+03  0.00000000000E+00 0. -1.
         -3    1    4    4    0  501 -0.22279301763E+02 -0.68256797948E+02 -0.19476832507E+02  0.74395596360E+02  0.00000000000E+00 0.  1.
          5    1    3    3  502    0 -0.10315928059E+02  0.95445077281E+01 -0.39993036476E+02  0.42650310270E+02  0.47000000000E+01 0. -1.
         13    1    6    6    0    0 -0.18134694811E+02 -0.10143290307E+02  0.54275403117E+02  0.58116889779E+02  0.00000000000E+00 0. -1.
        -14    1    6    6    0    0 -0.20760996017E+02  0.97039679529E+02  0.11094226921E+03  0.14884859910E+03  0.00000000000E+00 0.  1.
         -5    1    5    5    0  503  0.17057901737E+02  0.98827684571E+02  0.67044791862E+01  0.10062267781E+03  0.47000000000E+01 0.  1.
<mgrwt>
<rscale>  2 0.25571321E+03</rscale>
<asrwt>0</asrwt>
<pdfrwt beam="1">  1       21 0.54262469E-01 0.25593286E+03</pdfrwt>
<pdfrwt beam="2">  1       21 0.32740172E-01 0.25593286E+03</pdfrwt>
<totfact> 0.27916893E+04</totfact>
</mgrwt>
</event>
<event>
12    1  0.2762290E-001  0.2579587E+03  0.7546771E-02  0.1108486E+00
         21   -1    0    0  504  503  0.00000000000E+00  0.00000000000E+00  0.23148648089E+02  0.23148648089E+02  0.00000000000E+00 0. -1.
         21   -1    0    0  502  504 -0.00000000000E+00 -0.00000000000E+00 -0.30005055422E+04  0.30005055422E+04  0.00000000000E+00 0.  1.
          6    2    1    2  502    0  0.18313844858E+03 -0.55429768439E+02 -0.11672277558E+04  0.11952367963E+04  0.17192502630E+03 0.  0.
         24    2    3    3    0    0  0.14783177894E+03  0.13433695697E+02 -0.94380263885E+03  0.95874237668E+03  0.79930123821E+02 0.  0.
         -6    2    1    2    0  503 -0.18313844858E+03  0.55429768439E+02 -0.18101291383E+04  0.18284173940E+04  0.17300438957E+03 0.  0.
        -24    2    5    5    0    0 -0.93769785811E+02  0.83959749125E+01 -0.52422597972E+03  0.53854609854E+03  0.79723003689E+02 0.  0.
          4    1    4    4  501    0  0.13910997893E+03  0.24174283886E+02 -0.67628181859E+03  0.69086401006E+03  0.00000000000E+00 0. -1.
         -3    1    4    4    0  501  0.87218000086E+01 -0.10740588190E+02 -0.26752082026E+03  0.26787836662E+03  0.00000000000E+00 0.  1.
          5    1    3    3  502    0  0.35306669647E+02 -0.68863464136E+02 -0.22342511696E+03  0.23649441960E+03  0.47000000000E+01 0. -1.
         11    1    6    6    0    0 -0.36330971194E+02  0.16404905993E+02 -0.69370038909E+02  0.80007891528E+02  0.00000000000E+00 0. -1.
        -12    1    6    6    0    0 -0.57438814616E+02 -0.80089310802E+01 -0.45485594081E+03  0.45853820701E+03  0.00000000000E+00 0.  1.
         -5    1    5    5    0  503 -0.89368662771E+02  0.47033793527E+02 -0.12859031585E+04  0.12898712954E+04  0.47000000000E+01 0.  1.
<mgrwt>
<rscale>  2 0.25777781E+03</rscale>
<asrwt>0</asrwt>
<pdfrwt beam="1">  1       21 0.35613296E-02 0.25795866E+03</pdfrwt>
<pdfrwt beam="2">  1       21 0.46161635E+00 0.25795866E+03</pdfrwt>
<totfact> 0.15186397E+03</totfact>
</mgrwt>
</event>
<event>
12    1  0.2762290E-001  0.1874874E+03  0.7546771E-02  0.1161404E+00
         21   -1    0    0  504  503  0.00000000000E+00  0.00000000000E+00  0.24941565184E+03  0.24941565184E+03  0.00000000000E+00 0. -1.
         21   -1    0    0  502  504 -0.00000000000E+00 -0.00000000000E+00 -0.16755613193E+03  0.16755613193E+03  0.00000000000E+00 0. -1.
          6    2    1    2  502    0 -0.26074254680E+02 -0.65024225134E+02 -0.45164491009E+02  0.19285059491E+03  0.17390659590E+03 0.  0.
         24    2    3    3    0    0  0.47732433014E+02 -0.60087838868E+02 -0.12381766754E+02  0.11180374384E+03  0.80360658583E+02 0.  0.
         -6    2    1    2    0  503  0.26074254680E+02  0.65024225134E+02  0.12702401091E+03  0.22412118886E+03  0.17084259228E+03 0.  0.
        -24    2    5    5    0    0  0.79727188238E+02  0.10430330505E+02  0.58341160058E+02  0.12117190712E+03  0.69381004455E+02 0.  0.
          2    1    4    4  501    0 -0.13221688020E+01 -0.60713665718E+02  0.17403296459E+01  0.60752992376E+02  0.00000000000E+00 0. -1.
         -1    1    4    4    0  501  0.49054601816E+02  0.62582685046E+00 -0.14122096400E+02  0.51050751467E+02  0.00000000000E+00 0.  1.
          5    1    3    3  502    0 -0.73806687694E+02 -0.49363862660E+01 -0.32782724255E+02  0.81046851064E+02  0.47000000000E+01 0. -1.
         13    1    6    6    0    0  0.72588788837E+02  0.34468675893E+02  0.50461241214E+02  0.94887084197E+02  0.00000000000E+00 0. -1.
        -14    1    6    6    0    0  0.71383994009E+01 -0.24038345389E+02  0.78799188449E+01  0.26284822922E+02  0.00000000000E+00 0.  1.
         -5    1    5    5    0  503 -0.53652933558E+02  0.54593894629E+02  0.68682850854E+02  0.10294928174E+03  0.47000000000E+01 0.  1.
<mgrwt>
<rscale>  2 0.18677370E+03</rscale>
<asrwt>0</asrwt>
<pdfrwt beam="1">  1       21 0.38371639E-01 0.18748739E+03</pdfrwt>
<pdfrwt beam="2">  1       21 0.25777866E-01 0.18748739E+03</pdfrwt>
<totfact> 0.93743201E+04</totfact>
</mgrwt>
</event>
<event>
12    1  0.2762290E-001  0.2629876E+03  0.7546771E-02  0.1105496E+00
         21   -1    0    0  504  503  0.00000000000E+00  0.00000000000E+00  0.19613828237E+03  0.19613828237E+03  0.00000000000E+00 0. -1.
         21   -1    0    0  502  504 -0.00000000000E+00 -0.00000000000E+00 -0.35805214340E+03  0.35805214340E+03  0.00000000000E+00 0.  1.
          6    2    1    2  502    0  0.11715027461E+02  0.19809996222E+03 -0.11856433672E+03  0.28765403832E+03  0.17119143355E+03 0.  0.
         24    2    3    3    0    0  0.45576490286E+02  0.42107629460E+02 -0.58445389696E+02  0.11701821460E+03  0.80169383474E+02 0.  0.
         -6    2    1    2    0  503 -0.11715027461E+02 -0.19809996222E+03 -0.43349524307E+02  0.26653638745E+03  0.17257354280E+03 0.  0.
        -24    2    5    5    0    0 -0.23525625321E+02 -0.21031941051E+03 -0.68488738110E+01  0.22600007503E+03  0.79002641447E+02 0.  0.
          2    1    4    4  501    0  0.49538020981E+01  0.13846292104E+02  0.19662424077E+02  0.24553429105E+02  0.00000000000E+00 0. -1.
         -1    1    4    4    0  501  0.40622688188E+02  0.28261337356E+02 -0.78107813773E+02  0.92464785497E+02  0.00000000000E+00 0.  1.
          5    1    3    3  502    0 -0.33861462825E+02  0.15599233276E+03 -0.60118947021E+02  0.17063582372E+03  0.47000000000E+01 0. -1.
         13    1    6    6    0    0 -0.90166986552E+01 -0.49807005080E+02  0.32431861109E+02  0.60115424183E+02  0.00000000000E+00 0. -1.
        -14    1    6    6    0    0 -0.14508926666E+02 -0.16051240543E+03 -0.39280734920E+02  0.16588465084E+03  0.00000000000E+00 0.  1.
         -5    1    5    5    0  503  0.11810597861E+02  0.12219448284E+02 -0.36500650496E+02  0.40536312422E+02  0.47000000000E+01 0.  1.
<mgrwt>
<rscale>  2 0.26276106E+03</rscale>
<asrwt>0</asrwt>
<pdfrwt beam="1">  1       21 0.30175121E-01 0.26298757E+03</pdfrwt>
<pdfrwt beam="2">  1       21 0.55084945E-01 0.26298757E+03</pdfrwt>
<totfact> 0.31664468E+04</totfact>
</mgrwt>
</event>
<event>
12    1  0.2762290E-001  0.1761307E+03  0.7546771E-02  0.1172266E+00
         21   -1    0    0  504  503  0.00000000000E+00  0.00000000000E+00  0.12728186431E+03  0.12728186431E+03  0.00000000000E+00 0. -1.
         21   -1    0    0  502  504 -0.00000000000E+00 -0.00000000000E+00 -0.37337790779E+03  0.37337790779E+03  0.00000000000E+00 0. -1.
          6    2    1    2  502    0  0.15397816415E+02 -0.16165250788E+02 -0.27202019121E+03  0.32263144014E+03  0.17203968628E+03 0.  0.
         24    2    3    3    0    0  0.26242050384E+02 -0.35041631362E+02 -0.28321947777E+03  0.29770295897E+03  0.80605322755E+02 0.  0.
         -6    2    1    2    0  503 -0.15397816415E+02  0.16165250788E+02  0.25924147734E+02  0.17802833196E+03  0.17471009548E+03 0.  0.
        -24    2    5    5    0    0 -0.40203265060E+02 -0.33956978763E+02 -0.32013972644E+02  0.97365676593E+02  0.75404254560E+02 0.  0.
          4    1    4    4  501    0  0.32072434130E+02  0.18728800117E+02 -0.10032855973E+03  0.10698237650E+03  0.00000000000E+00 0. -1.
         -3    1    4    4    0  501 -0.58303837455E+01 -0.53770431480E+02 -0.18289091804E+03  0.19072058247E+03  0.00000000000E+00 0.  1.
          5    1    3    3  502    0 -0.10844233969E+02  0.18876380574E+02  0.11199286556E+02  0.24928481168E+02  0.47000000000E+01 0. -1.
         13    1    6    6    0    0 -0.62382973567E+02 -0.25453167630E+02 -0.29251032237E+02  0.73451494338E+02  0.00000000000E+00 0. -1.
        -14    1    6    6    0    0  0.22179708507E+02 -0.85038111331E+01 -0.27629404073E+01  0.23914182256E+02  0.00000000000E+00 0.  1.
         -5    1    5    5    0  503  0.24805448645E+02  0.50122229552E+02  0.57938120378E+02  0.80662655366E+02  0.47000000000E+01 0.  1.
<mgrwt>
<rscale>  2 0.17546480E+03</rscale>
<asrwt>0</asrwt>
<pdfrwt beam="1">  1       21 0.19581826E-01 0.17613071E+03</pdfrwt>
<pdfrwt beam="2">  1       21 0.57442753E-01 0.17613071E+03</pdfrwt>
<totfact> 0.68787206E+04</totfact>
</mgrwt>
</event>
<event>
12    1  0.2762290E-001  0.2340860E+03  0.7546771E-02  0.1124035E+00
         21   -1    0    0  504  503  0.00000000000E+00  0.00000000000E+00  0.45543717187E+03  0.45543717187E+03  0.00000000000E+00 0.  1.
         21   -1    0    0  502  504 -0.00000000000E+00 -0.00000000000E+00 -0.18725899749E+03  0.18725899749E+03  0.00000000000E+00 0. -1.
          6    2    1    2  502    0  0.14037711125E+03  0.68602718498E+02 -0.58807892136E+02  0.24135996100E+03  0.17431063148E+03 0.  0.
         24    2    3    3    0    0  0.30226729855E+02  0.54331384699E+02 -0.80539020050E+02  0.12808547397E+03  0.77806171545E+02 0.  0.
         -6    2    1    2    0  503 -0.14037711125E+03 -0.68602718498E+02  0.32698606651E+03  0.40133620837E+03  0.17244940737E+03 0.  0.
        -24    2    5    5    0    0 -0.13747572669E+03 -0.24629168416E+01  0.17615398701E+03  0.23654756311E+03  0.77581448101E+02 0.  0.
          2    1    4    4  501    0  0.39170648164E+02  0.70194582160E+02 -0.72230625745E+02  0.10806887775E+03  0.00000000000E+00 0. -1.
         -1    1    4    4    0  501 -0.89439183093E+01 -0.15863197461E+02 -0.83083943050E+01  0.20016596222E+02  0.00000000000E+00 0.  1.
          5    1    3    3  502    0  0.11015038140E+03  0.14271333799E+02  0.21731127914E+02  0.11327448702E+03  0.47000000000E+01 0. -1.
         13    1    6    6    0    0 -0.10827766820E+03  0.33191260823E+01  0.17613611906E+03  0.20678250039E+03  0.00000000000E+00 0. -1.
        -14    1    6    6    0    0 -0.29198058484E+02 -0.57820429238E+01  0.17867942677E-01  0.29765062722E+02  0.00000000000E+00 0.  1.
         -5    1    5    5    0  503 -0.29013845650E+01 -0.66139801656E+02  0.15083207951E+03  0.16478864525E+03  0.47000000000E+01 0.  1.
<mgrwt>
<rscale>  2 0.23373959E+03</rscale>
<asrwt>0</asrwt>
<pdfrwt beam="1">  1       21 0.70067257E-01 0.23408602E+03</pdfrwt>
<pdfrwt beam="2">  1       21 0.28809077E-01 0.23408602E+03</pdfrwt>
<totfact> 0.20824919E+04</totfact>
</mgrwt>
</event>
<event>
12    1  0.2762290E-001  0.2602175E+03  0.7546771E-02  0.1107207E+00
         21   -1    0    0  504  503  0.00000000000E+00  0.00000000000E+00  0.88347352044E+03  0.88347352044E+03  0.00000000000E+00 0. -1.
         21   -1    0    0  502  504 -0.00000000000E+00 -0.00000000000E+00 -0.78526477193E+02  0.78526477193E+02  0.00000000000E+00 0. -1.
          6    2    1    2  502    0  0.15624294570E+03  0.11563292312E+03  0.31985636479E+03  0.41152190408E+03  0.17105365372E+03 0.  0.
         24    2    3    3    0    0  0.77252316400E+02  0.13170543942E+03  0.25593969976E+03  0.30853998641E+03  0.79859565131E+02 0.  0.
         -6    2    1    2    0  503 -0.15624294570E+03 -0.11563292312E+03  0.48509067846E+03  0.55047809356E+03  0.17300385593E+03 0.  0.
        -24    2    5    5    0    0 -0.17218308054E+03 -0.12604540741E+03  0.38138145238E+03  0.44493094152E+03  0.83530069750E+02 0.  0.
          2    1    4    4  501    0  0.80978818657E+02  0.63463271757E+02  0.13652559086E+03  0.17095143431E+03  0.00000000000E+00 0. -1.
         -1    1    4    4    0  501 -0.37265022574E+01  0.68242167661E+02  0.11941410889E+03  0.13758855210E+03  0.00000000000E+00 0.  1.
          5    1    3    3  502    0  0.78990629299E+02 -0.16072516302E+02  0.63916665031E+02  0.10298191766E+03  0.47000000000E+01 0. -1.
         11    1    6    6    0    0 -0.36567806752E+02 -0.33281880129E+02  0.17091708182E+03  0.17792564991E+03  0.00000000000E+00 0. -1.
        -12    1    6    6    0    0 -0.13561527379E+03 -0.92763527278E+02  0.21046437056E+03  0.26700529162E+03  0.00000000000E+00 0.  1.
         -5    1    5    5    0  503  0.15940134841E+02  0.10412484292E+02  0.10370922608E+03  0.10554715203E+03  0.47000000000E+01 0.  1.
<mgrwt>
<rscale>  2 0.25989381E+03</rscale>
<asrwt>0</asrwt>
<pdfrwt beam="1">  1       21 0.13591900E+00 0.26021753E+03</pdfrwt>
<pdfrwt beam="2">  1       21 0.12080997E-01 0.26021753E+03</pdfrwt>
<totfact> 0.21534267E+04</totfact>
</mgrwt>
</event>
<event>
12    1  0.2762290E-001  0.2419004E+03  0.7546771E-02  0.1118713E+00
         21   -1    0    0  504  503  0.00000000000E+00  0.00000000000E+00  0.46755731935E+03  0.46755731935E+03  0.00000000000E+00 0.  1.
         21   -1    0    0  502  504 -0.00000000000E+00 -0.00000000000E+00 -0.24005523117E+03  0.24005523117E+03  0.00000000000E+00 0.  1.
          6    2    1    2  502    0 -0.56520823089E+02  0.15791185083E+03  0.35926012518E+03  0.43310926100E+03  0.17431304696E+03 0.  0.
         24    2    3    3    0    0 -0.97542252879E+02  0.14291981808E+03  0.24248881225E+03  0.30834889761E+03  0.79609378178E+02 0.  0.
         -6    2    1    2    0  503  0.56520823089E+02 -0.15791185083E+03 -0.13175803700E+03  0.27450328953E+03  0.17280370242E+03 0.  0.
        -24    2    5    5    0    0  0.42033186426E+02 -0.12999863472E+03 -0.19945263292E+02  0.15825688909E+03  0.77336896928E+02 0.  0.
          2    1    4    4  501    0 -0.33894615863E+02  0.10137295219E+03  0.97652939902E+02  0.14478058258E+03  0.00000000000E+00 0. -1.
         -1    1    4    4    0  501 -0.63647637016E+02  0.41546865890E+02  0.14483587235E+03  0.16356831503E+03  0.00000000000E+00 0.  1.
          5    1    3    3  502    0  0.41021429790E+02  0.14992032745E+02  0.11677131293E+03  0.12476036338E+03  0.47000000000E+01 0. -1.
         11    1    6    6    0    0  0.80000303808E+01  0.33265391307E+01 -0.18745937001E+02  0.20651307531E+02  0.00000000000E+00 0. -1.
        -12    1    6    6    0    0  0.34033156045E+02 -0.13332517385E+03 -0.11993262908E+01  0.13760558156E+03  0.00000000000E+00 0.  1.
         -5    1    5    5    0  503  0.14487636663E+02 -0.27913216112E+02 -0.11181277371E+03  0.11624640044E+03  0.47000000000E+01 0.  1.
<mgrwt>
<rscale>  2 0.24162858E+03</rscale>
<asrwt>0</asrwt>
<pdfrwt beam="1">  1       21 0.71931895E-01 0.24190038E+03</pdfrwt>
<pdfrwt beam="2">  1       21 0.36931574E-01 0.24190038E+03</pdfrwt>
<totfact> 0.11967785E+04</totfact>
</mgrwt>
</event>
<event>
12    1  0.2762290E-001  0.1875659E+03  0.7546771E-02  0.1161041E+00
         21   -1    0    0  504  503  0.00000000000E+00  0.00000000000E+00  0.59659131563E+03  0.59659131563E+03  0.00000000000E+00 0.  1.
         21   -1    0    0  502  504 -0.00000000000E+00 -0.00000000000E+00 -0.79482041672E+02  0.79482041672E+02  0.00000000000E+00 0.  1.
          6    2    1    2  502    0 -0.70827138217E+02 -0.12214807155E+02  0.85566911466E+02  0.20616174341E+03  0.17324919360E+03 0.  0.
         24    2    3    3    0    0 -0.81709260831E+02 -0.66513583721E+02  0.54554712938E+02  0.14251722921E+03  0.78958747418E+02 0.  0.
         -6    2    1    2    0  503  0.70827138217E+02  0.12214807155E+02  0.43154236249E+03  0.46991161390E+03  0.17152967448E+03 0.  0.
        -24    2    5    5    0    0  0.31654111466E+02  0.72003432654E+02  0.22215421383E+03  0.24860934874E+03  0.79168405766E+02 0.  0.
          2    1    4    4  501    0  0.79885424462E+00 -0.46456350183E+02  0.23834561798E+02  0.52219890622E+02  0.00000000000E+00 0. -1.
         -1    1    4    4    0  501 -0.82508115076E+02 -0.20057233537E+02  0.30720151140E+02  0.90297338591E+02  0.00000000000E+00 0.  1.
          5    1    3    3  502    0  0.10882122614E+02  0.54298776566E+02  0.31012198529E+02  0.63644514192E+02  0.47000000000E+01 0. -1.
         13    1    6    6    0    0 -0.21463171015E+02 -0.82623989663E-01  0.33541453530E+02  0.39820894536E+02  0.00000000000E+00 0. -1.
        -14    1    6    6    0    0  0.53117282481E+02  0.72086056644E+02  0.18861276030E+03  0.20878845421E+03  0.00000000000E+00 0.  1.
         -5    1    5    5    0  503  0.39173026752E+02 -0.59788625499E+02  0.20938814866E+03  0.22130226516E+03  0.47000000000E+01 0.  1.
<mgrwt>
<rscale>  2 0.18716786E+03</rscale>
<asrwt>0</asrwt>
<pdfrwt beam="1">  1       21 0.91783277E-01 0.18756590E+03</pdfrwt>
<pdfrwt beam="2">  1       21 0.12228007E-01 0.18756590E+03</pdfrwt>
<totfact> 0.57093173E+04</totfact>
</mgrwt>
</event>
<event>
12    1  0.2762290E-001  0.2192145E+03  0.7546771E-02  0.1135006E+00
         21   -1    0    0  504  503  0.00000000000E+00  0.00000000000E+00  0.63377891971E+02  0.63377891971E+02  0.00000000000E+00 0. -1.
         21   -1    0    0  502  504 -0.00000000000E+00 -0.00000000000E+00 -0.96222287866E+03  0.96222287866E+03  0.00000000000E+00 0. -1.
          6    2    1    2  502    0 -0.12244390782E+03 -0.61153384425E+02 -0.69341812410E+03  0.72724389718E+03  0.17123885120E+03 0.  0.
         24    2    3    3    0    0 -0.69780170049E+02  0.88461431904E+01 -0.53939177405E+03  0.54998812251E+03  0.81215285568E+02 0.  0.
         -6    2    1    2    0  503  0.12244390782E+03  0.61153384425E+02 -0.20542686258E+03  0.29835687345E+03  0.16758395231E+03 0.  0.
        -24    2    5    5    0    0  0.15318602731E+03  0.66085493700E+02 -0.17142305721E+03  0.25201302389E+03  0.79318649926E+02 0.  0.
          2    1    4    4  501    0 -0.16426309380E+02  0.26113647418E+02 -0.37555001256E+03  0.37681501848E+03  0.00000000000E+00 0. -1.
         -1    1    4    4    0  501 -0.53353860669E+02 -0.17267504227E+02 -0.16384176149E+03  0.17317310403E+03  0.00000000000E+00 0.  1.
          5    1    3    3  502    0 -0.52663737775E+02 -0.69999527615E+02 -0.15402635006E+03  0.17725577467E+03  0.47000000000E+01 0. -1.
         11    1    6    6    0    0  0.11169433894E+03  0.82133325772E+02 -0.11478166872E+03  0.17998983313E+03  0.00000000000E+00 0. -1.
        -12    1    6    6    0    0  0.41491688363E+02 -0.16047832072E+02 -0.56641388490E+02  0.72023190762E+02  0.00000000000E+00 0.  1.
         -5    1    5    5    0  503 -0.30742119483E+02 -0.49321092757E+01 -0.34003805371E+02  0.46343849558E+02  0.47000000000E+01 0.  1.
<mgrwt>
<rscale>  2 0.21850026E+03</rscale>
<asrwt>0</asrwt>
<pdfrwt beam="1">  1       21 0.97504450E-02 0.21921449E+03</pdfrwt>
<pdfrwt beam="2">  1       21 0.14803429E+00 0.21921449E+03</pdfrwt>
<totfact> 0.25824370E+04</totfact>
</mgrwt>
</event>
<event>
12    1  0.2762290E-001  0.2054259E+03  0.7546771E-02  0.1145824E+00
         21   -1    0    0  504  503  0.00000000000E+00  0.00000000000E+00  0.41088420792E+02  0.41088420792E+02  0.00000000000E+00 0. -1.
         21   -1    0    0  502  504 -0.00000000000E+00 -0.00000000000E+00 -0.11162512600E+04  0.11162512600E+04  0.00000000000E+00 0. -1.
          6    2    1    2  502    0 -0.11125162426E+03 -0.11426854881E+02 -0.36489418420E+03  0.41874521249E+03  0.17231451015E+03 0.  0.
         24    2    3    3    0    0 -0.97620302183E+02 -0.50484136617E+02 -0.16184766073E+03  0.21147421864E+03  0.80301360005E+02 0.  0.
         -6    2    1    2    0  503  0.11125162426E+03  0.11426854881E+02 -0.71026865503E+03  0.73859446832E+03  0.16891633847E+03 0.  0.
        -24    2    5    5    0    0  0.42748436993E+02 -0.12115302397E+02 -0.59591717408E+03  0.60314975255E+03  0.81842142068E+02 0.  0.
          2    1    4    4  501    0 -0.10136857181E+03 -0.33668614576E+02 -0.96687931758E+02  0.14407539383E+03  0.00000000000E+00 0. -1.
         -1    1    4    4    0  501  0.37482696304E+01 -0.16815522040E+02 -0.65159728973E+02  0.67398824816E+02  0.00000000000E+00 0.  1.
          5    1    3    3  502    0 -0.13631322077E+02  0.39057281735E+02 -0.20304652347E+03  0.20727099385E+03  0.47000000000E+01 0. -1.
         13    1    6    6    0    0  0.58045481083E+02 -0.79885256987E+01 -0.56828418679E+03  0.57129678047E+03  0.00000000000E+00 0. -1.
        -14    1    6    6    0    0 -0.15297044090E+02 -0.41267766987E+01 -0.27632987291E+02  0.31852972082E+02  0.00000000000E+00 0.  1.
         -5    1    5    5    0  503  0.68503187268E+02  0.23542157279E+02 -0.11435148095E+03  0.13544471577E+03  0.47000000000E+01 0.  1.
<mgrwt>
<rscale>  2 0.20471165E+03</rscale>
<asrwt>0</asrwt>
<pdfrwt beam="1">  1       21 0.63212960E-02 0.20542587E+03</pdfrwt>
<pdfrwt beam="2">  1       21 0.17173095E+00 0.20542587E+03</pdfrwt>
<totfact> 0.37113511E+04</totfact>
</mgrwt>
</event>
<event>
12    1  0.2762290E-001  0.2388161E+03  0.7546771E-02  0.1120596E+00
         21   -1    0    0  504  503  0.00000000000E+00  0.00000000000E+00  0.18387411452E+03  0.18387411452E+03  0.00000000000E+00 0.  1.
         21   -1    0    0  502  504 -0.00000000000E+00 -0.00000000000E+00 -0.33668117057E+03  0.33668117057E+03  0.00000000000E+00 0. -1.
          6    2    1    2  502    0 -0.10805266396E+03 -0.12433829620E+03 -0.14954860082E+03  0.28171692522E+03  0.17281276532E+03 0.  0.
         24    2    3    3    0    0 -0.29875928038E+02 -0.89108316079E+02 -0.18854390215E+02  0.12533335759E+03  0.80747132605E+02 0.  0.
         -6    2    1    2    0  503  0.10805266396E+03  0.12433829620E+03 -0.32584552297E+01  0.23883835987E+03  0.17290967157E+03 0.  0.
        -24    2    5    5    0    0  0.65164625912E+02  0.15145050166E+03 -0.21741970866E+02  0.18463332465E+03  0.80206410899E+02 0.  0.
          4    1    4    4  501    0 -0.54529920294E+02 -0.35979474099E+02 -0.93024288355E+01  0.65989165368E+02  0.00000000000E+00 0. -1.
         -3    1    4    4    0  501  0.24653992257E+02 -0.53128841980E+02 -0.95519613800E+01  0.59344192223E+02  0.00000000000E+00 0.  1.
          5    1    3    3  502    0 -0.78176735923E+02 -0.35229980121E+02 -0.13069421060E+03  0.15638356763E+03  0.47000000000E+01 0. -1.
         11    1    6    6    0    0 -0.47191406907E+01  0.66272380289E+02  0.15695919899E+02  0.68269030896E+02  0.00000000000E+00 0. -1.
        -12    1    6    6    0    0  0.69883766603E+02  0.85178121373E+02 -0.37437890765E+02  0.11636429375E+03  0.00000000000E+00 0.  1.
         -5    1    5    5    0  503  0.42888038049E+02 -0.27112205461E+02  0.18483515636E+02  0.54205035218E+02  0.47000000000E+01 0.  1.
<mgrwt>
<rscale>  2 0.23879859E+03</rscale>
<asrwt>0</asrwt>
<pdfrwt beam="1">  1       21 0.28288325E-01 0.23881613E+03</pdfrwt>
<pdfrwt beam="2">  1       21 0.51797103E-01 0.23881613E+03</pdfrwt>
<totfact> 0.41353117E+04</totfact>
</mgrwt>
</event>
<event>
12    1  0.2762290E-001  0.2058097E+03  0.7546771E-02  0.1145270E+00
         21   -1    0    0  504  503  0.00000000000E+00  0.00000000000E+00  0.14052275215E+03  0.14052275215E+03  0.00000000000E+00 0. -1.
         21   -1    0    0  502  504 -0.00000000000E+00 -0.00000000000E+00 -0.43230645037E+03  0.43230645037E+03  0.00000000000E+00 0. -1.
          6    2    1    2  502    0  0.10758883772E+03 -0.17353780866E+02 -0.30453654134E+03  0.36662478301E+03  0.17261145614E+03 0.  0.
         24    2    3    3    0    0 -0.39353547136E+01 -0.41763223190E+02 -0.12538349581E+03  0.15413626544E+03  0.79229498772E+02 0.  0.
         -6    2    1    2    0  503 -0.10758883772E+03  0.17353780866E+02  0.12752843125E+02  0.20620441951E+03  0.17458841859E+03 0.  0.
        -24    2    5    5    0    0 -0.57422287551E+01  0.19956981757E+02 -0.40134357283E+02  0.91319022788E+02  0.79354539734E+02 0.  0.
          4    1    4    4  501    0  0.51419880017E+01 -0.51725815338E+02 -0.34797023952E+02  0.62552640943E+02  0.00000000000E+00 0. -1.
         -3    1    4    4    0  501 -0.90773427153E+01  0.99625921480E+01 -0.90586471859E+02  0.91583624502E+02  0.00000000000E+00 0.  1.
          5    1    3    3  502    0  0.11152419243E+03  0.24409442324E+02 -0.17915304553E+03  0.21248851756E+03  0.47000000000E+01 0. -1.
         11    1    6    6    0    0 -0.43794769195E+01  0.24524419447E+02  0.19411833406E+02  0.31582372353E+02  0.00000000000E+00 0. -1.
        -12    1    6    6    0    0 -0.13627518356E+01 -0.45674376897E+01 -0.59546190688E+02  0.59736650434E+02  0.00000000000E+00 0.  1.
         -5    1    5    5    0  503 -0.10184660897E+03 -0.26032008910E+01  0.52887200408E+02  0.11488539672E+03  0.47000000000E+01 0.  1.
<mgrwt>
<rscale>  2 0.20538981E+03</rscale>
<asrwt>0</asrwt>
<pdfrwt beam="1">  1       21 0.21618886E-01 0.20580969E+03</pdfrwt>
<pdfrwt beam="2">  1       21 0.66508683E-01 0.20580969E+03</pdfrwt>
<totfact> 0.41077096E+04</totfact>
</mgrwt>
</event>
<event>
12    1  0.2762290E-001  0.2053144E+03  0.7546771E-02  0.1146636E+00
         21   -1    0    0  504  503  0.00000000000E+00  0.00000000000E+00  0.35320323360E+03  0.35320323360E+03  0.00000000000E+00 0. -1.
         21   -1    0    0  502  504 -0.00000000000E+00 -0.00000000000E+00 -0.18099823405E+03  0.18099823405E+03  0.00000000000E+00 0. -1.
          6    2    1    2  502    0 -0.90946374624E+02 -0.39848217988E+02 -0.73438069962E+02  0.21805305737E+03  0.17970771318E+03 0.  0.
         24    2    3    3    0    0 -0.20103822856E+02  0.37512024713E+02 -0.28171627534E+01  0.91511851332E+02  0.80963984812E+02 0.  0.
         -6    2    1    2    0  503  0.90946374624E+02  0.39848217988E+02  0.24564306951E+03  0.31614841028E+03  0.17248239385E+03 0.  0.
        -24    2    5    5    0    0  0.82393642604E+02  0.28478603716E+01  0.65678106962E+02  0.13216022198E+03  0.79723822592E+02 0.  0.
          4    1    4    4  501    0 -0.33474272765E+02  0.34975781574E+02 -0.32872767151E+02  0.58518809403E+02  0.00000000000E+00 0. -1.
         -3    1    4    4    0  501  0.13370449909E+02  0.25362431395E+01  0.30055604397E+02  0.32993041929E+02  0.00000000000E+00 0.  1.
          5    1    3    3  502    0 -0.70842551768E+02 -0.77360242701E+02 -0.70620907208E+02  0.12654120604E+03  0.47000000000E+01 0. -1.
         13    1    6    6    0    0  0.49321167974E+02  0.40900934504E+02  0.40566064751E+02  0.75835807262E+02  0.00000000000E+00 0. -1.
        -14    1    6    6    0    0  0.33072474630E+02 -0.38053074132E+02  0.25112042211E+02  0.56324414715E+02  0.00000000000E+00 0.  1.
         -5    1    5    5    0  503  0.85527320205E+01  0.37000357617E+02  0.17996496255E+03  0.18398818830E+03  0.47000000000E+01 0.  1.
<mgrwt>
<rscale>  2 0.20372257E+03</rscale>
<asrwt>0</asrwt>
<pdfrwt beam="1">  1       21 0.54338959E-01 0.20531436E+03</pdfrwt>
<pdfrwt beam="2">  1       21 0.27845882E-01 0.20531436E+03</pdfrwt>
<totfact> 0.39147007E+04</totfact>
</mgrwt>
</event>
<event>
12    1  0.2762290E-001  0.2609231E+03  0.7546771E-02  0.1106598E+00
         21   -1    0    0  504  503  0.00000000000E+00  0.00000000000E+00  0.22033107109E+03  0.22033107109E+03  0.00000000000E+00 0.  1.
         21   -1    0    0  502  504 -0.00000000000E+00 -0.00000000000E+00 -0.31651008584E+03  0.31651008584E+03  0.00000000000E+00 0. -1.
          6    2    1    2  502    0  0.62715293560E+02 -0.18509849522E+03 -0.89631548551E+02  0.27583592066E+03  0.17279172333E+03 0.  0.
         24    2    3    3    0    0  0.78890394520E+02 -0.14943315946E+03 -0.12350093022E+03  0.22384673832E+03  0.79378328266E+02 0.  0.
         -6    2    1    2    0  503 -0.62715293560E+02  0.18509849522E+03 -0.65474661981E+01  0.26100523627E+03  0.17287626520E+03 0.  0.
        -24    2    5    5    0    0 -0.75724378715E+02  0.52517534767E+02  0.21664661735E+02  0.12475193711E+03  0.81249093869E+02 0.  0.
          4    1    4    4  501    0  0.84086756881E+02 -0.15086710221E+03 -0.12943086946E+03  0.21583284083E+03  0.00000000000E+00 0. -1.
         -3    1    4    4    0  501 -0.51963623613E+01  0.14339427405E+01  0.59299392463E+01  0.80138974936E+01  0.00000000000E+00 0.  1.
          5    1    3    3  502    0 -0.16175100960E+02 -0.35665335751E+02  0.33869381665E+02  0.51989182333E+02  0.47000000000E+01 0. -1.
         11    1    6    6    0    0 -0.12382886603E+02  0.36452958534E+02 -0.23693843118E+02  0.45205666328E+02  0.00000000000E+00 0. -1.
        -12    1    6    6    0    0 -0.63341492112E+02  0.16064576233E+02  0.45358504853E+02  0.79546270780E+02  0.00000000000E+00 0.  1.
         -5    1    5    5    0  503  0.13009085155E+02  0.13258096045E+03 -0.28212127933E+02  0.13625329916E+03  0.47000000000E+01 0.  1.
<mgrwt>
<rscale>  2 0.26090910E+03</rscale>
<asrwt>0</asrwt>
<pdfrwt beam="1">  1       21 0.33897088E-01 0.26092310E+03</pdfrwt>
<pdfrwt beam="2">  1       21 0.48693859E-01 0.26092310E+03</pdfrwt>
<totfact> 0.32670709E+04</totfact>
</mgrwt>
</event>
<event>
12    1  0.2762290E-001  0.2376903E+03  0.7546771E-02  0.1121476E+00
         21   -1    0    0  504  503  0.00000000000E+00  0.00000000000E+00  0.10077329979E+03  0.10077329979E+03  0.00000000000E+00 0. -1.
         21   -1    0    0  502  504 -0.00000000000E+00 -0.00000000000E+00 -0.67749810180E+03  0.67749810180E+03  0.00000000000E+00 0. -1.
          6    2    1    2  502    0  0.63810508020E+02  0.14925678189E+03 -0.45087861553E+03  0.50932171166E+03  0.17253322042E+03 0.  0.
         24    2    3    3    0    0 -0.17133995922E+02  0.78436831111E+02 -0.32233194321E+03  0.34164996355E+03  0.79880571438E+02 0.  0.
         -6    2    1    2    0  503 -0.63810508020E+02 -0.14925678189E+03 -0.12584618648E+03  0.26894968993E+03  0.17362979349E+03 0.  0.
        -24    2    5    5    0    0 -0.50957152027E+02 -0.17320176915E+03 -0.13510889374E+03  0.23985572284E+03  0.81736591751E+02 0.  0.
          4    1    4    4  501    0 -0.45007630326E+02  0.70357671230E+02 -0.25500885228E+03  0.26833822581E+03  0.00000000000E+00 0. -1.
         -3    1    4    4    0  501  0.27873634404E+02  0.80791598810E+01 -0.67323090929E+02  0.73311737747E+02  0.00000000000E+00 0.  1.
          5    1    3    3  502    0  0.80944503941E+02  0.70819950782E+02 -0.12854667233E+03  0.16767174811E+03  0.47000000000E+01 0. -1.
         11    1    6    6    0    0 -0.92815083241E+01 -0.10437419747E+03 -0.11759900143E+03  0.15751077624E+03  0.00000000000E+00 0. -1.
        -12    1    6    6    0    0 -0.41675643702E+02 -0.68827571680E+02 -0.17509892309E+02  0.82344946597E+02  0.00000000000E+00 0.  1.
         -5    1    5    5    0  503 -0.12853355993E+02  0.23944987259E+02  0.92627072648E+01  0.29093967089E+02  0.47000000000E+01 0.  1.
<mgrwt>
<rscale>  2 0.23749007E+03</rscale>
<asrwt>0</asrwt>
<pdfrwt beam="1">  1       21 0.15503585E-01 0.23769029E+03</pdfrwt>
<pdfrwt beam="2">  1       21 0.10423048E+00 0.23769029E+03</pdfrwt>
<totfact> 0.26793204E+04</totfact>
</mgrwt>
</event>
<event>
12    1  0.2762290E-001  0.1954958E+03  0.7546771E-02  0.1153934E+00
         21   -1    0    0  504  503  0.00000000000E+00  0.00000000000E+00  0.15343130014E+03  0.15343130014E+03  0.00000000000E+00 0. -1.
         21   -1    0    0  502  504 -0.00000000000E+00 -0.00000000000E+00 -0.31802761777E+03  0.31802761777E+03  0.00000000000E+00 0. -1.
          6    2    1    2  502    0 -0.77754287619E+02  0.41568328816E+02 -0.19385983932E+03  0.27531845360E+03  0.17448483713E+03 0.  0.
         24    2    3    3    0    0 -0.24893813637E+01 -0.29882090295E+02 -0.48218486087E+02  0.96423338305E+02  0.77931389243E+02 0.  0.
         -6    2    1    2    0  503  0.77754287619E+02 -0.41568328816E+02  0.29263521688E+02  0.19614046431E+03  0.17274568832E+03 0.  0.
        -24    2    5    5    0    0  0.45804844643E+02  0.27176630464E+02  0.60394836544E+02  0.11405584275E+03  0.80774661540E+02 0.  0.
          4    1    4    4  501    0 -0.35698011061E+02 -0.34662163177E+02 -0.31988922121E+02  0.59153230582E+02  0.00000000000E+00 0. -1.
         -3    1    4    4    0  501  0.33208629697E+02  0.47800728823E+01 -0.16229563967E+02  0.37270107723E+02  0.00000000000E+00 0.  1.
          5    1    3    3  502    0 -0.75264906255E+02  0.71450419111E+02 -0.14564135323E+03  0.17889511530E+03  0.47000000000E+01 0. -1.
         13    1    6    6    0    0  0.57423553533E+02  0.46512638278E+02  0.49957330784E+02  0.89199915465E+02  0.00000000000E+00 0. -1.
        -14    1    6    6    0    0 -0.11618708890E+02 -0.19336007814E+02  0.10437505760E+02  0.24855927280E+02  0.00000000000E+00 0.  1.
         -5    1    5    5    0  503  0.31949442975E+02 -0.68744959280E+02 -0.31131314856E+02  0.82084621565E+02  0.47000000000E+01 0.  1.
<mgrwt>
<rscale>  2 0.19510699E+03</rscale>
<asrwt>0</asrwt>
<pdfrwt beam="1">  1       21 0.23604815E-01 0.19549581E+03</pdfrwt>
<pdfrwt beam="2">  1       21 0.48927326E-01 0.19549581E+03</pdfrwt>
<totfact> 0.67271577E+04</totfact>
</mgrwt>
</event>
<event>
12    1  0.2762290E-001  0.1790399E+03  0.7546771E-02  0.1168911E+00
         21   -1    0    0  504  503  0.00000000000E+00  0.00000000000E+00  0.35569802956E+03  0.35569802956E+03  0.00000000000E+00 0.  1.
         21   -1    0    0  502  504 -0.00000000000E+00 -0.00000000000E+00 -0.97001988442E+02  0.97001988442E+02  0.00000000000E+00 0. -1.
          6    2    1    2  502    0  0.38111179041E+02 -0.25908124914E+02  0.67247723290E+02  0.19057840078E+03  0.17226194488E+03 0.  0.
         24    2    3    3    0    0  0.88178711101E+01  0.24155979567E+02  0.94085696817E+02  0.12649346285E+03  0.80543228135E+02 0.  0.
         -6    2    1    2    0  503 -0.38111179041E+02  0.25908124914E+02  0.19144831782E+03  0.26212161721E+03  0.17300748801E+03 0.  0.
        -24    2    5    5    0    0 -0.24084247484E+02  0.57285868267E+01  0.21411381312E+03  0.22836094123E+03  0.75439557444E+02 0.  0.
          2    1    4    4  501    0 -0.14455767764E+02  0.42455649669E+02  0.83987711484E+02  0.95212326360E+02  0.00000000000E+00 0. -1.
         -1    1    4    4    0  501  0.23273638874E+02 -0.18299670103E+02  0.10097985333E+02  0.31281136490E+02  0.00000000000E+00 0.  1.
          5    1    3    3  502    0  0.29293307931E+02 -0.50064104481E+02 -0.26837973527E+02  0.64084937935E+02  0.47000000000E+01 0. -1.
         13    1    6    6    0    0 -0.16744441339E+02 -0.19002666134E+02  0.19290574882E+02  0.31837146782E+02  0.00000000000E+00 0. -1.
        -14    1    6    6    0    0 -0.73398061459E+01  0.24731252961E+02  0.19482323823E+03  0.19652379445E+03  0.00000000000E+00 0.  1.
         -5    1    5    5    0  503 -0.14026931556E+02  0.20179538088E+02 -0.22665495291E+02  0.33760675987E+02  0.47000000000E+01 0.  1.
<mgrwt>
<rscale>  2 0.17885954E+03</rscale>
<asrwt>0</asrwt>
<pdfrwt beam="1">  1       21 0.54722773E-01 0.17903989E+03</pdfrwt>
<pdfrwt beam="2">  1       21 0.14923383E-01 0.17903989E+03</pdfrwt>
<totfact> 0.12543177E+05</totfact>
</mgrwt>
</event>
<event>
12    1  0.2762290E-001  0.2131860E+03  0.7546771E-02  0.1139333E+00
         21   -1    0    0  504  503  0.00000000000E+00  0.00000000000E+00  0.10199389658E+03  0.10199389658E+03  0.00000000000E+00 0. -1.
         21   -1    0    0  502  504 -0.00000000000E+00 -0.00000000000E+00 -0.44305782721E+03  0.44305782721E+03  0.00000000000E+00 0. -1.
          6    2    1    2  502    0  0.10182698111E+03  0.68423858768E+02 -0.17710204399E+03  0.27610602791E+03  0.17268134275E+03 0.  0.
         24    2    3    3    0    0  0.10389675744E+03  0.10662232840E+03 -0.15221034875E+03  0.23022472946E+03  0.87593256956E+02 0.  0.
         -6    2    1    2    0  503 -0.10182698111E+03 -0.68423858768E+02 -0.16396188665E+03  0.26894569587E+03  0.17434944372E+03 0.  0.
        -24    2    5    5    0    0 -0.60659674046E+02 -0.95238434289E+02 -0.62454564883E+02  0.15607588147E+03  0.87801780631E+02 0.  0.
          2    1    4    4  501    0  0.72446202732E+02  0.14987973626E+02 -0.49390841630E+02  0.88952497889E+02  0.00000000000E+00 0. -1.
         -1    1    4    4    0  501  0.31450554711E+02  0.91634354776E+02 -0.10281950712E+03  0.14127223157E+03  0.00000000000E+00 0.  1.
          5    1    3    3  502    0 -0.20697763343E+01 -0.38198469635E+02 -0.24891695235E+02  0.45881298458E+02  0.47000000000E+01 0. -1.
         13    1    6    6    0    0 -0.47845133101E+02 -0.14351527872E+02 -0.54291146104E+02  0.73774329268E+02  0.00000000000E+00 0. -1.
        -14    1    6    6    0    0 -0.12814540944E+02 -0.80886906417E+02 -0.81634187790E+01  0.82301552206E+02  0.00000000000E+00 0.  1.
         -5    1    5    5    0  503 -0.41167307063E+02  0.26814575522E+02 -0.10150732176E+03  0.11286981440E+03  0.47000000000E+01 0.  1.
<mgrwt>
<rscale>  2 0.21284471E+03</rscale>
<asrwt>0</asrwt>
<pdfrwt beam="1">  1       21 0.15691369E-01 0.21318604E+03</pdfrwt>
<pdfrwt beam="2">  1       21 0.68162742E-01 0.21318604E+03</pdfrwt>
<totfact> 0.70335982E+04</totfact>
</mgrwt>
</event>
<event>
12    1  0.2762290E-001  0.2020837E+03  0.7546771E-02  0.1148239E+00
         21   -1    0    0  504  503  0.00000000000E+00  0.00000000000E+00  0.17955971773E+03  0.17955971773E+03  0.00000000000E+00 0.  1.
         21   -1    0    0  502  504 -0.00000000000E+00 -0.00000000000E+00 -0.24898517624E+03  0.24898517624E+03  0.00000000000E+00 0.  1.
          6    2    1    2  502    0  0.88696650284E+02 -0.51794454208E+02 -0.99754937026E+02  0.22536386114E+03  0.17403465514E+03 0.  0.
         24    2    3    3    0    0  0.32741083941E+02 -0.89391254233E+02 -0.96743073070E+02  0.15771989540E+03  0.80334104261E+02 0.  0.
         -6    2    1    2    0  503 -0.88696650284E+02  0.51794454208E+02  0.30329478508E+02  0.20318103283E+03  0.17266410622E+03 0.  0.
        -24    2    5    5    0    0 -0.25091097201E+02 -0.17568671914E+02  0.58549578285E+02  0.10481755546E+03  0.81366119629E+02 0.  0.
          4    1    4    4  501    0 -0.17170305737E+02 -0.64937288238E+02 -0.39449297999E+02  0.77896841499E+02  0.00000000000E+00 0. -1.
         -3    1    4    4    0  501  0.49911389678E+02 -0.24453965995E+02 -0.57293775071E+02  0.79823053903E+02  0.00000000000E+00 0.  1.
          5    1    3    3  502    0  0.55955566343E+02  0.37596800025E+02 -0.30118639554E+01  0.67643965743E+02  0.47000000000E+01 0. -1.
         13    1    6    6    0    0 -0.50742559327E+02 -0.26098450808E+02  0.26570802840E+02  0.62943975289E+02  0.00000000000E+00 0. -1.
        -14    1    6    6    0    0  0.25651462126E+02  0.85297788948E+01  0.31978775445E+02  0.41873580169E+02  0.00000000000E+00 0.  1.
         -5    1    5    5    0  503 -0.63605553083E+02  0.69363126121E+02 -0.28220099777E+02  0.98363477367E+02  0.47000000000E+01 0.  1.
<mgrwt>
<rscale>  2 0.20178828E+03</rscale>
<asrwt>0</asrwt>
<pdfrwt beam="1">  1       21 0.27624572E-01 0.20208370E+03</pdfrwt>
<pdfrwt beam="2">  1       21 0.38305412E-01 0.20208370E+03</pdfrwt>
<totfact> 0.81857996E+04</totfact>
</mgrwt>
</event>
<event>
12    1  0.2762290E-001  0.2341766E+03  0.7546771E-02  0.1123792E+00
         21   -1    0    0  504  503  0.00000000000E+00  0.00000000000E+00  0.29729010159E+02  0.29729010159E+02  0.00000000000E+00 0. -1.
         21   -1    0    0  502  504 -0.00000000000E+00 -0.00000000000E+00 -0.21078582712E+04  0.21078582712E+04  0.00000000000E+00 0. -1.
          6    2    1    2  502    0  0.62902614481E+02  0.14537801965E+03 -0.14193195523E+04  0.14385084918E+04  0.17247371424E+03 0.  0.
         24    2    3    3    0    0  0.18997740667E+02  0.81669638976E+02 -0.40104027288E+03  0.41728316089E+03  0.79127061182E+02 0.  0.
         -6    2    1    2    0  503 -0.62902614481E+02 -0.14537801965E+03 -0.65880970878E+03  0.69907878954E+03  0.17201573793E+03 0.  0.
        -24    2    5    5    0    0 -0.47722384714E+02 -0.14601335512E+03 -0.35674913477E+03  0.39659982597E+03  0.80150801175E+02 0.  0.
          2    1    4    4  501    0  0.72675111506E+01  0.90388294546E+02 -0.38520285645E+03  0.39573236047E+03  0.00000000000E+00 0. -1.
         -1    1    4    4    0  501  0.11730229517E+02 -0.87186555699E+01 -0.15837416429E+02  0.21550800417E+02  0.00000000000E+00 0.  1.
          5    1    3    3  502    0  0.43904873814E+02  0.63708380670E+02 -0.10182792794E+04  0.10212253309E+04  0.47000000000E+01 0. -1.
         13    1    6    6    0    0 -0.40865536912E+01 -0.38507139163E+02 -0.18713134536E+03  0.19109589243E+03  0.00000000000E+00 0. -1.
        -14    1    6    6    0    0 -0.43635831023E+02 -0.10750621596E+03 -0.16961778941E+03  0.20550393355E+03  0.00000000000E+00 0.  1.
         -5    1    5    5    0  503 -0.15180229766E+02  0.63533547451E+00 -0.30206057401E+03  0.30247896356E+03  0.47000000000E+01 0.  1.
<mgrwt>
<rscale>  2 0.23409230E+03</rscale>
<asrwt>0</asrwt>
<pdfrwt beam="1">  1       21 0.45736944E-02 0.23417662E+03</pdfrwt>
<pdfrwt beam="2">  1       21 0.32428585E+00 0.23417662E+03</pdfrwt>
<totfact> 0.73927844E+03</totfact>
</mgrwt>
</event>
<event>
12    1  0.2762290E-001  0.2500792E+03  0.7546771E-02  0.1113478E+00
         21   -1    0    0  504  503  0.00000000000E+00  0.00000000000E+00  0.64093978243E+03  0.64093978243E+03  0.00000000000E+00 0.  1.
         21   -1    0    0  502  504 -0.00000000000E+00 -0.00000000000E+00 -0.10122017174E+03  0.10122017174E+03  0.00000000000E+00 0. -1.
          6    2    1    2  502    0 -0.16688197589E+01 -0.18069687657E+03  0.34611925701E+03  0.42701071846E+03  0.17287413759E+03 0.  0.
         24    2    3    3    0    0  0.55974955821E+02 -0.15860052906E+03  0.28281327268E+03  0.33846247687E+03  0.79285418267E+02 0.  0.
         -6    2    1    2    0  503  0.16688197589E+01  0.18069687657E+03  0.19360035367E+03  0.31514923570E+03  0.17083265982E+03 0.  0.
        -24    2    5    5    0    0  0.39797091523E+02  0.32162303628E+02  0.97817079906E+02  0.13428240624E+03  0.76454962137E+02 0.  0.
          4    1    4    4  501    0  0.62266266236E+01 -0.36554550059E+02  0.13692653221E+03  0.14185866640E+03  0.00000000000E+00 0. -1.
         -3    1    4    4    0  501  0.49748329197E+02 -0.12204597900E+03  0.14588674047E+03  0.19660381048E+03  0.00000000000E+00 0.  1.
          5    1    3    3  502    0 -0.57643775580E+02 -0.22096347507E+02  0.63305984334E+02  0.88548241591E+02  0.47000000000E+01 0. -1.
         11    1    6    6    0    0  0.45901296567E+02  0.53092354917E+02  0.73696662900E+02  0.10176898005E+03  0.00000000000E+00 0. -1.
        -12    1    6    6    0    0 -0.61042050438E+01 -0.20930051289E+02  0.24120417006E+02  0.32513426192E+02  0.00000000000E+00 0.  1.
         -5    1    5    5    0  503 -0.38128271764E+02  0.14853457294E+03  0.95783273767E+02  0.18086682946E+03  0.47000000000E+01 0.  1.
<mgrwt>
<rscale>  2 0.24972676E+03</rscale>
<asrwt>0</asrwt>
<pdfrwt beam="1">  1       21 0.98606118E-01 0.25007921E+03</pdfrwt>
<pdfrwt beam="2">  1       21 0.15572335E-01 0.25007921E+03</pdfrwt>
<totfact> 0.30180742E+04</totfact>
</mgrwt>
</event>
<event>
12    1  0.2762290E-001  0.1738262E+03  0.7546771E-02  0.1173949E+00
         21   -1    0    0  504  503  0.00000000000E+00  0.00000000000E+00  0.90550731454E+03  0.90550731454E+03  0.00000000000E+00 0. -1.
         21   -1    0    0  502  504 -0.00000000000E+00 -0.00000000000E+00 -0.19640904418E+03  0.19640904418E+03  0.00000000000E+00 0. -1.
          6    2    1    2  502    0 -0.11502502461E+01  0.17148224062E+02 -0.14749131033E+03  0.22786759502E+03  0.17284261504E+03 0.  0.
         24    2    3    3    0    0  0.61038722082E+02 -0.16847194698E+02 -0.78457219920E+02  0.12881734306E+03  0.80179916137E+02 0.  0.
         -6    2    1    2    0  503  0.11502502461E+01 -0.17148224062E+02  0.85658958069E+03  0.87404876370E+03  0.17297441118E+03 0.  0.
        -24    2    5    5    0    0 -0.58892368780E+02 -0.39347899049E+02  0.55094622034E+03  0.56173818849E+03  0.83615108876E+02 0.  0.
          4    1    4    4  501    0  0.29561737925E+02  0.13525760982E+02 -0.78619393062E+02  0.85075563617E+02  0.00000000000E+00 0. -1.
         -3    1    4    4    0  501  0.31476984157E+02 -0.30372955680E+02  0.16217314160E+00  0.43741779439E+02  0.00000000000E+00 0.  1.
          5    1    3    3  502    0 -0.62188972328E+02  0.33995418760E+02 -0.69034090408E+02  0.99050251965E+02  0.47000000000E+01 0. -1.
         13    1    6    6    0    0 -0.30195823814E+02 -0.32100252856E+02  0.50603993538E+03  0.50795534273E+03  0.00000000000E+00 0. -1.
        -14    1    6    6    0    0 -0.28696544966E+02 -0.72476461932E+01  0.44906284965E+02  0.53782845757E+02  0.00000000000E+00 0.  1.
         -5    1    5    5    0  503  0.60042619027E+02  0.22199674988E+02  0.30564336034E+03  0.31231057521E+03  0.47000000000E+01 0.  1.
<mgrwt>
<rscale>  2 0.17379336E+03</rscale>
<asrwt>0</asrwt>
<pdfrwt beam="1">  1       21 0.13930882E+00 0.17382615E+03</pdfrwt>
<pdfrwt beam="2">  1       21 0.30216777E-01 0.17382615E+03</pdfrwt>
<totfact> 0.38728402E+03</totfact>
</mgrwt>
</event>
<event>
12    1  0.2762290E-001  0.2968846E+03  0.7546771E-02  0.1086964E+00
         21   -1    0    0  504  503  0.00000000000E+00  0.00000000000E+00  0.46304379620E+03  0.46304379620E+03  0.00000000000E+00 0.  1.
         21   -1    0    0  502  504 -0.00000000000E+00 -0.00000000000E+00 -0.38705004919E+03  0.38705004919E+03  0.00000000000E+00 0.  1.
          6    2    1    2  502    0  0.13350166209E+03  0.19952918291E+03 -0.26565603293E+03  0.39747365199E+03  0.17256183697E+03 0.  0.
         24    2    3    3    0    0  0.15734138585E+03  0.12644921561E+03 -0.21048947057E+03  0.30274005894E+03  0.81240447042E+02 0.  0.
         -6    2    1    2    0  503 -0.13350166209E+03 -0.19952918291E+03  0.34164977995E+03  0.45262019339E+03  0.17465932186E+03 0.  0.
        -24    2    5    5    0    0 -0.10274744812E+03 -0.10508925869E+03  0.30251726704E+03  0.34576438151E+03  0.80221694591E+02 0.  0.
          4    1    4    4  501    0  0.36833540342E+02  0.51912312674E+02 -0.11634642288E+03  0.13262008904E+03  0.00000000000E+00 0. -1.
         -3    1    4    4    0  501  0.12050784551E+03  0.74536902937E+02 -0.94143047690E+02  0.17011996989E+03  0.00000000000E+00 0.  1.
          5    1    3    3  502    0 -0.23839723755E+02  0.73079967304E+02 -0.55166562364E+02  0.94733593054E+02  0.47000000000E+01 0. -1.
         11    1    6    6    0    0 -0.10190174041E+02 -0.64172251533E+02  0.98067159133E+02  0.11763964134E+03  0.00000000000E+00 0. -1.
        -12    1    6    6    0    0 -0.92557274077E+02 -0.40917007154E+02  0.20445010790E+03  0.22812474018E+03  0.00000000000E+00 0.  1.
         -5    1    5    5    0  503 -0.30754213977E+02 -0.94439924228E+02  0.39132512910E+02  0.10685581188E+03  0.47000000000E+01 0.  1.
<mgrwt>
<rscale>  2 0.29657685E+03</rscale>
<asrwt>0</asrwt>
<pdfrwt beam="1">  1       21 0.71237507E-01 0.29688460E+03</pdfrwt>
<pdfrwt beam="2">  1       21 0.59546161E-01 0.29688460E+03</pdfrwt>
<totfact> 0.43870704E+03</totfact>
</mgrwt>
</event>
<event>
12    1  0.2762290E-001  0.1955213E+03  0.7546771E-02  0.1154606E+00
         21   -1    0    0  504  503  0.00000000000E+00  0.00000000000E+00  0.44413106742E+03  0.44413106742E+03  0.00000000000E+00 0. -1.
         21   -1    0    0  502  504 -0.00000000000E+00 -0.00000000000E+00 -0.17416862031E+03  0.17416862031E+03  0.00000000000E+00 0. -1.
          6    2    1    2  502    0  0.86273170980E+02 -0.11574130412E+02 -0.88213775637E+02  0.21023257688E+03  0.16982062785E+03 0.  0.
         24    2    3    3    0    0  0.89169905419E+02  0.46591438665E+02 -0.43289965607E+02  0.13653140183E+03  0.81515448685E+02 0.  0.
         -6    2    1    2    0  503 -0.86273170980E+02  0.11574130412E+02  0.35817622274E+03  0.40806711085E+03  0.17507581185E+03 0.  0.
        -24    2    5    5    0    0 -0.97097933407E+02 -0.10140612163E+01  0.13807228584E+03  0.18728787475E+03  0.81140340897E+02 0.  0.
          4    1    4    4  501    0  0.42006313979E+01  0.42236463145E+02 -0.25801707842E+02  0.49671845655E+02  0.00000000000E+00 0. -1.
         -3    1    4    4    0  501  0.84969274021E+02  0.43549755193E+01 -0.17488257765E+02  0.86859556176E+02  0.00000000000E+00 0.  1.
          5    1    3    3  502    0 -0.28967344389E+01 -0.58165569077E+02 -0.44923810030E+02  0.73701175052E+02  0.47000000000E+01 0. -1.
         13    1    6    6    0    0 -0.16979734014E+02 -0.87418127998E+01  0.93196622718E+02  0.95133280949E+02  0.00000000000E+00 0. -1.
        -14    1    6    6    0    0 -0.80118199393E+02  0.77277515835E+01  0.44875663118E+02  0.92154593802E+02  0.00000000000E+00 0.  1.
         -5    1    5    5    0  503  0.10824762427E+02  0.12588191628E+02  0.22010393691E+03  0.22077923610E+03  0.47000000000E+01 0.  1.
<mgrwt>
<rscale>  2 0.19433772E+03</rscale>
<asrwt>0</asrwt>
<pdfrwt beam="1">  1       21 0.68327856E-01 0.19552125E+03</pdfrwt>
<pdfrwt beam="2">  1       21 0.26795173E-01 0.19552125E+03</pdfrwt>
<totfact> 0.25874363E+04</totfact>
</mgrwt>
</event>
<event>
12    1  0.2762290E-001  0.2262985E+03  0.7546771E-02  0.1129289E+00
         21   -1    0    0  504  503  0.00000000000E+00  0.00000000000E+00  0.30836025584E+02  0.30836025584E+02  0.00000000000E+00 0. -1.
         21   -1    0    0  502  504 -0.00000000000E+00 -0.00000000000E+00 -0.17718049905E+04  0.17718049905E+04  0.00000000000E+00 0. -1.
          6    2    1    2  502    0 -0.61586737822E+02  0.13164379855E+03 -0.10966391202E+04  0.11197266884E+04  0.17334209160E+03 0.  0.
         24    2    3    3    0    0 -0.50436660912E+02  0.99197497208E+02 -0.41349566120E+03  0.43570610223E+03  0.80480714920E+02 0.  0.
         -6    2    1    2    0  503  0.61586737822E+02 -0.13164379855E+03 -0.64432984465E+03  0.68291432765E+03  0.17345896987E+03 0.  0.
        -24    2    5    5    0    0  0.36446774651E+02 -0.76969528397E+02 -0.58947743210E+03  0.60135348699E+03  0.83004202809E+02 0.  0.
          4    1    4    4  501    0 -0.39048610166E+02  0.11112988857E+03 -0.38668745793E+03  0.40422992988E+03  0.00000000000E+00 0. -1.
         -3    1    4    4    0  501 -0.11388050746E+02 -0.11932391362E+02 -0.26808203272E+02  0.31476172354E+02  0.00000000000E+00 0.  1.
          5    1    3    3  502    0 -0.11150076910E+02  0.32446301344E+02 -0.68314345904E+03  0.68402058617E+03  0.47000000000E+01 0. -1.
         13    1    6    6    0    0  0.20732406565E+02 -0.61086780536E+02 -0.17901604368E+03  0.19028444847E+03  0.00000000000E+00 0. -1.
        -14    1    6    6    0    0  0.15714368086E+02 -0.15882747861E+02 -0.41046138842E+03  0.41106903852E+03  0.00000000000E+00 0.  1.
         -5    1    5    5    0  503  0.25139963171E+02 -0.54674270155E+02 -0.54852412552E+02  0.81560840653E+02  0.47000000000E+01 0.  1.
<mgrwt>
<rscale>  2 0.22627615E+03</rscale>
<asrwt>0</asrwt>
<pdfrwt beam="1">  1       21 0.47440053E-02 0.22629854E+03</pdfrwt>
<pdfrwt beam="2">  1       21 0.27258531E+00 0.22629854E+03</pdfrwt>
<totfact> 0.14002655E+04</totfact>
</mgrwt>
</event>
<event>
12    1  0.2762290E-001  0.1942072E+03  0.7546771E-02  0.1154904E+00
         21   -1    0    0  504  503  0.00000000000E+00  0.00000000000E+00  0.10017123276E+04  0.10017123276E+04  0.00000000000E+00 0.  1.
         21   -1    0    0  502  504 -0.00000000000E+00 -0.00000000000E+00 -0.11957555382E+03  0.11957555382E+03  0.00000000000E+00 0.  1.
          6    2    1    2  502    0 -0.81936268020E+02  0.32326904588E+02 -0.23146880187E+02  0.19558168828E+03  0.17308332662E+03 0.  0.
         24    2    3    3    0    0 -0.13013732410E+02  0.70628740575E+02 -0.40910186513E+02  0.11461890914E+03  0.79410797413E+02 0.  0.
         -6    2    1    2    0  503  0.81936268020E+02 -0.32326904588E+02  0.90528365396E+03  0.92570619314E+03  0.17214784664E+03 0.  0.
        -24    2    5    5    0    0  0.91637950020E+02 -0.41495693518E+02  0.39960648180E+03  0.41983102892E+03  0.80332721130E+02 0.  0.
          4    1    4    4  501    0 -0.31074637411E+02  0.54624307303E+02 -0.57624174950E+02  0.85264257325E+02  0.00000000000E+00 0. -1.
         -3    1    4    4    0  501  0.18060905001E+02  0.16004433272E+02  0.16713988436E+02  0.29354651817E+02  0.00000000000E+00 0.  1.
          5    1    3    3  502    0 -0.68922535611E+02 -0.38301835987E+02  0.17763306326E+02  0.80962779143E+02  0.47000000000E+01 0. -1.
         11    1    6    6    0    0  0.54309461257E+02  0.16252920401E+02  0.22844014288E+03  0.23536901640E+03  0.00000000000E+00 0. -1.
        -12    1    6    6    0    0  0.37328488763E+02 -0.57748613919E+02  0.17116633892E+03  0.18446201252E+03  0.00000000000E+00 0.  1.
         -5    1    5    5    0  503 -0.97016820002E+01  0.91687889296E+01  0.50567717216E+03  0.50587516422E+03  0.47000000000E+01 0.  1.
<mgrwt>
<rscale>  2 0.19399850E+03</rscale>
<asrwt>0</asrwt>
<pdfrwt beam="1">  1       21 0.15410958E+00 0.19420715E+03</pdfrwt>
<pdfrwt beam="2">  1       21 0.18396240E-01 0.19420715E+03</pdfrwt>
<totfact> 0.74958224E+03</totfact>
</mgrwt>
</event>
<event>
12    1  0.2762290E-001  0.2819172E+03  0.7546771E-02  0.1094696E+00
         21   -1    0    0  504  503  0.00000000000E+00  0.00000000000E+00  0.14305739990E+04  0.14305739990E+04  0.00000000000E+00 0. -1.
         21   -1    0    0  502  504 -0.00000000000E+00 -0.00000000000E+00 -0.56250215161E+02  0.56250215161E+02  0.00000000000E+00 0. -1.
          6    2    1    2  502    0 -0.19456570761E+03 -0.10717003815E+03  0.77434746857E+03  0.82406998309E+03  0.17359753251E+03 0.  0.
         24    2    3    3    0    0 -0.19155144762E+03 -0.56645693413E+02  0.48155369756E+03  0.52689650258E+03  0.76323450732E+02 0.  0.
         -6    2    1    2    0  503  0.19456570761E+03  0.10717003815E+03  0.59997631530E+03  0.66275423110E+03  0.17300393138E+03 0.  0.
        -24    2    5    5    0    0  0.29179336266E+02  0.36931369302E+02  0.29130114468E+03  0.30555880366E+03  0.79337670130E+02 0.  0.
          2    1    4    4  501    0 -0.10074313106E+03 -0.26809149032E+01  0.30430039133E+03  0.32055435408E+03  0.00000000000E+00 0. -1.
         -1    1    4    4    0  501 -0.90808316560E+02 -0.53964778510E+02  0.17725330623E+03  0.20634214850E+03  0.00000000000E+00 0.  1.
          5    1    3    3  502    0 -0.30142599887E+01 -0.50524344733E+02  0.29279377101E+03  0.29717348050E+03  0.47000000000E+01 0. -1.
         13    1    6    6    0    0  0.24380748984E+01  0.19190375741E+02  0.88196548331E+01  0.21260316124E+02  0.00000000000E+00 0. -1.
        -14    1    6    6    0    0  0.26741261368E+02  0.17740993560E+02  0.28248148985E+03  0.28429848754E+03  0.00000000000E+00 0.  1.
         -5    1    5    5    0  503  0.16538637134E+03  0.70238668844E+02  0.30867517062E+03  0.35719542744E+03  0.47000000000E+01 0.  1.
<mgrwt>
<rscale>  2 0.28182592E+03</rscale>
<asrwt>0</asrwt>
<pdfrwt beam="1">  1       21 0.22008828E+00 0.28191725E+03</pdfrwt>
<pdfrwt beam="2">  1       21 0.86538803E-02 0.28191725E+03</pdfrwt>
<totfact> 0.98365412E+03</totfact>
</mgrwt>
</event>
<event>
12    1  0.2762290E-001  0.1868160E+03  0.7546771E-02  0.1161405E+00
         21   -1    0    0  504  503  0.00000000000E+00  0.00000000000E+00  0.56377689831E+02  0.56377689831E+02  0.00000000000E+00 0. -1.
         21   -1    0    0  502  504 -0.00000000000E+00 -0.00000000000E+00 -0.77953236605E+03  0.77953236605E+03  0.00000000000E+00 0. -1.
          6    2    1    2  502    0 -0.18410008798E+02  0.66339534292E+02 -0.17173039435E+03  0.25375491187E+03  0.17366739682E+03 0.  0.
         24    2    3    3    0    0 -0.46124027113E+02  0.95314833187E+02 -0.16635751708E+03  0.21302908999E+03  0.80586763129E+02 0.  0.
         -6    2    1    2    0  503  0.18410008798E+02 -0.66339534292E+02 -0.55142428187E+03  0.58215514401E+03  0.17348201875E+03 0.  0.
        -24    2    5    5    0    0 -0.38417067573E+02 -0.57772961315E+02 -0.47375789176E+03  0.48542427544E+03  0.79853622625E+02 0.  0.
          4    1    4    4  501    0 -0.14854767259E+02  0.86366854858E+02 -0.72634211612E+02  0.11382278517E+03  0.00000000000E+00 0. -1.
         -3    1    4    4    0  501 -0.31269259854E+02  0.89479783294E+01 -0.93723305464E+02  0.99206304815E+02  0.00000000000E+00 0.  1.
          5    1    3    3  502    0  0.27714018316E+02 -0.28975298896E+02 -0.53728772712E+01  0.40725821876E+02  0.47000000000E+01 0. -1.
         13    1    6    6    0    0 -0.31629167595E+02  0.72049954502E+01 -0.25687252355E+03  0.25891274506E+03  0.00000000000E+00 0. -1.
        -14    1    6    6    0    0 -0.67878999781E+01 -0.64977956765E+02 -0.21688536821E+03  0.22651153038E+03  0.00000000000E+00 0.  1.
         -5    1    5    5    0  503  0.56827076371E+02 -0.85665729770E+01 -0.77666390116E+02  0.96730868574E+02  0.47000000000E+01 0.  1.
<mgrwt>
<rscale>  2 0.18677293E+03</rscale>
<asrwt>0</asrwt>
<pdfrwt beam="1">  1       21 0.86734912E-02 0.18681602E+03</pdfrwt>
<pdfrwt beam="2">  1       21 0.11992805E+00 0.18681602E+03</pdfrwt>
<totfact> 0.55280054E+04</totfact>
</mgrwt>
</event>
<event>
12    1  0.2762290E-001  0.3521369E+03  0.7546771E-02  0.1062014E+00
         21   -1    0    0  504  503  0.00000000000E+00  0.00000000000E+00  0.30847598832E+03  0.30847598832E+03  0.00000000000E+00 0. -1.
         21   -1    0    0  502  504 -0.00000000000E+00 -0.00000000000E+00 -0.56753652440E+03  0.56753652440E+03  0.00000000000E+00 0.  1.
          6    2    1    2  502    0  0.19589092335E+03  0.23595997700E+03 -0.36860577246E+03  0.50977508219E+03  0.17306083998E+03 0.  0.
         24    2    3    3    0    0  0.18267597689E+03  0.11399068766E+03 -0.25636076578E+03  0.34342552891E+03  0.76523605964E+02 0.  0.
         -6    2    1    2    0  503 -0.19589092335E+03 -0.23595997700E+03  0.10954523638E+03  0.36623743052E+03  0.16756888764E+03 0.  0.
        -24    2    5    5    0    0 -0.10008797055E+03 -0.20616462289E+03  0.44547485200E+02  0.24660145537E+03  0.79412503883E+02 0.  0.
          2    1    4    4  501    0  0.62814979172E+02  0.13251100520E+02 -0.37573587411E+02  0.74384727897E+02  0.00000000000E+00 0. -1.
         -1    1    4    4    0  501  0.11986099772E+03  0.10073958714E+03 -0.21878717837E+03  0.26904080101E+03  0.00000000000E+00 0.  1.
          5    1    3    3  502    0  0.13214946458E+02  0.12196928934E+03 -0.11224500668E+03  0.16634955328E+03  0.47000000000E+01 0. -1.
         11    1    6    6    0    0  0.85181379747E+00 -0.97544700004E+01  0.22665632037E+02  0.24690203470E+02  0.00000000000E+00 0. -1.
        -12    1    6    6    0    0 -0.10093978435E+03 -0.19641015289E+03  0.21881853163E+02  0.22191125190E+03  0.00000000000E+00 0.  1.
         -5    1    5    5    0  503 -0.95802952799E+02 -0.29795354111E+02  0.64997751180E+02  0.11963597515E+03  0.47000000000E+01 0.  1.
<mgrwt>
<rscale>  2 0.35146845E+03</rscale>
<asrwt>0</asrwt>
<pdfrwt beam="1">  1       21 0.47457845E-01 0.35213693E+03</pdfrwt>
<pdfrwt beam="2">  1       21 0.87313311E-01 0.35213693E+03</pdfrwt>
<totfact> 0.43529691E+03</totfact>
</mgrwt>
</event>
<event>
12    1  0.2762290E-001  0.1786975E+03  0.7546771E-02  0.1169447E+00
         21   -1    0    0  504  503  0.00000000000E+00  0.00000000000E+00  0.10489582490E+04  0.10489582490E+04  0.00000000000E+00 0.  1.
         21   -1    0    0  502  504 -0.00000000000E+00 -0.00000000000E+00 -0.13516760946E+03  0.13516760946E+03  0.00000000000E+00 0.  1.
          6    2    1    2  502    0  0.34609188341E+02  0.24428794938E+02 -0.64456131157E+02  0.18996676949E+03  0.17360362533E+03 0.  0.
         24    2    3    3    0    0 -0.40358828612E+02  0.16341649219E+02 -0.68259886659E+02  0.11432178256E+03  0.80710428666E+02 0.  0.
         -6    2    1    2    0  503 -0.34609188341E+02 -0.24428794938E+02  0.97824677073E+03  0.99415908901E+03  0.17202031237E+03 0.  0.
        -24    2    5    5    0    0 -0.49616158383E+02 -0.77537026517E+02  0.68479511292E+03  0.69552610543E+03  0.79614464716E+02 0.  0.
          2    1    4    4  501    0 -0.37173121692E+02  0.32943760056E+02 -0.62655049017E+01  0.50063847781E+02  0.00000000000E+00 0. -1.
         -1    1    4    4    0  501 -0.31857069192E+01 -0.16602110838E+02 -0.61994381757E+02  0.64257934781E+02  0.00000000000E+00 0.  1.
          5    1    3    3  502    0  0.74968016953E+02  0.80871457194E+01  0.38037555016E+01  0.75644986930E+02  0.47000000000E+01 0. -1.
         13    1    6    6    0    0 -0.41413869733E+02 -0.31219896640E+01  0.35040916663E+03  0.35286178524E+03  0.00000000000E+00 0. -1.
        -14    1    6    6    0    0 -0.82022886505E+01 -0.74415036853E+02  0.33438594629E+03  0.34266432018E+03  0.00000000000E+00 0.  1.
         -5    1    5    5    0  503  0.15006970042E+02  0.53108231579E+02  0.29345165781E+03  0.29863298358E+03  0.47000000000E+01 0.  1.
<mgrwt>
<rscale>  2 0.17831176E+03</rscale>
<asrwt>0</asrwt>
<pdfrwt beam="1">  1       21 0.16137819E+00 0.17869746E+03</pdfrwt>
<pdfrwt beam="2">  1       21 0.20795018E-01 0.17869746E+03</pdfrwt>
<totfact> 0.53420526E+03</totfact>
</mgrwt>
</event>
<event>
12    1  0.2762290E-001  0.2056425E+03  0.7546771E-02  0.1145572E+00
         21   -1    0    0  504  503  0.00000000000E+00  0.00000000000E+00  0.16754111729E+03  0.16754111729E+03  0.00000000000E+00 0.  1.
         21   -1    0    0  502  504 -0.00000000000E+00 -0.00000000000E+00 -0.25200969812E+03  0.25200969812E+03  0.00000000000E+00 0. -1.
          6    2    1    2  502    0 -0.69789674454E+02 -0.83333978531E+02 -0.20531555772E+02  0.20419810476E+03  0.17163965324E+03 0.  0.
         24    2    3    3    0    0 -0.72484383764E+02 -0.13914943729E+02 -0.59661311605E+02  0.12432638484E+03  0.80311682313E+02 0.  0.
         -6    2    1    2    0  503  0.69789674454E+02  0.83333978531E+02 -0.63937025059E+02  0.21535271065E+03  0.17456716809E+03 0.  0.
        -24    2    5    5    0    0 -0.15525525338E+02  0.88164782249E+02 -0.33043767557E+02  0.12436642960E+03  0.79756175135E+02 0.  0.
          2    1    4    4  501    0 -0.32407647569E+01 -0.16635211935E+02 -0.51898780036E+02  0.54595935760E+02  0.00000000000E+00 0. -1.
         -1    1    4    4    0  501 -0.69243619007E+02  0.27202682059E+01 -0.77625315694E+01  0.69730449079E+02  0.00000000000E+00 0.  1.
          5    1    3    3  502    0  0.26947093100E+01 -0.69419034802E+02  0.39129755833E+02  0.79871719918E+02  0.47000000000E+01 0. -1.
         11    1    6    6    0    0 -0.10892949207E+02 -0.60026391191E+01 -0.27194731113E+02  0.29903869634E+02  0.00000000000E+00 0. -1.
        -12    1    6    6    0    0 -0.46325761315E+01  0.94167421368E+02 -0.58490364439E+01  0.94462559970E+02  0.00000000000E+00 0.  1.
         -5    1    5    5    0  503  0.85315199792E+02 -0.48308037179E+01 -0.30893257503E+02  0.90986281050E+02  0.47000000000E+01 0.  1.
<mgrwt>
<rscale>  2 0.20501989E+03</rscale>
<asrwt>0</asrwt>
<pdfrwt beam="1">  1       21 0.25775557E-01 0.20564252E+03</pdfrwt>
<pdfrwt beam="2">  1       21 0.38770723E-01 0.20564252E+03</pdfrwt>
<totfact> 0.91157414E+04</totfact>
</mgrwt>
</event>
<event>
12    1  0.2762290E-001  0.1871425E+03  0.7546771E-02  0.1161151E+00
         21   -1    0    0  504  503  0.00000000000E+00  0.00000000000E+00  0.74729784310E+02  0.74729784310E+02  0.00000000000E+00 0. -1.
         21   -1    0    0  502  504 -0.00000000000E+00 -0.00000000000E+00 -0.47993305037E+03  0.47993305037E+03  0.00000000000E+00 0. -1.
          6    2    1    2  502    0 -0.67798393263E+02 -0.24579912702E+02 -0.24706068737E+03  0.30993759798E+03  0.17268913446E+03 0.  0.
         24    2    3    3    0    0 -0.47836080476E+02  0.52072620773E+02 -0.15471488448E+03  0.18818398558E+03  0.80477751719E+02 0.  0.
         -6    2    1    2    0  503  0.67798393263E+02  0.24579912702E+02 -0.15814257868E+03  0.24472523669E+03  0.17228050396E+03 0.  0.
        -24    2    5    5    0    0  0.91893684431E+02  0.64730148059E+02 -0.10837492429E+03  0.17623046405E+03  0.81716650313E+02 0.  0.
          2    1    4    4  501    0 -0.54419102206E+02  0.41149938066E+02 -0.54937836847E+02  0.87595216794E+02  0.00000000000E+00 0. -1.
         -1    1    4    4    0  501  0.65830217302E+01  0.10922682707E+02 -0.99777047632E+02  0.10058876879E+03  0.00000000000E+00 0.  1.
          5    1    3    3  502    0 -0.19962312787E+02 -0.76652533475E+02 -0.92345802895E+02  0.12175361240E+03  0.47000000000E+01 0. -1.
         11    1    6    6    0    0 -0.24146468773E+01  0.38854062865E+02 -0.17315906050E+02  0.42606446965E+02  0.00000000000E+00 0. -1.
        -12    1    6    6    0    0  0.94308331308E+02  0.25876085194E+02 -0.91059018240E+02  0.13362401708E+03  0.00000000000E+00 0.  1.
         -5    1    5    5    0  503 -0.24095291167E+02 -0.40150235357E+02 -0.49767654394E+02  0.68494772644E+02  0.47000000000E+01 0.  1.
<mgrwt>
<rscale>  2 0.18704822E+03</rscale>
<asrwt>0</asrwt>
<pdfrwt beam="1">  1       21 0.11496890E-01 0.18714254E+03</pdfrwt>
<pdfrwt beam="2">  1       21 0.73835852E-01 0.18714254E+03</pdfrwt>
<totfact> 0.10451362E+05</totfact>
</mgrwt>
</event>
<event>
12    1  0.2762290E-001  0.1958695E+03  0.7546771E-02  0.1154293E+00
         21   -1    0    0  504  503  0.00000000000E+00  0.00000000000E+00  0.48030416285E+03  0.48030416285E+03  0.00000000000E+00 0.  1.
         21   -1    0    0  502  504 -0.00000000000E+00 -0.00000000000E+00 -0.81420384191E+02  0.81420384191E+02  0.00000000000E+00 0.  1.
          6    2    1    2  502    0 -0.11651359020E+02 -0.88255921196E+02  0.13949994043E+03  0.23669403179E+03  0.16923052181E+03 0.  0.
         24    2    3    3    0    0 -0.25101413329E+02 -0.86214651315E+01  0.11486544183E+02  0.85260646523E+02  0.80206150239E+02 0.  0.
         -6    2    1    2    0  503  0.11651359020E+02  0.88255921196E+02  0.25938383823E+03  0.32503051525E+03  0.17447062365E+03 0.  0.
        -24    2    5    5    0    0  0.63863049774E+02  0.57198609230E+02  0.23034765947E+03  0.25753379715E+03  0.76898910434E+02 0.  0.
          2    1    4    4  501    0  0.11173469899E+02  0.28373599069E+02 -0.49722756655E+01  0.30897104703E+02  0.00000000000E+00 0. -1.
         -1    1    4    4    0  501 -0.36274883228E+02 -0.36995064201E+02  0.16458819849E+02  0.54363541820E+02  0.00000000000E+00 0.  1.
          5    1    3    3  502    0  0.13450054309E+02 -0.79634456065E+02  0.12801339625E+03  0.15143338527E+03  0.47000000000E+01 0. -1.
         11    1    6    6    0    0  0.61816177055E+02  0.89220980196E+01  0.93820873238E+02  0.11270847277E+03  0.00000000000E+00 0. -1.
        -12    1    6    6    0    0  0.20468727182E+01  0.48276511211E+02  0.13652678623E+03  0.14482532438E+03  0.00000000000E+00 0.  1.
         -5    1    5    5    0  503 -0.52211690753E+02  0.31057311966E+02  0.29036178754E+02  0.67496718102E+02  0.47000000000E+01 0.  1.
<mgrwt>
<rscale>  2 0.19469579E+03</rscale>
<asrwt>0</asrwt>
<pdfrwt beam="1">  1       21 0.73892946E-01 0.19586950E+03</pdfrwt>
<pdfrwt beam="2">  1       21 0.12526213E-01 0.19586950E+03</pdfrwt>
<totfact> 0.89186525E+04</totfact>
</mgrwt>
</event>
<event>
12    1  0.2762290E-001  0.2221583E+03  0.7546771E-02  0.1132470E+00
         21   -1    0    0  504  503  0.00000000000E+00  0.00000000000E+00  0.60025413723E+02  0.60025413723E+02  0.00000000000E+00 0. -1.
         21   -1    0    0  502  504 -0.00000000000E+00 -0.00000000000E+00 -0.15152527357E+04  0.15152527357E+04  0.00000000000E+00 0. -1.
          6    2    1    2  502    0 -0.13536136505E+03 -0.26372152681E+02 -0.12626131571E+04  0.12820086942E+04  0.17417266728E+03 0.  0.
         24    2    3    3    0    0 -0.27454578999E+02  0.28970226146E+02 -0.34417671158E+03  0.35558856933E+03  0.79953698683E+02 0.  0.
         -6    2    1    2    0  503  0.13536136505E+03  0.26372152681E+02 -0.19261416483E+03  0.29326945514E+03  0.17288310282E+03 0.  0.
        -24    2    5    5    0    0  0.57257116755E+01 -0.69077337579E+01 -0.10825081777E+03  0.13499053110E+03  0.80148009202E+02 0.  0.
          4    1    4    4  501    0 -0.28687654059E+02  0.55450403830E+02 -0.22514429966E+03  0.23364007458E+03  0.00000000000E+00 0. -1.
         -3    1    4    4    0  501  0.12330750595E+01 -0.26480177684E+02 -0.11903241191E+03  0.12194849474E+03  0.00000000000E+00 0.  1.
          5    1    3    3  502    0 -0.10790678605E+03 -0.55342378827E+02 -0.91843644553E+03  0.92642012492E+03  0.47000000000E+01 0. -1.
         11    1    6    6    0    0  0.17344568312E+02  0.23309193142E+02 -0.87314554578E+01  0.30337944051E+02  0.00000000000E+00 0. -1.
        -12    1    6    6    0    0 -0.11618856636E+02 -0.30216926900E+02 -0.99519362317E+02  0.10465258705E+03  0.00000000000E+00 0.  1.
         -5    1    5    5    0  503  0.12963565337E+03  0.33279886439E+02 -0.84363347053E+02  0.15827892403E+03  0.47000000000E+01 0.  1.
<mgrwt>
<rscale>  2 0.22190547E+03</rscale>
<asrwt>0</asrwt>
<pdfrwt beam="1">  1       21 0.92346793E-02 0.22215829E+03</pdfrwt>
<pdfrwt beam="2">  1       21 0.23311580E+00 0.22215829E+03</pdfrwt>
<totfact> 0.76148393E+03</totfact>
</mgrwt>
</event>
<event>
12    1  0.2762290E-001  0.1851744E+03  0.7546771E-02  0.1163347E+00
         21   -1    0    0  504  503  0.00000000000E+00  0.00000000000E+00  0.53013460589E+03  0.53013460589E+03  0.00000000000E+00 0.  1.
         21   -1    0    0  502  504 -0.00000000000E+00 -0.00000000000E+00 -0.72012945358E+02  0.72012945358E+02  0.00000000000E+00 0.  1.
          6    2    1    2  502    0  0.38578991265E+02 -0.43975958795E+02  0.32842378611E+03  0.37606988581E+03  0.17362071366E+03 0.  0.
         24    2    3    3    0    0 -0.39441479156E+01 -0.49946470597E+02  0.31762838033E+03  0.33154466641E+03  0.80770487211E+02 0.  0.
         -6    2    1    2    0  503 -0.38578991265E+02  0.43975958795E+02  0.12969787443E+03  0.22607766544E+03  0.17569106028E+03 0.  0.
        -24    2    5    5    0    0  0.13083262524E+02  0.31201099818E+02  0.14626317328E+03  0.17014301952E+03  0.80069037983E+02 0.  0.
          4    1    4    4  501    0  0.39297373849E+01  0.12593966394E+01  0.22787306749E+03  0.22791042934E+03  0.00000000000E+00 0. -1.
         -3    1    4    4    0  501 -0.78738853005E+01 -0.51205867236E+02  0.89755312844E+02  0.10363423707E+03  0.00000000000E+00 0.  1.
          5    1    3    3  502    0  0.42523139181E+02  0.59705118012E+01  0.10795405778E+02  0.44525219403E+02  0.47000000000E+01 0. -1.
         13    1    6    6    0    0  0.42162951931E+02  0.37399688251E+02  0.84150579079E+02  0.10128065539E+03  0.00000000000E+00 0. -1.
        -14    1    6    6    0    0 -0.29079689407E+02 -0.61985884327E+01  0.62112594202E+02  0.68862364126E+02  0.00000000000E+00 0.  1.
         -5    1    5    5    0  503 -0.51662253789E+02  0.12774858977E+02 -0.16565298856E+02  0.55934645924E+02  0.47000000000E+01 0.  1.
<mgrwt>
<rscale>  2 0.18468169E+03</rscale>
<asrwt>0</asrwt>
<pdfrwt beam="1">  1       21 0.81559168E-01 0.18517444E+03</pdfrwt>
<pdfrwt beam="2">  1       21 0.11078915E-01 0.18517444E+03</pdfrwt>
<totfact> 0.89358650E+04</totfact>
</mgrwt>
</event>
<event>
12    1  0.2762290E-001  0.2046307E+03  0.7546771E-02  0.1146038E+00
         21   -1    0    0  504  503  0.00000000000E+00  0.00000000000E+00  0.31356388289E+02  0.31356388289E+02  0.00000000000E+00 0.  1.
         21   -1    0    0  502  504 -0.00000000000E+00 -0.00000000000E+00 -0.14755312668E+04  0.14755312668E+04  0.00000000000E+00 0.  1.
          6    2    1    2  502    0 -0.84229510079E+02 -0.67593381378E+02 -0.95927313405E+03  0.98085609789E+03  0.17381099930E+03 0.  0.
         24    2    3    3    0    0 -0.95668146039E+01  0.21831777559E+02 -0.27664824329E+03  0.28834601952E+03  0.77724037514E+02 0.  0.
         -6    2    1    2    0  503  0.84229510079E+02  0.67593381378E+02 -0.48490174443E+03  0.52603155717E+03  0.17296248673E+03 0.  0.
        -24    2    5    5    0    0  0.11500890178E+03  0.60966109052E+02 -0.28368669839E+03  0.32231391816E+03  0.80400280188E+02 0.  0.
          2    1    4    4  501    0  0.83751539702E+01  0.43718107624E+02 -0.10019714634E+03  0.10963979329E+03  0.00000000000E+00 0. -1.
         -1    1    4    4    0  501 -0.17941968574E+02 -0.21886330065E+02 -0.17645109695E+03  0.17870622623E+03  0.00000000000E+00 0.  1.
          5    1    3    3  502    0 -0.74662695475E+02 -0.89425158937E+02 -0.68262489076E+03  0.69251007836E+03  0.47000000000E+01 0. -1.
         13    1    6    6    0    0  0.82487024580E+01 -0.12150305337E+02 -0.58230207169E+01  0.15798056282E+02  0.00000000000E+00 0. -1.
        -14    1    6    6    0    0  0.10676019932E+03  0.73116414389E+02 -0.27786367767E+03  0.30651586187E+03  0.00000000000E+00 0.  1.
         -5    1    5    5    0  503 -0.30779391700E+02  0.66272723267E+01 -0.20121504604E+03  0.20371763901E+03  0.47000000000E+01 0.  1.
<mgrwt>
<rscale>  2 0.20445044E+03</rscale>
<asrwt>0</asrwt>
<pdfrwt beam="1">  1       21 0.48240594E-02 0.20463074E+03</pdfrwt>
<pdfrwt beam="2">  1       21 0.22700483E+00 0.20463074E+03</pdfrwt>
<totfact> 0.25817505E+04</totfact>
</mgrwt>
</event>
<event>
12    1  0.2762290E-001  0.2264124E+03  0.7546771E-02  0.1130824E+00
         21   -1    0    0  504  503  0.00000000000E+00  0.00000000000E+00  0.24416704097E+03  0.24416704097E+03  0.00000000000E+00 0.  1.
         21   -1    0    0  502  504 -0.00000000000E+00 -0.00000000000E+00 -0.20255943482E+03  0.20255943482E+03  0.00000000000E+00 0.  1.
          6    2    1    2  502    0  0.64378402907E+02 -0.11558141397E+03  0.34264914393E+02  0.22019503078E+03  0.17265029744E+03 0.  0.
         24    2    3    3    0    0  0.89944849468E+02 -0.70214576941E+02  0.70474509631E+02  0.15659457576E+03  0.80839605939E+02 0.  0.
         -6    2    1    2    0  503 -0.64378402907E+02  0.11558141397E+03  0.73426917512E+01  0.22653144501E+03  0.18373605644E+03 0.  0.
        -24    2    5    5    0    0 -0.66349441675E+02  0.15482995249E+03  0.11338606159E+02  0.18675217778E+03  0.79832633154E+02 0.  0.
          4    1    4    4  501    0 -0.40799095943E+00 -0.21866096159E+01  0.39183404913E+02  0.39246489510E+02  0.00000000000E+00 0. -1.
         -3    1    4    4    0  501  0.90352840427E+02 -0.68027967325E+02  0.31291104718E+02  0.11734808625E+03  0.00000000000E+00 0.  1.
          5    1    3    3  502    0 -0.25566446561E+02 -0.45366837032E+02 -0.36209595238E+02  0.63600455025E+02  0.47000000000E+01 0. -1.
         13    1    6    6    0    0  0.57930462712E+01  0.48290780285E+00  0.15262707195E+02  0.16332263038E+02  0.00000000000E+00 0. -1.
        -14    1    6    6    0    0 -0.72142487946E+02  0.15434704469E+03 -0.39241010359E+01  0.17041991474E+03  0.00000000000E+00 0.  1.
         -5    1    5    5    0  503  0.19710387685E+01 -0.39248538515E+02 -0.39959144074E+01  0.39779267230E+02  0.47000000000E+01 0.  1.
<mgrwt>
<rscale>  2 0.22415391E+03</rscale>
<asrwt>0</asrwt>
<pdfrwt beam="1">  1       21 0.37564160E-01 0.22641241E+03</pdfrwt>
<pdfrwt beam="2">  1       21 0.31162990E-01 0.22641241E+03</pdfrwt>
<totfact> 0.66636255E+04</totfact>
</mgrwt>
</event>
<event>
12    1  0.2762290E-001  0.3005828E+03  0.7546771E-02  0.1085166E+00
         21   -1    0    0  504  503  0.00000000000E+00  0.00000000000E+00  0.21425054225E+03  0.21425054225E+03  0.00000000000E+00 0.  1.
         21   -1    0    0  502  504 -0.00000000000E+00 -0.00000000000E+00 -0.72579757891E+03  0.72579757891E+03  0.00000000000E+00 0. -1.
          6    2    1    2  502    0 -0.27190269870E+02 -0.24292899445E+03 -0.56164651299E+03  0.63702185820E+03  0.17491779539E+03 0.  0.
         24    2    3    3    0    0 -0.44247907174E+01 -0.42568431575E+02 -0.25115180032E+03  0.26676292340E+03  0.79079582441E+02 0.  0.
         -6    2    1    2    0  503  0.27190269870E+02  0.24292899445E+03  0.50099476340E+02  0.30302626296E+03  0.17193356680E+03 0.  0.
        -24    2    5    5    0    0  0.68367858734E+02  0.21256867240E+03  0.72256910676E+01  0.23611143319E+03  0.76398911495E+02 0.  0.
          2    1    4    4  501    0 -0.32048639404E+02 -0.51321568206E+02 -0.18165443518E+03  0.19146632203E+03  0.00000000000E+00 0. -1.
         -1    1    4    4    0  501  0.27623848686E+02  0.87531366310E+01 -0.69497365141E+02  0.75296601375E+02  0.00000000000E+00 0.  1.
          5    1    3    3  502    0 -0.22765479153E+02 -0.20036056288E+03 -0.31049471267E+03  0.37025893479E+03  0.47000000000E+01 0. -1.
         11    1    6    6    0    0  0.22662776516E+02  0.77114046966E+02  0.39498491065E+02  0.89556174971E+02  0.00000000000E+00 0. -1.
        -12    1    6    6    0    0  0.45705082217E+02  0.13545462544E+03 -0.32272799998E+02  0.14655525822E+03  0.00000000000E+00 0.  1.
         -5    1    5    5    0  503 -0.41177588863E+02  0.30360322048E+02  0.42873785272E+02  0.66914829769E+02  0.47000000000E+01 0.  1.
<mgrwt>
<rscale>  2 0.30015022E+03</rscale>
<asrwt>0</asrwt>
<pdfrwt beam="1">  1       21 0.32961622E-01 0.30058284E+03</pdfrwt>
<pdfrwt beam="2">  1       21 0.11166117E+00 0.30058284E+03</pdfrwt>
<totfact> 0.52051017E+03</totfact>
</mgrwt>
</event>
<event>
12    1  0.2762290E-001  0.1750965E+03  0.7546771E-02  0.1172901E+00
         21   -1    0    0  504  503  0.00000000000E+00  0.00000000000E+00  0.25434124865E+03  0.25434124865E+03  0.00000000000E+00 0.  1.
         21   -1    0    0  502  504 -0.00000000000E+00 -0.00000000000E+00 -0.12699685212E+03  0.12699685212E+03  0.00000000000E+00 0.  1.
          6    2    1    2  502    0 -0.26815110597E+02  0.24739438395E+02  0.10883058408E+03  0.20526551882E+03  0.17017269821E+03 0.  0.
         24    2    3    3    0    0  0.33526125560E+02  0.56544946259E+02  0.74109613422E+02  0.12858246388E+03  0.81974893556E+02 0.  0.
         -6    2    1    2    0  503  0.26815110597E+02 -0.24739438395E+02  0.18513812442E+02  0.17607258194E+03  0.17125332958E+03 0.  0.
        -24    2    5    5    0    0 -0.18498359429E+02  0.42070488206E+02  0.69309116470E+01  0.94383351019E+02  0.82146601475E+02 0.  0.
          2    1    4    4  501    0  0.19063410162E+02  0.34723884965E+02 -0.96969838441E+01  0.40782266853E+02  0.00000000000E+00 0. -1.
         -1    1    4    4    0  501  0.14462715398E+02  0.21821061295E+02  0.83806597266E+02  0.87800197027E+02  0.00000000000E+00 0.  1.
          5    1    3    3  502    0 -0.60341236157E+02 -0.31805507864E+02  0.34720970663E+02  0.76683054942E+02  0.47000000000E+01 0. -1.
         13    1    6    6    0    0 -0.18835115719E+02  0.51146693556E+01  0.40180838391E+02  0.44670137683E+02  0.00000000000E+00 0. -1.
        -14    1    6    6    0    0  0.33675628961E+00  0.36955818850E+02 -0.33249926744E+02  0.49713213336E+02  0.00000000000E+00 0.  1.
         -5    1    5    5    0  503  0.45313470027E+02 -0.66809926601E+02  0.11582900795E+02  0.81689230925E+02  0.47000000000E+01 0.  1.
<mgrwt>
<rscale>  2 0.17483173E+03</rscale>
<asrwt>0</asrwt>
<pdfrwt beam="1">  1       21 0.39129423E-01 0.17509652E+03</pdfrwt>
<pdfrwt beam="2">  1       21 0.19537977E-01 0.17509652E+03</pdfrwt>
<totfact> 0.15269304E+05</totfact>
</mgrwt>
</event>
<event>
12    1  0.2762290E-001  0.2019214E+03  0.7546771E-02  0.1148167E+00
         21   -1    0    0  504  503  0.00000000000E+00  0.00000000000E+00  0.25746130697E+03  0.25746130697E+03  0.00000000000E+00 0.  1.
         21   -1    0    0  502  504 -0.00000000000E+00 -0.00000000000E+00 -0.22755631992E+03  0.22755631992E+03  0.00000000000E+00 0.  1.
          6    2    1    2  502    0 -0.10301244345E+03 -0.63165078680E+01 -0.11892160529E+03  0.23417579572E+03  0.17333347432E+03 0.  0.
         24    2    3    3    0    0 -0.12273398219E+03 -0.31064335398E+02 -0.49426900005E+02  0.15767090620E+03  0.79927923159E+02 0.  0.
         -6    2    1    2    0  503  0.10301244345E+03  0.63165078680E+01  0.14882659234E+03  0.25084183117E+03  0.17355347274E+03 0.  0.
        -24    2    5    5    0    0  0.23587344102E+02  0.57391650209E+02  0.10467616068E+03  0.14649449202E+03  0.81568212337E+02 0.  0.
          2    1    4    4  501    0 -0.79357065754E+02 -0.13334279655E+02  0.10984035602E+02  0.81215737004E+02  0.00000000000E+00 0. -1.
         -1    1    4    4    0  501 -0.43376916436E+02 -0.17730055743E+02 -0.60410935607E+02  0.76455169198E+02  0.00000000000E+00 0.  1.
          5    1    3    3  502    0  0.19721538744E+02  0.24747827529E+02 -0.69494705281E+02  0.76504889516E+02  0.47000000000E+01 0. -1.
         13    1    6    6    0    0  0.17845831176E+01  0.67407419540E+02  0.42144998772E+02  0.79518210917E+02  0.00000000000E+00 0. -1.
        -14    1    6    6    0    0  0.21802760984E+02 -0.10015769331E+02  0.62531161905E+02  0.66976281107E+02  0.00000000000E+00 0.  1.
         -5    1    5    5    0  503  0.79425099344E+02 -0.51075142341E+02  0.44150431659E+02  0.10434733915E+03  0.47000000000E+01 0.  1.
<mgrwt>
<rscale>  2 0.20187416E+03</rscale>
<asrwt>0</asrwt>
<pdfrwt beam="1">  1       21 0.39609432E-01 0.20192144E+03</pdfrwt>
<pdfrwt beam="2">  1       21 0.35008664E-01 0.20192144E+03</pdfrwt>
<totfact> 0.48106218E+04</totfact>
</mgrwt>
</event>
<event>
12    1  0.2762290E-001  0.2608360E+03  0.7546771E-02  0.1106771E+00
         21   -1    0    0  504  503  0.00000000000E+00  0.00000000000E+00  0.72629959413E+02  0.72629959413E+02  0.00000000000E+00 0.  1.
         21   -1    0    0  502  504 -0.00000000000E+00 -0.00000000000E+00 -0.98899640030E+03  0.98899640030E+03  0.00000000000E+00 0. -1.
          6    2    1    2  502    0 -0.18051027025E+03  0.72477208679E+02 -0.33188375231E+03  0.42158304988E+03  0.17247764915E+03 0.  0.
         24    2    3    3    0    0 -0.13311524831E+03  0.19919960158E+02 -0.11897460221E+03  0.19717059775E+03  0.81270009846E+02 0.  0.
         -6    2    1    2    0  503  0.18051027025E+03 -0.72477208679E+02 -0.58448268858E+03  0.64004330983E+03  0.17377721879E+03 0.  0.
        -24    2    5    5    0    0  0.18499443843E+03 -0.25215088130E+02 -0.38881647723E+03  0.43864526599E+03  0.79829026585E+02 0.  0.
          2    1    4    4  501    0 -0.65044632896E+02  0.29135893377E+02 -0.10526588358E+03  0.12712439104E+03  0.00000000000E+00 0. -1.
         -1    1    4    4    0  501 -0.68070615411E+02 -0.92159332190E+01 -0.13708718630E+02  0.70046206707E+02  0.00000000000E+00 0.  1.
          5    1    3    3  502    0 -0.47395021939E+02  0.52557248521E+02 -0.21290915010E+03  0.22441245213E+03  0.47000000000E+01 0. -1.
         13    1    6    6    0    0  0.14332655118E+03 -0.43970849584E+02 -0.34102620396E+03  0.37252490880E+03  0.00000000000E+00 0. -1.
        -14    1    6    6    0    0  0.41667887247E+02  0.18755761454E+02 -0.47790273272E+02  0.66120357189E+02  0.00000000000E+00 0.  1.
         -5    1    5    5    0  503 -0.44841681805E+01 -0.47262120549E+02 -0.19566621134E+03  0.20139804385E+03  0.47000000000E+01 0.  1.
<mgrwt>
<rscale>  2 0.26061974E+03</rscale>
<asrwt>0</asrwt>
<pdfrwt beam="1">  1       21 0.11173842E-01 0.26083601E+03</pdfrwt>
<pdfrwt beam="2">  1       21 0.15215327E+00 0.26083601E+03</pdfrwt>
<totfact> 0.18406717E+04</totfact>
</mgrwt>
</event>
<event>
12    1  0.2762290E-001  0.1908553E+03  0.7546771E-02  0.1157823E+00
         21   -1    0    0  504  503  0.00000000000E+00  0.00000000000E+00  0.96308239617E+02  0.96308239617E+02  0.00000000000E+00 0.  1.
         21   -1    0    0  502  504 -0.00000000000E+00 -0.00000000000E+00 -0.38445565530E+03  0.38445565530E+03  0.00000000000E+00 0. -1.
          6    2    1    2  502    0 -0.78730904582E+02  0.88982570565E+01 -0.11053411614E+03  0.22004902784E+03  0.17299147236E+03 0.  0.
         24    2    3    3    0    0 -0.11228127868E+03  0.31107719089E+02 -0.10661898541E+03  0.17935128767E+03  0.84997062361E+02 0.  0.
         -6    2    1    2    0  503  0.78730904582E+02 -0.88982570565E+01 -0.17761329955E+03  0.26071486708E+03  0.17363186178E+03 0.  0.
        -24    2    5    5    0    0  0.66103904892E+02 -0.42335653784E+02 -0.19088171809E+03  0.22230078696E+03  0.82581933597E+02 0.  0.
          2    1    4    4  501    0 -0.68654975577E+02  0.28890275367E+02 -0.11286110123E+03  0.13522493059E+03  0.00000000000E+00 0. -1.
         -1    1    4    4    0  501 -0.43626303104E+02  0.22174437228E+01  0.62421158198E+01  0.44126357080E+02  0.00000000000E+00 0.  1.
          5    1    3    3  502    0  0.33550374099E+02 -0.22209462033E+02 -0.39151307232E+01  0.40697740166E+02  0.47000000000E+01 0. -1.
         13    1    6    6    0    0  0.20178743779E+02  0.25189171068E+02 -0.53777042818E+02  0.62718788045E+02  0.00000000000E+00 0. -1.
        -14    1    6    6    0    0  0.45925161112E+02 -0.67524824853E+02 -0.13710467528E+03  0.15958199891E+03  0.00000000000E+00 0.  1.
         -5    1    5    5    0  503  0.12626999690E+02  0.33437396728E+02  0.13268418545E+02  0.38414080124E+02  0.47000000000E+01 0.  1.
<mgrwt>
<rscale>  2 0.19070956E+03</rscale>
<asrwt>0</asrwt>
<pdfrwt beam="1">  1       21 0.14816652E-01 0.19085533E+03</pdfrwt>
<pdfrwt beam="2">  1       21 0.59147024E-01 0.19085533E+03</pdfrwt>
<totfact> 0.10726655E+05</totfact>
</mgrwt>
</event>
<event>
12    1  0.2762290E-001  0.1825257E+03  0.7546771E-02  0.1165462E+00
         21   -1    0    0  504  503  0.00000000000E+00  0.00000000000E+00  0.69077930313E+02  0.69077930313E+02  0.00000000000E+00 0.  1.
         21   -1    0    0  502  504 -0.00000000000E+00 -0.00000000000E+00 -0.56155312175E+03  0.56155312175E+03  0.00000000000E+00 0.  1.
          6    2    1    2  502    0  0.51578613014E+02 -0.16795256104E+02 -0.36556778619E+03  0.40860182148E+03  0.17427911025E+03 0.  0.
         24    2    3    3    0    0  0.44744953317E+02  0.57020130754E+02 -0.20625142324E+03  0.23282012805E+03  0.80075940696E+02 0.  0.
         -6    2    1    2    0  503 -0.51578613014E+02  0.16795256104E+02 -0.12690740525E+03  0.22202923058E+03  0.17392255684E+03 0.  0.
        -24    2    5    5    0    0 -0.59850031655E+02  0.20711915517E+02 -0.15855056672E+03  0.18875557351E+03  0.80494562492E+02 0.  0.
          4    1    4    4  501    0  0.48769159480E+02  0.69147832937E+02 -0.12739885779E+03  0.15293895084E+03  0.00000000000E+00 0. -1.
         -3    1    4    4    0  501 -0.40242061630E+01 -0.12127702183E+02 -0.78852565444E+02  0.79881177211E+02  0.00000000000E+00 0.  1.
          5    1    3    3  502    0  0.68336596976E+01 -0.73815386858E+02 -0.15931636295E+03  0.17578169343E+03  0.47000000000E+01 0. -1.
         13    1    6    6    0    0  0.19630874358E+02  0.69049247528E+00 -0.40856669705E+02  0.45333381380E+02  0.00000000000E+00 0. -1.
        -14    1    6    6    0    0 -0.79480906012E+02  0.20021423041E+02 -0.11769389701E+03  0.14342219213E+03  0.00000000000E+00 0.  1.
         -5    1    5    5    0  503  0.82714186402E+01 -0.39166594129E+01  0.31643161469E+02  0.33273657073E+02  0.47000000000E+01 0.  1.
<mgrwt>
<rscale>  2 0.18244057E+03</rscale>
<asrwt>0</asrwt>
<pdfrwt beam="1">  1       21 0.10627375E-01 0.18252573E+03</pdfrwt>
<pdfrwt beam="2">  1       21 0.86392783E-01 0.18252573E+03</pdfrwt>
<totfact> 0.84469555E+04</totfact>
</mgrwt>
</event>
<event>
12    1  0.2762290E-001  0.2131544E+03  0.7546771E-02  0.1140365E+00
         21   -1    0    0  504  503  0.00000000000E+00  0.00000000000E+00  0.16831435216E+04  0.16831435216E+04  0.00000000000E+00 0. -1.
         21   -1    0    0  502  504 -0.00000000000E+00 -0.00000000000E+00 -0.45405184139E+02  0.45405184139E+02  0.00000000000E+00 0. -1.
          6    2    1    2  502    0  0.97293943080E+02 -0.53633779126E+02  0.26382497431E+03  0.33917313540E+03  0.18191235550E+03 0.  0.
         24    2    3    3    0    0  0.11999929323E+02  0.10256086001E+01  0.37496988021E+02  0.91162722661E+02  0.82216590270E+02 0.  0.
         -6    2    1    2    0  503 -0.97293943080E+02  0.53633779126E+02  0.13739133631E+04  0.13893755703E+04  0.17430964514E+03 0.  0.
        -24    2    5    5    0    0  0.21364263185E+01 -0.44293254403E+01  0.41511502314E+03  0.42367682369E+03  0.84601331286E+02 0.  0.
          4    1    4    4  501    0  0.36945997906E+02 -0.13374887714E+02 -0.52241618669E+01  0.39638191809E+02  0.00000000000E+00 0. -1.
         -3    1    4    4    0  501 -0.24946068583E+02  0.14400496314E+02  0.42721149887E+02  0.51524530852E+02  0.00000000000E+00 0.  1.
          5    1    3    3  502    0  0.85294013757E+02 -0.54659387726E+02  0.22632798629E+03  0.24801041274E+03  0.47000000000E+01 0. -1.
         13    1    6    6    0    0  0.61185752874E+00  0.37693065427E+02  0.26814774352E+03  0.27078470028E+03  0.00000000000E+00 0. -1.
        -14    1    6    6    0    0  0.15245687898E+01 -0.42122390867E+02  0.14696727962E+03  0.15289212342E+03  0.00000000000E+00 0.  1.
         -5    1    5    5    0  503 -0.99430369398E+02  0.58063104566E+02  0.95879833999E+03  0.96569874663E+03  0.47000000000E+01 0.  1.
<mgrwt>
<rscale>  2 0.21152317E+03</rscale>
<asrwt>0</asrwt>
<pdfrwt beam="1">  1       21 0.25894511E+00 0.21315440E+03</pdfrwt>
<pdfrwt beam="2">  1       21 0.69854143E-02 0.21315440E+03</pdfrwt>
<totfact> 0.87735329E+03</totfact>
</mgrwt>
</event>
<event>
12    1  0.2762290E-001  0.1919055E+03  0.7546771E-02  0.1157217E+00
         21   -1    0    0  504  503  0.00000000000E+00  0.00000000000E+00  0.14587736636E+03  0.14587736636E+03  0.00000000000E+00 0.  1.
         21   -1    0    0  502  504 -0.00000000000E+00 -0.00000000000E+00 -0.30844074233E+03  0.30844074233E+03  0.00000000000E+00 0.  1.
          6    2    1    2  502    0  0.18053590878E+02  0.78118849511E+02 -0.18001974750E+03  0.26162028920E+03  0.17207434276E+03 0.  0.
         24    2    3    3    0    0 -0.14804004425E+02 -0.10090446151E+02 -0.37028165733E+02  0.90362635742E+02  0.80457101801E+02 0.  0.
         -6    2    1    2    0  503 -0.18053590878E+02 -0.78118849511E+02  0.17456371534E+02  0.19269781950E+03  0.17435377237E+03 0.  0.
        -24    2    5    5    0    0  0.16999362396E+02 -0.80438964836E+02  0.66270738226E+02  0.13237348888E+03  0.79821829273E+02 0.  0.
          4    1    4    4  501    0 -0.29386865492E+02 -0.33214225817E+02 -0.15345739836E-01  0.44348313334E+02  0.00000000000E+00 0. -1.
         -3    1    4    4    0  501  0.14582861066E+02  0.23123779666E+02 -0.37012819993E+02  0.46014322409E+02  0.00000000000E+00 0.  1.
          5    1    3    3  502    0  0.32857595303E+02  0.88209295663E+02 -0.14299158177E+03  0.17125765345E+03  0.47000000000E+01 0. -1.
         11    1    6    6    0    0  0.26323285586E+02 -0.63939698804E+01 -0.67984128634E+01  0.27928777852E+02  0.00000000000E+00 0. -1.
        -12    1    6    6    0    0 -0.93239231893E+01 -0.74044994956E+02  0.73069151089E+02  0.10444471103E+03  0.00000000000E+00 0.  1.
         -5    1    5    5    0  503 -0.35052953274E+02  0.23201153247E+01 -0.48814366692E+02  0.60324330613E+02  0.47000000000E+01 0.  1.
<mgrwt>
<rscale>  2 0.19138627E+03</rscale>
<asrwt>0</asrwt>
<pdfrwt beam="1">  1       21 0.22442672E-01 0.19190551E+03</pdfrwt>
<pdfrwt beam="2">  1       21 0.47452422E-01 0.19190551E+03</pdfrwt>
<totfact> 0.78996422E+04</totfact>
</mgrwt>
</event>
<event>
12    1  0.2762290E-001  0.1739857E+03  0.7546771E-02  0.1173888E+00
         21   -1    0    0  504  503  0.00000000000E+00  0.00000000000E+00  0.27327601238E+03  0.27327601238E+03  0.00000000000E+00 0. -1.
         21   -1    0    0  502  504 -0.00000000000E+00 -0.00000000000E+00 -0.18436820347E+03  0.18436820347E+03  0.00000000000E+00 0. -1.
          6    2    1    2  502    0  0.11106878481E+02 -0.68206592458E+01 -0.10040849912E+03  0.20088026961E+03  0.17349677772E+03 0.  0.
         24    2    3    3    0    0  0.52301657298E+02 -0.16228903705E+02 -0.36945019424E+01  0.95233631631E+02  0.77826438807E+02 0.  0.
         -6    2    1    2    0  503 -0.11106878481E+02  0.68206592458E+01  0.18931630803E+03  0.25676394624E+03  0.17296582166E+03 0.  0.
        -24    2    5    5    0    0 -0.28638478620E+02 -0.39926799066E+02  0.18308884778E+03  0.20623125264E+03  0.81212632287E+02 0.  0.
          4    1    4    4  501    0  0.17117347910E+02  0.28831563836E+02  0.12548429780E+02  0.35801197783E+02  0.00000000000E+00 0. -1.
         -3    1    4    4    0  501  0.35184309388E+02 -0.45060467542E+02 -0.16242931722E+02  0.59432433848E+02  0.00000000000E+00 0.  1.
          5    1    3    3  502    0 -0.41194778818E+02  0.94082444594E+01 -0.96713997179E+02  0.10564663798E+03  0.47000000000E+01 0. -1.
         11    1    6    6    0    0  0.27252015283E+02 -0.20901540887E+01  0.57018650503E+02  0.63231065041E+02  0.00000000000E+00 0. -1.
        -12    1    6    6    0    0 -0.55890493903E+02 -0.37836644977E+02  0.12607019727E+03  0.14300018760E+03  0.00000000000E+00 0.  1.
         -5    1    5    5    0  503  0.17531600139E+02  0.46747458311E+02  0.62274602582E+01  0.50532693608E+02  0.47000000000E+01 0.  1.
<mgrwt>
<rscale>  2 0.17385316E+03</rscale>
<asrwt>0</asrwt>
<pdfrwt beam="1">  1       21 0.42042464E-01 0.17398568E+03</pdfrwt>
<pdfrwt beam="2">  1       21 0.28364339E-01 0.17398568E+03</pdfrwt>
<totfact> 0.65233385E+04</totfact>
</mgrwt>
</event>
<event>
12    1  0.2762290E-001  0.3252604E+03  0.7546771E-02  0.1073351E+00
         21   -1    0    0  504  503  0.00000000000E+00  0.00000000000E+00  0.15375788409E+03  0.15375788409E+03  0.00000000000E+00 0.  1.
         21   -1    0    0  502  504 -0.00000000000E+00 -0.00000000000E+00 -0.13774199849E+04  0.13774199849E+04  0.00000000000E+00 0.  1.
          6    2    1    2  502    0  0.27370994943E+03  0.36503334115E+02 -0.11545613248E+04  0.11995024802E+04  0.17188576897E+03 0.  0.
         24    2    3    3    0    0  0.11726273617E+03 -0.35256399525E+02 -0.44161518982E+03  0.46605890962E+03  0.84813727397E+02 0.  0.
         -6    2    1    2    0  503 -0.27370994943E+03 -0.36503334115E+02 -0.69100776014E+02  0.33167538876E+03  0.17024692785E+03 0.  0.
        -24    2    5    5    0    0 -0.99987760677E+02  0.32720116951E+02  0.10569315828E+01  0.13188680305E+03  0.79528946782E+02 0.  0.
          4    1    4    4  501    0  0.78507721826E+01 -0.35498357866E+02 -0.73057718520E+02  0.81603910877E+02  0.00000000000E+00 0. -1.
         -3    1    4    4    0  501  0.10941196399E+03  0.24195834128E+00 -0.36855747130E+03  0.38445499874E+03  0.00000000000E+00 0.  1.
          5    1    3    3  502    0  0.15644721326E+03  0.71759733640E+02 -0.71294613498E+03  0.73344357062E+03  0.47000000000E+01 0. -1.
         11    1    6    6    0    0  0.76332851967E+01 -0.89265275301E+01  0.10959877789E+02  0.16064521711E+02  0.00000000000E+00 0. -1.
        -12    1    6    6    0    0 -0.10762104587E+03  0.41646644481E+02 -0.99029462062E+01  0.11582228134E+03  0.00000000000E+00 0.  1.
         -5    1    5    5    0  503 -0.17372218875E+03 -0.69223451066E+02 -0.70157707596E+02  0.19978858570E+03  0.47000000000E+01 0.  1.
<mgrwt>
<rscale>  2 0.32504445E+03</rscale>
<asrwt>0</asrwt>
<pdfrwt beam="1">  1       21 0.23655059E-01 0.32526043E+03</pdfrwt>
<pdfrwt beam="2">  1       21 0.21191077E+00 0.32526043E+03</pdfrwt>
<totfact> 0.17025202E+03</totfact>
</mgrwt>
</event>
<event>
12    1  0.2762290E-001  0.2322984E+03  0.7546771E-02  0.1125383E+00
         21   -1    0    0  504  503  0.00000000000E+00  0.00000000000E+00  0.23539779305E+04  0.23539779305E+04  0.00000000000E+00 0. -1.
         21   -1    0    0  502  504 -0.00000000000E+00 -0.00000000000E+00 -0.48007540486E+02  0.48007540486E+02  0.00000000000E+00 0. -1.
          6    2    1    2  502    0 -0.12809693834E+03  0.84172560791E+02  0.28382285206E+03  0.36676692926E+03  0.17455292447E+03 0.  0.
         24    2    3    3    0    0 -0.94072080249E+02  0.76103100742E+01  0.24583479571E+03  0.27465476053E+03  0.78057783690E+02 0.  0.
         -6    2    1    2    0  503  0.12809693834E+03 -0.84172560791E+02  0.20221475380E+04  0.20352185418E+04  0.17187205057E+03 0.  0.
        -24    2    5    5    0    0  0.31571819830E+02 -0.19676639203E+02  0.13730954694E+04  0.13758495251E+04  0.78656199343E+02 0.  0.
          4    1    4    4  501    0 -0.84912975652E+02 -0.25036818014E+02  0.17450535718E+03  0.19567620033E+03  0.00000000000E+00 0. -1.
         -3    1    4    4    0  501 -0.91591045966E+01  0.32647128089E+02  0.71329438535E+02  0.78978560199E+02  0.00000000000E+00 0.  1.
          5    1    3    3  502    0 -0.34024858088E+02  0.76562250716E+02  0.37988056351E+02  0.92112168729E+02  0.47000000000E+01 0. -1.
         11    1    6    6    0    0  0.49548869028E+02 -0.18908235047E+02  0.54854223899E+03  0.55109999068E+03  0.00000000000E+00 0. -1.
        -12    1    6    6    0    0 -0.17977049197E+02 -0.76840415672E+00  0.82455323040E+03  0.82474953441E+03  0.00000000000E+00 0.  1.
         -5    1    5    5    0  503  0.96525118507E+02 -0.64495921587E+02  0.64905206860E+03  0.65936901668E+03  0.47000000000E+01 0.  1.
<mgrwt>
<rscale>  2 0.23179490E+03</rscale>
<asrwt>0</asrwt>
<pdfrwt beam="1">  1       21 0.36215036E+00 0.23229845E+03</pdfrwt>
<pdfrwt beam="2">  1       21 0.73857773E-02 0.23229845E+03</pdfrwt>
<totfact> 0.19398320E+03</totfact>
</mgrwt>
</event>
<event>
12    1  0.2762290E-001  0.2597116E+03  0.7546771E-02  0.1108401E+00
         21   -1    0    0  504  503  0.00000000000E+00  0.00000000000E+00  0.28143616227E+03  0.28143616227E+03  0.00000000000E+00 0.  1.
         21   -1    0    0  502  504 -0.00000000000E+00 -0.00000000000E+00 -0.23339395756E+03  0.23339395756E+03  0.00000000000E+00 0.  1.
          6    2    1    2  502    0  0.14238228482E+03  0.11454556183E+03  0.16117674199E+02  0.26021128444E+03  0.18454466224E+03 0.  0.
         24    2    3    3    0    0  0.15766382446E+03  0.96176999130E+02 -0.33621920265E+02  0.20483035986E+03  0.81958197222E+02 0.  0.
         -6    2    1    2    0  503 -0.14238228482E+03 -0.11454556183E+03  0.31924530513E+02  0.25461883539E+03  0.17440807012E+03 0.  0.
        -24    2    5    5    0    0 -0.10144407948E+03 -0.41819416465E+01 -0.10414754936E+02  0.12943588763E+03  0.79603969682E+02 0.  0.
          2    1    4    4  501    0  0.11858794480E+03  0.31094514169E+02 -0.20482853259E+01  0.12261388558E+03  0.00000000000E+00 0. -1.
         -1    1    4    4    0  501  0.39075879660E+02  0.65082484960E+02 -0.31573634939E+02  0.82216474280E+02  0.00000000000E+00 0.  1.
          5    1    3    3  502    0 -0.15281539649E+02  0.18368562701E+02  0.49739594463E+02  0.55380924578E+02  0.47000000000E+01 0. -1.
         11    1    6    6    0    0 -0.20768966648E+02  0.32314080036E+01  0.31771784114E+02  0.38095120936E+02  0.00000000000E+00 0. -1.
        -12    1    6    6    0    0 -0.80675112834E+02 -0.74133496501E+01 -0.42186539051E+02  0.91340766698E+02  0.00000000000E+00 0.  1.
         -5    1    5    5    0  503 -0.40938205333E+02 -0.11036362018E+03  0.42339285449E+02  0.12518294775E+03  0.47000000000E+01 0.  1.
<mgrwt>
<rscale>  2 0.25791761E+03</rscale>
<asrwt>0</asrwt>
<pdfrwt beam="1">  1       21 0.43297871E-01 0.25971163E+03</pdfrwt>
<pdfrwt beam="2">  1       21 0.35906763E-01 0.25971163E+03</pdfrwt>
<totfact> 0.37172266E+04</totfact>
</mgrwt>
</event>
<event>
12    1  0.2762290E-001  0.2676190E+03  0.7546771E-02  0.1102818E+00
         21   -1    0    0  504  503  0.00000000000E+00  0.00000000000E+00  0.25176990273E+03  0.25176990273E+03  0.00000000000E+00 0. -1.
         21   -1    0    0  502  504 -0.00000000000E+00 -0.00000000000E+00 -0.33724817390E+03  0.33724817390E+03  0.00000000000E+00 0. -1.
          6    2    1    2  502    0  0.14257190031E+03 -0.14576520935E+03 -0.16067779720E+03  0.31214948606E+03  0.17333696697E+03 0.  0.
         24    2    3    3    0    0  0.64636766285E+02 -0.98390087256E+02 -0.20117675811E+02  0.14452632229E+03  0.81391744835E+02 0.  0.
         -6    2    1    2    0  503 -0.14257190031E+03  0.14576520935E+03  0.75199526027E+02  0.27686859057E+03  0.17154301126E+03 0.  0.
        -24    2    5    5    0    0 -0.17697005168E+02  0.22031337586E+02 -0.39100848143E+01  0.84036458944E+02  0.79046023561E+02 0.  0.
          2    1    4    4  501    0  0.61833968157E+02 -0.22344632354E+02 -0.18936285973E+02  0.68420063867E+02  0.00000000000E+00 0. -1.
         -1    1    4    4    0  501  0.28027981285E+01 -0.76045454901E+02 -0.11813898375E+01  0.76106258418E+02  0.00000000000E+00 0.  1.
          5    1    3    3  502    0  0.77935134029E+02 -0.47375122093E+02 -0.14056012139E+03  0.16762316377E+03  0.47000000000E+01 0. -1.
         13    1    6    6    0    0 -0.48984545390E+02  0.18525001663E+02 -0.43418167872E+01  0.52550097495E+02  0.00000000000E+00 0. -1.
        -14    1    6    6    0    0  0.31287540223E+02  0.35063359228E+01  0.43173197291E+00  0.31486361449E+02  0.00000000000E+00 0.  1.
         -5    1    5    5    0  503 -0.12487489515E+03  0.12373387176E+03  0.79109610842E+02  0.19283213162E+03  0.47000000000E+01 0.  1.
<mgrwt>
<rscale>  2 0.26732895E+03</rscale>
<asrwt>0</asrwt>
<pdfrwt beam="1">  1       21 0.38733831E-01 0.26761903E+03</pdfrwt>
<pdfrwt beam="2">  1       21 0.51884334E-01 0.26761903E+03</pdfrwt>
<totfact> 0.21806387E+04</totfact>
</mgrwt>
</event>
<event>
12    1  0.2762290E-001  0.2565049E+03  0.7546771E-02  0.1109394E+00
         21   -1    0    0  504  503  0.00000000000E+00  0.00000000000E+00  0.93456712658E+03  0.93456712658E+03  0.00000000000E+00 0. -1.
         21   -1    0    0  502  504 -0.00000000000E+00 -0.00000000000E+00 -0.11202017761E+03  0.11202017761E+03  0.00000000000E+00 0.  1.
          6    2    1    2  502    0  0.47375646681E+02  0.18191088303E+03  0.90970425451E+02  0.27134607857E+03  0.17325430669E+03 0.  0.
         24    2    3    3    0    0 -0.11285417429E+02  0.78475095724E+02  0.10222662540E+03  0.15180999793E+03  0.79437341557E+02 0.  0.
         -6    2    1    2    0  503 -0.47375646681E+02 -0.18191088303E+03  0.73157652352E+03  0.77524122561E+03  0.17452428730E+03 0.  0.
        -24    2    5    5    0    0 -0.61456410709E+02 -0.20585522369E+03  0.64492398861E+03  0.68412398700E+03  0.77106517076E+02 0.  0.
          2    1    4    4  501    0  0.29978685753E+02  0.13194030414E+02  0.45145559093E+02  0.55775671612E+02  0.00000000000E+00 0. -1.
         -1    1    4    4    0  501 -0.41264103182E+02  0.65281065310E+02  0.57081066312E+02  0.96034326315E+02  0.00000000000E+00 0.  1.
          5    1    3    3  502    0  0.58661064110E+02  0.10343578731E+03 -0.11256199953E+02  0.11953608065E+03  0.47000000000E+01 0. -1.
         11    1    6    6    0    0 -0.77428537479E+02 -0.15761070333E+03  0.53352244710E+03  0.56167830097E+03  0.00000000000E+00 0. -1.
        -12    1    6    6    0    0  0.15972126770E+02 -0.48244520360E+02  0.11140154151E+03  0.12244568604E+03  0.00000000000E+00 0.  1.
         -5    1    5    5    0  503  0.14080764028E+02  0.23944340654E+02  0.86652534914E+02  0.91117238611E+02  0.47000000000E+01 0.  1.
<mgrwt>
<rscale>  2 0.25628900E+03</rscale>
<asrwt>0</asrwt>
<pdfrwt beam="1">  1       21 0.14377955E+00 0.25650487E+03</pdfrwt>
<pdfrwt beam="2">  1       21 0.17233874E-01 0.25650487E+03</pdfrwt>
<totfact> 0.97341521E+03</totfact>
</mgrwt>
</event>
<event>
12    1  0.2762290E-001  0.3166967E+03  0.7546771E-02  0.1077240E+00
         21   -1    0    0  504  503  0.00000000000E+00  0.00000000000E+00  0.26622172932E+03  0.26622172932E+03  0.00000000000E+00 0. -1.
         21   -1    0    0  502  504 -0.00000000000E+00 -0.00000000000E+00 -0.39918524760E+03  0.39918524760E+03  0.00000000000E+00 0.  1.
          6    2    1    2  502    0  0.14376295450E+03  0.22346619054E+03  0.13539204422E+02  0.31646594147E+03  0.17135476840E+03 0.  0.
         24    2    3    3    0    0  0.11360059819E+03  0.63845514936E+02 -0.45287551066E+01  0.15295120519E+03  0.79951334326E+02 0.  0.
         -6    2    1    2    0  503 -0.14376295450E+03 -0.22346619054E+03 -0.14650272271E+03  0.34894103545E+03  0.17231329913E+03 0.  0.
        -24    2    5    5    0    0 -0.67743637570E+02 -0.19236997987E+03 -0.55713229602E+02  0.22642273917E+03  0.81042478209E+02 0.  0.
          2    1    4    4  501    0  0.60177191825E+02  0.17306280318E+02  0.35086535057E+02  0.71776505186E+02  0.00000000000E+00 0. -1.
         -1    1    4    4    0  501  0.53423406366E+02  0.46539234617E+02 -0.39615290164E+02  0.81174700007E+02  0.00000000000E+00 0.  1.
          5    1    3    3  502    0  0.30162356309E+02  0.15962067560E+03  0.18067959528E+02  0.16351473628E+03  0.47000000000E+01 0. -1.
         13    1    6    6    0    0 -0.48878843458E+02 -0.97087175290E+02  0.99904216027E+01  0.10915525396E+03  0.00000000000E+00 0. -1.
        -14    1    6    6    0    0 -0.18864794111E+02 -0.95282804580E+02 -0.65703651205E+02  0.11726748521E+03  0.00000000000E+00 0.  1.
         -5    1    5    5    0  503 -0.76019316931E+02 -0.31096210670E+02 -0.90789493104E+02  0.12251829628E+03  0.47000000000E+01 0.  1.
<mgrwt>
<rscale>  2 0.31656649E+03</rscale>
<asrwt>0</asrwt>
<pdfrwt beam="1">  1       21 0.40957189E-01 0.31669670E+03</pdfrwt>
<pdfrwt beam="2">  1       21 0.61413115E-01 0.31669670E+03</pdfrwt>
<totfact> 0.13271374E+04</totfact>
</mgrwt>
</event>
<event>
12    1  0.2762290E-001  0.2591189E+03  0.7546771E-02  0.1107722E+00
         21   -1    0    0  504  503  0.00000000000E+00  0.00000000000E+00  0.59184511107E+03  0.59184511107E+03  0.00000000000E+00 0. -1.
         21   -1    0    0  502  504 -0.00000000000E+00 -0.00000000000E+00 -0.13344594334E+03  0.13344594334E+03  0.00000000000E+00 0.  1.
          6    2    1    2  502    0 -0.18858928818E+03 -0.36934537344E+02  0.88193605471E+02  0.27341192594E+03  0.17333750181E+03 0.  0.
         24    2    3    3    0    0 -0.17354425334E+03 -0.83944197411E+02  0.77142755517E+02  0.22261357461E+03  0.80259346651E+02 0.  0.
         -6    2    1    2    0  503  0.18858928818E+03  0.36934537344E+02  0.37020556226E+03  0.45187912848E+03  0.17381745815E+03 0.  0.
        -24    2    5    5    0    0  0.16368751969E+02 -0.37844430544E+01  0.10447652079E+03  0.13257995538E+03  0.79873920163E+02 0.  0.
          2    1    4    4  501    0 -0.10562483485E+03 -0.88133277008E+02  0.69537822041E+02  0.15414145759E+03  0.00000000000E+00 0. -1.
         -1    1    4    4    0  501 -0.67919418493E+02  0.41890795971E+01  0.76049334758E+01  0.68472117022E+02  0.00000000000E+00 0.  1.
          5    1    3    3  502    0 -0.15045034841E+02  0.47009660067E+02  0.11050849954E+02  0.50798351329E+02  0.47000000000E+01 0. -1.
         13    1    6    6    0    0  0.18422243766E+02 -0.26036502684E+02  0.71043504311E+01  0.32676449202E+02  0.00000000000E+00 0. -1.
        -14    1    6    6    0    0 -0.20534917968E+01  0.22252059630E+02  0.97372170363E+02  0.99903506182E+02  0.00000000000E+00 0.  1.
         -5    1    5    5    0  503  0.17222053622E+03  0.40718980398E+02  0.26572904146E+03  0.31929917309E+03  0.47000000000E+01 0.  1.
<mgrwt>
<rscale>  2 0.25903840E+03</rscale>
<asrwt>0</asrwt>
<pdfrwt beam="1">  1       21 0.91053093E-01 0.25911887E+03</pdfrwt>
<pdfrwt beam="2">  1       21 0.20530145E-01 0.25911887E+03</pdfrwt>
<totfact> 0.21687422E+04</totfact>
</mgrwt>
</event>
<event>
12    1  0.2762290E-001  0.1870591E+03  0.7546771E-02  0.1163977E+00
         21   -1    0    0  504  503  0.00000000000E+00  0.00000000000E+00  0.13989030738E+03  0.13989030738E+03  0.00000000000E+00 0. -1.
         21   -1    0    0  502  504 -0.00000000000E+00 -0.00000000000E+00 -0.58169068850E+03  0.58169068850E+03  0.00000000000E+00 0. -1.
          6    2    1    2  502    0 -0.23200688358E+02 -0.10638547409E+02 -0.49666121947E+03  0.52664302874E+03  0.17328895568E+03 0.  0.
         24    2    3    3    0    0 -0.11911695900E+02 -0.62098659855E+02 -0.42688684570E+03  0.43908654549E+03  0.81033840734E+02 0.  0.
         -6    2    1    2    0  503  0.23200688358E+02  0.10638547409E+02  0.54860838350E+02  0.19493796714E+03  0.18530960261E+03 0.  0.
        -24    2    5    5    0    0 -0.26935595376E+02  0.32573383506E+02 -0.29353531685E+02  0.94394771940E+02  0.79134009983E+02 0.  0.
          2    1    4    4  501    0 -0.37693963612E+01 -0.44091140760E+02 -0.41193482637E+03  0.41430488558E+03  0.00000000000E+00 0. -1.
         -1    1    4    4    0  501 -0.81422995390E+01 -0.18007519095E+02 -0.14952019334E+02  0.24781659910E+02  0.00000000000E+00 0.  1.
          5    1    3    3  502    0 -0.11288992458E+02  0.51460112446E+02 -0.69774373766E+02  0.87556483244E+02  0.47000000000E+01 0. -1.
         13    1    6    6    0    0 -0.19955430398E+02 -0.24607976149E+02 -0.60548559738E+01  0.32255743262E+02  0.00000000000E+00 0. -1.
        -14    1    6    6    0    0 -0.69801649776E+01  0.57181359655E+02 -0.23298675711E+02  0.62139028678E+02  0.00000000000E+00 0.  1.
         -5    1    5    5    0  503  0.50136283734E+02 -0.21934836097E+02  0.84214370036E+02  0.10054319520E+03  0.47000000000E+01 0.  1.
<mgrwt>
<rscale>  2 0.18401021E+03</rscale>
<asrwt>0</asrwt>
<pdfrwt beam="1">  1       21 0.21521586E-01 0.18705908E+03</pdfrwt>
<pdfrwt beam="2">  1       21 0.89490875E-01 0.18705908E+03</pdfrwt>
<totfact> 0.21487522E+04</totfact>
</mgrwt>
</event>
<event>
12    1  0.2762290E-001  0.1744738E+03  0.7546771E-02  0.1173279E+00
         21   -1    0    0  504  503  0.00000000000E+00  0.00000000000E+00  0.66394210813E+02  0.66394210813E+02  0.00000000000E+00 0. -1.
         21   -1    0    0  502  504 -0.00000000000E+00 -0.00000000000E+00 -0.55470305395E+03  0.55470305395E+03  0.00000000000E+00 0. -1.
          6    2    1    2  502    0 -0.12651967696E+02  0.21575342236E+02 -0.11465593923E+03  0.20871684620E+03  0.17260118715E+03 0.  0.
         24    2    3    3    0    0 -0.12181775134E+01 -0.30566559827E+02 -0.24801918889E+01  0.84398714775E+02  0.78620564535E+02 0.  0.
         -6    2    1    2    0  503  0.12651967696E+02 -0.21575342236E+02 -0.37365290391E+03  0.41238041857E+03  0.17267179660E+03 0.  0.
        -24    2    5    5    0    0 -0.65630284815E+01 -0.23635015436E+02 -0.38167272054E+03  0.39093593698E+03  0.80963905017E+02 0.  0.
          2    1    4    4  501    0  0.79645104169E+01  0.10290577088E+02  0.29147781155E+02  0.31920566242E+02  0.00000000000E+00 0. -1.
         -1    1    4    4    0  501 -0.91826879304E+01 -0.40857136916E+02 -0.31627973044E+02  0.52478148533E+02  0.00000000000E+00 0.  1.
          5    1    3    3  502    0 -0.11433790183E+02  0.52141902063E+02 -0.11217574734E+03  0.12431813142E+03  0.47000000000E+01 0. -1.
         11    1    6    6    0    0  0.11172098056E+02 -0.50109309200E+02 -0.19966818015E+03  0.20616289871E+03  0.00000000000E+00 0. -1.
        -12    1    6    6    0    0 -0.17735126538E+02  0.26474293764E+02 -0.18200454040E+03  0.18477303826E+03  0.00000000000E+00 0.  1.
         -5    1    5    5    0  503  0.19214996178E+02  0.20596731997E+01  0.80198166360E+01  0.21444481590E+02  0.47000000000E+01 0.  1.
<mgrwt>
<rscale>  2 0.17445636E+03</rscale>
<asrwt>0</asrwt>
<pdfrwt beam="1">  1       21 0.10214494E-01 0.17447383E+03</pdfrwt>
<pdfrwt beam="2">  1       21 0.85338933E-01 0.17447383E+03</pdfrwt>
<totfact> 0.93499251E+04</totfact>
</mgrwt>
</event>
<event>
12    1  0.2762290E-001  0.2421276E+03  0.7546771E-02  0.1119411E+00
         21   -1    0    0  504  503  0.00000000000E+00  0.00000000000E+00  0.59313239556E+02  0.59313239556E+02  0.00000000000E+00 0. -1.
         21   -1    0    0  502  504 -0.00000000000E+00 -0.00000000000E+00 -0.10409146787E+04  0.10409146787E+04  0.00000000000E+00 0. -1.
          6    2    1    2  502    0 -0.14448139868E+03 -0.88501699832E+02 -0.64671703374E+03  0.69055680971E+03  0.17296924660E+03 0.  0.
         24    2    3    3    0    0 -0.14127224611E+03 -0.66214702770E+02 -0.39799569866E+03  0.44077410130E+03  0.10741972741E+03 0.  0.
         -6    2    1    2    0  503  0.14448139868E+03  0.88501699832E+02 -0.33488440539E+03  0.40967110853E+03  0.16424197623E+03 0.  0.
        -24    2    5    5    0    0  0.47250223931E+02  0.82150583094E+02 -0.11891745177E+03  0.17269420442E+03  0.81857351171E+02 0.  0.
          4    1    4    4  501    0 -0.80044697380E+01  0.23599490537E+02 -0.89813564233E+02  0.93206672560E+02  0.00000000000E+00 0. -1.
         -3    1    4    4    0  501 -0.13326777637E+03 -0.89814193307E+02 -0.30818213443E+03  0.34756742874E+03  0.00000000000E+00 0.  1.
          5    1    3    3  502    0 -0.32091525681E+01 -0.22286997062E+02 -0.24872133508E+03  0.24978270841E+03  0.47000000000E+01 0. -1.
         13    1    6    6    0    0  0.60568159596E+02  0.28623250785E+02 -0.45999156352E+02  0.81263244012E+02  0.00000000000E+00 0. -1.
        -14    1    6    6    0    0 -0.13317935664E+02  0.53527332309E+02 -0.72918295419E+02  0.91430960409E+02  0.00000000000E+00 0.  1.
         -5    1    5    5    0  503  0.97231174747E+02  0.63511167389E+01 -0.21596695362E+03  0.23697690411E+03  0.47000000000E+01 0.  1.
<mgrwt>
<rscale>  2 0.24057386E+03</rscale>
<asrwt>0</asrwt>
<pdfrwt beam="1">  1       21 0.91251142E-02 0.24212762E+03</pdfrwt>
<pdfrwt beam="2">  1       21 0.16014071E+00 0.24212762E+03</pdfrwt>
<totfact> 0.23217352E+04</totfact>
</mgrwt>
</event>
<event>
12    1  0.2762290E-001  0.2469451E+03  0.7546771E-02  0.1115291E+00
         21   -1    0    0  504  503  0.00000000000E+00  0.00000000000E+00  0.96866400186E+03  0.96866400186E+03  0.00000000000E+00 0. -1.
         21   -1    0    0  502  504 -0.00000000000E+00 -0.00000000000E+00 -0.14640562164E+03  0.14640562164E+03  0.00000000000E+00 0. -1.
          6    2    1    2  502    0  0.11207058750E+02  0.17566772990E+03 -0.98716689021E+01  0.24714232802E+03  0.17319679835E+03 0.  0.
         24    2    3    3    0    0  0.64597138524E+02  0.83384431384E+02  0.29263513371E+02  0.13347456524E+03  0.76376388034E+02 0.  0.
         -6    2    1    2    0  503 -0.11207058750E+02 -0.17566772990E+03  0.83213004912E+03  0.86792729548E+03  0.17283698129E+03 0.  0.
        -24    2    5    5    0    0 -0.74586343982E+02 -0.11224142862E+03  0.54369706863E+03  0.56584203645E+03  0.80059020543E+02 0.  0.
          4    1    4    4  501    0  0.53132839508E+02  0.92326394442E+02  0.68308536094E+01  0.10674231732E+03  0.00000000000E+00 0. -1.
         -3    1    4    4    0  501  0.11464299016E+02 -0.89419630581E+01  0.22432659761E+02  0.26732247927E+02  0.00000000000E+00 0.  1.
          5    1    3    3  502    0 -0.53390079774E+02  0.92283298521E+02 -0.39135182273E+02  0.11366776278E+03  0.47000000000E+01 0. -1.
         11    1    6    6    0    0 -0.60853437727E+02 -0.11723621825E+03  0.52851001209E+03  0.54476628441E+03  0.00000000000E+00 0. -1.
        -12    1    6    6    0    0 -0.13732906254E+02  0.49947896323E+01  0.15187056544E+02  0.21075752042E+02  0.00000000000E+00 0.  1.
         -5    1    5    5    0  503  0.63379285231E+02 -0.63426301283E+02  0.28843298049E+03  0.30208525903E+03  0.47000000000E+01 0.  1.
<mgrwt>
<rscale>  2 0.24688202E+03</rscale>
<asrwt>0</asrwt>
<pdfrwt beam="1">  1       21 0.14902523E+00 0.24694510E+03</pdfrwt>
<pdfrwt beam="2">  1       21 0.22523942E-01 0.24694510E+03</pdfrwt>
<totfact> 0.53895949E+03</totfact>
</mgrwt>
</event>
<event>
12    1  0.2762290E-001  0.2618751E+03  0.7546771E-02  0.1106103E+00
         21   -1    0    0  504  503  0.00000000000E+00  0.00000000000E+00  0.28732094695E+03  0.28732094695E+03  0.00000000000E+00 0. -1.
         21   -1    0    0  502  504 -0.00000000000E+00 -0.00000000000E+00 -0.77359027371E+03  0.77359027371E+03  0.00000000000E+00 0.  1.
          6    2    1    2  502    0  0.68747778917E+02 -0.18253922657E+03 -0.68451326618E+03  0.73289629120E+03  0.17473332750E+03 0.  0.
         24    2    3    3    0    0  0.65626241432E+02 -0.28593906070E+02 -0.29181190083E+03  0.31106059090E+03  0.80499010661E+02 0.  0.
         -6    2    1    2    0  503 -0.68747778917E+02  0.18253922657E+03  0.19824393942E+03  0.32801492946E+03  0.17391465749E+03 0.  0.
        -24    2    5    5    0    0 -0.43221046908E+02  0.33014326370E+02  0.12564553075E+03  0.15978315847E+03  0.82376293273E+02 0.  0.
          4    1    4    4  501    0  0.71945475944E+02  0.56476382212E+01 -0.21318684946E+03  0.22507038923E+03  0.00000000000E+00 0. -1.
         -3    1    4    4    0  501 -0.63192345124E+01 -0.34241544292E+02 -0.78625051364E+02  0.85990201664E+02  0.00000000000E+00 0.  1.
          5    1    3    3  502    0  0.31215374858E+01 -0.15394532050E+03 -0.39270136535E+03  0.42183570030E+03  0.47000000000E+01 0. -1.
         13    1    6    6    0    0 -0.25116563127E+02  0.41314346764E+02  0.20077538122E+02  0.52352884628E+02  0.00000000000E+00 0. -1.
        -14    1    6    6    0    0 -0.18104483781E+02 -0.83000203939E+01  0.10556799263E+03  0.10743027385E+03  0.00000000000E+00 0.  1.
         -5    1    5    5    0  503 -0.25526732010E+02  0.14952490020E+03  0.72598408669E+02  0.16823177098E+03  0.47000000000E+01 0.  1.
<mgrwt>
<rscale>  2 0.26173860E+03</rscale>
<asrwt>0</asrwt>
<pdfrwt beam="1">  1       21 0.44203223E-01 0.26187509E+03</pdfrwt>
<pdfrwt beam="2">  1       21 0.11901389E+00 0.26187509E+03</pdfrwt>
<totfact> 0.25100560E+03</totfact>
</mgrwt>
</event>
<event>
12    1  0.2762290E-001  0.1774754E+03  0.7546771E-02  0.1171320E+00
         21   -1    0    0  504  503  0.00000000000E+00  0.00000000000E+00  0.27396176736E+02  0.27396176736E+02  0.00000000000E+00 0.  1.
         21   -1    0    0  502  504 -0.00000000000E+00 -0.00000000000E+00 -0.12040055511E+04  0.12040055511E+04  0.00000000000E+00 0.  1.
          6    2    1    2  502    0  0.33722149810E+02 -0.16603448290E+02 -0.75497573721E+03  0.77555520831E+03  0.17344929946E+03 0.  0.
         24    2    3    3    0    0  0.45725211979E+02  0.35475939327E+02 -0.27499191517E+03  0.29258223233E+03  0.81452268117E+02 0.  0.
         -6    2    1    2    0  503 -0.33722149810E+02  0.16603448290E+02 -0.42163363713E+03  0.45584651950E+03  0.16913978685E+03 0.  0.
        -24    2    5    5    0    0 -0.30368169169E+02  0.80983720930E+02 -0.28451927683E+03  0.30425988918E+03  0.64360488820E+02 0.  0.
          2    1    4    4  501    0  0.15777489126E+02 -0.19983389385E+02 -0.28757574410E+02  0.38409153862E+02  0.00000000000E+00 0. -1.
         -1    1    4    4    0  501  0.29947722852E+02  0.55459328713E+02 -0.24623434076E+03  0.25417307847E+03  0.00000000000E+00 0.  1.
          5    1    3    3  502    0 -0.12003062168E+02 -0.52079387618E+02 -0.47998382204E+03  0.48297297599E+03  0.47000000000E+01 0. -1.
         11    1    6    6    0    0 -0.49325206219E+02  0.50031185241E+02 -0.16457882361E+03  0.17894771484E+03  0.00000000000E+00 0. -1.
        -12    1    6    6    0    0  0.18957037050E+02  0.30952535689E+02 -0.11994045322E+03  0.12531217434E+03  0.00000000000E+00 0.  1.
         -5    1    5    5    0  503 -0.33539806410E+01 -0.64380272640E+02 -0.13711436030E+03  0.15158663032E+03  0.47000000000E+01 0.  1.
<mgrwt>
<rscale>  2 0.17641357E+03</rscale>
<asrwt>0</asrwt>
<pdfrwt beam="1">  1       21 0.42147952E-02 0.17747540E+03</pdfrwt>
<pdfrwt beam="2">  1       21 0.18523168E+00 0.17747540E+03</pdfrwt>
<totfact> 0.60768705E+04</totfact>
</mgrwt>
</event>
<event>
12    1  0.2762290E-001  0.1749057E+03  0.7546771E-02  0.1172836E+00
         21   -1    0    0  504  503  0.00000000000E+00  0.00000000000E+00  0.13212671053E+04  0.13212671053E+04  0.00000000000E+00 0.  1.
         21   -1    0    0  502  504 -0.00000000000E+00 -0.00000000000E+00 -0.11476023415E+03  0.11476023415E+03  0.00000000000E+00 0.  1.
          6    2    1    2  502    0 -0.18537027360E+02 -0.30600779637E+02 -0.38281918633E+02  0.17901057709E+03  0.17117024367E+03 0.  0.
         24    2    3    3    0    0  0.19364045283E+02 -0.69381932513E+02  0.74113305286E+01  0.10794418458E+03  0.80051235814E+02 0.  0.
         -6    2    1    2    0  503  0.18537027360E+02  0.30600779637E+02  0.12447887898E+04  0.12570167623E+04  0.17120741969E+03 0.  0.
        -24    2    5    5    0    0 -0.15697071187E+02 -0.31987742779E+02  0.42165882755E+03  0.43078778599E+03  0.80699045711E+02 0.  0.
          2    1    4    4  501    0  0.19530289299E+02  0.11286011242E+02  0.14737007693E+02  0.26944120798E+02  0.00000000000E+00 0. -1.
         -1    1    4    4    0  501 -0.16624401582E+00 -0.80667943755E+02 -0.73256771640E+01  0.81000063782E+02  0.00000000000E+00 0.  1.
          5    1    3    3  502    0 -0.37901072643E+02  0.38781152876E+02 -0.45693249162E+02  0.71066392514E+02  0.47000000000E+01 0. -1.
         11    1    6    6    0    0 -0.31161016260E+02 -0.21693479822E+02  0.40181684900E+03  0.40360673450E+03  0.00000000000E+00 0. -1.
        -12    1    6    6    0    0  0.15463945073E+02 -0.10294262957E+02  0.19841978554E+02  0.27181051488E+02  0.00000000000E+00 0.  1.
         -5    1    5    5    0  503  0.34234098547E+02  0.62588522416E+02  0.82312996221E+03  0.82622897633E+03  0.47000000000E+01 0.  1.
<mgrwt>
<rscale>  2 0.17489662E+03</rscale>
<asrwt>0</asrwt>
<pdfrwt beam="1">  1       21 0.20327185E+00 0.17490572E+03</pdfrwt>
<pdfrwt beam="2">  1       21 0.17655422E-01 0.17490572E+03</pdfrwt>
<totfact> 0.37900669E+03</totfact>
</mgrwt>
</event>
<event>
12    1  0.2762290E-001  0.4294911E+03  0.7546771E-02  0.1034046E+00
         21   -1    0    0  504  503  0.00000000000E+00  0.00000000000E+00  0.94950368840E+03  0.94950368840E+03  0.00000000000E+00 0. -1.
         21   -1    0    0  502  504 -0.00000000000E+00 -0.00000000000E+00 -0.32144823012E+03  0.32144823012E+03  0.00000000000E+00 0.  1.
          6    2    1    2  502    0 -0.37860581898E+03 -0.10633767849E+03 -0.85841410203E+02  0.43798553603E+03  0.17266300715E+03 0.  0.
         24    2    3    3    0    0 -0.20768600893E+03 -0.47020439962E+02 -0.11250757536E+03  0.25505032724E+03  0.83954242489E+02 0.  0.
         -6    2    1    2    0  503  0.37860581898E+03  0.10633767849E+03  0.71389686847E+03  0.83296638249E+03  0.17185513524E+03 0.  0.
        -24    2    5    5    0    0  0.19085168280E+03  0.33257386241E+01  0.26996287453E+03  0.34005406129E+03  0.79507141890E+02 0.  0.
          4    1    4    4  501    0 -0.76960202835E+02 -0.45897149908E+02 -0.80505383655E+02  0.12045969445E+03  0.00000000000E+00 0. -1.
         -3    1    4    4    0  501 -0.13072580610E+03 -0.11232900546E+01 -0.32002191702E+02  0.13459063279E+03  0.00000000000E+00 0.  1.
          5    1    3    3  502    0 -0.17091981004E+03 -0.59317238528E+02  0.26666165155E+02  0.18293520879E+03  0.47000000000E+01 0. -1.
         13    1    6    6    0    0  0.12807006448E+03  0.16502321391E+02  0.23199490291E+03  0.26551064575E+03  0.00000000000E+00 0. -1.
        -14    1    6    6    0    0  0.62781618321E+02 -0.13176582767E+02  0.37967971615E+02  0.74543415545E+02  0.00000000000E+00 0.  1.
         -5    1    5    5    0  503  0.18775413617E+03  0.10301193987E+03  0.44393399395E+03  0.49291232120E+03  0.47000000000E+01 0.  1.
<mgrwt>
<rscale>  2 0.42941002E+03</rscale>
<asrwt>0</asrwt>
<pdfrwt beam="1">  1       21 0.14607749E+00 0.42949107E+03</pdfrwt>
<pdfrwt beam="2">  1       21 0.49453574E-01 0.42949107E+03</pdfrwt>
<totfact> 0.10665430E+03</totfact>
</mgrwt>
</event>
<event>
12    1  0.2762290E-001  0.1819829E+03  0.7546771E-02  0.1166598E+00
         21   -1    0    0  504  503  0.00000000000E+00  0.00000000000E+00  0.26302854488E+03  0.26302854488E+03  0.00000000000E+00 0. -1.
         21   -1    0    0  502  504 -0.00000000000E+00 -0.00000000000E+00 -0.12588742286E+03  0.12588742286E+03  0.00000000000E+00 0. -1.
          6    2    1    2  502    0 -0.47370193459E+02  0.14751623286E+02  0.92433542596E+02  0.20152191066E+03  0.17206270677E+03 0.  0.
         24    2    3    3    0    0 -0.43014308317E+02  0.20550691089E+02 -0.14702161049E+02  0.94038182037E+02  0.79714895202E+02 0.  0.
         -6    2    1    2    0  503  0.47370193459E+02 -0.14751623286E+02  0.44707579425E+02  0.18739405709E+03  0.17508917544E+03 0.  0.
        -24    2    5    5    0    0  0.89056327140E+02  0.58246235686E+00  0.67439552160E+02  0.13727718859E+03  0.79784488748E+02 0.  0.
          2    1    4    4  501    0 -0.39876256958E+02  0.38538833843E+02 -0.35898713192E+02  0.66061147369E+02  0.00000000000E+00 0. -1.
         -1    1    4    4    0  501 -0.31380513591E+01 -0.17988142754E+02  0.21196552142E+02  0.27977034668E+02  0.00000000000E+00 0.  1.
          5    1    3    3  502    0 -0.43558851421E+01 -0.57990678022E+01  0.10713570365E+03  0.10748372862E+03  0.47000000000E+01 0. -1.
         11    1    6    6    0    0  0.64509316793E+02 -0.37144226474E+02  0.45007457992E+02  0.86987451902E+02  0.00000000000E+00 0. -1.
        -12    1    6    6    0    0  0.24547010348E+02  0.37726688831E+02  0.22432094168E+02  0.50289736685E+02  0.00000000000E+00 0.  1.
         -5    1    5    5    0  503 -0.41686133682E+02 -0.15334085643E+02 -0.22731972735E+02  0.50116868500E+02  0.47000000000E+01 0.  1.
<mgrwt>
<rscale>  2 0.18125099E+03</rscale>
<asrwt>0</asrwt>
<pdfrwt beam="1">  1       21 0.40465930E-01 0.18198287E+03</pdfrwt>
<pdfrwt beam="2">  1       21 0.19367296E-01 0.18198287E+03</pdfrwt>
<totfact> 0.14471840E+05</totfact>
</mgrwt>
</event>
<event>
12    1  0.2762290E-001  0.2807013E+03  0.7546771E-02  0.1095339E+00
         21   -1    0    0  504  503  0.00000000000E+00  0.00000000000E+00  0.80615605592E+02  0.80615605592E+02  0.00000000000E+00 0. -1.
         21   -1    0    0  502  504 -0.00000000000E+00 -0.00000000000E+00 -0.11300560805E+04  0.11300560805E+04  0.00000000000E+00 0. -1.
          6    2    1    2  502    0 -0.15906123292E+03  0.15403980780E+03 -0.74800631493E+03  0.79894095659E+03  0.17252381501E+03 0.  0.
         24    2    3    3    0    0 -0.57248024662E+02  0.10154250423E+03 -0.56879871503E+03  0.58619850639E+03  0.80675238953E+02 0.  0.
         -6    2    1    2    0  503  0.15906123292E+03 -0.15403980780E+03 -0.30143415995E+03  0.41173072947E+03  0.17213629076E+03 0.  0.
        -24    2    5    5    0    0  0.14482759310E+03 -0.63839916496E+02 -0.25059082160E+03  0.30710878173E+03  0.80433060895E+02 0.  0.
          2    1    4    4  501    0 -0.11580048816E+02  0.91140621300E+02 -0.31544681419E+03  0.32855350092E+03  0.00000000000E+00 0. -1.
         -1    1    4    4    0  501 -0.45667975846E+02  0.10401882935E+02 -0.25335190084E+03  0.25764500547E+03  0.00000000000E+00 0.  1.
          5    1    3    3  502    0 -0.10181320826E+03  0.52497303562E+02 -0.17920759990E+03  0.21274245021E+03  0.47000000000E+01 0. -1.
         11    1    6    6    0    0  0.33887569308E+02 -0.56399917741E+02 -0.81662478260E+02  0.10487172369E+03  0.00000000000E+00 0. -1.
        -12    1    6    6    0    0  0.11094002379E+03 -0.74399987552E+01 -0.16892834334E+03  0.20223705804E+03  0.00000000000E+00 0.  1.
         -5    1    5    5    0  503  0.14233639824E+02 -0.90199891301E+02 -0.50843338347E+02  0.10462194773E+03  0.47000000000E+01 0.  1.
<mgrwt>
<rscale>  2 0.28064175E+03</rscale>
<asrwt>0</asrwt>
<pdfrwt beam="1">  1       21 0.12402401E-01 0.28070127E+03</pdfrwt>
<pdfrwt beam="2">  1       21 0.17385478E+00 0.28070127E+03</pdfrwt>
<totfact> 0.10460749E+04</totfact>
</mgrwt>
</event>
<event>
12    1  0.2762290E-001  0.1863657E+03  0.7546771E-02  0.1161906E+00
         21   -1    0    0  504  503  0.00000000000E+00  0.00000000000E+00  0.78276967164E+02  0.78276967164E+02  0.00000000000E+00 0. -1.
         21   -1    0    0  502  504 -0.00000000000E+00 -0.00000000000E+00 -0.55395172140E+03  0.55395172140E+03  0.00000000000E+00 0. -1.
          6    2    1    2  502    0 -0.20826605514E+02 -0.64435765028E+02 -0.96270862084E+02  0.20976239037E+03  0.17362737749E+03 0.  0.
         24    2    3    3    0    0 -0.25375537453E+02 -0.89322646122E+02 -0.11942999609E+03  0.17514324653E+03  0.88256330233E+02 0.  0.
         -6    2    1    2    0  503  0.20826605514E+02  0.64435765028E+02 -0.37940389215E+03  0.42246629819E+03  0.17304549811E+03 0.  0.
        -24    2    5    5    0    0  0.19612025446E+02  0.10940469279E+03 -0.31049426846E+03  0.34003871842E+03  0.82859042564E+02 0.  0.
          2    1    4    4  501    0 -0.99174712473E+01 -0.91008499933E+02 -0.50644443420E+02  0.10462200029E+03  0.00000000000E+00 0. -1.
         -1    1    4    4    0  501 -0.15458066206E+02  0.16858538112E+01 -0.68785552673E+02  0.70521246235E+02  0.00000000000E+00 0.  1.
          5    1    3    3  502    0  0.45489319387E+01  0.24886881093E+02  0.23159134009E+02  0.34619143843E+02  0.47000000000E+01 0. -1.
         11    1    6    6    0    0  0.19468630467E+02  0.98272679685E+02 -0.31298745503E+03  0.32863002624E+03  0.00000000000E+00 0. -1.
        -12    1    6    6    0    0  0.14339497838E+00  0.11132013108E+02  0.24931865700E+01  0.11408692179E+02  0.00000000000E+00 0.  1.
         -5    1    5    5    0  503  0.12145800685E+01 -0.44968927765E+02 -0.68909623693E+02  0.82427579769E+02  0.47000000000E+01 0.  1.
<mgrwt>
<rscale>  2 0.18623008E+03</rscale>
<asrwt>0</asrwt>
<pdfrwt beam="1">  1       21 0.12042610E-01 0.18636572E+03</pdfrwt>
<pdfrwt beam="2">  1       21 0.85223344E-01 0.18636572E+03</pdfrwt>
<totfact> 0.69646403E+04</totfact>
</mgrwt>
</event>
<event>
12    1  0.2762290E-001  0.1809189E+03  0.7546771E-02  0.1167415E+00
         21   -1    0    0  504  503  0.00000000000E+00  0.00000000000E+00  0.14715070387E+03  0.14715070387E+03  0.00000000000E+00 0. -1.
         21   -1    0    0  502  504 -0.00000000000E+00 -0.00000000000E+00 -0.30748721297E+03  0.30748721297E+03  0.00000000000E+00 0.  1.
          6    2    1    2  502    0 -0.49276395565E+01 -0.53460853433E+02 -0.20181086352E+03  0.27103374206E+03  0.17276955813E+03 0.  0.
         24    2    3    3    0    0  0.14285610881E+02 -0.36887945840E+02 -0.22127117771E+03  0.23871340655E+03  0.80363904565E+02 0.  0.
         -6    2    1    2    0  503  0.49276395565E+01  0.53460853433E+02  0.41474354412E+02  0.18360417478E+03  0.17061074539E+03 0.  0.
        -24    2    5    5    0    0 -0.45647450533E+02  0.37646546086E+02  0.68324992981E+02  0.12401408461E+03  0.84913110555E+02 0.  0.
          4    1    4    4  501    0 -0.15626760900E+02  0.55919513809E+01 -0.14779667058E+03  0.14872565821E+03  0.00000000000E+00 0. -1.
         -3    1    4    4    0  501  0.29912371781E+02 -0.42479897221E+02 -0.73474507131E+02  0.89987748341E+02  0.00000000000E+00 0.  1.
          5    1    3    3  502    0 -0.19213250438E+02 -0.16572907592E+02  0.19460314193E+02  0.32320335502E+02  0.47000000000E+01 0. -1.
         11    1    6    6    0    0 -0.19391449919E+02 -0.27271664923E+02  0.21518808076E+02  0.39784810401E+02  0.00000000000E+00 0. -1.
        -12    1    6    6    0    0 -0.26256000615E+02  0.64918211009E+02  0.46806184906E+02  0.84229274212E+02  0.00000000000E+00 0.  1.
         -5    1    5    5    0  503  0.50575090090E+02  0.15814307347E+02 -0.26850638569E+02  0.59590090166E+02  0.47000000000E+01 0.  1.
<mgrwt>
<rscale>  2 0.18040162E+03</rscale>
<asrwt>0</asrwt>
<pdfrwt beam="1">  1       21 0.22638570E-01 0.18091895E+03</pdfrwt>
<pdfrwt beam="2">  1       21 0.47305724E-01 0.18091895E+03</pdfrwt>
<totfact> 0.78557925E+04</totfact>
</mgrwt>
</event>
<event>
12    1  0.2762290E-001  0.2290121E+03  0.7546771E-02  0.1127390E+00
         21   -1    0    0  504  503  0.00000000000E+00  0.00000000000E+00  0.32354423892E+03  0.32354423892E+03  0.00000000000E+00 0. -1.
         21   -1    0    0  502  504 -0.00000000000E+00 -0.00000000000E+00 -0.22507723361E+03  0.22507723361E+03  0.00000000000E+00 0.  1.
          6    2    1    2  502    0 -0.14761974631E+03 -0.27310134118E+02 -0.96135896829E+02  0.24809389275E+03  0.17254285275E+03 0.  0.
         24    2    3    3    0    0 -0.89099031564E+02 -0.57180649440E+02 -0.16823925462E+01  0.13293975166E+03  0.80385838492E+02 0.  0.
         -6    2    1    2    0  503  0.14761974631E+03  0.27310134118E+02  0.19460290214E+03  0.30052757978E+03  0.17294248686E+03 0.  0.
        -24    2    5    5    0    0  0.14143393416E+02  0.46830262941E+01  0.29957631713E+02  0.87318579348E+02  0.80654251524E+02 0.  0.
          4    1    4    4  501    0 -0.49918749809E+02 -0.53018531076E+02  0.33463580066E+02  0.80141483707E+02  0.00000000000E+00 0. -1.
         -3    1    4    4    0  501 -0.39180281755E+02 -0.41621183643E+01 -0.35145972612E+02  0.52798267950E+02  0.00000000000E+00 0.  1.
          5    1    3    3  502    0 -0.58520714747E+02  0.29870515323E+02 -0.94453504283E+02  0.11515414110E+03  0.47000000000E+01 0. -1.
         13    1    6    6    0    0 -0.18145818490E+02  0.33129925508E+02  0.21495464768E+02  0.43461680806E+02  0.00000000000E+00 0. -1.
        -14    1    6    6    0    0  0.32289211906E+02 -0.28446899214E+02  0.84621669449E+01  0.43856898543E+02  0.00000000000E+00 0.  1.
         -5    1    5    5    0  503  0.13347635289E+03  0.22627107823E+02  0.16464527043E+03  0.21320900043E+03  0.47000000000E+01 0.  1.
<mgrwt>
<rscale>  2 0.22893664E+03</rscale>
<asrwt>0</asrwt>
<pdfrwt beam="1">  1       21 0.49776037E-01 0.22901209E+03</pdfrwt>
<pdfrwt beam="2">  1       21 0.34627267E-01 0.22901209E+03</pdfrwt>
<totfact> 0.30335015E+04</totfact>
</mgrwt>
</event>
<event>
12    1  0.2762290E-001  0.2261102E+03  0.7546771E-02  0.1129516E+00
         21   -1    0    0  504  503  0.00000000000E+00  0.00000000000E+00  0.89269924879E+02  0.89269924879E+02  0.00000000000E+00 0.  1.
         21   -1    0    0  502  504 -0.00000000000E+00 -0.00000000000E+00 -0.96264678382E+03  0.96264678382E+03  0.00000000000E+00 0.  1.
          6    2    1    2  502    0  0.43238264467E+01 -0.14486201809E+03 -0.77243265866E+03  0.80484660325E+03  0.17355731861E+03 0.  0.
         24    2    3    3    0    0  0.48471962713E+02 -0.25974903546E+02 -0.39043659691E+03  0.40232171566E+03  0.79986248198E+02 0.  0.
         -6    2    1    2    0  503 -0.43238264467E+01  0.14486201809E+03 -0.10094420028E+03  0.24707010544E+03  0.17277212065E+03 0.  0.
        -24    2    5    5    0    0 -0.37769461570E+02  0.35543418608E+02 -0.94798460984E+00  0.95114520320E+02  0.79724566272E+02 0.  0.
          4    1    4    4  501    0 -0.19875228797E+02  0.57460018549E+01 -0.11058589438E+03  0.11250458343E+03  0.00000000000E+00 0. -1.
         -3    1    4    4    0  501  0.68347191510E+02 -0.31720905401E+02 -0.27985070253E+03  0.28981713223E+03  0.00000000000E+00 0.  1.
          5    1    3    3  502    0 -0.44148136266E+02 -0.11888711455E+03 -0.38199606175E+03  0.40252488760E+03  0.47000000000E+01 0. -1.
         13    1    6    6    0    0  0.77824925081E-01  0.34646462287E+02 -0.31223100448E+02  0.46639740643E+02  0.00000000000E+00 0. -1.
        -14    1    6    6    0    0 -0.37847286495E+02  0.89695632128E+00  0.30275115838E+02  0.48474779676E+02  0.00000000000E+00 0.  1.
         -5    1    5    5    0  503  0.33445635123E+02  0.10931859948E+03 -0.99996215668E+02  0.15195558512E+03  0.47000000000E+01 0.  1.
<mgrwt>
<rscale>  2 0.22595956E+03</rscale>
<asrwt>0</asrwt>
<pdfrwt beam="1">  1       21 0.13733835E-01 0.22611024E+03</pdfrwt>
<pdfrwt beam="2">  1       21 0.14809950E+00 0.22611024E+03</pdfrwt>
<totfact> 0.13907598E+04</totfact>
</mgrwt>
</event>
<event>
12    1  0.2762290E-001  0.2050740E+03  0.7546771E-02  0.1145949E+00
         21   -1    0    0  504  503  0.00000000000E+00  0.00000000000E+00  0.92321731996E+03  0.92321731996E+03  0.00000000000E+00 0.  1.
         21   -1    0    0  502  504 -0.00000000000E+00 -0.00000000000E+00 -0.26800607757E+03  0.26800607757E+03  0.00000000000E+00 0.  1.
          6    2    1    2  502    0 -0.10087989632E+03 -0.30046228436E+02 -0.21586347477E+03  0.29633428789E+03  0.17360138569E+03 0.  0.
         24    2    3    3    0    0 -0.12925271902E+03 -0.53986313235E+02 -0.19560650858E+03  0.25378338417E+03  0.80767025998E+02 0.  0.
         -6    2    1    2    0  503  0.10087989632E+03  0.30046228436E+02  0.87107471717E+03  0.89488910964E+03  0.17599950664E+03 0.  0.
        -24    2    5    5    0    0  0.36668275215E+02  0.95636715039E+01  0.16069025251E+03  0.18129899966E+03  0.74912908158E+02 0.  0.
          2    1    4    4  501    0 -0.46111943839E+02 -0.62960232054E+02 -0.92096129388E+02  0.12071453613E+03  0.00000000000E+00 0. -1.
         -1    1    4    4    0  501 -0.83140775184E+02  0.89739188192E+01 -0.10351037919E+03  0.13306884804E+03  0.00000000000E+00 0.  1.
          5    1    3    3  502    0  0.28372822705E+02  0.23940084798E+02 -0.20256966194E+02  0.42550903724E+02  0.47000000000E+01 0. -1.
         11    1    6    6    0    0 -0.72682714656E+01  0.29522021469E+02  0.95284631673E+02  0.10001769121E+03  0.00000000000E+00 0. -1.
        -12    1    6    6    0    0  0.43936546680E+02 -0.19958349965E+02  0.65405620832E+02  0.81281308454E+02  0.00000000000E+00 0.  1.
         -5    1    5    5    0  503  0.64211621104E+02  0.20482556932E+02  0.71038446466E+03  0.71359010998E+03  0.47000000000E+01 0.  1.
<mgrwt>
<rscale>  2 0.20455849E+03</rscale>
<asrwt>0</asrwt>
<pdfrwt beam="1">  1       21 0.14203343E+00 0.20507402E+03</pdfrwt>
<pdfrwt beam="2">  1       21 0.41231705E-01 0.20507402E+03</pdfrwt>
<totfact> 0.19300386E+03</totfact>
</mgrwt>
</event>
<event>
12    1  0.2762290E-001  0.2205059E+03  0.7546771E-02  0.1134401E+00
         21   -1    0    0  504  503  0.00000000000E+00  0.00000000000E+00  0.14115227661E+03  0.14115227661E+03  0.00000000000E+00 0. -1.
         21   -1    0    0  502  504 -0.00000000000E+00 -0.00000000000E+00 -0.50704642978E+03  0.50704642978E+03  0.00000000000E+00 0. -1.
          6    2    1    2  502    0 -0.12997589307E+03  0.41012762126E+02 -0.37190901343E+03  0.43236464047E+03  0.17334096060E+03 0.  0.
         24    2    3    3    0    0 -0.61645926199E+02  0.67080664716E+02 -0.11725293375E+03  0.16737345414E+03  0.77237211758E+02 0.  0.
         -6    2    1    2    0  503  0.12997589307E+03 -0.41012762126E+02  0.60148602643E+01  0.21583406592E+03  0.16724947244E+03 0.  0.
        -24    2    5    5    0    0  0.13462770068E+03 -0.32318307140E+02  0.53202217452E+02  0.16739885621E+03  0.77606767423E+02 0.  0.
          4    1    4    4  501    0 -0.66104684128E+02  0.30658204309E+02 -0.43157281218E+02  0.84689466153E+02  0.00000000000E+00 0. -1.
         -3    1    4    4    0  501  0.44587579286E+01  0.36422460407E+02 -0.74095652533E+02  0.82683987982E+02  0.00000000000E+00 0.  1.
          5    1    3    3  502    0 -0.68329966871E+02 -0.26067902591E+02 -0.25465607968E+03  0.26499118633E+03  0.47000000000E+01 0. -1.
         11    1    6    6    0    0  0.60504424516E+02  0.46244703424E+01 -0.12168374532E+02  0.61888936416E+02  0.00000000000E+00 0. -1.
        -12    1    6    6    0    0  0.74123276168E+02 -0.36942777482E+02  0.65370591984E+02  0.10550991979E+03  0.00000000000E+00 0.  1.
         -5    1    5    5    0  503 -0.46518076138E+01 -0.86944549861E+01 -0.47187357188E+02  0.48435209713E+02  0.47000000000E+01 0.  1.
<mgrwt>
<rscale>  2 0.21930727E+03</rscale>
<asrwt>0</asrwt>
<pdfrwt beam="1">  1       21 0.21715735E-01 0.22050594E+03</pdfrwt>
<pdfrwt beam="2">  1       21 0.78007144E-01 0.22050594E+03</pdfrwt>
<totfact> 0.28362678E+04</totfact>
</mgrwt>
</event>
<event>
12    1  0.2762290E-001  0.1816348E+03  0.7546771E-02  0.1166395E+00
         21   -1    0    0  504  503  0.00000000000E+00  0.00000000000E+00  0.42964807819E+02  0.42964807819E+02  0.00000000000E+00 0. -1.
         21   -1    0    0  502  504 -0.00000000000E+00 -0.00000000000E+00 -0.12732018579E+04  0.12732018579E+04  0.00000000000E+00 0. -1.
          6    2    1    2  502    0  0.73064419936E+01  0.55832564402E+02 -0.10301996515E+04  0.10459701626E+04  0.17196394890E+03 0.  0.
         24    2    3    3    0    0  0.49511198197E+02  0.80575566159E+02 -0.55339122698E+03  0.56663539306E+03  0.76746582725E+02 0.  0.
         -6    2    1    2    0  503 -0.73064419936E+01 -0.55832564402E+02 -0.20003739853E+03  0.27019650309E+03  0.17268621869E+03 0.  0.
        -24    2    5    5    0    0 -0.55066804632E+02 -0.62078140412E+02 -0.18946793942E+03  0.22066002234E+03  0.76855038234E+02 0.  0.
          4    1    4    4  501    0  0.28561664394E+02 -0.86767591746E+01 -0.15265206182E+03  0.15554326344E+03  0.00000000000E+00 0. -1.
         -3    1    4    4    0  501  0.20949533803E+02  0.89252325334E+02 -0.40073916516E+03  0.41109212962E+03  0.00000000000E+00 0.  1.
          5    1    3    3  502    0 -0.42204756203E+02 -0.24743001757E+02 -0.47680842452E+03  0.47933476952E+03  0.47000000000E+01 0. -1.
         11    1    6    6    0    0 -0.14947376891E+02  0.17675324174E+02 -0.49487225117E+02  0.54633566700E+02  0.00000000000E+00 0. -1.
        -12    1    6    6    0    0 -0.40119427741E+02 -0.79753464586E+02 -0.13998071430E+03  0.16602645564E+03  0.00000000000E+00 0.  1.
         -5    1    5    5    0  503  0.47760362638E+02  0.62455760106E+01 -0.10569459116E+02  0.49536480750E+02  0.47000000000E+01 0.  1.
<mgrwt>
<rscale>  2 0.18146289E+03</rscale>
<asrwt>0</asrwt>
<pdfrwt beam="1">  1       21 0.66099702E-02 0.18163477E+03</pdfrwt>
<pdfrwt beam="2">  1       21 0.19587721E+00 0.18163477E+03</pdfrwt>
<totfact> 0.24032412E+04</totfact>
</mgrwt>
</event>
<event>
12    1  0.2762290E-001  0.1842375E+03  0.7546771E-02  0.1164810E+00
         21   -1    0    0  504  503  0.00000000000E+00  0.00000000000E+00  0.77603616457E+02  0.77603616457E+02  0.00000000000E+00 0. -1.
         21   -1    0    0  502  504 -0.00000000000E+00 -0.00000000000E+00 -0.43122019363E+03  0.43122019363E+03  0.00000000000E+00 0. -1.
          6    2    1    2  502    0  0.61648078523E+02 -0.22346282986E+01 -0.14955318547E+03  0.23389596228E+03  0.16892509209E+03 0.  0.
         24    2    3    3    0    0  0.85086731455E+02  0.45917410731E+02 -0.10641243638E+03  0.16496698763E+03  0.80884732266E+02 0.  0.
         -6    2    1    2    0  503 -0.61648078523E+02  0.22346282986E+01 -0.20406339170E+03  0.27492784780E+03  0.17360292197E+03 0.  0.
        -24    2    5    5    0    0  0.26428286912E+02 -0.11493596434E+01 -0.51756459340E+02  0.98892654826E+02  0.80007816609E+02 0.  0.
          2    1    4    4  501    0  0.76483360289E+02  0.65165014516E+02 -0.10247866628E+03  0.14352024442E+03  0.00000000000E+00 0. -1.
         -1    1    4    4    0  501  0.86033711664E+01 -0.19247603785E+02 -0.39337701014E+01  0.21446743205E+02  0.00000000000E+00 0.  1.
          5    1    3    3  502    0 -0.23438652932E+02 -0.48152039029E+02 -0.43140749094E+02  0.68928974651E+02  0.47000000000E+01 0. -1.
         13    1    6    6    0    0 -0.17933352240E+02 -0.43962713857E+01 -0.51179729547E+02  0.54408611829E+02  0.00000000000E+00 0. -1.
        -14    1    6    6    0    0  0.44361639152E+02  0.32469117423E+01 -0.57672979336E+00  0.44484042997E+02  0.00000000000E+00 0.  1.
         -5    1    5    5    0  503 -0.88076365435E+02  0.33839879420E+01 -0.15230693236E+03  0.17603519298E+03  0.47000000000E+01 0.  1.
<mgrwt>
<rscale>  2 0.18312725E+03</rscale>
<asrwt>0</asrwt>
<pdfrwt beam="1">  1       21 0.11939018E-01 0.18423749E+03</pdfrwt>
<pdfrwt beam="2">  1       21 0.66341569E-01 0.18423749E+03</pdfrwt>
<totfact> 0.12381633E+05</totfact>
</mgrwt>
</event>
<event>
12    1  0.2762290E-001  0.2606952E+03  0.7546771E-02  0.1106784E+00
         21   -1    0    0  504  503  0.00000000000E+00  0.00000000000E+00  0.83882908093E+03  0.83882908093E+03  0.00000000000E+00 0.  1.
         21   -1    0    0  502  504 -0.00000000000E+00 -0.00000000000E+00 -0.10534583889E+03  0.10534583889E+03  0.00000000000E+00 0. -1.
          6    2    1    2  502    0 -0.15058654437E+03  0.12388448644E+03  0.13911602670E+03  0.29514922584E+03  0.17244165188E+03 0.  0.
         24    2    3    3    0    0 -0.14630251141E+03  0.13106108983E+03  0.16413845701E+03  0.26835242392E+03  0.80561505972E+02 0.  0.
         -6    2    1    2    0  503  0.15058654437E+03 -0.12388448644E+03  0.59436721533E+03  0.64902569398E+03  0.17302685182E+03 0.  0.
        -24    2    5    5    0    0  0.16791267465E+03 -0.14249099293E+03  0.53501684868E+03  0.58428812454E+03  0.81555102438E+02 0.  0.
          4    1    4    4  501    0 -0.11175362533E+03  0.67079864011E+02  0.65677810500E+02  0.14595258039E+03  0.00000000000E+00 0. -1.
         -3    1    4    4    0  501 -0.34548886083E+02  0.63981225814E+02  0.98460646509E+02  0.12239984353E+03  0.00000000000E+00 0.  1.
          5    1    3    3  502    0 -0.42840329576E+01 -0.71766033877E+01 -0.25022430305E+02  0.26796801916E+02  0.47000000000E+01 0. -1.
         11    1    6    6    0    0  0.47895293677E+02 -0.36592050632E+01  0.75550308978E+02  0.89527638888E+02  0.00000000000E+00 0. -1.
        -12    1    6    6    0    0  0.12001738097E+03 -0.13883178787E+03  0.45946653971E+03  0.49476048566E+03  0.00000000000E+00 0.  1.
         -5    1    5    5    0  503 -0.17326130276E+02  0.18606506495E+02  0.59350366651E+02  0.64737569431E+02  0.47000000000E+01 0.  1.
<mgrwt>
<rscale>  2 0.26059809E+03</rscale>
<asrwt>0</asrwt>
<pdfrwt beam="1">  1       21 0.12905062E+00 0.26069516E+03</pdfrwt>
<pdfrwt beam="2">  1       21 0.16207053E-01 0.26069516E+03</pdfrwt>
<totfact> 0.14387787E+04</totfact>
</mgrwt>
</event>
<event>
12    1  0.2762290E-001  0.2598749E+03  0.7546771E-02  0.1107307E+00
         21   -1    0    0  504  503  0.00000000000E+00  0.00000000000E+00  0.68966887511E+02  0.68966887511E+02  0.00000000000E+00 0. -1.
         21   -1    0    0  502  504 -0.00000000000E+00 -0.00000000000E+00 -0.10387122251E+04  0.10387122251E+04  0.00000000000E+00 0. -1.
          6    2    1    2  502    0  0.18508076393E+03  0.55173093961E+02 -0.61933256343E+03  0.67141762981E+03  0.17300245668E+03 0.  0.
         24    2    3    3    0    0  0.21223317883E+02  0.60706852853E+00 -0.26102186020E+03  0.27362954074E+03  0.79308992601E+02 0.  0.
         -6    2    1    2    0  503 -0.18508076393E+03 -0.55173093961E+02 -0.35041277418E+03  0.43626148282E+03  0.17388504712E+03 0.  0.
        -24    2    5    5    0    0 -0.18751921506E+03 -0.81681995658E+02 -0.34254225876E+03  0.40810650234E+03  0.85908752660E+02 0.  0.
          4    1    4    4  501    0  0.36986116797E+02  0.10661186000E+02 -0.24769905850E+03  0.25067201141E+03  0.00000000000E+00 0. -1.
         -3    1    4    4    0  501 -0.15762798913E+02 -0.10054117471E+02 -0.13322801704E+02  0.22957529330E+02  0.00000000000E+00 0.  1.
          5    1    3    3  502    0  0.16385744605E+03  0.54566025433E+02 -0.35831070323E+03  0.39778808907E+03  0.47000000000E+01 0. -1.
         13    1    6    6    0    0 -0.12830238628E+03 -0.96737056898E+02 -0.24386072852E+03  0.29204043456E+03  0.00000000000E+00 0. -1.
        -14    1    6    6    0    0 -0.59216828775E+02  0.15055061240E+02 -0.98681530243E+02  0.11606606778E+03  0.00000000000E+00 0.  1.
         -5    1    5    5    0  503  0.24384511244E+01  0.26508901697E+02 -0.78705154162E+01  0.28154980482E+02  0.47000000000E+01 0.  1.
<mgrwt>
<rscale>  2 0.25972735E+03</rscale>
<asrwt>0</asrwt>
<pdfrwt beam="1">  1       21 0.10610290E-01 0.25987491E+03</pdfrwt>
<pdfrwt beam="2">  1       21 0.15980188E+00 0.25987491E+03</pdfrwt>
<totfact> 0.17695007E+04</totfact>
</mgrwt>
</event>
<event>
12    1  0.2762290E-001  0.2044195E+03  0.7546771E-02  0.1146197E+00
         21   -1    0    0  504  503  0.00000000000E+00  0.00000000000E+00  0.16541914424E+03  0.16541914424E+03  0.00000000000E+00 0.  1.
         21   -1    0    0  502  504 -0.00000000000E+00 -0.00000000000E+00 -0.26375435435E+03  0.26375435435E+03  0.00000000000E+00 0.  1.
          6    2    1    2  502    0 -0.10661662708E+03 -0.17592817731E+02 -0.94914417323E+02  0.22537983885E+03  0.17352438658E+03 0.  0.
         24    2    3    3    0    0 -0.75146533007E+02  0.49776599381E+01  0.16274786495E+02  0.10754553854E+03  0.75029298698E+02 0.  0.
         -6    2    1    2    0  503  0.10661662708E+03  0.17592817731E+02 -0.34207927796E+01  0.20379365974E+03  0.17275283361E+03 0.  0.
        -24    2    5    5    0    0 -0.12964347939E+02  0.69597296778E+01  0.14258358006E+02  0.82355138172E+02  0.79765630792E+02 0.  0.
          4    1    4    4  501    0 -0.19318648136E+02  0.14605590515E+02 -0.26989645103E+02  0.36262575514E+02  0.00000000000E+00 0. -1.
         -3    1    4    4    0  501 -0.55827884871E+02 -0.96279305769E+01  0.43264431598E+02  0.71282963027E+02  0.00000000000E+00 0.  1.
          5    1    3    3  502    0 -0.31470094075E+02 -0.22570477669E+02 -0.11118920382E+03  0.11783430031E+03  0.47000000000E+01 0. -1.
         13    1    6    6    0    0  0.19720261903E+01  0.38385450474E+02 -0.10269291355E+02  0.39784293890E+02  0.00000000000E+00 0. -1.
        -14    1    6    6    0    0 -0.14936374129E+02 -0.31425720796E+02  0.24527649361E+02  0.42570844282E+02  0.00000000000E+00 0.  1.
         -5    1    5    5    0  503  0.11958097502E+03  0.10633088053E+02 -0.17679150785E+02  0.12143852157E+03  0.47000000000E+01 0.  1.
<mgrwt>
<rscale>  2 0.20425565E+03</rscale>
<asrwt>0</asrwt>
<pdfrwt beam="1">  1       21 0.25449099E-01 0.20441948E+03</pdfrwt>
<pdfrwt beam="2">  1       21 0.40577593E-01 0.20441948E+03</pdfrwt>
<totfact> 0.85240115E+04</totfact>
</mgrwt>
</event>
<event>
12    1  0.2762290E-001  0.2157878E+03  0.7546771E-02  0.1139469E+00
         21   -1    0    0  504  503  0.00000000000E+00  0.00000000000E+00  0.19713680335E+03  0.19713680335E+03  0.00000000000E+00 0. -1.
         21   -1    0    0  502  504 -0.00000000000E+00 -0.00000000000E+00 -0.22306562295E+03  0.22306562295E+03  0.00000000000E+00 0. -1.
          6    2    1    2  502    0  0.86022513530E+01  0.10718967787E+03 -0.15820890004E+02  0.21636696392E+03  0.18708483836E+03 0.  0.
         24    2    3    3    0    0  0.43299431528E+02  0.34782048762E+02  0.51188600545E+02  0.11168114401E+03  0.82266478076E+02 0.  0.
         -6    2    1    2    0  503 -0.86022513530E+01 -0.10718967787E+03 -0.10107929590E+02  0.20383546239E+03  0.17286728932E+03 0.  0.
        -24    2    5    5    0    0  0.60783141038E+02 -0.50013478255E+02 -0.39481234178E+01  0.11359420967E+03  0.81805369936E+02 0.  0.
          4    1    4    4  501    0  0.62635667382E+02  0.46950241188E+01  0.26227788155E+02  0.68067370681E+02  0.00000000000E+00 0. -1.
         -3    1    4    4    0  501 -0.19336235854E+02  0.30087024644E+02  0.24960812390E+02  0.43613773330E+02  0.00000000000E+00 0.  1.
          5    1    3    3  502    0 -0.34697180175E+02  0.72407629111E+02 -0.67009490549E+02  0.10468581990E+03  0.47000000000E+01 0. -1.
         13    1    6    6    0    0  0.96241445313E+01 -0.57041775603E+02  0.12912968157E+02  0.59271688592E+02  0.00000000000E+00 0. -1.
        -14    1    6    6    0    0  0.51158996507E+02  0.70282973478E+01 -0.16861091575E+02  0.54322521078E+02  0.00000000000E+00 0.  1.
         -5    1    5    5    0  503 -0.69385392391E+02 -0.57176199618E+02 -0.61598061717E+01  0.90241252718E+02  0.47000000000E+01 0.  1.
<mgrwt>
<rscale>  2 0.21267008E+03</rscale>
<asrwt>0</asrwt>
<pdfrwt beam="1">  1       21 0.30328739E-01 0.21578777E+03</pdfrwt>
<pdfrwt beam="2">  1       21 0.34317788E-01 0.21578777E+03</pdfrwt>
<totfact> 0.84546165E+04</totfact>
</mgrwt>
</event>
<event>
12    1  0.2762290E-001  0.2000390E+03  0.7546771E-02  0.1149902E+00
         21   -1    0    0  504  503  0.00000000000E+00  0.00000000000E+00  0.59386566147E+03  0.59386566147E+03  0.00000000000E+00 0. -1.
         21   -1    0    0  502  504 -0.00000000000E+00 -0.00000000000E+00 -0.76012899743E+02  0.76012899743E+02  0.00000000000E+00 0. -1.
          6    2    1    2  502    0 -0.73203005049E+02 -0.69454500327E+02  0.14457395189E+03  0.24681415563E+03  0.17272229819E+03 0.  0.
         24    2    3    3    0    0 -0.40854534979E+02 -0.10121359246E+03  0.14754803019E+03  0.20114142208E+03  0.82305322644E+02 0.  0.
         -6    2    1    2    0  503  0.73203005049E+02  0.69454500327E+02  0.37327880983E+03  0.42306440558E+03  0.17165026604E+03 0.  0.
        -24    2    5    5    0    0  0.24339463601E+02  0.81611287987E+02  0.34671260132E+03  0.36593922195E+03  0.80306129508E+02 0.  0.
          4    1    4    4  501    0 -0.24691428209E+02 -0.10088113565E+03  0.15225392850E+03  0.18430390365E+03  0.00000000000E+00 0. -1.
         -3    1    4    4    0  501 -0.16163106770E+02 -0.33245680812E+00 -0.47058983059E+01  0.16837518430E+02  0.00000000000E+00 0.  1.
          5    1    3    3  502    0 -0.32348470069E+02  0.31759092129E+02 -0.29740783032E+01  0.45672733556E+02  0.47000000000E+01 0. -1.
         11    1    6    6    0    0  0.13533239809E+02  0.49352307603E+02  0.67725543678E+02  0.84885500010E+02  0.00000000000E+00 0. -1.
        -12    1    6    6    0    0  0.10806223792E+02  0.32258980384E+02  0.27898705764E+03  0.28105372194E+03  0.00000000000E+00 0.  1.
         -5    1    5    5    0  503  0.48863541447E+02 -0.12156787661E+02  0.26566208519E+02  0.57125183624E+02  0.47000000000E+01 0.  1.
<mgrwt>
<rscale>  2 0.19980737E+03</rscale>
<asrwt>0</asrwt>
<pdfrwt beam="1">  1       21 0.91363945E-01 0.20003900E+03</pdfrwt>
<pdfrwt beam="2">  1       21 0.11694293E-01 0.20003900E+03</pdfrwt>
<totfact> 0.62126784E+04</totfact>
</mgrwt>
</event>
<event>
12    1  0.2762290E-001  0.1778692E+03  0.7546771E-02  0.1170245E+00
         21   -1    0    0  504  503  0.00000000000E+00  0.00000000000E+00  0.36575731636E+03  0.36575731636E+03  0.00000000000E+00 0.  1.
         21   -1    0    0  502  504 -0.00000000000E+00 -0.00000000000E+00 -0.10130417238E+03  0.10130417238E+03  0.00000000000E+00 0.  1.
          6    2    1    2  502    0  0.28596493940E+02 -0.27435959060E+02  0.40354485385E+02  0.18095368115E+03  0.17188734368E+03 0.  0.
         24    2    3    3    0    0  0.71046740953E+02 -0.14700124030E+02 -0.16393619902E+02  0.10879647487E+03  0.79398923944E+02 0.  0.
         -6    2    1    2    0  503 -0.28596493940E+02  0.27435959060E+02  0.22409865860E+03  0.28610780759E+03  0.17339832023E+03 0.  0.
        -24    2    5    5    0    0 -0.27264173395E+02 -0.24352822423E+02  0.40487977195E+02  0.95270638007E+02  0.78107765671E+02 0.  0.
          2    1    4    4  501    0  0.58082622456E+02 -0.41641136457E+02 -0.27956143413E+02  0.76740610053E+02  0.00000000000E+00 0. -1.
         -1    1    4    4    0  501  0.12964118497E+02  0.26941012427E+02  0.11562523511E+02  0.32055864814E+02  0.00000000000E+00 0.  1.
          5    1    3    3  502    0 -0.42450247013E+02 -0.12735835030E+02  0.56748105287E+02  0.72157206286E+02  0.47000000000E+01 0. -1.
         11    1    6    6    0    0 -0.27683997671E+02  0.19773764621E+02 -0.19108635096E+01  0.34074284932E+02  0.00000000000E+00 0. -1.
        -12    1    6    6    0    0  0.41982427582E+00 -0.44126587044E+02  0.42398840705E+02  0.61196353075E+02  0.00000000000E+00 0.  1.
         -5    1    5    5    0  503 -0.13323205457E+01  0.51788781483E+02  0.18361068141E+03  0.19083716958E+03  0.47000000000E+01 0.  1.
<mgrwt>
<rscale>  2 0.17749993E+03</rscale>
<asrwt>0</asrwt>
<pdfrwt beam="1">  1       21 0.56270356E-01 0.17786925E+03</pdfrwt>
<pdfrwt beam="2">  1       21 0.15585257E-01 0.17786925E+03</pdfrwt>
<totfact> 0.10931719E+05</totfact>
</mgrwt>
</event>
<event>
12    1  0.2762290E-001  0.2505501E+03  0.7546771E-02  0.1113496E+00
         21   -1    0    0  504  503  0.00000000000E+00  0.00000000000E+00  0.21100635390E+03  0.21100635390E+03  0.00000000000E+00 0. -1.
         21   -1    0    0  502  504 -0.00000000000E+00 -0.00000000000E+00 -0.68235795415E+03  0.68235795415E+03  0.00000000000E+00 0. -1.
          6    2    1    2  502    0 -0.68973644903E+02  0.16277171219E+03 -0.57356878446E+03  0.62590456537E+03  0.17754824828E+03 0.  0.
         24    2    3    3    0    0  0.24088305850E+02  0.64859298829E+02 -0.17182799894E+03  0.20203534484E+03  0.80662532942E+02 0.  0.
         -6    2    1    2    0  503  0.68973644903E+02 -0.16277171219E+03  0.10221718421E+03  0.26745974268E+03  0.17272627833E+03 0.  0.
        -24    2    5    5    0    0  0.10425839494E+03 -0.11084666230E+03  0.30796444634E+02  0.17225345910E+03  0.74605882558E+02 0.  0.
          2    1    4    4  501    0 -0.22877148377E+02  0.51090011085E+02 -0.75514149006E+02  0.93999680056E+02  0.00000000000E+00 0. -1.
         -1    1    4    4    0  501  0.46965454226E+02  0.13769287745E+02 -0.96313849938E+02  0.10803566479E+03  0.00000000000E+00 0.  1.
          5    1    3    3  502    0 -0.93061950753E+02  0.97912413356E+02 -0.40174078551E+03  0.42386922053E+03  0.47000000000E+01 0. -1.
         13    1    6    6    0    0  0.55271328417E+02 -0.10118595943E+03  0.38872208616E+02  0.12167401832E+03  0.00000000000E+00 0. -1.
        -14    1    6    6    0    0  0.48987066519E+02 -0.96607028717E+01 -0.80757639819E+01  0.50579440784E+02  0.00000000000E+00 0.  1.
         -5    1    5    5    0  503 -0.35284750033E+02 -0.51925049881E+02  0.71420739575E+02  0.95206283572E+02  0.47000000000E+01 0.  1.
<mgrwt>
<rscale>  2 0.24969740E+03</rscale>
<asrwt>0</asrwt>
<pdfrwt beam="1">  1       21 0.32462516E-01 0.25055014E+03</pdfrwt>
<pdfrwt beam="2">  1       21 0.10497815E+00 0.25055014E+03</pdfrwt>
<totfact> 0.64138055E+03</totfact>
</mgrwt>
</event>
<event>
12    1  0.2762290E-001  0.1883122E+03  0.7546771E-02  0.1161852E+00
         21   -1    0    0  504  503  0.00000000000E+00  0.00000000000E+00  0.18235722643E+03  0.18235722643E+03  0.00000000000E+00 0. -1.
         21   -1    0    0  502  504 -0.00000000000E+00 -0.00000000000E+00 -0.18759845960E+03  0.18759845960E+03  0.00000000000E+00 0. -1.
          6    2    1    2  502    0 -0.28072580359E+02 -0.69785491431E+02 -0.17800465931E+02  0.18122518601E+03  0.16391347374E+03 0.  0.
         24    2    3    3    0    0 -0.31706349141E+02 -0.27020510332E+01 -0.44294662123E+02  0.10885513223E+03  0.94206311176E+02 0.  0.
         -6    2    1    2    0  503  0.28072580359E+02  0.69785491431E+02  0.12559232758E+02  0.18873050002E+03  0.17263656255E+03 0.  0.
        -24    2    5    5    0    0 -0.29517825340E+02 -0.12563297669E+02  0.88614297356E+01  0.88064012835E+02  0.81532858152E+02 0.  0.
          2    1    4    4  501    0  0.97515441150E+01  0.31959358563E+02 -0.43446864528E+02  0.54809882774E+02  0.00000000000E+00 0. -1.
         -1    1    4    4    0  501 -0.41457893256E+02 -0.34661409596E+02 -0.84779759548E+00  0.54045249460E+02  0.00000000000E+00 0.  1.
          5    1    3    3  502    0  0.36337687815E+01 -0.67083440398E+02  0.26494196192E+02  0.72370053773E+02  0.47000000000E+01 0. -1.
         11    1    6    6    0    0  0.62763744801E+01 -0.41236289371E+02  0.56046913580E+01  0.42086066613E+02  0.00000000000E+00 0. -1.
        -12    1    6    6    0    0 -0.35794199820E+02  0.28672991703E+02  0.32567383777E+01  0.45977946222E+02  0.00000000000E+00 0.  1.
         -5    1    5    5    0  503  0.57590405699E+02  0.82348789100E+02  0.36978030224E+01  0.10066648718E+03  0.47000000000E+01 0.  1.
<mgrwt>
<rscale>  2 0.18628896E+03</rscale>
<asrwt>0</asrwt>
<pdfrwt beam="1">  1       21 0.28054958E-01 0.18831215E+03</pdfrwt>
<pdfrwt beam="2">  1       21 0.28861301E-01 0.18831215E+03</pdfrwt>
<totfact> 0.13964848E+05</totfact>
</mgrwt>
</event>
<event>
12    1  0.2762290E-001  0.1786456E+03  0.7546771E-02  0.1169353E+00
         21   -1    0    0  504  503  0.00000000000E+00  0.00000000000E+00  0.14317829011E+03  0.14317829011E+03  0.00000000000E+00 0. -1.
         21   -1    0    0  502  504 -0.00000000000E+00 -0.00000000000E+00 -0.22348106286E+03  0.22348106286E+03  0.00000000000E+00 0. -1.
          6    2    1    2  502    0  0.10621758321E+02 -0.41741780878E+02 -0.56554255038E+02  0.18738361920E+03  0.17337542778E+03 0.  0.
         24    2    3    3    0    0  0.33262698769E+02  0.60833117170E+01  0.26276524533E+02  0.88981994664E+02  0.77999524499E+02 0.  0.
         -6    2    1    2    0  503 -0.10621758321E+02  0.41741780878E+02 -0.23748517711E+02  0.17927573378E+03  0.17239663167E+03 0.  0.
        -24    2    5    5    0    0  0.59320170688E+02  0.21009199179E+02 -0.28109552263E+02  0.10604444266E+03  0.80591611163E+02 0.  0.
          2    1    4    4  501    0  0.42773516975E+02 -0.43292710279E+01  0.47139349163E+02  0.63799957536E+02  0.00000000000E+00 0. -1.
         -1    1    4    4    0  501 -0.95108182058E+01  0.10412582745E+02 -0.20862824631E+02  0.25182037128E+02  0.00000000000E+00 0.  1.
          5    1    3    3  502    0 -0.22640940449E+02 -0.47825092595E+02 -0.82830779570E+02  0.98401624531E+02  0.47000000000E+01 0. -1.
         11    1    6    6    0    0 -0.18733057146E+00  0.69513679982E+01 -0.42634176551E+02  0.43197564977E+02  0.00000000000E+00 0. -1.
        -12    1    6    6    0    0  0.59507501260E+02  0.14057831180E+02  0.14524624288E+02  0.62846877682E+02  0.00000000000E+00 0.  1.
         -5    1    5    5    0  503 -0.69941929009E+02  0.20732581699E+02  0.43610345520E+01  0.73231291124E+02  0.47000000000E+01 0.  1.
<mgrwt>
<rscale>  2 0.17840765E+03</rscale>
<asrwt>0</asrwt>
<pdfrwt beam="1">  1       21 0.22027430E-01 0.17864556E+03</pdfrwt>
<pdfrwt beam="2">  1       21 0.34381702E-01 0.17864556E+03</pdfrwt>
<totfact> 0.15769315E+05</totfact>
</mgrwt>
</event>
<event>
12    1  0.2762290E-001  0.1802745E+03  0.7546771E-02  0.1168012E+00
         21   -1    0    0  504  503  0.00000000000E+00  0.00000000000E+00  0.99905503907E+03  0.99905503907E+03  0.00000000000E+00 0. -1.
         21   -1    0    0  502  504 -0.00000000000E+00 -0.00000000000E+00 -0.48707219684E+02  0.48707219684E+02  0.00000000000E+00 0. -1.
          6    2    1    2  502    0 -0.16915022337E+02  0.53540830353E+02  0.17170357015E+03  0.24895985656E+03  0.17130719682E+03 0.  0.
         24    2    3    3    0    0  0.27601090104E+02  0.61054966322E+02  0.17420930183E+03  0.20350091688E+03  0.81081522168E+02 0.  0.
         -6    2    1    2    0  503  0.16915022337E+02 -0.53540830353E+02  0.77864424924E+03  0.79880240219E+03  0.16925032462E+03 0.  0.
        -24    2    5    5    0    0 -0.35513328856E+02 -0.72768549816E+02  0.59367341124E+03  0.60552866338E+03  0.87523623070E+02 0.  0.
          2    1    4    4  501    0  0.47362609897E+02  0.27302042223E+02  0.53018471842E+02  0.76154951791E+02  0.00000000000E+00 0. -1.
         -1    1    4    4    0  501 -0.19761519794E+02  0.33752924099E+02  0.12119082999E+03  0.12734596509E+03  0.00000000000E+00 0.  1.
          5    1    3    3  502    0 -0.44516112441E+02 -0.75141359684E+01 -0.25057316818E+01  0.45458939687E+02  0.47000000000E+01 0. -1.
         13    1    6    6    0    0 -0.64903443155E+02 -0.52651170230E+02  0.40860107093E+03  0.41706047262E+03  0.00000000000E+00 0. -1.
        -14    1    6    6    0    0  0.29390114299E+02 -0.20117379586E+02  0.18507234031E+03  0.18846819076E+03  0.00000000000E+00 0.  1.
         -5    1    5    5    0  503  0.52428351193E+02  0.19227719463E+02  0.18497083799E+03  0.19327373881E+03  0.47000000000E+01 0.  1.
<mgrwt>
<rscale>  2 0.17978415E+03</rscale>
<asrwt>0</asrwt>
<pdfrwt beam="1">  1       21 0.15370076E+00 0.18027450E+03</pdfrwt>
<pdfrwt beam="2">  1       21 0.74934191E-02 0.18027450E+03</pdfrwt>
<totfact> 0.37962826E+04</totfact>
</mgrwt>
</event>
<event>
12    1  0.2762290E-001  0.1776660E+03  0.7546771E-02  0.1170356E+00
         21   -1    0    0  504  503  0.00000000000E+00  0.00000000000E+00  0.22159712910E+03  0.22159712910E+03  0.00000000000E+00 0. -1.
         21   -1    0    0  502  504 -0.00000000000E+00 -0.00000000000E+00 -0.15851478240E+03  0.15851478240E+03  0.00000000000E+00 0. -1.
          6    2    1    2  502    0 -0.28315060715E+02  0.27688810180E+02  0.93621576090E+02  0.19984034836E+03  0.17205450430E+03 0.  0.
         24    2    3    3    0    0 -0.65101285304E+01  0.74734817753E+02  0.23229187503E+02  0.11228487870E+03  0.80253498828E+02 0.  0.
         -6    2    1    2    0  503  0.28315060715E+02 -0.27688810180E+02 -0.30539229391E+02  0.18027156315E+03  0.17319578250E+03 0.  0.
        -24    2    5    5    0    0 -0.37331683691E+02 -0.30980386680E+02  0.57714715661E+00  0.10739736733E+03  0.95814521048E+02 0.  0.
          4    1    4    4  501    0  0.17117494059E+02  0.30280837902E+02  0.45468962097E+02  0.57248268630E+02  0.00000000000E+00 0. -1.
         -3    1    4    4    0  501 -0.23627622589E+02  0.44453979851E+02 -0.22239774594E+02  0.55036610068E+02  0.00000000000E+00 0.  1.
          5    1    3    3  502    0 -0.21804932184E+02 -0.47046007573E+02  0.70392388587E+02  0.87555469658E+02  0.47000000000E+01 0. -1.
         13    1    6    6    0    0  0.27265896601E+02 -0.26472962731E+02  0.15337893979E+02  0.40981677185E+02  0.00000000000E+00 0. -1.
        -14    1    6    6    0    0 -0.64597580292E+02 -0.45074239488E+01 -0.14760746822E+02  0.66415690141E+02  0.00000000000E+00 0.  1.
         -5    1    5    5    0  503  0.65646744406E+02  0.32915765000E+01 -0.31116376548E+02  0.72874195820E+02  0.47000000000E+01 0.  1.
<mgrwt>
<rscale>  2 0.17738721E+03</rscale>
<asrwt>0</asrwt>
<pdfrwt beam="1">  1       21 0.34091866E-01 0.17766596E+03</pdfrwt>
<pdfrwt beam="2">  1       21 0.24386890E-01 0.17766596E+03</pdfrwt>
<totfact> 0.13232883E+05</totfact>
</mgrwt>
</event>
<event>
12    1  0.2762290E-001  0.2877202E+03  0.7546771E-02  0.1091967E+00
         21   -1    0    0  504  503  0.00000000000E+00  0.00000000000E+00  0.11572871879E+04  0.11572871879E+04  0.00000000000E+00 0.  1.
         21   -1    0    0  502  504 -0.00000000000E+00 -0.00000000000E+00 -0.72199211215E+02  0.72199211215E+02  0.00000000000E+00 0. -1.
          6    2    1    2  502    0 -0.11453438025E+03 -0.19904591612E+03  0.45821888715E+03  0.54106143175E+03  0.17333644570E+03 0.  0.
         24    2    3    3    0    0 -0.71381687318E+02 -0.15620978342E+03  0.20018189194E+03  0.27591567925E+03  0.80992780406E+02 0.  0.
         -6    2    1    2    0  503  0.11453438025E+03  0.19904591612E+03  0.62686908954E+03  0.68842496737E+03  0.16800797388E+03 0.  0.
        -24    2    5    5    0    0  0.14358684120E+03  0.18095242539E+03  0.58637886534E+03  0.63519933304E+03  0.79227884938E+02 0.  0.
          4    1    4    4  501    0 -0.33145249842E+02 -0.12734493576E+03  0.10138318149E+03  0.16611408652E+03  0.00000000000E+00 0. -1.
         -3    1    4    4    0  501 -0.38236437476E+02 -0.28864847659E+02  0.98798710447E+02  0.10980159274E+03  0.00000000000E+00 0.  1.
          5    1    3    3  502    0 -0.43152692934E+02 -0.42836132707E+02  0.25803699521E+03  0.26514575250E+03  0.47000000000E+01 0. -1.
         13    1    6    6    0    0  0.84338075364E+02  0.75540342687E+02  0.19413169878E+03  0.22473622494E+03  0.00000000000E+00 0. -1.
        -14    1    6    6    0    0  0.59248765836E+02  0.10541208271E+03  0.39224716656E+03  0.41046310810E+03  0.00000000000E+00 0.  1.
         -5    1    5    5    0  503 -0.29052460948E+02  0.18093490730E+02  0.40490224203E+02  0.53225634331E+02  0.47000000000E+01 0.  1.
<mgrwt>
<rscale>  2 0.28692232E+03</rscale>
<asrwt>0</asrwt>
<pdfrwt beam="1">  1       21 0.17804417E+00 0.28772022E+03</pdfrwt>
<pdfrwt beam="2">  1       21 0.11107572E-01 0.28772022E+03</pdfrwt>
<totfact> 0.11880034E+04</totfact>
</mgrwt>
</event>
<event>
12    1  0.2762290E-001  0.2156982E+03  0.7546771E-02  0.1137191E+00
         21   -1    0    0  504  503  0.00000000000E+00  0.00000000000E+00  0.45974663109E+03  0.45974663109E+03  0.00000000000E+00 0.  1.
         21   -1    0    0  502  504 -0.00000000000E+00 -0.00000000000E+00 -0.10211742931E+03  0.10211742931E+03  0.00000000000E+00 0. -1.
          6    2    1    2  502    0 -0.11967563859E+03 -0.48235903777E+02  0.20763572291E+03  0.29939658824E+03  0.17284895931E+03 0.  0.
         24    2    3    3    0    0 -0.83352884802E+02 -0.46109641424E+02  0.45505974271E+02  0.13316780364E+03  0.81173073091E+02 0.  0.
         -6    2    1    2    0  503  0.11967563859E+03  0.48235903777E+02  0.14999347887E+03  0.26246747216E+03  0.17245918171E+03 0.  0.
        -24    2    5    5    0    0  0.10465418982E+03 -0.18471462637E+02  0.54661954473E+02  0.14505492514E+03  0.82215008726E+02 0.  0.
          4    1    4    4  501    0 -0.70782665934E+02 -0.26377436340E+02 -0.68245525822E+01  0.75845431389E+02  0.00000000000E+00 0. -1.
         -3    1    4    4    0  501 -0.12570218868E+02 -0.19732205083E+02  0.52330526853E+02  0.57322372251E+02  0.00000000000E+00 0.  1.
          5    1    3    3  502    0 -0.36322753792E+02 -0.21262623530E+01  0.16212974864E+03  0.16622878460E+03  0.47000000000E+01 0. -1.
         11    1    6    6    0    0  0.11526975506E+03 -0.29161967746E+02  0.44866746025E+02  0.12708486021E+03  0.00000000000E+00 0. -1.
        -12    1    6    6    0    0 -0.10615565242E+02  0.10690505109E+02  0.97952084486E+01  0.17970064926E+02  0.00000000000E+00 0.  1.
         -5    1    5    5    0  503  0.15021448771E+02  0.66707366413E+02  0.95331524392E+02  0.11741254703E+03  0.47000000000E+01 0.  1.
<mgrwt>
<rscale>  2 0.21562013E+03</rscale>
<asrwt>0</asrwt>
<pdfrwt beam="1">  1       21 0.70730250E-01 0.21569822E+03</pdfrwt>
<pdfrwt beam="2">  1       21 0.15710374E-01 0.21569822E+03</pdfrwt>
<totfact> 0.64608104E+04</totfact>
</mgrwt>
</event>
<event>
12    1  0.2762290E-001  0.2019992E+03  0.7546771E-02  0.1148313E+00
         21   -1    0    0  504  503  0.00000000000E+00  0.00000000000E+00  0.15449256376E+04  0.15449256376E+04  0.00000000000E+00 0. -1.
         21   -1    0    0  502  504 -0.00000000000E+00 -0.00000000000E+00 -0.27444757515E+02  0.27444757515E+02  0.00000000000E+00 0. -1.
          6    2    1    2  502    0  0.46148378225E+02  0.92987828531E+02  0.59723861050E+03  0.63047413934E+03  0.17328379451E+03 0.  0.
         24    2    3    3    0    0  0.95549009797E+00 -0.57137283793E+01  0.36829708531E+03  0.37705609257E+03  0.80591527120E+02 0.  0.
         -6    2    1    2    0  503 -0.46148378225E+02 -0.92987828531E+02  0.92024226958E+03  0.94189625577E+03  0.17189040939E+03 0.  0.
        -24    2    5    5    0    0 -0.80231247324E+02 -0.10459997151E+03  0.83648402490E+03  0.85060541624E+03  0.80286008310E+02 0.  0.
          4    1    4    4  501    0  0.34948910057E+02  0.15002354683E+02  0.23078428270E+03  0.23389716138E+03  0.00000000000E+00 0. -1.
         -3    1    4    4    0  501 -0.33993419959E+02 -0.20716083063E+02  0.13751280260E+03  0.14315893118E+03  0.00000000000E+00 0.  1.
          5    1    3    3  502    0  0.45192888127E+02  0.98701556910E+02  0.22894152519E+03  0.25341804678E+03  0.47000000000E+01 0. -1.
         11    1    6    6    0    0 -0.49730818901E+02 -0.95125000542E+02  0.76255135430E+03  0.77006914496E+03  0.00000000000E+00 0. -1.
        -12    1    6    6    0    0 -0.30500428423E+02 -0.94749709688E+01  0.73932670603E+02  0.80536271277E+02  0.00000000000E+00 0.  1.
         -5    1    5    5    0  503  0.34082869098E+02  0.11612142980E+02  0.83758244681E+02  0.91290839533E+02  0.47000000000E+01 0.  1.
<mgrwt>
<rscale>  2 0.20170004E+03</rscale>
<asrwt>0</asrwt>
<pdfrwt beam="1">  1       21 0.23768080E+00 0.20199921E+03</pdfrwt>
<pdfrwt beam="2">  1       21 0.42222716E-02 0.20199921E+03</pdfrwt>
<totfact> 0.27935075E+04</totfact>
</mgrwt>
</event>
<event>
12    1  0.2762290E-001  0.1892390E+03  0.7546771E-02  0.1159212E+00
         21   -1    0    0  504  503  0.00000000000E+00  0.00000000000E+00  0.55196233116E+02  0.55196233116E+02  0.00000000000E+00 0.  1.
         21   -1    0    0  502  504 -0.00000000000E+00 -0.00000000000E+00 -0.10923830825E+04  0.10923830825E+04  0.00000000000E+00 0. -1.
          6    2    1    2  502    0  0.25612903853E+02 -0.70727296504E+02 -0.88484131044E+03  0.90485111043E+03  0.17364623830E+03 0.  0.
         24    2    3    3    0    0 -0.31582769916E+02 -0.81164930739E+02 -0.41423400981E+03  0.43064270613E+03  0.79234513444E+02 0.  0.
         -6    2    1    2    0  503 -0.25612903853E+02  0.70727296504E+02 -0.15234553896E+03  0.24272820520E+03  0.17334776331E+03 0.  0.
        -24    2    5    5    0    0  0.99968847294E+01 -0.12745389455E+02 -0.12461767336E+03  0.14771941153E+03  0.77647133696E+02 0.  0.
          2    1    4    4  501    0  0.11354278273E+02 -0.37327269122E+02 -0.28410632361E+03  0.28677281561E+03  0.00000000000E+00 0. -1.
         -1    1    4    4    0  501 -0.42937048189E+02 -0.43837661617E+02 -0.13012768620E+03  0.14386989052E+03  0.00000000000E+00 0.  1.
          5    1    3    3  502    0  0.57195673768E+02  0.10437634235E+02 -0.47060730062E+03  0.47420840430E+03  0.47000000000E+01 0. -1.
         13    1    6    6    0    0  0.14509987610E+02  0.28931711868E+02 -0.29580640391E+02  0.43847439811E+02  0.00000000000E+00 0. -1.
        -14    1    6    6    0    0 -0.45131028806E+01 -0.41677101323E+02 -0.95037032969E+02  0.10387197171E+03  0.00000000000E+00 0.  1.
         -5    1    5    5    0  503 -0.35609788582E+02  0.83472685959E+02 -0.27727865595E+02  0.95008793670E+02  0.47000000000E+01 0.  1.
<mgrwt>
<rscale>  2 0.18917047E+03</rscale>
<asrwt>0</asrwt>
<pdfrwt beam="1">  1       21 0.84917270E-02 0.18923897E+03</pdfrwt>
<pdfrwt beam="2">  1       21 0.16805896E+00 0.18923897E+03</pdfrwt>
<totfact> 0.23870907E+04</totfact>
</mgrwt>
</event>
<event>
12    1  0.2762290E-001  0.2481939E+03  0.7546771E-02  0.1114560E+00
         21   -1    0    0  504  503  0.00000000000E+00  0.00000000000E+00  0.86980205496E+02  0.86980205496E+02  0.00000000000E+00 0.  1.
         21   -1    0    0  502  504 -0.00000000000E+00 -0.00000000000E+00 -0.82651617859E+03  0.82651617859E+03  0.00000000000E+00 0. -1.
          6    2    1    2  502    0  0.80167962195E+02  0.15796989481E+03 -0.54355147211E+03  0.59725258045E+03  0.17286136697E+03 0.  0.
         24    2    3    3    0    0  0.44878929640E+02  0.40477844443E+02 -0.12794242499E+03  0.16389052884E+03  0.82693815471E+02 0.  0.
         -6    2    1    2    0  503 -0.80167962195E+02 -0.15796989481E+03 -0.19598450099E+03  0.31624380364E+03  0.17383563756E+03 0.  0.
        -24    2    5    5    0    0 -0.28993832426E+02 -0.13331761308E+03 -0.60514869459E+02  0.16927224987E+03  0.79854974005E+02 0.  0.
          4    1    4    4  501    0  0.47963693696E+02 -0.79232410788E+01 -0.90085632967E+02  0.10236559446E+03  0.00000000000E+00 0. -1.
         -3    1    4    4    0  501 -0.30847640560E+01  0.48401085522E+02 -0.37856792019E+02  0.61524934384E+02  0.00000000000E+00 0.  1.
          5    1    3    3  502    0  0.35289032554E+02  0.11749205037E+03 -0.41560904713E+03  0.43336205160E+03  0.47000000000E+01 0. -1.
         11    1    6    6    0    0  0.24357570365E+02 -0.17640419102E+02 -0.57870323162E+01  0.30626220191E+02  0.00000000000E+00 0. -1.
        -12    1    6    6    0    0 -0.53351402791E+02 -0.11567719398E+03 -0.54727837143E+02  0.13864602968E+03  0.00000000000E+00 0.  1.
         -5    1    5    5    0  503 -0.51174129769E+02 -0.24652281730E+02 -0.13546963153E+03  0.14697155377E+03  0.47000000000E+01 0.  1.
<mgrwt>
<rscale>  2 0.24802339E+03</rscale>
<asrwt>0</asrwt>
<pdfrwt beam="1">  1       21 0.13381570E-01 0.24819391E+03</pdfrwt>
<pdfrwt beam="2">  1       21 0.12715633E+00 0.24819391E+03</pdfrwt>
<totfact> 0.21348954E+04</totfact>
</mgrwt>
</event>
<event>
12    1  0.2762290E-001  0.1796445E+03  0.7546771E-02  0.1170475E+00
         21   -1    0    0  504  503  0.00000000000E+00  0.00000000000E+00  0.46893314613E+02  0.46893314613E+02  0.00000000000E+00 0.  1.
         21   -1    0    0  502  504 -0.00000000000E+00 -0.00000000000E+00 -0.73677595951E+03  0.73677595951E+03  0.00000000000E+00 0.  1.
          6    2    1    2  502    0  0.48116338459E+02 -0.72435791630E+01 -0.22095381190E+03  0.28476787884E+03  0.17292919465E+03 0.  0.
         24    2    3    3    0    0 -0.12193500049E+02 -0.56833263250E+02 -0.14369076804E+03  0.17482206794E+03  0.80851823498E+02 0.  0.
         -6    2    1    2    0  503 -0.48116338459E+02  0.72435791630E+01 -0.46892883299E+03  0.49890139528E+03  0.16321979148E+03 0.  0.
        -24    2    5    5    0    0 -0.66939932223E+02  0.38180436719E+02 -0.20013318536E+03  0.22763656706E+03  0.76330953808E+02 0.  0.
          4    1    4    4  501    0 -0.11882349406E+02 -0.19413161502E+02 -0.13433402556E+03  0.13624863849E+03  0.00000000000E+00 0. -1.
         -3    1    4    4    0  501 -0.31115064273E+00 -0.37420101748E+02 -0.93567424803E+01  0.38573429448E+02  0.00000000000E+00 0.  1.
          5    1    3    3  502    0  0.60309838508E+02  0.49589684087E+02 -0.77263043856E+02  0.10994581090E+03  0.47000000000E+01 0. -1.
         13    1    6    6    0    0 -0.22859989981E+02 -0.71867931896E+01 -0.13398743763E+03  0.13611341808E+03  0.00000000000E+00 0. -1.
        -14    1    6    6    0    0 -0.44079942242E+02  0.45367229909E+02 -0.66145747722E+02  0.91523148980E+02  0.00000000000E+00 0.  1.
         -5    1    5    5    0  503  0.18823593764E+02 -0.30936857556E+02 -0.26879564764E+03  0.27126482821E+03  0.47000000000E+01 0.  1.
<mgrwt>
<rscale>  2 0.17726618E+03</rscale>
<asrwt>0</asrwt>
<pdfrwt beam="1">  1       21 0.72143566E-02 0.17964453E+03</pdfrwt>
<pdfrwt beam="2">  1       21 0.11335014E+00 0.17964453E+03</pdfrwt>
<totfact> 0.87693352E+04</totfact>
</mgrwt>
</event>
<event>
12    1  0.2762290E-001  0.1802389E+03  0.7546771E-02  0.1167625E+00
         21   -1    0    0  504  503  0.00000000000E+00  0.00000000000E+00  0.25370158825E+02  0.25370158825E+02  0.00000000000E+00 0.  1.
         21   -1    0    0  502  504 -0.00000000000E+00 -0.00000000000E+00 -0.15366603620E+04  0.15366603620E+04  0.00000000000E+00 0.  1.
          6    2    1    2  502    0  0.37202984437E+01  0.50053091163E+02 -0.10751166561E+04  0.10900841109E+04  0.17288259635E+03 0.  0.
         24    2    3    3    0    0  0.22507837958E+02 -0.30570899865E+02 -0.71242692396E+03  0.71803689434E+03  0.81139860522E+02 0.  0.
         -6    2    1    2    0  503 -0.37202984437E+01 -0.50053091163E+02 -0.43617354703E+03  0.47194640986E+03  0.17310949739E+03 0.  0.
        -24    2    5    5    0    0 -0.14603855388E+02 -0.88395729191E+02 -0.39846507472E+03  0.41687710273E+03  0.83576464871E+02 0.  0.
          4    1    4    4  501    0 -0.16730145406E+02 -0.37487198748E+02 -0.20633156385E+03  0.21037562139E+03  0.00000000000E+00 0. -1.
         -3    1    4    4    0  501  0.39237983364E+02  0.69162988824E+01 -0.50609536011E+03  0.50766127295E+03  0.00000000000E+00 0.  1.
          5    1    3    3  502    0 -0.18787539514E+02  0.80623991028E+02 -0.36268973214E+03  0.37204721658E+03  0.47000000000E+01 0. -1.
         11    1    6    6    0    0  0.17818158423E+02 -0.87073430313E+02 -0.31589311789E+03  0.32815808837E+03  0.00000000000E+00 0. -1.
        -12    1    6    6    0    0 -0.32422013811E+02 -0.13222988783E+01 -0.82571956831E+02  0.88719014359E+02  0.00000000000E+00 0.  1.
         -5    1    5    5    0  503  0.10883556944E+02  0.38342638028E+02 -0.37708472316E+02  0.55069307125E+02  0.47000000000E+01 0.  1.
<mgrwt>
<rscale>  2 0.18018437E+03</rscale>
<asrwt>0</asrwt>
<pdfrwt beam="1">  1       21 0.39030996E-02 0.18023887E+03</pdfrwt>
<pdfrwt beam="2">  1       21 0.23640939E+00 0.18023887E+03</pdfrwt>
<totfact> 0.33003523E+04</totfact>
</mgrwt>
</event>
<event>
12    1  0.2762290E-001  0.1782208E+03  0.7546771E-02  0.1169971E+00
         21   -1    0    0  504  503  0.00000000000E+00  0.00000000000E+00  0.20476791665E+04  0.20476791665E+04  0.00000000000E+00 0. -1.
         21   -1    0    0  502  504 -0.00000000000E+00 -0.00000000000E+00 -0.15987046697E+02  0.15987046697E+02  0.00000000000E+00 0. -1.
          6    2    1    2  502    0 -0.51471958078E+02  0.24224101003E+00  0.81606805650E+03  0.83530217484E+03  0.17062599246E+03 0.  0.
         24    2    3    3    0    0 -0.32079276433E+02 -0.21311850059E+02  0.79364129157E+03  0.79834673236E+03  0.77509550827E+02 0.  0.
         -6    2    1    2    0  503  0.51471958078E+02 -0.24224101003E+00  0.12156240633E+04  0.12283640384E+04  0.16878070477E+03 0.  0.
        -24    2    5    5    0    0  0.74332746458E+02  0.90075698361E+01  0.48160074764E+03  0.49391152623E+03  0.80017636163E+02 0.  0.
          4    1    4    4  501    0 -0.46896559010E+02  0.11972234560E+02  0.37225198060E+03  0.37538534695E+03  0.00000000000E+00 0. -1.
         -3    1    4    4    0  501  0.14817282577E+02 -0.33284084619E+02  0.42138931097E+03  0.42296138541E+03  0.00000000000E+00 0.  1.
          5    1    3    3  502    0 -0.19392681645E+02  0.21554091069E+02  0.22426764937E+02  0.36955442478E+02  0.47000000000E+01 0. -1.
         13    1    6    6    0    0  0.72012006351E+01 -0.28667696416E+02  0.19163525427E+03  0.19390143059E+03  0.00000000000E+00 0. -1.
        -14    1    6    6    0    0  0.67131545823E+02  0.37675266252E+02  0.28996549338E+03  0.30001009563E+03  0.00000000000E+00 0.  1.
         -5    1    5    5    0  503 -0.22860788380E+02 -0.92498108461E+01  0.73402331570E+03  0.73445251217E+03  0.47000000000E+01 0.  1.
<mgrwt>
<rscale>  2 0.17777768E+03</rscale>
<asrwt>0</asrwt>
<pdfrwt beam="1">  1       21 0.31502736E+00 0.17822079E+03</pdfrwt>
<pdfrwt beam="2">  1       21 0.24595473E-02 0.17822079E+03</pdfrwt>
<totfact> 0.24919741E+04</totfact>
</mgrwt>
</event>
<event>
12    1  0.2762290E-001  0.2019495E+03  0.7546771E-02  0.1148211E+00
         21   -1    0    0  504  503  0.00000000000E+00  0.00000000000E+00  0.45392369816E+03  0.45392369816E+03  0.00000000000E+00 0. -1.
         21   -1    0    0  502  504 -0.00000000000E+00 -0.00000000000E+00 -0.10579155703E+03  0.10579155703E+03  0.00000000000E+00 0. -1.
          6    2    1    2  502    0 -0.10078231906E+03 -0.24427868205E+02  0.64833168607E+02  0.21210123333E+03  0.17329107551E+03 0.  0.
         24    2    3    3    0    0 -0.35487910067E+02 -0.35799314838E+02 -0.27184230270E+02  0.98602504970E+02  0.80265116378E+02 0.  0.
         -6    2    1    2    0  503  0.10078231906E+03  0.24427868205E+02  0.28329897253E+03  0.34761402186E+03  0.17269453894E+03 0.  0.
        -24    2    5    5    0    0  0.93855281181E+02  0.10706660185E+02  0.88460975236E+02  0.15211417380E+03  0.79937046186E+02 0.  0.
          2    1    4    4  501    0 -0.46870957695E+02  0.78404056026E+00 -0.36217551354E+02  0.59238605832E+02  0.00000000000E+00 0. -1.
         -1    1    4    4    0  501  0.11383047628E+02 -0.36583355399E+02  0.90333210840E+01  0.39363899138E+02  0.00000000000E+00 0.  1.
          5    1    3    3  502    0 -0.65294408990E+02  0.11371446633E+02  0.92017398877E+02  0.11349872836E+03  0.47000000000E+01 0. -1.
         13    1    6    6    0    0  0.82307191279E+02  0.37843681084E+02  0.81399173745E+02  0.12178851925E+03  0.00000000000E+00 0. -1.
        -14    1    6    6    0    0  0.11548089902E+02 -0.27137020899E+02  0.70618014914E+01  0.30325654551E+02  0.00000000000E+00 0.  1.
         -5    1    5    5    0  503  0.69270378767E+01  0.13721208020E+02  0.19483799729E+03  0.19549984806E+03  0.47000000000E+01 0.  1.
<mgrwt>
<rscale>  2 0.20182145E+03</rscale>
<asrwt>0</asrwt>
<pdfrwt beam="1">  1       21 0.69834414E-01 0.20194948E+03</pdfrwt>
<pdfrwt beam="2">  1       21 0.16275624E-01 0.20194948E+03</pdfrwt>
<totfact> 0.62671741E+04</totfact>
</mgrwt>
</event>
<event>
12    1  0.2762290E-001  0.2878796E+03  0.7546771E-02  0.1091741E+00
         21   -1    0    0  504  503  0.00000000000E+00  0.00000000000E+00  0.32148065369E+03  0.32148065369E+03  0.00000000000E+00 0.  1.
         21   -1    0    0  502  504 -0.00000000000E+00 -0.00000000000E+00 -0.27210382073E+03  0.27210382073E+03  0.00000000000E+00 0. -1.
          6    2    1    2  502    0  0.17683100136E+03 -0.14320983067E+03  0.97196606139E+02  0.30384506485E+03  0.17634166991E+03 0.  0.
         24    2    3    3    0    0  0.51124063507E+02 -0.70569980674E+02  0.74642919253E+01  0.13310327077E+03  0.10033430617E+03 0.  0.
         -6    2    1    2    0  503 -0.17683100136E+03  0.14320983067E+03 -0.47819773180E+02  0.28973940958E+03  0.17286970850E+03 0.  0.
        -24    2    5    5    0    0 -0.30799550694E+02  0.19508213135E+02  0.44155062915E+01  0.91300781324E+02  0.83589193512E+02 0.  0.
          2    1    4    4  501    0  0.46416761107E+02 -0.34561947537E+02 -0.42168085410E+02  0.71604408778E+02  0.00000000000E+00 0. -1.
         -1    1    4    4    0  501  0.47073023998E+01 -0.36008033137E+02  0.49632377336E+02  0.61498861992E+02  0.00000000000E+00 0.  1.
          5    1    3    3  502    0  0.12570693785E+03 -0.72639849996E+02  0.89732314214E+02  0.17074179408E+03  0.47000000000E+01 0. -1.
         13    1    6    6    0    0 -0.54684753297E+02 -0.26318111075E+01  0.15496847109E+02  0.56899041671E+02  0.00000000000E+00 0. -1.
        -14    1    6    6    0    0  0.23885202603E+02  0.22140024243E+02 -0.11081340817E+02  0.34401739653E+02  0.00000000000E+00 0.  1.
         -5    1    5    5    0  503 -0.14603145066E+03  0.12370161754E+03 -0.52235279471E+02  0.19843862826E+03  0.47000000000E+01 0.  1.
<mgrwt>
<rscale>  2 0.28734971E+03</rscale>
<asrwt>0</asrwt>
<pdfrwt beam="1">  1       21 0.49458563E-01 0.28787956E+03</pdfrwt>
<pdfrwt beam="2">  1       21 0.41862126E-01 0.28787956E+03</pdfrwt>
<totfact> 0.20410324E+04</totfact>
</mgrwt>
</event>
<event>
12    1  0.2762290E-001  0.1859210E+03  0.7546771E-02  0.1162531E+00
         21   -1    0    0  504  503  0.00000000000E+00  0.00000000000E+00  0.24075737163E+03  0.24075737163E+03  0.00000000000E+00 0.  1.
         21   -1    0    0  502  504 -0.00000000000E+00 -0.00000000000E+00 -0.17328559691E+03  0.17328559691E+03  0.00000000000E+00 0.  1.
          6    2    1    2  502    0 -0.20403246528E+02  0.62927018103E+02 -0.53475762591E+02  0.19345873170E+03  0.17375419883E+03 0.  0.
         24    2    3    3    0    0 -0.55303092586E+02 -0.20754700462E+01 -0.66032305270E+02  0.11847153623E+03  0.81317279420E+02 0.  0.
         -6    2    1    2    0  503  0.20403246528E+02 -0.62927018103E+02  0.12094753731E+03  0.22058423683E+03  0.17220045494E+03 0.  0.
        -24    2    5    5    0    0  0.72384252698E+02 -0.36035658283E+02  0.11115525314E+03  0.16105987993E+03  0.83944898095E+02 0.  0.
          2    1    4    4  501    0 -0.43913006232E+01 -0.28404693132E+02 -0.52073825415E+02  0.59479352774E+02  0.00000000000E+00 0. -1.
         -1    1    4    4    0  501 -0.50911791963E+02  0.26329223086E+02 -0.13958479855E+02  0.58992183457E+02  0.00000000000E+00 0.  1.
          5    1    3    3  502    0  0.34899846058E+02  0.65002488150E+02  0.12556542679E+02  0.74987195471E+02  0.47000000000E+01 0. -1.
         13    1    6    6    0    0  0.16523827680E+02  0.43071229039E+01  0.86043307295E+02  0.87721370937E+02  0.00000000000E+00 0. -1.
        -14    1    6    6    0    0  0.55860425017E+02 -0.40342781187E+02  0.25111945841E+02  0.73338508990E+02  0.00000000000E+00 0.  1.
         -5    1    5    5    0  503 -0.51981006169E+02 -0.26891359821E+02  0.97922841778E+01  0.59524356904E+02  0.47000000000E+01 0.  1.
<mgrwt>
<rscale>  2 0.18555714E+03</rscale>
<asrwt>0</asrwt>
<pdfrwt beam="1">  1       21 0.37039596E-01 0.18592101E+03</pdfrwt>
<pdfrwt beam="2">  1       21 0.26659323E-01 0.18592101E+03</pdfrwt>
<totfact> 0.94388518E+04</totfact>
</mgrwt>
</event>
<event>
12    1  0.2762290E-001  0.2229406E+03  0.7546771E-02  0.1132063E+00
         21   -1    0    0  504  503  0.00000000000E+00  0.00000000000E+00  0.22316501277E+03  0.22316501277E+03  0.00000000000E+00 0.  1.
         21   -1    0    0  502  504 -0.00000000000E+00 -0.00000000000E+00 -0.27797119765E+03  0.27797119765E+03  0.00000000000E+00 0.  1.
          6    2    1    2  502    0  0.10517892533E+03  0.85908508239E+02  0.86323105330E+02  0.23728019558E+03  0.17437698982E+03 0.  0.
         24    2    3    3    0    0  0.11105403943E+03  0.27147094180E+02  0.74960953621E+01  0.13867386592E+03  0.78129925429E+02 0.  0.
         -6    2    1    2    0  503 -0.10517892533E+03 -0.85908508239E+02 -0.14112929022E+03  0.26385601484E+03  0.17680396458E+03 0.  0.
        -24    2    5    5    0    0 -0.16927885663E+02 -0.32692532368E+02 -0.13414103804E+03  0.16045818238E+03  0.79985343786E+02 0.  0.
          2    1    4    4  501    0  0.21749293670E+02 -0.12550350874E+01 -0.30558936450E+02  0.37529394948E+02  0.00000000000E+00 0. -1.
         -1    1    4    4    0  501  0.89304745761E+02  0.28402129267E+02  0.38055031812E+02  0.10114447097E+03  0.00000000000E+00 0.  1.
          5    1    3    3  502    0 -0.58751140997E+01  0.58761414060E+02  0.78827009968E+02  0.98606329658E+02  0.47000000000E+01 0. -1.
         11    1    6    6    0    0 -0.24861814513E+02  0.12489744890E+02 -0.98535016295E+02  0.10238775798E+03  0.00000000000E+00 0. -1.
        -12    1    6    6    0    0  0.79339288494E+01 -0.45182277257E+02 -0.35606021740E+02  0.58070424394E+02  0.00000000000E+00 0.  1.
         -5    1    5    5    0  503 -0.88251039668E+02 -0.53215975872E+02 -0.69882521811E+01  0.10339783247E+03  0.47000000000E+01 0.  1.
<mgrwt>
<rscale>  2 0.22245912E+03</rscale>
<asrwt>0</asrwt>
<pdfrwt beam="1">  1       21 0.34333079E-01 0.22294062E+03</pdfrwt>
<pdfrwt beam="2">  1       21 0.42764799E-01 0.22294062E+03</pdfrwt>
<totfact> 0.42363831E+04</totfact>
</mgrwt>
</event>
<event>
12    1  0.2762290E-001  0.1969785E+03  0.7546771E-02  0.1152536E+00
         21   -1    0    0  504  503  0.00000000000E+00  0.00000000000E+00  0.16495907364E+03  0.16495907364E+03  0.00000000000E+00 0. -1.
         21   -1    0    0  502  504 -0.00000000000E+00 -0.00000000000E+00 -0.24717299231E+03  0.24717299231E+03  0.00000000000E+00 0. -1.
          6    2    1    2  502    0 -0.34223161327E+02 -0.87670389864E+02 -0.88811422507E+02  0.21607403658E+03  0.17304103123E+03 0.  0.
         24    2    3    3    0    0  0.36140593891E+02 -0.69840456606E+02 -0.87023142215E+02  0.14331242229E+03  0.82350417097E+02 0.  0.
         -6    2    1    2    0  503  0.34223161327E+02  0.87670389864E+02  0.65975038383E+01  0.19605802936E+03  0.17186594133E+03 0.  0.
        -24    2    5    5    0    0  0.35412653948E+02  0.55628729280E+02 -0.61621674777E+02  0.12053300545E+03  0.79889692827E+02 0.  0.
          4    1    4    4  501    0  0.57299564493E+02 -0.45229757483E+02 -0.32604465441E+02  0.79950123326E+02  0.00000000000E+00 0. -1.
         -3    1    4    4    0  501 -0.21158970602E+02 -0.24610699123E+02 -0.54418676774E+02  0.63362298965E+02  0.00000000000E+00 0.  1.
          5    1    3    3  502    0 -0.70363755218E+02 -0.17829933258E+02 -0.17882802923E+01  0.72761614294E+02  0.47000000000E+01 0. -1.
         11    1    6    6    0    0  0.59558768569E+02  0.52207545901E+02 -0.47403178845E+02  0.92303500080E+02  0.00000000000E+00 0. -1.
        -12    1    6    6    0    0 -0.24146114620E+02  0.34211833782E+01 -0.14218495932E+02  0.28229505372E+02  0.00000000000E+00 0.  1.
         -5    1    5    5    0  503 -0.11894926215E+01  0.32041660584E+02  0.68219178615E+02  0.75525023910E+02  0.47000000000E+01 0.  1.
<mgrwt>
<rscale>  2 0.19672010E+03</rscale>
<asrwt>0</asrwt>
<pdfrwt beam="1">  1       21 0.25378319E-01 0.19697848E+03</pdfrwt>
<pdfrwt beam="2">  1       21 0.38026614E-01 0.19697848E+03</pdfrwt>
<totfact> 0.97990110E+04</totfact>
</mgrwt>
</event>
<event>
12    1  0.2762290E-001  0.2256413E+03  0.7546771E-02  0.1132326E+00
         21   -1    0    0  504  503  0.00000000000E+00  0.00000000000E+00  0.79869737436E+02  0.79869737436E+02  0.00000000000E+00 0. -1.
         21   -1    0    0  502  504 -0.00000000000E+00 -0.00000000000E+00 -0.64623474635E+03  0.64623474635E+03  0.00000000000E+00 0. -1.
          6    2    1    2  502    0  0.12358176068E+03  0.80149884547E+02 -0.38960282925E+03  0.45022703049E+03  0.17093144489E+03 0.  0.
         24    2    3    3    0    0  0.25499362334E+02 -0.54565183618E+01 -0.86799862436E+02  0.12059035201E+03  0.79547632312E+02 0.  0.
         -6    2    1    2    0  503 -0.12358176068E+03 -0.80149884547E+02 -0.17676217966E+03  0.27587745330E+03  0.15220724528E+03 0.  0.
        -24    2    5    5    0    0 -0.14477946833E+03 -0.49143059240E+02 -0.15479157744E+03  0.23211030367E+03  0.80861770335E+02 0.  0.
          2    1    4    4  501    0  0.47031573999E+02 -0.14018323946E+02 -0.26029196687E+02  0.55551790604E+02  0.00000000000E+00 0. -1.
         -1    1    4    4    0  501 -0.21532211665E+02  0.85618055843E+01 -0.60770665748E+02  0.65038561404E+02  0.00000000000E+00 0.  1.
          5    1    3    3  502    0  0.98082398347E+02  0.85606402909E+02 -0.30280296682E+03  0.32963667848E+03  0.47000000000E+01 0. -1.
         13    1    6    6    0    0 -0.84633921169E+02 -0.44964592453E+02 -0.14062681237E+03  0.17017818763E+03  0.00000000000E+00 0. -1.
        -14    1    6    6    0    0 -0.60145547160E+02 -0.41784667870E+01 -0.14164765071E+02  0.61932116041E+02  0.00000000000E+00 0.  1.
         -5    1    5    5    0  503  0.21197707647E+02 -0.31006825307E+02 -0.21970602222E+02  0.43767149634E+02  0.47000000000E+01 0.  1.
<mgrwt>
<rscale>  2 0.22210107E+03</rscale>
<asrwt>0</asrwt>
<pdfrwt beam="1">  1       21 0.12287652E-01 0.22564134E+03</pdfrwt>
<pdfrwt beam="2">  1       21 0.99420727E-01 0.22564134E+03</pdfrwt>
<totfact> 0.46046398E+04</totfact>
</mgrwt>
</event>
<event>
12    1  0.2762290E-001  0.1836319E+03  0.7546771E-02  0.1164484E+00
         21   -1    0    0  504  503  0.00000000000E+00  0.00000000000E+00  0.52688100224E+02  0.52688100224E+02  0.00000000000E+00 0.  1.
         21   -1    0    0  502  504 -0.00000000000E+00 -0.00000000000E+00 -0.67062030480E+03  0.67062030480E+03  0.00000000000E+00 0.  1.
          6    2    1    2  502    0  0.43276488524E+02  0.42067439600E+02 -0.38847912052E+03  0.42942168854E+03  0.17275542125E+03 0.  0.
         24    2    3    3    0    0  0.26447859246E+01  0.81509406732E+02 -0.18105887718E+03  0.21435925254E+03  0.80726661441E+02 0.  0.
         -6    2    1    2    0  503 -0.43276488524E+02 -0.42067439600E+02 -0.22945308406E+03  0.29388671649E+03  0.17343056366E+03 0.  0.
        -24    2    5    5    0    0 -0.31298722510E+01  0.15993538478E+02 -0.20168723281E+03  0.21788763446E+03  0.80818883921E+02 0.  0.
          2    1    4    4  501    0  0.10232297491E+02 -0.11639675137E+02 -0.74545929448E+01  0.17197467988E+02  0.00000000000E+00 0. -1.
         -1    1    4    4    0  501 -0.75875115663E+01  0.93149081868E+02 -0.17360428424E+03  0.19716178456E+03  0.00000000000E+00 0.  1.
          5    1    3    3  502    0  0.40631702599E+02 -0.39441967132E+02 -0.20742024334E+03  0.21506243599E+03  0.47000000000E+01 0. -1.
         11    1    6    6    0    0 -0.40931857094E+02  0.17633040570E+02 -0.11244252515E+03  0.12095314178E+03  0.00000000000E+00 0. -1.
        -12    1    6    6    0    0  0.37801984843E+02 -0.16395020920E+01 -0.89244707665E+02  0.96934492681E+02  0.00000000000E+00 0.  1.
         -5    1    5    5    0  503 -0.40146616273E+02 -0.58060978078E+02 -0.27765851243E+02  0.75999082026E+02  0.47000000000E+01 0.  1.
<mgrwt>
<rscale>  2 0.18347234E+03</rscale>
<asrwt>0</asrwt>
<pdfrwt beam="1">  1       21 0.81058621E-02 0.18363193E+03</pdfrwt>
<pdfrwt beam="2">  1       21 0.10317235E+00 0.18363193E+03</pdfrwt>
<totfact> 0.89718899E+04</totfact>
</mgrwt>
</event>
<event>
12    1  0.2762290E-001  0.1845290E+03  0.7546771E-02  0.1165125E+00
         21   -1    0    0  504  503  0.00000000000E+00  0.00000000000E+00  0.40726831148E+02  0.40726831148E+02  0.00000000000E+00 0.  1.
         21   -1    0    0  502  504 -0.00000000000E+00 -0.00000000000E+00 -0.12301577050E+04  0.12301577050E+04  0.00000000000E+00 0.  1.
          6    2    1    2  502    0  0.46496216776E+02  0.33755964900E+02 -0.97541750857E+03  0.99271863218E+03  0.17535564807E+03 0.  0.
         24    2    3    3    0    0  0.75430555459E+02  0.46430279950E+02 -0.92771659646E+03  0.93531391780E+03  0.79426078135E+02 0.  0.
         -6    2    1    2    0  503 -0.46496216776E+02 -0.33755964900E+02 -0.21401336529E+03  0.27816590398E+03  0.16814632399E+03 0.  0.
        -24    2    5    5    0    0 -0.80849890169E+02 -0.35069937635E+02 -0.21184855191E+03  0.24339985996E+03  0.81222396023E+02 0.  0.
          2    1    4    4  501    0  0.16382099005E+02  0.49313348989E+02 -0.27065519990E+03  0.27559828880E+03  0.00000000000E+00 0. -1.
         -1    1    4    4    0  501  0.59048456454E+02 -0.28830690385E+01 -0.65706139656E+03  0.65971562900E+03  0.00000000000E+00 0.  1.
          5    1    3    3  502    0 -0.28934338684E+02 -0.12674315050E+02 -0.47700912117E+02  0.57404714387E+02  0.47000000000E+01 0. -1.
         11    1    6    6    0    0 -0.11484774149E+02 -0.10404845111E+02 -0.13889105911E+03  0.13975295038E+03  0.00000000000E+00 0. -1.
        -12    1    6    6    0    0 -0.69365116020E+02 -0.24665092524E+02 -0.72957492797E+02  0.10364690958E+03  0.00000000000E+00 0.  1.
         -5    1    5    5    0  503  0.34353673393E+02  0.13139727346E+01 -0.21648133830E+01  0.34766044022E+02  0.47000000000E+01 0.  1.
<mgrwt>
<rscale>  2 0.18279558E+03</rscale>
<asrwt>0</asrwt>
<pdfrwt beam="1">  1       21 0.62656678E-02 0.18452904E+03</pdfrwt>
<pdfrwt beam="2">  1       21 0.18925499E+00 0.18452904E+03</pdfrwt>
<totfact> 0.29041812E+04</totfact>
</mgrwt>
</event>
<event>
12    1  0.2762290E-001  0.2348416E+03  0.7546771E-02  0.1125518E+00
         21   -1    0    0  504  503  0.00000000000E+00  0.00000000000E+00  0.91971856685E+02  0.91971856685E+02  0.00000000000E+00 0. -1.
         21   -1    0    0  502  504 -0.00000000000E+00 -0.00000000000E+00 -0.15808091840E+04  0.15808091840E+04  0.00000000000E+00 0.  1.
          6    2    1    2  502    0 -0.14434769288E+03  0.66157227270E+02 -0.14213385747E+04  0.14406088745E+04  0.17302470938E+03 0.  0.
         24    2    3    3    0    0 -0.53681178499E+02  0.71550113219E+02 -0.48138094150E+03  0.49626151131E+03  0.80912231135E+02 0.  0.
         -6    2    1    2    0  503  0.14434769288E+03 -0.66157227270E+02 -0.67498752604E+02  0.23217216622E+03  0.15535378337E+03 0.  0.
        -24    2    5    5    0    0  0.10663591677E+03 -0.77160805712E+02 -0.94736266635E+02  0.18413854294E+03  0.87218312840E+02 0.  0.
          2    1    4    4  501    0  0.20365721192E+01  0.15121506578E+01  0.28581279206E+01  0.38214029909E+01  0.00000000000E+00 0. -1.
         -1    1    4    4    0  501 -0.55717750618E+02  0.70037962561E+02 -0.48423906942E+03  0.49244010832E+03  0.00000000000E+00 0.  1.
          5    1    3    3  502    0 -0.90666514380E+02 -0.53928859495E+01 -0.93995763325E+03  0.94434736318E+03  0.47000000000E+01 0. -1.
         13    1    6    6    0    0  0.11566440946E+02 -0.49809098783E+02 -0.64382092864E+01  0.51538135556E+02  0.00000000000E+00 0. -1.
        -14    1    6    6    0    0  0.95069475828E+02 -0.27351706929E+02 -0.88298057349E+02  0.13260040738E+03  0.00000000000E+00 0.  1.
         -5    1    5    5    0  503  0.37711776105E+02  0.11003578443E+02  0.27237514031E+02  0.48033623287E+02  0.47000000000E+01 0.  1.
<mgrwt>
<rscale>  2 0.23160067E+03</rscale>
<asrwt>0</asrwt>
<pdfrwt beam="1">  1       21 0.14149517E-01 0.23484162E+03</pdfrwt>
<pdfrwt beam="2">  1       21 0.24320140E+00 0.23484162E+03</pdfrwt>
<totfact> 0.30497566E+03</totfact>
</mgrwt>
</event>
<event>
12    1  0.2762290E-001  0.2013593E+03  0.7546771E-02  0.1148861E+00
         21   -1    0    0  504  503  0.00000000000E+00  0.00000000000E+00  0.19363152906E+03  0.19363152906E+03  0.00000000000E+00 0. -1.
         21   -1    0    0  502  504 -0.00000000000E+00 -0.00000000000E+00 -0.20889535196E+03  0.20889535196E+03  0.00000000000E+00 0.  1.
          6    2    1    2  502    0 -0.92165328924E+02 -0.19430234215E+01  0.48968862495E+01  0.20016080203E+03  0.17760108102E+03 0.  0.
         24    2    3    3    0    0 -0.10523142146E+03  0.31796569937E+02 -0.39121931972E+02  0.14298712547E+03  0.82644531378E+02 0.  0.
         -6    2    1    2    0  503  0.92165328924E+02  0.19430234215E+01 -0.20160709149E+02  0.20236607898E+03  0.17901774363E+03 0.  0.
        -24    2    5    5    0    0  0.41563453310E+02  0.59235114433E+02  0.27981386498E+02  0.11190788487E+03  0.80647983694E+02 0.  0.
          4    1    4    4  501    0 -0.14423416247E+02  0.28611563873E+02  0.16916105408E+02  0.36232735829E+02  0.00000000000E+00 0. -1.
         -3    1    4    4    0  501 -0.90808005209E+02  0.31850060639E+01 -0.56038037380E+02  0.10675438964E+03  0.00000000000E+00 0.  1.
          5    1    3    3  502    0  0.13066092532E+02 -0.33739593358E+02  0.44018818221E+02  0.57173676562E+02  0.47000000000E+01 0. -1.
         13    1    6    6    0    0  0.26129753114E+01  0.20830113305E+02  0.49000696378E+02  0.53308437473E+02  0.00000000000E+00 0. -1.
        -14    1    6    6    0    0  0.38950477999E+02  0.38405001128E+02 -0.21019309880E+02  0.58599447402E+02  0.00000000000E+00 0.  1.
         -5    1    5    5    0  503  0.50601875614E+02 -0.57292091011E+02 -0.48142095648E+02  0.90458194109E+02  0.47000000000E+01 0.  1.
<mgrwt>
<rscale>  2 0.20104397E+03</rscale>
<asrwt>0</asrwt>
<pdfrwt beam="1">  1       21 0.29789466E-01 0.20135932E+03</pdfrwt>
<pdfrwt beam="2">  1       21 0.32137747E-01 0.20135932E+03</pdfrwt>
<totfact> 0.10026450E+05</totfact>
</mgrwt>
</event>
<event>
12    1  0.2762290E-001  0.1804543E+03  0.7546771E-02  0.1167734E+00
         21   -1    0    0  504  503  0.00000000000E+00  0.00000000000E+00  0.38459185510E+02  0.38459185510E+02  0.00000000000E+00 0.  1.
         21   -1    0    0  502  504 -0.00000000000E+00 -0.00000000000E+00 -0.11714588072E+04  0.11714588072E+04  0.00000000000E+00 0.  1.
          6    2    1    2  502    0 -0.50899323855E+02 -0.31295246410E+01 -0.89022632264E+03  0.90833180666E+03  0.17309890348E+03 0.  0.
         24    2    3    3    0    0 -0.40024850490E+02 -0.70639102873E+02 -0.43525283905E+03  0.44822447343E+03  0.69773011774E+02 0.  0.
         -6    2    1    2    0  503  0.50899323855E+02  0.31295246410E+01 -0.24277329910E+03  0.30158618609E+03  0.17150748611E+03 0.  0.
        -24    2    5    5    0    0  0.97776919775E+02  0.20892781746E+02 -0.14449561706E+03  0.19116139227E+03  0.75278550583E+02 0.  0.
          4    1    4    4  501    0 -0.50792785204E+02 -0.67953811893E+02 -0.27988188375E+03  0.29245768314E+03  0.00000000000E+00 0. -1.
         -3    1    4    4    0  501  0.10767934714E+02 -0.26852909805E+01 -0.15537095530E+03  0.15576679029E+03  0.00000000000E+00 0.  1.
          5    1    3    3  502    0 -0.10874473365E+02  0.67509578232E+02 -0.45497348359E+03  0.46010733323E+03  0.47000000000E+01 0. -1.
         13    1    6    6    0    0  0.12469983494E+01  0.21716793305E+02 -0.56489636196E+02  0.60533074545E+02  0.00000000000E+00 0. -1.
        -14    1    6    6    0    0  0.96529921426E+02 -0.82401155924E+00 -0.88005980860E+02  0.13062831773E+03  0.00000000000E+00 0.  1.
         -5    1    5    5    0  503 -0.46877595921E+02 -0.17763257105E+02 -0.98277682040E+02  0.11042479382E+03  0.47000000000E+01 0.  1.
<mgrwt>
<rscale>  2 0.18007162E+03</rscale>
<asrwt>0</asrwt>
<pdfrwt beam="1">  1       21 0.59167980E-02 0.18045433E+03</pdfrwt>
<pdfrwt beam="2">  1       21 0.18022442E+00 0.18045433E+03</pdfrwt>
<totfact> 0.36910647E+04</totfact>
</mgrwt>
</event>
<event>
12    1  0.2762290E-001  0.1806871E+03  0.7546771E-02  0.1167259E+00
         21   -1    0    0  504  503  0.00000000000E+00  0.00000000000E+00  0.23981641125E+03  0.23981641125E+03  0.00000000000E+00 0. -1.
         21   -1    0    0  502  504 -0.00000000000E+00 -0.00000000000E+00 -0.13597091984E+03  0.13597091984E+03  0.00000000000E+00 0. -1.
          6    2    1    2  502    0 -0.48798004539E+02 -0.20506405022E+02  0.44657138357E+02  0.18612381726E+03  0.17276011534E+03 0.  0.
         24    2    3    3    0    0 -0.42399407745E+02 -0.74273622845E+02  0.54976909578E+01  0.11913569836E+03  0.82757532528E+02 0.  0.
         -6    2    1    2    0  503  0.48798004539E+02  0.20506405022E+02  0.59188353054E+02  0.18966351383E+03  0.17224177614E+03 0.  0.
        -24    2    5    5    0    0  0.52369290347E+02  0.51339785774E+02  0.91788181932E+02  0.14440547263E+03  0.83961622230E+02 0.  0.
          2    1    4    4  501    0 -0.42915181509E+02 -0.28932334109E+00 -0.87272357830E+01  0.43794533407E+02  0.00000000000E+00 0. -1.
         -1    1    4    4    0  501  0.51577376375E+00 -0.73984299504E+02  0.14224926741E+02  0.75341164953E+02  0.00000000000E+00 0.  1.
          5    1    3    3  502    0 -0.63985967940E+01  0.53767217823E+02  0.39159447400E+02  0.66988118902E+02  0.47000000000E+01 0. -1.
         11    1    6    6    0    0  0.17282877502E+02  0.68746998720E+02  0.69824726351E+02  0.99500452752E+02  0.00000000000E+00 0. -1.
        -12    1    6    6    0    0  0.35086412845E+02 -0.17407212947E+02  0.21963455580E+02  0.44905019875E+02  0.00000000000E+00 0.  1.
         -5    1    5    5    0  503 -0.35712858082E+01 -0.30833380752E+02 -0.32599828878E+02  0.45258041206E+02  0.47000000000E+01 0.  1.
<mgrwt>
<rscale>  2 0.18056305E+03</rscale>
<asrwt>0</asrwt>
<pdfrwt beam="1">  1       21 0.36894832E-01 0.18068706E+03</pdfrwt>
<pdfrwt beam="2">  1       21 0.20918603E-01 0.18068706E+03</pdfrwt>
<totfact> 0.15093713E+05</totfact>
</mgrwt>
</event>
<event>
12    1  0.2762290E-001  0.1749452E+03  0.7546771E-02  0.1172957E+00
         21   -1    0    0  504  503  0.00000000000E+00  0.00000000000E+00  0.51087824424E+02  0.51087824424E+02  0.00000000000E+00 0. -1.
         21   -1    0    0  502  504 -0.00000000000E+00 -0.00000000000E+00 -0.74764393675E+03  0.74764393675E+03  0.00000000000E+00 0. -1.
          6    2    1    2  502    0  0.16939586876E+02  0.16915463997E+02 -0.52714396341E+03  0.55520289637E+03  0.17261638236E+03 0.  0.
         24    2    3    3    0    0  0.15439823861E+02  0.77497677711E+02 -0.33353011144E+03  0.35227219987E+03  0.81296305922E+02 0.  0.
         -6    2    1    2    0  503 -0.16939586876E+02 -0.16915463997E+02 -0.16941214892E+03  0.24352886480E+03  0.17329959395E+03 0.  0.
        -24    2    5    5    0    0 -0.58621662697E+02  0.10635302397E+02 -0.42965500598E+02  0.10748738199E+03  0.78472250198E+02 0.  0.
          2    1    4    4  501    0  0.38798338667E+02  0.34234361612E+02 -0.25040604591E+03  0.25569608997E+03  0.00000000000E+00 0. -1.
         -1    1    4    4    0  501 -0.23358514807E+02  0.43263316100E+02 -0.83124065525E+02  0.96576109900E+02  0.00000000000E+00 0.  1.
          5    1    3    3  502    0  0.14997630155E+01 -0.60582213714E+02 -0.19361385197E+03  0.20293069650E+03  0.47000000000E+01 0. -1.
         13    1    6    6    0    0 -0.39728530877E+02  0.22978435334E+02 -0.62567325630E+02  0.77595327775E+02  0.00000000000E+00 0. -1.
        -14    1    6    6    0    0 -0.18893131820E+02 -0.12343132937E+02  0.19601825032E+02  0.29892054216E+02  0.00000000000E+00 0.  1.
         -5    1    5    5    0  503  0.41682075821E+02 -0.27550766394E+02 -0.12644664832E+03  0.13604148281E+03  0.47000000000E+01 0.  1.
<mgrwt>
<rscale>  2 0.17477579E+03</rscale>
<asrwt>0</asrwt>
<pdfrwt beam="1">  1       21 0.78596657E-02 0.17494523E+03</pdfrwt>
<pdfrwt beam="2">  1       21 0.11502214E+00 0.17494523E+03</pdfrwt>
<totfact> 0.73125771E+04</totfact>
</mgrwt>
</event>
<event>
12    1  0.2762290E-001  0.1763272E+03  0.7546771E-02  0.1171483E+00
         21   -1    0    0  504  503  0.00000000000E+00  0.00000000000E+00  0.63633688145E+03  0.63633688145E+03  0.00000000000E+00 0.  1.
         21   -1    0    0  502  504 -0.00000000000E+00 -0.00000000000E+00 -0.54095302431E+03  0.54095302431E+03  0.00000000000E+00 0.  1.
          6    2    1    2  502    0  0.10586562533E+02  0.32930319181E+02 -0.51379330666E+03  0.54310688758E+03  0.17258345269E+03 0.  0.
         24    2    3    3    0    0  0.39423104611E+02 -0.14492402285E+02 -0.44555392931E+03  0.45502077465E+03  0.82227675025E+02 0.  0.
         -6    2    1    2    0  503 -0.10586562533E+02 -0.32930319181E+02  0.60917716380E+03  0.63418301818E+03  0.17290113481E+03 0.  0.
        -24    2    5    5    0    0 -0.51455658164E+02  0.17030813468E+02  0.24317124063E+03  0.26249924997E+03  0.82679323897E+02 0.  0.
          2    1    4    4  501    0 -0.78584595783E+01 -0.35962101586E+02 -0.24974754661E+03  0.25244576680E+03  0.00000000000E+00 0. -1.
         -1    1    4    4    0  501  0.47281564189E+02  0.21469699300E+02 -0.19580638270E+03  0.20257500785E+03  0.00000000000E+00 0.  1.
          5    1    3    3  502    0 -0.28836542078E+02  0.47422721467E+02 -0.68239377353E+02  0.88086112934E+02  0.47000000000E+01 0. -1.
         11    1    6    6    0    0 -0.18308456760E+02  0.25335680882E+02  0.20866177137E+02  0.37583156640E+02  0.00000000000E+00 0. -1.
        -12    1    6    6    0    0 -0.33147201403E+02 -0.83048674137E+01  0.22230506350E+03  0.22491609333E+03  0.00000000000E+00 0.  1.
         -5    1    5    5    0  503  0.40869095631E+02 -0.49961132650E+02  0.36600592317E+03  0.37168376821E+03  0.47000000000E+01 0.  1.
<mgrwt>
<rscale>  2 0.17624928E+03</rscale>
<asrwt>0</asrwt>
<pdfrwt beam="1">  1       21 0.97897982E-01 0.17632721E+03</pdfrwt>
<pdfrwt beam="2">  1       21 0.83223542E-01 0.17632721E+03</pdfrwt>
<totfact> 0.11038840E+03</totfact>
</mgrwt>
</event>
<event>
12    1  0.2762290E-001  0.1862400E+03  0.7546771E-02  0.1162098E+00
         21   -1    0    0  504  503  0.00000000000E+00  0.00000000000E+00  0.12408813346E+03  0.12408813346E+03  0.00000000000E+00 0.  1.
         21   -1    0    0  502  504 -0.00000000000E+00 -0.00000000000E+00 -0.52685744931E+03  0.52685744931E+03  0.00000000000E+00 0.  1.
          6    2    1    2  502    0 -0.67153209310E+02  0.45566534962E+01 -0.42522026267E+03  0.46421721300E+03  0.17365204417E+03 0.  0.
         24    2    3    3    0    0 -0.47634422299E+02 -0.64255417596E+02 -0.29159044257E+03  0.31257584992E+03  0.79251996064E+02 0.  0.
         -6    2    1    2    0  503  0.67153209310E+02 -0.45566534962E+01  0.22450946823E+02  0.18672836976E+03  0.17272267497E+03 0.  0.
        -24    2    5    5    0    0 -0.20509791115E+01 -0.11820493916E+02  0.66224253212E+02  0.10438654913E+03  0.79793291285E+02 0.  0.
          4    1    4    4  501    0 -0.11185291468E+02 -0.19890159931E+02 -0.95282759129E+01  0.24728874806E+02  0.00000000000E+00 0. -1.
         -3    1    4    4    0  501 -0.36449130830E+02 -0.44365257665E+02 -0.28206216665E+03  0.28784697512E+03  0.00000000000E+00 0.  1.
          5    1    3    3  502    0 -0.19518787012E+02  0.68812071092E+02 -0.13362982011E+03  0.15164136308E+03  0.47000000000E+01 0. -1.
         13    1    6    6    0    0 -0.50998917263E+01  0.53737195990E+01 -0.17424733067E+02  0.18934283203E+02  0.00000000000E+00 0. -1.
        -14    1    6    6    0    0  0.30489126148E+01 -0.17194213515E+02  0.83648986279E+02  0.85452265927E+02  0.00000000000E+00 0.  1.
         -5    1    5    5    0  503  0.69204188422E+02  0.72638404199E+01 -0.43773306389E+02  0.82341820632E+02  0.47000000000E+01 0.  1.
<mgrwt>
<rscale>  2 0.18602309E+03</rscale>
<asrwt>0</asrwt>
<pdfrwt beam="1">  1       21 0.19090482E-01 0.18624003E+03</pdfrwt>
<pdfrwt beam="2">  1       21 0.81054992E-01 0.18624003E+03</pdfrwt>
<totfact> 0.33727960E+04</totfact>
</mgrwt>
</event>
<event>
12    1  0.2762290E-001  0.2506124E+03  0.7546771E-02  0.1113033E+00
         21   -1    0    0  504  503  0.00000000000E+00  0.00000000000E+00  0.10291864118E+03  0.10291864118E+03  0.00000000000E+00 0. -1.
         21   -1    0    0  502  504 -0.00000000000E+00 -0.00000000000E+00 -0.12556822169E+04  0.12556822169E+04  0.00000000000E+00 0.  1.
          6    2    1    2  502    0  0.11916983149E+03  0.13591220615E+03 -0.10644736158E+04  0.10935769962E+04  0.17358856916E+03 0.  0.
         24    2    3    3    0    0  0.87531127980E+02  0.15688014123E+03 -0.69726694492E+03  0.72438396944E+03  0.79232983207E+02 0.  0.
         -6    2    1    2    0  503 -0.11916983149E+03 -0.13591220615E+03 -0.88289959868E+02  0.26502386184E+03  0.17253681872E+03 0.  0.
        -24    2    5    5    0    0 -0.30576313510E+01 -0.51641508543E+02  0.19784712126E+00  0.96394755570E+02  0.81337047180E+02 0.  0.
          2    1    4    4  501    0  0.86845441680E+02  0.94560167908E+02 -0.38147766304E+03  0.40250337078E+03  0.00000000000E+00 0. -1.
         -1    1    4    4    0  501  0.68568630014E+00  0.62319973318E+02 -0.31578928188E+03  0.32188059866E+03  0.00000000000E+00 0.  1.
          5    1    3    3  502    0  0.31638703508E+02 -0.20967935075E+02 -0.36720667090E+03  0.36919302677E+03  0.47000000000E+01 0. -1.
         11    1    6    6    0    0 -0.27802877928E+02 -0.24750165501E+02 -0.30925176642E+02  0.48393566347E+02  0.00000000000E+00 0. -1.
        -12    1    6    6    0    0  0.24745246577E+02 -0.26891343041E+02  0.31123023763E+02  0.48001189223E+02  0.00000000000E+00 0.  1.
         -5    1    5    5    0  503 -0.11611220014E+03 -0.84270697608E+02 -0.88487806989E+02  0.16862910627E+03  0.47000000000E+01 0.  1.
<mgrwt>
<rscale>  2 0.25043035E+03</rscale>
<asrwt>0</asrwt>
<pdfrwt beam="1">  1       21 0.15833637E-01 0.25061239E+03</pdfrwt>
<pdfrwt beam="2">  1       21 0.19318188E+00 0.25061239E+03</pdfrwt>
<totfact> 0.50392706E+03</totfact>
</mgrwt>
</event>
<event>
12    1  0.2762290E-001  0.2722353E+03  0.7546771E-02  0.1100155E+00
         21   -1    0    0  504  503  0.00000000000E+00  0.00000000000E+00  0.35537430456E+03  0.35537430456E+03  0.00000000000E+00 0.  1.
         21   -1    0    0  502  504 -0.00000000000E+00 -0.00000000000E+00 -0.20975229826E+03  0.20975229826E+03  0.00000000000E+00 0.  1.
          6    2    1    2  502    0 -0.58092589646E+02 -0.20109309661E+03  0.10030509397E+03  0.28914529095E+03  0.17242594041E+03 0.  0.
         24    2    3    3    0    0 -0.21529500586E+02 -0.22205853426E+02  0.29199812028E+02  0.93146422650E+02  0.82867410411E+02 0.  0.
         -6    2    1    2    0  503  0.58092589646E+02  0.20109309661E+03  0.45316912333E+02  0.27598131188E+03  0.17406573323E+03 0.  0.
        -24    2    5    5    0    0  0.13836582987E+02  0.15614496284E+03  0.78910626551E+02  0.20436038973E+03  0.10470712229E+03 0.  0.
          4    1    4    4  501    0  0.12860949815E+02  0.25677422554E+02  0.15451491196E+02  0.32611081542E+02  0.00000000000E+00 0. -1.
         -3    1    4    4    0  501 -0.34390450401E+02 -0.47883275980E+02  0.13748320832E+02  0.60535341108E+02  0.00000000000E+00 0.  1.
          5    1    3    3  502    0 -0.36563089060E+02 -0.17888724318E+03  0.71105281938E+02  0.19599886830E+03  0.47000000000E+01 0. -1.
         13    1    6    6    0    0  0.30245063599E+02 -0.33372214598E+00  0.55106429555E+01  0.30744795143E+02  0.00000000000E+00 0. -1.
        -14    1    6    6    0    0 -0.16408480612E+02  0.15647868499E+03  0.73399983595E+02  0.17361559459E+03  0.00000000000E+00 0.  1.
         -5    1    5    5    0  503  0.44256006659E+02  0.44948133768E+02 -0.33593714217E+02  0.71620922150E+02  0.47000000000E+01 0.  1.
<mgrwt>
<rscale>  2 0.27197354E+03</rscale>
<asrwt>0</asrwt>
<pdfrwt beam="1">  1       21 0.54672970E-01 0.27223531E+03</pdfrwt>
<pdfrwt beam="2">  1       21 0.32269584E-01 0.27223531E+03</pdfrwt>
<totfact> 0.28076871E+04</totfact>
</mgrwt>
</event>
<event>
12    1  0.2762290E-001  0.1956906E+03  0.7546771E-02  0.1153800E+00
         21   -1    0    0  504  503  0.00000000000E+00  0.00000000000E+00  0.16553409735E+04  0.16553409735E+04  0.00000000000E+00 0. -1.
         21   -1    0    0  502  504 -0.00000000000E+00 -0.00000000000E+00 -0.24387834479E+02  0.24387834479E+02  0.00000000000E+00 0. -1.
          6    2    1    2  502    0  0.64218061886E+02 -0.56437929473E+02  0.61366148465E+03  0.64410808164E+03  0.17602728123E+03 0.  0.
         24    2    3    3    0    0 -0.52782647656E+01 -0.41474426979E+02  0.14594333748E+03  0.17099498627E+03  0.78688241821E+02 0.  0.
         -6    2    1    2    0  503 -0.64218061886E+02  0.56437929473E+02  0.10172916543E+04  0.10356207263E+04  0.17412288595E+03 0.  0.
        -24    2    5    5    0    0 -0.18937980993E+02  0.73562470060E+02  0.92420799002E+03  0.93059599504E+03  0.77964177847E+02 0.  0.
          2    1    4    4  501    0  0.58711428057E+01 -0.60794416676E+02  0.75542133770E+02  0.97144456308E+02  0.00000000000E+00 0. -1.
         -1    1    4    4    0  501 -0.11149407571E+02  0.19319989697E+02  0.70401203712E+02  0.73850529959E+02  0.00000000000E+00 0.  1.
          5    1    3    3  502    0  0.69496326652E+02 -0.14963502495E+02  0.46771814717E+03  0.47311309537E+03  0.47000000000E+01 0. -1.
         13    1    6    6    0    0  0.76463970174E+00  0.72452273109E+02  0.43523120039E+03  0.44122116262E+03  0.00000000000E+00 0. -1.
        -14    1    6    6    0    0 -0.19702620695E+02  0.11101969515E+01  0.48897678964E+03  0.48937483242E+03  0.00000000000E+00 0.  1.
         -5    1    5    5    0  503 -0.45280080893E+02 -0.17124540587E+02  0.93083664311E+02  0.10502473127E+03  0.47000000000E+01 0.  1.
<mgrwt>
<rscale>  2 0.19526136E+03</rscale>
<asrwt>0</asrwt>
<pdfrwt beam="1">  1       21 0.25466775E+00 0.19569058E+03</pdfrwt>
<pdfrwt beam="2">  1       21 0.37519758E-02 0.19569058E+03</pdfrwt>
<totfact> 0.27159426E+04</totfact>
</mgrwt>
</event>
<event>
12    1  0.2762290E-001  0.2960259E+03  0.7546771E-02  0.1087395E+00
         21   -1    0    0  504  503  0.00000000000E+00  0.00000000000E+00  0.13902935699E+03  0.13902935699E+03  0.00000000000E+00 0.  1.
         21   -1    0    0  502  504 -0.00000000000E+00 -0.00000000000E+00 -0.70068946273E+03  0.70068946273E+03  0.00000000000E+00 0. -1.
          6    2    1    2  502    0  0.11438472793E+03 -0.20944480514E+03 -0.41575357393E+03  0.50968844769E+03  0.17314816513E+03 0.  0.
         24    2    3    3    0    0  0.63515721055E+01 -0.13901492387E+03 -0.18877428905E+03  0.24858843486E+03  0.82431706360E+02 0.  0.
         -6    2    1    2    0  503 -0.11438472793E+03  0.20944480514E+03 -0.14590653181E+03  0.33003037203E+03  0.17515803735E+03 0.  0.
        -24    2    5    5    0    0  0.57374826601E+01  0.10714229610E+03 -0.36772803178E+02  0.13812568329E+03  0.78829404470E+02 0.  0.
          4    1    4    4  501    0  0.66842662586E+01 -0.14308641215E+03 -0.14221475670E+03  0.20185003785E+03  0.00000000000E+00 0. -1.
         -3    1    4    4    0  501 -0.33269415312E+00  0.40714882806E+01 -0.46559532352E+02  0.46738397010E+02  0.00000000000E+00 0.  1.
          5    1    3    3  502    0  0.10803315583E+03 -0.70429881271E+02 -0.22697928488E+03  0.26110001283E+03  0.47000000000E+01 0. -1.
         11    1    6    6    0    0  0.14179026546E+02  0.41437422816E+02  0.22497054994E+02  0.49236391895E+02  0.00000000000E+00 0. -1.
        -12    1    6    6    0    0 -0.84415438859E+01  0.65704873288E+02 -0.59269858172E+02  0.88889291395E+02  0.00000000000E+00 0.  1.
         -5    1    5    5    0  503 -0.12012221059E+03  0.10230250904E+03 -0.10913372863E+03  0.19190468874E+03  0.47000000000E+01 0.  1.
<mgrwt>
<rscale>  2 0.29572925E+03</rscale>
<asrwt>0</asrwt>
<pdfrwt beam="1">  1       21 0.21389132E-01 0.29602589E+03</pdfrwt>
<pdfrwt beam="2">  1       21 0.10779838E+00 0.29602589E+03</pdfrwt>
<totfact> 0.13175113E+04</totfact>
</mgrwt>
</event>
<event>
12    1  0.2762290E-001  0.1881784E+03  0.7546771E-02  0.1160599E+00
         21   -1    0    0  504  503  0.00000000000E+00  0.00000000000E+00  0.99438044164E+02  0.99438044164E+02  0.00000000000E+00 0. -1.
         21   -1    0    0  502  504 -0.00000000000E+00 -0.00000000000E+00 -0.70507752382E+03  0.70507752382E+03  0.00000000000E+00 0. -1.
          6    2    1    2  502    0  0.41367643793E+02  0.53710236574E+02 -0.58656833318E+03  0.61537328728E+03  0.17327954799E+03 0.  0.
         24    2    3    3    0    0  0.94136826164E+02  0.39489076853E+02 -0.39338683503E+03  0.41455493848E+03  0.81740233724E+02 0.  0.
         -6    2    1    2    0  503 -0.41367643793E+02 -0.53710236574E+02 -0.19071146477E+02  0.18914228070E+03  0.17554208115E+03 0.  0.
        -24    2    5    5    0    0 -0.39438145082E+02 -0.45704559490E+02  0.55094149281E+02  0.11437333711E+03  0.80010130047E+02 0.  0.
          2    1    4    4  501    0  0.32378153187E+02  0.16582956177E+02 -0.28791536919E+03  0.29020440909E+03  0.00000000000E+00 0. -1.
         -1    1    4    4    0  501  0.61758672977E+02  0.22906120676E+02 -0.10547146584E+03  0.12435052939E+03  0.00000000000E+00 0.  1.
          5    1    3    3  502    0 -0.52769182371E+02  0.14221159721E+02 -0.19318149815E+03  0.20081834881E+03  0.47000000000E+01 0. -1.
         11    1    6    6    0    0 -0.30966118698E+02 -0.89526917651E+01 -0.14399810397E+02  0.35304471906E+02  0.00000000000E+00 0. -1.
        -12    1    6    6    0    0 -0.84720263839E+01 -0.36751867725E+02  0.69493959678E+02  0.79068865200E+02  0.00000000000E+00 0.  1.
         -5    1    5    5    0  503 -0.19294987111E+01 -0.80056770843E+01 -0.74165295758E+02  0.74768943591E+02  0.47000000000E+01 0.  1.
<mgrwt>
<rscale>  2 0.18764892E+03</rscale>
<asrwt>0</asrwt>
<pdfrwt beam="1">  1       21 0.15298161E-01 0.18817836E+03</pdfrwt>
<pdfrwt beam="2">  1       21 0.10847346E+00 0.18817836E+03</pdfrwt>
<totfact> 0.25634415E+04</totfact>
</mgrwt>
</event>
<event>
12    1  0.2762290E-001  0.1809809E+03  0.7546771E-02  0.1168528E+00
         21   -1    0    0  504  503  0.00000000000E+00  0.00000000000E+00  0.73944609286E+02  0.73944609286E+02  0.00000000000E+00 0.  1.
         21   -1    0    0  502  504 -0.00000000000E+00 -0.00000000000E+00 -0.50796379558E+03  0.50796379558E+03  0.00000000000E+00 0.  1.
          6    2    1    2  502    0 -0.90825577209E+01 -0.14579689111E+02 -0.33704685919E+03  0.38256327845E+03  0.18016386025E+03 0.  0.
         24    2    3    3    0    0 -0.26639575946E+01  0.30624207441E+02 -0.70666526132E+02  0.11225759495E+03  0.81627635989E+02 0.  0.
         -6    2    1    2    0  503  0.90825577209E+01  0.14579689111E+02 -0.96972327099E+02  0.19934512641E+03  0.17331989791E+03 0.  0.
        -24    2    5    5    0    0 -0.98042827078E+01  0.61724067599E+02 -0.15684319135E+02  0.10338088618E+03  0.80843214188E+02 0.  0.
          4    1    4    4  501    0 -0.37140743668E+01 -0.21680902343E+02  0.26862163644E+01  0.22160136127E+02  0.00000000000E+00 0. -1.
         -3    1    4    4    0  501  0.10501167721E+01  0.52305109784E+02 -0.73352742496E+02  0.90097458824E+02  0.00000000000E+00 0.  1.
          5    1    3    3  502    0 -0.64186001263E+01 -0.45203896552E+02 -0.26638033306E+03  0.27030568350E+03  0.47000000000E+01 0. -1.
         13    1    6    6    0    0  0.26654247717E+02  0.76972362929E+01 -0.25239739512E+02  0.37506543676E+02  0.00000000000E+00 0. -1.
        -14    1    6    6    0    0 -0.36458530425E+02  0.54026831306E+02  0.95554203774E+01  0.65874342504E+02  0.00000000000E+00 0.  1.
         -5    1    5    5    0  503  0.18886840429E+02 -0.47144378488E+02 -0.81288007964E+02  0.95964240231E+02  0.47000000000E+01 0.  1.
<mgrwt>
<rscale>  2 0.17925333E+03</rscale>
<asrwt>0</asrwt>
<pdfrwt beam="1">  1       21 0.11376094E-01 0.18098087E+03</pdfrwt>
<pdfrwt beam="2">  1       21 0.78148276E-01 0.18098087E+03</pdfrwt>
<totfact> 0.94034968E+04</totfact>
</mgrwt>
</event>
<event>
12    1  0.2762290E-001  0.2136150E+03  0.7546771E-02  0.1138827E+00
         21   -1    0    0  504  503  0.00000000000E+00  0.00000000000E+00  0.51660790914E+02  0.51660790914E+02  0.00000000000E+00 0. -1.
         21   -1    0    0  502  504 -0.00000000000E+00 -0.00000000000E+00 -0.91935723399E+03  0.91935723399E+03  0.00000000000E+00 0.  1.
          6    2    1    2  502    0 -0.10501087157E+03  0.67487294145E+02 -0.33557234035E+03  0.39779414775E+03  0.17334811899E+03 0.  0.
         24    2    3    3    0    0 -0.12094173385E+03  0.28995910016E+02 -0.32384894410E+03  0.35426361772E+03  0.71811603905E+02 0.  0.
         -6    2    1    2    0  503  0.10501087157E+03 -0.67487294145E+02 -0.53212410273E+03  0.57322387715E+03  0.17276496931E+03 0.  0.
        -24    2    5    5    0    0  0.41576002020E+02 -0.97090285793E+02 -0.42674512540E+03  0.44662554126E+03  0.78790129547E+02 0.  0.
          2    1    4    4  501    0 -0.27046815200E+02 -0.17261065933E+02 -0.37329173643E+02  0.49223386866E+02  0.00000000000E+00 0. -1.
         -1    1    4    4    0  501 -0.93894918649E+02  0.46256975949E+02 -0.28651977046E+03  0.30504023085E+03  0.00000000000E+00 0.  1.
          5    1    3    3  502    0  0.15930862283E+02  0.38491384130E+02 -0.11723396242E+02  0.43530530031E+02  0.47000000000E+01 0. -1.
         13    1    6    6    0    0  0.25120195777E+02 -0.10547338600E+03 -0.30966173931E+03  0.32809457810E+03  0.00000000000E+00 0. -1.
        -14    1    6    6    0    0  0.16455806243E+02  0.83831002038E+01 -0.11708338610E+03  0.11853096316E+03  0.00000000000E+00 0.  1.
         -5    1    5    5    0  503  0.63434869546E+02  0.29602991647E+02 -0.10537897732E+03  0.12659833589E+03  0.47000000000E+01 0.  1.
<mgrwt>
<rscale>  2 0.21349671E+03</rscale>
<asrwt>0</asrwt>
<pdfrwt beam="1">  1       21 0.79478145E-02 0.21361505E+03</pdfrwt>
<pdfrwt beam="2">  1       21 0.14143957E+00 0.21361505E+03</pdfrwt>
<totfact> 0.41797582E+04</totfact>
</mgrwt>
</event>
<event>
12    1  0.2762290E-001  0.1918371E+03  0.7546771E-02  0.1157095E+00
         21   -1    0    0  504  503  0.00000000000E+00  0.00000000000E+00  0.18820439756E+02  0.18820439756E+02  0.00000000000E+00 0. -1.
         21   -1    0    0  502  504 -0.00000000000E+00 -0.00000000000E+00 -0.19465177391E+04  0.19465177391E+04  0.00000000000E+00 0. -1.
          6    2    1    2  502    0  0.67187014481E+01  0.80969866506E+02 -0.10045776586E+04  0.10224960102E+04  0.17239651579E+03 0.  0.
         24    2    3    3    0    0  0.27584085976E+02  0.28773320782E+02 -0.89400790819E+03  0.89836864278E+03  0.78913196825E+02 0.  0.
         -6    2    1    2    0  503 -0.67187014481E+01 -0.80969866506E+02 -0.92311964077E+03  0.94284216860E+03  0.17378211496E+03 0.  0.
        -24    2    5    5    0    0 -0.52278540132E+02 -0.42813222868E+02 -0.31560133404E+03  0.33240608564E+03  0.79520977844E+02 0.  0.
          2    1    4    4  501    0 -0.15416346313E+02  0.98168538299E+01 -0.62635439342E+03  0.62662098633E+03  0.00000000000E+00 0. -1.
         -1    1    4    4    0  501  0.43000432289E+02  0.18956466952E+02 -0.26765351477E+03  0.27174765645E+03  0.00000000000E+00 0.  1.
          5    1    3    3  502    0 -0.20865384528E+02  0.52196545724E+02 -0.11056975036E+03  0.12412736746E+03  0.47000000000E+01 0. -1.
         13    1    6    6    0    0  0.71537823742E+01 -0.40856967447E+02 -0.17300280897E+03  0.17790570621E+03  0.00000000000E+00 0. -1.
        -14    1    6    6    0    0 -0.59432322506E+02 -0.19562554202E+01 -0.14259852507E+03  0.15450037944E+03  0.00000000000E+00 0.  1.
         -5    1    5    5    0  503  0.45559838684E+02 -0.38156643638E+02 -0.60751830673E+03  0.61043608295E+03  0.47000000000E+01 0.  1.
<mgrwt>
<rscale>  2 0.19152278E+03</rscale>
<asrwt>0</asrwt>
<pdfrwt beam="1">  1       21 0.28954538E-02 0.19183713E+03</pdfrwt>
<pdfrwt beam="2">  1       21 0.29946411E+00 0.19183713E+03</pdfrwt>
<totfact> 0.23085387E+04</totfact>
</mgrwt>
</event>
<event>
12    1  0.2762290E-001  0.2928144E+03  0.7546771E-02  0.1089101E+00
         21   -1    0    0  504  503  0.00000000000E+00  0.00000000000E+00  0.11822876666E+03  0.11822876666E+03  0.00000000000E+00 0. -1.
         21   -1    0    0  502  504 -0.00000000000E+00 -0.00000000000E+00 -0.72169636460E+03  0.72169636460E+03  0.00000000000E+00 0.  1.
          6    2    1    2  502    0  0.49206664693E+02  0.23019773081E+03 -0.29095367932E+03  0.41278848863E+03  0.17414936611E+03 0.  0.
         24    2    3    3    0    0 -0.30090765507E+02  0.88723367785E+02 -0.80322139747E+02  0.14691104827E+03  0.79711478542E+02 0.  0.
         -6    2    1    2    0  503 -0.49206664693E+02 -0.23019773081E+03 -0.31251391862E+03  0.42713664263E+03  0.17137231696E+03 0.  0.
        -24    2    5    5    0    0 -0.85974515503E+02 -0.18737715273E+03 -0.18858441847E+03  0.29087921065E+03  0.80900047090E+02 0.  0.
          4    1    4    4  501    0 -0.26870717729E+02  0.10001599563E+03 -0.51235652955E+02  0.11554361508E+03  0.00000000000E+00 0. -1.
         -3    1    4    4    0  501 -0.32200477780E+01 -0.11292627840E+02 -0.29086486792E+02  0.31367433193E+02  0.00000000000E+00 0.  1.
          5    1    3    3  502    0  0.79297430200E+02  0.14147436303E+03 -0.21063153957E+03  0.26587744036E+03  0.47000000000E+01 0. -1.
         11    1    6    6    0    0 -0.89365641913E+01 -0.94983940233E+02 -0.51211305197E+02  0.10827930948E+03  0.00000000000E+00 0. -1.
        -12    1    6    6    0    0 -0.77037951312E+02 -0.92393212499E+02 -0.13737311327E+03  0.18259990117E+03  0.00000000000E+00 0.  1.
         -5    1    5    5    0  503  0.36767850810E+02 -0.42820578083E+02 -0.12392950015E+03  0.13625743197E+03  0.47000000000E+01 0.  1.
<mgrwt>
<rscale>  2 0.29240280E+03</rscale>
<asrwt>0</asrwt>
<pdfrwt beam="1">  1       21 0.18189041E-01 0.29281443E+03</pdfrwt>
<pdfrwt beam="2">  1       21 0.11103021E+00 0.29281443E+03</pdfrwt>
<totfact> 0.16654723E+04</totfact>
</mgrwt>
</event>
<event>
12    1  0.2762290E-001  0.2103146E+03  0.7546771E-02  0.1142300E+00
         21   -1    0    0  504  503  0.00000000000E+00  0.00000000000E+00  0.10402604782E+03  0.10402604782E+03  0.00000000000E+00 0. -1.
         21   -1    0    0  502  504 -0.00000000000E+00 -0.00000000000E+00 -0.52725218959E+03  0.52725218959E+03  0.00000000000E+00 0. -1.
          6    2    1    2  502    0  0.57332537273E+02 -0.10411981941E+03 -0.35506013042E+03  0.41019262941E+03  0.16751817926E+03 0.  0.
         24    2    3    3    0    0  0.98496152976E+01 -0.87278801096E+02 -0.33543156823E+03  0.35591907940E+03  0.80308468244E+02 0.  0.
         -6    2    1    2    0  503 -0.57332537273E+02  0.10411981941E+03 -0.68166011349E+02  0.22108560800E+03  0.17350586254E+03 0.  0.
        -24    2    5    5    0    0  0.10117610675E+02  0.10326119665E+03 -0.76942856735E+02  0.15289922588E+03  0.81809102761E+02 0.  0.
          2    1    4    4  501    0  0.23627412598E+02 -0.92591666027E+02 -0.32226746802E+03  0.33613656776E+03  0.00000000000E+00 0. -1.
         -1    1    4    4    0  501 -0.13777797301E+02  0.53128649307E+01 -0.13164100211E+02  0.19782511635E+02  0.00000000000E+00 0.  1.
          5    1    3    3  502    0  0.47482921975E+02 -0.16841018311E+02 -0.19628562192E+02  0.54273550011E+02  0.47000000000E+01 0. -1.
         13    1    6    6    0    0  0.56147381705E+01  0.91223744562E+02 -0.18744562797E+02  0.93298743245E+02  0.00000000000E+00 0. -1.
        -14    1    6    6    0    0  0.45028725040E+01  0.12037452084E+02 -0.58198293937E+02  0.59600482638E+02  0.00000000000E+00 0.  1.
         -5    1    5    5    0  503 -0.67450147947E+02  0.85862276129E+00  0.87768453853E+01  0.68186382116E+02  0.47000000000E+01 0.  1.
<mgrwt>
<rscale>  2 0.20907576E+03</rscale>
<asrwt>0</asrwt>
<pdfrwt beam="1">  1       21 0.16004007E-01 0.21031462E+03</pdfrwt>
<pdfrwt beam="2">  1       21 0.81115722E-01 0.21031462E+03</pdfrwt>
<totfact> 0.46042625E+04</totfact>
</mgrwt>
</event>
<event>
12    1  0.2762290E-001  0.2189407E+03  0.7546771E-02  0.1134841E+00
         21   -1    0    0  504  503  0.00000000000E+00  0.00000000000E+00  0.12345089353E+03  0.12345089353E+03  0.00000000000E+00 0. -1.
         21   -1    0    0  502  504 -0.00000000000E+00 -0.00000000000E+00 -0.69843213651E+03  0.69843213651E+03  0.00000000000E+00 0. -1.
          6    2    1    2  502    0 -0.96995896681E+02 -0.90175811060E+02 -0.56169881503E+03  0.60253977842E+03  0.17323032325E+03 0.  0.
         24    2    3    3    0    0 -0.82037570454E+02 -0.37611695960E+02 -0.17553424333E+03  0.21249887780E+03  0.78731822309E+02 0.  0.
         -6    2    1    2    0  503  0.96995896681E+02  0.90175811060E+02 -0.13282427953E+02  0.21934325162E+03  0.17434207256E+03 0.  0.
        -24    2    5    5    0    0  0.43790021689E+02  0.10875590914E+03 -0.52789250263E+02  0.15035800546E+03  0.77944923442E+02 0.  0.
          2    1    4    4  501    0 -0.78993638607E+02 -0.58303897175E+02 -0.13550233372E+03  0.16733266809E+03  0.00000000000E+00 0. -1.
         -1    1    4    4    0  501 -0.30439318466E+01  0.20692201216E+02 -0.40031909611E+02  0.45166209707E+02  0.00000000000E+00 0.  1.
          5    1    3    3  502    0 -0.14958326227E+02 -0.52564115101E+02 -0.38616457170E+03  0.39004090062E+03  0.47000000000E+01 0. -1.
         13    1    6    6    0    0 -0.17000866446E+02  0.60976380294E+02 -0.27381356232E+02  0.68970189813E+02  0.00000000000E+00 0. -1.
        -14    1    6    6    0    0  0.60790888134E+02  0.47779528847E+02 -0.25407894031E+02  0.81387815649E+02  0.00000000000E+00 0.  1.
         -5    1    5    5    0  503  0.53205874992E+02 -0.18580098081E+02  0.39506822311E+02  0.68985246158E+02  0.47000000000E+01 0.  1.
<mgrwt>
<rscale>  2 0.21871932E+03</rscale>
<asrwt>0</asrwt>
<pdfrwt beam="1">  1       21 0.18992445E-01 0.21894072E+03</pdfrwt>
<pdfrwt beam="2">  1       21 0.10745110E+00 0.21894072E+03</pdfrwt>
<totfact> 0.17280408E+04</totfact>
</mgrwt>
</event>
<event>
12    1  0.2762290E-001  0.1927940E+03  0.7546771E-02  0.1156006E+00
         21   -1    0    0  504  503  0.00000000000E+00  0.00000000000E+00  0.11533780899E+03  0.11533780899E+03  0.00000000000E+00 0. -1.
         21   -1    0    0  502  504 -0.00000000000E+00 -0.00000000000E+00 -0.11603801615E+04  0.11603801615E+04  0.00000000000E+00 0. -1.
          6    2    1    2  502    0  0.64474012044E+02 -0.55434990819E+02 -0.10646474287E+04  0.10819297607E+04  0.17282338712E+03 0.  0.
         24    2    3    3    0    0  0.35122484964E+01 -0.16139290350E+02 -0.87134369807E+03  0.87541363305E+03  0.82682381287E+02 0.  0.
         -6    2    1    2    0  503 -0.64474012044E+02  0.55434990819E+02  0.19605076231E+02  0.19378820979E+03  0.17303056032E+03 0.  0.
        -24    2    5    5    0    0  0.15309512222E+02 -0.62487328590E+01  0.39492339728E+02  0.90890757150E+02  0.80175164554E+02 0.  0.
          2    1    4    4  501    0 -0.83520148921E+01  0.26133029939E+02 -0.13485884641E+03  0.13762121879E+03  0.00000000000E+00 0. -1.
         -1    1    4    4    0  501  0.11864263389E+02 -0.42272320289E+02 -0.73648485166E+03  0.73779241425E+03  0.00000000000E+00 0.  1.
          5    1    3    3  502    0  0.60961763548E+02 -0.39295700469E+02 -0.19330373063E+03  0.20651612762E+03  0.47000000000E+01 0. -1.
         11    1    6    6    0    0  0.14955050417E+02  0.71134515860E+01  0.62295203090E+02  0.64458878787E+02  0.00000000000E+00 0. -1.
        -12    1    6    6    0    0  0.35446180579E+00 -0.13362184445E+02 -0.22802863362E+02  0.26431878363E+02  0.00000000000E+00 0.  1.
         -5    1    5    5    0  503 -0.79783524267E+02  0.61683723678E+02 -0.19887263497E+02  0.10289745264E+03  0.47000000000E+01 0.  1.
<mgrwt>
<rscale>  2 0.19274747E+03</rscale>
<asrwt>0</asrwt>
<pdfrwt beam="1">  1       21 0.17744279E-01 0.19279396E+03</pdfrwt>
<pdfrwt beam="2">  1       21 0.17852002E+00 0.19279396E+03</pdfrwt>
<totfact> 0.53684730E+03</totfact>
</mgrwt>
</event>
<event>
12    1  0.2762290E-001  0.1887383E+03  0.7546771E-02  0.1159662E+00
         21   -1    0    0  504  503  0.00000000000E+00  0.00000000000E+00  0.21853860086E+03  0.21853860086E+03  0.00000000000E+00 0.  1.
         21   -1    0    0  502  504 -0.00000000000E+00 -0.00000000000E+00 -0.52083162026E+03  0.52083162026E+03  0.00000000000E+00 0.  1.
          6    2    1    2  502    0  0.67859349804E+02 -0.32486702638E+02 -0.45763123843E+03  0.49492777291E+03  0.17282034836E+03 0.  0.
         24    2    3    3    0    0  0.10947337668E+03 -0.10432913152E+02 -0.38179094759E+03  0.40553014108E+03  0.81222544774E+02 0.  0.
         -6    2    1    2    0  503 -0.67859349804E+02  0.32486702638E+02  0.15533821903E+03  0.24444244821E+03  0.17309497679E+03 0.  0.
        -24    2    5    5    0    0  0.25399381888E+02 -0.12098771844E+02  0.73463106947E+02  0.11249291410E+03  0.80413424004E+02 0.  0.
          2    1    4    4  501    0  0.10859556602E+03 -0.24088354541E+02 -0.25763737756E+03  0.28062477457E+03  0.00000000000E+00 0. -1.
         -1    1    4    4    0  501  0.87781065319E+00  0.13655441389E+02 -0.12415357003E+03  0.12490536651E+03  0.00000000000E+00 0.  1.
          5    1    3    3  502    0 -0.41614026873E+02 -0.22053789486E+02 -0.75840290841E+02  0.89397631838E+02  0.47000000000E+01 0. -1.
         13    1    6    6    0    0 -0.18732128375E+02  0.13721862283E+02  0.28529528158E+00  0.23222048389E+02  0.00000000000E+00 0. -1.
        -14    1    6    6    0    0  0.44131510263E+02 -0.25820634127E+02  0.73177811665E+02  0.89270865712E+02  0.00000000000E+00 0.  1.
         -5    1    5    5    0  503 -0.93258731692E+02  0.44585474483E+02  0.81875112086E+02  0.13194953411E+03  0.47000000000E+01 0.  1.
<mgrwt>
<rscale>  2 0.18867532E+03</rscale>
<asrwt>0</asrwt>
<pdfrwt beam="1">  1       21 0.33621324E-01 0.18873831E+03</pdfrwt>
<pdfrwt beam="2">  1       21 0.80127941E-01 0.18873831E+03</pdfrwt>
<totfact> 0.11708202E+04</totfact>
</mgrwt>
</event>
<event>
12    1  0.2762290E-001  0.2384374E+03  0.7546771E-02  0.1121011E+00
         21   -1    0    0  504  503  0.00000000000E+00  0.00000000000E+00  0.25841570239E+03  0.25841570239E+03  0.00000000000E+00 0.  1.
         21   -1    0    0  502  504 -0.00000000000E+00 -0.00000000000E+00 -0.22412917673E+03  0.22412917673E+03  0.00000000000E+00 0. -1.
          6    2    1    2  502    0 -0.13024898614E+03 -0.98090522320E+02 -0.19195872716E+02  0.23818297718E+03  0.17255752701E+03 0.  0.
         24    2    3    3    0    0 -0.10451014327E+03 -0.13478020412E+03  0.20082138591E+01  0.18838012515E+03  0.79968526047E+02 0.  0.
         -6    2    1    2    0  503  0.13024898614E+03  0.98090522320E+02  0.53482398381E+02  0.24436190195E+03  0.17397075394E+03 0.  0.
        -24    2    5    5    0    0  0.98679644734E+02 -0.46257149042E+01  0.49972354347E+02  0.13674378491E+03  0.80265540477E+02 0.  0.
          2    1    4    4  501    0 -0.74739895358E+02 -0.12050759319E+03 -0.27095653181E+02  0.14436864755E+03  0.00000000000E+00 0. -1.
         -1    1    4    4    0  501 -0.29770247912E+02 -0.14272610934E+02  0.29103867041E+02  0.44011477598E+02  0.00000000000E+00 0.  1.
          5    1    3    3  502    0 -0.25738842869E+02  0.36689681800E+02 -0.21204086575E+02  0.49802852030E+02  0.47000000000E+01 0. -1.
         11    1    6    6    0    0  0.21241681812E+02 -0.79808521759E+01 -0.21537319502E+02  0.31285127121E+02  0.00000000000E+00 0. -1.
        -12    1    6    6    0    0  0.77437962922E+02  0.33551372717E+01  0.71509673849E+02  0.10545865778E+03  0.00000000000E+00 0.  1.
         -5    1    5    5    0  503  0.31569341405E+02  0.10271623722E+03  0.35100440346E+01  0.10761811704E+03  0.47000000000E+01 0.  1.
<mgrwt>
<rscale>  2 0.23817965E+03</rscale>
<asrwt>0</asrwt>
<pdfrwt beam="1">  1       21 0.39756262E-01 0.23843735E+03</pdfrwt>
<pdfrwt beam="2">  1       21 0.34481412E-01 0.23843735E+03</pdfrwt>
<totfact> 0.48405517E+04</totfact>
</mgrwt>
</event>
<event>
12    1  0.2762290E-001  0.2406468E+03  0.7546771E-02  0.1119376E+00
         21   -1    0    0  504  503  0.00000000000E+00  0.00000000000E+00  0.15546248601E+04  0.15546248601E+04  0.00000000000E+00 0. -1.
         21   -1    0    0  502  504 -0.00000000000E+00 -0.00000000000E+00 -0.57066532409E+02  0.57066532409E+02  0.00000000000E+00 0.  1.
          6    2    1    2  502    0  0.97811602212E+02 -0.13548484629E+03  0.27385103460E+03  0.36456172644E+03  0.17316931060E+03 0.  0.
         24    2    3    3    0    0  0.10192924325E+03 -0.85173159238E+02  0.10287665400E+03  0.18622903274E+03  0.80334357614E+02 0.  0.
         -6    2    1    2    0  503 -0.97811602212E+02  0.13548484629E+03  0.12237072931E+04  0.12471296661E+04  0.17305956119E+03 0.  0.
        -24    2    5    5    0    0  0.16625898962E+02  0.72004876070E+02  0.54064225110E+03  0.55162582720E+03  0.80844832004E+02 0.  0.
          4    1    4    4  501    0  0.60268654162E+02 -0.93518536692E+02  0.85542728577E+02  0.14034096263E+03  0.00000000000E+00 0. -1.
         -3    1    4    4    0  501  0.41660589085E+02  0.83453774533E+01  0.17333925419E+02  0.45888070108E+02  0.00000000000E+00 0.  1.
          5    1    3    3  502    0 -0.41176410355E+01 -0.50311687050E+02  0.17097438060E+03  0.17833269371E+03  0.47000000000E+01 0. -1.
         13    1    6    6    0    0  0.47953875260E+00  0.73931859743E+02  0.52056750627E+03  0.52579147808E+03  0.00000000000E+00 0. -1.
        -14    1    6    6    0    0  0.16146360210E+02 -0.19269836723E+01  0.20074744834E+02  0.25834349116E+02  0.00000000000E+00 0.  1.
         -5    1    5    5    0  503 -0.11443750117E+03  0.63479970218E+02  0.68306504203E+03  0.69550383890E+03  0.47000000000E+01 0.  1.
<mgrwt>
<rscale>  2 0.24062702E+03</rscale>
<asrwt>0</asrwt>
<pdfrwt beam="1">  1       21 0.23917302E+00 0.24064676E+03</pdfrwt>
<pdfrwt beam="2">  1       21 0.87794677E-02 0.24064676E+03</pdfrwt>
<totfact> 0.75371378E+03</totfact>
</mgrwt>
</event>
<event>
12    1  0.2762290E-001  0.2136116E+03  0.7546771E-02  0.1138940E+00
         21   -1    0    0  504  503  0.00000000000E+00  0.00000000000E+00  0.93538651762E+02  0.93538651762E+02  0.00000000000E+00 0.  1.
         21   -1    0    0  502  504 -0.00000000000E+00 -0.00000000000E+00 -0.58497945029E+03  0.58497945029E+03  0.00000000000E+00 0. -1.
          6    2    1    2  502    0 -0.91746434927E+02  0.84922292141E+02 -0.38516648994E+03  0.43993031617E+03  0.17191932437E+03 0.  0.
         24    2    3    3    0    0 -0.96201389220E+02  0.10511803269E+03 -0.19967498224E+03  0.25323027872E+03  0.62856721565E+02 0.  0.
         -6    2    1    2    0  503  0.91746434927E+02 -0.84922292141E+02 -0.10627430858E+03  0.23858778587E+03  0.17320709823E+03 0.  0.
        -24    2    5    5    0    0  0.11540740353E+03 -0.10856215867E+03 -0.79369821013E+02  0.19540646843E+03  0.82337769756E+02 0.  0.
          2    1    4    4  501    0 -0.55776573095E+02  0.68827933675E+02 -0.16907961444E+03  0.19088275611E+03  0.00000000000E+00 0. -1.
         -1    1    4    4    0  501 -0.40424816125E+02  0.36290099016E+02 -0.30595367793E+02  0.62347522611E+02  0.00000000000E+00 0.  1.
          5    1    3    3  502    0  0.44549542938E+01 -0.20195740550E+02 -0.18549150770E+03  0.18670003745E+03  0.47000000000E+01 0. -1.
         13    1    6    6    0    0  0.24971412181E+02 -0.41587560867E+02 -0.66247107368E+02  0.82108317969E+02  0.00000000000E+00 0. -1.
        -14    1    6    6    0    0  0.90435991352E+02 -0.66974597808E+02 -0.13122713646E+02  0.11329815046E+03  0.00000000000E+00 0.  1.
         -5    1    5    5    0  503 -0.23660968607E+02  0.23639866534E+02 -0.26904487569E+02  0.43181317448E+02  0.47000000000E+01 0.  1.
<mgrwt>
<rscale>  2 0.21335038E+03</rscale>
<asrwt>0</asrwt>
<pdfrwt beam="1">  1       21 0.14390562E-01 0.21361157E+03</pdfrwt>
<pdfrwt beam="2">  1       21 0.89996839E-01 0.21361157E+03</pdfrwt>
<totfact> 0.43969237E+04</totfact>
</mgrwt>
</event>
<event>
12    1  0.2762290E-001  0.1802861E+03  0.7546771E-02  0.1167707E+00
         21   -1    0    0  504  503  0.00000000000E+00  0.00000000000E+00  0.13105281717E+03  0.13105281717E+03  0.00000000000E+00 0.  1.
         21   -1    0    0  502  504 -0.00000000000E+00 -0.00000000000E+00 -0.24745396688E+03  0.24745396688E+03  0.00000000000E+00 0.  1.
          6    2    1    2  502    0 -0.49265401131E+02 -0.45163055496E+01 -0.49867819422E+02  0.18633558102E+03  0.17258815885E+03 0.  0.
         24    2    3    3    0    0 -0.92153447729E+02  0.22760407628E+02 -0.51665503064E+02  0.13525989905E+03  0.81336473979E+02 0.  0.
         -6    2    1    2    0  503  0.49265401131E+02  0.45163055496E+01 -0.66533330285E+02  0.19217120302E+03  0.17336554002E+03 0.  0.
        -24    2    5    5    0    0 -0.78624914309E+01 -0.48345851124E+02 -0.63961338215E+02  0.11415384047E+03  0.80875870411E+02 0.  0.
          4    1    4    4  501    0 -0.74193959775E+02  0.43757504772E+02 -0.12071059084E+02  0.86978005026E+02  0.00000000000E+00 0. -1.
         -3    1    4    4    0  501 -0.17959487954E+02 -0.20997097144E+02 -0.39594443980E+02  0.48281894020E+02  0.00000000000E+00 0.  1.
          5    1    3    3  502    0  0.42888046597E+02 -0.27276713178E+02  0.17976836416E+01  0.51075681975E+02  0.47000000000E+01 0. -1.
         11    1    6    6    0    0 -0.44409079095E+02 -0.23276813261E+02 -0.36486945564E+02  0.62010269619E+02  0.00000000000E+00 0. -1.
        -12    1    6    6    0    0  0.36546587664E+02 -0.25069037863E+02 -0.27474392650E+02  0.52143570848E+02  0.00000000000E+00 0.  1.
         -5    1    5    5    0  503  0.57127892562E+02  0.52862156673E+02 -0.25719920708E+01  0.78017362555E+02  0.47000000000E+01 0.  1.
<mgrwt>
<rscale>  2 0.18009898E+03</rscale>
<asrwt>0</asrwt>
<pdfrwt beam="1">  1       21 0.20161972E-01 0.18028613E+03</pdfrwt>
<pdfrwt beam="2">  1       21 0.38069841E-01 0.18028613E+03</pdfrwt>
<totfact> 0.15189795E+05</totfact>
</mgrwt>
</event>
<event>
12    1  0.2762290E-001  0.2001928E+03  0.7546771E-02  0.1151754E+00
         21   -1    0    0  504  503  0.00000000000E+00  0.00000000000E+00  0.17748189042E+03  0.17748189042E+03  0.00000000000E+00 0.  1.
         21   -1    0    0  502  504 -0.00000000000E+00 -0.00000000000E+00 -0.33400005102E+03  0.33400005102E+03  0.00000000000E+00 0.  1.
          6    2    1    2  502    0 -0.15930571150E+02 -0.98096147672E+02 -0.22983112821E+03  0.29828733405E+03  0.16209981146E+03 0.  0.
         24    2    3    3    0    0 -0.45580450080E+02 -0.91644276980E+02 -0.23213554211E+03  0.26749541499E+03  0.84797619056E+02 0.  0.
         -6    2    1    2    0  503  0.15930571150E+02  0.98096147672E+02  0.73312967606E+02  0.21319460740E+03  0.17378294542E+03 0.  0.
        -24    2    5    5    0    0  0.13440041978E+02  0.78495705979E+02 -0.22096642267E+02  0.11564736907E+03  0.80894015769E+02 0.  0.
          4    1    4    4  501    0 -0.41434141903E+02 -0.72758137882E+02 -0.23355268893E+03  0.24810762433E+03  0.00000000000E+00 0. -1.
         -3    1    4    4    0  501 -0.41463081773E+01 -0.18886139098E+02  0.14171468239E+01  0.19387790659E+02  0.00000000000E+00 0.  1.
          5    1    3    3  502    0  0.29649878930E+02 -0.64518706928E+01  0.23044139001E+01  0.30791919060E+02  0.47000000000E+01 0. -1.
         11    1    6    6    0    0  0.39681289168E+02  0.11450984943E+02 -0.46096382140E+01  0.41556931199E+02  0.00000000000E+00 0. -1.
        -12    1    6    6    0    0 -0.26241247190E+02  0.67044721035E+02 -0.17487004053E+02  0.74090437868E+02  0.00000000000E+00 0.  1.
         -5    1    5    5    0  503  0.24905291722E+01  0.19600441694E+02  0.95409609873E+02  0.97547238332E+02  0.47000000000E+01 0.  1.
<mgrwt>
<rscale>  2 0.19763066E+03</rscale>
<asrwt>0</asrwt>
<pdfrwt beam="1">  1       21 0.27304906E-01 0.20019278E+03</pdfrwt>
<pdfrwt beam="2">  1       21 0.51384624E-01 0.20019278E+03</pdfrwt>
<totfact> 0.45857022E+04</totfact>
</mgrwt>
</event>
<event>
12    1  0.2762290E-001  0.2016005E+03  0.7546771E-02  0.1148483E+00
         21   -1    0    0  504  503  0.00000000000E+00  0.00000000000E+00  0.68938897489E+03  0.68938897489E+03  0.00000000000E+00 0.  1.
         21   -1    0    0  502  504 -0.00000000000E+00 -0.00000000000E+00 -0.94425128733E+02  0.94425128733E+02  0.00000000000E+00 0. -1.
          6    2    1    2  502    0 -0.92332047565E+01  0.10224219475E+03  0.53828957008E+03  0.57480295522E+03  0.17350520919E+03 0.  0.
         24    2    3    3    0    0  0.48611327832E+02  0.10858172113E+03  0.38904391751E+03  0.41454524291E+03  0.79621211432E+02 0.  0.
         -6    2    1    2    0  503  0.92332047565E+01 -0.10224219475E+03  0.56674276070E+02  0.20901114839E+03  0.17301724806E+03 0.  0.
        -24    2    5    5    0    0 -0.23947405943E+02 -0.54114110670E+02  0.95940024963E+02  0.13843385431E+03  0.80359370357E+02 0.  0.
          4    1    4    4  501    0  0.58235652617E+02  0.48513222891E+02  0.15241101985E+03  0.17021763423E+03  0.00000000000E+00 0. -1.
         -3    1    4    4    0  501 -0.96243247843E+01  0.60068498238E+02  0.23663289766E+03  0.24432760868E+03  0.00000000000E+00 0.  1.
          5    1    3    3  502    0 -0.57844532589E+02 -0.63395263739E+01  0.14924565257E+03  0.16025771232E+03  0.47000000000E+01 0. -1.
         11    1    6    6    0    0 -0.95342800523E+01 -0.44478027660E+01 -0.13662087674E+02  0.17243493995E+02  0.00000000000E+00 0. -1.
        -12    1    6    6    0    0 -0.14413125891E+02 -0.49666307904E+02  0.10960211264E+03  0.12119036031E+03  0.00000000000E+00 0.  1.
         -5    1    5    5    0  503  0.33180610700E+02 -0.48128084085E+02 -0.39265748893E+02  0.70577294084E+02  0.47000000000E+01 0.  1.
<mgrwt>
<rscale>  2 0.20149550E+03</rscale>
<asrwt>0</asrwt>
<pdfrwt beam="1">  1       21 0.10605984E+00 0.20160054E+03</pdfrwt>
<pdfrwt beam="2">  1       21 0.14526943E-01 0.20160054E+03</pdfrwt>
<totfact> 0.29502267E+04</totfact>
</mgrwt>
</event>
<event>
12    1  0.2762290E-001  0.2522972E+03  0.7546771E-02  0.1111928E+00
         21   -1    0    0  504  503  0.00000000000E+00  0.00000000000E+00  0.13814377931E+03  0.13814377931E+03  0.00000000000E+00 0.  1.
         21   -1    0    0  502  504 -0.00000000000E+00 -0.00000000000E+00 -0.10663345017E+04  0.10663345017E+04  0.00000000000E+00 0. -1.
          6    2    1    2  502    0 -0.59266164561E+02 -0.17321950129E+03 -0.91805328720E+03  0.95197750855E+03  0.17297937672E+03 0.  0.
         24    2    3    3    0    0 -0.17123985935E+02 -0.11029820149E+03 -0.31401249682E+03  0.34318984473E+03  0.81954238565E+02 0.  0.
         -6    2    1    2    0  503  0.59266164561E+02  0.17321950129E+03 -0.10137435159E+02  0.25250077242E+03  0.17359838303E+03 0.  0.
        -24    2    5    5    0    0  0.38503378708E+02  0.10589573061E+03  0.60963052118E+02  0.15229621830E+03  0.82348214624E+02 0.  0.
          2    1    4    4  501    0 -0.19588805603E+01 -0.11572872332E+03 -0.22816485309E+03  0.25584404390E+03  0.00000000000E+00 0. -1.
         -1    1    4    4    0  501 -0.15165105375E+02  0.54305218247E+01 -0.85847643728E+02  0.87345800826E+02  0.00000000000E+00 0.  1.
          5    1    3    3  502    0 -0.42142178626E+02 -0.62921299797E+02 -0.60404079038E+03  0.60878766382E+03  0.47000000000E+01 0. -1.
         13    1    6    6    0    0  0.50482304621E+02  0.30268337780E+02  0.84870113168E+01  0.59469863905E+02  0.00000000000E+00 0. -1.
        -14    1    6    6    0    0 -0.11978925912E+02  0.75627392828E+02  0.52476040801E+02  0.92826354394E+02  0.00000000000E+00 0.  1.
         -5    1    5    5    0  503  0.20762785853E+02  0.67323770683E+02 -0.71100487276E+02  0.10020455412E+03  0.47000000000E+01 0.  1.
<mgrwt>
<rscale>  2 0.25219074E+03</rscale>
<asrwt>0</asrwt>
<pdfrwt beam="1">  1       21 0.21252889E-01 0.25229719E+03</pdfrwt>
<pdfrwt beam="2">  1       21 0.16405146E+00 0.25229719E+03</pdfrwt>
<totfact> 0.46254151E+03</totfact>
</mgrwt>
</event>
<event>
12    1  0.2762290E-001  0.2450160E+03  0.7546771E-02  0.1116711E+00
         21   -1    0    0  504  503  0.00000000000E+00  0.00000000000E+00  0.14258961884E+04  0.14258961884E+04  0.00000000000E+00 0. -1.
         21   -1    0    0  502  504 -0.00000000000E+00 -0.00000000000E+00 -0.64620325867E+02  0.64620325867E+02  0.00000000000E+00 0. -1.
          6    2    1    2  502    0  0.13778782451E+03  0.10268778536E+03  0.23729580152E+03  0.34014091593E+03  0.17278969711E+03 0.  0.
         24    2    3    3    0    0  0.14968184125E+03  0.63294905517E+02  0.12530488502E+03  0.22073688755E+03  0.81317652741E+02 0.  0.
         -6    2    1    2    0  503 -0.13778782451E+03 -0.10268778536E+03  0.11239800610E+04  0.11503755984E+04  0.17464986073E+03 0.  0.
        -24    2    5    5    0    0 -0.44406688865E+02 -0.11766857599E+03  0.74707762352E+03  0.76176010975E+03  0.79596742720E+02 0.  0.
          2    1    4    4  501    0  0.13123025013E+03  0.71898255487E+02  0.76930323324E+02  0.16825282268E+03  0.00000000000E+00 0. -1.
         -1    1    4    4    0  501  0.18451591120E+02 -0.86033499694E+01  0.48374561699E+02  0.52484064869E+02  0.00000000000E+00 0.  1.
          5    1    3    3  502    0 -0.11894016745E+02  0.39392879841E+02  0.11199091650E+03  0.11940402839E+03  0.47000000000E+01 0. -1.
         11    1    6    6    0    0 -0.38482257187E+02 -0.32971424552E+02  0.14234480369E+03  0.15109613527E+03  0.00000000000E+00 0. -1.
        -12    1    6    6    0    0 -0.59244316782E+01 -0.84697151442E+02  0.60473281983E+03  0.61066397448E+03  0.00000000000E+00 0.  1.
         -5    1    5    5    0  503 -0.93381135644E+02  0.14980790636E+02  0.37690243753E+03  0.38861548863E+03  0.47000000000E+01 0.  1.
<mgrwt>
<rscale>  2 0.24468471E+03</rscale>
<asrwt>0</asrwt>
<pdfrwt beam="1">  1       21 0.21936862E+00 0.24501600E+03</pdfrwt>
<pdfrwt beam="2">  1       21 0.99415897E-02 0.24501600E+03</pdfrwt>
<totfact> 0.79704517E+03</totfact>
</mgrwt>
</event>
<event>
12    1  0.2762290E-001  0.1778777E+03  0.7546771E-02  0.1171818E+00
         21   -1    0    0  504  503  0.00000000000E+00  0.00000000000E+00  0.33710352633E+02  0.33710352633E+02  0.00000000000E+00 0. -1.
         21   -1    0    0  502  504 -0.00000000000E+00 -0.00000000000E+00 -0.95768286824E+03  0.95768286824E+03  0.00000000000E+00 0.  1.
          6    2    1    2  502    0 -0.14465651087E+01  0.38092759044E+02 -0.59505492340E+03  0.62107231878E+03  0.17374496381E+03 0.  0.
         24    2    3    3    0    0  0.65162888114E+02  0.41882636742E+02 -0.38995072442E+03  0.40533867543E+03  0.78977953125E+02 0.  0.
         -6    2    1    2    0  503  0.14465651087E+01 -0.38092759044E+02 -0.32891759221E+03  0.37032090209E+03  0.16582411532E+03 0.  0.
        -24    2    5    5    0    0  0.15147849312E+02 -0.81102824558E+02 -0.18476432601E+03  0.21919233074E+03  0.84263255333E+02 0.  0.
          2    1    4    4  501    0  0.71846881050E+02  0.52246296588E+02 -0.25905612575E+03  0.27386443017E+03  0.00000000000E+00 0. -1.
         -1    1    4    4    0  501 -0.66839929361E+01 -0.10363659846E+02 -0.13089459867E+03  0.13147424526E+03  0.00000000000E+00 0.  1.
          5    1    3    3  502    0 -0.66609453223E+02 -0.37898776976E+01 -0.20510419898E+03  0.21573364335E+03  0.47000000000E+01 0. -1.
         11    1    6    6    0    0 -0.84610785240E+01 -0.27472489076E+02 -0.38225516329E+01  0.28998955271E+02  0.00000000000E+00 0. -1.
        -12    1    6    6    0    0  0.23608927836E+02 -0.53630335482E+02 -0.18094177438E+03  0.19019337547E+03  0.00000000000E+00 0.  1.
         -5    1    5    5    0  503 -0.13701284204E+02  0.43010065514E+02 -0.14415326619E+03  0.15112857135E+03  0.47000000000E+01 0.  1.
<mgrwt>
<rscale>  2 0.17591327E+03</rscale>
<asrwt>0</asrwt>
<pdfrwt beam="1">  1       21 0.51862083E-02 0.17787766E+03</pdfrwt>
<pdfrwt beam="2">  1       21 0.14733582E+00 0.17787766E+03</pdfrwt>
<totfact> 0.79794615E+04</totfact>
</mgrwt>
</event>
<event>
12    1  0.2762290E-001  0.2491638E+03  0.7546771E-02  0.1115796E+00
         21   -1    0    0  504  503  0.00000000000E+00  0.00000000000E+00  0.20110340073E+03  0.20110340073E+03  0.00000000000E+00 0. -1.
         21   -1    0    0  502  504 -0.00000000000E+00 -0.00000000000E+00 -0.34563140380E+03  0.34563140380E+03  0.00000000000E+00 0. -1.
          6    2    1    2  502    0 -0.89186824703E+02  0.15595899007E+03 -0.17944313397E+03  0.30705448114E+03  0.17264159341E+03 0.  0.
         24    2    3    3    0    0 -0.94579286855E+01  0.73087817474E+02 -0.21871408680E+02  0.11192563469E+03  0.81349294432E+02 0.  0.
         -6    2    1    2    0  503  0.89186824703E+02 -0.15595899007E+03  0.34915130905E+02  0.23968032338E+03  0.15475818159E+03 0.  0.
        -24    2    5    5    0    0  0.11234327391E+03 -0.14790473637E+03  0.75147242302E+01  0.20261329723E+03  0.80615475558E+02 0.  0.
          2    1    4    4  501    0 -0.26994331982E+02  0.84591881874E+02 -0.17784127684E+02  0.90558023585E+02  0.00000000000E+00 0. -1.
         -1    1    4    4    0  501  0.17536403297E+02 -0.11504064400E+02 -0.40872809957E+01  0.21367611103E+02  0.00000000000E+00 0.  1.
          5    1    3    3  502    0 -0.79728896018E+02  0.82871172592E+02 -0.15757172529E+03  0.19512884645E+03  0.47000000000E+01 0. -1.
         11    1    6    6    0    0  0.79681561896E+02 -0.12383635263E+03  0.37745052458E+02  0.15201737573E+03  0.00000000000E+00 0. -1.
        -12    1    6    6    0    0  0.32661712010E+02 -0.24068383747E+02 -0.30230328228E+02  0.50595921499E+02  0.00000000000E+00 0.  1.
         -5    1    5    5    0  503 -0.23156449202E+02 -0.80542536928E+01  0.27400406675E+02  0.37067026157E+02  0.47000000000E+01 0.  1.
<mgrwt>
<rscale>  2 0.24609763E+03</rscale>
<asrwt>0</asrwt>
<pdfrwt beam="1">  1       21 0.30938985E-01 0.24916383E+03</pdfrwt>
<pdfrwt beam="2">  1       21 0.53174062E-01 0.24916383E+03</pdfrwt>
<totfact> 0.32686236E+04</totfact>
</mgrwt>
</event>
<event>
12    1  0.2762290E-001  0.2269884E+03  0.7546771E-02  0.1128885E+00
         21   -1    0    0  504  503  0.00000000000E+00  0.00000000000E+00  0.55852424128E+03  0.55852424128E+03  0.00000000000E+00 0.  1.
         21   -1    0    0  502  504 -0.00000000000E+00 -0.00000000000E+00 -0.94138417405E+02  0.94138417405E+02  0.00000000000E+00 0.  1.
          6    2    1    2  502    0  0.15847153903E+02  0.14535930071E+03  0.18337163387E+03  0.29180284935E+03  0.17361822541E+03 0.  0.
         24    2    3    3    0    0 -0.79732368319E+01  0.12184463176E+03  0.20504040247E+03  0.25165342591E+03  0.79863592014E+02 0.  0.
         -6    2    1    2    0  503 -0.15847153903E+02 -0.14535930071E+03  0.28101419000E+03  0.36085980933E+03  0.17283046148E+03 0.  0.
        -24    2    5    5    0    0  0.55327118722E+02 -0.12084845579E+03  0.18739523732E+03  0.24063852626E+03  0.71585515406E+02 0.  0.
          2    1    4    4  501    0 -0.34614419869E+02  0.26067548879E+02  0.88005435955E+02  0.98095014782E+02  0.00000000000E+00 0. -1.
         -1    1    4    4    0  501  0.26641183037E+02  0.95777082885E+02  0.11703496652E+03  0.15355841113E+03  0.00000000000E+00 0.  1.
          5    1    3    3  502    0  0.23820390734E+02  0.23514668947E+02 -0.21668768602E+02  0.40149423447E+02  0.47000000000E+01 0. -1.
         13    1    6    6    0    0  0.43305628369E+02 -0.24398543952E+02  0.91328497174E+02  0.10397865546E+03  0.00000000000E+00 0. -1.
        -14    1    6    6    0    0  0.12021490353E+02 -0.96449911836E+02  0.96066740149E+02  0.13665987080E+03  0.00000000000E+00 0.  1.
         -5    1    5    5    0  503 -0.71174272624E+02 -0.24510844922E+02  0.93618952679E+02  0.12022128307E+03  0.47000000000E+01 0.  1.
<mgrwt>
<rscale>  2 0.22683779E+03</rscale>
<asrwt>0</asrwt>
<pdfrwt beam="1">  1       21 0.85926805E-01 0.22698843E+03</pdfrwt>
<pdfrwt beam="2">  1       21 0.14482834E-01 0.22698843E+03</pdfrwt>
<totfact> 0.48063929E+04</totfact>
</mgrwt>
</event>
<event>
12    1  0.2762290E-001  0.1938020E+03  0.7546771E-02  0.1155288E+00
         21   -1    0    0  504  503  0.00000000000E+00  0.00000000000E+00  0.49294482518E+03  0.49294482518E+03  0.00000000000E+00 0. -1.
         21   -1    0    0  502  504 -0.00000000000E+00 -0.00000000000E+00 -0.89626170121E+02  0.89626170121E+02  0.00000000000E+00 0. -1.
          6    2    1    2  502    0 -0.31452238198E+02 -0.81583926230E+02  0.86892431027E+02  0.21151198856E+03  0.17187741686E+03 0.  0.
         24    2    3    3    0    0  0.35608606312E+02 -0.73570954924E+02  0.87412776486E+02  0.14380877346E+03  0.79745291885E+02 0.  0.
         -6    2    1    2    0  503  0.31452238198E+02  0.81583926230E+02  0.31642622403E+03  0.37105900675E+03  0.17295678918E+03 0.  0.
        -24    2    5    5    0    0 -0.49353198560E+02  0.53524356225E+02  0.17266855728E+03  0.20371141989E+03  0.79895663212E+02 0.  0.
          2    1    4    4  501    0  0.86824951752E+01 -0.64766476830E+02  0.16427031290E+02  0.67378999699E+02  0.00000000000E+00 0. -1.
         -1    1    4    4    0  501  0.26926111136E+02 -0.88044780946E+01  0.70985745196E+02  0.76429773757E+02  0.00000000000E+00 0.  1.
          5    1    3    3  502    0 -0.67060844510E+02 -0.80129713057E+01 -0.52034545941E+00  0.67703215101E+02  0.47000000000E+01 0. -1.
         13    1    6    6    0    0 -0.23524093640E+02  0.71437602178E+02  0.13602485088E+03  0.15543318192E+03  0.00000000000E+00 0. -1.
        -14    1    6    6    0    0 -0.25829104921E+02 -0.17913245954E+02  0.36643706406E+02  0.48278237963E+02  0.00000000000E+00 0.  1.
         -5    1    5    5    0  503  0.80805436759E+02  0.28059570005E+02  0.14375766675E+03  0.16734758686E+03  0.47000000000E+01 0.  1.
<mgrwt>
<rscale>  2 0.19356093E+03</rscale>
<asrwt>0</asrwt>
<pdfrwt beam="1">  1       21 0.75837664E-01 0.19380204E+03</pdfrwt>
<pdfrwt beam="2">  1       21 0.13788642E-01 0.19380204E+03</pdfrwt>
<totfact> 0.70853539E+04</totfact>
</mgrwt>
</event>
<event>
12    1  0.2762290E-001  0.1897983E+03  0.7546771E-02  0.1158743E+00
         21   -1    0    0  504  503  0.00000000000E+00  0.00000000000E+00  0.62743735047E+03  0.62743735047E+03  0.00000000000E+00 0. -1.
         21   -1    0    0  502  504 -0.00000000000E+00 -0.00000000000E+00 -0.89392731012E+02  0.89392731012E+02  0.00000000000E+00 0. -1.
          6    2    1    2  502    0  0.71352538641E+02 -0.34769176561E+02  0.54006674532E+02  0.19691072047E+03  0.17192158251E+03 0.  0.
         24    2    3    3    0    0  0.10326530456E+03 -0.55460786891E+01  0.50221858858E+01  0.13138222128E+03  0.80880056896E+02 0.  0.
         -6    2    1    2    0  503 -0.71352538641E+02  0.34769176561E+02  0.48403794493E+03  0.51991936102E+03  0.17240455162E+03 0.  0.
        -24    2    5    5    0    0 -0.11084660643E+03  0.31524374837E+02  0.29667880091E+03  0.32835775480E+03  0.80744955639E+02 0.  0.
          2    1    4    4  501    0  0.67465686460E+02 -0.14682538097E+02 -0.34580742577E+02  0.77220615976E+02  0.00000000000E+00 0. -1.
         -1    1    4    4    0  501  0.35799618098E+02  0.91364594082E+01  0.39602928463E+02  0.54161605306E+02  0.00000000000E+00 0.  1.
          5    1    3    3  502    0 -0.31912765916E+02 -0.29223097872E+02  0.48984488646E+02  0.65528499186E+02  0.47000000000E+01 0. -1.
         11    1    6    6    0    0 -0.23244788033E+02 -0.20263984635E+02  0.12532700778E+03  0.12906513132E+03  0.00000000000E+00 0. -1.
        -12    1    6    6    0    0 -0.87601818401E+02  0.51788359473E+02  0.17135179313E+03  0.19929262348E+03  0.00000000000E+00 0.  1.
         -5    1    5    5    0  503  0.39494067793E+02  0.32448017237E+01  0.18735914402E+03  0.19156160622E+03  0.47000000000E+01 0.  1.
<mgrwt>
<rscale>  2 0.18968859E+03</rscale>
<asrwt>0</asrwt>
<pdfrwt beam="1">  1       21 0.96528821E-01 0.18979834E+03</pdfrwt>
<pdfrwt beam="2">  1       21 0.13752728E-01 0.18979834E+03</pdfrwt>
<totfact> 0.41037430E+04</totfact>
</mgrwt>
</event>
<event>
12    1  0.2762290E-001  0.2741573E+03  0.7546771E-02  0.1099029E+00
         21   -1    0    0  504  503  0.00000000000E+00  0.00000000000E+00  0.16147494044E+03  0.16147494044E+03  0.00000000000E+00 0. -1.
         21   -1    0    0  502  504 -0.00000000000E+00 -0.00000000000E+00 -0.47150756070E+03  0.47150756070E+03  0.00000000000E+00 0.  1.
          6    2    1    2  502    0  0.21047109955E+03 -0.26348856018E+02 -0.11582264097E+03  0.29761904956E+03  0.17369475680E+03 0.  0.
         24    2    3    3    0    0  0.18217547644E+03 -0.78040570508E+02 -0.10256842485E+03  0.23703489421E+03  0.79918861580E+02 0.  0.
         -6    2    1    2    0  503 -0.21047109955E+03  0.26348856018E+02 -0.19420997929E+03  0.33536345157E+03  0.17250734082E+03 0.  0.
        -24    2    5    5    0    0 -0.65328047928E+02 -0.54426835340E+01 -0.14125587025E+03  0.17755522908E+03  0.85295145494E+02 0.  0.
          4    1    4    4  501    0  0.30427579715E+02 -0.36445200668E+02  0.29741027267E+01  0.47570322114E+02  0.00000000000E+00 0. -1.
         -3    1    4    4    0  501  0.15174789673E+03 -0.41595369841E+02 -0.10554252758E+03  0.18946457210E+03  0.00000000000E+00 0.  1.
          5    1    3    3  502    0  0.28295623108E+02  0.51691714490E+02 -0.13254216121E+02  0.60584155346E+02  0.47000000000E+01 0. -1.
         11    1    6    6    0    0 -0.93148234937E+01  0.21851419175E+02 -0.65133326407E+00  0.23762884752E+02  0.00000000000E+00 0. -1.
        -12    1    6    6    0    0 -0.56013224435E+02 -0.27294102709E+02 -0.14060453698E+03  0.15379234433E+03  0.00000000000E+00 0.  1.
         -5    1    5    5    0  503 -0.14514305162E+03  0.31791539552E+02 -0.52954109039E+02  0.15780822249E+03  0.47000000000E+01 0.  1.
<mgrwt>
<rscale>  2 0.27396940E+03</rscale>
<asrwt>0</asrwt>
<pdfrwt beam="1">  1       21 0.24842298E-01 0.27415728E+03</pdfrwt>
<pdfrwt beam="2">  1       21 0.72539625E-01 0.27415728E+03</pdfrwt>
<totfact> 0.25206054E+04</totfact>
</mgrwt>
</event>
<event>
12    1  0.2762290E-001  0.1899742E+03  0.7546771E-02  0.1159385E+00
         21   -1    0    0  504  503  0.00000000000E+00  0.00000000000E+00  0.21549913746E+03  0.21549913746E+03  0.00000000000E+00 0.  1.
         21   -1    0    0  502  504 -0.00000000000E+00 -0.00000000000E+00 -0.23700370686E+03  0.23700370686E+03  0.00000000000E+00 0.  1.
          6    2    1    2  502    0  0.47962361746E+02 -0.54488485228E+02 -0.13638760407E+03  0.23386271871E+03  0.17555856427E+03 0.  0.
         24    2    3    3    0    0  0.37994087232E+02 -0.10169110732E+03 -0.12516646531E+03  0.18410874415E+03  0.80279223092E+02 0.  0.
         -6    2    1    2    0  503 -0.47962361746E+02  0.54488485228E+02  0.11488303467E+03  0.21864012561E+03  0.17127758086E+03 0.  0.
        -24    2    5    5    0    0 -0.51569259994E+02 -0.22660436397E+02  0.10544326899E+03  0.14069036616E+03  0.74179594230E+02 0.  0.
          4    1    4    4  501    0  0.57281190299E+01 -0.10190627882E+03 -0.86861351073E+02  0.13402460714E+03  0.00000000000E+00 0. -1.
         -3    1    4    4    0  501  0.32265968202E+02  0.21517149270E+00 -0.38305114235E+02  0.50084137003E+02  0.00000000000E+00 0.  1.
          5    1    3    3  502    0  0.99682745137E+01  0.47202622095E+02 -0.11221138765E+02  0.49753974561E+02  0.47000000000E+01 0. -1.
         11    1    6    6    0    0 -0.68918308656E+02 -0.15694045219E+02  0.97384584889E+02  0.12033201443E+03  0.00000000000E+00 0. -1.
        -12    1    6    6    0    0  0.17349048662E+02 -0.69663911781E+01  0.80586841002E+01  0.20358351725E+02  0.00000000000E+00 0.  1.
         -5    1    5    5    0  503  0.36068982488E+01  0.77148921625E+02  0.94397656852E+01  0.77949759455E+02  0.47000000000E+01 0.  1.
<mgrwt>
<rscale>  2 0.18897916E+03</rscale>
<asrwt>0</asrwt>
<pdfrwt beam="1">  1       21 0.33153714E-01 0.18997419E+03</pdfrwt>
<pdfrwt beam="2">  1       21 0.36462109E-01 0.18997419E+03</pdfrwt>
<totfact> 0.63619889E+04</totfact>
</mgrwt>
</event>
<event>
12    1  0.2762290E-001  0.2083646E+03  0.7546771E-02  0.1146358E+00
         21   -1    0    0  504  503  0.00000000000E+00  0.00000000000E+00  0.70134638858E+02  0.70134638858E+02  0.00000000000E+00 0. -1.
         21   -1    0    0  502  504 -0.00000000000E+00 -0.00000000000E+00 -0.87583745461E+03  0.87583745461E+03  0.00000000000E+00 0. -1.
          6    2    1    2  502    0  0.75009427963E+02  0.80640032518E+02 -0.69294296976E+03  0.72359226463E+03  0.17688012029E+03 0.  0.
         24    2    3    3    0    0 -0.11016210856E+02  0.20636211487E+02 -0.46611621651E+03  0.47364560019E+03  0.80799858645E+02 0.  0.
         -6    2    1    2    0  503 -0.75009427963E+02 -0.80640032518E+02 -0.11275984599E+03  0.22237982885E+03  0.15687184668E+03 0.  0.
        -24    2    5    5    0    0 -0.90317566802E+02 -0.10702050747E+03 -0.92153043072E+02  0.18527189304E+03  0.78884973925E+02 0.  0.
          2    1    4    4  501    0  0.84438118015E+01 -0.18946134961E+02 -0.32805058998E+03  0.32870570967E+03  0.00000000000E+00 0. -1.
         -1    1    4    4    0  501 -0.19460022658E+02  0.39582346448E+02 -0.13806562653E+03  0.14493989051E+03  0.00000000000E+00 0.  1.
          5    1    3    3  502    0  0.86025638819E+02  0.60003821030E+02 -0.22682675326E+03  0.24994666444E+03  0.47000000000E+01 0. -1.
         13    1    6    6    0    0 -0.72783534752E+02 -0.75304286717E+02 -0.23039812821E+02  0.10723344396E+03  0.00000000000E+00 0. -1.
        -14    1    6    6    0    0 -0.17534032049E+02 -0.31716220750E+02 -0.69113230251E+02  0.78038449077E+02  0.00000000000E+00 0.  1.
         -5    1    5    5    0  503  0.15308138839E+02  0.26380474950E+02 -0.20606802920E+02  0.37107935807E+02  0.47000000000E+01 0.  1.
<mgrwt>
<rscale>  2 0.20405977E+03</rscale>
<asrwt>0</asrwt>
<pdfrwt beam="1">  1       21 0.10789945E-01 0.20836460E+03</pdfrwt>
<pdfrwt beam="2">  1       21 0.13474421E+00 0.20836460E+03</pdfrwt>
<totfact> 0.27728013E+04</totfact>
</mgrwt>
</event>
<event>
12    1  0.2762290E-001  0.1829829E+03  0.7546771E-02  0.1165199E+00
         21   -1    0    0  504  503  0.00000000000E+00  0.00000000000E+00  0.51152517444E+03  0.51152517444E+03  0.00000000000E+00 0. -1.
         21   -1    0    0  502  504 -0.00000000000E+00 -0.00000000000E+00 -0.95942836836E+02  0.95942836836E+02  0.00000000000E+00 0. -1.
          6    2    1    2  502    0  0.23278807778E+02  0.47241276137E+02  0.35926402515E+02  0.18647636950E+03  0.17524008937E+03 0.  0.
         24    2    3    3    0    0 -0.24234836886E+02 -0.12478104413E+02 -0.25962587466E+02  0.88108244971E+02  0.79661637413E+02 0.  0.
         -6    2    1    2    0  503 -0.23278807778E+02 -0.47241276137E+02  0.37965593509E+03  0.42099164178E+03  0.17413125031E+03 0.  0.
        -24    2    5    5    0    0 -0.52918742022E+02 -0.69241814322E+02  0.36126483791E+03  0.37948415043E+03  0.76818716546E+02 0.  0.
          4    1    4    4  501    0  0.17211187610E+02  0.19454843903E+02 -0.24591171005E+02  0.35769283214E+02  0.00000000000E+00 0. -1.
         -3    1    4    4    0  501 -0.41446024496E+02 -0.31932948316E+02 -0.13714164609E+01  0.52338961757E+02  0.00000000000E+00 0.  1.
          5    1    3    3  502    0  0.47513644664E+02  0.59719380550E+02  0.61888989981E+02  0.98368124529E+02  0.47000000000E+01 0. -1.
         11    1    6    6    0    0  0.16508236076E+01 -0.32281720429E+02  0.23344738499E+03  0.23567459823E+03  0.00000000000E+00 0. -1.
        -12    1    6    6    0    0 -0.54569565630E+02 -0.36960093893E+02  0.12781745292E+03  0.14380955220E+03  0.00000000000E+00 0.  1.
         -5    1    5    5    0  503  0.29639934244E+02  0.22000538185E+02  0.18391097185E+02  0.41507491350E+02  0.47000000000E+01 0.  1.
<mgrwt>
<rscale>  2 0.18271688E+03</rscale>
<asrwt>0</asrwt>
<pdfrwt beam="1">  1       21 0.78696179E-01 0.18298287E+03</pdfrwt>
<pdfrwt beam="2">  1       21 0.14760437E-01 0.18298287E+03</pdfrwt>
<totfact> 0.57913716E+04</totfact>
</mgrwt>
</event>
<event>
12    1  0.2762290E-001  0.2332903E+03  0.7546771E-02  0.1124488E+00
         21   -1    0    0  504  503  0.00000000000E+00  0.00000000000E+00  0.15901751771E+03  0.15901751771E+03  0.00000000000E+00 0.  1.
         21   -1    0    0  502  504 -0.00000000000E+00 -0.00000000000E+00 -0.57314431318E+03  0.57314431318E+03  0.00000000000E+00 0. -1.
          6    2    1    2  502    0 -0.12356732644E+03  0.93729761793E+02 -0.43980677367E+03  0.49746235241E+03  0.17316073886E+03 0.  0.
         24    2    3    3    0    0  0.18682228494E+01  0.51956640945E+02 -0.11853469142E+03  0.15001895920E+03  0.75843472051E+02 0.  0.
         -6    2    1    2    0  503  0.12356732644E+03 -0.93729761793E+02  0.25679978205E+02  0.23469947849E+03  0.17427056984E+03 0.  0.
        -24    2    5    5    0    0  0.88186228608E+02  0.13628073004E+02  0.17261921022E+02  0.12125133852E+03  0.80258195125E+02 0.  0.
          4    1    4    4  501    0  0.19108412306E+02  0.99244664328E+01 -0.97689758863E+02  0.10003457123E+03  0.00000000000E+00 0. -1.
         -3    1    4    4    0  501 -0.17240189457E+02  0.42032174512E+02 -0.20844932560E+02  0.49984387965E+02  0.00000000000E+00 0.  1.
          5    1    3    3  502    0 -0.12543554929E+03  0.41773120847E+02 -0.32127208225E+03  0.34744339321E+03  0.47000000000E+01 0. -1.
         11    1    6    6    0    0  0.94614736157E+02  0.20303199241E+02  0.33626687388E+02  0.10244472803E+03  0.00000000000E+00 0. -1.
        -12    1    6    6    0    0 -0.64285075489E+01 -0.66751262367E+01 -0.16364766366E+02  0.18806610481E+02  0.00000000000E+00 0.  1.
         -5    1    5    5    0  503  0.35381097833E+02 -0.10735783480E+03  0.84180571831E+01  0.11344813997E+03  0.47000000000E+01 0.  1.
<mgrwt>
<rscale>  2 0.23308310E+03</rscale>
<asrwt>0</asrwt>
<pdfrwt beam="1">  1       21 0.24464234E-01 0.23329034E+03</pdfrwt>
<pdfrwt beam="2">  1       21 0.88176048E-01 0.23329034E+03</pdfrwt>
<totfact> 0.16970476E+04</totfact>
</mgrwt>
</event>
<event>
12    1  0.2762290E-001  0.2228912E+03  0.7546771E-02  0.1133177E+00
         21   -1    0    0  504  503  0.00000000000E+00  0.00000000000E+00  0.66765196533E+03  0.66765196533E+03  0.00000000000E+00 0. -1.
         21   -1    0    0  502  504 -0.00000000000E+00 -0.00000000000E+00 -0.11903607169E+03  0.11903607169E+03  0.00000000000E+00 0.  1.
          6    2    1    2  502    0  0.10031062522E+03 -0.79503127768E+02  0.23841952158E+02  0.21654051382E+03  0.17302712674E+03 0.  0.
         24    2    3    3    0    0  0.12031568338E+03 -0.19702455924E+02  0.44263387254E+02  0.15009167849E+03  0.75526247514E+02 0.  0.
         -6    2    1    2    0  503 -0.10031062522E+03  0.79503127768E+02  0.52477394149E+03  0.57014752320E+03  0.18247613457E+03 0.  0.
        -24    2    5    5    0    0 -0.12674230774E+03  0.20159152366E+02  0.42946254864E+03  0.45470622702E+03  0.76483123679E+02 0.  0.
          2    1    4    4  501    0  0.73816259589E+02 -0.18138485264E+02  0.64179039801E+02  0.99482631535E+02  0.00000000000E+00 0. -1.
         -1    1    4    4    0  501  0.46499423793E+02 -0.15639706600E+01 -0.19915652547E+02  0.50609046955E+02  0.00000000000E+00 0.  1.
          5    1    3    3  502    0 -0.20005058167E+02 -0.59800671843E+02 -0.20421435096E+02  0.66448835329E+02  0.47000000000E+01 0. -1.
         13    1    6    6    0    0 -0.73005869937E+02 -0.63418975223E-01  0.34457957271E+03  0.35222853802E+03  0.00000000000E+00 0. -1.
        -14    1    6    6    0    0 -0.53736437800E+02  0.20222571341E+02  0.84882975933E+02  0.10247768900E+03  0.00000000000E+00 0.  1.
         -5    1    5    5    0  503  0.26431682522E+02  0.59343975402E+02  0.95311392844E+02  0.11544129618E+03  0.47000000000E+01 0.  1.
<mgrwt>
<rscale>  2 0.22094919E+03</rscale>
<asrwt>0</asrwt>
<pdfrwt beam="1">  1       21 0.10271568E+00 0.22289125E+03</pdfrwt>
<pdfrwt beam="2">  1       21 0.18313242E-01 0.22289125E+03</pdfrwt>
<totfact> 0.20568169E+04</totfact>
</mgrwt>
</event>
<event>
12    1  0.2762290E-001  0.1768400E+03  0.7546771E-02  0.1170935E+00
         21   -1    0    0  504  503  0.00000000000E+00  0.00000000000E+00  0.37316896602E+02  0.37316896602E+02  0.00000000000E+00 0. -1.
         21   -1    0    0  502  504 -0.00000000000E+00 -0.00000000000E+00 -0.86940189351E+03  0.86940189351E+03  0.00000000000E+00 0. -1.
          6    2    1    2  502    0 -0.34323928294E+02  0.11674570460E+02 -0.50298807176E+03  0.53311850171E+03  0.17292746711E+03 0.  0.
         24    2    3    3    0    0  0.62809986576E+01  0.24970252696E+02 -0.47324245806E+03  0.48084588179E+03  0.81187273996E+02 0.  0.
         -6    2    1    2    0  503  0.34323928294E+02 -0.11674570460E+02 -0.32909692514E+03  0.37360028840E+03  0.17308368411E+03 0.  0.
        -24    2    5    5    0    0  0.32586794217E+02  0.32740092539E+01 -0.72790326398E+02  0.11680924450E+03  0.85283935699E+02 0.  0.
          4    1    4    4  501    0  0.16501419559E+02  0.51292701640E+02 -0.24447142562E+03  0.25033880250E+03  0.00000000000E+00 0. -1.
         -3    1    4    4    0  501 -0.10220420902E+02 -0.26322448944E+02 -0.22877103244E+03  0.23050707929E+03  0.00000000000E+00 0.  1.
          5    1    3    3  502    0 -0.40604926952E+02 -0.13295682236E+02 -0.29745613704E+02  0.52272619922E+02  0.47000000000E+01 0. -1.
         11    1    6    6    0    0  0.60509966313E+02  0.85207648138E+01 -0.60041491413E+02  0.85668197993E+02  0.00000000000E+00 0. -1.
        -12    1    6    6    0    0 -0.27923172096E+02 -0.52467555599E+01 -0.12748834985E+02  0.31141046502E+02  0.00000000000E+00 0.  1.
         -5    1    5    5    0  503  0.17371340773E+01 -0.14948579714E+02 -0.25630659875E+03  0.25679104391E+03  0.47000000000E+01 0.  1.
<mgrwt>
<rscale>  2 0.17680177E+03</rscale>
<asrwt>0</asrwt>
<pdfrwt beam="1">  1       21 0.57410615E-02 0.17684001E+03</pdfrwt>
<pdfrwt beam="2">  1       21 0.13375413E+00 0.17684001E+03</pdfrwt>
<totfact> 0.86159677E+04</totfact>
</mgrwt>
</event>
<event>
12    1  0.2762290E-001  0.2283503E+03  0.7546771E-02  0.1127861E+00
         21   -1    0    0  504  503  0.00000000000E+00  0.00000000000E+00  0.55004263869E+03  0.55004263869E+03  0.00000000000E+00 0.  1.
         21   -1    0    0  502  504 -0.00000000000E+00 -0.00000000000E+00 -0.10578570942E+03  0.10578570942E+03  0.00000000000E+00 0.  1.
          6    2    1    2  502    0  0.13574070994E+03 -0.61607814475E+02  0.11571134786E+03  0.25572076771E+03  0.17257732144E+03 0.  0.
         24    2    3    3    0    0  0.12719467702E+02 -0.51461311885E+02  0.85741278769E+02  0.12860872030E+03  0.79866041423E+02 0.  0.
         -6    2    1    2    0  503 -0.13574070994E+03  0.61607814475E+02  0.32854558141E+03  0.40010758040E+03  0.17298211956E+03 0.  0.
        -24    2    5    5    0    0 -0.12015216076E+03  0.31774021282E+02  0.33435635050E+03  0.36562696093E+03  0.80266900232E+02 0.  0.
          4    1    4    4  501    0 -0.30949394647E+02 -0.34539231528E+02  0.57680627309E+02  0.74012690198E+02  0.00000000000E+00 0. -1.
         -3    1    4    4    0  501  0.43668862349E+02 -0.16922080357E+02  0.28060651459E+02  0.54596030101E+02  0.00000000000E+00 0.  1.
          5    1    3    3  502    0  0.12302124223E+03 -0.10146502590E+02  0.29970069090E+02  0.12711204741E+03  0.47000000000E+01 0. -1.
         11    1    6    6    0    0 -0.39336321655E+02  0.76883991784E+01  0.30723965218E+02  0.50501680387E+02  0.00000000000E+00 0. -1.
        -12    1    6    6    0    0 -0.80815839102E+02  0.24085622103E+02  0.30363238528E+03  0.31512528054E+03  0.00000000000E+00 0.  1.
         -5    1    5    5    0  503 -0.15588549179E+02  0.29833793193E+02 -0.58107690896E+01  0.34480619472E+02  0.47000000000E+01 0.  1.
<mgrwt>
<rscale>  2 0.22827368E+03</rscale>
<asrwt>0</asrwt>
<pdfrwt beam="1">  1       21 0.84621943E-01 0.22835034E+03</pdfrwt>
<pdfrwt beam="2">  1       21 0.16274725E-01 0.22835034E+03</pdfrwt>
<totfact> 0.40183486E+04</totfact>
</mgrwt>
</event>
<event>
12    1  0.2762290E-001  0.2610575E+03  0.7546771E-02  0.1106518E+00
         21   -1    0    0  504  503  0.00000000000E+00  0.00000000000E+00  0.69062903414E+03  0.69062903414E+03  0.00000000000E+00 0.  1.
         21   -1    0    0  502  504 -0.00000000000E+00 -0.00000000000E+00 -0.19756263988E+03  0.19756263988E+03  0.00000000000E+00 0.  1.
          6    2    1    2  502    0  0.74364888032E+02  0.18083165540E+03 -0.67673408297E+02  0.26968629322E+03  0.17297624806E+03 0.  0.
         24    2    3    3    0    0  0.18738372253E+02  0.15603826670E+03 -0.98595056301E+02  0.20122272848E+03  0.77913632062E+02 0.  0.
         -6    2    1    2    0  503 -0.74364888032E+02 -0.18083165540E+03  0.56073980256E+03  0.61850538080E+03  0.17288596167E+03 0.  0.
        -24    2    5    5    0    0 -0.68079567280E+02 -0.41088268469E+02  0.17482378706E+03  0.20799231102E+03  0.79839662034E+02 0.  0.
          2    1    4    4  501    0  0.15566902757E+02  0.90173223684E+02 -0.11867294826E+02  0.92273351610E+02  0.00000000000E+00 0. -1.
         -1    1    4    4    0  501  0.31714694962E+01  0.65865043021E+02 -0.86727761475E+02  0.10894937687E+03  0.00000000000E+00 0.  1.
          5    1    3    3  502    0  0.55626515779E+02  0.24793388691E+02  0.30921648004E+02  0.68463564732E+02  0.47000000000E+01 0. -1.
         11    1    6    6    0    0 -0.25665271394E+02 -0.43063847782E+02  0.33170651557E+02  0.60112338718E+02  0.00000000000E+00 0. -1.
        -12    1    6    6    0    0 -0.42414295886E+02  0.19755793133E+01  0.14165313551E+03  0.14787997230E+03  0.00000000000E+00 0.  1.
         -5    1    5    5    0  503 -0.62853207524E+01 -0.13974338693E+03  0.38591601550E+03  0.41051306978E+03  0.47000000000E+01 0.  1.
<mgrwt>
<rscale>  2 0.26104252E+03</rscale>
<asrwt>0</asrwt>
<pdfrwt beam="1">  1       21 0.10625062E+00 0.26105748E+03</pdfrwt>
<pdfrwt beam="2">  1       21 0.30394253E-01 0.26105748E+03</pdfrwt>
<totfact> 0.70493825E+03</totfact>
</mgrwt>
</event>
<event>
12    1  0.2762290E-001  0.1830067E+03  0.7546771E-02  0.1165306E+00
         21   -1    0    0  504  503  0.00000000000E+00  0.00000000000E+00  0.25846122044E+03  0.25846122044E+03  0.00000000000E+00 0. -1.
         21   -1    0    0  502  504 -0.00000000000E+00 -0.00000000000E+00 -0.55590038049E+03  0.55590038049E+03  0.00000000000E+00 0. -1.
          6    2    1    2  502    0 -0.31684456850E+02 -0.49996632681E+02 -0.50592275724E+03  0.53800492197E+03  0.17317012352E+03 0.  0.
         24    2    3    3    0    0 -0.24556412491E+02 -0.90929883998E+02 -0.25690574483E+03  0.28550164961E+03  0.81482323270E+02 0.  0.
         -6    2    1    2    0  503  0.31684456850E+02  0.49996632681E+02  0.20848359719E+03  0.27635667895E+03  0.17147604970E+03 0.  0.
        -24    2    5    5    0    0  0.79107951792E+01  0.59297059871E+02  0.22581578822E+03  0.24514482574E+03  0.74326935827E+02 0.  0.
          2    1    4    4  501    0  0.49768316363E+01 -0.57205643780E+02 -0.22019852531E+03  0.22756239822E+03  0.00000000000E+00 0. -1.
         -1    1    4    4    0  501 -0.29533244128E+02 -0.33724240218E+02 -0.36707219513E+02  0.57939251388E+02  0.00000000000E+00 0.  1.
          5    1    3    3  502    0 -0.71280443589E+01  0.40933251318E+02 -0.24901701242E+03  0.25250327236E+03  0.47000000000E+01 0. -1.
         11    1    6    6    0    0 -0.29637663901E+02  0.33862995697E+02  0.73136094598E+02  0.85871892561E+02  0.00000000000E+00 0. -1.
        -12    1    6    6    0    0  0.37548459080E+02  0.25434064174E+02  0.15267969362E+03  0.15927293318E+03  0.00000000000E+00 0.  1.
         -5    1    5    5    0  503  0.23773661671E+02 -0.93004271904E+01 -0.17332191028E+02  0.31211853213E+02  0.47000000000E+01 0.  1.
<mgrwt>
<rscale>  2 0.18260485E+03</rscale>
<asrwt>0</asrwt>
<pdfrwt beam="1">  1       21 0.39763265E-01 0.18300672E+03</pdfrwt>
<pdfrwt beam="2">  1       21 0.85523135E-01 0.18300672E+03</pdfrwt>
<totfact> 0.72546145E+03</totfact>
</mgrwt>
</event>
<event>
12    1  0.2762290E-001  0.2295923E+03  0.7546771E-02  0.1128037E+00
         21   -1    0    0  504  503  0.00000000000E+00  0.00000000000E+00  0.13727381589E+04  0.13727381589E+04  0.00000000000E+00 0.  1.
         21   -1    0    0  502  504 -0.00000000000E+00 -0.00000000000E+00 -0.37413617861E+02  0.37413617861E+02  0.00000000000E+00 0.  1.
          6    2    1    2  502    0 -0.15095968963E+03  0.22729683233E+01  0.70100047372E+03  0.73764101745E+03  0.17296997480E+03 0.  0.
         24    2    3    3    0    0 -0.60869665197E+02 -0.37261184499E+02  0.20029481171E+03  0.22733972242E+03  0.80447658621E+02 0.  0.
         -6    2    1    2    0  503  0.15095968963E+03 -0.22729683233E+01  0.63432406728E+03  0.67251075927E+03  0.16465024972E+03 0.  0.
        -24    2    5    5    0    0  0.53966280423E+02 -0.21115690273E+02  0.47420203403E+03  0.48429831247E+03  0.79492481315E+02 0.  0.
          4    1    4    4  501    0 -0.38232539687E+01 -0.23299727473E+02  0.59987161515E+01  0.24361427845E+02  0.00000000000E+00 0. -1.
         -3    1    4    4    0  501 -0.57046411228E+02 -0.13961457026E+02  0.19429609556E+03  0.20297829457E+03  0.00000000000E+00 0.  1.
          5    1    3    3  502    0 -0.90090024435E+02  0.39534152822E+02  0.50070566201E+03  0.51030129503E+03  0.47000000000E+01 0. -1.
         11    1    6    6    0    0  0.24544094743E+02 -0.50621666342E+02  0.24931183354E+03  0.25558042968E+03  0.00000000000E+00 0. -1.
        -12    1    6    6    0    0  0.29422185680E+02  0.29505976069E+02  0.22489020049E+03  0.22871788280E+03  0.00000000000E+00 0.  1.
         -5    1    5    5    0  503  0.96993409209E+02  0.18842721950E+02  0.16012203324E+03  0.18821244680E+03  0.47000000000E+01 0.  1.
<mgrwt>
<rscale>  2 0.22802608E+03</rscale>
<asrwt>0</asrwt>
<pdfrwt beam="1">  1       21 0.21119045E+00 0.22959226E+03</pdfrwt>
<pdfrwt beam="2">  1       21 0.57559423E-02 0.22959226E+03</pdfrwt>
<totfact> 0.23508939E+04</totfact>
</mgrwt>
</event>
<event>
12    1  0.2762290E-001  0.1918331E+03  0.7546771E-02  0.1156878E+00
         21   -1    0    0  504  503  0.00000000000E+00  0.00000000000E+00  0.14446301754E+04  0.14446301754E+04  0.00000000000E+00 0. -1.
         21   -1    0    0  502  504 -0.00000000000E+00 -0.00000000000E+00 -0.45349957669E+02  0.45349957669E+02  0.00000000000E+00 0. -1.
          6    2    1    2  502    0  0.16437837606E+02 -0.80780439729E+02  0.20626505119E+03  0.28168279686E+03  0.17321733389E+03 0.  0.
         24    2    3    3    0    0  0.63234043969E+01  0.13842554917E+02  0.40877301562E+02  0.90813704026E+02  0.79652829744E+02 0.  0.
         -6    2    1    2    0  503 -0.16437837606E+02  0.80780439729E+02  0.11930151665E+04  0.12082973362E+04  0.17292074232E+03 0.  0.
        -24    2    5    5    0    0 -0.19214324729E+02 -0.36707974384E+01  0.88324979259E+03  0.88717991649E+03  0.81088489260E+02 0.  0.
          2    1    4    4  501    0 -0.10354870556E+02  0.10446161641E+02 -0.21559235500E+02  0.26098779140E+02  0.00000000000E+00 0. -1.
         -1    1    4    4    0  501  0.16678274953E+02  0.33963932763E+01  0.62436537062E+02  0.64714924886E+02  0.00000000000E+00 0.  1.
          5    1    3    3  502    0  0.10114433209E+02 -0.94622994646E+02  0.16538774962E+03  0.19086909284E+03  0.47000000000E+01 0. -1.
         13    1    6    6    0    0 -0.43950793617E+02  0.43455060452E+01  0.28840306961E+03  0.29176512171E+03  0.00000000000E+00 0. -1.
        -14    1    6    6    0    0  0.24736468888E+02 -0.80163034837E+01  0.59484672298E+03  0.59541479479E+03  0.00000000000E+00 0.  1.
         -5    1    5    5    0  503  0.27764871233E+01  0.84451237167E+02  0.30976537393E+03  0.32111741969E+03  0.47000000000E+01 0.  1.
<mgrwt>
<rscale>  2 0.19176609E+03</rscale>
<asrwt>0</asrwt>
<pdfrwt beam="1">  1       21 0.22225076E+00 0.19183307E+03</pdfrwt>
<pdfrwt beam="2">  1       21 0.69769177E-02 0.19183307E+03</pdfrwt>
<totfact> 0.14836442E+04</totfact>
</mgrwt>
</event>
<event>
12    1  0.2762290E-001  0.1944694E+03  0.7546771E-02  0.1154559E+00
         21   -1    0    0  504  503  0.00000000000E+00  0.00000000000E+00  0.15010312469E+04  0.15010312469E+04  0.00000000000E+00 0.  1.
         21   -1    0    0  502  504 -0.00000000000E+00 -0.00000000000E+00 -0.26934619875E+02  0.26934619875E+02  0.00000000000E+00 0.  1.
          6    2    1    2  502    0  0.47667379876E+02 -0.77995773800E+02  0.54010919991E+03  0.57394760186E+03  0.17129618213E+03 0.  0.
         24    2    3    3    0    0  0.71431539215E+00  0.26177680739E+01  0.37906637533E+03  0.38777559873E+03  0.81677629187E+02 0.  0.
         -6    2    1    2    0  503 -0.47667379876E+02  0.77995773800E+02  0.93398742713E+03  0.95401826493E+03  0.17164735931E+03 0.  0.
        -24    2    5    5    0    0 -0.63099164253E+02  0.77176732580E+02  0.92830012567E+03  0.93689383223E+03  0.78045992615E+02 0.  0.
          4    1    4    4  501    0  0.30115536465E+02 -0.26666146765E+02  0.18552412820E+03  0.18983474673E+03  0.00000000000E+00 0. -1.
         -3    1    4    4    0  501 -0.29401221072E+02  0.29283914839E+02  0.19354224713E+03  0.19794085200E+03  0.00000000000E+00 0.  1.
          5    1    3    3  502    0  0.46953064484E+02 -0.80613541874E+02  0.16104282458E+03  0.18617200313E+03  0.47000000000E+01 0. -1.
         13    1    6    6    0    0 -0.26668511143E+02  0.68136442324E+02  0.36028576885E+03  0.36764061187E+03  0.00000000000E+00 0. -1.
        -14    1    6    6    0    0 -0.36430653110E+02  0.90402902561E+01  0.56801435683E+03  0.56925322036E+03  0.00000000000E+00 0.  1.
         -5    1    5    5    0  503  0.15431784377E+02  0.81904122034E+00  0.56873014531E+01  0.17124432703E+02  0.47000000000E+01 0.  1.
<mgrwt>
<rscale>  2 0.19439185E+03</rscale>
<asrwt>0</asrwt>
<pdfrwt beam="1">  1       21 0.23092782E+00 0.19446937E+03</pdfrwt>
<pdfrwt beam="2">  1       21 0.41437888E-02 0.19446937E+03</pdfrwt>
<totfact> 0.31839351E+04</totfact>
</mgrwt>
</event>
<event>
12    1  0.2762290E-001  0.1921231E+03  0.7546771E-02  0.1156811E+00
         21   -1    0    0  504  503  0.00000000000E+00  0.00000000000E+00  0.12048531955E+03  0.12048531955E+03  0.00000000000E+00 0.  1.
         21   -1    0    0  502  504 -0.00000000000E+00 -0.00000000000E+00 -0.30984636307E+03  0.30984636307E+03  0.00000000000E+00 0.  1.
          6    2    1    2  502    0 -0.71955176445E+02  0.43227451231E+02 -0.12304856292E+03  0.22814956312E+03  0.17281526079E+03 0.  0.
         24    2    3    3    0    0 -0.11151514557E+03  0.53282708542E+02 -0.11437422525E+03  0.18615630783E+03  0.79360146302E+02 0.  0.
         -6    2    1    2    0  503  0.71955176445E+02 -0.43227451231E+02 -0.66312480596E+02  0.20218211950E+03  0.17156370363E+03 0.  0.
        -24    2    5    5    0    0  0.46377480675E+02 -0.29386087588E+02 -0.11262693834E+03  0.14729203966E+03  0.77431936871E+02 0.  0.
          2    1    4    4  501    0 -0.10295787867E+03  0.11131049448E+02 -0.75230253851E+02  0.12799928178E+03  0.00000000000E+00 0. -1.
         -1    1    4    4    0  501 -0.85572668943E+01  0.42151659095E+02 -0.39143971401E+02  0.58157026043E+02  0.00000000000E+00 0.  1.
          5    1    3    3  502    0  0.39559969122E+02 -0.10055257311E+02 -0.86743376647E+01  0.41993255297E+02  0.47000000000E+01 0. -1.
         11    1    6    6    0    0 -0.19945822909E+02 -0.28173687621E+01 -0.43215379533E+02  0.47679581022E+02  0.00000000000E+00 0. -1.
        -12    1    6    6    0    0  0.66323303584E+02 -0.26568718826E+02 -0.69411558812E+02  0.99612458634E+02  0.00000000000E+00 0.  1.
         -5    1    5    5    0  503  0.25577695770E+02 -0.13841363643E+02  0.46314457748E+02  0.54890079841E+02  0.47000000000E+01 0.  1.
<mgrwt>
<rscale>  2 0.19184120E+03</rscale>
<asrwt>0</asrwt>
<pdfrwt beam="1">  1       21 0.18536203E-01 0.19212307E+03</pdfrwt>
<pdfrwt beam="2">  1       21 0.47668671E-01 0.19212307E+03</pdfrwt>
<totfact> 0.11191755E+05</totfact>
</mgrwt>
</event>
<event>
12    1  0.2762290E-001  0.1891636E+03  0.7546771E-02  0.1159330E+00
         21   -1    0    0  504  503  0.00000000000E+00  0.00000000000E+00  0.16541876208E+03  0.16541876208E+03  0.00000000000E+00 0.  1.
         21   -1    0    0  502  504 -0.00000000000E+00 -0.00000000000E+00 -0.24101292698E+03  0.24101292698E+03  0.00000000000E+00 0.  1.
          6    2    1    2  502    0 -0.74371826466E+02  0.15495467604E+02 -0.10354258402E+03  0.21521461291E+03  0.17269911643E+03 0.  0.
         24    2    3    3    0    0 -0.86058987333E+02  0.40954433794E+02 -0.12715955401E+03  0.17827412076E+03  0.80800340389E+02 0.  0.
         -6    2    1    2    0  503  0.74371826466E+02 -0.15495467604E+02  0.27948419128E+02  0.19121707615E+03  0.17323850031E+03 0.  0.
        -24    2    5    5    0    0 -0.24060462610E+02  0.45571791571E+01  0.19748283504E+02  0.90319323949E+02  0.84663521273E+02 0.  0.
          4    1    4    4  501    0 -0.45031184138E+02  0.63682980954E+02 -0.76953362221E+02  0.10956801342E+03  0.00000000000E+00 0. -1.
         -3    1    4    4    0  501 -0.41027803194E+02 -0.22728547160E+02 -0.50206191794E+02  0.68706107337E+02  0.00000000000E+00 0.  1.
          5    1    3    3  502    0  0.11687160866E+02 -0.25458966190E+02  0.23616969997E+02  0.36940492151E+02  0.47000000000E+01 0. -1.
         11    1    6    6    0    0 -0.40361789774E+02 -0.26552140728E+02 -0.31132182487E+01  0.48412626234E+02  0.00000000000E+00 0. -1.
        -12    1    6    6    0    0  0.16301327164E+02  0.31109319885E+02  0.22861501752E+02  0.41906697715E+02  0.00000000000E+00 0.  1.
         -5    1    5    5    0  503  0.98432289076E+02 -0.20052646761E+02  0.82001356237E+01  0.10089775220E+03  0.47000000000E+01 0.  1.
<mgrwt>
<rscale>  2 0.18903999E+03</rscale>
<asrwt>0</asrwt>
<pdfrwt beam="1">  1       21 0.25449040E-01 0.18916357E+03</pdfrwt>
<pdfrwt beam="2">  1       21 0.37078912E-01 0.18916357E+03</pdfrwt>
<totfact> 0.10283470E+05</totfact>
</mgrwt>
</event>
<event>
12    1  0.2762290E-001  0.2768289E+03  0.7546771E-02  0.1097745E+00
         21   -1    0    0  504  503  0.00000000000E+00  0.00000000000E+00  0.25839024870E+03  0.25839024870E+03  0.00000000000E+00 0. -1.
         21   -1    0    0  502  504 -0.00000000000E+00 -0.00000000000E+00 -0.57390047511E+03  0.57390047511E+03  0.00000000000E+00 0. -1.
          6    2    1    2  502    0 -0.19109296814E+03  0.97750919227E+02 -0.44860416431E+03  0.52714317978E+03  0.17482125463E+03 0.  0.
         24    2    3    3    0    0 -0.21304812370E+03  0.87576888376E+02 -0.35857218429E+03  0.43379765398E+03  0.80914639403E+02 0.  0.
         -6    2    1    2    0  503  0.19109296814E+03 -0.97750919227E+02  0.13309393789E+03  0.30514754404E+03  0.17125788345E+03 0.  0.
        -24    2    5    5    0    0  0.18350378137E+03 -0.39500711939E+02  0.13787508972E+03  0.24602367561E+03  0.79272722779E+02 0.  0.
          4    1    4    4  501    0 -0.64760114139E+02  0.33885938877E+02 -0.18688862761E+03  0.20067258997E+03  0.00000000000E+00 0. -1.
         -3    1    4    4    0  501 -0.14828800956E+03  0.53690949499E+02 -0.17168355668E+03  0.23312506401E+03  0.00000000000E+00 0.  1.
          5    1    3    3  502    0  0.21955155556E+02  0.10174030852E+02 -0.90031980022E+02  0.93345525795E+02  0.47000000000E+01 0. -1.
         13    1    6    6    0    0  0.14027873468E+03 -0.62568900463E+02  0.92856158100E+02  0.17948609084E+03  0.00000000000E+00 0. -1.
        -14    1    6    6    0    0  0.43225046684E+02  0.23068188524E+02  0.45018931616E+02  0.66537584765E+02  0.00000000000E+00 0.  1.
         -5    1    5    5    0  503  0.75891867746E+01 -0.58250207288E+02 -0.47811518219E+01  0.59123868426E+02  0.47000000000E+01 0.  1.
<mgrwt>
<rscale>  2 0.27626809E+03</rscale>
<asrwt>0</asrwt>
<pdfrwt beam="1">  1       21 0.39752346E-01 0.27682889E+03</pdfrwt>
<pdfrwt beam="2">  1       21 0.88292380E-01 0.27682889E+03</pdfrwt>
<totfact> 0.63446915E+03</totfact>
</mgrwt>
</event>
<event>
12    1  0.2762290E-001  0.1728533E+03  0.7546771E-02  0.1175191E+00
         21   -1    0    0  504  503  0.00000000000E+00  0.00000000000E+00  0.66868959776E+03  0.66868959776E+03  0.00000000000E+00 0.  1.
         21   -1    0    0  502  504 -0.00000000000E+00 -0.00000000000E+00 -0.75414460984E+02  0.75414460984E+02  0.00000000000E+00 0.  1.
          6    2    1    2  502    0 -0.15205969687E+02  0.36997072887E+01  0.57449480611E+02  0.18108770868E+03  0.17101873016E+03 0.  0.
         24    2    3    3    0    0 -0.20108050783E+02 -0.44672288025E+02 -0.13949018713E+02  0.94579234904E+02  0.79691339105E+02 0.  0.
         -6    2    1    2    0  503  0.15205969687E+02 -0.36997072887E+01  0.53582565617E+03  0.56301635007E+03  0.17214344973E+03 0.  0.
        -24    2    5    5    0    0  0.57469196540E+02  0.33249820536E+02  0.23779977251E+03  0.25971292892E+03  0.80584207658E+02 0.  0.
          4    1    4    4  501    0 -0.30244554773E+02  0.15948368552E+01 -0.31844206116E+02  0.43946900473E+02  0.00000000000E+00 0. -1.
         -3    1    4    4    0  501  0.10136503989E+02 -0.46267124880E+02  0.17895187403E+02  0.50632334432E+02  0.00000000000E+00 0.  1.
          5    1    3    3  502    0  0.49020810958E+01  0.48371995313E+02  0.71398499324E+02  0.86508473778E+02  0.47000000000E+01 0. -1.
         13    1    6    6    0    0  0.14904431961E+02  0.41542491948E+02  0.48782238947E+02  0.65784706171E+02  0.00000000000E+00 0. -1.
        -14    1    6    6    0    0  0.42564764579E+02 -0.82926714123E+01  0.18901753357E+03  0.19392822275E+03  0.00000000000E+00 0.  1.
         -5    1    5    5    0  503 -0.42263226853E+02 -0.36949527824E+02  0.29802588366E+03  0.30330342115E+03  0.47000000000E+01 0.  1.
<mgrwt>
<rscale>  2 0.17257264E+03</rscale>
<asrwt>0</asrwt>
<pdfrwt beam="1">  1       21 0.10287532E+00 0.17285334E+03</pdfrwt>
<pdfrwt beam="2">  1       21 0.11602225E-01 0.17285334E+03</pdfrwt>
<totfact> 0.48311710E+04</totfact>
</mgrwt>
</event>
<event>
12    1  0.2762290E-001  0.2085909E+03  0.7546771E-02  0.1142833E+00
         21   -1    0    0  504  503  0.00000000000E+00  0.00000000000E+00  0.26598182427E+03  0.26598182427E+03  0.00000000000E+00 0.  1.
         21   -1    0    0  502  504 -0.00000000000E+00 -0.00000000000E+00 -0.21308576723E+03  0.21308576723E+03  0.00000000000E+00 0.  1.
          6    2    1    2  502    0 -0.11721906827E+03 -0.47224316638E+01 -0.89707023109E+02  0.22639032539E+03  0.17158851392E+03 0.  0.
         24    2    3    3    0    0 -0.97970882440E+02 -0.43277600848E+02 -0.82717966301E+01  0.13413643745E+03  0.80330048492E+02 0.  0.
         -6    2    1    2    0  503  0.11721906827E+03  0.47224316638E+01  0.14260308015E+03  0.25267726610E+03  0.17247478370E+03 0.  0.
        -24    2    5    5    0    0 -0.80575153523E+01  0.14286718390E+02  0.64780703897E+02  0.10481209025E+03  0.80746521841E+02 0.  0.
          4    1    4    4  501    0 -0.60882567267E+01 -0.23763756358E+02 -0.28959775325E+02  0.37953281453E+02  0.00000000000E+00 0. -1.
         -3    1    4    4    0  501 -0.91882625713E+02 -0.19513844491E+02  0.20687978695E+02  0.96183155996E+02  0.00000000000E+00 0.  1.
          5    1    3    3  502    0 -0.19248185831E+02  0.38555169185E+02 -0.81435226479E+02  0.92253887941E+02  0.47000000000E+01 0. -1.
         11    1    6    6    0    0 -0.32677884494E+02  0.38239192424E+01 -0.19098493985E+01  0.32956243992E+02  0.00000000000E+00 0. -1.
        -12    1    6    6    0    0  0.24620369141E+02  0.10462799148E+02  0.66690553296E+02  0.71855846259E+02  0.00000000000E+00 0.  1.
         -5    1    5    5    0  503  0.12527658362E+03 -0.95642867262E+01  0.77822376251E+02  0.14786517585E+03  0.47000000000E+01 0.  1.
<mgrwt>
<rscale>  2 0.20840760E+03</rscale>
<asrwt>0</asrwt>
<pdfrwt beam="1">  1       21 0.40920281E-01 0.20859090E+03</pdfrwt>
<pdfrwt beam="2">  1       21 0.32782426E-01 0.20859090E+03</pdfrwt>
<totfact> 0.51129257E+04</totfact>
</mgrwt>
</event>
<event>
12    1  0.2762290E-001  0.2025384E+03  0.7546771E-02  0.1147678E+00
         21   -1    0    0  504  503  0.00000000000E+00  0.00000000000E+00  0.13449410217E+03  0.13449410217E+03  0.00000000000E+00 0.  1.
         21   -1    0    0  502  504 -0.00000000000E+00 -0.00000000000E+00 -0.54659466249E+03  0.54659466249E+03  0.00000000000E+00 0.  1.
          6    2    1    2  502    0  0.72420724258E+02  0.78948809958E+02 -0.43257875035E+03  0.47751776786E+03  0.17152599648E+03 0.  0.
         24    2    3    3    0    0  0.85960569277E+02  0.61201699779E+02 -0.17690469619E+03  0.22082807329E+03  0.79592078093E+02 0.  0.
         -6    2    1    2    0  503 -0.72420724258E+02 -0.78948809958E+02  0.20478190028E+02  0.20357099680E+03  0.17188402653E+03 0.  0.
        -24    2    5    5    0    0 -0.77640263705E+02 -0.83697722253E+02  0.68335504133E+02  0.15496844261E+03  0.79449089499E+02 0.  0.
          2    1    4    4  501    0 -0.55907100154E+01 -0.98511906918E+01 -0.27784651796E+01  0.11662841218E+02  0.00000000000E+00 0. -1.
         -1    1    4    4    0  501  0.91551279292E+02  0.71052890471E+02 -0.17412623101E+03  0.20916523207E+03  0.00000000000E+00 0.  1.
          5    1    3    3  502    0 -0.13539845019E+02  0.17747110179E+02 -0.25567405417E+03  0.25668969457E+03  0.47000000000E+01 0. -1.
         13    1    6    6    0    0  0.16384006811E+02 -0.12289264508E+02  0.15151656771E+02  0.25476153639E+02  0.00000000000E+00 0. -1.
        -14    1    6    6    0    0 -0.94024270516E+02 -0.71408457745E+02  0.53183847362E+02  0.12949228897E+03  0.00000000000E+00 0.  1.
         -5    1    5    5    0  503  0.52195394474E+01  0.47489122946E+01 -0.47857314105E+02  0.48602554185E+02  0.47000000000E+01 0.  1.
<mgrwt>
<rscale>  2 0.20246240E+03</rscale>
<asrwt>0</asrwt>
<pdfrwt beam="1">  1       21 0.20691400E-01 0.20253838E+03</pdfrwt>
<pdfrwt beam="2">  1       21 0.84091487E-01 0.20253838E+03</pdfrwt>
<totfact> 0.26449153E+04</totfact>
</mgrwt>
</event>
<event>
12    1  0.2762290E-001  0.1856944E+03  0.7546771E-02  0.1162890E+00
         21   -1    0    0  504  503  0.00000000000E+00  0.00000000000E+00  0.13254364993E+04  0.13254364993E+04  0.00000000000E+00 0. -1.
         21   -1    0    0  502  504 -0.00000000000E+00 -0.00000000000E+00 -0.37762041113E+02  0.37762041113E+02  0.00000000000E+00 0. -1.
          6    2    1    2  502    0  0.24185865678E+02  0.55825252104E+02  0.25653919827E+03  0.31547609275E+03  0.17323795766E+03 0.  0.
         24    2    3    3    0    0 -0.51316398803E+02  0.21860693697E+02  0.15905575481E+03  0.18749447329E+03  0.82122966713E+02 0.  0.
         -6    2    1    2    0  503 -0.24185865678E+02 -0.55825252104E+02  0.10311352599E+04  0.10477224477E+04  0.17544511458E+03 0.  0.
        -24    2    5    5    0    0  0.47899595737E+02 -0.41884456737E+02  0.74287370019E+03  0.75022038660E+03  0.83190234089E+02 0.  0.
          2    1    4    4  501    0 -0.33041931910E+02  0.39661080402E+02  0.38838738669E+02  0.64600450342E+02  0.00000000000E+00 0. -1.
         -1    1    4    4    0  501 -0.18274466894E+02 -0.17800386705E+02  0.12021701614E+03  0.12289402295E+03  0.00000000000E+00 0.  1.
          5    1    3    3  502    0  0.75502264482E+02  0.33964558408E+02  0.97483443468E+02  0.12798161946E+03  0.47000000000E+01 0. -1.
         11    1    6    6    0    0  0.21166358984E+02 -0.64272491631E+02  0.55789511816E+03  0.56198392397E+03  0.00000000000E+00 0. -1.
        -12    1    6    6    0    0  0.26733236753E+02  0.22388034894E+02  0.18497858202E+03  0.18823646262E+03  0.00000000000E+00 0.  1.
         -5    1    5    5    0  503 -0.72085461415E+02 -0.13940795367E+02  0.28826155975E+03  0.29750206109E+03  0.47000000000E+01 0.  1.
<mgrwt>
<rscale>  2 0.18517120E+03</rscale>
<asrwt>0</asrwt>
<pdfrwt beam="1">  1       21 0.20391327E+00 0.18569438E+03</pdfrwt>
<pdfrwt beam="2">  1       21 0.58095458E-02 0.18569438E+03</pdfrwt>
<totfact> 0.26548175E+04</totfact>
</mgrwt>
</event>
<event>
12    1  0.2762290E-001  0.2132720E+03  0.7546771E-02  0.1139079E+00
         21   -1    0    0  504  503  0.00000000000E+00  0.00000000000E+00  0.43729359144E+03  0.43729359144E+03  0.00000000000E+00 0. -1.
         21   -1    0    0  502  504 -0.00000000000E+00 -0.00000000000E+00 -0.11302415874E+03  0.11302415874E+03  0.00000000000E+00 0. -1.
          6    2    1    2  502    0  0.11404056941E+03  0.48006127400E+02  0.24080445350E+03  0.32167021043E+03  0.17370981467E+03 0.  0.
         24    2    3    3    0    0  0.83581130384E+02  0.62310412072E+02  0.25385931086E+03  0.28527090705E+03  0.77888047159E+02 0.  0.
         -6    2    1    2    0  503 -0.11404056941E+03 -0.48006127400E+02  0.83464979198E+02  0.22864753975E+03  0.17321505403E+03 0.  0.
        -24    2    5    5    0    0 -0.12318329938E+03 -0.69785455841E+01  0.10707274657E+03  0.18020924228E+03  0.76078726334E+02 0.  0.
          2    1    4    4  501    0  0.74545190698E+02  0.99008519243E+01  0.12512727411E+03  0.14598577688E+03  0.00000000000E+00 0. -1.
         -1    1    4    4    0  501  0.90359396861E+01  0.52409560148E+02  0.12873203675E+03  0.13928513017E+03  0.00000000000E+00 0.  1.
          5    1    3    3  502    0  0.30459439028E+02 -0.14304284672E+02 -0.13054857358E+02  0.36399303380E+02  0.47000000000E+01 0. -1.
         11    1    6    6    0    0 -0.12748784286E+03  0.12771357338E+01  0.77490382494E+02  0.14919631541E+03  0.00000000000E+00 0. -1.
        -12    1    6    6    0    0  0.43045434808E+01 -0.82556813180E+01  0.29582364080E+02  0.31012926872E+02  0.00000000000E+00 0.  1.
         -5    1    5    5    0  503  0.91427299682E+01 -0.41027581816E+02 -0.23607767377E+02  0.48438297467E+02  0.47000000000E+01 0.  1.
<mgrwt>
<rscale>  2 0.21317122E+03</rscale>
<asrwt>0</asrwt>
<pdfrwt beam="1">  1       21 0.67275936E-01 0.21327198E+03</pdfrwt>
<pdfrwt beam="2">  1       21 0.17388332E-01 0.21327198E+03</pdfrwt>
<totfact> 0.59925801E+04</totfact>
</mgrwt>
</event>
<event>
12    1  0.2762290E-001  0.1907367E+03  0.7546771E-02  0.1158259E+00
         21   -1    0    0  504  503  0.00000000000E+00  0.00000000000E+00  0.47564111372E+03  0.47564111372E+03  0.00000000000E+00 0. -1.
         21   -1    0    0  502  504 -0.00000000000E+00 -0.00000000000E+00 -0.83314061434E+02  0.83314061434E+02  0.00000000000E+00 0. -1.
          6    2    1    2  502    0 -0.68575541134E+02 -0.43145129943E+02  0.27984892933E+03  0.33752389304E+03  0.17041962341E+03 0.  0.
         24    2    3    3    0    0 -0.11328975124E+02 -0.71595004379E+01  0.44055699103E+02  0.92181943360E+02  0.79856132728E+02 0.  0.
         -6    2    1    2    0  503  0.68575541134E+02  0.43145129943E+02  0.11247812296E+03  0.22143128212E+03  0.17267419459E+03 0.  0.
        -24    2    5    5    0    0  0.94439672235E+02  0.79296330399E+02  0.87288236554E+02  0.17012355415E+03  0.78205036476E+02 0.  0.
          2    1    4    4  501    0 -0.40240606769E+02  0.15968326590E+02  0.29555754816E+02  0.52419810472E+02  0.00000000000E+00 0. -1.
         -1    1    4    4    0  501  0.28911631645E+02 -0.23127827028E+02  0.14499944287E+02  0.39762132887E+02  0.00000000000E+00 0.  1.
          5    1    3    3  502    0 -0.57246566009E+02 -0.35985629506E+02  0.23579323023E+03  0.24534194968E+03  0.47000000000E+01 0. -1.
         11    1    6    6    0    0  0.79745340375E+02  0.35904127984E+02  0.21678567723E+02  0.90102086637E+02  0.00000000000E+00 0. -1.
        -12    1    6    6    0    0  0.14694331860E+02  0.43392202415E+02  0.65609668831E+02  0.80021467516E+02  0.00000000000E+00 0.  1.
         -5    1    5    5    0  503 -0.25864131101E+02 -0.36151200455E+02  0.25189886403E+02  0.51307727966E+02  0.47000000000E+01 0.  1.
<mgrwt>
<rscale>  2 0.19022497E+03</rscale>
<asrwt>0</asrwt>
<pdfrwt beam="1">  1       21 0.73175555E-01 0.19073669E+03</pdfrwt>
<pdfrwt beam="2">  1       21 0.12817548E-01 0.19073669E+03</pdfrwt>
<totfact> 0.87644557E+04</totfact>
</mgrwt>
</event>
<event>
12    1  0.2762290E-001  0.2027001E+03  0.7546771E-02  0.1147518E+00
         21   -1    0    0  504  503  0.00000000000E+00  0.00000000000E+00  0.55105615616E+03  0.55105615616E+03  0.00000000000E+00 0.  1.
         21   -1    0    0  502  504 -0.00000000000E+00 -0.00000000000E+00 -0.11691455602E+03  0.11691455602E+03  0.00000000000E+00 0.  1.
          6    2    1    2  502    0  0.88654324364E+02 -0.54647083886E+02  0.15834352420E+02  0.20313925949E+03  0.17369208106E+03 0.  0.
         24    2    3    3    0    0  0.10267631139E+03  0.15403378114E+02  0.19463906003E+02  0.13145281024E+03  0.78238792846E+02 0.  0.
         -6    2    1    2    0  503 -0.88654324364E+02  0.54647083886E+02  0.41830724772E+03  0.46483145269E+03  0.17390064089E+03 0.  0.
        -24    2    5    5    0    0 -0.10721819552E+03  0.71446873328E+01  0.21963782992E+03  0.25966634220E+03  0.87401630020E+02 0.  0.
          2    1    4    4  501    0  0.12402235154E+02  0.35173166567E+02  0.16095752772E+01  0.37330387297E+02  0.00000000000E+00 0. -1.
         -1    1    4    4    0  501  0.90274076233E+02 -0.19769788453E+02  0.17854330726E+02  0.94122422944E+02  0.00000000000E+00 0.  1.
          5    1    3    3  502    0 -0.14021987023E+02 -0.70050462000E+02 -0.36295535837E+01  0.71686449247E+02  0.47000000000E+01 0. -1.
         13    1    6    6    0    0  0.15002553926E+02  0.12656951604E+01  0.35717233616E+02  0.38760797022E+02  0.00000000000E+00 0. -1.
        -14    1    6    6    0    0 -0.12222074945E+03  0.58789921723E+01  0.18392059630E+03  0.22090554517E+03  0.00000000000E+00 0.  1.
         -5    1    5    5    0  503  0.18563871161E+02  0.47502396553E+02  0.19866941781E+03  0.20516511049E+03  0.47000000000E+01 0.  1.
<mgrwt>
<rscale>  2 0.20265535E+03</rscale>
<asrwt>0</asrwt>
<pdfrwt beam="1">  1       21 0.84777869E-01 0.20270009E+03</pdfrwt>
<pdfrwt beam="2">  1       21 0.17986855E-01 0.20270009E+03</pdfrwt>
<totfact> 0.33702946E+04</totfact>
</mgrwt>
</event>
<event>
12    1  0.2762290E-001  0.1972137E+03  0.7546771E-02  0.1152332E+00
         21   -1    0    0  504  503  0.00000000000E+00  0.00000000000E+00  0.16293421588E+03  0.16293421588E+03  0.00000000000E+00 0.  1.
         21   -1    0    0  502  504 -0.00000000000E+00 -0.00000000000E+00 -0.23816696810E+03  0.23816696810E+03  0.00000000000E+00 0.  1.
          6    2    1    2  502    0  0.71517510439E+02 -0.61509284980E+02 -0.26632456121E+02  0.19798732006E+03  0.17202193101E+03 0.  0.
         24    2    3    3    0    0  0.95747827833E+02 -0.33008418076E+02 -0.65079003879E+02  0.14413906355E+03  0.79269103031E+02 0.  0.
         -6    2    1    2    0  503 -0.71517510439E+02  0.61509284980E+02 -0.48600296099E+02  0.20311386391E+03  0.17319095385E+03 0.  0.
        -24    2    5    5    0    0 -0.10732252677E+03  0.80676958474E+02 -0.37930107729E+02  0.16086055846E+03  0.80065784304E+02 0.  0.
          4    1    4    4  501    0  0.13561387650E+02 -0.43534011160E+02 -0.26519431623E+02  0.52748475013E+02  0.00000000000E+00 0. -1.
         -3    1    4    4    0  501  0.82186440183E+02  0.10525593084E+02 -0.38559572256E+02  0.91390588532E+02  0.00000000000E+00 0.  1.
          5    1    3    3  502    0 -0.24230317394E+02 -0.28500866904E+02  0.38446547758E+02  0.53848256516E+02  0.47000000000E+01 0. -1.
         13    1    6    6    0    0 -0.36500212423E+02  0.71763732556E+02 -0.10599642487E+01  0.80519701574E+02  0.00000000000E+00 0. -1.
        -14    1    6    6    0    0 -0.70822314344E+02  0.89132259174E+01 -0.36870143481E+02  0.80340856889E+02  0.00000000000E+00 0.  1.
         -5    1    5    5    0  503  0.35805016329E+02 -0.19167673494E+02 -0.10670188370E+02  0.42253305448E+02  0.47000000000E+01 0.  1.
<mgrwt>
<rscale>  2 0.19695677E+03</rscale>
<asrwt>0</asrwt>
<pdfrwt beam="1">  1       21 0.25066802E-01 0.19721372E+03</pdfrwt>
<pdfrwt beam="2">  1       21 0.36641072E-01 0.19721372E+03</pdfrwt>
<totfact> 0.10806064E+05</totfact>
</mgrwt>
</event>
<event>
12    1  0.2762290E-001  0.2123921E+03  0.7546771E-02  0.1140085E+00
         21   -1    0    0  504  503  0.00000000000E+00  0.00000000000E+00  0.90580834637E+02  0.90580834637E+02  0.00000000000E+00 0. -1.
         21   -1    0    0  502  504 -0.00000000000E+00 -0.00000000000E+00 -0.49685362341E+03  0.49685362341E+03  0.00000000000E+00 0. -1.
          6    2    1    2  502    0  0.90095429013E+02  0.79049690721E+02 -0.22913690420E+03  0.31243259002E+03  0.17534070408E+03 0.  0.
         24    2    3    3    0    0  0.10625300520E+03  0.98704212470E+02 -0.23348101381E+03  0.28619656933E+03  0.79767598750E+02 0.  0.
         -6    2    1    2    0  503 -0.90095429013E+02 -0.79049690721E+02 -0.17713588457E+03  0.27500186803E+03  0.17286661298E+03 0.  0.
        -24    2    5    5    0    0 -0.93977742889E+02 -0.99595438410E+01 -0.48853104909E+02  0.12916949057E+03  0.73260649484E+02 0.  0.
          2    1    4    4  501    0  0.11108514757E+03  0.10588059480E+03 -0.20280308149E+03  0.25432204039E+03  0.00000000000E+00 0. -1.
         -1    1    4    4    0  501 -0.48321423752E+01 -0.71763823298E+01 -0.30677932325E+02  0.31874528938E+02  0.00000000000E+00 0.  1.
          5    1    3    3  502    0 -0.16157576183E+02 -0.19654521749E+02  0.43441096156E+01  0.26236020690E+02  0.47000000000E+01 0. -1.
         13    1    6    6    0    0 -0.60570986980E+02  0.95912510277E+01 -0.63036404314E+02  0.87945578791E+02  0.00000000000E+00 0. -1.
        -14    1    6    6    0    0 -0.33406755910E+02 -0.19550794869E+02  0.14183299405E+02  0.41223911780E+02  0.00000000000E+00 0.  1.
         -5    1    5    5    0  503  0.38823138761E+01 -0.69090146880E+02 -0.12828277966E+03  0.14583237746E+03  0.47000000000E+01 0.  1.
<mgrwt>
<rscale>  2 0.21188079E+03</rscale>
<asrwt>0</asrwt>
<pdfrwt beam="1">  1       21 0.13935513E-01 0.21239210E+03</pdfrwt>
<pdfrwt beam="2">  1       21 0.76439020E-01 0.21239210E+03</pdfrwt>
<totfact> 0.67709150E+04</totfact>
</mgrwt>
</event>
<event>
12    1  0.2762290E-001  0.2000202E+03  0.7546771E-02  0.1149807E+00
         21   -1    0    0  504  503  0.00000000000E+00  0.00000000000E+00  0.32083564031E+03  0.32083564031E+03  0.00000000000E+00 0.  1.
         21   -1    0    0  502  504 -0.00000000000E+00 -0.00000000000E+00 -0.12460448786E+03  0.12460448786E+03  0.00000000000E+00 0.  1.
          6    2    1    2  502    0 -0.74430852864E+02 -0.69479799073E+02  0.90369807265E+02  0.21948757644E+03  0.17216474612E+03 0.  0.
         24    2    3    3    0    0 -0.78324845363E+01  0.11063412649E+02  0.81519166008E+02  0.11449721750E+03  0.79249551895E+02 0.  0.
         -6    2    1    2    0  503  0.74430852864E+02  0.69479799073E+02  0.10586134518E+03  0.22595255173E+03  0.17169897173E+03 0.  0.
        -24    2    5    5    0    0 -0.25700001180E+02  0.34820539642E+02  0.62548780790E+02  0.11138588804E+03  0.81372636888E+02 0.  0.
          4    1    4    4  501    0 -0.18272196472E+02  0.42631973717E+02  0.39567060597E+02  0.60966471369E+02  0.00000000000E+00 0. -1.
         -3    1    4    4    0  501  0.10439711936E+02 -0.31568561067E+02  0.41952105411E+02  0.53530746133E+02  0.00000000000E+00 0.  1.
          5    1    3    3  502    0 -0.66598368328E+02 -0.80543211723E+02  0.88506412574E+01  0.10499035893E+03  0.47000000000E+01 0. -1.
         11    1    6    6    0    0 -0.39998210607E+02 -0.12044878843E+02  0.19236306320E+02  0.45988818630E+02  0.00000000000E+00 0. -1.
        -12    1    6    6    0    0  0.14298209426E+02  0.46865418485E+02  0.43312474470E+02  0.65397069409E+02  0.00000000000E+00 0.  1.
         -5    1    5    5    0  503  0.10013085404E+03  0.34659259431E+02  0.43312564389E+02  0.11456666369E+03  0.47000000000E+01 0.  1.
<mgrwt>
<rscale>  2 0.19991997E+03</rscale>
<asrwt>0</asrwt>
<pdfrwt beam="1">  1       21 0.49359329E-01 0.20002023E+03</pdfrwt>
<pdfrwt beam="2">  1       21 0.19169921E-01 0.20002023E+03</pdfrwt>
<totfact> 0.97487410E+04</totfact>
</mgrwt>
</event>
<event>
12    1  0.2762290E-001  0.2040986E+03  0.7546771E-02  0.1146793E+00
         21   -1    0    0  504  503  0.00000000000E+00  0.00000000000E+00  0.67954433380E+02  0.67954433380E+02  0.00000000000E+00 0.  1.
         21   -1    0    0  502  504 -0.00000000000E+00 -0.00000000000E+00 -0.64619336096E+03  0.64619336096E+03  0.00000000000E+00 0.  1.
          6    2    1    2  502    0 -0.10210965203E+03  0.26984035572E+02 -0.19881736443E+03  0.28331492157E+03  0.17200139874E+03 0.  0.
         24    2    3    3    0    0 -0.14112406711E+03  0.63871493390E+01 -0.12809957653E+03  0.19983167874E+03  0.59719346357E+02 0.  0.
         -6    2    1    2    0  503  0.10210965203E+03 -0.26984035572E+02 -0.37942156315E+03  0.43083287278E+03  0.17464742331E+03 0.  0.
        -24    2    5    5    0    0  0.66784552966E+01 -0.64264691920E+02 -0.15900490261E+03  0.18772270250E+03  0.76044076614E+02 0.  0.
          4    1    4    4  501    0 -0.13960780088E+03  0.12854281101E+02 -0.13163185875E+03  0.19230838995E+03  0.00000000000E+00 0. -1.
         -3    1    4    4    0  501 -0.15162662242E+01 -0.64671317623E+01  0.35322822204E+01  0.75232887874E+01  0.00000000000E+00 0.  1.
          5    1    3    3  502    0  0.39014415075E+02  0.20596886233E+02 -0.70717787906E+02  0.83483242825E+02  0.47000000000E+01 0. -1.
         11    1    6    6    0    0 -0.19442537434E+01 -0.73970929718E+02 -0.15827598673E+03  0.17471910755E+03  0.00000000000E+00 0. -1.
        -12    1    6    6    0    0  0.86227090400E+01  0.97062377988E+01 -0.72891587783E+00  0.13003594955E+02  0.00000000000E+00 0.  1.
         -5    1    5    5    0  503  0.95431196734E+02  0.37280656347E+02 -0.22041666054E+03  0.24311017027E+03  0.47000000000E+01 0.  1.
<mgrwt>
<rscale>  2 0.20353136E+03</rscale>
<asrwt>0</asrwt>
<pdfrwt beam="1">  1       21 0.10454528E-01 0.20409861E+03</pdfrwt>
<pdfrwt beam="2">  1       21 0.99414361E-01 0.20409861E+03</pdfrwt>
<totfact> 0.62094042E+04</totfact>
</mgrwt>
</event>
<event>
12    1  0.2762290E-001  0.1949824E+03  0.7546771E-02  0.1156215E+00
         21   -1    0    0  504  503  0.00000000000E+00  0.00000000000E+00  0.12655139706E+04  0.12655139706E+04  0.00000000000E+00 0. -1.
         21   -1    0    0  502  504 -0.00000000000E+00 -0.00000000000E+00 -0.13166677732E+03  0.13166677732E+03  0.00000000000E+00 0. -1.
          6    2    1    2  502    0 -0.58687473607E+02  0.33853058884E+02 -0.54348789546E+02  0.19309277884E+03  0.17245515696E+03 0.  0.
         24    2    3    3    0    0 -0.99275960416E+02  0.43086336101E+02 -0.65202731556E+02  0.14981949925E+03  0.80512964656E+02 0.  0.
         -6    2    1    2    0  503  0.58687473607E+02 -0.33853058884E+02  0.11881959829E+04  0.12040879691E+04  0.18283296894E+03 0.  0.
        -24    2    5    5    0    0  0.67877718057E+02 -0.12138845049E+02  0.11674101660E+04  0.11723057751E+04  0.81851074742E+02 0.  0.
          4    1    4    4  501    0 -0.78190112850E+02  0.12904417651E+02 -0.77655033104E+02  0.11095279135E+03  0.00000000000E+00 0. -1.
         -3    1    4    4    0  501 -0.21085847566E+02  0.30181918450E+02  0.12452301548E+02  0.38866707897E+02  0.00000000000E+00 0.  1.
          5    1    3    3  502    0  0.40588486808E+02 -0.92332772170E+01  0.10853942011E+02  0.43273279593E+02  0.47000000000E+01 0. -1.
         13    1    6    6    0    0  0.56974735643E+02 -0.44161109765E+02  0.71148997718E+03  0.71513237359E+03  0.00000000000E+00 0. -1.
        -14    1    6    6    0    0  0.10902982414E+02  0.32022264716E+02  0.45592018880E+03  0.45717340148E+03  0.00000000000E+00 0.  1.
         -5    1    5    5    0  503 -0.91902444492E+01 -0.21714213835E+02  0.20785816871E+02  0.31782194047E+02  0.47000000000E+01 0.  1.
<mgrwt>
<rscale>  2 0.19251184E+03</rscale>
<asrwt>0</asrwt>
<pdfrwt beam="1">  1       21 0.19469445E+00 0.19498242E+03</pdfrwt>
<pdfrwt beam="2">  1       21 0.20256428E-01 0.19498242E+03</pdfrwt>
<totfact> 0.32678588E+03</totfact>
</mgrwt>
</event>
<event>
12    1  0.2762290E-001  0.2180616E+03  0.7546771E-02  0.1135458E+00
         21   -1    0    0  504  503  0.00000000000E+00  0.00000000000E+00  0.30991853959E+03  0.30991853959E+03  0.00000000000E+00 0. -1.
         21   -1    0    0  502  504 -0.00000000000E+00 -0.00000000000E+00 -0.20302635403E+03  0.20302635403E+03  0.00000000000E+00 0.  1.
          6    2    1    2  502    0 -0.48855814362E+01  0.13321509716E+03 -0.73831034484E+02  0.23022139029E+03  0.17257095896E+03 0.  0.
         24    2    3    3    0    0 -0.41196302441E+00  0.15715740679E+03 -0.29941713442E+02  0.17980700788E+03  0.82069687813E+02 0.  0.
         -6    2    1    2    0  503  0.48855814362E+01 -0.13321509716E+03  0.18072322005E+03  0.28272350334E+03  0.17176019928E+03 0.  0.
        -24    2    5    5    0    0 -0.29039948945E+02 -0.13214731479E+03  0.19074835263E+03  0.24702091164E+03  0.79549766270E+02 0.  0.
          4    1    4    4  501    0 -0.54609178629E+01  0.14753203611E+03  0.34025074470E+00  0.14763346191E+03  0.00000000000E+00 0. -1.
         -3    1    4    4    0  501  0.50489548385E+01  0.96253706725E+01 -0.30281964187E+02  0.32173545974E+02  0.00000000000E+00 0.  1.
          5    1    3    3  502    0 -0.44736184118E+01 -0.23942309625E+02 -0.43889321042E+02  0.50414382406E+02  0.47000000000E+01 0. -1.
         11    1    6    6    0    0 -0.47426027166E+02 -0.86243982641E+02  0.84077258155E+02  0.12944588805E+03  0.00000000000E+00 0. -1.
        -12    1    6    6    0    0  0.18386078221E+02 -0.45903332153E+02  0.10667109447E+03  0.11757502359E+03  0.00000000000E+00 0.  1.
         -5    1    5    5    0  503  0.33925530381E+02 -0.10677823671E+01 -0.10025132577E+02  0.35702591699E+02  0.47000000000E+01 0.  1.
<mgrwt>
<rscale>  2 0.21790117E+03</rscale>
<asrwt>0</asrwt>
<pdfrwt beam="1">  1       21 0.47679775E-01 0.21806161E+03</pdfrwt>
<pdfrwt beam="2">  1       21 0.31234824E-01 0.21806161E+03</pdfrwt>
<totfact> 0.40899701E+04</totfact>
</mgrwt>
</event>
<event>
12    1  0.2762290E-001  0.2482193E+03  0.7546771E-02  0.1114450E+00
         21   -1    0    0  504  503  0.00000000000E+00  0.00000000000E+00  0.55853502458E+03  0.55853502458E+03  0.00000000000E+00 0. -1.
         21   -1    0    0  502  504 -0.00000000000E+00 -0.00000000000E+00 -0.11964706276E+03  0.11964706276E+03  0.00000000000E+00 0.  1.
          6    2    1    2  502    0 -0.17766762147E+03 -0.97338977168E+01  0.31433536349E+03  0.40046606435E+03  0.17293297971E+03 0.  0.
         24    2    3    3    0    0 -0.35332144024E+02  0.35074904593E+02  0.15904788129E+03  0.18505132708E+03  0.80431062269E+02 0.  0.
         -6    2    1    2    0  503  0.17766762147E+03  0.97338977168E+01  0.12455259832E+03  0.27771602299E+03  0.17306734873E+03 0.  0.
        -24    2    5    5    0    0  0.11360358262E+03  0.73140257086E+02  0.68492412626E+02  0.17146442582E+03  0.80334099503E+02 0.  0.
          4    1    4    4  501    0  0.23200532935E+02  0.26827739365E+02  0.58130684851E+02  0.68096760930E+02  0.00000000000E+00 0. -1.
         -3    1    4    4    0  501 -0.58532676959E+02  0.82471652285E+01  0.10091719644E+03  0.11695456615E+03  0.00000000000E+00 0.  1.
          5    1    3    3  502    0 -0.14233547744E+03 -0.44808802310E+02  0.15528748220E+03  0.21541473726E+03  0.47000000000E+01 0. -1.
         13    1    6    6    0    0  0.11429004729E+03  0.35694583466E+02  0.51643055036E+02  0.13039679187E+03  0.00000000000E+00 0. -1.
        -14    1    6    6    0    0 -0.68646466543E+00  0.37445673621E+02  0.16849357590E+02  0.41067633945E+02  0.00000000000E+00 0.  1.
         -5    1    5    5    0  503  0.64064038846E+02 -0.63406359370E+02  0.56060185697E+02  0.10625159717E+03  0.47000000000E+01 0.  1.
<mgrwt>
<rscale>  2 0.24819592E+03</rscale>
<asrwt>0</asrwt>
<pdfrwt beam="1">  1       21 0.85928464E-01 0.24821934E+03</pdfrwt>
<pdfrwt beam="2">  1       21 0.18407241E-01 0.24821934E+03</pdfrwt>
<totfact> 0.30600992E+04</totfact>
</mgrwt>
</event>
<event>
12    1  0.2762290E-001  0.1746007E+03  0.7546771E-02  0.1173687E+00
         21   -1    0    0  504  503  0.00000000000E+00  0.00000000000E+00  0.19573489823E+04  0.19573489823E+04  0.00000000000E+00 0. -1.
         21   -1    0    0  502  504 -0.00000000000E+00 -0.00000000000E+00 -0.26140218502E+02  0.26140218502E+02  0.00000000000E+00 0. -1.
          6    2    1    2  502    0 -0.16942188257E+02 -0.10063525693E+02  0.32575728440E+03  0.36857129495E+03  0.17128537250E+03 0.  0.
         24    2    3    3    0    0  0.24255614481E+02 -0.94458546697E+01  0.31386463286E+03  0.32543006608E+03  0.81952188167E+02 0.  0.
         -6    2    1    2    0  503  0.16942188257E+02  0.10063525693E+02  0.16054514794E+04  0.16149179059E+04  0.17348509339E+03 0.  0.
        -24    2    5    5    0    0 -0.40058587615E+02  0.11988923335E+01  0.49112727156E+03  0.49909166474E+03  0.79248754909E+02 0.  0.
          2    1    4    4  501    0  0.20379078926E+02 -0.39247441739E+02  0.26013168382E+03  0.26386390710E+03  0.00000000000E+00 0. -1.
         -1    1    4    4    0  501  0.38765355543E+01  0.29801587070E+02  0.53732949043E+02  0.61566158989E+02  0.00000000000E+00 0.  1.
          5    1    3    3  502    0 -0.41197802738E+02 -0.61767102288E+00  0.11892651535E+02  0.43141228871E+02  0.47000000000E+01 0. -1.
         13    1    6    6    0    0 -0.56054613275E+02  0.20746606310E+02  0.40327909638E+03  0.40768440112E+03  0.00000000000E+00 0. -1.
        -14    1    6    6    0    0  0.15996025660E+02 -0.19547713977E+02  0.87848175184E+02  0.91407263616E+02  0.00000000000E+00 0.  1.
         -5    1    5    5    0  503  0.57000775873E+02  0.88646333591E+01  0.11143242079E+04  0.11158262412E+04  0.47000000000E+01 0.  1.
<mgrwt>
<rscale>  2 0.17405170E+03</rscale>
<asrwt>0</asrwt>
<pdfrwt beam="1">  1       21 0.30113050E+00 0.17460066E+03</pdfrwt>
<pdfrwt beam="2">  1       21 0.40215736E-02 0.17460066E+03</pdfrwt>
<totfact> 0.13319389E+04</totfact>
</mgrwt>
</event>
<event>
12    1  0.2762290E-001  0.2378203E+03  0.7546771E-02  0.1121284E+00
         21   -1    0    0  504  503  0.00000000000E+00  0.00000000000E+00  0.10773574892E+03  0.10773574892E+03  0.00000000000E+00 0. -1.
         21   -1    0    0  502  504 -0.00000000000E+00 -0.00000000000E+00 -0.53062689242E+03  0.53062689242E+03  0.00000000000E+00 0.  1.
          6    2    1    2  502    0 -0.15246026465E+03  0.62768196133E+02 -0.24544356794E+03  0.34163690879E+03  0.17114103441E+03 0.  0.
         24    2    3    3    0    0 -0.63639149055E+02 -0.30524126923E+02 -0.96832286093E+02  0.14491362290E+03  0.81497256738E+02 0.  0.
         -6    2    1    2    0  503  0.15246026465E+03 -0.62768196133E+02 -0.17744757556E+03  0.29672573255E+03  0.17139002172E+03 0.  0.
        -24    2    5    5    0    0  0.58349325870E+02 -0.20491711361E+02 -0.12031837667E+02  0.10171643456E+03  0.79855581380E+02 0.  0.
          4    1    4    4  501    0 -0.33357065421E+02  0.87158687196E+01 -0.88071605204E+02  0.94579426009E+02  0.00000000000E+00 0. -1.
         -3    1    4    4    0  501 -0.30282083634E+02 -0.39239995643E+02 -0.87606808890E+01  0.50334196893E+02  0.00000000000E+00 0.  1.
          5    1    3    3  502    0 -0.88821115593E+02  0.93292323056E+02 -0.14861128185E+03  0.19672328588E+03  0.47000000000E+01 0. -1.
         11    1    6    6    0    0  0.46672645558E+02  0.22091857164E+02 -0.22517294249E+02  0.56333067878E+02  0.00000000000E+00 0. -1.
        -12    1    6    6    0    0  0.11676680313E+02 -0.42583568525E+02  0.10485456582E+02  0.45383366680E+02  0.00000000000E+00 0.  1.
         -5    1    5    5    0  503  0.94110938778E+02 -0.42276484772E+02 -0.16541573789E+03  0.19500929799E+03  0.47000000000E+01 0.  1.
<mgrwt>
<rscale>  2 0.23777549E+03</rscale>
<asrwt>0</asrwt>
<pdfrwt beam="1">  1       21 0.16574731E-01 0.23782035E+03</pdfrwt>
<pdfrwt beam="2">  1       21 0.81634906E-01 0.23782035E+03</pdfrwt>
<totfact> 0.42004324E+04</totfact>
</mgrwt>
</event>
<event>
12    1  0.2762290E-001  0.1830794E+03  0.7546771E-02  0.1165665E+00
         21   -1    0    0  504  503  0.00000000000E+00  0.00000000000E+00  0.28132910905E+02  0.28132910905E+02  0.00000000000E+00 0. -1.
         21   -1    0    0  502  504 -0.00000000000E+00 -0.00000000000E+00 -0.16597638359E+04  0.16597638359E+04  0.00000000000E+00 0. -1.
          6    2    1    2  502    0  0.39469523985E+02 -0.34729627569E+02 -0.12691179749E+04  0.12817764497E+04  0.17183259989E+03 0.  0.
         24    2    3    3    0    0  0.40778946837E+02  0.41176747701E+02 -0.57503441692E+03  0.58353754511E+03  0.80579394737E+02 0.  0.
         -6    2    1    2    0  503 -0.39469523985E+02  0.34729627569E+02 -0.36251295010E+03  0.40612029713E+03  0.17536837342E+03 0.  0.
        -24    2    5    5    0    0 -0.89463898001E+02  0.50433254746E+02 -0.26579134363E+03  0.29601489083E+03  0.80202711995E+02 0.  0.
          2    1    4    4  501    0 -0.18615419906E+02  0.34728848744E+02 -0.21534704147E+03  0.21892230372E+03  0.00000000000E+00 0. -1.
         -1    1    4    4    0  501  0.59394366743E+02  0.64478989568E+01 -0.35968737545E+03  0.36461524139E+03  0.00000000000E+00 0.  1.
          5    1    3    3  502    0 -0.13094228517E+01 -0.75906375270E+02 -0.69408355795E+03  0.69823890454E+03  0.47000000000E+01 0. -1.
         11    1    6    6    0    0 -0.69677767687E+02  0.16618371020E+02 -0.85620007146E+02  0.11163309182E+03  0.00000000000E+00 0. -1.
        -12    1    6    6    0    0 -0.19786130314E+02  0.33814883725E+02 -0.18017133649E+03  0.18438179901E+03  0.00000000000E+00 0.  1.
         -5    1    5    5    0  503  0.49994374015E+02 -0.15703627176E+02 -0.96721606465E+02  0.11010540630E+03  0.47000000000E+01 0.  1.
<mgrwt>
<rscale>  2 0.18222745E+03</rscale>
<asrwt>0</asrwt>
<pdfrwt beam="1">  1       21 0.43281378E-02 0.18307937E+03</pdfrwt>
<pdfrwt beam="2">  1       21 0.25534842E+00 0.18307937E+03</pdfrwt>
<totfact> 0.21415559E+04</totfact>
</mgrwt>
</event>
<event>
12    1  0.2762290E-001  0.1822552E+03  0.7546771E-02  0.1165648E+00
         21   -1    0    0  504  503  0.00000000000E+00  0.00000000000E+00  0.19775498064E+03  0.19775498064E+03  0.00000000000E+00 0.  1.
         21   -1    0    0  502  504 -0.00000000000E+00 -0.00000000000E+00 -0.16803765846E+03  0.16803765846E+03  0.00000000000E+00 0. -1.
          6    2    1    2  502    0  0.51770544133E+02 -0.22052499796E+02  0.19467819804E+02  0.18329197743E+03  0.17335065906E+03 0.  0.
         24    2    3    3    0    0  0.91753990059E+02 -0.44315039659E+02  0.34597276576E+02  0.13486381319E+03  0.81293659844E+02 0.  0.
         -6    2    1    2    0  503 -0.51770544133E+02  0.22052499796E+02  0.10249502372E+02  0.18250066166E+03  0.17330590648E+03 0.  0.
        -24    2    5    5    0    0 -0.40423327433E+02  0.11730858511E+01 -0.60206641208E+02  0.10799651801E+03  0.80018664857E+02 0.  0.
          2    1    4    4  501    0  0.69248898847E+02 -0.15574254013E+02  0.57863611516E+02  0.91576006232E+02  0.00000000000E+00 0. -1.
         -1    1    4    4    0  501  0.22505091212E+02 -0.28740785647E+02 -0.23266334940E+02  0.43287806962E+02  0.00000000000E+00 0.  1.
          5    1    3    3  502    0 -0.39983445926E+02  0.22262539864E+02 -0.15129456772E+02  0.48428164238E+02  0.47000000000E+01 0. -1.
         11    1    6    6    0    0 -0.24953949194E+02 -0.28311354598E+02  0.16205289592E+01  0.37773780505E+02  0.00000000000E+00 0. -1.
        -12    1    6    6    0    0 -0.15469378238E+02  0.29484440449E+02 -0.61827170168E+02  0.70222737504E+02  0.00000000000E+00 0.  1.
         -5    1    5    5    0  503 -0.11347216701E+02  0.20879413944E+02  0.70456143580E+02  0.74504143655E+02  0.47000000000E+01 0.  1.
<mgrwt>
<rscale>  2 0.18224454E+03</rscale>
<asrwt>0</asrwt>
<pdfrwt beam="1">  1       21 0.30423843E-01 0.18225519E+03</pdfrwt>
<pdfrwt beam="2">  1       21 0.25851947E-01 0.18225519E+03</pdfrwt>
<totfact> 0.14779428E+05</totfact>
</mgrwt>
</event>
<event>
12    1  0.2762290E-001  0.2717776E+03  0.7546771E-02  0.1100563E+00
         21   -1    0    0  504  503  0.00000000000E+00  0.00000000000E+00  0.38243826181E+03  0.38243826181E+03  0.00000000000E+00 0. -1.
         21   -1    0    0  502  504 -0.00000000000E+00 -0.00000000000E+00 -0.25785092987E+03  0.25785092987E+03  0.00000000000E+00 0. -1.
          6    2    1    2  502    0 -0.20712422719E+03  0.34605977742E+02 -0.10008670854E+03  0.28766832515E+03  0.16922676172E+03 0.  0.
         24    2    3    3    0    0 -0.75045127182E+02  0.44917806052E+02  0.42102995714E+01  0.11899355417E+03  0.80575175443E+02 0.  0.
         -6    2    1    2    0  503  0.20712422719E+03 -0.34605977742E+02  0.22467404048E+03  0.35262086654E+03  0.17252545280E+03 0.  0.
        -24    2    5    5    0    0  0.23363707816E+02  0.10125626139E+02  0.74133713527E+02  0.11084964222E+03  0.78380128551E+02 0.  0.
          2    1    4    4  501    0 -0.44405016102E+02  0.46963532630E+02 -0.31496127038E+02  0.71898434409E+02  0.00000000000E+00 0. -1.
         -1    1    4    4    0  501 -0.30640111081E+02 -0.20457265779E+01  0.35706426610E+02  0.47095119763E+02  0.00000000000E+00 0.  1.
          5    1    3    3  502    0 -0.13207910001E+03 -0.10311828310E+02 -0.10429700811E+03  0.16867477098E+03  0.47000000000E+01 0. -1.
         13    1    6    6    0    0  0.16301882974E+01  0.39782611568E+02  0.58800127823E+02  0.71012454746E+02  0.00000000000E+00 0. -1.
        -14    1    6    6    0    0  0.21733519519E+02 -0.29656985429E+02  0.15333585704E+02  0.39837187475E+02  0.00000000000E+00 0.  1.
         -5    1    5    5    0  503  0.18376051938E+03 -0.44731603882E+02  0.15054032695E+03  0.24177122432E+03  0.47000000000E+01 0.  1.
<mgrwt>
<rscale>  2 0.27125558E+03</rscale>
<asrwt>0</asrwt>
<pdfrwt beam="1">  1       21 0.58836656E-01 0.27177758E+03</pdfrwt>
<pdfrwt beam="2">  1       21 0.39669374E-01 0.27177758E+03</pdfrwt>
<totfact> 0.15852535E+04</totfact>
</mgrwt>
</event>
<event>
12    1  0.2762290E-001  0.2036093E+03  0.7546771E-02  0.1146949E+00
         21   -1    0    0  504  503  0.00000000000E+00  0.00000000000E+00  0.87518277278E+03  0.87518277278E+03  0.00000000000E+00 0.  1.
         21   -1    0    0  502  504 -0.00000000000E+00 -0.00000000000E+00 -0.57993657151E+02  0.57993657151E+02  0.00000000000E+00 0.  1.
          6    2    1    2  502    0 -0.10173294181E+03 -0.29873022193E+02  0.20570855025E+03  0.28868809722E+03  0.17257699999E+03 0.  0.
         24    2    3    3    0    0 -0.11618358095E+03 -0.51298403454E+02  0.10888523650E+03  0.18836505889E+03  0.86575111922E+02 0.  0.
         -6    2    1    2    0  503  0.10173294181E+03  0.29873022193E+02  0.61148056538E+03  0.64448833272E+03  0.17382387712E+03 0.  0.
        -24    2    5    5    0    0  0.93881714618E+02  0.65863346227E+02  0.57741001294E+03  0.59409152988E+03  0.79941641914E+02 0.  0.
          4    1    4    4  501    0 -0.11303241027E+03 -0.23712652131E+02  0.11142882793E+03  0.16048364196E+03  0.00000000000E+00 0. -1.
         -3    1    4    4    0  501 -0.31511706794E+01 -0.27585751323E+02 -0.25435914320E+01  0.27881416931E+02  0.00000000000E+00 0.  1.
          5    1    3    3  502    0  0.14450639140E+02  0.21425381260E+02  0.96823313750E+02  0.10032303833E+03  0.47000000000E+01 0. -1.
         13    1    6    6    0    0  0.14039944980E+02  0.23314425993E+02  0.35763340491E+02  0.44941061820E+02  0.00000000000E+00 0. -1.
        -14    1    6    6    0    0  0.79841769638E+02  0.42548920234E+02  0.54164667245E+03  0.54915046806E+03  0.00000000000E+00 0.  1.
         -5    1    5    5    0  503  0.78512271954E+01 -0.35990324033E+02  0.34070552443E+02  0.50396802838E+02  0.47000000000E+01 0.  1.
<mgrwt>
<rscale>  2 0.20334288E+03</rscale>
<asrwt>0</asrwt>
<pdfrwt beam="1">  1       21 0.13464349E+00 0.20360926E+03</pdfrwt>
<pdfrwt beam="2">  1       21 0.89221017E-02 0.20360926E+03</pdfrwt>
<totfact> 0.38978962E+04</totfact>
</mgrwt>
</event>
<event>
12    1  0.2762290E-001  0.1968831E+03  0.7546771E-02  0.1152699E+00
         21   -1    0    0  504  503  0.00000000000E+00  0.00000000000E+00  0.20228375151E+03  0.20228375151E+03  0.00000000000E+00 0. -1.
         21   -1    0    0  502  504 -0.00000000000E+00 -0.00000000000E+00 -0.22292673126E+03  0.22292673126E+03  0.00000000000E+00 0. -1.
          6    2    1    2  502    0 -0.62349964787E+02 -0.66443466874E+02 -0.91671496210E+02  0.21590688220E+03  0.17294469106E+03 0.  0.
         24    2    3    3    0    0  0.45898804180E+01 -0.31278362617E+02 -0.10869795076E+03  0.13825691383E+03  0.79374597650E+02 0.  0.
         -6    2    1    2    0  503  0.62349964787E+02  0.66443466874E+02  0.71028516458E+02  0.20930360057E+03  0.17452992483E+03 0.  0.
        -24    2    5    5    0    0  0.52810905092E+02  0.44611965259E+02  0.11542405281E+03  0.15870061873E+03  0.84166235978E+02 0.  0.
          4    1    4    4  501    0 -0.96561929224E+01 -0.55885856103E+02 -0.66900376620E+02  0.87704796710E+02  0.00000000000E+00 0. -1.
         -3    1    4    4    0  501  0.14246073340E+02  0.24607493486E+02 -0.41797574141E+02  0.50552117121E+02  0.00000000000E+00 0.  1.
          5    1    3    3  502    0 -0.66939845205E+02 -0.35165104258E+02  0.17026454551E+02  0.77649968371E+02  0.47000000000E+01 0. -1.
         11    1    6    6    0    0  0.62390945981E+02  0.41128129398E+02  0.44345134000E+02  0.86894442156E+02  0.00000000000E+00 0. -1.
        -12    1    6    6    0    0 -0.95800408891E+01  0.34838358615E+01  0.71078918807E+02  0.71806176576E+02  0.00000000000E+00 0.  1.
         -5    1    5    5    0  503  0.95390596950E+01  0.21831501615E+02 -0.44395536349E+02  0.50602981833E+02  0.47000000000E+01 0.  1.
<mgrwt>
<rscale>  2 0.19653117E+03</rscale>
<asrwt>0</asrwt>
<pdfrwt beam="1">  1       21 0.31120577E-01 0.19688308E+03</pdfrwt>
<pdfrwt beam="2">  1       21 0.34296420E-01 0.19688308E+03</pdfrwt>
<totfact> 0.81123283E+04</totfact>
</mgrwt>
</event>
<event>
12    1  0.2762290E-001  0.2143135E+03  0.7546771E-02  0.1138267E+00
         21   -1    0    0  504  503  0.00000000000E+00  0.00000000000E+00  0.21738099564E+03  0.21738099564E+03  0.00000000000E+00 0.  1.
         21   -1    0    0  502  504 -0.00000000000E+00 -0.00000000000E+00 -0.52542812353E+03  0.52542812353E+03  0.00000000000E+00 0. -1.
          6    2    1    2  502    0  0.72708185789E+02 -0.10499780534E+03 -0.44131611865E+03  0.49043855511E+03  0.17163636080E+03 0.  0.
         24    2    3    3    0    0  0.95051450875E+02 -0.11659027493E+03 -0.28627871688E+03  0.33330074046E+03  0.80658597371E+02 0.  0.
         -6    2    1    2    0  503 -0.72708185789E+02  0.10499780534E+03  0.13326899076E+03  0.25237056407E+03  0.17210246455E+03 0.  0.
        -24    2    5    5    0    0 -0.76031552744E+02  0.36503262311E+01  0.86403198048E+02  0.14056336924E+03  0.80612816878E+02 0.  0.
          2    1    4    4  501    0  0.93572202436E+02 -0.91197766434E+02 -0.27691941279E+03  0.30619789491E+03  0.00000000000E+00 0. -1.
         -1    1    4    4    0  501  0.14792484390E+01 -0.25392508492E+02 -0.93593040948E+01  0.27102845545E+02  0.00000000000E+00 0.  1.
          5    1    3    3  502    0 -0.22343265086E+02  0.11592469587E+02 -0.15503740177E+03  0.15713781465E+03  0.47000000000E+01 0. -1.
         13    1    6    6    0    0  0.12079200394E+02  0.14313746914E+02  0.33814411445E+01  0.19032198430E+02  0.00000000000E+00 0. -1.
        -14    1    6    6    0    0 -0.88110753138E+02 -0.10663420683E+02  0.83021756903E+02  0.12153117081E+03  0.00000000000E+00 0.  1.
         -5    1    5    5    0  503  0.33233669555E+01  0.10134747911E+03  0.46865792708E+02  0.11180719483E+03  0.47000000000E+01 0.  1.
<mgrwt>
<rscale>  2 0.21421991E+03</rscale>
<asrwt>0</asrwt>
<pdfrwt beam="1">  1       21 0.33443230E-01 0.21431350E+03</pdfrwt>
<pdfrwt beam="2">  1       21 0.80835095E-01 0.21431350E+03</pdfrwt>
<totfact> 0.11402910E+04</totfact>
</mgrwt>
</event>
<event>
12    1  0.2762290E-001  0.2414076E+03  0.7546771E-02  0.1118905E+00
         21   -1    0    0  504  503  0.00000000000E+00  0.00000000000E+00  0.37776673686E+03  0.37776673686E+03  0.00000000000E+00 0. -1.
         21   -1    0    0  502  504 -0.00000000000E+00 -0.00000000000E+00 -0.18981819749E+03  0.18981819749E+03  0.00000000000E+00 0. -1.
          6    2    1    2  502    0 -0.13755717487E+03 -0.96211679222E+02 -0.29191110052E+02  0.24288929314E+03  0.17310235192E+03 0.  0.
         24    2    3    3    0    0 -0.16560450423E+03 -0.64788616670E+02 -0.32315028004E+02  0.20039328853E+03  0.86549363838E+02 0.  0.
         -6    2    1    2    0  503  0.13755717487E+03  0.96211679222E+02  0.21713964942E+03  0.32469564122E+03  0.17349054296E+03 0.  0.
        -24    2    5    5    0    0  0.98128248668E+02  0.12635550357E+03  0.12179736633E+03  0.21710599806E+03  0.81887419553E+02 0.  0.
          4    1    4    4  501    0 -0.11775289048E+03 -0.87223643049E+01 -0.43511564289E+02  0.12583751063E+03  0.00000000000E+00 0. -1.
         -3    1    4    4    0  501 -0.47851613751E+02 -0.56066252365E+02  0.11196536285E+02  0.74555777895E+02  0.00000000000E+00 0.  1.
          5    1    3    3  502    0  0.28047329365E+02 -0.31423062552E+02  0.31239179526E+01  0.42496004613E+02  0.47000000000E+01 0. -1.
         13    1    6    6    0    0  0.69806080971E+02  0.25604941967E+02  0.41146628986E+02  0.84979686223E+02  0.00000000000E+00 0. -1.
        -14    1    6    6    0    0  0.28322167698E+02  0.10075056160E+03  0.80650737341E+02  0.13212631184E+03  0.00000000000E+00 0.  1.
         -5    1    5    5    0  503  0.39428926199E+02 -0.30143824349E+02  0.95342283097E+02  0.10758964315E+03  0.47000000000E+01 0.  1.
<mgrwt>
<rscale>  2 0.24133787E+03</rscale>
<asrwt>0</asrwt>
<pdfrwt beam="1">  1       21 0.58117959E-01 0.24140761E+03</pdfrwt>
<pdfrwt beam="2">  1       21 0.29202800E-01 0.24140761E+03</pdfrwt>
<totfact> 0.30388676E+04</totfact>
</mgrwt>
</event>
<event>
12    1  0.2762290E-001  0.2019901E+03  0.7546771E-02  0.1148526E+00
         21   -1    0    0  504  503  0.00000000000E+00  0.00000000000E+00  0.28889714041E+03  0.28889714041E+03  0.00000000000E+00 0.  1.
         21   -1    0    0  502  504 -0.00000000000E+00 -0.00000000000E+00 -0.13995968929E+03  0.13995968929E+03  0.00000000000E+00 0.  1.
          6    2    1    2  502    0  0.91946329804E+02  0.38290040051E+02  0.83100507061E+02  0.21640796214E+03  0.17322371972E+03 0.  0.
         24    2    3    3    0    0  0.10821433129E+03  0.55578185821E+02  0.10916339179E+03  0.18084264453E+03  0.77383071403E+02 0.  0.
         -6    2    1    2    0  503 -0.91946329804E+02 -0.38290040051E+02  0.65836944066E+02  0.21244886756E+03  0.17572638787E+03 0.  0.
        -24    2    5    5    0    0 -0.58410503614E+02 -0.18440748700E+02  0.11262227077E+03  0.15137839351E+03  0.80497167668E+02 0.  0.
          2    1    4    4  501    0 -0.32346167783E+01  0.23233606113E+02  0.31622659599E+01  0.23669878004E+02  0.00000000000E+00 0. -1.
         -1    1    4    4    0  501  0.11144894806E+03  0.32344579708E+02  0.10600112583E+03  0.15717276653E+03  0.00000000000E+00 0.  1.
          5    1    3    3  502    0 -0.16268001481E+02 -0.17288145770E+02 -0.26062884728E+02  0.35565317610E+02  0.47000000000E+01 0. -1.
         11    1    6    6    0    0 -0.59685860549E+01  0.28472570226E+02  0.21116781759E+02  0.35947597230E+02  0.00000000000E+00 0. -1.
        -12    1    6    6    0    0 -0.52441917559E+02 -0.46913318926E+02  0.91505489015E+02  0.11543079628E+03  0.00000000000E+00 0.  1.
         -5    1    5    5    0  503 -0.33535826190E+02 -0.19849291351E+02 -0.46785326709E+02  0.61070474049E+02  0.47000000000E+01 0.  1.
<mgrwt>
<rscale>  2 0.20144458E+03</rscale>
<asrwt>0</asrwt>
<pdfrwt beam="1">  1       21 0.44445714E-01 0.20199014E+03</pdfrwt>
<pdfrwt beam="2">  1       21 0.21532260E-01 0.20199014E+03</pdfrwt>
<totfact> 0.97330210E+04</totfact>
</mgrwt>
</event>
<event>
12    1  0.2762290E-001  0.2104927E+03  0.7546771E-02  0.1141445E+00
         21   -1    0    0  504  503  0.00000000000E+00  0.00000000000E+00  0.95838603600E+03  0.95838603600E+03  0.00000000000E+00 0. -1.
         21   -1    0    0  502  504 -0.00000000000E+00 -0.00000000000E+00 -0.57515736033E+02  0.57515736033E+02  0.00000000000E+00 0. -1.
          6    2    1    2  502    0 -0.10637552348E+03 -0.54705312250E+02  0.22366027986E+03  0.30713368234E+03  0.17320148630E+03 0.  0.
         24    2    3    3    0    0 -0.12165403116E+03 -0.30149993719E+02  0.23290576550E+03  0.27640966128E+03  0.80302427295E+02 0.  0.
         -6    2    1    2    0  503  0.10637552348E+03  0.54705312250E+02  0.67721002011E+03  0.70876808969E+03  0.17155282115E+03 0.  0.
        -24    2    5    5    0    0  0.91491046396E+02  0.68069603780E+02  0.29753605326E+03  0.32853847085E+03  0.80035875113E+02 0.  0.
          2    1    4    4  501    0 -0.30608610572E+02  0.89959867633E+01  0.11634717330E+02  0.33958525680E+02  0.00000000000E+00 0. -1.
         -1    1    4    4    0  501 -0.91045420592E+02 -0.39145980482E+02  0.22127104817E+03  0.24245113560E+03  0.00000000000E+00 0.  1.
          5    1    3    3  502    0  0.15278507681E+02 -0.24555318531E+02 -0.92454856410E+01  0.30724021056E+02  0.47000000000E+01 0. -1.
         13    1    6    6    0    0  0.30323962442E+01 -0.16228576586E+02  0.46476762726E+02  0.49321918033E+02  0.00000000000E+00 0. -1.
        -14    1    6    6    0    0  0.88458650151E+02  0.84298180366E+02  0.25105929054E+03  0.27921655281E+03  0.00000000000E+00 0.  1.
         -5    1    5    5    0  503  0.14884477088E+02 -0.13364291529E+02  0.37967396685E+03  0.38022961885E+03  0.47000000000E+01 0.  1.
<mgrwt>
<rscale>  2 0.21015326E+03</rscale>
<asrwt>0</asrwt>
<pdfrwt beam="1">  1       21 0.14744399E+00 0.21049270E+03</pdfrwt>
<pdfrwt beam="2">  1       21 0.88485754E-02 0.21049270E+03</pdfrwt>
<totfact> 0.31126302E+04</totfact>
</mgrwt>
</event>
<event>
12    1  0.2762290E-001  0.1783758E+03  0.7546771E-02  0.1169976E+00
         21   -1    0    0  504  503  0.00000000000E+00  0.00000000000E+00  0.30945839876E+03  0.30945839876E+03  0.00000000000E+00 0. -1.
         21   -1    0    0  502  504 -0.00000000000E+00 -0.00000000000E+00 -0.10429499603E+03  0.10429499603E+03  0.00000000000E+00 0. -1.
          6    2    1    2  502    0 -0.15151856599E+02 -0.41261447805E+02  0.13614135596E+03  0.22248926009E+03  0.17039635037E+03 0.  0.
         24    2    3    3    0    0 -0.34556155040E+01 -0.49933986167E+02  0.11383847200E+02  0.96797013041E+02  0.82065373353E+02 0.  0.
         -6    2    1    2    0  503  0.15151856599E+02  0.41261447805E+02  0.69022046770E+02  0.19126413470E+03  0.17287521641E+03 0.  0.
        -24    2    5    5    0    0  0.43787927707E+02  0.43567107685E+02 -0.13897088319E+02  0.10338345650E+03  0.81728419352E+02 0.  0.
          4    1    4    4  501    0  0.40908006624E+01 -0.55346491550E+02  0.38888808868E+02  0.67766571642E+02  0.00000000000E+00 0. -1.
         -3    1    4    4    0  501 -0.75464161664E+01  0.54125053826E+01 -0.27504961668E+02  0.29030441399E+02  0.00000000000E+00 0.  1.
          5    1    3    3  502    0 -0.11696241095E+02  0.86725383621E+01  0.12475750876E+03  0.12569224705E+03  0.47000000000E+01 0. -1.
         13    1    6    6    0    0  0.15598168749E+02  0.61271811923E+02  0.77144022121E+01  0.63694974733E+02  0.00000000000E+00 0. -1.
        -14    1    6    6    0    0  0.28189758958E+02 -0.17704704239E+02 -0.21611490531E+02  0.39688481770E+02  0.00000000000E+00 0.  1.
         -5    1    5    5    0  503 -0.28636071108E+02 -0.23056598795E+01  0.82919135089E+02  0.87880678194E+02  0.47000000000E+01 0.  1.
<mgrwt>
<rscale>  2 0.17777240E+03</rscale>
<asrwt>0</asrwt>
<pdfrwt beam="1">  1       21 0.47608984E-01 0.17837580E+03</pdfrwt>
<pdfrwt beam="2">  1       21 0.16045384E-01 0.17837580E+03</pdfrwt>
<totfact> 0.14702787E+05</totfact>
</mgrwt>
</event>
<event>
12    1  0.2762290E-001  0.2510176E+03  0.7546771E-02  0.1112836E+00
         21   -1    0    0  504  503  0.00000000000E+00  0.00000000000E+00  0.32863874393E+03  0.32863874393E+03  0.00000000000E+00 0. -1.
         21   -1    0    0  502  504 -0.00000000000E+00 -0.00000000000E+00 -0.19119622701E+03  0.19119622701E+03  0.00000000000E+00 0.  1.
          6    2    1    2  502    0  0.84522982383E+02 -0.16071114885E+03  0.78885561006E+02  0.26207778184E+03  0.17172543225E+03 0.  0.
         24    2    3    3    0    0  0.66902778590E+02 -0.66149043013E+02 -0.21367345339E+02  0.12306267952E+03  0.76394907999E+02 0.  0.
         -6    2    1    2    0  503 -0.84522982383E+02  0.16071114885E+03  0.58556955916E+02  0.25775718910E+03  0.17331371420E+03 0.  0.
        -24    2    5    5    0    0  0.13903422004E+02  0.97964711432E+02  0.61775670137E+02  0.14089264097E+03  0.79019700252E+02 0.  0.
          2    1    4    4  501    0  0.16527943781E+02 -0.68341627185E+02 -0.17708764018E+02  0.72507594464E+02  0.00000000000E+00 0. -1.
         -1    1    4    4    0  501  0.50374834809E+02  0.21925841716E+01 -0.36585813203E+01  0.50555085052E+02  0.00000000000E+00 0.  1.
          5    1    3    3  502    0  0.17620203793E+02 -0.94562105840E+02  0.10025290634E+03  0.13901510232E+03  0.47000000000E+01 0. -1.
         13    1    6    6    0    0 -0.15841073483E+02  0.92881047512E+02  0.57588720921E+02  0.11042775635E+03  0.00000000000E+00 0. -1.
        -14    1    6    6    0    0  0.29744495487E+02  0.50836639203E+01  0.41869492155E+01  0.30464884611E+02  0.00000000000E+00 0.  1.
         -5    1    5    5    0  503 -0.98426404388E+02  0.62746437421E+02 -0.32187142206E+01  0.11686454814E+03  0.47000000000E+01 0.  1.
<mgrwt>
<rscale>  2 0.25074369E+03</rscale>
<asrwt>0</asrwt>
<pdfrwt beam="1">  1       21 0.50559807E-01 0.25101763E+03</pdfrwt>
<pdfrwt beam="2">  1       21 0.29414804E-01 0.25101763E+03</pdfrwt>
<totfact> 0.40112621E+04</totfact>
</mgrwt>
</event>
