<event>
12    1  0.2742799E-001  0.1753464E+03  0.7546771E-02  0.1172412E+00
         21   -1    0    0  502  503  0.00000000000E+00  0.00000000000E+00  0.93995386313E+03  0.93995386313E+03  0.00000000000E+00 0. -1.
         21   -1    0    0  503  504 -0.00000000000E+00 -0.00000000000E+00 -0.64760794823E+02  0.64760794823E+02  0.00000000000E+00 0. -1.
         -6    2    1    2    0  504 -0.25270749331E+02  0.18223062938E+02  0.84008568575E+02  0.19433247943E+03  0.17244414218E+03 0.  0.
        -24    2    3    3    0    0 -0.75414174517E+02 -0.20905194383E+02  0.57562557838E+02  0.12528999183E+03  0.79118955489E+02 0.  0.
          6    2    1    2  502    0  0.25270749331E+02 -0.18223062938E+02  0.79118449973E+03  0.81038217852E+03  0.17255628604E+03 0.  0.
         24    2    5    5    0    0  0.22730585408E+02 -0.35031202473E+02  0.19488760009E+03  0.21382451282E+03  0.77433074025E+02 0.  0.
          2    1    6    6  501    0  0.38669223432E+02  0.18438180001E+01  0.48671434155E+02  0.62190168100E+02  0.00000000000E+00 0. -1.
         -1    1    6    6    0  501 -0.15938638024E+02 -0.36875020473E+02  0.14621616594E+03  0.15163434472E+03  0.00000000000E+00 0.  1.
          5    1    5    5  502    0  0.25401639226E+01  0.16808139535E+02  0.59629689964E+03  0.59655766570E+03  0.47000000000E+01 0. -1.
         13    1    4    4    0    0 -0.42026130332E+02  0.76802449827E+01 -0.10754603712E+02  0.44055003060E+02  0.00000000000E+00 0. -1.
        -14    1    4    4    0    0 -0.33388044185E+02 -0.28585439366E+02  0.68317161550E+02  0.81234988770E+02  0.00000000000E+00 0.  1.
         -5    1    3    3    0  504  0.50143425186E+02  0.39128257321E+02  0.26446010737E+02  0.69042487602E+02  0.47000000000E+01 0.  1.
<mgrwt>
<rscale>  2 0.17531881E+03</rscale>
<asrwt>0</asrwt>
<pdfrwt beam="1">  1       21 0.14460828E+00 0.17534641E+03</pdfrwt>
<pdfrwt beam="2">  1       21 0.99631999E-02 0.17534641E+03</pdfrwt>
<totfact> 0.27167244E+04</totfact>
</mgrwt>
</event>
<event>
12    1  0.2742799E-001  0.2460142E+03  0.7546771E-02  0.1115921E+00
         21   -1    0    0  502  503  0.00000000000E+00  0.00000000000E+00  0.18343643887E+04  0.18343643887E+04  0.00000000000E+00 0. -1.
         21   -1    0    0  503  504 -0.00000000000E+00 -0.00000000000E+00 -0.38581481373E+02  0.38581481373E+02  0.00000000000E+00 0.  1.
         -6    2    1    2    0  504  0.66522376761E+01  0.17424803530E+03  0.54032017622E+03  0.59369089990E+03  0.17354066300E+03 0.  0.
        -24    2    3    3    0    0 -0.45057021258E+02  0.44953929204E+02  0.16876792015E+03  0.19687358384E+03  0.78902510901E+02 0.  0.
          6    2    1    2  502    0 -0.66522376761E+01 -0.17424803530E+03  0.12554627311E+04  0.12792549702E+04  0.17291610525E+03 0.  0.
         24    2    5    5    0    0 -0.65109332475E+02 -0.10266658767E+03  0.92318789521E+03  0.93433499084E+03  0.76982672372E+02 0.  0.
          4    1    6    6  501    0 -0.67561234014E+02 -0.10777355251E+03  0.91761185394E+03  0.92638608229E+03  0.00000000000E+00 0. -1.
         -3    1    6    6    0  501  0.24519015388E+01  0.51069648331E+01  0.55760412709E+01  0.79489085551E+01  0.00000000000E+00 0.  1.
          5    1    5    5  502    0  0.58457094799E+02 -0.71581447630E+02  0.33227483592E+03  0.34491997936E+03  0.47000000000E+01 0. -1.
         13    1    4    4    0    0 -0.57278325768E+02  0.29269058277E+02  0.16437173501E+03  0.17650935285E+03  0.00000000000E+00 0. -1.
        -14    1    4    4    0    0  0.12221304510E+02  0.15684870927E+02  0.43961851450E+01  0.20364230988E+02  0.00000000000E+00 0.  1.
         -5    1    3    3    0  504  0.51709258934E+02  0.12929410610E+03  0.37155225607E+03  0.39681731605E+03  0.47000000000E+01 0.  1.
<mgrwt>
<rscale>  2 0.24590409E+03</rscale>
<asrwt>0</asrwt>
<pdfrwt beam="1">  1       21 0.28220984E+00 0.24601421E+03</pdfrwt>
<pdfrwt beam="2">  1       21 0.59356140E-02 0.24601421E+03</pdfrwt>
<totfact> 0.82530590E+03</totfact>
</mgrwt>
</event>
<event>
12    1  0.2742799E-001  0.1912511E+03  0.7546771E-02  0.1158140E+00
         21   -1    0    0  502  503  0.00000000000E+00  0.00000000000E+00  0.22786542821E+03  0.22786542821E+03  0.00000000000E+00 0.  1.
         21   -1    0    0  503  504 -0.00000000000E+00 -0.00000000000E+00 -0.43547635134E+03  0.43547635134E+03  0.00000000000E+00 0.  1.
         -6    2    1    2    0  504  0.16968409501E+02 -0.71474847200E+02 -0.36911881117E+03  0.41572309829E+03  0.17657977512E+03 0.  0.
        -24    2    3    3    0    0  0.87421141701E+01 -0.11863624842E+03 -0.28489975621E+03  0.31873439317E+03  0.79200746881E+02 0.  0.
          6    2    1    2  502    0 -0.16968409501E+02  0.71474847200E+02  0.16150788804E+03  0.24761868127E+03  0.17272415207E+03 0.  0.
         24    2    5    5    0    0 -0.49694923531E+02  0.18434480827E+02  0.15908971014E+03  0.18507075748E+03  0.78308581225E+02 0.  0.
          4    1    6    6  501    0 -0.37537611577E+02 -0.15987278979E+02  0.29263578913E+02  0.50209784135E+02  0.00000000000E+00 0. -1.
         -3    1    6    6    0  501 -0.12157311954E+02  0.34421759806E+02  0.12982613123E+03  0.13486097335E+03  0.00000000000E+00 0.  1.
          5    1    5    5  502    0  0.32726514030E+02  0.53040366373E+02  0.24181778999E+01  0.62547923786E+02  0.47000000000E+01 0. -1.
         13    1    4    4    0    0 -0.30014269951E+02 -0.43882900567E+02 -0.15561917734E+03  0.16445027735E+03  0.00000000000E+00 0. -1.
        -14    1    4    4    0    0  0.38756384121E+02 -0.74753347851E+02 -0.12928057887E+03  0.15428411583E+03  0.00000000000E+00 0.  1.
         -5    1    3    3    0  504  0.82262953308E+01  0.47161401218E+02 -0.84219054968E+02  0.96988705112E+02  0.47000000000E+01 0.  1.
<mgrwt>
<rscale>  2 0.19035638E+03</rscale>
<asrwt>0</asrwt>
<pdfrwt beam="1">  1       21 0.35056220E-01 0.19125114E+03</pdfrwt>
<pdfrwt beam="2">  1       21 0.66996361E-01 0.19125114E+03</pdfrwt>
<totfact> 0.16019239E+04</totfact>
</mgrwt>
</event>
<event>
12    1  0.2742799E-001  0.2137413E+03  0.7546771E-02  0.1139074E+00
         21   -1    0    0  502  503  0.00000000000E+00  0.00000000000E+00  0.33365407887E+03  0.33365407887E+03  0.00000000000E+00 0.  1.
         21   -1    0    0  503  504 -0.00000000000E+00 -0.00000000000E+00 -0.31497621149E+03  0.31497621149E+03  0.00000000000E+00 0.  1.
         -6    2    1    2    0  504  0.11903083730E+03 -0.35469396593E+02 -0.23545798039E+03  0.31800284832E+03  0.17395094907E+03 0.  0.
        -24    2    3    3    0    0  0.11682670839E+03 -0.82272667717E+02 -0.15518444879E+03  0.22493655878E+03  0.78083101133E+02 0.  0.
          6    2    1    2  502    0 -0.11903083730E+03  0.35469396593E+02  0.25413584777E+03  0.33062744205E+03  0.17118135994E+03 0.  0.
         24    2    5    5    0    0 -0.13869076721E+03  0.34104927895E+01  0.24269008730E+03  0.29103727168E+03  0.80978112257E+02 0.  0.
          4    1    6    6  501    0 -0.42651223518E+02  0.30046825005E+02  0.13281341860E+03  0.14269317685E+03  0.00000000000E+00 0. -1.
         -3    1    6    6    0  501 -0.96039543690E+02 -0.26636332215E+02  0.10987666871E+03  0.14834409483E+03  0.00000000000E+00 0.  1.
          5    1    5    5  502    0  0.19659929904E+02  0.32058903803E+02  0.11445760471E+02  0.39590170367E+02  0.47000000000E+01 0. -1.
         11    1    4    4    0    0  0.60804378485E+02 -0.84235241610E+02 -0.12013534396E+03  0.15882458639E+03  0.00000000000E+00 0. -1.
        -12    1    4    4    0    0  0.56022329905E+02  0.19625738931E+01 -0.35049104825E+02  0.66111972389E+02  0.00000000000E+00 0.  1.
         -5    1    3    3    0  504  0.22041289153E+01  0.46803271124E+02 -0.80273531606E+02  0.93066289540E+02  0.47000000000E+01 0.  1.
<mgrwt>
<rscale>  2 0.21317712E+03</rscale>
<asrwt>0</asrwt>
<pdfrwt beam="1">  1       21 0.51331397E-01 0.21374132E+03</pdfrwt>
<pdfrwt beam="2">  1       21 0.48457879E-01 0.21374132E+03</pdfrwt>
<totfact> 0.14475757E+04</totfact>
</mgrwt>
</event>
<event>
12    1  0.2742799E-001  0.1796168E+03  0.7546771E-02  0.1168935E+00
         21   -1    0    0  502  503  0.00000000000E+00  0.00000000000E+00  0.29798540760E+03  0.29798540760E+03  0.00000000000E+00 0.  1.
         21   -1    0    0  503  504 -0.00000000000E+00 -0.00000000000E+00 -0.11468976602E+03  0.11468976602E+03  0.00000000000E+00 0.  1.
         -6    2    1    2    0  504  0.29857626397E+01  0.33781272473E+02  0.35443261589E+02  0.18003272640E+03  0.17322086662E+03 0.  0.
        -24    2    3    3    0    0  0.52600716891E+02 -0.27293420651E+01 -0.18479928042E+02  0.98029866450E+02  0.80585744708E+02 0.  0.
          6    2    1    2  502    0 -0.29857626397E+01 -0.33781272473E+02  0.14785237999E+03  0.23264244722E+03  0.17638620363E+03 0.  0.
         24    2    5    5    0    0  0.53569243056E+02 -0.37234862444E+01  0.13738833583E+03  0.16757690025E+03  0.79516882001E+02 0.  0.
          4    1    6    6  501    0 -0.52954664218E+01  0.18881700532E+02  0.79822778836E+02  0.82196329606E+02  0.00000000000E+00 0. -1.
         -3    1    6    6    0  501  0.58864709478E+02 -0.22605186776E+02  0.57565556994E+02  0.85380570642E+02  0.00000000000E+00 0.  1.
          5    1    5    5  502    0 -0.56555005696E+02 -0.30057786229E+02  0.10464044162E+02  0.65065546969E+02  0.47000000000E+01 0. -1.
         13    1    4    4    0    0  0.19913675356E+02 -0.39472318375E+02  0.31120057358E+01  0.44320457621E+02  0.00000000000E+00 0. -1.
        -14    1    4    4    0    0  0.32687041535E+02  0.36742976310E+02 -0.21591933778E+02  0.53709408829E+02  0.00000000000E+00 0.  1.
         -5    1    3    3    0  504 -0.49614954252E+02  0.36510614538E+02  0.53923189631E+02  0.82002859946E+02  0.47000000000E+01 0.  1.
<mgrwt>
<rscale>  2 0.17883482E+03</rscale>
<asrwt>0</asrwt>
<pdfrwt beam="1">  1       21 0.45843909E-01 0.17961676E+03</pdfrwt>
<pdfrwt beam="2">  1       21 0.17644580E-01 0.17961676E+03</pdfrwt>
<totfact> 0.13344892E+05</totfact>
</mgrwt>
</event>
<event>
12    1  0.2742799E-001  0.1967384E+03  0.7546771E-02  0.1152545E+00
         21   -1    0    0  502  503  0.00000000000E+00  0.00000000000E+00  0.90729645208E+02  0.90729645208E+02  0.00000000000E+00 0.  1.
         21   -1    0    0  503  504 -0.00000000000E+00 -0.00000000000E+00 -0.42737014512E+03  0.42737014512E+03  0.00000000000E+00 0. -1.
         -6    2    1    2    0  504 -0.89079175945E+02 -0.11776946913E+02 -0.15565918497E+03  0.25077928799E+03  0.17489046101E+03 0.  0.
        -24    2    3    3    0    0 -0.10509853299E+03  0.57596092408E+00 -0.46669618839E+02  0.13982871495E+03  0.79548619313E+02 0.  0.
          6    2    1    2  502    0  0.89079175945E+02  0.11776946913E+02 -0.18098131493E+03  0.26732050233E+03  0.17502062320E+03 0.  0.
         24    2    5    5    0    0  0.15792141073E+02 -0.11759233291E+02 -0.14517646174E+02  0.83861557943E+02  0.80214260347E+02 0.  0.
          2    1    6    6  501    0 -0.34951649158E+01 -0.42507061688E+02  0.44955748273E+01  0.42886788923E+02  0.00000000000E+00 0. -1.
         -1    1    6    6    0  501  0.19287305988E+02  0.30747828397E+02 -0.19013221001E+02  0.40974769020E+02  0.00000000000E+00 0.  1.
          5    1    5    5  502    0  0.73287034872E+02  0.23536180204E+02 -0.16646366876E+03  0.18345894439E+03  0.47000000000E+01 0. -1.
         11    1    4    4    0    0 -0.64201728852E+02  0.23204580541E+01  0.14847692873E+02  0.65937094999E+02  0.00000000000E+00 0. -1.
        -12    1    4    4    0    0 -0.40896804136E+02 -0.17444971301E+01 -0.61517311711E+02  0.73891619951E+02  0.00000000000E+00 0.  1.
         -5    1    3    3    0  504  0.16019357043E+02 -0.12352907837E+02 -0.10898956614E+03  0.11095057304E+03  0.47000000000E+01 0.  1.
<mgrwt>
<rscale>  2 0.19670949E+03</rscale>
<asrwt>0</asrwt>
<pdfrwt beam="1">  1       21 0.13958407E-01 0.19673844E+03</pdfrwt>
<pdfrwt beam="2">  1       21 0.65749253E-01 0.19673844E+03</pdfrwt>
<totfact> 0.94870617E+04</totfact>
</mgrwt>
</event>
<event>
12    1  0.2742799E-001  0.2357308E+03  0.7546771E-02  0.1123007E+00
         21   -1    0    0  502  503  0.00000000000E+00  0.00000000000E+00  0.36477231759E+03  0.36477231759E+03  0.00000000000E+00 0. -1.
         21   -1    0    0  503  504 -0.00000000000E+00 -0.00000000000E+00 -0.66810014469E+03  0.66810014469E+03  0.00000000000E+00 0.  1.
         -6    2    1    2    0  504  0.53598535564E+02  0.15183772044E+03 -0.60583112032E+03  0.64936596452E+03  0.16946183396E+03 0.  0.
        -24    2    3    3    0    0 -0.22735553364E+02  0.40870456284E+02 -0.32206478092E+03  0.33522260199E+03  0.80381404525E+02 0.  0.
          6    2    1    2  502    0 -0.53598535564E+02 -0.15183772044E+03  0.30250329322E+03  0.38350649776E+03  0.17216705565E+03 0.  0.
         24    2    5    5    0    0 -0.43154240658E+02 -0.72517840018E+02  0.69659598229E+02  0.13725661852E+03  0.82860087466E+02 0.  0.
          2    1    6    6  501    0  0.11154539136E+02 -0.59100144196E+02  0.49155209098E+02  0.77675513315E+02  0.00000000000E+00 0. -1.
         -1    1    6    6    0  501 -0.54308779794E+02 -0.13417695822E+02  0.20504389131E+02  0.59581105206E+02  0.00000000000E+00 0.  1.
          5    1    5    5  502    0 -0.10444294906E+02 -0.79319880417E+02  0.23284369499E+03  0.24624987924E+03  0.47000000000E+01 0. -1.
         13    1    4    4    0    0 -0.48845045792E+02  0.44026262420E+02 -0.25018620948E+03  0.25868376388E+03  0.00000000000E+00 0. -1.
        -14    1    4    4    0    0  0.26109492428E+02 -0.31558061359E+01 -0.71878571438E+02  0.76538838110E+02  0.00000000000E+00 0.  1.
         -5    1    3    3    0  504  0.76334088928E+02  0.11096726415E+03 -0.28376633940E+03  0.31414336253E+03  0.47000000000E+01 0.  1.
<mgrwt>
<rscale>  2 0.23523709E+03</rscale>
<asrwt>0</asrwt>
<pdfrwt beam="1">  1       21 0.56118819E-01 0.23573076E+03</pdfrwt>
<pdfrwt beam="2">  1       21 0.10278464E+00 0.23573076E+03</pdfrwt>
<totfact> 0.22170736E+03</totfact>
</mgrwt>
</event>
<event>
12    1  0.2742799E-001  0.1888321E+03  0.7546771E-02  0.1159634E+00
         21   -1    0    0  502  503  0.00000000000E+00  0.00000000000E+00  0.75029708013E+03  0.75029708013E+03  0.00000000000E+00 0. -1.
         21   -1    0    0  503  504 -0.00000000000E+00 -0.00000000000E+00 -0.88584808447E+02  0.88584808447E+02  0.00000000000E+00 0.  1.
         -6    2    1    2    0  504  0.57704329944E+02  0.48610741723E+02  0.44614741294E+02  0.19353940813E+03  0.17255211808E+03 0.  0.
        -24    2    3    3    0    0 -0.11148766216E+01  0.83848261090E+02  0.46629635143E+02  0.12478236028E+03  0.79778071704E+02 0.  0.
          6    2    1    2  502    0 -0.57704329944E+02 -0.48610741723E+02  0.61709753039E+03  0.64534248045E+03  0.17310332508E+03 0.  0.
         24    2    5    5    0    0 -0.72180676159E+02 -0.78735333097E+02  0.32685051821E+03  0.35313968497E+03  0.80418114624E+02 0.  0.
          4    1    6    6  501    0 -0.39799412055E+02 -0.36162807560E+02  0.26911641850E+03  0.27443649276E+03  0.00000000000E+00 0. -1.
         -3    1    6    6    0  501 -0.32381264105E+02 -0.42572525537E+02  0.57734099711E+02  0.78703192216E+02  0.00000000000E+00 0.  1.
          5    1    5    5  502    0  0.14476346215E+02  0.30124591374E+02  0.29024701218E+03  0.29220279548E+03  0.47000000000E+01 0. -1.
         11    1    4    4    0    0  0.35763278588E+02  0.53231107317E+02  0.41931803042E+02  0.76621400326E+02  0.00000000000E+00 0. -1.
        -12    1    4    4    0    0 -0.36878155210E+02  0.30617153773E+02  0.46978321003E+01  0.48160959950E+02  0.00000000000E+00 0.  1.
         -5    1    3    3    0  504  0.58819206565E+02 -0.35237519367E+02 -0.20148938485E+01  0.68757047852E+02  0.47000000000E+01 0.  1.
<mgrwt>
<rscale>  2 0.18870566E+03</rscale>
<asrwt>0</asrwt>
<pdfrwt beam="1">  1       21 0.11543032E+00 0.18883208E+03</pdfrwt>
<pdfrwt beam="2">  1       21 0.13628433E-01 0.18883208E+03</pdfrwt>
<totfact> 0.27180523E+04</totfact>
</mgrwt>
</event>
<event>
12    1  0.2742799E-001  0.1912525E+03  0.7546771E-02  0.1157508E+00
         21   -1    0    0  502  503  0.00000000000E+00  0.00000000000E+00  0.11251355293E+03  0.11251355293E+03  0.00000000000E+00 0. -1.
         21   -1    0    0  503  504 -0.00000000000E+00 -0.00000000000E+00 -0.10247337909E+04  0.10247337909E+04  0.00000000000E+00 0. -1.
         -6    2    1    2    0  504 -0.65927752937E+02 -0.46283057002E+02 -0.92668217276E+03  0.94621211560E+03  0.17346160505E+03 0.  0.
        -24    2    3    3    0    0 -0.12934410508E+01  0.21292976769E+02 -0.26824207046E+03  0.28114852997E+03  0.81459337659E+02 0.  0.
          6    2    1    2  502    0  0.65927752937E+02  0.46283057002E+02  0.14461934765E+02  0.19103522825E+03  0.17261726710E+03 0.  0.
         24    2    5    5    0    0  0.49170112474E+02 -0.22309200513E+02 -0.36028759393E+02  0.10410355104E+03  0.81388435592E+02 0.  0.
          2    1    6    6  501    0  0.51422279527E+02 -0.30056103592E+02 -0.56502000281E+02  0.82098089081E+02  0.00000000000E+00 0. -1.
         -1    1    6    6    0  501 -0.22521670531E+01  0.77469030787E+01  0.20473240888E+02  0.22005461963E+02  0.00000000000E+00 0.  1.
          5    1    5    5  502    0  0.16757640463E+02  0.68592257515E+02  0.50490694158E+02  0.86931677204E+02  0.47000000000E+01 0. -1.
         11    1    4    4    0    0 -0.10421349808E+01 -0.11879738966E+02 -0.23086644351E+03  0.23117423945E+03  0.00000000000E+00 0. -1.
        -12    1    4    4    0    0 -0.25130606999E+00  0.33172715735E+02 -0.37375626947E+02  0.49974290527E+02  0.00000000000E+00 0.  1.
         -5    1    3    3    0  504 -0.64634311886E+02 -0.67576033771E+02 -0.65844010230E+03  0.66506358563E+03  0.47000000000E+01 0.  1.
<mgrwt>
<rscale>  2 0.19106085E+03</rscale>
<asrwt>0</asrwt>
<pdfrwt beam="1">  1       21 0.17309778E-01 0.19125250E+03</pdfrwt>
<pdfrwt beam="2">  1       21 0.15765135E+00 0.19125250E+03</pdfrwt>
<totfact> 0.79127420E+03</totfact>
</mgrwt>
</event>
<event>
12    1  0.2742799E-001  0.2445506E+03  0.7546771E-02  0.1117298E+00
         21   -1    0    0  502  503  0.00000000000E+00  0.00000000000E+00  0.18601807105E+03  0.18601807105E+03  0.00000000000E+00 0.  1.
         21   -1    0    0  503  504 -0.00000000000E+00 -0.00000000000E+00 -0.43429940159E+03  0.43429940159E+03  0.00000000000E+00 0. -1.
         -6    2    1    2    0  504 -0.68761531638E+02 -0.15494859519E+03 -0.28555968903E+03  0.37596450399E+03  0.17626048020E+03 0.  0.
        -24    2    3    3    0    0 -0.70044861307E+02 -0.10635987400E+03 -0.28986560640E+03  0.32694265492E+03  0.81551973861E+02 0.  0.
          6    2    1    2  502    0  0.68761531638E+02  0.15494859519E+03  0.37278358499E+02  0.24435296865E+03  0.17199267976E+03 0.  0.
         24    2    5    5    0    0  0.61173263495E+02  0.16331054746E+03  0.74010810184E+02  0.20563776406E+03  0.79979915647E+02 0.  0.
          4    1    6    6  501    0  0.59938621242E+02  0.14276443643E+03  0.30934433197E+02  0.15789636406E+03  0.00000000000E+00 0. -1.
         -3    1    6    6    0  501  0.12346422535E+01  0.20546111024E+02  0.43076376988E+02  0.47741400001E+02  0.00000000000E+00 0.  1.
          5    1    5    5  502    0  0.75882681425E+01 -0.83619522693E+01 -0.36732451686E+02  0.38715204584E+02  0.47000000000E+01 0. -1.
         11    1    4    4    0    0 -0.39376239284E+02 -0.12305014342E+01 -0.53494976405E+02  0.66435794979E+02  0.00000000000E+00 0. -1.
        -12    1    4    4    0    0 -0.30668622024E+02 -0.10512937256E+03 -0.23637063000E+03  0.26050685994E+03  0.00000000000E+00 0.  1.
         -5    1    3    3    0  504  0.12833296696E+01 -0.48588721192E+02  0.43059173686E+01  0.49021849073E+02  0.47000000000E+01 0.  1.
<mgrwt>
<rscale>  2 0.24378246E+03</rscale>
<asrwt>0</asrwt>
<pdfrwt beam="1">  1       21 0.28618165E-01 0.24455055E+03</pdfrwt>
<pdfrwt beam="2">  1       21 0.66815292E-01 0.24455055E+03</pdfrwt>
<totfact> 0.23310302E+04</totfact>
</mgrwt>
</event>
<event>
12    1  0.2742799E-001  0.2400627E+03  0.7546771E-02  0.1119978E+00
         21   -1    0    0  502  503  0.00000000000E+00  0.00000000000E+00  0.37730621903E+03  0.37730621903E+03  0.00000000000E+00 0. -1.
         21   -1    0    0  503  504 -0.00000000000E+00 -0.00000000000E+00 -0.15338623901E+03  0.15338623901E+03  0.00000000000E+00 0. -1.
         -6    2    1    2    0  504 -0.11672168301E+03  0.12001494278E+03  0.13858687083E+03  0.27719384760E+03  0.17205397585E+03 0.  0.
        -24    2    3    3    0    0 -0.11543240176E+03  0.81697521309E+02  0.34221270660E+02  0.16590972684E+03  0.79723382580E+02 0.  0.
          6    2    1    2  502    0  0.11672168301E+03 -0.12001494278E+03  0.85333109184E+02  0.25349861044E+03  0.17015366055E+03 0.  0.
         24    2    5    5    0    0  0.41676427178E+02 -0.28252426792E+01  0.67670501060E+02  0.11314450840E+03  0.80482771382E+02 0.  0.
          2    1    6    6  501    0  0.14726018766E+02  0.28911907609E+01  0.81113238340E+02  0.82489829959E+02  0.00000000000E+00 0. -1.
         -1    1    6    6    0  501  0.26950408412E+02 -0.57164334401E+01 -0.13442737280E+02  0.30654678443E+02  0.00000000000E+00 0.  1.
          5    1    5    5  502    0  0.75045255834E+02 -0.11718970011E+03  0.17662608124E+02  0.14035410204E+03  0.47000000000E+01 0. -1.
         11    1    4    4    0    0 -0.10114341117E+03  0.31607248108E+02  0.47758258791E+01  0.10607457881E+03  0.00000000000E+00 0. -1.
        -12    1    4    4    0    0 -0.14288990586E+02  0.50090273201E+02  0.29445444781E+02  0.59835148029E+02  0.00000000000E+00 0.  1.
         -5    1    3    3    0  504 -0.12892812533E+01  0.38317421476E+02  0.10436560017E+03  0.11128412076E+03  0.47000000000E+01 0.  1.
<mgrwt>
<rscale>  2 0.23972242E+03</rscale>
<asrwt>0</asrwt>
<pdfrwt beam="1">  1       21 0.58047110E-01 0.24006272E+03</pdfrwt>
<pdfrwt beam="2">  1       21 0.23597883E-01 0.24006272E+03</pdfrwt>
<totfact> 0.45996262E+04</totfact>
</mgrwt>
</event>
<event>
12    1  0.2742799E-001  0.2232141E+03  0.7546771E-02  0.1131595E+00
         21   -1    0    0  502  503  0.00000000000E+00  0.00000000000E+00  0.79090078713E+02  0.79090078713E+02  0.00000000000E+00 0.  1.
         21   -1    0    0  503  504 -0.00000000000E+00 -0.00000000000E+00 -0.94831558165E+03  0.94831558165E+03  0.00000000000E+00 0.  1.
         -6    2    1    2    0  504  0.94331605753E+02 -0.10448984188E+03 -0.73256044793E+03  0.76567703931E+03  0.17262659048E+03 0.  0.
        -24    2    3    3    0    0  0.48481267707E+02  0.48664805567E+01 -0.20925488995E+03  0.22908421810E+03  0.79484929776E+02 0.  0.
          6    2    1    2  502    0 -0.94331605753E+02  0.10448984188E+03 -0.13666505500E+03  0.26172862106E+03  0.17322804312E+03 0.  0.
         24    2    5    5    0    0 -0.20754522440E+01  0.17905772561E+02 -0.10523549591E+03  0.13127592425E+03  0.76380197008E+02 0.  0.
          2    1    6    6  501    0  0.27934251156E+02  0.31580000250E+01 -0.90444844390E+02  0.94713067887E+02  0.00000000000E+00 0. -1.
         -1    1    6    6    0  501 -0.30009703400E+02  0.14747772536E+02 -0.14790651517E+02  0.36562856360E+02  0.00000000000E+00 0.  1.
          5    1    5    5  502    0 -0.92256153509E+02  0.86584069319E+02 -0.31429559097E+02  0.13045269681E+03  0.47000000000E+01 0. -1.
         13    1    4    4    0    0  0.37665507757E+02 -0.21629620198E+02 -0.45712999988E+02  0.63057190807E+02  0.00000000000E+00 0. -1.
        -14    1    4    4    0    0  0.10815759950E+02  0.26496100754E+02 -0.16354188996E+03  0.16602702729E+03  0.00000000000E+00 0.  1.
         -5    1    3    3    0  504  0.45850338046E+02 -0.10935632244E+03 -0.52330555798E+03  0.53659282121E+03  0.47000000000E+01 0.  1.
<mgrwt>
<rscale>  2 0.22309740E+03</rscale>
<asrwt>0</asrwt>
<pdfrwt beam="1">  1       21 0.12167705E-01 0.22321410E+03</pdfrwt>
<pdfrwt beam="2">  1       21 0.14589470E+00 0.22321410E+03</pdfrwt>
<totfact> 0.18036594E+04</totfact>
</mgrwt>
</event>
<event>
12    1  0.2742799E-001  0.2741550E+03  0.7546771E-02  0.1099131E+00
         21   -1    0    0  502  503  0.00000000000E+00  0.00000000000E+00  0.64451404084E+02  0.64451404084E+02  0.00000000000E+00 0. -1.
         21   -1    0    0  503  504 -0.00000000000E+00 -0.00000000000E+00 -0.14334673302E+04  0.14334673302E+04  0.00000000000E+00 0.  1.
         -6    2    1    2    0  504  0.11999973474E+03 -0.17523447004E+03 -0.10131440923E+04  0.10495817857E+04  0.17336065666E+03 0.  0.
        -24    2    3    3    0    0 -0.57042409201E+00 -0.39074136665E+02 -0.28549203990E+03  0.29953085480E+03  0.81767442105E+02 0.  0.
          6    2    1    2  502    0 -0.11999973474E+03  0.17523447004E+03 -0.35587183380E+03  0.44833694857E+03  0.17103859662E+03 0.  0.
         24    2    5    5    0    0 -0.83238053696E+02  0.14988267531E+03 -0.35624357220E+03  0.40343301914E+03  0.80345057457E+02 0.  0.
          2    1    6    6  501    0 -0.60652544528E+02  0.71950508725E+02 -0.11321998946E+03  0.14722218881E+03  0.00000000000E+00 0. -1.
         -1    1    6    6    0  501 -0.22585509168E+02  0.77932166584E+02 -0.24302358274E+03  0.25621083033E+03  0.00000000000E+00 0.  1.
          5    1    5    5  502    0 -0.36761681046E+02  0.25351794729E+02  0.37173839416E+00  0.44903929436E+02  0.47000000000E+01 0. -1.
         11    1    4    4    0    0 -0.20366970500E+02 -0.27927408686E+02 -0.39484425038E+02  0.52476408641E+02  0.00000000000E+00 0. -1.
        -12    1    4    4    0    0  0.19796546408E+02 -0.11146727979E+02 -0.24600761487E+03  0.24705444616E+03  0.00000000000E+00 0.  1.
         -5    1    3    3    0  504  0.12057015883E+03 -0.13616033337E+03 -0.72765205240E+03  0.75005093090E+03  0.47000000000E+01 0.  1.
<mgrwt>
<rscale>  2 0.27378868E+03</rscale>
<asrwt>0</asrwt>
<pdfrwt beam="1">  1       21 0.99156005E-02 0.27415502E+03</pdfrwt>
<pdfrwt beam="2">  1       21 0.22053344E+00 0.27415502E+03</pdfrwt>
<totfact> 0.77176325E+03</totfact>
</mgrwt>
</event>
<event>
12    1  0.2742799E-001  0.1795988E+03  0.7546771E-02  0.1168360E+00
         21   -1    0    0  502  503  0.00000000000E+00  0.00000000000E+00  0.15745609602E+03  0.15745609602E+03  0.00000000000E+00 0. -1.
         21   -1    0    0  503  504 -0.00000000000E+00 -0.00000000000E+00 -0.20664219700E+03  0.20664219700E+03  0.00000000000E+00 0. -1.
         -6    2    1    2    0  504  0.46332117224E+02 -0.24784826388E+01 -0.44862883778E+02  0.18444746410E+03  0.17278709648E+03 0.  0.
        -24    2    3    3    0    0  0.50923077549E+01 -0.16840601369E+02 -0.89751610022E+02  0.12164555264E+03  0.80204435801E+02 0.  0.
          6    2    1    2  502    0 -0.46332117224E+02  0.24784826388E+01 -0.43232172036E+01  0.17965082892E+03  0.17350193706E+03 0.  0.
         24    2    5    5    0    0 -0.86086747841E+02 -0.26479384968E+02  0.23503346198E+02  0.12294636365E+03  0.80320078866E+02 0.  0.
          4    1    6    6  501    0 -0.85414129329E+02 -0.15478427049E+02  0.45746871025E+02  0.98122023019E+02  0.00000000000E+00 0. -1.
         -3    1    6    6    0  501 -0.67261851245E+00 -0.11000957920E+02 -0.22243524827E+02  0.24824340626E+02  0.00000000000E+00 0.  1.
          5    1    5    5  502    0  0.39754630618E+02  0.28957867607E+02 -0.27826563401E+02  0.56704465279E+02  0.47000000000E+01 0. -1.
         13    1    4    4    0    0  0.33162413430E+02  0.17588212902E+02 -0.44807188258E+02  0.58453186544E+02  0.00000000000E+00 0. -1.
        -14    1    4    4    0    0 -0.28070105675E+02 -0.34428814271E+02 -0.44944421765E+02  0.63192366093E+02  0.00000000000E+00 0.  1.
         -5    1    3    3    0  504  0.41239809469E+02  0.14362118730E+02  0.44888726244E+02  0.62801911462E+02  0.47000000000E+01 0.  1.
<mgrwt>
<rscale>  2 0.17942593E+03</rscale>
<asrwt>0</asrwt>
<pdfrwt beam="1">  1       21 0.24224015E-01 0.17959880E+03</pdfrwt>
<pdfrwt beam="2">  1       21 0.31791107E-01 0.17959880E+03</pdfrwt>
<totfact> 0.15366523E+05</totfact>
</mgrwt>
</event>
<event>
12    1  0.2742799E-001  0.2238302E+03  0.7546771E-02  0.1133346E+00
         21   -1    0    0  502  503  0.00000000000E+00  0.00000000000E+00  0.58250217431E+02  0.58250217431E+02  0.00000000000E+00 0.  1.
         21   -1    0    0  503  504 -0.00000000000E+00 -0.00000000000E+00 -0.18381302012E+04  0.18381302012E+04  0.00000000000E+00 0. -1.
         -6    2    1    2    0  504  0.13511748172E+03 -0.36380830846E+02 -0.16086192985E+04  0.16241169877E+04  0.17469872230E+03 0.  0.
        -24    2    3    3    0    0  0.69588467365E+02 -0.81951642707E+02 -0.12215054604E+04  0.12288323254E+04  0.79966665730E+02 0.  0.
          6    2    1    2  502    0 -0.13511748172E+03  0.36380830846E+02 -0.17126068528E+03  0.27226343092E+03  0.15879815734E+03 0.  0.
         24    2    5    5    0    0 -0.15280243926E+03  0.17892723587E+02 -0.17451569436E+03  0.24604792182E+03  0.80094427110E+02 0.  0.
          2    1    6    6  501    0 -0.14036789443E+03  0.38696243054E+02 -0.12921672118E+03  0.19467281794E+03  0.00000000000E+00 0. -1.
         -1    1    6    6    0  501 -0.12434544830E+02 -0.20803519467E+02 -0.45298973189E+02  0.51375103886E+02  0.00000000000E+00 0.  1.
          5    1    5    5  502    0  0.17684957535E+02  0.18488107259E+02  0.32550090842E+01  0.26215509096E+02  0.47000000000E+01 0. -1.
         11    1    4    4    0    0  0.74100948462E+02 -0.32862094544E+02 -0.61357080772E+03  0.61890225716E+03  0.00000000000E+00 0. -1.
        -12    1    4    4    0    0 -0.45124810966E+01 -0.49089548162E+02 -0.60793465272E+03  0.60993006828E+03  0.00000000000E+00 0.  1.
         -5    1    3    3    0  504  0.65529014359E+02  0.45570811861E+02 -0.38711383802E+03  0.39528466224E+03  0.47000000000E+01 0.  1.
<mgrwt>
<rscale>  2 0.22072182E+03</rscale>
<asrwt>0</asrwt>
<pdfrwt beam="1">  1       21 0.89615724E-02 0.22383016E+03</pdfrwt>
<pdfrwt beam="2">  1       21 0.28278925E+00 0.22383016E+03</pdfrwt>
<totfact> 0.40817474E+03</totfact>
</mgrwt>
</event>
<event>
12    1  0.2742799E-001  0.1731626E+03  0.7546771E-02  0.1175341E+00
         21   -1    0    0  502  503  0.00000000000E+00  0.00000000000E+00  0.14033569252E+04  0.14033569252E+04  0.00000000000E+00 0.  1.
         21   -1    0    0  503  504 -0.00000000000E+00 -0.00000000000E+00 -0.21745384121E+02  0.21745384121E+02  0.00000000000E+00 0.  1.
         -6    2    1    2    0  504 -0.89061118878E+01 -0.17606589272E+01  0.82777190935E+03  0.84569003346E+03  0.17292449231E+03 0.  0.
        -24    2    3    3    0    0  0.35120506917E+02  0.71972664606E+01  0.75460587118E+03  0.75970197189E+03  0.80198594959E+02 0.  0.
          6    2    1    2  502    0  0.89061118878E+01  0.17606589272E+01  0.55383963169E+03  0.57941227581E+03  0.16999361455E+03 0.  0.
         24    2    5    5    0    0 -0.93279881335E+01  0.55078414320E+02  0.45228905529E+03  0.46318028791E+03  0.82764403545E+02 0.  0.
          4    1    6    6  501    0  0.31007508313E+02  0.49153807338E+02  0.29672999010E+03  0.30236773865E+03  0.00000000000E+00 0. -1.
         -3    1    6    6    0  501 -0.40335496446E+02  0.59246069820E+01  0.15555906518E+03  0.16081254927E+03  0.00000000000E+00 0.  1.
          5    1    5    5  502    0  0.18234100021E+02 -0.53317755393E+02  0.10155057640E+03  0.11623198790E+03  0.47000000000E+01 0. -1.
         11    1    4    4    0    0  0.27967896683E+02 -0.30781655998E+02  0.23428452853E+03  0.23794737633E+03  0.00000000000E+00 0. -1.
        -12    1    4    4    0    0  0.71526102339E+01  0.37978922458E+02  0.52032134265E+03  0.52175459557E+03  0.00000000000E+00 0.  1.
         -5    1    3    3    0  504 -0.44026618805E+02 -0.89579253878E+01  0.73166038171E+02  0.85988061568E+02  0.47000000000E+01 0.  1.
<mgrwt>
<rscale>  2 0.17242626E+03</rscale>
<asrwt>0</asrwt>
<pdfrwt beam="1">  1       21 0.21590099E+00 0.17316264E+03</pdfrwt>
<pdfrwt beam="2">  1       21 0.33454448E-02 0.17316264E+03</pdfrwt>
<totfact> 0.57068277E+04</totfact>
</mgrwt>
</event>
<event>
12    1  0.2742799E-001  0.2035210E+03  0.7546771E-02  0.1147783E+00
         21   -1    0    0  502  503  0.00000000000E+00  0.00000000000E+00  0.78202894856E+03  0.78202894856E+03  0.00000000000E+00 0. -1.
         21   -1    0    0  503  504 -0.00000000000E+00 -0.00000000000E+00 -0.75635818166E+02  0.75635818166E+02  0.00000000000E+00 0. -1.
         -6    2    1    2    0  504  0.89271069225E+02 -0.28483407639E+02  0.11504244610E+03  0.23378530650E+03  0.18066592600E+03 0.  0.
        -24    2    3    3    0    0  0.90713459798E+02  0.34007374482E+02  0.11618739859E+03  0.17109097456E+03  0.79919814045E+02 0.  0.
          6    2    1    2  502    0 -0.89271069225E+02  0.28483407639E+02  0.59135068430E+03  0.62387946023E+03  0.17535484243E+03 0.  0.
         24    2    5    5    0    0 -0.48249643750E+02 -0.88787794613E+01  0.13984769709E+03  0.16895558986E+03  0.81127998352E+02 0.  0.
          4    1    6    6  501    0 -0.59830050203E+02 -0.24548117885E+02  0.65300935746E+02  0.91904609288E+02  0.00000000000E+00 0. -1.
         -3    1    6    6    0  501  0.11580406453E+02  0.15669338424E+02  0.74546761340E+02  0.77050980568E+02  0.00000000000E+00 0.  1.
          5    1    5    5  502    0 -0.41021425474E+02  0.37362187100E+02  0.45150298721E+03  0.45492387037E+03  0.47000000000E+01 0. -1.
         13    1    4    4    0    0  0.73869681022E+01 -0.23306525612E+02  0.21995226094E+02  0.32886948852E+02  0.00000000000E+00 0. -1.
        -14    1    4    4    0    0  0.83326491696E+02  0.57313900094E+02  0.94192172497E+02  0.13820402571E+03  0.00000000000E+00 0.  1.
         -5    1    3    3    0  504 -0.14423905737E+01 -0.62490782121E+02 -0.11449524959E+01  0.62694331936E+02  0.47000000000E+01 0.  1.
<mgrwt>
<rscale>  2 0.20233580E+03</rscale>
<asrwt>0</asrwt>
<pdfrwt beam="1">  1       21 0.12031214E+00 0.20352102E+03</pdfrwt>
<pdfrwt beam="2">  1       21 0.11636280E-01 0.20352102E+03</pdfrwt>
<totfact> 0.32326770E+04</totfact>
</mgrwt>
</event>
<event>
12    1  0.2742799E-001  0.2161953E+03  0.7546771E-02  0.1136791E+00
         21   -1    0    0  502  503  0.00000000000E+00  0.00000000000E+00  0.14223156219E+03  0.14223156219E+03  0.00000000000E+00 0. -1.
         21   -1    0    0  503  504 -0.00000000000E+00 -0.00000000000E+00 -0.36984795666E+03  0.36984795666E+03  0.00000000000E+00 0. -1.
         -6    2    1    2    0  504  0.11965218043E+03 -0.48711398686E+02 -0.19956832825E+03  0.29407242123E+03  0.17309427097E+03 0.  0.
        -24    2    3    3    0    0  0.22564392861E+02 -0.55103282642E+02 -0.37734697969E+02  0.10518327764E+03  0.78064658334E+02 0.  0.
          6    2    1    2  502    0 -0.11965218043E+03  0.48711398686E+02 -0.28048066224E+02  0.21800709763E+03  0.17335211551E+03 0.  0.
         24    2    5    5    0    0  0.26521559843E+01  0.13896135776E+02  0.10293005926E+02  0.85106454098E+02  0.83288810997E+02 0.  0.
          2    1    6    6  501    0 -0.92044282347E+01  0.44194569407E+02 -0.10689981660E+02  0.46391348030E+02  0.00000000000E+00 0. -1.
         -1    1    6    6    0  501  0.11856584219E+02 -0.30298433631E+02  0.20982987585E+02  0.38715106067E+02  0.00000000000E+00 0.  1.
          5    1    5    5  502    0 -0.12230433641E+03  0.34815262910E+02 -0.38341072150E+02  0.13290064353E+03  0.47000000000E+01 0. -1.
         13    1    4    4    0    0  0.20707400945E+02 -0.69176881541E+02 -0.48826657397E+02  0.87168112669E+02  0.00000000000E+00 0. -1.
        -14    1    4    4    0    0  0.18569919165E+01  0.14073598899E+02  0.11091959428E+02  0.18015164970E+02  0.00000000000E+00 0.  1.
         -5    1    3    3    0  504  0.97087787567E+02  0.63918839563E+01 -0.16183363028E+03  0.18888914359E+03  0.47000000000E+01 0.  1.
<mgrwt>
<rscale>  2 0.21614359E+03</rscale>
<asrwt>0</asrwt>
<pdfrwt beam="1">  1       21 0.21881779E-01 0.21619528E+03</pdfrwt>
<pdfrwt beam="2">  1       21 0.56899685E-01 0.21619528E+03</pdfrwt>
<totfact> 0.55978855E+04</totfact>
</mgrwt>
</event>
<event>
12    1  0.2742799E-001  0.2251134E+03  0.7546771E-02  0.1130141E+00
         21   -1    0    0  502  503  0.00000000000E+00  0.00000000000E+00  0.66567204894E+02  0.66567204894E+02  0.00000000000E+00 0. -1.
         21   -1    0    0  503  504 -0.00000000000E+00 -0.00000000000E+00 -0.76416859651E+03  0.76416859651E+03  0.00000000000E+00 0.  1.
         -6    2    1    2    0  504  0.69883464681E+02 -0.12593063932E+03 -0.32221662788E+03  0.39306439220E+03  0.17301397799E+03 0.  0.
        -24    2    3    3    0    0  0.83578086233E+02 -0.83395626639E+02 -0.12264508608E+03  0.18849738543E+03  0.80927869940E+02 0.  0.
          6    2    1    2  502    0 -0.69883464681E+02  0.12593063932E+03 -0.37538476374E+03  0.43767140921E+03  0.17291708138E+03 0.  0.
         24    2    5    5    0    0 -0.52819090211E+01  0.29277930956E+02 -0.25966158554E+03  0.27357067490E+03  0.80818805698E+02 0.  0.
          4    1    6    6  501    0 -0.16263244230E+02 -0.20729249699E+02 -0.39127987571E+02  0.47171965375E+02  0.00000000000E+00 0. -1.
         -3    1    6    6    0  501  0.10981335209E+02  0.50007180655E+02 -0.22053359797E+03  0.22639870952E+03  0.00000000000E+00 0.  1.
          5    1    5    5  502    0 -0.64601555659E+02  0.96652708366E+02 -0.11572317820E+03  0.16410073431E+03  0.47000000000E+01 0. -1.
         13    1    4    4    0    0  0.26885227804E+01 -0.58359718889E+02 -0.47772066584E+02  0.75466915197E+02  0.00000000000E+00 0. -1.
        -14    1    4    4    0    0  0.80889563453E+02 -0.25035907749E+02 -0.74873019491E+02  0.11303047023E+03  0.00000000000E+00 0.  1.
         -5    1    3    3    0  504 -0.13694621552E+02 -0.42535012684E+02 -0.19957154180E+03  0.20456700677E+03  0.47000000000E+01 0.  1.
<mgrwt>
<rscale>  2 0.22509482E+03</rscale>
<asrwt>0</asrwt>
<pdfrwt beam="1">  1       21 0.10241108E-01 0.22511344E+03</pdfrwt>
<pdfrwt beam="2">  1       21 0.11756440E+00 0.22511344E+03</pdfrwt>
<totfact> 0.42485248E+04</totfact>
</mgrwt>
</event>
<event>
12    1  0.2742799E-001  0.1759831E+03  0.7546771E-02  0.1172359E+00
         21   -1    0    0  502  503  0.00000000000E+00  0.00000000000E+00  0.19403998510E+02  0.19403998510E+02  0.00000000000E+00 0.  1.
         21   -1    0    0  503  504 -0.00000000000E+00 -0.00000000000E+00 -0.23123848631E+04  0.23123848631E+04  0.00000000000E+00 0.  1.
         -6    2    1    2    0  504 -0.28152236224E+02  0.12988179947E+02 -0.17998412789E+04  0.18081891020E+04  0.17075701486E+03 0.  0.
        -24    2    3    3    0    0 -0.42662014455E+02  0.48156714224E+02 -0.68118365820E+03  0.68887488257E+03  0.79989443248E+02 0.  0.
          6    2    1    2  502    0  0.28152236224E+02 -0.12988179947E+02 -0.49313958566E+03  0.52359975958E+03  0.17323052868E+03 0.  0.
         24    2    5    5    0    0 -0.11763330061E+02  0.65277482122E+01 -0.45953982320E+03  0.46769664767E+03  0.85920414957E+02 0.  0.
          2    1    6    6  501    0 -0.34923284340E+02  0.15848081711E+02 -0.41391775324E+03  0.41569063488E+03  0.00000000000E+00 0. -1.
         -1    1    6    6    0  501  0.23159954279E+02 -0.93203334993E+01 -0.45622069962E+02  0.52006012790E+02  0.00000000000E+00 0.  1.
          5    1    5    5  502    0  0.39915566286E+02 -0.19515928159E+02 -0.33599762458E+02  0.55903111909E+02  0.47000000000E+01 0. -1.
         11    1    4    4    0    0 -0.91740957901E+01  0.34468358457E+02 -0.58541858658E+03  0.58650418011E+03  0.00000000000E+00 0. -1.
        -12    1    4    4    0    0 -0.33487918665E+02  0.13688355766E+02 -0.95765071623E+02  0.10237070246E+03  0.00000000000E+00 0.  1.
         -5    1    3    3    0  504  0.14509778230E+02 -0.35168534277E+02 -0.11186576207E+04  0.11193142194E+04  0.47000000000E+01 0.  1.
<mgrwt>
<rscale>  2 0.17537136E+03</rscale>
<asrwt>0</asrwt>
<pdfrwt beam="1">  1       21 0.29852319E-02 0.17598312E+03</pdfrwt>
<pdfrwt beam="2">  1       21 0.35575135E+00 0.17598312E+03</pdfrwt>
<totfact> 0.10533277E+04</totfact>
</mgrwt>
</event>
<event>
12    1  0.2742799E-001  0.1843837E+03  0.7546771E-02  0.1163967E+00
         21   -1    0    0  502  503  0.00000000000E+00  0.00000000000E+00  0.70305534827E+03  0.70305534827E+03  0.00000000000E+00 0.  1.
         21   -1    0    0  503  504 -0.00000000000E+00 -0.00000000000E+00 -0.58258051331E+02  0.58258051331E+02  0.00000000000E+00 0. -1.
         -6    2    1    2    0  504 -0.45672848079E+02  0.42563512772E+02  0.48333778920E+03  0.51731304340E+03  0.17349266476E+03 0.  0.
        -24    2    3    3    0    0 -0.89056432618E+02  0.13593594753E+02  0.36649340621E+03  0.38926582010E+03  0.95365758496E+02 0.  0.
          6    2    1    2  502    0  0.45672848079E+02 -0.42563512772E+02  0.16145950774E+03  0.24400035620E+03  0.17195737704E+03 0.  0.
         24    2    5    5    0    0 -0.31805745334E+02  0.54399734346E+01  0.10845381454E+03  0.13845908164E+03  0.79796545370E+02 0.  0.
          2    1    6    6  501    0  0.97396575338E+01  0.17499998428E+02  0.88644660283E+02  0.90878967151E+02  0.00000000000E+00 0. -1.
         -1    1    6    6    0  501 -0.41545402868E+02 -0.12060024993E+02  0.19809154256E+02  0.47580114487E+02  0.00000000000E+00 0.  1.
          5    1    5    5  502    0  0.77478593413E+02 -0.48003486207E+02  0.53005693199E+02  0.10554127457E+03  0.47000000000E+01 0. -1.
         13    1    4    4    0    0 -0.36139941153E+02 -0.21504566935E+02  0.45120494456E+02  0.61679824623E+02  0.00000000000E+00 0. -1.
        -14    1    4    4    0    0 -0.52916491464E+02  0.35098161688E+02  0.32137291175E+03  0.32758599547E+03  0.00000000000E+00 0.  1.
         -5    1    3    3    0  504  0.43383584538E+02  0.28969918019E+02  0.11684438299E+03  0.12804722330E+03  0.47000000000E+01 0.  1.
<mgrwt>
<rscale>  2 0.18402172E+03</rscale>
<asrwt>0</asrwt>
<pdfrwt beam="1">  1       21 0.10816236E+00 0.18438375E+03</pdfrwt>
<pdfrwt beam="2">  1       21 0.89627776E-02 0.18438375E+03</pdfrwt>
<totfact> 0.67191812E+04</totfact>
</mgrwt>
</event>
<event>
12    1  0.2742799E-001  0.1943870E+03  0.7546771E-02  0.1154649E+00
         21   -1    0    0  502  503  0.00000000000E+00  0.00000000000E+00  0.17882787189E+03  0.17882787189E+03  0.00000000000E+00 0. -1.
         21   -1    0    0  503  504 -0.00000000000E+00 -0.00000000000E+00 -0.23369723062E+03  0.23369723062E+03  0.00000000000E+00 0. -1.
         -6    2    1    2    0  504 -0.56078418437E+02 -0.69691607634E+02  0.37047866116E+02  0.19750162151E+03  0.17214132835E+03 0.  0.
        -24    2    3    3    0    0 -0.81207912713E+02 -0.46718311880E+02 -0.26340503520E+02  0.12539448451E+03  0.79073566179E+02 0.  0.
          6    2    1    2  502    0  0.56078418437E+02  0.69691607634E+02 -0.91917224844E+02  0.21502348101E+03  0.17258218903E+03 0.  0.
         24    2    5    5    0    0  0.10370835256E+03  0.42168945217E+02 -0.52554984399E+02  0.14721799787E+03  0.79859064485E+02 0.  0.
          4    1    6    6  501    0  0.11353763462E+03  0.24294005302E+02 -0.50828248860E+02  0.12674582459E+03  0.00000000000E+00 0. -1.
         -3    1    6    6    0  501 -0.98292820684E+01  0.17874939916E+02 -0.17267355394E+01  0.20472173275E+02  0.00000000000E+00 0.  1.
          5    1    5    5  502    0 -0.47629934119E+02  0.27522662417E+02 -0.39362240445E+02  0.67805483138E+02  0.47000000000E+01 0. -1.
         11    1    4    4    0    0 -0.28808056845E+02 -0.52703114119E+02  0.10617300521E+02  0.60993847618E+02  0.00000000000E+00 0. -1.
        -12    1    4    4    0    0 -0.52399855868E+02  0.59848022386E+01 -0.36957804040E+02  0.64400636894E+02  0.00000000000E+00 0.  1.
         -5    1    3    3    0  504  0.25129494275E+02 -0.22973295754E+02  0.63388369636E+02  0.72107136994E+02  0.47000000000E+01 0.  1.
<mgrwt>
<rscale>  2 0.19428914E+03</rscale>
<asrwt>0</asrwt>
<pdfrwt beam="1">  1       21 0.27511980E-01 0.19438704E+03</pdfrwt>
<pdfrwt beam="2">  1       21 0.35953420E-01 0.19438704E+03</pdfrwt>
<totfact> 0.93967539E+04</totfact>
</mgrwt>
</event>
<event>
12    1  0.2742799E-001  0.2990356E+03  0.7546771E-02  0.1085775E+00
         21   -1    0    0  502  503  0.00000000000E+00  0.00000000000E+00  0.19151756771E+04  0.19151756771E+04  0.00000000000E+00 0.  1.
         21   -1    0    0  503  504 -0.00000000000E+00 -0.00000000000E+00 -0.59008310970E+02  0.59008310970E+02  0.00000000000E+00 0.  1.
         -6    2    1    2    0  504  0.18993009263E+03 -0.15250212759E+03  0.47544381527E+03  0.56144911234E+03  0.17276557894E+03 0.  0.
        -24    2    3    3    0    0  0.12226402507E+03 -0.35710233217E+02  0.16240915587E+03  0.22052121486E+03  0.77647663924E+02 0.  0.
          6    2    1    2  502    0 -0.18993009263E+03  0.15250212759E+03  0.13807235509E+04  0.14127348758E+04  0.17347036114E+03 0.  0.
         24    2    5    5    0    0 -0.11902955317E+03  0.17052769391E+03  0.11217484911E+04  0.11435843990E+04  0.78853481033E+02 0.  0.
          4    1    6    6  501    0 -0.51593411961E+02  0.11564045322E+03  0.49999485283E+03  0.51578042560E+03  0.00000000000E+00 0. -1.
         -3    1    6    6    0  501 -0.67436141214E+02  0.54887240690E+02  0.62175363830E+03  0.62780397344E+03  0.00000000000E+00 0.  1.
          5    1    5    5  502    0 -0.70900539456E+02 -0.18025566321E+02  0.25897505976E+03  0.26915047671E+03  0.47000000000E+01 0. -1.
         11    1    4    4    0    0  0.14818919337E+02 -0.36442833925E+02  0.62197044012E+02  0.73594516091E+02  0.00000000000E+00 0. -1.
        -12    1    4    4    0    0  0.10744510573E+03  0.73260070882E+00  0.10021211185E+03  0.14692669877E+03  0.00000000000E+00 0.  1.
         -5    1    3    3    0  504  0.67666067559E+02 -0.11679189437E+03  0.31303465941E+03  0.34092789748E+03  0.47000000000E+01 0.  1.
<mgrwt>
<rscale>  2 0.29893350E+03</rscale>
<asrwt>0</asrwt>
<pdfrwt beam="1">  1       21 0.29464236E+00 0.29903563E+03</pdfrwt>
<pdfrwt beam="2">  1       21 0.90782031E-02 0.29903563E+03</pdfrwt>
<totfact> 0.31859667E+03</totfact>
</mgrwt>
</event>
<event>
12    1  0.2742799E-001  0.2167219E+03  0.7546771E-02  0.1137024E+00
         21   -1    0    0  502  503  0.00000000000E+00  0.00000000000E+00  0.35520498977E+03  0.35520498977E+03  0.00000000000E+00 0.  1.
         21   -1    0    0  503  504 -0.00000000000E+00 -0.00000000000E+00 -0.14182054255E+03  0.14182054255E+03  0.00000000000E+00 0.  1.
         -6    2    1    2    0  504 -0.47851995301E+02  0.11240211851E+03  0.17894458135E+03  0.28105080894E+03  0.17900934141E+03 0.  0.
        -24    2    3    3    0    0 -0.91237380729E+02  0.47940022359E+02  0.13796075134E+03  0.19307684784E+03  0.87309763925E+02 0.  0.
          6    2    1    2  502    0  0.47851995301E+02 -0.11240211851E+03  0.34439865872E+02  0.21597472337E+03  0.17474245928E+03 0.  0.
         24    2    5    5    0    0  0.29876475491E+02 -0.19922014260E+02  0.73124792724E+02  0.11402227092E+03  0.79776892115E+02 0.  0.
          2    1    6    6  501    0 -0.26696351340E+02 -0.99953401584E+01  0.34745000243E+02  0.44942374677E+02  0.00000000000E+00 0. -1.
         -1    1    6    6    0  501  0.56572826831E+02 -0.99266741017E+01  0.38379792481E+02  0.69079896245E+02  0.00000000000E+00 0.  1.
          5    1    5    5  502    0  0.17975519810E+02 -0.92480104253E+02 -0.38684926852E+02  0.10195245245E+03  0.47000000000E+01 0. -1.
         11    1    4    4    0    0  0.35101428707E+01 -0.17469081896E+02  0.82360985912E+01  0.19629652194E+02  0.00000000000E+00 0. -1.
        -12    1    4    4    0    0 -0.94747523600E+02  0.65409104255E+02  0.12972465274E+03  0.17344719565E+03  0.00000000000E+00 0.  1.
         -5    1    3    3    0  504  0.43385385428E+02  0.64462096154E+02  0.40983830015E+02  0.87973961102E+02  0.47000000000E+01 0.  1.
<mgrwt>
<rscale>  2 0.21583884E+03</rscale>
<asrwt>0</asrwt>
<pdfrwt beam="1">  1       21 0.54646921E-01 0.21672193E+03</pdfrwt>
<pdfrwt beam="2">  1       21 0.21818545E-01 0.21672193E+03</pdfrwt>
<totfact> 0.61320239E+04</totfact>
</mgrwt>
</event>
<event>
12    1  0.2742799E-001  0.1927987E+03  0.7546771E-02  0.1156091E+00
         21   -1    0    0  502  503  0.00000000000E+00  0.00000000000E+00  0.73104301777E+03  0.73104301777E+03  0.00000000000E+00 0. -1.
         21   -1    0    0  503  504 -0.00000000000E+00 -0.00000000000E+00 -0.79787685365E+02  0.79787685365E+02  0.00000000000E+00 0. -1.
         -6    2    1    2    0  504 -0.79062317123E+02 -0.29686692837E+02  0.81124970076E+02  0.20917125782E+03  0.17331821777E+03 0.  0.
        -24    2    3    3    0    0  0.17682305072E+02  0.16131568655E+02  0.25214481582E+02  0.88312217064E+02  0.81181193520E+02 0.  0.
          6    2    1    2  502    0  0.79062317123E+02  0.29686692837E+02  0.57013036232E+03  0.60165944531E+03  0.17266530735E+03 0.  0.
         24    2    5    5    0    0  0.10570367057E+03  0.67215568355E+02  0.44427326670E+03  0.46756889109E+03  0.74503246983E+02 0.  0.
          2    1    6    6  501    0  0.76946698860E+02  0.62643346594E+02  0.41335816343E+03  0.42509993486E+03  0.00000000000E+00 0. -1.
         -1    1    6    6    0  501  0.28756971706E+02  0.45722217610E+01  0.30915103262E+02  0.42468956229E+02  0.00000000000E+00 0.  1.
          5    1    5    5  502    0 -0.26641353443E+02 -0.37528875518E+02  0.12585709563E+03  0.13409055422E+03  0.47000000000E+01 0. -1.
         11    1    4    4    0    0 -0.39845024795E+01  0.23612557218E+02 -0.24073234523E+02  0.33955113588E+02  0.00000000000E+00 0. -1.
        -12    1    4    4    0    0  0.21666807551E+02 -0.74809885628E+01  0.49287716105E+02  0.54357103475E+02  0.00000000000E+00 0.  1.
         -5    1    3    3    0  504 -0.96744622195E+02 -0.45818261492E+02  0.55910488494E+02  0.12085904076E+03  0.47000000000E+01 0.  1.
<mgrwt>
<rscale>  2 0.19265189E+03</rscale>
<asrwt>0</asrwt>
<pdfrwt beam="1">  1       21 0.11246815E+00 0.19279874E+03</pdfrwt>
<pdfrwt beam="2">  1       21 0.12275029E-01 0.19279874E+03</pdfrwt>
<totfact> 0.34873187E+04</totfact>
</mgrwt>
</event>
<event>
12    1  0.2742799E-001  0.2457039E+03  0.7546771E-02  0.1116166E+00
         21   -1    0    0  502  503  0.00000000000E+00  0.00000000000E+00  0.15928439825E+03  0.15928439825E+03  0.00000000000E+00 0.  1.
         21   -1    0    0  503  504 -0.00000000000E+00 -0.00000000000E+00 -0.38004934725E+03  0.38004934725E+03  0.00000000000E+00 0.  1.
         -6    2    1    2    0  504  0.16869119648E+03 -0.39980833628E+02 -0.90281755798E+02  0.26176558070E+03  0.17411271343E+03 0.  0.
        -24    2    3    3    0    0  0.16057265041E+03  0.70045630297E+00 -0.20949375716E+02  0.18083383743E+03  0.80485611868E+02 0.  0.
          6    2    1    2  502    0 -0.16869119648E+03  0.39980833628E+02 -0.13048319320E+03  0.27756816481E+03  0.17309834077E+03 0.  0.
         24    2    5    5    0    0 -0.12937323640E+03 -0.30753058763E+02 -0.11878740080E+03  0.19566537440E+03  0.80568649160E+02 0.  0.
          2    1    6    6  501    0  0.30168884307E+01 -0.56313111634E+01 -0.38038054276E+02  0.38570803133E+02  0.00000000000E+00 0. -1.
         -1    1    6    6    0  501 -0.13239012483E+03 -0.25121747599E+02 -0.80749346527E+02  0.15709457126E+03  0.00000000000E+00 0.  1.
          5    1    5    5  502    0 -0.39317960082E+02  0.70733892390E+02 -0.11695792397E+02  0.81902790413E+02  0.47000000000E+01 0. -1.
         13    1    4    4    0    0  0.79104980413E+02  0.40205141625E+02 -0.48108949925E+01  0.88866169321E+02  0.00000000000E+00 0. -1.
        -14    1    4    4    0    0  0.81467669993E+02 -0.39504685322E+02 -0.16138480724E+02  0.91967668105E+02  0.00000000000E+00 0.  1.
         -5    1    3    3    0  504  0.81185460777E+01 -0.40681289931E+02 -0.69332380082E+02  0.80931743269E+02  0.47000000000E+01 0.  1.
<mgrwt>
<rscale>  2 0.24552430E+03</rscale>
<asrwt>0</asrwt>
<pdfrwt beam="1">  1       21 0.24505292E-01 0.24570394E+03</pdfrwt>
<pdfrwt beam="2">  1       21 0.58469130E-01 0.24570394E+03</pdfrwt>
<totfact> 0.42034115E+04</totfact>
</mgrwt>
</event>
<event>
12    1  0.2742799E-001  0.1960709E+03  0.7546771E-02  0.1153567E+00
         21   -1    0    0  502  503  0.00000000000E+00  0.00000000000E+00  0.31397513840E+03  0.31397513840E+03  0.00000000000E+00 0. -1.
         21   -1    0    0  503  504 -0.00000000000E+00 -0.00000000000E+00 -0.21134008975E+03  0.21134008975E+03  0.00000000000E+00 0. -1.
         -6    2    1    2    0  504 -0.80632450138E+02  0.42237669247E+02 -0.12047733368E+03  0.22829177600E+03  0.17122130223E+03 0.  0.
        -24    2    3    3    0    0  0.21902190732E+02  0.79184758983E+01 -0.65534244138E+02  0.10691635551E+03  0.81203212382E+02 0.  0.
          6    2    1    2  502    0  0.80632450138E+02 -0.42237669247E+02  0.22311238232E+03  0.29702345215E+03  0.17366111616E+03 0.  0.
         24    2    5    5    0    0  0.95668622889E+02  0.24516100629E+02  0.13961340692E+03  0.18896642472E+03  0.80392049889E+02 0.  0.
          4    1    6    6  501    0  0.76052502721E+02 -0.12465320118E+02  0.55371334016E+02  0.94896533164E+02  0.00000000000E+00 0. -1.
         -3    1    6    6    0  501  0.19616120168E+02  0.36981420747E+02  0.84242072902E+02  0.94069891558E+02  0.00000000000E+00 0.  1.
          5    1    5    5  502    0 -0.15036172751E+02 -0.66753769876E+02  0.83498975403E+02  0.10805702743E+03  0.47000000000E+01 0. -1.
         13    1    4    4    0    0  0.39472666774E+01  0.43944412017E+02 -0.31624561389E+02  0.54284483463E+02  0.00000000000E+00 0. -1.
        -14    1    4    4    0    0  0.17954924054E+02 -0.36025936119E+02 -0.33909682749E+02  0.52631872047E+02  0.00000000000E+00 0.  1.
         -5    1    3    3    0  504 -0.10253464087E+03  0.34319193349E+02 -0.54943089541E+02  0.12137542049E+03  0.47000000000E+01 0.  1.
<mgrwt>
<rscale>  2 0.19552924E+03</rscale>
<asrwt>0</asrwt>
<pdfrwt beam="1">  1       21 0.48303867E-01 0.19607090E+03</pdfrwt>
<pdfrwt beam="2">  1       21 0.32513860E-01 0.19607090E+03</pdfrwt>
<totfact> 0.37200803E+04</totfact>
</mgrwt>
</event>
<event>
12    1  0.2742799E-001  0.2258419E+03  0.7546771E-02  0.1129873E+00
         21   -1    0    0  502  503  0.00000000000E+00  0.00000000000E+00  0.13638754062E+03  0.13638754062E+03  0.00000000000E+00 0.  1.
         21   -1    0    0  503  504 -0.00000000000E+00 -0.00000000000E+00 -0.10868222168E+04  0.10868222168E+04  0.00000000000E+00 0.  1.
         -6    2    1    2    0  504 -0.75845479525E+02  0.12193743526E+03 -0.97194841441E+03  0.99784181894E+03  0.17430806201E+03 0.  0.
        -24    2    3    3    0    0 -0.14389513186E+02  0.37538047987E+02 -0.71537931334E+03  0.72080412116E+03  0.78580251894E+02 0.  0.
          6    2    1    2  502    0  0.75845479525E+02 -0.12193743526E+03  0.21513738187E+02  0.22536793851E+03  0.17235600336E+03 0.  0.
         24    2    5    5    0    0  0.48288630897E+02 -0.22694167446E+02  0.61526818198E+02  0.11477072929E+03  0.80869981052E+02 0.  0.
          2    1    6    6  501    0 -0.19261720578E+02 -0.17248056020E+02  0.31211176568E+02  0.40529580048E+02  0.00000000000E+00 0. -1.
         -1    1    6    6    0  501  0.67550351475E+02 -0.54461114258E+01  0.30315641630E+02  0.74241149247E+02  0.00000000000E+00 0.  1.
          5    1    5    5  502    0  0.27556848628E+02 -0.99243267818E+02 -0.40013080011E+02  0.11059720921E+03  0.47000000000E+01 0. -1.
         13    1    4    4    0    0  0.32487624408E+02  0.13262875815E+02 -0.25327536650E+03  0.25569466340E+03  0.00000000000E+00 0. -1.
        -14    1    4    4    0    0 -0.46877137594E+02  0.24275172172E+02 -0.46210394684E+03  0.46510945776E+03  0.00000000000E+00 0.  1.
         -5    1    3    3    0  504 -0.61455966340E+02  0.84399387278E+02 -0.25656910107E+03  0.27703769779E+03  0.47000000000E+01 0.  1.
<mgrwt>
<rscale>  2 0.22546519E+03</rscale>
<asrwt>0</asrwt>
<pdfrwt beam="1">  1       21 0.20982699E-01 0.22584193E+03</pdfrwt>
<pdfrwt beam="2">  1       21 0.16720341E+00 0.22584193E+03</pdfrwt>
<totfact> 0.45834596E+03</totfact>
</mgrwt>
</event>
<event>
12    1  0.2742799E-001  0.2595785E+03  0.7546771E-02  0.1108063E+00
         21   -1    0    0  502  503  0.00000000000E+00  0.00000000000E+00  0.23856318793E+03  0.23856318793E+03  0.00000000000E+00 0. -1.
         21   -1    0    0  503  504 -0.00000000000E+00 -0.00000000000E+00 -0.51304387436E+03  0.51304387436E+03  0.00000000000E+00 0. -1.
         -6    2    1    2    0  504 -0.18750134012E+03 -0.20776085678E+02 -0.39113528869E+03  0.46702089531E+03  0.17185256563E+03 0.  0.
        -24    2    3    3    0    0 -0.29271394447E+02 -0.39401939488E+02 -0.16340239527E+03  0.18904967579E+03  0.81425485979E+02 0.  0.
          6    2    1    2  502    0  0.18750134012E+03  0.20776085678E+02  0.11665460226E+03  0.28458616698E+03  0.17830477258E+03 0.  0.
         24    2    5    5    0    0  0.27597132549E+02  0.34400254157E+02  0.11250884360E+02  0.92526261449E+02  0.80557727424E+02 0.  0.
          4    1    6    6  501    0  0.31254975760E+02  0.36144772495E+02  0.40719353175E+02  0.62780441313E+02  0.00000000000E+00 0. -1.
         -3    1    6    6    0  501 -0.36578432109E+01 -0.17445183384E+01 -0.29468468816E+02  0.29745820135E+02  0.00000000000E+00 0.  1.
          5    1    5    5  502    0  0.15990420757E+03 -0.13624168479E+02  0.10540371790E+03  0.19205990553E+03  0.47000000000E+01 0. -1.
         11    1    4    4    0    0 -0.50804000143E+02 -0.20289579050E+01 -0.10253650067E+03  0.11445041315E+03  0.00000000000E+00 0. -1.
        -12    1    4    4    0    0  0.21532605696E+02 -0.37372981583E+02 -0.60865894597E+02  0.74599262634E+02  0.00000000000E+00 0.  1.
         -5    1    3    3    0  504 -0.15822994567E+03  0.18625853810E+02 -0.22773289342E+03  0.27797121953E+03  0.47000000000E+01 0.  1.
<mgrwt>
<rscale>  2 0.25847422E+03</rscale>
<asrwt>0</asrwt>
<pdfrwt beam="1">  1       21 0.36702030E-01 0.25957849E+03</pdfrwt>
<pdfrwt beam="2">  1       21 0.78929825E-01 0.25957849E+03</pdfrwt>
<totfact> 0.97401744E+03</totfact>
</mgrwt>
</event>
<event>
12    1  0.2742799E-001  0.1894022E+03  0.7546771E-02  0.1159113E+00
         21   -1    0    0  502  503  0.00000000000E+00  0.00000000000E+00  0.45289728818E+03  0.45289728818E+03  0.00000000000E+00 0.  1.
         21   -1    0    0  503  504 -0.00000000000E+00 -0.00000000000E+00 -0.18591093277E+03  0.18591093277E+03  0.00000000000E+00 0.  1.
         -6    2    1    2    0  504 -0.55390878395E+02  0.51932320188E+02 -0.10879147405E+03  0.21799689120E+03  0.17297960705E+03 0.  0.
        -24    2    3    3    0    0 -0.66344999456E+02 -0.73997766087E+01 -0.13751917630E+02  0.10532525429E+03  0.80298681844E+02 0.  0.
          6    2    1    2  502    0  0.55390878395E+02 -0.51932320188E+02  0.37577782945E+03  0.42081132975E+03  0.17351680855E+03 0.  0.
         24    2    5    5    0    0  0.11285597984E+02 -0.94896515284E+01  0.33981668927E+03  0.34966395112E+03  0.81068355101E+02 0.  0.
          2    1    6    6  501    0 -0.34967673584E+02 -0.16827917956E+01  0.12681555110E+03  0.13155893731E+03  0.00000000000E+00 0. -1.
         -1    1    6    6    0  501  0.46253271568E+02 -0.78068597328E+01  0.21300113817E+03  0.21810501381E+03  0.00000000000E+00 0.  1.
          5    1    5    5  502    0  0.44105280411E+02 -0.42442668659E+02  0.35961140184E+02  0.71147378633E+02  0.47000000000E+01 0. -1.
         13    1    4    4    0    0 -0.49380025092E+02 -0.39093031100E+02 -0.24844540640E+02  0.67704528344E+02  0.00000000000E+00 0. -1.
        -14    1    4    4    0    0 -0.16964974364E+02  0.31693254491E+02  0.11092623010E+02  0.37620725946E+02  0.00000000000E+00 0.  1.
         -5    1    3    3    0  504  0.10954121061E+02  0.59332096796E+02 -0.95039556422E+02  0.11267163691E+03  0.47000000000E+01 0.  1.
<mgrwt>
<rscale>  2 0.18927909E+03</rscale>
<asrwt>0</asrwt>
<pdfrwt beam="1">  1       21 0.69676506E-01 0.18940221E+03</pdfrwt>
<pdfrwt beam="2">  1       21 0.28601682E-01 0.18940221E+03</pdfrwt>
<totfact> 0.21928760E+04</totfact>
</mgrwt>
</event>
<event>
12    1  0.2742799E-001  0.2019754E+03  0.7546771E-02  0.1148762E+00
         21   -1    0    0  502  503  0.00000000000E+00  0.00000000000E+00  0.60204821404E+03  0.60204821404E+03  0.00000000000E+00 0. -1.
         21   -1    0    0  503  504 -0.00000000000E+00 -0.00000000000E+00 -0.17655166332E+03  0.17655166332E+03  0.00000000000E+00 0. -1.
         -6    2    1    2    0  504  0.21213427517E+02  0.97827871497E+02 -0.95005368013E+02  0.22028426438E+03  0.17169401629E+03 0.  0.
        -24    2    3    3    0    0  0.94520379750E+01 -0.11231859485E+02 -0.69068873694E+02  0.10746960689E+03  0.81016735323E+02 0.  0.
          6    2    1    2  502    0 -0.21213427517E+02 -0.97827871497E+02  0.52050191873E+03  0.55831561299E+03  0.17542455459E+03 0.  0.
         24    2    5    5    0    0 -0.32487166566E+02 -0.31300264525E+02  0.42506991252E+03  0.44134391773E+03  0.10984034158E+03 0.  0.
          2    1    6    6  501    0 -0.67676694669E+02  0.48120012006E+01  0.26307899814E+03  0.27168704352E+03  0.00000000000E+00 0. -1.
         -1    1    6    6    0  501  0.35189528103E+02 -0.36112265726E+02  0.16199091439E+03  0.16965687421E+03  0.00000000000E+00 0.  1.
          5    1    5    5  502    0  0.11273739049E+02 -0.66527606972E+02  0.95432006212E+02  0.11697169526E+03  0.47000000000E+01 0. -1.
         11    1    4    4    0    0 -0.21771224692E+02  0.25864102264E+02 -0.26703095538E+02  0.43081240950E+02  0.00000000000E+00 0. -1.
        -12    1    4    4    0    0  0.31223262667E+02 -0.37095961749E+02 -0.42365778156E+02  0.64388365940E+02  0.00000000000E+00 0.  1.
         -5    1    3    3    0  504  0.11761389542E+02  0.10905973098E+03 -0.25936494319E+02  0.11281465748E+03  0.47000000000E+01 0.  1.
<mgrwt>
<rscale>  2 0.20116266E+03</rscale>
<asrwt>0</asrwt>
<pdfrwt beam="1">  1       21 0.92622801E-01 0.20197543E+03</pdfrwt>
<pdfrwt beam="2">  1       21 0.27161795E-01 0.20197543E+03</pdfrwt>
<totfact> 0.12618319E+04</totfact>
</mgrwt>
</event>
<event>
12    1  0.2742799E-001  0.2211386E+03  0.7546771E-02  0.1133147E+00
         21   -1    0    0  502  503  0.00000000000E+00  0.00000000000E+00  0.54219559459E+03  0.54219559459E+03  0.00000000000E+00 0.  1.
         21   -1    0    0  503  504 -0.00000000000E+00 -0.00000000000E+00 -0.96254191135E+02  0.96254191135E+02  0.00000000000E+00 0.  1.
         -6    2    1    2    0  504 -0.13671949254E+03 -0.30889891310E+01  0.30493934485E+03  0.37668326993E+03  0.17378296902E+03 0.  0.
        -24    2    3    3    0    0 -0.11434667465E+03 -0.46188236305E+02  0.13664368053E+03  0.20145881755E+03  0.81888000113E+02 0.  0.
          6    2    1    2  502    0  0.13671949254E+03  0.30889891310E+01  0.14100205861E+03  0.26176651579E+03  0.17302706945E+03 0.  0.
         24    2    5    5    0    0  0.76150842779E+02  0.56086981224E+02  0.12975578037E+03  0.18036677824E+03  0.82163932675E+02 0.  0.
          2    1    6    6  501    0 -0.76146992487E+01 -0.93389300525E+01  0.38289787063E+02  0.40141089329E+02  0.00000000000E+00 0. -1.
         -1    1    6    6    0  501  0.83765542028E+02  0.65425911277E+02  0.91465993309E+02  0.14022568891E+03  0.00000000000E+00 0.  1.
          5    1    5    5  502    0  0.60568649757E+02 -0.52997992093E+02  0.11246278233E+02  0.81399737551E+02  0.47000000000E+01 0. -1.
         13    1    4    4    0    0 -0.49599618847E+02 -0.18011349168E+02  0.62031804859E+01  0.53132008590E+02  0.00000000000E+00 0. -1.
        -14    1    4    4    0    0 -0.64747055799E+02 -0.28176887137E+02  0.13044050004E+03  0.14832680896E+03  0.00000000000E+00 0.  1.
         -5    1    3    3    0  504 -0.22372817890E+02  0.43099247174E+02  0.16829566432E+03  0.17522445239E+03  0.47000000000E+01 0.  1.
<mgrwt>
<rscale>  2 0.22099007E+03</rscale>
<asrwt>0</asrwt>
<pdfrwt beam="1">  1       21 0.83414705E-01 0.22113860E+03</pdfrwt>
<pdfrwt beam="2">  1       21 0.14808337E-01 0.22113860E+03</pdfrwt>
<totfact> 0.49540061E+04</totfact>
</mgrwt>
</event>
<event>
12    1  0.2742799E-001  0.1855400E+03  0.7546771E-02  0.1162623E+00
         21   -1    0    0  502  503  0.00000000000E+00  0.00000000000E+00  0.17677133903E+03  0.17677133903E+03  0.00000000000E+00 0.  1.
         21   -1    0    0  503  504 -0.00000000000E+00 -0.00000000000E+00 -0.21775732325E+03  0.21775732325E+03  0.00000000000E+00 0.  1.
         -6    2    1    2    0  504  0.70179841809E+01 -0.69288212035E+02  0.44098045504E+02  0.19070845964E+03  0.17197374954E+03 0.  0.
        -24    2    3    3    0    0  0.94911279567E+01 -0.45993410621E+02 -0.41658957129E+02  0.10168532942E+03  0.79993513367E+02 0.  0.
          6    2    1    2  502    0 -0.70179841809E+01  0.69288212035E+02 -0.85084029717E+02  0.20382020264E+03  0.17161956317E+03 0.  0.
         24    2    5    5    0    0 -0.32459409761E+02  0.10703642852E+03 -0.60352009818E+02  0.15180139074E+03  0.83011365649E+02 0.  0.
          2    1    6    6  501    0  0.28074413630E+02  0.36994629624E+02 -0.15726683841E+02  0.49031662284E+02  0.00000000000E+00 0. -1.
         -1    1    6    6    0  501 -0.60533823391E+02  0.70041798899E+02 -0.44625325977E+02  0.10276972845E+03  0.00000000000E+00 0.  1.
          5    1    5    5  502    0  0.25441425580E+02 -0.37748216489E+02 -0.24732019898E+02  0.52018811904E+02  0.47000000000E+01 0. -1.
         13    1    4    4    0    0  0.22091547919E+02  0.16888564621E+02 -0.18953678852E+02  0.33652667746E+02  0.00000000000E+00 0. -1.
        -14    1    4    4    0    0 -0.12600419962E+02 -0.62881975241E+02 -0.22705278277E+02  0.68032661679E+02  0.00000000000E+00 0.  1.
         -5    1    3    3    0  504 -0.24731437757E+01 -0.23294801414E+02  0.85757002632E+02  0.89023130216E+02  0.47000000000E+01 0.  1.
<mgrwt>
<rscale>  2 0.18545785E+03</rscale>
<asrwt>0</asrwt>
<pdfrwt beam="1">  1       21 0.27195590E-01 0.18553997E+03</pdfrwt>
<pdfrwt beam="2">  1       21 0.33501127E-01 0.18553997E+03</pdfrwt>
<totfact> 0.11089129E+05</totfact>
</mgrwt>
</event>
<event>
12    1  0.2742799E-001  0.2477448E+03  0.7546771E-02  0.1114793E+00
         21   -1    0    0  502  503  0.00000000000E+00  0.00000000000E+00  0.17810470379E+04  0.17810470379E+04  0.00000000000E+00 0.  1.
         21   -1    0    0  503  504 -0.00000000000E+00 -0.00000000000E+00 -0.45672068676E+03  0.45672068676E+03  0.00000000000E+00 0. -1.
         -6    2    1    2    0  504 -0.57058687996E+01 -0.17811949447E+03 -0.41377500669E+03  0.48209867704E+03  0.17161080092E+03 0.  0.
        -24    2    3    3    0    0  0.34201301664E+00 -0.91605999921E+02 -0.35954123312E+03  0.37970456682E+03  0.80708633681E+02 0.  0.
          6    2    1    2  502    0  0.57058687996E+01  0.17811949447E+03  0.17381013579E+04  0.17556690476E+04  0.17209986465E+03 0.  0.
         24    2    5    5    0    0 -0.14228693237E+02  0.19542722740E+03  0.16434219275E+04  0.16572656487E+04  0.85437355904E+02 0.  0.
          4    1    6    6  501    0 -0.44850524299E+01  0.93782293412E+02  0.11231848769E+04  0.11271022589E+04  0.00000000000E+00 0. -1.
         -3    1    6    6    0  501 -0.97436408069E+01  0.10164493398E+03  0.52023705062E+03  0.53016338989E+03  0.00000000000E+00 0.  1.
          5    1    5    5  502    0  0.19934562036E+02 -0.17307732931E+02  0.94679430362E+02  0.98403398907E+02  0.47000000000E+01 0. -1.
         11    1    4    4    0    0 -0.32463845851E+02 -0.57490766907E+02 -0.13563489475E+03  0.15085063553E+03  0.00000000000E+00 0. -1.
        -12    1    4    4    0    0  0.32805858868E+02 -0.34115233013E+02 -0.22390633837E+03  0.22885393128E+03  0.00000000000E+00 0.  1.
         -5    1    3    3    0  504 -0.60478818162E+01 -0.86513494545E+02 -0.54233773569E+02  0.10239411022E+03  0.47000000000E+01 0.  1.
<mgrwt>
<rscale>  2 0.24765986E+03</rscale>
<asrwt>0</asrwt>
<pdfrwt beam="1">  1       21 0.27400723E+00 0.24774478E+03</pdfrwt>
<pdfrwt beam="2">  1       21 0.70264722E-01 0.24774478E+03</pdfrwt>
<totfact> 0.81880581E+01</totfact>
</mgrwt>
</event>
<event>
12    1  0.2742799E-001  0.1960724E+03  0.7546771E-02  0.1157537E+00
         21   -1    0    0  502  503  0.00000000000E+00  0.00000000000E+00  0.82626501775E+02  0.82626501775E+02  0.00000000000E+00 0. -1.
         21   -1    0    0  503  504 -0.00000000000E+00 -0.00000000000E+00 -0.45682423520E+03  0.45682423520E+03  0.00000000000E+00 0. -1.
         -6    2    1    2    0  504 -0.31410781892E+02 -0.25787222923E+02 -0.25424832474E+03  0.30959807982E+03  0.17192190759E+03 0.  0.
        -24    2    3    3    0    0 -0.82985367596E+02 -0.24698705755E+02 -0.13262847467E+03  0.17740654949E+03  0.79913542083E+02 0.  0.
          6    2    1    2  502    0  0.31410781892E+02  0.25787222923E+02 -0.11994940868E+03  0.22985265715E+03  0.19181440319E+03 0.  0.
         24    2    5    5    0    0 -0.37053454594E+02  0.26981345940E+02 -0.24661669666E+01  0.93789511180E+02  0.81788990102E+02 0.  0.
          4    1    6    6  501    0 -0.22442194246E+02  0.46411113449E+02 -0.27890044323E+02  0.58613122307E+02  0.00000000000E+00 0. -1.
         -3    1    6    6    0  501 -0.14611260347E+02 -0.19429767509E+02  0.25423877356E+02  0.35176388874E+02  0.00000000000E+00 0.  1.
          5    1    5    5  502    0  0.68464236486E+02 -0.11941230173E+01 -0.11748324171E+03  0.13606314597E+03  0.47000000000E+01 0. -1.
         13    1    4    4    0    0 -0.26825947897E+02 -0.28477070077E+02 -0.69983039158E+01  0.39743568768E+02  0.00000000000E+00 0. -1.
        -14    1    4    4    0    0 -0.56159419699E+02  0.37783643216E+01 -0.12563017076E+03  0.13766298073E+03  0.00000000000E+00 0.  1.
         -5    1    3    3    0  504  0.51574585703E+02 -0.10885171683E+01 -0.12161985007E+03  0.13219153033E+03  0.47000000000E+01 0.  1.
<mgrwt>
<rscale>  2 0.19102794E+03</rscale>
<asrwt>0</asrwt>
<pdfrwt beam="1">  1       21 0.12711769E-01 0.19607239E+03</pdfrwt>
<pdfrwt beam="2">  1       21 0.70280652E-01 0.19607239E+03</pdfrwt>
<totfact> 0.97063694E+04</totfact>
</mgrwt>
</event>
<event>
12    1  0.2742799E-001  0.1815909E+03  0.7546771E-02  0.1166822E+00
         21   -1    0    0  502  503  0.00000000000E+00  0.00000000000E+00  0.77360744491E+03  0.77360744491E+03  0.00000000000E+00 0. -1.
         21   -1    0    0  503  504 -0.00000000000E+00 -0.00000000000E+00 -0.98783766166E+02  0.98783766166E+02  0.00000000000E+00 0. -1.
         -6    2    1    2    0  504 -0.39523837583E+02 -0.32590195675E+02  0.78767401961E+01  0.18176161890E+03  0.17421535087E+03 0.  0.
        -24    2    3    3    0    0 -0.21684015741E+02 -0.46379917917E+02 -0.57035957189E+02  0.11288372721E+03  0.82875461573E+02 0.  0.
          6    2    1    2  502    0  0.39523837583E+02  0.32590195675E+02  0.66694693855E+03  0.69062959217E+03  0.17183352454E+03 0.  0.
         24    2    5    5    0    0  0.22241902589E+02 -0.47393584304E+02  0.31269798482E+03  0.32702199935E+03  0.80140528372E+02 0.  0.
          2    1    6    6  501    0 -0.13856119006E+02 -0.29137929102E+02  0.25214107429E+03  0.25419703438E+03  0.00000000000E+00 0. -1.
         -1    1    6    6    0  501  0.36098021595E+02 -0.18255655202E+02  0.60556910532E+02  0.72824964972E+02  0.00000000000E+00 0.  1.
          5    1    5    5  502    0  0.17281934994E+02  0.79983779979E+02  0.35424895373E+03  0.36360759282E+03  0.47000000000E+01 0. -1.
         13    1    4    4    0    0 -0.33027951056E+02 -0.66356635817E+02 -0.39552177721E+02  0.84014423942E+02  0.00000000000E+00 0. -1.
        -14    1    4    4    0    0  0.11343935315E+02  0.19976717899E+02 -0.17483779468E+02  0.28869303264E+02  0.00000000000E+00 0.  1.
         -5    1    3    3    0  504 -0.17839821842E+02  0.13789722242E+02  0.64912697385E+02  0.68877891698E+02  0.47000000000E+01 0.  1.
<mgrwt>
<rscale>  2 0.18101720E+03</rscale>
<asrwt>0</asrwt>
<pdfrwt beam="1">  1       21 0.11901653E+00 0.18159087E+03</pdfrwt>
<pdfrwt beam="2">  1       21 0.15197503E-01 0.18159087E+03</pdfrwt>
<totfact> 0.20789735E+04</totfact>
</mgrwt>
</event>
<event>
12    1  0.2742799E-001  0.1983435E+03  0.7546771E-02  0.1152032E+00
         21   -1    0    0  502  503  0.00000000000E+00  0.00000000000E+00  0.37729588113E+04  0.37729588113E+04  0.00000000000E+00 0. -1.
         21   -1    0    0  503  504 -0.00000000000E+00 -0.00000000000E+00 -0.10241588590E+02  0.10241588590E+02  0.00000000000E+00 0. -1.
         -6    2    1    2    0  504  0.32208207012E+02 -0.88283620684E+02  0.20036907072E+04  0.20134836960E+04  0.17466762045E+03 0.  0.
        -24    2    3    3    0    0  0.34166913790E+02 -0.58688305984E+02  0.19404607949E+04  0.19434849032E+04  0.84461690401E+02 0.  0.
          6    2    1    2  502    0 -0.32208207012E+02  0.88283620684E+02  0.17590265154E+04  0.17697167038E+04  0.16997518497E+03 0.  0.
         24    2    5    5    0    0 -0.50939047888E+02  0.81538264539E+01  0.57369598607E+03  0.58152388186E+03  0.79885350676E+02 0.  0.
          4    1    6    6  501    0  0.17396896104E+02  0.57035725407E+01  0.47545223181E+02  0.50948316764E+02  0.00000000000E+00 0. -1.
         -3    1    6    6    0  501 -0.68335943992E+02  0.24502539132E+01  0.52615076289E+03  0.53057556510E+03  0.00000000000E+00 0.  1.
          5    1    5    5  502    0  0.18730840876E+02  0.80129794230E+02  0.11853305294E+04  0.11881928220E+04  0.47000000000E+01 0. -1.
         11    1    4    4    0    0  0.10970946520E+02 -0.23265789148E+02  0.16240439694E+04  0.16242476638E+04  0.00000000000E+00 0. -1.
        -12    1    4    4    0    0  0.23195967271E+02 -0.35422516836E+02  0.31641682545E+03  0.31923723941E+03  0.00000000000E+00 0.  1.
         -5    1    3    3    0  504 -0.19587067786E+01 -0.29595314700E+02  0.63229912349E+02  0.69998792847E+02  0.47000000000E+01 0.  1.
<mgrwt>
<rscale>  2 0.19730548E+03</rscale>
<asrwt>0</asrwt>
<pdfrwt beam="1">  1       21 0.58045409E+00 0.19834350E+03</pdfrwt>
<pdfrwt beam="2">  1       21 0.15756320E-02 0.19834350E+03</pdfrwt>
<totfact> 0.86812216E+02</totfact>
</mgrwt>
</event>
<event>
12    1  0.2742799E-001  0.1857220E+03  0.7546771E-02  0.1162645E+00
         21   -1    0    0  502  503  0.00000000000E+00  0.00000000000E+00  0.25787939231E+03  0.25787939231E+03  0.00000000000E+00 0. -1.
         21   -1    0    0  503  504 -0.00000000000E+00 -0.00000000000E+00 -0.18001251699E+03  0.18001251699E+03  0.00000000000E+00 0. -1.
         -6    2    1    2    0  504  0.46667661436E+02 -0.46277915109E+02 -0.72951889593E+02  0.19953605366E+03  0.17370418090E+03 0.  0.
        -24    2    3    3    0    0 -0.32056076920E+02  0.18138849206E+01 -0.61244637389E+02  0.10642645176E+03  0.80899949197E+02 0.  0.
          6    2    1    2  502    0 -0.46667661436E+02  0.46277915109E+02  0.15081876491E+03  0.23835585564E+03  0.17247520987E+03 0.  0.
         24    2    5    5    0    0  0.33385914105E+02 -0.49106579207E+01  0.38097939940E+02  0.90853586684E+02  0.75260795663E+02 0.  0.
          2    1    6    6  501    0  0.31925230129E+02  0.90773978352E+01  0.57797015008E+02  0.66649189148E+02  0.00000000000E+00 0. -1.
         -1    1    6    6    0  501  0.14606839757E+01 -0.13988055756E+02 -0.19699075069E+02  0.24204397536E+02  0.00000000000E+00 0.  1.
          5    1    5    5  502    0 -0.80053575541E+02  0.51188573029E+02  0.11272082497E+03  0.14750226896E+03  0.47000000000E+01 0. -1.
         13    1    4    4    0    0  0.25202958808E+02 -0.10416084921E+02 -0.11495171778E+02  0.29594305735E+02  0.00000000000E+00 0. -1.
        -14    1    4    4    0    0 -0.57259035727E+02  0.12229969842E+02 -0.49749465611E+02  0.76832146029E+02  0.00000000000E+00 0.  1.
         -5    1    3    3    0  504  0.78723738356E+02 -0.48091800029E+02 -0.11707252204E+02  0.93109601894E+02  0.47000000000E+01 0.  1.
<mgrwt>
<rscale>  2 0.18543409E+03</rscale>
<asrwt>0</asrwt>
<pdfrwt beam="1">  1       21 0.39673753E-01 0.18572199E+03</pdfrwt>
<pdfrwt beam="2">  1       21 0.27694233E-01 0.18572199E+03</pdfrwt>
<totfact> 0.76428781E+04</totfact>
</mgrwt>
</event>
<event>
12    1  0.2742799E-001  0.2611772E+03  0.7546771E-02  0.1106513E+00
         21   -1    0    0  502  503  0.00000000000E+00  0.00000000000E+00  0.27753753907E+03  0.27753753907E+03  0.00000000000E+00 0. -1.
         21   -1    0    0  503  504 -0.00000000000E+00 -0.00000000000E+00 -0.24623252350E+03  0.24623252350E+03  0.00000000000E+00 0. -1.
         -6    2    1    2    0  504  0.12754353086E+03  0.14817884142E+03  0.31687664337E+02  0.26309249590E+03  0.17317399348E+03 0.  0.
        -24    2    3    3    0    0  0.11638436444E+03  0.10504209904E+03  0.83386454010E+02  0.19468079813E+03  0.79800686664E+02 0.  0.
          6    2    1    2  502    0 -0.12754353086E+03 -0.14817884142E+03 -0.38264876013E+00  0.26067756667E+03  0.17241904198E+03 0.  0.
         24    2    5    5    0    0 -0.14964346605E+03 -0.87302325630E+02  0.21506371541E+02  0.19215328981E+03  0.80283869967E+02 0.  0.
          4    1    6    6  501    0 -0.72574727828E+02 -0.80163751250E+02 -0.99801570386E+01  0.10859521936E+03  0.00000000000E+00 0. -1.
         -3    1    6    6    0  501 -0.77068738221E+02 -0.71385743796E+01  0.31486528579E+02  0.83558070449E+02  0.00000000000E+00 0.  1.
          5    1    5    5  502    0  0.22099935186E+02 -0.60876515787E+02 -0.21889020301E+02  0.68524276861E+02  0.47000000000E+01 0. -1.
         13    1    4    4    0    0  0.33984018431E+02  0.13032687795E+00 -0.54315717410E+01  0.34415584630E+02  0.00000000000E+00 0. -1.
        -14    1    4    4    0    0  0.82400346005E+02  0.10491177216E+03  0.88818025751E+02  0.16026521350E+03  0.00000000000E+00 0.  1.
         -5    1    3    3    0  504  0.11159166427E+02  0.43136742381E+02 -0.51698789673E+02  0.68411697773E+02  0.47000000000E+01 0.  1.
<mgrwt>
<rscale>  2 0.26105217E+03</rscale>
<asrwt>0</asrwt>
<pdfrwt beam="1">  1       21 0.42698083E-01 0.26117725E+03</pdfrwt>
<pdfrwt beam="2">  1       21 0.37881927E-01 0.26117725E+03</pdfrwt>
<totfact> 0.34325202E+04</totfact>
</mgrwt>
</event>
<event>
12    1  0.2742799E-001  0.1826265E+03  0.7546771E-02  0.1169753E+00
         21   -1    0    0  502  503  0.00000000000E+00  0.00000000000E+00  0.28747025174E+02  0.28747025174E+02  0.00000000000E+00 0.  1.
         21   -1    0    0  503  504 -0.00000000000E+00 -0.00000000000E+00 -0.11001631026E+04  0.11001631026E+04  0.00000000000E+00 0. -1.
         -6    2    1    2    0  504  0.12599924676E+01  0.57990413173E+02 -0.68255995442E+03  0.70656954883E+03  0.17317032182E+03 0.  0.
        -24    2    3    3    0    0  0.55331756145E+02  0.74860440158E+02 -0.40456233619E+03  0.42282121108E+03  0.80258357412E+02 0.  0.
          6    2    1    2  502    0 -0.12599924676E+01 -0.57990413173E+02 -0.38885612301E+03  0.42234057894E+03  0.15426601901E+03 0.  0.
         24    2    5    5    0    0 -0.27685520931E+02 -0.18517894853E+02 -0.10135229866E+03  0.13090117311E+03  0.75851355817E+02 0.  0.
          2    1    6    6  501    0 -0.11393296719E+02  0.15483618144E+02 -0.89259364895E+02  0.91305990288E+02  0.00000000000E+00 0. -1.
         -1    1    6    6    0  501 -0.16292224212E+02 -0.34001512997E+02 -0.12092933767E+02  0.39595182825E+02  0.00000000000E+00 0.  1.
          5    1    5    5  502    0  0.26425528464E+02 -0.39472518321E+02 -0.28750382434E+03  0.29143940583E+03  0.47000000000E+01 0. -1.
         11    1    4    4    0    0  0.11712818702E+02  0.54926091888E+02 -0.10162083693E+03  0.11610710655E+03  0.00000000000E+00 0. -1.
        -12    1    4    4    0    0  0.43618937443E+02  0.19934348269E+02 -0.30294149926E+03  0.30671410453E+03  0.00000000000E+00 0.  1.
         -5    1    3    3    0  504 -0.54071763678E+02 -0.16870026984E+02 -0.27799761823E+03  0.28374833776E+03  0.47000000000E+01 0.  1.
<mgrwt>
<rscale>  2 0.17799959E+03</rscale>
<asrwt>0</asrwt>
<pdfrwt beam="1">  1       21 0.44226196E-02 0.18262649E+03</pdfrwt>
<pdfrwt beam="2">  1       21 0.16925585E+00 0.18262649E+03</pdfrwt>
<totfact> 0.71877870E+04</totfact>
</mgrwt>
</event>
<event>
12    1  0.2742799E-001  0.1823840E+03  0.7546771E-02  0.1165571E+00
         21   -1    0    0  502  503  0.00000000000E+00  0.00000000000E+00  0.65845479308E+03  0.65845479308E+03  0.00000000000E+00 0.  1.
         21   -1    0    0  503  504 -0.00000000000E+00 -0.00000000000E+00 -0.25992728966E+03  0.25992728966E+03  0.00000000000E+00 0.  1.
         -6    2    1    2    0  504 -0.12733655407E+02 -0.55901482075E+02 -0.21298389567E+03  0.28025191503E+03  0.17289266725E+03 0.  0.
        -24    2    3    3    0    0 -0.38508109707E+02 -0.75985681563E+02 -0.76475605086E+02  0.13980868465E+03  0.80257409713E+02 0.  0.
          6    2    1    2  502    0  0.12733655407E+02  0.55901482075E+02  0.61151139908E+03  0.63813016771E+03  0.17313808955E+03 0.  0.
         24    2    5    5    0    0  0.39371593342E+02  0.95980521704E+02  0.50613615776E+03  0.52219078424E+03  0.75809115839E+02 0.  0.
          4    1    6    6  501    0  0.29911107210E+02  0.26128863029E+02  0.33141547426E+03  0.33378677085E+03  0.00000000000E+00 0. -1.
         -3    1    6    6    0  501  0.94604861317E+01  0.69851658675E+02  0.17472068350E+03  0.18840401338E+03  0.00000000000E+00 0.  1.
          5    1    5    5  502    0 -0.26637937934E+02 -0.40079039629E+02  0.10537524133E+03  0.11593938347E+03  0.47000000000E+01 0. -1.
         11    1    4    4    0    0 -0.61408827353E+02 -0.55845520656E+02 -0.70116247559E+02  0.10865566909E+03  0.00000000000E+00 0. -1.
        -12    1    4    4    0    0  0.22900717645E+02 -0.20140160907E+02 -0.63593575266E+01  0.31153015555E+02  0.00000000000E+00 0.  1.
         -5    1    3    3    0  504  0.25774454300E+02  0.20084199488E+02 -0.13650829058E+03  0.14044323038E+03  0.47000000000E+01 0.  1.
<mgrwt>
<rscale>  2 0.18232572E+03</rscale>
<asrwt>0</asrwt>
<pdfrwt beam="1">  1       21 0.10130074E+00 0.18238399E+03</pdfrwt>
<pdfrwt beam="2">  1       21 0.39988814E-01 0.18238399E+03</pdfrwt>
<totfact> 0.48379396E+03</totfact>
</mgrwt>
</event>
<event>
12    1  0.2742799E-001  0.1899624E+03  0.7546771E-02  0.1159189E+00
         21   -1    0    0  502  503  0.00000000000E+00  0.00000000000E+00  0.53893378702E+03  0.53893378702E+03  0.00000000000E+00 0.  1.
         21   -1    0    0  503  504 -0.00000000000E+00 -0.00000000000E+00 -0.15735200414E+03  0.15735200414E+03  0.00000000000E+00 0. -1.
         -6    2    1    2    0  504 -0.43403631883E+02  0.68577633626E+02 -0.73988101874E+02  0.20386258744E+03  0.17175257857E+03 0.  0.
        -24    2    3    3    0    0 -0.37807360279E+02  0.53154537253E+02 -0.11842151049E+03  0.15626418454E+03  0.78358406710E+02 0.  0.
          6    2    1    2  502    0  0.43403631883E+02 -0.68577633626E+02  0.45556988476E+03  0.49242320372E+03  0.16837435840E+03 0.  0.
         24    2    5    5    0    0  0.11723451017E+02 -0.45441413720E+02  0.44039680003E+03  0.45010026630E+03  0.80240556241E+02 0.  0.
          4    1    6    6  501    0  0.33877403717E+02 -0.30923621484E+02  0.39411430559E+03  0.39677453890E+03  0.00000000000E+00 0. -1.
         -3    1    6    6    0  501 -0.22153952700E+02 -0.14517792236E+02  0.46282494441E+02  0.53325727405E+02  0.00000000000E+00 0.  1.
          5    1    5    5  502    0  0.31680180866E+02 -0.23136219906E+02  0.15173084729E+02  0.42322937415E+02  0.47000000000E+01 0. -1.
         13    1    4    4    0    0 -0.38890799267E+02  0.71766104495E+02 -0.10630993694E+03  0.13403234950E+03  0.00000000000E+00 0. -1.
        -14    1    4    4    0    0  0.10834389880E+01 -0.18611567242E+02 -0.12111573552E+02  0.22231835038E+02  0.00000000000E+00 0.  1.
         -5    1    3    3    0  504 -0.55962716041E+01  0.15423096373E+02  0.44433408616E+02  0.47598402902E+02  0.47000000000E+01 0.  1.
<mgrwt>
<rscale>  2 0.18919557E+03</rscale>
<asrwt>0</asrwt>
<pdfrwt beam="1">  1       21 0.82912889E-01 0.18996241E+03</pdfrwt>
<pdfrwt beam="2">  1       21 0.24208001E-01 0.18996241E+03</pdfrwt>
<totfact> 0.20458027E+04</totfact>
</mgrwt>
</event>
<event>
12    1  0.2742799E-001  0.2006498E+03  0.7546771E-02  0.1149520E+00
         21   -1    0    0  502  503  0.00000000000E+00  0.00000000000E+00  0.10088109286E+03  0.10088109286E+03  0.00000000000E+00 0. -1.
         21   -1    0    0  503  504 -0.00000000000E+00 -0.00000000000E+00 -0.46544224966E+03  0.46544224966E+03  0.00000000000E+00 0.  1.
         -6    2    1    2    0  504 -0.98078808201E+02 -0.22919167929E+02 -0.29225638405E+03  0.35450549734E+03  0.17353850510E+03 0.  0.
        -24    2    3    3    0    0 -0.11279068703E+03  0.18230295887E+02 -0.27428991008E+03  0.30702284853E+03  0.77291603563E+02 0.  0.
          6    2    1    2  502    0  0.98078808201E+02  0.22919167929E+02 -0.72304772748E+02  0.21181784518E+03  0.17173840135E+03 0.  0.
         24    2    5    5    0    0  0.58621376682E+02  0.47753391870E+02 -0.10689807333E+03  0.15357341175E+03  0.80254236495E+02 0.  0.
          4    1    6    6  501    0  0.30548068661E+02  0.64933559760E+02 -0.48738445408E+02  0.86746687215E+02  0.00000000000E+00 0. -1.
         -3    1    6    6    0  501  0.28073308021E+02 -0.17180167890E+02 -0.58159627920E+02  0.66826724533E+02  0.00000000000E+00 0.  1.
          5    1    5    5  502    0  0.39457431519E+02 -0.24834223942E+02  0.34593300579E+02  0.58244433432E+02  0.47000000000E+01 0. -1.
         11    1    4    4    0    0 -0.40693997660E+02 -0.24597733631E+02 -0.57717604272E+02  0.74782162233E+02  0.00000000000E+00 0. -1.
        -12    1    4    4    0    0 -0.72096689368E+02  0.42828029518E+02 -0.21657230581E+03  0.23224068630E+03  0.00000000000E+00 0.  1.
         -5    1    3    3    0  504  0.14711878827E+02 -0.41149463816E+02 -0.17966473968E+02  0.47482648808E+02  0.47000000000E+01 0.  1.
<mgrwt>
<rscale>  2 0.20025999E+03</rscale>
<asrwt>0</asrwt>
<pdfrwt beam="1">  1       21 0.15520168E-01 0.20064983E+03</pdfrwt>
<pdfrwt beam="2">  1       21 0.71606499E-01 0.20064983E+03</pdfrwt>
<totfact> 0.64724694E+04</totfact>
</mgrwt>
</event>
<event>
12    1  0.2742799E-001  0.2153330E+03  0.7546771E-02  0.1137616E+00
         21   -1    0    0  502  503  0.00000000000E+00  0.00000000000E+00  0.10100067519E+03  0.10100067519E+03  0.00000000000E+00 0. -1.
         21   -1    0    0  503  504 -0.00000000000E+00 -0.00000000000E+00 -0.51343066695E+03  0.51343066695E+03  0.00000000000E+00 0. -1.
         -6    2    1    2    0  504  0.69759720459E+02  0.10643632157E+03 -0.30777611368E+03  0.37501382000E+03  0.17237784049E+03 0.  0.
        -24    2    3    3    0    0  0.92044376296E+02  0.12690926841E+03 -0.29106735669E+03  0.34012800629E+03  0.79929499678E+02 0.  0.
          6    2    1    2  502    0 -0.69759720459E+02 -0.10643632157E+03 -0.10465387807E+03  0.23941752214E+03  0.17370436541E+03 0.  0.
         24    2    5    5    0    0  0.27532763321E+02 -0.43115510494E+02 -0.28485017192E+02  0.10049618511E+03  0.81676720766E+02 0.  0.
          4    1    6    6  501    0 -0.18076342324E+02 -0.43478525726E+02 -0.70534254024E+00  0.47091759993E+02  0.00000000000E+00 0. -1.
         -3    1    6    6    0  501  0.45609105645E+02  0.36301523169E+00 -0.27779674652E+02  0.53404425112E+02  0.00000000000E+00 0.  1.
          5    1    5    5  502    0 -0.97292483780E+02 -0.63320811074E+02 -0.76168860876E+02  0.13892133703E+03  0.47000000000E+01 0. -1.
         13    1    4    4    0    0  0.31654151181E+02  0.88256969806E+02 -0.22012862407E+03  0.23926531120E+03  0.00000000000E+00 0. -1.
        -14    1    4    4    0    0  0.60390225115E+02  0.38652298601E+02 -0.70938732620E+02  0.10086269510E+03  0.00000000000E+00 0.  1.
         -5    1    3    3    0  504 -0.22284655837E+02 -0.20472946839E+02 -0.16708756992E+02  0.34885813711E+02  0.47000000000E+01 0.  1.
<mgrwt>
<rscale>  2 0.21506537E+03</rscale>
<asrwt>0</asrwt>
<pdfrwt beam="1">  1       21 0.15538565E-01 0.21533303E+03</pdfrwt>
<pdfrwt beam="2">  1       21 0.78989335E-01 0.21533303E+03</pdfrwt>
<totfact> 0.51494027E+04</totfact>
</mgrwt>
</event>
<event>
12    1  0.2742799E-001  0.1759164E+03  0.7546771E-02  0.1172040E+00
         21   -1    0    0  502  503  0.00000000000E+00  0.00000000000E+00  0.27900535735E+03  0.27900535735E+03  0.00000000000E+00 0. -1.
         21   -1    0    0  503  504 -0.00000000000E+00 -0.00000000000E+00 -0.11078460863E+03  0.11078460863E+03  0.00000000000E+00 0. -1.
         -6    2    1    2    0  504 -0.24609106434E+02  0.32928494574E+00  0.71674843262E+02  0.18912181211E+03  0.17327452240E+03 0.  0.
        -24    2    3    3    0    0 -0.11860803427E+02  0.58033791340E+02  0.83157264478E+02  0.12873749888E+03  0.78419470710E+02 0.  0.
          6    2    1    2  502    0  0.24609106434E+02 -0.32928494574E+00  0.96545905463E+02  0.20066815387E+03  0.17418633576E+03 0.  0.
         24    2    5    5    0    0  0.28604357713E+02  0.38293536511E+02 -0.87497218110E+00  0.95689099902E+02  0.82891700701E+02 0.  0.
          4    1    6    6  501    0  0.47974717646E+02  0.24577565148E+02  0.25989080245E+02  0.59841979695E+02  0.00000000000E+00 0. -1.
         -3    1    6    6    0  501 -0.19370359934E+02  0.13715971363E+02 -0.26864052427E+02  0.35847120207E+02  0.00000000000E+00 0.  1.
          5    1    5    5  502    0 -0.39952512789E+01 -0.38622821456E+02  0.97420877644E+02  0.10497905396E+03  0.47000000000E+01 0. -1.
         13    1    4    4    0    0 -0.18192378913E+02  0.27184035016E+00 -0.86030773553E+01  0.20125841291E+02  0.00000000000E+00 0. -1.
        -14    1    4    4    0    0  0.63315754854E+01  0.57761950990E+02  0.91760341833E+02  0.10861165759E+03  0.00000000000E+00 0.  1.
         -5    1    3    3    0  504 -0.12748303007E+02 -0.57704506394E+02 -0.11482421216E+02  0.60384313234E+02  0.47000000000E+01 0.  1.
<mgrwt>
<rscale>  2 0.17569031E+03</rscale>
<asrwt>0</asrwt>
<pdfrwt beam="1">  1       21 0.42923901E-01 0.17591645E+03</pdfrwt>
<pdfrwt beam="2">  1       21 0.17043786E-01 0.17591645E+03</pdfrwt>
<totfact> 0.16292424E+05</totfact>
</mgrwt>
</event>
<event>
12    1  0.2742799E-001  0.2003881E+03  0.7546771E-02  0.1149629E+00
         21   -1    0    0  502  503  0.00000000000E+00  0.00000000000E+00  0.19967685749E+02  0.19967685749E+02  0.00000000000E+00 0. -1.
         21   -1    0    0  503  504 -0.00000000000E+00 -0.00000000000E+00 -0.29460874305E+04  0.29460874305E+04  0.00000000000E+00 0. -1.
         -6    2    1    2    0  504 -0.52552836392E+02 -0.84623791374E+02 -0.23006020260E+04  0.23092234657E+04  0.17268568497E+03 0.  0.
        -24    2    3    3    0    0 -0.10174989940E+03 -0.62274425032E+02 -0.17800563247E+04  0.17858595748E+04  0.80391265918E+02 0.  0.
          6    2    1    2  502    0  0.52552836392E+02  0.84623791374E+02 -0.62551771874E+03  0.65683165054E+03  0.17387470783E+03 0.  0.
         24    2    5    5    0    0  0.72847063230E+02  0.54162694136E+02 -0.59779593738E+03  0.61067624729E+03  0.85587406776E+02 0.  0.
          4    1    6    6  501    0  0.79870977342E+02  0.66672920450E+02 -0.43584160328E+03  0.44808766385E+03  0.00000000000E+00 0. -1.
         -3    1    6    6    0  501 -0.70239141122E+01 -0.12510226314E+02 -0.16195433410E+03  0.16258858344E+03  0.00000000000E+00 0.  1.
          5    1    5    5  502    0 -0.20294226838E+02  0.30461097238E+02 -0.27721781360E+02  0.46155403255E+02  0.47000000000E+01 0. -1.
         11    1    4    4    0    0 -0.25863711008E+02 -0.62292391138E+02 -0.91368089378E+03  0.91616704219E+03  0.00000000000E+00 0. -1.
        -12    1    4    4    0    0 -0.75886188396E+02  0.17966106107E-01 -0.86637543096E+03  0.86969253262E+03  0.00000000000E+00 0.  1.
         -5    1    3    3    0  504  0.49197063012E+02 -0.22349366342E+02 -0.52054570130E+03  0.52336389092E+03  0.47000000000E+01 0.  1.
<mgrwt>
<rscale>  2 0.20012992E+03</rscale>
<asrwt>0</asrwt>
<pdfrwt beam="1">  1       21 0.30719537E-02 0.20038813E+03</pdfrwt>
<pdfrwt beam="2">  1       21 0.45324392E+00 0.20038813E+03</pdfrwt>
<totfact> 0.23817257E+03</totfact>
</mgrwt>
</event>
<event>
12    1  0.2742799E-001  0.1826742E+03  0.7546771E-02  0.1168265E+00
         21   -1    0    0  502  503  0.00000000000E+00  0.00000000000E+00  0.41753200255E+03  0.41753200255E+03  0.00000000000E+00 0.  1.
         21   -1    0    0  503  504 -0.00000000000E+00 -0.00000000000E+00 -0.76200030830E+02  0.76200030830E+02  0.00000000000E+00 0.  1.
         -6    2    1    2    0  504  0.55059795969E+02  0.20371404401E+02  0.12954673183E+03  0.21404853451E+03  0.15996200845E+03 0.  0.
        -24    2    3    3    0    0  0.74868183869E+02  0.43618969959E+01  0.35772155825E+02  0.11676319304E+03  0.82034901208E+02 0.  0.
          6    2    1    2  502    0 -0.55059795969E+02 -0.20371404401E+02  0.21178523989E+03  0.27968349887E+03  0.17298351499E+03 0.  0.
         24    2    5    5    0    0 -0.28852786935E+02  0.46630075577E+02  0.71852780504E+02  0.12226943079E+03  0.82341632097E+02 0.  0.
          2    1    6    6  501    0  0.28952798608E+02  0.16785417313E+02  0.19250277066E+02  0.38608133194E+02  0.00000000000E+00 0. -1.
         -1    1    6    6    0  501 -0.57805585543E+02  0.29844658264E+02  0.52602503438E+02  0.83661297593E+02  0.00000000000E+00 0.  1.
          5    1    5    5  502    0 -0.26207009034E+02 -0.67001479979E+02  0.13993245938E+03  0.15741406808E+03  0.47000000000E+01 0. -1.
         11    1    4    4    0    0 -0.92255016427E+01  0.16326512349E+02 -0.89383284847E+01  0.20773988595E+02  0.00000000000E+00 0. -1.
        -12    1    4    4    0    0  0.84093685512E+02 -0.11964615353E+02  0.44710484310E+02  0.95989204449E+02  0.00000000000E+00 0.  1.
         -5    1    3    3    0  504 -0.19808387900E+02  0.16009507405E+02  0.93774576009E+02  0.97285341466E+02  0.47000000000E+01 0.  1.
<mgrwt>
<rscale>  2 0.17952383E+03</rscale>
<asrwt>0</asrwt>
<pdfrwt beam="1">  1       21 0.64235691E-01 0.18267422E+03</pdfrwt>
<pdfrwt beam="2">  1       21 0.11723082E-01 0.18267422E+03</pdfrwt>
<totfact> 0.13729005E+05</totfact>
</mgrwt>
</event>
<event>
12    1  0.2742799E-001  0.2551516E+03  0.7546771E-02  0.1110296E+00
         21   -1    0    0  502  503  0.00000000000E+00  0.00000000000E+00  0.39795155783E+03  0.39795155783E+03  0.00000000000E+00 0.  1.
         21   -1    0    0  503  504 -0.00000000000E+00 -0.00000000000E+00 -0.18311580120E+03  0.18311580120E+03  0.00000000000E+00 0.  1.
         -6    2    1    2    0  504  0.10416703688E+03 -0.15522683591E+03  0.10272018767E+02  0.25403732965E+03  0.17170704215E+03 0.  0.
        -24    2    3    3    0    0 -0.84525147127E+01 -0.90952640855E+02  0.15739373121E+02  0.12416694228E+03  0.82618846548E+02 0.  0.
          6    2    1    2  502    0 -0.10416703688E+03  0.15522683591E+03  0.20456373787E+03  0.32703002938E+03  0.17365533423E+03 0.  0.
         24    2    5    5    0    0 -0.37476544918E+02  0.10687002233E+02  0.43637501989E+02  0.10062612342E+03  0.81869907170E+02 0.  0.
          2    1    6    6  501    0 -0.32958852321E+02 -0.12411394885E+02 -0.14361196497E+02  0.38033835386E+02  0.00000000000E+00 0. -1.
         -1    1    6    6    0  501 -0.45176925965E+01  0.23098397118E+02  0.57998698486E+02  0.62592288039E+02  0.00000000000E+00 0.  1.
          5    1    5    5  502    0 -0.66690491966E+02  0.14453983368E+03  0.16092623588E+03  0.22640390596E+03  0.47000000000E+01 0. -1.
         13    1    4    4    0    0 -0.18265623531E+02  0.29806809139E+01  0.22909060506E+02  0.29450679364E+02  0.00000000000E+00 0. -1.
        -14    1    4    4    0    0  0.98131088182E+01 -0.93933321769E+02 -0.71696873851E+01  0.94716262915E+02  0.00000000000E+00 0.  1.
         -5    1    3    3    0  504  0.11261955160E+03 -0.64274195057E+02 -0.54673543541E+01  0.12987038737E+03  0.47000000000E+01 0.  1.
<mgrwt>
<rscale>  2 0.25482042E+03</rscale>
<asrwt>0</asrwt>
<pdfrwt beam="1">  1       21 0.61223317E-01 0.25515156E+03</pdfrwt>
<pdfrwt beam="2">  1       21 0.28171662E-01 0.25515156E+03</pdfrwt>
<totfact> 0.28952893E+04</totfact>
</mgrwt>
</event>
<event>
12    1  0.2742799E-001  0.1914102E+03  0.7546771E-02  0.1157441E+00
         21   -1    0    0  502  503  0.00000000000E+00  0.00000000000E+00  0.93523452954E+02  0.93523452954E+02  0.00000000000E+00 0.  1.
         21   -1    0    0  503  504 -0.00000000000E+00 -0.00000000000E+00 -0.39500751998E+03  0.39500751998E+03  0.00000000000E+00 0.  1.
         -6    2    1    2    0  504 -0.22496441143E+02  0.77174650803E+02 -0.17912612621E+03  0.26135414263E+03  0.17250449903E+03 0.  0.
        -24    2    3    3    0    0 -0.29523724503E+02  0.10379201026E+03 -0.76866591125E+02  0.15534957173E+03  0.81120804380E+02 0.  0.
          6    2    1    2  502    0  0.22496441143E+02 -0.77174650803E+02 -0.12235794081E+03  0.22717683030E+03  0.17371191656E+03 0.  0.
         24    2    5    5    0    0  0.59812971208E+02 -0.38444462204E+02 -0.13428973217E+03  0.17188660902E+03  0.80347408142E+02 0.  0.
          2    1    6    6  501    0  0.35861259522E+02  0.22118267968E+02 -0.50777502147E+02  0.65981834142E+02  0.00000000000E+00 0. -1.
         -1    1    6    6    0  501  0.23951711686E+02 -0.60562730173E+02 -0.83512230019E+02  0.10590477488E+03  0.00000000000E+00 0.  1.
          5    1    5    5  502    0 -0.37316530065E+02 -0.38730188599E+02  0.11931791353E+02  0.55290221286E+02  0.47000000000E+01 0. -1.
         11    1    4    4    0    0 -0.13894391007E+02 -0.11876534537E+02 -0.10134630284E+02  0.20900165192E+02  0.00000000000E+00 0. -1.
        -12    1    4    4    0    0 -0.15629333496E+02  0.11566854479E+03 -0.66731960841E+02  0.13444940654E+03  0.00000000000E+00 0.  1.
         -5    1    3    3    0  504  0.70272833598E+01 -0.26617359455E+02 -0.10225953508E+03  0.10600457090E+03  0.47000000000E+01 0.  1.
<mgrwt>
<rscale>  2 0.19113579E+03</rscale>
<asrwt>0</asrwt>
<pdfrwt beam="1">  1       21 0.14388223E-01 0.19141015E+03</pdfrwt>
<pdfrwt beam="2">  1       21 0.60770388E-01 0.19141015E+03</pdfrwt>
<totfact> 0.10672974E+05</totfact>
</mgrwt>
</event>
<event>
12    1  0.2742799E-001  0.3001095E+03  0.7546771E-02  0.1085468E+00
         21   -1    0    0  502  503  0.00000000000E+00  0.00000000000E+00  0.26622209087E+03  0.26622209087E+03  0.00000000000E+00 0.  1.
         21   -1    0    0  503  504 -0.00000000000E+00 -0.00000000000E+00 -0.34547183461E+03  0.34547183461E+03  0.00000000000E+00 0.  1.
         -6    2    1    2    0  504 -0.24360449032E+03  0.24662410521E+02 -0.91002391367E+02  0.31360344863E+03  0.17353473877E+03 0.  0.
        -24    2    3    3    0    0 -0.77126536948E+02  0.25636184950E+02  0.48167345448E+01  0.12145961686E+03  0.90130577032E+02 0.  0.
          6    2    1    2  502    0  0.24360449032E+03 -0.24662410521E+02  0.11752647627E+02  0.29809047685E+03  0.16961257461E+03 0.  0.
         24    2    5    5    0    0  0.25417265185E+03 -0.32638189762E+02  0.35885401425E+02  0.27016595540E+03  0.77671700401E+02 0.  0.
          4    1    6    6  501    0  0.19761703264E+03 -0.49719678697E+02  0.49143258587E+02  0.20961774234E+03  0.00000000000E+00 0. -1.
         -3    1    6    6    0  501  0.56555619205E+02  0.17081488935E+02 -0.13257857161E+02  0.60548213057E+02  0.00000000000E+00 0.  1.
          5    1    5    5  502    0 -0.10568161526E+02  0.79757792409E+01 -0.24132753799E+02  0.27924521454E+02  0.47000000000E+01 0. -1.
         13    1    4    4    0    0 -0.83782219321E+02  0.42922563364E+02 -0.13863385389E+02  0.95152510080E+02  0.00000000000E+00 0. -1.
        -14    1    4    4    0    0  0.66556823728E+01 -0.17286378413E+02  0.18680119934E+02  0.26307106782E+02  0.00000000000E+00 0.  1.
         -5    1    3    3    0  504 -0.16647795337E+03 -0.97377442888E+00 -0.95819125911E+02  0.19214383177E+03  0.47000000000E+01 0.  1.
<mgrwt>
<rscale>  2 0.29954518E+03</rscale>
<asrwt>0</asrwt>
<pdfrwt beam="1">  1       21 0.40957245E-01 0.30010946E+03</pdfrwt>
<pdfrwt beam="2">  1       21 0.53149513E-01 0.30010946E+03</pdfrwt>
<totfact> 0.18241032E+04</totfact>
</mgrwt>
</event>
<event>
12    1  0.2742799E-001  0.2125701E+03  0.7546771E-02  0.1139574E+00
         21   -1    0    0  502  503  0.00000000000E+00  0.00000000000E+00  0.32672688310E+03  0.32672688310E+03  0.00000000000E+00 0. -1.
         21   -1    0    0  503  504 -0.00000000000E+00 -0.00000000000E+00 -0.75183702364E+03  0.75183702364E+03  0.00000000000E+00 0. -1.
         -6    2    1    2    0  504  0.45593143170E+02 -0.11500868814E+03 -0.69976697148E+03  0.73134114437E+03  0.17285925495E+03 0.  0.
        -24    2    3    3    0    0  0.91900921861E+02 -0.66582428199E+02 -0.38248320529E+03  0.40702557072E+03  0.80606536418E+02 0.  0.
          6    2    1    2  502    0 -0.45593143170E+02  0.11500868814E+03  0.27465683093E+03  0.34722276237E+03  0.17268913943E+03 0.  0.
         24    2    5    5    0    0 -0.79197362342E+02  0.12254540773E+03  0.26138245936E+03  0.31001598034E+03  0.80619593445E+02 0.  0.
          2    1    6    6  501    0 -0.77807738438E+02  0.94643191183E+02  0.25257589995E+03  0.28072399797E+03  0.00000000000E+00 0. -1.
         -1    1    6    6    0  501 -0.13896239043E+01  0.27902216545E+02  0.88065594096E+01  0.29291982373E+02  0.00000000000E+00 0.  1.
          5    1    5    5  502    0  0.33604219173E+02 -0.75367195881E+01  0.13274371574E+02  0.37206782030E+02  0.47000000000E+01 0. -1.
         13    1    4    4    0    0  0.99833441458E+02 -0.76862250385E+02 -0.35294095325E+03  0.37475570449E+03  0.00000000000E+00 0. -1.
        -14    1    4    4    0    0 -0.79325195966E+01  0.10279822186E+02 -0.29542252040E+02  0.32269866237E+02  0.00000000000E+00 0.  1.
         -5    1    3    3    0  504 -0.46307778691E+02 -0.48426259941E+02 -0.31728376619E+03  0.32431557364E+03  0.47000000000E+01 0.  1.
<mgrwt>
<rscale>  2 0.21253553E+03</rscale>
<asrwt>0</asrwt>
<pdfrwt beam="1">  1       21 0.50265674E-01 0.21257012E+03</pdfrwt>
<pdfrwt beam="2">  1       21 0.11566723E+00 0.21257012E+03</pdfrwt>
<totfact> 0.21401130E+03</totfact>
</mgrwt>
</event>
<event>
12    1  0.2742799E-001  0.2931267E+03  0.7546771E-02  0.1088881E+00
         21   -1    0    0  502  503  0.00000000000E+00  0.00000000000E+00  0.10155359430E+03  0.10155359430E+03  0.00000000000E+00 0. -1.
         21   -1    0    0  503  504 -0.00000000000E+00 -0.00000000000E+00 -0.92505279982E+03  0.92505279982E+03  0.00000000000E+00 0.  1.
         -6    2    1    2    0  504  0.15614396518E+03  0.17730895540E+03 -0.25779001346E+03  0.38946420131E+03  0.17148547909E+03 0.  0.
        -24    2    3    3    0    0  0.68681259924E+02  0.17274048263E+03 -0.19906685588E+03  0.28391281577E+03  0.80140402074E+02 0.  0.
          6    2    1    2  502    0 -0.15614396518E+03 -0.17730895540E+03 -0.56570919206E+03  0.63714219281E+03  0.17350469833E+03 0.  0.
         24    2    5    5    0    0 -0.63881385940E+02 -0.14683403465E+03 -0.25138031470E+03  0.30810444806E+03  0.78071909765E+02 0.  0.
          4    1    6    6  501    0 -0.41576207680E+02 -0.82252795492E+02 -0.74573061704E+02  0.11855481830E+03  0.00000000000E+00 0. -1.
         -3    1    6    6    0  501 -0.22305178260E+02 -0.64581239163E+02 -0.17680725300E+03  0.18954962976E+03  0.00000000000E+00 0.  1.
          5    1    5    5  502    0 -0.92262579240E+02 -0.30474920741E+02 -0.31432887736E+03  0.32903774474E+03  0.47000000000E+01 0. -1.
         13    1    4    4    0    0  0.18861303081E+02  0.38029035521E+02 -0.53895444494E+01  0.42790226524E+02  0.00000000000E+00 0. -1.
        -14    1    4    4    0    0  0.49819956844E+02  0.13471144711E+03 -0.19367731143E+03  0.24112258924E+03  0.00000000000E+00 0.  1.
         -5    1    3    3    0  504  0.87462705255E+02  0.45684727681E+01 -0.58723157586E+02  0.10555138555E+03  0.47000000000E+01 0.  1.
<mgrwt>
<rscale>  2 0.29282862E+03</rscale>
<asrwt>0</asrwt>
<pdfrwt beam="1">  1       21 0.15623629E-01 0.29312674E+03</pdfrwt>
<pdfrwt beam="2">  1       21 0.14231582E+00 0.29312674E+03</pdfrwt>
<totfact> 0.11756759E+04</totfact>
</mgrwt>
</event>
<event>
12    1  0.2742799E-001  0.2912204E+03  0.7546771E-02  0.1089827E+00
         21   -1    0    0  502  503  0.00000000000E+00  0.00000000000E+00  0.28785413769E+03  0.28785413769E+03  0.00000000000E+00 0. -1.
         21   -1    0    0  503  504 -0.00000000000E+00 -0.00000000000E+00 -0.43655933132E+03  0.43655933132E+03  0.00000000000E+00 0.  1.
         -6    2    1    2    0  504  0.18797552451E+03  0.13949538908E+03 -0.28159474433E+03  0.40509862783E+03  0.17324992598E+03 0.  0.
        -24    2    3    3    0    0  0.16352412231E+03  0.15462874741E+03 -0.17865230642E+03  0.29811206266E+03  0.79397526511E+02 0.  0.
          6    2    1    2  502    0 -0.18797552451E+03 -0.13949538908E+03  0.13288955070E+03  0.31931484117E+03  0.17178059762E+03 0.  0.
         24    2    5    5    0    0 -0.30371556095E+02 -0.22587677347E+02  0.93286480900E+01  0.87375602195E+02  0.78197427044E+02 0.  0.
          4    1    6    6  501    0 -0.57446910495E+01 -0.14287359324E+02  0.42518865941E+02  0.45221500115E+02  0.00000000000E+00 0. -1.
         -3    1    6    6    0  501 -0.24626865045E+02 -0.83003180228E+01 -0.33190217851E+02  0.42154102081E+02  0.00000000000E+00 0.  1.
          5    1    5    5  502    0 -0.15760396842E+03 -0.11690771173E+03  0.12356090261E+03  0.23193923898E+03  0.47000000000E+01 0. -1.
         11    1    4    4    0    0  0.10623918958E+03  0.79283543056E+02 -0.57820019000E+02  0.14462295875E+03  0.00000000000E+00 0. -1.
        -12    1    4    4    0    0  0.57284932731E+02  0.75345204352E+02 -0.12083228742E+03  0.15348910391E+03  0.00000000000E+00 0.  1.
         -5    1    3    3    0  504  0.24451402204E+02 -0.15133358328E+02 -0.10294243791E+03  0.10698656517E+03  0.47000000000E+01 0.  1.
<mgrwt>
<rscale>  2 0.29100219E+03</rscale>
<asrwt>0</asrwt>
<pdfrwt beam="1">  1       21 0.44285252E-01 0.29122036E+03</pdfrwt>
<pdfrwt beam="2">  1       21 0.67162974E-01 0.29122036E+03</pdfrwt>
<totfact> 0.93851031E+03</totfact>
</mgrwt>
</event>
<event>
12    1  0.2742799E-001  0.2161532E+03  0.7546771E-02  0.1136811E+00
         21   -1    0    0  502  503  0.00000000000E+00  0.00000000000E+00  0.89006531425E+02  0.89006531425E+02  0.00000000000E+00 0. -1.
         21   -1    0    0  503  504 -0.00000000000E+00 -0.00000000000E+00 -0.52691127253E+03  0.52691127253E+03  0.00000000000E+00 0.  1.
         -6    2    1    2    0  504 -0.25276641427E+02  0.12597046569E+03 -0.19844090689E+03  0.29332651292E+03  0.17364959784E+03 0.  0.
        -24    2    3    3    0    0  0.45592474905E+02  0.87709931033E+02 -0.87894162887E+02  0.15647267567E+03  0.83585935370E+02 0.  0.
          6    2    1    2  502    0  0.25276641427E+02 -0.12597046569E+03 -0.23946383422E+03  0.32259129104E+03  0.17382389458E+03 0.  0.
         24    2    5    5    0    0  0.49221628650E+02 -0.88165899436E+02 -0.24528101620E+03  0.27722084637E+03  0.80576834163E+02 0.  0.
          4    1    6    6  501    0 -0.93660180677E+01 -0.55738965360E+01 -0.97309492634E+02  0.97917965531E+02  0.00000000000E+00 0. -1.
         -3    1    6    6    0  501  0.58587646717E+02 -0.82592002900E+02 -0.14797152357E+03  0.17930288084E+03  0.00000000000E+00 0.  1.
          5    1    5    5  502    0 -0.23944987223E+02 -0.37804566252E+02  0.58171819837E+01  0.45370444662E+02  0.47000000000E+01 0. -1.
         11    1    4    4    0    0  0.43653026780E+02  0.98755230738E+02 -0.53904651141E+02  0.12068095856E+03  0.00000000000E+00 0. -1.
        -12    1    4    4    0    0  0.19394481241E+01 -0.11045299705E+02 -0.33989511747E+02  0.35791717106E+02  0.00000000000E+00 0.  1.
         -5    1    3    3    0  504 -0.70869116331E+02  0.38260534655E+02 -0.11054674400E+03  0.13685383725E+03  0.47000000000E+01 0.  1.
<mgrwt>
<rscale>  2 0.21611817E+03</rscale>
<asrwt>0</asrwt>
<pdfrwt beam="1">  1       21 0.13693313E-01 0.21615322E+03</pdfrwt>
<pdfrwt beam="2">  1       21 0.81063272E-01 0.21615322E+03</pdfrwt>
<totfact> 0.61106902E+04</totfact>
</mgrwt>
</event>
<event>
12    1  0.2742799E-001  0.1863423E+03  0.7546771E-02  0.1163564E+00
         21   -1    0    0  502  503  0.00000000000E+00  0.00000000000E+00  0.12939836714E+03  0.12939836714E+03  0.00000000000E+00 0. -1.
         21   -1    0    0  503  504 -0.00000000000E+00 -0.00000000000E+00 -0.27909083340E+03  0.27909083340E+03  0.00000000000E+00 0. -1.
         -6    2    1    2    0  504 -0.67559700406E+02 -0.18891463709E+02 -0.19750675613E+02  0.18738611148E+03  0.17263332549E+03 0.  0.
        -24    2    3    3    0    0  0.18175613391E+02  0.67407001723E+01  0.24847096605E+02  0.87293138983E+02  0.81405920810E+02 0.  0.
          6    2    1    2  502    0  0.67559700406E+02  0.18891463709E+02 -0.12994179064E+03  0.22110308906E+03  0.16456155844E+03 0.  0.
         24    2    5    5    0    0 -0.46321238773E+01 -0.20003526979E+02 -0.21527219755E+02  0.85087321682E+02  0.79717209292E+02 0.  0.
          4    1    6    6  501    0 -0.61147245961E+01 -0.49338990648E+02 -0.18853238534E+01  0.49752188907E+02  0.00000000000E+00 0. -1.
         -3    1    6    6    0  501  0.14826007188E+01  0.29335463669E+02 -0.19641895902E+02  0.35335132774E+02  0.00000000000E+00 0.  1.
          5    1    5    5  502    0  0.72191824283E+02  0.38894990689E+02 -0.10841457089E+03  0.13601576738E+03  0.47000000000E+01 0. -1.
         13    1    4    4    0    0  0.16777775315E+02  0.22916619595E+02 -0.23139181767E+02  0.36634504651E+02  0.00000000000E+00 0. -1.
        -14    1    4    4    0    0  0.13978380766E+01 -0.16175919423E+02  0.47986278371E+02  0.50658634332E+02  0.00000000000E+00 0.  1.
         -5    1    3    3    0  504 -0.85735313797E+02 -0.25632163882E+02 -0.44597772218E+02  0.10009297250E+03  0.47000000000E+01 0.  1.
<mgrwt>
<rscale>  2 0.18445069E+03</rscale>
<asrwt>0</asrwt>
<pdfrwt beam="1">  1       21 0.19907441E-01 0.18634233E+03</pdfrwt>
<pdfrwt beam="2">  1       21 0.42937051E-01 0.18634233E+03</pdfrwt>
<totfact> 0.12172666E+05</totfact>
</mgrwt>
</event>
<event>
12    1  0.2742799E-001  0.1962794E+03  0.7546771E-02  0.1153008E+00
         21   -1    0    0  502  503  0.00000000000E+00  0.00000000000E+00  0.15246269394E+04  0.15246269394E+04  0.00000000000E+00 0. -1.
         21   -1    0    0  503  504 -0.00000000000E+00 -0.00000000000E+00 -0.36516451949E+02  0.36516451949E+02  0.00000000000E+00 0. -1.
         -6    2    1    2    0  504 -0.40397447434E+02  0.82063789994E+02  0.31035130264E+03  0.36721049833E+03  0.17366404246E+03 0.  0.
        -24    2    3    3    0    0  0.94234772854E+01  0.22539021008E+02  0.26323867655E+03  0.27628738685E+03  0.80270230541E+02 0.  0.
          6    2    1    2  502    0  0.40397447434E+02 -0.82063789994E+02  0.11777591848E+04  0.11939328930E+04  0.17318382213E+03 0.  0.
         24    2    5    5    0    0  0.67015110051E+02 -0.10901036947E+03  0.10411168552E+04  0.10520602941E+04  0.80822462353E+02 0.  0.
          4    1    6    6  501    0 -0.10762973931E+01 -0.69343851872E+02  0.38144881280E+03  0.38770210857E+03  0.00000000000E+00 0. -1.
         -3    1    6    6    0  501  0.68091407444E+02 -0.39666517600E+02  0.65966804245E+03  0.66435818548E+03  0.00000000000E+00 0.  1.
          5    1    5    5  502    0 -0.26617662617E+02  0.26946579478E+02  0.13664232953E+03  0.14187259893E+03  0.47000000000E+01 0. -1.
         13    1    4    4    0    0 -0.81291521133E+01  0.21977278515E+02  0.15880960734E+02  0.28307045039E+02  0.00000000000E+00 0. -1.
        -14    1    4    4    0    0  0.17552629399E+02  0.56174249279E+00  0.24735771582E+03  0.24798034182E+03  0.00000000000E+00 0.  1.
         -5    1    3    3    0  504 -0.49820924719E+02  0.59524768986E+02  0.47112626092E+02  0.90923111474E+02  0.47000000000E+01 0.  1.
<mgrwt>
<rscale>  2 0.19617316E+03</rscale>
<asrwt>0</asrwt>
<pdfrwt beam="1">  1       21 0.23455794E+00 0.19627944E+03</pdfrwt>
<pdfrwt beam="2">  1       21 0.56179168E-02 0.19627944E+03</pdfrwt>
<totfact> 0.18059914E+04</totfact>
</mgrwt>
</event>
<event>
12    1  0.2742799E-001  0.2692890E+03  0.7546771E-02  0.1101908E+00
         21   -1    0    0  502  503  0.00000000000E+00  0.00000000000E+00  0.14550647458E+03  0.14550647458E+03  0.00000000000E+00 0. -1.
         21   -1    0    0  503  504 -0.00000000000E+00 -0.00000000000E+00 -0.61081417401E+03  0.61081417401E+03  0.00000000000E+00 0.  1.
         -6    2    1    2    0  504 -0.19671686115E+03 -0.62364318619E+02 -0.39639661411E+03  0.47835430594E+03  0.17060402879E+03 0.  0.
        -24    2    3    3    0    0 -0.79157738046E+02  0.15422072543E+02 -0.24905020836E+03  0.27438390769E+03  0.82199359498E+02 0.  0.
          6    2    1    2  502    0  0.19671686115E+03  0.62364318619E+02 -0.68911085321E+02  0.27796634265E+03  0.17300207590E+03 0.  0.
         24    2    5    5    0    0  0.13844422739E+03  0.21716770540E+02  0.20905941908E+02  0.16334910402E+03  0.81286217504E+02 0.  0.
          2    1    6    6  501    0  0.14615635487E+03  0.30363173471E+02  0.24377061500E+02  0.15125423465E+03  0.00000000000E+00 0. -1.
         -1    1    6    6    0  501 -0.77121274779E+01 -0.86464029304E+01 -0.34711195920E+01  0.12094869371E+02  0.00000000000E+00 0.  1.
          5    1    5    5  502    0  0.58272633764E+02  0.40647548079E+02 -0.89817027228E+02  0.11461723863E+03  0.47000000000E+01 0. -1.
         11    1    4    4    0    0 -0.25621721835E+01  0.11445733326E+02  0.19827025332E+01  0.11895404449E+02  0.00000000000E+00 0. -1.
        -12    1    4    4    0    0 -0.76595565863E+02  0.39763392169E+01 -0.25103291089E+03  0.26248850324E+03  0.00000000000E+00 0.  1.
         -5    1    3    3    0  504 -0.11755912311E+03 -0.77786391162E+02 -0.14734640575E+03  0.20397039825E+03  0.47000000000E+01 0.  1.
<mgrwt>
<rscale>  2 0.26890457E+03</rscale>
<asrwt>0</asrwt>
<pdfrwt beam="1">  1       21 0.22385612E-01 0.26928897E+03</pdfrwt>
<pdfrwt beam="2">  1       21 0.93971411E-01 0.26928897E+03</pdfrwt>
<totfact> 0.17012470E+04</totfact>
</mgrwt>
</event>
<event>
12    1  0.2742799E-001  0.1877782E+03  0.7546771E-02  0.1161106E+00
         21   -1    0    0  502  503  0.00000000000E+00  0.00000000000E+00  0.40977944515E+02  0.40977944515E+02  0.00000000000E+00 0. -1.
         21   -1    0    0  503  504 -0.00000000000E+00 -0.00000000000E+00 -0.11728142099E+04  0.11728142099E+04  0.00000000000E+00 0.  1.
         -6    2    1    2    0  504 -0.43194544797E+02 -0.51616588586E+02 -0.88227108776E+03  0.90147272774E+03  0.17239711614E+03 0.  0.
        -24    2    3    3    0    0 -0.37477827371E+02 -0.78417964230E+02 -0.37393727871E+03  0.39237907623E+03  0.81106635930E+02 0.  0.
          6    2    1    2  502    0  0.43194544797E+02  0.51616588586E+02 -0.24956517763E+03  0.31231942667E+03  0.17530147026E+03 0.  0.
         24    2    5    5    0    0  0.49400083483E+02  0.66858472936E+02 -0.76245259887E+02  0.13815654993E+03  0.79771354398E+02 0.  0.
          2    1    6    6  501    0  0.30767160378E+02  0.40569349587E+02  0.46024084478E+01  0.51124088717E+02  0.00000000000E+00 0. -1.
         -1    1    6    6    0  501  0.18632923105E+02  0.26289123348E+02 -0.80847668335E+02  0.87032461215E+02  0.00000000000E+00 0.  1.
          5    1    5    5  502    0 -0.62055386855E+01 -0.15241884350E+02 -0.17331991774E+03  0.17416287674E+03  0.47000000000E+01 0. -1.
         13    1    4    4    0    0 -0.25776830451E+02  0.32093630753E-01 -0.30653558086E+02  0.40051050441E+02  0.00000000000E+00 0. -1.
        -14    1    4    4    0    0 -0.11700996919E+02 -0.78450057861E+02 -0.34328372063E+03  0.35232802579E+03  0.00000000000E+00 0.  1.
         -5    1    3    3    0  504 -0.57167174270E+01  0.26801375644E+02 -0.50833380904E+03  0.50909365151E+03  0.47000000000E+01 0.  1.
<mgrwt>
<rscale>  2 0.18709738E+03</rscale>
<asrwt>0</asrwt>
<pdfrwt beam="1">  1       21 0.63042997E-02 0.18777818E+03</pdfrwt>
<pdfrwt beam="2">  1       21 0.18043294E+00 0.18777818E+03</pdfrwt>
<totfact> 0.32844458E+04</totfact>
</mgrwt>
</event>
<event>
12    1  0.2742799E-001  0.2158908E+03  0.7546771E-02  0.1137304E+00
         21   -1    0    0  502  503  0.00000000000E+00  0.00000000000E+00  0.32132263129E+03  0.32132263129E+03  0.00000000000E+00 0.  1.
         21   -1    0    0  503  504 -0.00000000000E+00 -0.00000000000E+00 -0.14813455993E+03  0.14813455993E+03  0.00000000000E+00 0.  1.
         -6    2    1    2    0  504  0.85267428863E+00 -0.12717921542E+03  0.46748612356E+02  0.21926573170E+03  0.17238546473E+03 0.  0.
        -24    2    3    3    0    0 -0.62657655444E+02 -0.73252364837E+02  0.48773668028E+02  0.13579203496E+03  0.82272202632E+02 0.  0.
          6    2    1    2  502    0 -0.85267428863E+00  0.12717921542E+03  0.12643945900E+03  0.25019145952E+03  0.17445214169E+03 0.  0.
         24    2    5    5    0    0  0.10422550413E+02  0.15890211584E+03  0.87822123841E+02  0.19874379993E+03  0.80173939655E+02 0.  0.
          4    1    6    6  501    0 -0.32108079180E+01  0.84510315093E+02  0.89444071523E+02  0.12309567245E+03  0.00000000000E+00 0. -1.
         -3    1    6    6    0  501  0.13633358331E+02  0.74391800743E+02 -0.16219476820E+01  0.75648127481E+02  0.00000000000E+00 0.  1.
          5    1    5    5  502    0 -0.11275224702E+02 -0.31722900421E+02  0.38617335156E+02  0.51447659594E+02  0.47000000000E+01 0. -1.
         13    1    4    4    0    0 -0.34555634142E+01  0.66197843008E+01 -0.15638220092E+02  0.17329639071E+02  0.00000000000E+00 0. -1.
        -14    1    4    4    0    0 -0.59202092030E+02 -0.79872149138E+02  0.64411888120E+02  0.11846239589E+03  0.00000000000E+00 0.  1.
         -5    1    3    3    0  504  0.63510329733E+02 -0.53926850578E+02 -0.20250556720E+01  0.83473696735E+02  0.47000000000E+01 0.  1.
<mgrwt>
<rscale>  2 0.21547294E+03</rscale>
<asrwt>0</asrwt>
<pdfrwt beam="1">  1       21 0.49434251E-01 0.21589078E+03</pdfrwt>
<pdfrwt beam="2">  1       21 0.22789932E-01 0.21589078E+03</pdfrwt>
<totfact> 0.69748555E+04</totfact>
</mgrwt>
</event>
<event>
12    1  0.2742799E-001  0.2169651E+03  0.7546771E-02  0.1137297E+00
         21   -1    0    0  502  503  0.00000000000E+00  0.00000000000E+00  0.22258340073E+03  0.22258340073E+03  0.00000000000E+00 0. -1.
         21   -1    0    0  503  504 -0.00000000000E+00 -0.00000000000E+00 -0.23145910647E+03  0.23145910647E+03  0.00000000000E+00 0. -1.
         -6    2    1    2    0  504 -0.69927311390E+02  0.99668259621E+02 -0.79962621740E+02  0.22572863318E+03  0.17244072636E+03 0.  0.
        -24    2    3    3    0    0 -0.54264035334E+02  0.12786805445E+03 -0.26734294158E+02  0.16331139596E+03  0.81615345885E+02 0.  0.
          6    2    1    2  502    0  0.69927311390E+02 -0.99668259621E+02  0.71086916004E+02  0.22831387403E+03  0.17958364233E+03 0.  0.
         24    2    5    5    0    0  0.17142898249E+02  0.18017949268E+02  0.47024198329E+02  0.97022814105E+02  0.81139545058E+02 0.  0.
          4    1    6    6  501    0  0.45878881521E+02  0.15438343902E+01  0.44288763653E+02  0.63786752388E+02  0.00000000000E+00 0. -1.
         -3    1    6    6    0  501 -0.28735983272E+02  0.16474114878E+02  0.27354346763E+01  0.33236061718E+02  0.00000000000E+00 0.  1.
          5    1    5    5  502    0  0.52784413141E+02 -0.11768620889E+03  0.24062717674E+02  0.13129105992E+03  0.47000000000E+01 0. -1.
         13    1    4    4    0    0 -0.43623119296E+02  0.61594160852E+02 -0.51929305204E+02  0.91615882504E+02  0.00000000000E+00 0. -1.
        -14    1    4    4    0    0 -0.10640916039E+02  0.66273893603E+02  0.25195011045E+02  0.71695513451E+02  0.00000000000E+00 0.  1.
         -5    1    3    3    0  504 -0.15663276056E+02 -0.28199794834E+02 -0.53228327582E+02  0.62417237224E+02  0.47000000000E+01 0.  1.
<mgrwt>
<rscale>  2 0.21548145E+03</rscale>
<asrwt>0</asrwt>
<pdfrwt beam="1">  1       21 0.34243600E-01 0.21696515E+03</pdfrwt>
<pdfrwt beam="2">  1       21 0.35609093E-01 0.21696515E+03</pdfrwt>
<totfact> 0.61807698E+04</totfact>
</mgrwt>
</event>
<event>
12    1  0.2742799E-001  0.2052908E+03  0.7546771E-02  0.1145497E+00
         21   -1    0    0  502  503  0.00000000000E+00  0.00000000000E+00  0.10992270751E+04  0.10992270751E+04  0.00000000000E+00 0. -1.
         21   -1    0    0  503  504 -0.00000000000E+00 -0.00000000000E+00 -0.87993203031E+02  0.87993203031E+02  0.00000000000E+00 0. -1.
         -6    2    1    2    0  504  0.89010901339E+02 -0.46754725911E+02  0.59486698604E+02  0.21373579962E+03  0.17898430036E+03 0.  0.
        -24    2    3    3    0    0  0.38696221811E+01 -0.21947663051E+02  0.78059551015E+02  0.12300835818E+03  0.92418011165E+02 0.  0.
          6    2    1    2  502    0 -0.89010901339E+02  0.46754725911E+02  0.95174717346E+03  0.97348447850E+03  0.17815836424E+03 0.  0.
         24    2    5    5    0    0  0.50072291461E+01 -0.13352263726E+02  0.58004643964E+03  0.58536621743E+03  0.77436303305E+02 0.  0.
          4    1    6    6  501    0 -0.82406919198E+01 -0.36351334525E+02  0.49190735404E+03  0.49331751792E+03  0.00000000000E+00 0. -1.
         -3    1    6    6    0  501  0.13247921066E+02  0.22999070799E+02  0.88139085602E+02  0.92048699507E+02  0.00000000000E+00 0.  1.
          5    1    5    5  502    0 -0.94018130485E+02  0.60106989637E+02  0.37170073381E+03  0.38811826108E+03  0.47000000000E+01 0. -1.
         13    1    4    4    0    0 -0.44881773679E+01  0.93498632587E+01 -0.18473057061E+02  0.21185313692E+02  0.00000000000E+00 0. -1.
        -14    1    4    4    0    0  0.83577995490E+01 -0.31297526310E+02  0.96532608076E+02  0.10182304449E+03  0.00000000000E+00 0.  1.
         -5    1    3    3    0  504  0.85141279158E+02 -0.24807062860E+02 -0.18572852411E+02  0.90727441444E+02  0.47000000000E+01 0.  1.
<mgrwt>
<rscale>  2 0.20511067E+03</rscale>
<asrwt>0</asrwt>
<pdfrwt beam="1">  1       21 0.16911185E+00 0.20529083E+03</pdfrwt>
<pdfrwt beam="2">  1       21 0.13537417E-01 0.20529083E+03</pdfrwt>
<totfact> 0.10128308E+04</totfact>
</mgrwt>
</event>
<event>
12    1  0.2742799E-001  0.2328718E+03  0.7546771E-02  0.1125568E+00
         21   -1    0    0  502  503  0.00000000000E+00  0.00000000000E+00  0.22683883936E+03  0.22683883936E+03  0.00000000000E+00 0.  1.
         21   -1    0    0  503  504 -0.00000000000E+00 -0.00000000000E+00 -0.24088460325E+03  0.24088460325E+03  0.00000000000E+00 0. -1.
         -6    2    1    2    0  504  0.55416165155E+02 -0.13836481696E+03 -0.47523033344E+02  0.23245764462E+03  0.17193703473E+03 0.  0.
        -24    2    3    3    0    0 -0.16226992899E+02 -0.13208335593E+03 -0.40715396598E+02  0.16006542980E+03  0.79081414279E+02 0.  0.
          6    2    1    2  502    0 -0.55416165155E+02  0.13836481696E+03  0.33477269455E+02  0.23526579799E+03  0.17892315166E+03 0.  0.
         24    2    5    5    0    0  0.15284570449E+02  0.33387203743E+02  0.59408948712E+02  0.10598534595E+03  0.79719175237E+02 0.  0.
          2    1    6    6  501    0  0.38190423527E+02 -0.76236757056E+01  0.37825487582E+02  0.54289929004E+02  0.00000000000E+00 0. -1.
         -1    1    6    6    0  501 -0.22905853078E+02  0.41010879449E+02  0.21583461130E+02  0.51695416941E+02  0.00000000000E+00 0.  1.
          5    1    5    5  502    0 -0.70700735604E+02  0.10497761322E+03 -0.25931679257E+02  0.12928045205E+03  0.47000000000E+01 0. -1.
         11    1    4    4    0    0 -0.18052510091E+02  0.41524453073E+01 -0.58768375951E+01  0.19433814416E+02  0.00000000000E+00 0. -1.
        -12    1    4    4    0    0  0.18255171919E+01 -0.13623580124E+03 -0.34838559003E+02  0.14063161539E+03  0.00000000000E+00 0.  1.
         -5    1    3    3    0  504  0.71643158055E+02 -0.62814610306E+01 -0.68076367459E+01  0.72392214822E+02  0.47000000000E+01 0.  1.
<mgrwt>
<rscale>  2 0.23152929E+03</rscale>
<asrwt>0</asrwt>
<pdfrwt beam="1">  1       21 0.34898283E-01 0.23287178E+03</pdfrwt>
<pdfrwt beam="2">  1       21 0.37059170E-01 0.23287178E+03</pdfrwt>
<totfact> 0.54584650E+04</totfact>
</mgrwt>
</event>
<event>
12    1  0.2742799E-001  0.2747571E+03  0.7546771E-02  0.1098645E+00
         21   -1    0    0  502  503  0.00000000000E+00  0.00000000000E+00  0.51101574688E+03  0.51101574688E+03  0.00000000000E+00 0. -1.
         21   -1    0    0  503  504 -0.00000000000E+00 -0.00000000000E+00 -0.15388396614E+03  0.15388396614E+03  0.00000000000E+00 0.  1.
         -6    2    1    2    0  504  0.16638620317E+03 -0.13148603873E+03  0.24610667467E+03  0.36855862647E+03  0.17405177057E+03 0.  0.
        -24    2    3    3    0    0  0.14598425595E+03 -0.41406574267E+02  0.20324200715E+03  0.26662718338E+03  0.82199963922E+02 0.  0.
          6    2    1    2  502    0 -0.16638620317E+03  0.13148603873E+03  0.11102510607E+03  0.29634108654E+03  0.17469550197E+03 0.  0.
         24    2    5    5    0    0 -0.13821189929E+03  0.29966546782E+02  0.33895745303E+02  0.16568494648E+03  0.79385495581E+02 0.  0.
          2    1    6    6  501    0 -0.11401215056E+03  0.45266226121E+02  0.50420938482E+02  0.13262757156E+03  0.00000000000E+00 0. -1.
         -1    1    6    6    0  501 -0.24199748733E+02 -0.15299679339E+02 -0.16525193178E+02  0.33057374914E+02  0.00000000000E+00 0.  1.
          5    1    5    5  502    0 -0.28174303881E+02  0.10151949195E+03  0.77129360767E+02  0.13065614007E+03  0.47000000000E+01 0. -1.
         13    1    4    4    0    0  0.91037678845E+02 -0.53395718920E+02  0.17331395518E+03  0.20292040023E+03  0.00000000000E+00 0. -1.
        -14    1    4    4    0    0  0.54946577103E+02  0.11989144654E+02  0.29928051974E+02  0.63706783154E+02  0.00000000000E+00 0.  1.
         -5    1    3    3    0  504  0.20401947222E+02 -0.90079464465E+02  0.42864667519E+02  0.10193144309E+03  0.47000000000E+01 0.  1.
<mgrwt>
<rscale>  2 0.27465483E+03</rscale>
<asrwt>0</asrwt>
<pdfrwt beam="1">  1       21 0.78617806E-01 0.27475710E+03</pdfrwt>
<pdfrwt beam="2">  1       21 0.23674457E-01 0.27475710E+03</pdfrwt>
<totfact> 0.23049631E+04</totfact>
</mgrwt>
</event>
<event>
12    1  0.2742799E-001  0.2292611E+03  0.7546771E-02  0.1127421E+00
         21   -1    0    0  502  503  0.00000000000E+00  0.00000000000E+00  0.11120432502E+04  0.11120432502E+04  0.00000000000E+00 0.  1.
         21   -1    0    0  503  504 -0.00000000000E+00 -0.00000000000E+00 -0.77366407664E+02  0.77366407664E+02  0.00000000000E+00 0.  1.
         -6    2    1    2    0  504  0.12267711151E+03  0.88650791923E+02  0.14553791411E+03  0.27155465499E+03  0.17219758885E+03 0.  0.
        -24    2    3    3    0    0  0.15361315248E+03  0.69371543097E+02  0.13553768669E+03  0.23346498954E+03  0.87897811229E+02 0.  0.
          6    2    1    2  502    0 -0.12267711151E+03 -0.88650791923E+02  0.88913892839E+03  0.91785500284E+03  0.17023846703E+03 0.  0.
         24    2    5    5    0    0 -0.15294447261E+03 -0.79362549369E+02  0.67002403693E+03  0.69641469427E+03  0.79817231168E+02 0.  0.
          2    1    6    6  501    0 -0.82142544249E+02 -0.70303404226E+02  0.50777824055E+03  0.51916154306E+03  0.00000000000E+00 0. -1.
         -1    1    6    6    0  501 -0.70801928360E+02 -0.90591451431E+01  0.16224579638E+03  0.17725315121E+03  0.00000000000E+00 0.  1.
          5    1    5    5  502    0  0.30267361098E+02 -0.92882425537E+01  0.21911489146E+03  0.22144030857E+03  0.47000000000E+01 0. -1.
         11    1    4    4    0    0 -0.42842034632E+01 -0.79731698511E+01  0.22983160755E+02  0.24701245213E+02  0.00000000000E+00 0. -1.
        -12    1    4    4    0    0  0.15789735594E+03  0.77344712948E+02  0.11255452594E+03  0.20876374432E+03  0.00000000000E+00 0.  1.
         -5    1    3    3    0  504 -0.30936040968E+02  0.19279248826E+02  0.10000227419E+02  0.38089665455E+02  0.47000000000E+01 0.  1.
<mgrwt>
<rscale>  2 0.22889325E+03</rscale>
<asrwt>0</asrwt>
<pdfrwt beam="1">  1       21 0.17108357E+00 0.22926109E+03</pdfrwt>
<pdfrwt beam="2">  1       21 0.11902525E-01 0.22926109E+03</pdfrwt>
<totfact> 0.12157842E+04</totfact>
</mgrwt>
</event>
<event>
12    1  0.2742799E-001  0.1964720E+03  0.7546771E-02  0.1152959E+00
         21   -1    0    0  502  503  0.00000000000E+00  0.00000000000E+00  0.44708164867E+03  0.44708164867E+03  0.00000000000E+00 0. -1.
         21   -1    0    0  503  504 -0.00000000000E+00 -0.00000000000E+00 -0.10136569989E+03  0.10136569989E+03  0.00000000000E+00 0. -1.
         -6    2    1    2    0  504 -0.66872933181E+02  0.61929165866E+02  0.65443366675E+02  0.20616971327E+03  0.17296215092E+03 0.  0.
        -24    2    3    3    0    0  0.30456321745E+02  0.16077974791E+02  0.46688978476E+02  0.96857624894E+02  0.77559332008E+02 0.  0.
          6    2    1    2  502    0  0.66872933181E+02 -0.61929165866E+02  0.28027258211E+03  0.34227763530E+03  0.17405185597E+03 0.  0.
         24    2    5    5    0    0  0.10324377577E+03 -0.53802049218E+02  0.14918069213E+03  0.20591025711E+03  0.81180153639E+02 0.  0.
          4    1    6    6  501    0  0.52653288716E+02 -0.49687256591E+02  0.13503628474E+03  0.15321876673E+03  0.00000000000E+00 0. -1.
         -3    1    6    6    0  501  0.50590487052E+02 -0.41147926268E+01  0.14144407383E+02  0.52691490383E+02  0.00000000000E+00 0.  1.
          5    1    5    5  502    0 -0.36370842587E+02 -0.81271166477E+01  0.13109188998E+03  0.13636737819E+03  0.47000000000E+01 0. -1.
         13    1    4    4    0    0 -0.23132236793E+02  0.20516893936E+01 -0.17273193917E+01  0.23287194779E+02  0.00000000000E+00 0. -1.
        -14    1    4    4    0    0  0.53588558538E+02  0.14026285397E+02  0.48416297867E+02  0.73570430115E+02  0.00000000000E+00 0.  1.
         -5    1    3    3    0  504 -0.97329254926E+02  0.45851191075E+02  0.18754388199E+02  0.10931208837E+03  0.47000000000E+01 0.  1.
<mgrwt>
<rscale>  2 0.19623041E+03</rscale>
<asrwt>0</asrwt>
<pdfrwt beam="1">  1       21 0.68781791E-01 0.19647203E+03</pdfrwt>
<pdfrwt beam="2">  1       21 0.15594723E-01 0.19647203E+03</pdfrwt>
<totfact> 0.70258709E+04</totfact>
</mgrwt>
</event>
<event>
12    1  0.2742799E-001  0.2496170E+03  0.7546771E-02  0.1113642E+00
         21   -1    0    0  502  503  0.00000000000E+00  0.00000000000E+00  0.35593903368E+03  0.35593903368E+03  0.00000000000E+00 0.  1.
         21   -1    0    0  503  504 -0.00000000000E+00 -0.00000000000E+00 -0.17731998363E+03  0.17731998363E+03  0.00000000000E+00 0. -1.
         -6    2    1    2    0  504 -0.17085664235E+03  0.55492626859E+02  0.56605127439E+02  0.25595469080E+03  0.17331254836E+03 0.  0.
        -24    2    3    3    0    0 -0.37800403755E+02  0.64541163255E+02  0.55510533491E+02  0.12250385050E+03  0.79569729054E+02 0.  0.
          6    2    1    2  502    0  0.17085664235E+03 -0.55492626859E+02  0.12201392261E+03  0.27730432651E+03  0.17244961096E+03 0.  0.
         24    2    5    5    0    0  0.53620918637E+02 -0.13730021963E+02 -0.37657270664E+01  0.10029884537E+03  0.83558131040E+02 0.  0.
          4    1    6    6  501    0  0.41103224292E+02  0.17653433305E+02  0.28936529331E+02  0.53277025859E+02  0.00000000000E+00 0. -1.
         -3    1    6    6    0  501  0.12517694345E+02 -0.31383455268E+02 -0.32702256397E+02  0.47021819507E+02  0.00000000000E+00 0.  1.
          5    1    5    5  502    0  0.11723572371E+03 -0.41762604896E+02  0.12577964968E+03  0.17700548114E+03  0.47000000000E+01 0. -1.
         11    1    4    4    0    0 -0.46119321012E+02  0.44935194471E+01  0.11946261705E+02  0.47852864662E+02  0.00000000000E+00 0. -1.
        -12    1    4    4    0    0  0.83189172567E+01  0.60047643808E+02  0.43564271785E+02  0.74650985843E+02  0.00000000000E+00 0.  1.
         -5    1    3    3    0  504 -0.13305623859E+03 -0.90485363956E+01  0.10945939487E+01  0.13345084029E+03  0.47000000000E+01 0.  1.
<mgrwt>
<rscale>  2 0.24946730E+03</rscale>
<asrwt>0</asrwt>
<pdfrwt beam="1">  1       21 0.54759851E-01 0.24961703E+03</pdfrwt>
<pdfrwt beam="2">  1       21 0.27279997E-01 0.24961703E+03</pdfrwt>
<totfact> 0.39264132E+04</totfact>
</mgrwt>
</event>
<event>
12    1  0.2742799E-001  0.2159494E+03  0.7546771E-02  0.1138045E+00
         21   -1    0    0  502  503  0.00000000000E+00  0.00000000000E+00  0.48476688901E+02  0.48476688901E+02  0.00000000000E+00 0. -1.
         21   -1    0    0  503  504 -0.00000000000E+00 -0.00000000000E+00 -0.10372049901E+04  0.10372049901E+04  0.00000000000E+00 0.  1.
         -6    2    1    2    0  504 -0.97084802585E+02  0.69846075125E+02 -0.65731817977E+03  0.69012284511E+03  0.17291159239E+03 0.  0.
        -24    2    3    3    0    0 -0.13518403455E+03  0.44051170890E+02 -0.53438540303E+03  0.55877793216E+03  0.80310582396E+02 0.  0.
          6    2    1    2  502    0  0.97084802585E+02 -0.69846075125E+02 -0.33141012141E+03  0.39555883387E+03  0.17980597704E+03 0.  0.
         24    2    5    5    0    0  0.78432410623E+02 -0.28247521895E+01 -0.29808701845E+03  0.31827824999E+03  0.79281470655E+02 0.  0.
          2    1    6    6  501    0  0.90571104636E+02  0.44424579407E+01 -0.20551575434E+03  0.22463211193E+03  0.00000000000E+00 0. -1.
         -1    1    6    6    0  501 -0.12138694014E+02 -0.72672101302E+01 -0.92571264109E+02  0.93646138064E+02  0.00000000000E+00 0.  1.
          5    1    5    5  502    0  0.18652391962E+02 -0.67021322935E+02 -0.33323102961E+02  0.77280583880E+02  0.47000000000E+01 0. -1.
         11    1    4    4    0    0 -0.65128376833E+02 -0.20246651658E+02 -0.22454097902E+03  0.23467058535E+03  0.00000000000E+00 0. -1.
        -12    1    4    4    0    0 -0.70055657714E+02  0.64297822548E+02 -0.30984442401E+03  0.32410734680E+03  0.00000000000E+00 0.  1.
         -5    1    3    3    0  504  0.38099231962E+02  0.25794904235E+02 -0.12293277674E+03  0.13134491295E+03  0.47000000000E+01 0.  1.
<mgrwt>
<rscale>  2 0.21450855E+03</rscale>
<asrwt>0</asrwt>
<pdfrwt beam="1">  1       21 0.74579523E-02 0.21594935E+03</pdfrwt>
<pdfrwt beam="2">  1       21 0.15956999E+00 0.21594935E+03</pdfrwt>
<totfact> 0.33880029E+04</totfact>
</mgrwt>
</event>
<event>
12    1  0.2742799E-001  0.1912126E+03  0.7546771E-02  0.1157632E+00
         21   -1    0    0  502  503  0.00000000000E+00  0.00000000000E+00  0.15783743081E+03  0.15783743081E+03  0.00000000000E+00 0.  1.
         21   -1    0    0  503  504 -0.00000000000E+00 -0.00000000000E+00 -0.29470011899E+03  0.29470011899E+03  0.00000000000E+00 0.  1.
         -6    2    1    2    0  504 -0.41016741333E+02 -0.68041595092E+02  0.37549861511E+02  0.19372877330E+03  0.17265229154E+03 0.  0.
        -24    2    3    3    0    0 -0.41111727220E+02 -0.30838408254E+02 -0.43243972288E+02  0.10465678156E+03  0.80260944728E+02 0.  0.
          6    2    1    2  502    0  0.41016741333E+02  0.68041595092E+02 -0.17441254968E+03  0.25880877650E+03  0.17392588529E+03 0.  0.
         24    2    5    5    0    0  0.21817718044E+02  0.10660463398E+02 -0.17907764187E+03  0.19793965580E+03  0.80756716252E+02 0.  0.
          2    1    6    6  501    0 -0.66377126223E+01  0.39196568965E+02 -0.12010025586E+03  0.12650889971E+03  0.00000000000E+00 0. -1.
         -1    1    6    6    0  501  0.28455430666E+02 -0.28536105566E+02 -0.58977386003E+02  0.71430756086E+02  0.00000000000E+00 0.  1.
          5    1    5    5  502    0  0.19199023289E+02  0.57381131694E+02  0.46650921827E+01  0.60869120700E+02  0.47000000000E+01 0. -1.
         13    1    4    4    0    0 -0.33038133126E+01 -0.51905511580E+02 -0.24464154817E+02  0.57476883925E+02  0.00000000000E+00 0. -1.
        -14    1    4    4    0    0 -0.37807913908E+02  0.21067103326E+02 -0.18779817471E+02  0.47179897635E+02  0.00000000000E+00 0.  1.
         -5    1    3    3    0  504  0.94985887471E-01 -0.37203186838E+02  0.80793833799E+02  0.89071991744E+02  0.47000000000E+01 0.  1.
<mgrwt>
<rscale>  2 0.19092248E+03</rscale>
<asrwt>0</asrwt>
<pdfrwt beam="1">  1       21 0.24282682E-01 0.19121257E+03</pdfrwt>
<pdfrwt beam="2">  1       21 0.45338480E-01 0.19121257E+03</pdfrwt>
<totfact> 0.74759559E+04</totfact>
</mgrwt>
</event>
<event>
12    1  0.2742799E-001  0.2143544E+03  0.7546771E-02  0.1138172E+00
         21   -1    0    0  502  503  0.00000000000E+00  0.00000000000E+00  0.46365698463E+02  0.46365698463E+02  0.00000000000E+00 0. -1.
         21   -1    0    0  503  504 -0.00000000000E+00 -0.00000000000E+00 -0.10064557989E+04  0.10064557989E+04  0.00000000000E+00 0. -1.
         -6    2    1    2    0  504 -0.11457092971E+03  0.54718863976E+02 -0.41439188495E+03  0.46654952178E+03  0.17270544273E+03 0.  0.
        -24    2    3    3    0    0 -0.13508101546E+03  0.70979839599E+02 -0.40322169270E+03  0.43770604522E+03  0.75589881495E+02 0.  0.
          6    2    1    2  502    0  0.11457092971E+03 -0.54718863976E+02 -0.54569821552E+03  0.58627197561E+03  0.17264887767E+03 0.  0.
         24    2    5    5    0    0  0.93725966233E+02 -0.98215384425E+02 -0.33656471204E+03  0.37159693731E+03  0.79860252594E+02 0.  0.
          2    1    6    6  501    0  0.58099600448E+02 -0.34971361486E+02 -0.79563708988E+02  0.10454158734E+03  0.00000000000E+00 0. -1.
         -1    1    6    6    0  501  0.35626365785E+02 -0.63244022939E+02 -0.25700100305E+03  0.26705534996E+03  0.00000000000E+00 0.  1.
          5    1    5    5  502    0  0.20844963479E+02  0.43496520449E+02 -0.20913350348E+03  0.21467503831E+03  0.47000000000E+01 0. -1.
         11    1    4    4    0    0 -0.12052100163E+03  0.40799395399E+02 -0.24605812420E+03  0.27700993300E+03  0.00000000000E+00 0. -1.
        -12    1    4    4    0    0 -0.14560013831E+02  0.30180444201E+02 -0.15716356851E+03  0.16069611221E+03  0.00000000000E+00 0.  1.
         -5    1    3    3    0  504  0.20510085746E+02 -0.16260975624E+02 -0.11170192249E+02  0.28843476566E+02  0.47000000000E+01 0.  1.
<mgrwt>
<rscale>  2 0.21434304E+03</rscale>
<asrwt>0</asrwt>
<pdfrwt beam="1">  1       21 0.71331841E-02 0.21435443E+03</pdfrwt>
<pdfrwt beam="2">  1       21 0.15483936E+00 0.21435443E+03</pdfrwt>
<totfact> 0.39728409E+04</totfact>
</mgrwt>
</event>
<event>
12    1  0.2742799E-001  0.2794210E+03  0.7546771E-02  0.1096294E+00
         21   -1    0    0  502  503  0.00000000000E+00  0.00000000000E+00  0.18382697134E+04  0.18382697134E+04  0.00000000000E+00 0. -1.
         21   -1    0    0  503  504 -0.00000000000E+00 -0.00000000000E+00 -0.46402309710E+02  0.46402309710E+02  0.00000000000E+00 0. -1.
         -6    2    1    2    0  504  0.15222152722E+02 -0.21908911740E+03  0.60776654181E+03  0.66804925494E+03  0.16934545280E+03 0.  0.
        -24    2    3    3    0    0 -0.33671633666E+02 -0.96295673242E+02  0.19552074383E+03  0.23510870448E+03  0.81492981645E+02 0.  0.
          6    2    1    2  502    0 -0.15222152722E+02  0.21908911740E+03  0.11841008618E+04  0.12166227681E+04  0.17275518409E+03 0.  0.
         24    2    5    5    0    0  0.75588880020E+00  0.52633443941E+02  0.25061625573E+03  0.26826714450E+03  0.79924354177E+02 0.  0.
          4    1    6    6  501    0  0.39823790129E+02  0.23730722664E+02  0.13911243642E+03  0.14663339123E+03  0.00000000000E+00 0. -1.
         -3    1    6    6    0  501 -0.39067901329E+02  0.28902721277E+02  0.11150381931E+03  0.12163375326E+03  0.00000000000E+00 0.  1.
          5    1    5    5  502    0 -0.15978041522E+02  0.16645567346E+03  0.93348460611E+03  0.94835562364E+03  0.47000000000E+01 0. -1.
         13    1    4    4    0    0 -0.41514493082E+02 -0.77399820943E+02  0.19585507658E+03  0.21464714403E+03  0.00000000000E+00 0. -1.
        -14    1    4    4    0    0  0.78428594161E+01 -0.18895852299E+02 -0.33433274799E+00  0.20461560456E+02  0.00000000000E+00 0.  1.
         -5    1    3    3    0  504  0.48893786388E+02 -0.12279344416E+03  0.41224579798E+03  0.43294055046E+03  0.47000000000E+01 0.  1.
<mgrwt>
<rscale>  2 0.27889576E+03</rscale>
<asrwt>0</asrwt>
<pdfrwt beam="1">  1       21 0.28281067E+00 0.27942102E+03</pdfrwt>
<pdfrwt beam="2">  1       21 0.71388183E-02 0.27942102E+03</pdfrwt>
<totfact> 0.57899849E+03</totfact>
</mgrwt>
</event>
<event>
12    1  0.2742799E-001  0.2233463E+03  0.7546771E-02  0.1131435E+00
         21   -1    0    0  502  503  0.00000000000E+00  0.00000000000E+00  0.31696893210E+03  0.31696893210E+03  0.00000000000E+00 0.  1.
         21   -1    0    0  503  504 -0.00000000000E+00 -0.00000000000E+00 -0.28825552457E+03  0.28825552457E+03  0.00000000000E+00 0.  1.
         -6    2    1    2    0  504  0.89239871425E+02 -0.10862498138E+03 -0.18961649847E+03  0.29298118782E+03  0.17355235145E+03 0.  0.
        -24    2    3    3    0    0 -0.12485995321E+02 -0.74138024848E+02 -0.86643177980E+02  0.14410843387E+03  0.87223010815E+02 0.  0.
          6    2    1    2  502    0 -0.89239871425E+02  0.10862498138E+03  0.21832990599E+03  0.31224326885E+03  0.17339195443E+03 0.  0.
         24    2    5    5    0    0 -0.12037318166E+03  0.11189424406E+03  0.21133600377E+03  0.27982451266E+03  0.81417606702E+02 0.  0.
          2    1    6    6  501    0 -0.75674147459E+02  0.25957197544E+02  0.13317028124E+03  0.15535339232E+03  0.00000000000E+00 0. -1.
         -1    1    6    6    0  501 -0.44699034201E+02  0.85937046514E+02  0.78165722528E+02  0.12447112035E+03  0.00000000000E+00 0.  1.
          5    1    5    5  502    0  0.31133310235E+02 -0.32692626759E+01  0.69939022225E+01  0.32418756190E+02  0.47000000000E+01 0. -1.
         11    1    4    4    0    0 -0.46480634943E+02 -0.34460285530E+02 -0.66404140337E+02  0.88076504003E+02  0.00000000000E+00 0. -1.
        -12    1    4    4    0    0  0.33994639621E+02 -0.39677739318E+02 -0.20239037643E+02  0.56031929871E+02  0.00000000000E+00 0.  1.
         -5    1    3    3    0  504  0.10172586675E+03 -0.34486956533E+02 -0.10297332049E+03  0.14887275395E+03  0.47000000000E+01 0.  1.
<mgrwt>
<rscale>  2 0.22331512E+03</rscale>
<asrwt>0</asrwt>
<pdfrwt beam="1">  1       21 0.48764451E-01 0.22334628E+03</pdfrwt>
<pdfrwt beam="2">  1       21 0.44347004E-01 0.22334628E+03</pdfrwt>
<totfact> 0.19253093E+04</totfact>
</mgrwt>
</event>
<event>
12    1  0.2742799E-001  0.8527697E+03  0.7546771E-02  0.9486700E-01
         21   -1    0    0  502  503  0.00000000000E+00  0.00000000000E+00  0.70879598567E+03  0.70879598567E+03  0.00000000000E+00 0.  1.
         21   -1    0    0  503  504 -0.00000000000E+00 -0.00000000000E+00 -0.10436778366E+04  0.10436778366E+04  0.00000000000E+00 0. -1.
         -6    2    1    2    0  504 -0.60060968035E+03  0.58008496851E+03 -0.28234155362E+03  0.89808716183E+03  0.17208497475E+03 0.  0.
        -24    2    3    3    0    0 -0.44851913177E+03  0.49231391152E+03 -0.17809239035E+03  0.69381951522E+03  0.78270180512E+02 0.  0.
          6    2    1    2  502    0  0.60060968035E+03 -0.58008496851E+03 -0.52540297330E+02  0.85438666046E+03  0.17316328686E+03 0.  0.
         24    2    5    5    0    0  0.39771725331E+03 -0.38364067883E+03 -0.10222209332E+03  0.56760090985E+03  0.79763729082E+02 0.  0.
          2    1    6    6  501    0  0.38069548832E+03 -0.38456927222E+03 -0.96866746357E+02  0.54973243174E+03  0.00000000000E+00 0. -1.
         -1    1    6    6    0  501  0.17021764986E+02  0.92859338996E+00 -0.53553469631E+01  0.17868478111E+02  0.00000000000E+00 0.  1.
          5    1    5    5  502    0  0.20289242704E+03 -0.19644428968E+03  0.49681795991E+02  0.28678575061E+03  0.47000000000E+01 0. -1.
         13    1    4    4    0    0 -0.27345560399E+03  0.35181175772E+03 -0.13117569005E+03  0.46449600846E+03  0.00000000000E+00 0. -1.
        -14    1    4    4    0    0 -0.17506352778E+03  0.14050215381E+03 -0.46916700298E+02  0.22932350675E+03  0.00000000000E+00 0.  1.
         -5    1    3    3    0  504 -0.15209054858E+03  0.87771056986E+02 -0.10424916327E+03  0.20426764662E+03  0.47000000000E+01 0.  1.
<mgrwt>
<rscale>  2 0.85271507E+03</rscale>
<asrwt>0</asrwt>
<pdfrwt beam="1">  1       21 0.10904554E+00 0.85276965E+03</pdfrwt>
<pdfrwt beam="2">  1       21 0.16056582E+00 0.85276965E+03</pdfrwt>
<totfact> 0.11534088E+02</totfact>
</mgrwt>
</event>
<event>
12    1  0.2742799E-001  0.2749813E+03  0.7546771E-02  0.1098536E+00
         21   -1    0    0  502  503  0.00000000000E+00  0.00000000000E+00  0.30200789910E+03  0.30200789910E+03  0.00000000000E+00 0. -1.
         21   -1    0    0  503  504 -0.00000000000E+00 -0.00000000000E+00 -0.25108368576E+03  0.25108368576E+03  0.00000000000E+00 0.  1.
         -6    2    1    2    0  504  0.27345077619E+02  0.21225275647E+03  0.44547198097E+02  0.27856626032E+03  0.17267229838E+03 0.  0.
        -24    2    3    3    0    0 -0.33467555299E+02  0.10650955280E+03 -0.22082035854E+02  0.13949309158E+03  0.80661912920E+02 0.  0.
          6    2    1    2  502    0 -0.27345077619E+02 -0.21225275647E+03  0.63770152436E+01  0.27452532454E+03  0.17182695245E+03 0.  0.
         24    2    5    5    0    0 -0.33741282696E+01 -0.50004582893E+02  0.44424274529E+02  0.10609504168E+03  0.82284862826E+02 0.  0.
          2    1    6    6  501    0 -0.30236548110E+02 -0.32208509254E+02  0.56467671038E+02  0.71695430694E+02  0.00000000000E+00 0. -1.
         -1    1    6    6    0  501  0.26862419841E+02 -0.17796073640E+02 -0.12043396509E+02  0.34399610988E+02  0.00000000000E+00 0.  1.
          5    1    5    5  502    0 -0.23970949349E+02 -0.16224817358E+03 -0.38047259286E+02  0.16843028285E+03  0.47000000000E+01 0. -1.
         13    1    4    4    0    0  0.14191158617E+02  0.51726379687E+02  0.17969031491E+02  0.56567600543E+02  0.00000000000E+00 0. -1.
        -14    1    4    4    0    0 -0.47658713916E+02  0.54783173113E+02 -0.40051067345E+02  0.82925491038E+02  0.00000000000E+00 0.  1.
         -5    1    3    3    0  504  0.60812632919E+02  0.10574320367E+03  0.66629233952E+02  0.13907316874E+03  0.47000000000E+01 0.  1.
<mgrwt>
<rscale>  2 0.27484868E+03</rscale>
<asrwt>0</asrwt>
<pdfrwt beam="1">  1       21 0.46462754E-01 0.27498129E+03</pdfrwt>
<pdfrwt beam="2">  1       21 0.38628260E-01 0.27498129E+03</pdfrwt>
<totfact> 0.27551697E+04</totfact>
</mgrwt>
</event>
<event>
12    1  0.2742799E-001  0.2041542E+03  0.7546771E-02  0.1146482E+00
         21   -1    0    0  502  503  0.00000000000E+00  0.00000000000E+00  0.13035958842E+03  0.13035958842E+03  0.00000000000E+00 0.  1.
         21   -1    0    0  503  504 -0.00000000000E+00 -0.00000000000E+00 -0.33941008612E+03  0.33941008612E+03  0.00000000000E+00 0.  1.
         -6    2    1    2    0  504 -0.85748487495E+02  0.64751178781E+02 -0.45560626667E+02  0.20822064996E+03  0.17243709028E+03 0.  0.
        -24    2    3    3    0    0  0.22064854702E+02  0.21989940545E+02 -0.11897705173E+02  0.87359065762E+02  0.80744260999E+02 0.  0.
          6    2    1    2  502    0  0.85748487495E+02 -0.64751178781E+02 -0.16348987103E+03  0.26154902459E+03  0.17358985014E+03 0.  0.
         24    2    5    5    0    0  0.95927857342E+02 -0.78680554469E+02 -0.66307099101E+02  0.16273491508E+03  0.81812210148E+02 0.  0.
          2    1    6    6  501    0  0.52678009029E+02 -0.31170055077E+02  0.11027217151E+02  0.62194408807E+02  0.00000000000E+00 0. -1.
         -1    1    6    6    0  501  0.43249848313E+02 -0.47510499392E+02 -0.77334316251E+02  0.10054050627E+03  0.00000000000E+00 0.  1.
          5    1    5    5  502    0 -0.10179369847E+02  0.13929375688E+02 -0.97182771932E+02  0.98814109509E+02  0.47000000000E+01 0. -1.
         13    1    4    4    0    0 -0.34767595660E+01 -0.86909952053E+01  0.28840417261E+02  0.30321459769E+02  0.00000000000E+00 0. -1.
        -14    1    4    4    0    0  0.25541614268E+02  0.30680935750E+02 -0.40738122434E+02  0.57037605993E+02  0.00000000000E+00 0.  1.
         -5    1    3    3    0  504 -0.10781334220E+03  0.42761238236E+02 -0.33662921494E+02  0.12086158420E+03  0.47000000000E+01 0.  1.
<mgrwt>
<rscale>  2 0.20390898E+03</rscale>
<asrwt>0</asrwt>
<pdfrwt beam="1">  1       21 0.20055322E-01 0.20415424E+03</pdfrwt>
<pdfrwt beam="2">  1       21 0.52216934E-01 0.20415424E+03</pdfrwt>
<totfact> 0.79514775E+04</totfact>
</mgrwt>
</event>
<event>
12    1  0.2742799E-001  0.2050341E+03  0.7546771E-02  0.1145995E+00
         21   -1    0    0  502  503  0.00000000000E+00  0.00000000000E+00  0.10012102240E+03  0.10012102240E+03  0.00000000000E+00 0.  1.
         21   -1    0    0  503  504 -0.00000000000E+00 -0.00000000000E+00 -0.65525905568E+03  0.65525905568E+03  0.00000000000E+00 0.  1.
         -6    2    1    2    0  504 -0.10006762513E+03  0.39736177896E+02 -0.50509165163E+03  0.54432647575E+03  0.17199198303E+03 0.  0.
        -24    2    3    3    0    0  0.11918133987E+01 -0.18074075895E+02 -0.16303539825E+03  0.18291248902E+03  0.80921844495E+02 0.  0.
          6    2    1    2  502    0  0.10006762513E+03 -0.39736177896E+02 -0.50046381648E+02  0.21105360233E+03  0.17448922404E+03 0.  0.
         24    2    5    5    0    0  0.13288377464E+03 -0.24787382635E+02 -0.10978561516E+02  0.15767991295E+03  0.80435777075E+02 0.  0.
          4    1    6    6  501    0  0.21982832555E+02  0.26635986061E+02  0.28701117818E+01  0.34654844138E+02  0.00000000000E+00 0. -1.
         -3    1    6    6    0  501  0.11090094209E+03 -0.51423368696E+02 -0.13848673298E+02  0.12302506881E+03  0.00000000000E+00 0.  1.
          5    1    5    5  502    0 -0.32816149508E+02 -0.14948795261E+02 -0.39067820132E+02  0.53373689381E+02  0.47000000000E+01 0. -1.
         11    1    4    4    0    0 -0.26147308791E+02  0.20717150466E+02 -0.47823593968E+02  0.58309332190E+02  0.00000000000E+00 0. -1.
        -12    1    4    4    0    0  0.27339122190E+02 -0.38791226362E+02 -0.11521180429E+03  0.12460315683E+03  0.00000000000E+00 0.  1.
         -5    1    3    3    0  504 -0.10125943853E+03  0.57810253791E+02 -0.34205625337E+03  0.36141398674E+03  0.47000000000E+01 0.  1.
<mgrwt>
<rscale>  2 0.20450179E+03</rscale>
<asrwt>0</asrwt>
<pdfrwt beam="1">  1       21 0.15403234E-01 0.20503410E+03</pdfrwt>
<pdfrwt beam="2">  1       21 0.10080909E+00 0.20503410E+03</pdfrwt>
<totfact> 0.29889354E+04</totfact>
</mgrwt>
</event>
<event>
12    1  0.2742799E-001  0.1773833E+03  0.7546771E-02  0.1172149E+00
         21   -1    0    0  502  503  0.00000000000E+00  0.00000000000E+00  0.10329683798E+03  0.10329683798E+03  0.00000000000E+00 0. -1.
         21   -1    0    0  503  504 -0.00000000000E+00 -0.00000000000E+00 -0.65892938512E+03  0.65892938512E+03  0.00000000000E+00 0. -1.
         -6    2    1    2    0  504  0.19048216645E+02  0.25783587159E+02 -0.55946070418E+03  0.58480160459E+03  0.16723937719E+03 0.  0.
        -24    2    3    3    0    0  0.46004616579E+02 -0.27019155089E+02 -0.21951086206E+03  0.23968892408E+03  0.80120548417E+02 0.  0.
          6    2    1    2  502    0 -0.19048216645E+02 -0.25783587159E+02  0.38281570491E+01  0.17742461851E+03  0.17446263939E+03 0.  0.
         24    2    5    5    0    0  0.30815339652E+02 -0.64685040011E+02  0.21375761600E+02  0.11162411923E+03  0.82881127225E+02 0.  0.
          4    1    6    6  501    0  0.26933503444E+02 -0.64719222023E+02 -0.17745204237E+02  0.72311019772E+02  0.00000000000E+00 0. -1.
         -3    1    6    6    0  501  0.38818362081E+01  0.34182012593E-01  0.39120965836E+02  0.39313099454E+02  0.00000000000E+00 0.  1.
          5    1    5    5  502    0 -0.49863556297E+02  0.38901452852E+02 -0.17547604551E+02  0.65800499284E+02  0.47000000000E+01 0. -1.
         13    1    4    4    0    0  0.65379302640E+02 -0.30855142637E+01 -0.15117119083E+03  0.16473221466E+03  0.00000000000E+00 0. -1.
        -14    1    4    4    0    0 -0.19374686061E+02 -0.23933640825E+02 -0.68339671231E+02  0.74956709420E+02  0.00000000000E+00 0.  1.
         -5    1    3    3    0  504 -0.26956399934E+02  0.52802742247E+02 -0.33994984213E+03  0.34511268051E+03  0.47000000000E+01 0.  1.
<mgrwt>
<rscale>  2 0.17558121E+03</rscale>
<asrwt>0</asrwt>
<pdfrwt beam="1">  1       21 0.15891821E-01 0.17738332E+03</pdfrwt>
<pdfrwt beam="2">  1       21 0.10137375E+00 0.17738332E+03</pdfrwt>
<totfact> 0.28305357E+04</totfact>
</mgrwt>
</event>
<event>
12    1  0.2742799E-001  0.1976705E+03  0.7546771E-02  0.1151950E+00
         21   -1    0    0  502  503  0.00000000000E+00  0.00000000000E+00  0.34127480743E+03  0.34127480743E+03  0.00000000000E+00 0. -1.
         21   -1    0    0  503  504 -0.00000000000E+00 -0.00000000000E+00 -0.26737959576E+03  0.26737959576E+03  0.00000000000E+00 0. -1.
         -6    2    1    2    0  504  0.60364745493E+02  0.74630676071E+02 -0.19360040212E+03  0.27668525275E+03  0.17280038506E+03 0.  0.
        -24    2    3    3    0    0  0.65267721869E+02  0.11239027507E+03 -0.17846764758E+03  0.23544308072E+03  0.81800327485E+02 0.  0.
          6    2    1    2  502    0 -0.60364745493E+02 -0.74630676071E+02  0.26749561379E+03  0.33196915045E+03  0.17156914974E+03 0.  0.
         24    2    5    5    0    0 -0.31802732638E+01  0.24013960745E+02  0.89776683201E+02  0.12076560756E+03  0.77056438241E+02 0.  0.
          2    1    6    6  501    0  0.24889004838E+02  0.39614890494E+02  0.65575619285E+02  0.80554105764E+02  0.00000000000E+00 0. -1.
         -1    1    6    6    0  501 -0.28069278102E+02 -0.15600929749E+02  0.24201063915E+02  0.40211501798E+02  0.00000000000E+00 0.  1.
          5    1    5    5  502    0 -0.57184472229E+02 -0.98644636816E+02  0.17771893059E+03  0.21120354289E+03  0.47000000000E+01 0. -1.
         11    1    4    4    0    0 -0.16692880296E+02  0.21729908306E+02 -0.56421173853E+02  0.62723121945E+02  0.00000000000E+00 0. -1.
        -12    1    4    4    0    0  0.81960602165E+02  0.90660366764E+02 -0.12204647373E+03  0.17271995877E+03  0.00000000000E+00 0.  1.
         -5    1    3    3    0  504 -0.49029763758E+01 -0.37759598999E+02 -0.15132754543E+02  0.41242172033E+02  0.47000000000E+01 0.  1.
<mgrwt>
<rscale>  2 0.19740106E+03</rscale>
<asrwt>0</asrwt>
<pdfrwt beam="1">  1       21 0.52503816E-01 0.19767047E+03</pdfrwt>
<pdfrwt beam="2">  1       21 0.41135323E-01 0.19767047E+03</pdfrwt>
<totfact> 0.19520506E+04</totfact>
</mgrwt>
</event>
<event>
12    1  0.2742799E-001  0.1810589E+03  0.7546771E-02  0.1166899E+00
         21   -1    0    0  502  503  0.00000000000E+00  0.00000000000E+00  0.12229006186E+04  0.12229006186E+04  0.00000000000E+00 0.  1.
         21   -1    0    0  503  504 -0.00000000000E+00 -0.00000000000E+00 -0.32368628687E+02  0.32368628687E+02  0.00000000000E+00 0.  1.
         -6    2    1    2    0  504 -0.47329580874E+02 -0.26284132460E+02  0.33408723751E+03  0.37999552711E+03  0.17277550032E+03 0.  0.
        -24    2    3    3    0    0 -0.42225534605E+02  0.42244709760E+02  0.25908150186E+03  0.27816132910E+03  0.81748939593E+02 0.  0.
          6    2    1    2  502    0  0.47329580874E+02  0.26284132460E+02  0.85644475246E+03  0.87527372023E+03  0.17226585984E+03 0.  0.
         24    2    5    5    0    0  0.31761420617E+02  0.70684468230E+02  0.37071745815E+03  0.38725030699E+03  0.80785423200E+02 0.  0.
          4    1    6    6  501    0  0.18761127855E+02  0.39029533006E+02  0.56558426360E+02  0.71232997672E+02  0.00000000000E+00 0. -1.
         -3    1    6    6    0  501  0.13000292762E+02  0.31654935224E+02  0.31415903179E+03  0.31601730932E+03  0.00000000000E+00 0.  1.
          5    1    5    5  502    0  0.15568160257E+02 -0.44400335771E+02  0.48572729431E+03  0.48802341323E+03  0.47000000000E+01 0. -1.
         13    1    4    4    0    0  0.64611556775E+01 -0.83766658502E+01  0.13630776952E+03  0.13671767660E+03  0.00000000000E+00 0. -1.
        -14    1    4    4    0    0 -0.48686690283E+02  0.50621375610E+02  0.12277373234E+03  0.14144365250E+03  0.00000000000E+00 0.  1.
         -5    1    3    3    0  504 -0.51040462689E+01 -0.68528842220E+02  0.75005735649E+02  0.10183419801E+03  0.47000000000E+01 0.  1.
<mgrwt>
<rscale>  2 0.18093719E+03</rscale>
<asrwt>0</asrwt>
<pdfrwt beam="1">  1       21 0.18813852E+00 0.18105888E+03</pdfrwt>
<pdfrwt beam="2">  1       21 0.49797900E-02 0.18105888E+03</pdfrwt>
<totfact> 0.43784690E+04</totfact>
</mgrwt>
</event>
<event>
12    1  0.2742799E-001  0.2192141E+03  0.7546771E-02  0.1134601E+00
         21   -1    0    0  502  503  0.00000000000E+00  0.00000000000E+00  0.18404399922E+03  0.18404399922E+03  0.00000000000E+00 0.  1.
         21   -1    0    0  503  504 -0.00000000000E+00 -0.00000000000E+00 -0.34278488908E+03  0.34278488908E+03  0.00000000000E+00 0. -1.
         -6    2    1    2    0  504  0.12833175709E+03 -0.38105554882E+02 -0.20870035382E+03  0.30267254339E+03  0.17359077639E+03 0.  0.
        -24    2    3    3    0    0  0.13778370608E+03 -0.67090899416E+02 -0.20973533705E+03  0.27180750284E+03  0.80030422632E+02 0.  0.
          6    2    1    2  502    0 -0.12833175709E+03  0.38105554882E+02  0.49959463966E+02  0.22415634491E+03  0.17271087324E+03 0.  0.
         24    2    5    5    0    0 -0.10710710449E+03 -0.45131672407E+02  0.12671446621E+02  0.13039383576E+03  0.57733761002E+02 0.  0.
          4    1    6    6  501    0 -0.94447948298E+02 -0.51429930049E+02 -0.51242410900E+01  0.10766480618E+03  0.00000000000E+00 0. -1.
         -3    1    6    6    0  501 -0.12659156190E+02  0.62982576419E+01  0.17795687711E+02  0.22729029585E+02  0.00000000000E+00 0.  1.
          5    1    5    5  502    0 -0.21224652599E+02  0.83237227289E+02  0.37288017345E+02  0.93762509151E+02  0.47000000000E+01 0. -1.
         11    1    4    4    0    0  0.59576280908E+02 -0.69297580112E+01 -0.13597406841E+03  0.14861460922E+03  0.00000000000E+00 0. -1.
        -12    1    4    4    0    0  0.78207425176E+02 -0.60161141404E+02 -0.73761268639E+02  0.12319289362E+03  0.00000000000E+00 0.  1.
         -5    1    3    3    0  504 -0.94519489981E+01  0.28985344534E+02  0.10349832301E+01  0.30865040546E+02  0.47000000000E+01 0.  1.
<mgrwt>
<rscale>  2 0.21903988E+03</rscale>
<asrwt>0</asrwt>
<pdfrwt beam="1">  1       21 0.28314462E-01 0.21921412E+03</pdfrwt>
<pdfrwt beam="2">  1       21 0.52736136E-01 0.21921412E+03</pdfrwt>
<totfact> 0.40099214E+04</totfact>
</mgrwt>
</event>
<event>
12    1  0.2742799E-001  0.2074389E+03  0.7546771E-02  0.1144299E+00
         21   -1    0    0  502  503  0.00000000000E+00  0.00000000000E+00  0.27393551244E+03  0.27393551244E+03  0.00000000000E+00 0.  1.
         21   -1    0    0  503  504 -0.00000000000E+00 -0.00000000000E+00 -0.16148786845E+03  0.16148786845E+03  0.00000000000E+00 0. -1.
         -6    2    1    2    0  504  0.90674229558E+02  0.61255502186E+02  0.10187888966E+03  0.23110646208E+03  0.17622949867E+03 0.  0.
        -24    2    3    3    0    0  0.30508576291E+02 -0.17925343449E+02 -0.14666331745E+02  0.77827661259E+02  0.67749187487E+02 0.  0.
          6    2    1    2  502    0 -0.90674229558E+02 -0.61255502186E+02  0.10568754332E+02  0.20431691881E+03  0.17221977904E+03 0.  0.
         24    2    5    5    0    0 -0.31372657721E+02  0.78651973816E+01  0.56881590161E+02  0.10203634249E+03  0.78293006753E+02 0.  0.
          4    1    6    6  501    0  0.17680144653E+02  0.15435258385E+02 -0.36560804829E+01  0.23752929101E+02  0.00000000000E+00 0. -1.
         -3    1    6    6    0  501 -0.49052802373E+02 -0.75700610039E+01  0.60537670644E+02  0.78283413386E+02  0.00000000000E+00 0.  1.
          5    1    5    5  502    0 -0.59301571838E+02 -0.69120699568E+02 -0.46312835829E+02  0.10228057633E+03  0.47000000000E+01 0. -1.
         11    1    4    4    0    0 -0.20110204723E+02 -0.14117693914E+02 -0.11038040048E+02  0.26936368418E+02  0.00000000000E+00 0. -1.
        -12    1    4    4    0    0  0.50618781014E+02 -0.38076495351E+01 -0.36282916967E+01  0.50891292841E+02  0.00000000000E+00 0.  1.
         -5    1    3    3    0  504  0.60165653267E+02  0.79180845636E+02  0.11654522140E+03  0.15327880082E+03  0.47000000000E+01 0.  1.
<mgrwt>
<rscale>  2 0.20658475E+03</rscale>
<asrwt>0</asrwt>
<pdfrwt beam="1">  1       21 0.42143925E-01 0.20743888E+03</pdfrwt>
<pdfrwt beam="2">  1       21 0.24844288E-01 0.20743888E+03</pdfrwt>
<totfact> 0.82535634E+04</totfact>
</mgrwt>
</event>
<event>
12    1  0.2742799E-001  0.1971894E+03  0.7546771E-02  0.1152503E+00
         21   -1    0    0  502  503  0.00000000000E+00  0.00000000000E+00  0.30114189743E+03  0.30114189743E+03  0.00000000000E+00 0.  1.
         21   -1    0    0  503  504 -0.00000000000E+00 -0.00000000000E+00 -0.12924762682E+03  0.12924762682E+03  0.00000000000E+00 0. -1.
         -6    2    1    2    0  504 -0.91700471543E+02  0.71954595408E+01  0.64421216602E+02  0.20581406676E+03  0.17247778353E+03 0.  0.
        -24    2    3    3    0    0 -0.22156352285E+02 -0.26120903782E+02 -0.22670540642E+02  0.89394872607E+02  0.79399523137E+02 0.  0.
          6    2    1    2  502    0  0.91700471543E+02 -0.71954595408E+01  0.10747305401E+03  0.22457545749E+03  0.17442169489E+03 0.  0.
         24    2    5    5    0    0  0.10947352948E+03 -0.51993330172E+02  0.97478658964E+02  0.17513146156E+03  0.80505775154E+02 0.  0.
          4    1    6    6  501    0  0.69989575869E+02 -0.25780104479E+02  0.10326694792E+03  0.12738609441E+03  0.00000000000E+00 0. -1.
         -3    1    6    6    0  501  0.39483953616E+02 -0.26213225693E+02 -0.57882889578E+01  0.47745367141E+02  0.00000000000E+00 0.  1.
          5    1    5    5  502    0 -0.17773057941E+02  0.44797870631E+02  0.99943950438E+01  0.49443995934E+02  0.47000000000E+01 0. -1.
         13    1    4    4    0    0 -0.39445933461E+02 -0.44737984242E+02 -0.83397850550E+01  0.60224753344E+02  0.00000000000E+00 0. -1.
        -14    1    4    4    0    0  0.17289581176E+02  0.18617080460E+02 -0.14330755587E+02  0.29170119262E+02  0.00000000000E+00 0.  1.
         -5    1    3    3    0  504 -0.69544119258E+02  0.33316363323E+02  0.87091757244E+02  0.11641919416E+03  0.47000000000E+01 0.  1.
<mgrwt>
<rscale>  2 0.19675870E+03</rscale>
<asrwt>0</asrwt>
<pdfrwt beam="1">  1       21 0.46329523E-01 0.19718945E+03</pdfrwt>
<pdfrwt beam="2">  1       21 0.19884250E-01 0.19718945E+03</pdfrwt>
<totfact> 0.10395746E+05</totfact>
</mgrwt>
</event>
<event>
12    1  0.2742799E-001  0.1853730E+03  0.7546771E-02  0.1163042E+00
         21   -1    0    0  502  503  0.00000000000E+00  0.00000000000E+00  0.28723919334E+02  0.28723919334E+02  0.00000000000E+00 0. -1.
         21   -1    0    0  503  504 -0.00000000000E+00 -0.00000000000E+00 -0.13906601052E+04  0.13906601052E+04  0.00000000000E+00 0. -1.
         -6    2    1    2    0  504 -0.49222680742E+02  0.40600962469E+02 -0.95029344559E+03  0.96792761881E+03  0.17249617990E+03 0.  0.
        -24    2    3    3    0    0 -0.10600804979E+02 -0.45738332187E+02 -0.48260234664E+03  0.49074507813E+03  0.75639504475E+02 0.  0.
          6    2    1    2  502    0  0.49222680742E+02 -0.40600962469E+02 -0.41164274024E+03  0.45145640569E+03  0.17404548310E+03 0.  0.
         24    2    5    5    0    0  0.57269923704E+02 -0.63775695797E+02 -0.40991041450E+03  0.42641808832E+03  0.80365755129E+02 0.  0.
          2    1    6    6  501    0  0.56769285805E+02 -0.56900356543E+02 -0.41155562883E+03  0.41933094091E+03  0.00000000000E+00 0. -1.
         -1    1    6    6    0  501  0.50063789901E+00 -0.68753392547E+01  0.16452143320E+01  0.70871474072E+01  0.00000000000E+00 0.  1.
          5    1    5    5  502    0 -0.80472429614E+01  0.23174733328E+02 -0.17323257460E+01  0.25038317367E+02  0.47000000000E+01 0. -1.
         11    1    4    4    0    0 -0.16895368138E+02 -0.27580900777E+02 -0.64065969624E+02  0.71767736596E+02  0.00000000000E+00 0. -1.
        -12    1    4    4    0    0  0.62945631590E+01 -0.18157431410E+02 -0.41853637701E+03  0.41897734154E+03  0.00000000000E+00 0.  1.
         -5    1    3    3    0  504 -0.38621875763E+02  0.86339294656E+02 -0.46769109895E+03  0.47718254068E+03  0.47000000000E+01 0.  1.
<mgrwt>
<rscale>  2 0.18500844E+03</rscale>
<asrwt>0</asrwt>
<pdfrwt beam="1">  1       21 0.44190648E-02 0.18537298E+03</pdfrwt>
<pdfrwt beam="2">  1       21 0.21394769E+00 0.18537298E+03</pdfrwt>
<totfact> 0.36530173E+04</totfact>
</mgrwt>
</event>
<event>
12    1  0.2742799E-001  0.1783916E+03  0.7546771E-02  0.1170649E+00
         21   -1    0    0  502  503  0.00000000000E+00  0.00000000000E+00  0.20101715505E+03  0.20101715505E+03  0.00000000000E+00 0. -1.
         21   -1    0    0  503  504 -0.00000000000E+00 -0.00000000000E+00 -0.17023939527E+03  0.17023939527E+03  0.00000000000E+00 0. -1.
         -6    2    1    2    0  504 -0.17203087444E+02 -0.39477566110E+02 -0.42532019128E+02  0.17838900314E+03  0.16780714928E+03 0.  0.
        -24    2    3    3    0    0 -0.32313206717E+02 -0.81484735213E+02 -0.42725174392E+01  0.11940767195E+03  0.80969329460E+02 0.  0.
          6    2    1    2  502    0  0.17203087444E+02  0.39477566110E+02  0.73309778908E+02  0.19286754719E+03  0.17311598028E+03 0.  0.
         24    2    5    5    0    0  0.31307163465E+02 -0.30759828094E+02  0.19635946598E+01  0.91652012252E+02  0.80435875934E+02 0.  0.
          4    1    6    6  501    0  0.14252832667E+02 -0.23565093483E+02  0.40456120661E+02  0.48940316395E+02  0.00000000000E+00 0. -1.
         -3    1    6    6    0  501  0.17054330798E+02 -0.71947346109E+01 -0.38492526001E+02  0.42711695858E+02  0.00000000000E+00 0.  1.
          5    1    5    5  502    0 -0.14104076021E+02  0.70237394204E+02  0.71346184248E+02  0.10121553493E+03  0.47000000000E+01 0. -1.
         11    1    4    4    0    0  0.12659130383E+02 -0.18273563366E+02  0.27685714050E+02  0.35505991925E+02  0.00000000000E+00 0. -1.
        -12    1    4    4    0    0 -0.44972337100E+02 -0.63211171847E+02 -0.31958231489E+02  0.83901680021E+02  0.00000000000E+00 0.  1.
         -5    1    3    3    0  504  0.15110119272E+02  0.42007169103E+02 -0.38259501689E+02  0.58981331198E+02  0.47000000000E+01 0.  1.
<mgrwt>
<rscale>  2 0.17709068E+03</rscale>
<asrwt>0</asrwt>
<pdfrwt beam="1">  1       21 0.30925716E-01 0.17839161E+03</pdfrwt>
<pdfrwt beam="2">  1       21 0.26190676E-01 0.17839161E+03</pdfrwt>
<totfact> 0.13980803E+05</totfact>
</mgrwt>
</event>
<event>
12    1  0.2742799E-001  0.2289877E+03  0.7546771E-02  0.1127504E+00
         21   -1    0    0  502  503  0.00000000000E+00  0.00000000000E+00  0.25842952109E+03  0.25842952109E+03  0.00000000000E+00 0.  1.
         21   -1    0    0  503  504 -0.00000000000E+00 -0.00000000000E+00 -0.45955297267E+03  0.45955297267E+03  0.00000000000E+00 0. -1.
         -6    2    1    2    0  504  0.21454623481E+02 -0.14774801057E+03 -0.36915062068E+03  0.43396048714E+03  0.17251013929E+03 0.  0.
        -24    2    3    3    0    0  0.44007743348E+02 -0.12787726207E+03 -0.37187378363E+03  0.40341551246E+03  0.78515534237E+02 0.  0.
          6    2    1    2  502    0 -0.21454623481E+02  0.14774801057E+03  0.16802716909E+03  0.28402200662E+03  0.17362486918E+03 0.  0.
         24    2    5    5    0    0 -0.69253553597E+02  0.79361757865E+02  0.14619611307E+03  0.19765012297E+03  0.81227608209E+02 0.  0.
          2    1    6    6  501    0 -0.45918890566E+02  0.24343908041E+02  0.12302653510E+03  0.13355410405E+03  0.00000000000E+00 0. -1.
         -1    1    6    6    0  501 -0.23334663031E+02  0.55017849823E+02  0.23169577968E+02  0.64096018918E+02  0.00000000000E+00 0.  1.
          5    1    5    5  502    0  0.47798930116E+02  0.68386252702E+02  0.21831056024E+02  0.86371883654E+02  0.47000000000E+01 0. -1.
         13    1    4    4    0    0  0.14700773595E+02 -0.12581300324E+03 -0.29113308004E+03  0.31749566111E+03  0.00000000000E+00 0. -1.
        -14    1    4    4    0    0  0.29306969753E+02 -0.20642588239E+01 -0.80740703594E+02  0.85919851358E+02  0.00000000000E+00 0.  1.
         -5    1    3    3    0  504 -0.22553119866E+02 -0.19870748499E+02  0.27231629514E+01  0.30544974678E+02  0.47000000000E+01 0.  1.
<mgrwt>
<rscale>  2 0.22877640E+03</rscale>
<asrwt>0</asrwt>
<pdfrwt beam="1">  1       21 0.39758388E-01 0.22898771E+03</pdfrwt>
<pdfrwt beam="2">  1       21 0.70700457E-01 0.22898771E+03</pdfrwt>
<totfact> 0.10796144E+04</totfact>
</mgrwt>
</event>
<event>
12    1  0.2742799E-001  0.2208106E+03  0.7546771E-02  0.1133376E+00
         21   -1    0    0  502  503  0.00000000000E+00  0.00000000000E+00  0.25385461298E+02  0.25385461298E+02  0.00000000000E+00 0.  1.
         21   -1    0    0  503  504 -0.00000000000E+00 -0.00000000000E+00 -0.20475005078E+04  0.20475005078E+04  0.00000000000E+00 0.  1.
         -6    2    1    2    0  504 -0.24445263894E+02  0.13404658395E+03 -0.12724228711E+04  0.12913517890E+04  0.17309945842E+03 0.  0.
        -24    2    3    3    0    0 -0.75740454331E+02  0.94397795135E+02 -0.10337227361E+04  0.10439592519E+04  0.81367463769E+02 0.  0.
          6    2    1    2  502    0  0.24445263894E+02 -0.13404658395E+03 -0.74969217540E+03  0.78153418008E+03  0.17375632126E+03 0.  0.
         24    2    5    5    0    0 -0.49308143876E+01 -0.12084727873E+03 -0.72831330978E+03  0.74259420667E+03  0.79859256684E+02 0.  0.
          4    1    6    6  501    0 -0.34731076434E+02 -0.90916340947E+02 -0.59008305994E+03  0.59805522015E+03  0.00000000000E+00 0. -1.
         -3    1    6    6    0  501  0.29800262047E+02 -0.29930937787E+02 -0.13823024984E+03  0.14453898652E+03  0.00000000000E+00 0.  1.
          5    1    5    5  502    0  0.29376078282E+02 -0.13199305218E+02 -0.21378865623E+02  0.38939973405E+02  0.47000000000E+01 0. -1.
         13    1    4    4    0    0 -0.70075805308E+02  0.50210603544E+02 -0.42771108810E+03  0.43631238589E+03  0.00000000000E+00 0. -1.
        -14    1    4    4    0    0 -0.56646490224E+01  0.44187191591E+02 -0.60601164804E+03  0.60764686596E+03  0.00000000000E+00 0.  1.
         -5    1    3    3    0  504  0.51295190436E+02  0.39648788816E+02 -0.23870013495E+03  0.24739253715E+03  0.47000000000E+01 0.  1.
<mgrwt>
<rscale>  2 0.22068135E+03</rscale>
<asrwt>0</asrwt>
<pdfrwt beam="1">  1       21 0.39054549E-02 0.22081059E+03</pdfrwt>
<pdfrwt beam="2">  1       21 0.31500013E+00 0.22081059E+03</pdfrwt>
<totfact> 0.11080017E+04</totfact>
</mgrwt>
</event>
<event>
12    1  0.2742799E-001  0.2831729E+03  0.7546771E-02  0.1094478E+00
         21   -1    0    0  502  503  0.00000000000E+00  0.00000000000E+00  0.14991538879E+04  0.14991538879E+04  0.00000000000E+00 0.  1.
         21   -1    0    0  503  504 -0.00000000000E+00 -0.00000000000E+00 -0.10715781512E+03  0.10715781512E+03  0.00000000000E+00 0.  1.
         -6    2    1    2    0  504 -0.23470222325E+02  0.21883337682E+03  0.12616183449E+03  0.31000594617E+03  0.17817962856E+03 0.  0.
        -24    2    3    3    0    0 -0.64717847553E+02  0.14011358999E+03  0.13494433914E+03  0.22057779728E+03  0.81390245702E+02 0.  0.
          6    2    1    2  502    0  0.23470222325E+02 -0.21883337682E+03  0.12658342383E+04  0.12963057569E+04  0.17214353967E+03 0.  0.
         24    2    5    5    0    0  0.59680485091E+01 -0.20463551709E+03  0.12480822067E+04  0.12672346383E+04  0.79139884817E+02 0.  0.
          4    1    6    6  501    0 -0.27818972540E+02 -0.10885968306E+03  0.51231950958E+03  0.52449557264E+03  0.00000000000E+00 0. -1.
         -3    1    6    6    0  501  0.33787021049E+02 -0.95775834027E+02  0.73576269710E+03  0.74273906563E+03  0.00000000000E+00 0.  1.
          5    1    5    5  502    0  0.17502173816E+02 -0.14197859739E+02  0.17752031666E+02  0.29071118618E+02  0.47000000000E+01 0. -1.
         13    1    4    4    0    0  0.18984712165E+02  0.18211393152E+02  0.15876985320E+02  0.30727069489E+02  0.00000000000E+00 0. -1.
        -14    1    4    4    0    0 -0.83702559718E+02  0.12190219683E+03  0.11906735382E+03  0.18985072779E+03  0.00000000000E+00 0.  1.
         -5    1    3    3    0  504  0.41247625228E+02  0.78719786839E+02 -0.87825046511E+01  0.89428148895E+02  0.47000000000E+01 0.  1.
<mgrwt>
<rscale>  2 0.28222849E+03</rscale>
<asrwt>0</asrwt>
<pdfrwt beam="1">  1       21 0.23063904E+00 0.28317288E+03</pdfrwt>
<pdfrwt beam="2">  1       21 0.16485819E-01 0.28317288E+03</pdfrwt>
<totfact> 0.26404655E+03</totfact>
</mgrwt>
</event>
<event>
12    1  0.2742799E-001  0.1906575E+03  0.7546771E-02  0.1158324E+00
         21   -1    0    0  502  503  0.00000000000E+00  0.00000000000E+00  0.51138934207E+02  0.51138934207E+02  0.00000000000E+00 0.  1.
         21   -1    0    0  503  504 -0.00000000000E+00 -0.00000000000E+00 -0.71908818406E+03  0.71908818406E+03  0.00000000000E+00 0.  1.
         -6    2    1    2    0  504 -0.68685134864E+02 -0.25081472584E+02 -0.27870812223E+03  0.33768106348E+03  0.17607826447E+03 0.  0.
        -24    2    3    3    0    0  0.13565126538E+02  0.49079263105E+01 -0.21279850374E+03  0.22799680136E+03  0.80568218545E+02 0.  0.
          6    2    1    2  502    0  0.68685134864E+02  0.25081472584E+02 -0.38924112762E+03  0.43254605479E+03  0.17389855106E+03 0.  0.
         24    2    5    5    0    0  0.93881055098E+02  0.52162943583E+02 -0.36211729945E+03  0.38643713458E+03  0.81670650968E+02 0.  0.
          4    1    6    6  501    0  0.49032563368E+02  0.61887174774E+02 -0.15108193122E+03  0.17046983490E+03  0.00000000000E+00 0. -1.
         -3    1    6    6    0  501  0.44848491730E+02 -0.97242311910E+01 -0.21103536824E+03  0.21596729968E+03  0.00000000000E+00 0.  1.
          5    1    5    5  502    0 -0.25195920235E+02 -0.27081470999E+02 -0.27123828170E+02  0.46108920206E+02  0.47000000000E+01 0. -1.
         11    1    4    4    0    0  0.41987834093E+02  0.20432800997E+02 -0.95430371315E+02  0.10624233308E+03  0.00000000000E+00 0. -1.
        -12    1    4    4    0    0 -0.28422707555E+02 -0.15524874686E+02 -0.11736813242E+03  0.12175446828E+03  0.00000000000E+00 0.  1.
         -5    1    3    3    0  504 -0.82250261402E+02 -0.29989398894E+02 -0.65909618489E+02  0.10968426212E+03  0.47000000000E+01 0.  1.
<mgrwt>
<rscale>  2 0.19015271E+03</rscale>
<asrwt>0</asrwt>
<pdfrwt beam="1">  1       21 0.78675288E-02 0.19065750E+03</pdfrwt>
<pdfrwt beam="2">  1       21 0.11062895E+00 0.19065750E+03</pdfrwt>
<totfact> 0.79651506E+04</totfact>
</mgrwt>
</event>
<event>
12    1  0.2742799E-001  0.1895567E+03  0.7546771E-02  0.1161144E+00
         21   -1    0    0  502  503  0.00000000000E+00  0.00000000000E+00  0.10400201993E+04  0.10400201993E+04  0.00000000000E+00 0. -1.
         21   -1    0    0  503  504 -0.00000000000E+00 -0.00000000000E+00 -0.33506894321E+02  0.33506894321E+02  0.00000000000E+00 0. -1.
         -6    2    1    2    0  504  0.72663607940E+02  0.24642346996E+02  0.56897273720E+03  0.59669012345E+03  0.16254809307E+03 0.  0.
        -24    2    3    3    0    0  0.10697982408E+03  0.34553943677E+02  0.38500435935E+03  0.40922733651E+03  0.81240374464E+02 0.  0.
          6    2    1    2  502    0 -0.72663607940E+02 -0.24642346996E+02  0.43754056778E+03  0.47683697017E+03  0.17333350076E+03 0.  0.
         24    2    5    5    0    0 -0.14595049563E+02 -0.21660845852E+02  0.39579115080E+03  0.40510168848E+03  0.82307564915E+02 0.  0.
          2    1    6    6  501    0 -0.34506031504E+02  0.11151064461E+02  0.29551125657E+03  0.29772792144E+03  0.00000000000E+00 0. -1.
         -1    1    6    6    0  501  0.19910981941E+02 -0.32811910313E+02  0.10027989424E+03  0.10737376704E+03  0.00000000000E+00 0.  1.
          5    1    5    5  502    0 -0.58068558378E+02 -0.29815011440E+01  0.41749416976E+02  0.71735281689E+02  0.47000000000E+01 0. -1.
         11    1    4    4    0    0  0.44683942838E+02  0.76542058922E+01  0.50304673716E+02  0.67718548515E+02  0.00000000000E+00 0. -1.
        -12    1    4    4    0    0  0.62295881246E+02  0.26899737785E+02  0.33469968563E+03  0.34150878799E+03  0.00000000000E+00 0.  1.
         -5    1    3    3    0  504 -0.34316216143E+02 -0.99115966807E+01  0.18396837785E+03  0.18746278694E+03  0.47000000000E+01 0.  1.
<mgrwt>
<rscale>  2 0.18705531E+03</rscale>
<asrwt>0</asrwt>
<pdfrwt beam="1">  1       21 0.16000308E+00 0.18955671E+03</pdfrwt>
<pdfrwt beam="2">  1       21 0.51549076E-02 0.18955671E+03</pdfrwt>
<totfact> 0.64393088E+04</totfact>
</mgrwt>
</event>
<event>
12    1  0.2742799E-001  0.1957858E+03  0.7546771E-02  0.1153705E+00
         21   -1    0    0  502  503  0.00000000000E+00  0.00000000000E+00  0.74563060807E+03  0.74563060807E+03  0.00000000000E+00 0.  1.
         21   -1    0    0  503  504 -0.00000000000E+00 -0.00000000000E+00 -0.10666513838E+03  0.10666513838E+03  0.00000000000E+00 0. -1.
         -6    2    1    2    0  504 -0.68059502368E+02  0.60426809109E+02  0.10913218355E+02  0.19443428970E+03  0.17147040431E+03 0.  0.
        -24    2    3    3    0    0 -0.84243492861E+02  0.37509061356E+02 -0.46724775936E+02  0.13015853146E+03  0.79083138871E+02 0.  0.
          6    2    1    2  502    0  0.68059502368E+02 -0.60426809109E+02  0.62805225134E+03  0.65786145675E+03  0.17334523571E+03 0.  0.
         24    2    5    5    0    0 -0.27457009391E+02 -0.12619616582E+02  0.22788407345E+03  0.24365668581E+03  0.80773061840E+02 0.  0.
          4    1    6    6  501    0 -0.39126385398E+02  0.19227382283E+02  0.72367703620E+02  0.84484618666E+02  0.00000000000E+00 0. -1.
         -3    1    6    6    0  501  0.11669376007E+02 -0.31846998865E+02  0.15551636983E+03  0.15917206714E+03  0.00000000000E+00 0.  1.
          5    1    5    5  502    0  0.95516511759E+02 -0.47807192527E+02  0.40016817789E+03  0.41420477094E+03  0.47000000000E+01 0. -1.
         11    1    4    4    0    0 -0.96338400264E+02  0.18927628522E+02 -0.30930964490E+02  0.10293719955E+03  0.00000000000E+00 0. -1.
        -12    1    4    4    0    0  0.12094907403E+02  0.18581432834E+02 -0.15793811445E+02  0.27221331915E+02  0.00000000000E+00 0.  1.
         -5    1    3    3    0  504  0.16183990493E+02  0.22917747753E+02  0.57637994291E+02  0.64275758232E+02  0.47000000000E+01 0.  1.
<mgrwt>
<rscale>  2 0.19536995E+03</rscale>
<asrwt>0</asrwt>
<pdfrwt beam="1">  1       21 0.11471240E+00 0.19578577E+03</pdfrwt>
<pdfrwt beam="2">  1       21 0.16410022E-01 0.19578577E+03</pdfrwt>
<totfact> 0.19596408E+04</totfact>
</mgrwt>
</event>
<event>
12    1  0.2742799E-001  0.2716298E+03  0.7546771E-02  0.1100455E+00
         21   -1    0    0  502  503  0.00000000000E+00  0.00000000000E+00  0.40389874085E+02  0.40389874085E+02  0.00000000000E+00 0. -1.
         21   -1    0    0  503  504 -0.00000000000E+00 -0.00000000000E+00 -0.19358290435E+04  0.19358290435E+04  0.00000000000E+00 0.  1.
         -6    2    1    2    0  504  0.15681093014E+03 -0.13868105512E+03 -0.11863133018E+04  0.12168492656E+04  0.17193249370E+03 0.  0.
        -24    2    3    3    0    0  0.10510001874E+03 -0.53857906233E+02 -0.38599203614E+03  0.41037223359E+03  0.73951539121E+02 0.  0.
          6    2    1    2  502    0 -0.15681093014E+03  0.13868105512E+03 -0.70912586770E+03  0.75936965203E+03  0.17309150564E+03 0.  0.
         24    2    5    5    0    0 -0.10161499203E+03  0.13977218891E+03 -0.65348684516E+03  0.68084848937E+03  0.81533657342E+02 0.  0.
          4    1    6    6  501    0 -0.23938292499E+02  0.96420750359E+02 -0.28656832964E+03  0.30330085806E+03  0.00000000000E+00 0. -1.
         -3    1    6    6    0  501 -0.77676699530E+02  0.43351438551E+02 -0.36691851552E+03  0.37754763131E+03  0.00000000000E+00 0.  1.
          5    1    5    5  502    0 -0.55195938109E+02 -0.10911337868E+01 -0.55639022533E+02  0.78521162658E+02  0.47000000000E+01 0. -1.
         11    1    4    4    0    0  0.31760959503E+02  0.18106388070E+02 -0.97562904275E+02  0.10418790778E+03  0.00000000000E+00 0. -1.
        -12    1    4    4    0    0  0.73339059235E+02 -0.71964294302E+02 -0.28842913187E+03  0.30618432581E+03  0.00000000000E+00 0.  1.
         -5    1    3    3    0  504  0.51710911400E+02 -0.84823148890E+02 -0.80032126562E+03  0.80647703200E+03  0.47000000000E+01 0.  1.
<mgrwt>
<rscale>  2 0.27144538E+03</rscale>
<asrwt>0</asrwt>
<pdfrwt beam="1">  1       21 0.62138265E-02 0.27162984E+03</pdfrwt>
<pdfrwt beam="2">  1       21 0.29781987E+00 0.27162984E+03</pdfrwt>
<totfact> 0.60512387E+03</totfact>
</mgrwt>
</event>
<event>
12    1  0.2742799E-001  0.2281702E+03  0.7546771E-02  0.1130844E+00
         21   -1    0    0  502  503  0.00000000000E+00  0.00000000000E+00  0.48583240498E+02  0.48583240498E+02  0.00000000000E+00 0. -1.
         21   -1    0    0  503  504 -0.00000000000E+00 -0.00000000000E+00 -0.10087935313E+04  0.10087935313E+04  0.00000000000E+00 0. -1.
         -6    2    1    2    0  504  0.91806801317E+02  0.80854242443E+02 -0.51545713595E+03  0.55750978041E+03  0.17365252360E+03 0.  0.
        -24    2    3    3    0    0 -0.59997190277E+01  0.75751339340E+02 -0.24438049012E+03  0.26924463690E+03  0.83645612617E+02 0.  0.
          6    2    1    2  502    0 -0.91806801317E+02 -0.80854242443E+02 -0.44475315482E+03  0.49986699136E+03  0.19260255202E+03 0.  0.
         24    2    5    5    0    0 -0.94089035781E+02  0.22283655277E+02 -0.24722795473E+03  0.27697479946E+03  0.79019427927E+02 0.  0.
          4    1    6    6  501    0 -0.21348092320E+02 -0.13839459767E+02 -0.12016890162E+02  0.28136761390E+02  0.00000000000E+00 0. -1.
         -3    1    6    6    0  501 -0.72740943460E+02  0.36123115044E+02 -0.23521106456E+03  0.24883803807E+03  0.00000000000E+00 0.  1.
          5    1    5    5  502    0  0.22822344642E+01 -0.10313789772E+03 -0.19752520009E+03  0.22289219190E+03  0.47000000000E+01 0. -1.
         11    1    4    4    0    0  0.27291914997E+02  0.36749194178E+02 -0.18596176452E+03  0.19151274047E+03  0.00000000000E+00 0. -1.
        -12    1    4    4    0    0 -0.33291634024E+02  0.39002145161E+02 -0.58418725598E+02  0.77731896437E+02  0.00000000000E+00 0.  1.
         -5    1    3    3    0  504  0.97806520344E+02  0.51029031036E+01 -0.27107664583E+03  0.28826514350E+03  0.47000000000E+01 0.  1.
<mgrwt>
<rscale>  2 0.22412569E+03</rscale>
<asrwt>0</asrwt>
<pdfrwt beam="1">  1       21 0.74743449E-02 0.22817020E+03</pdfrwt>
<pdfrwt beam="2">  1       21 0.15519900E+00 0.22817020E+03</pdfrwt>
<totfact> 0.36126042E+04</totfact>
</mgrwt>
</event>
<event>
12    1  0.2742799E-001  0.1862278E+03  0.7546771E-02  0.1163670E+00
         21   -1    0    0  502  503  0.00000000000E+00  0.00000000000E+00  0.10429612468E+04  0.10429612468E+04  0.00000000000E+00 0. -1.
         21   -1    0    0  503  504 -0.00000000000E+00 -0.00000000000E+00 -0.57615207126E+02  0.57615207126E+02  0.00000000000E+00 0. -1.
         -6    2    1    2    0  504 -0.38480917607E+02  0.26514072697E+02  0.11976778676E+03  0.21519151183E+03  0.17256676084E+03 0.  0.
        -24    2    3    3    0    0  0.34717916248E+02  0.36593029325E+02  0.39653405595E+02  0.10610412157E+03  0.84506263289E+02 0.  0.
          6    2    1    2  502    0  0.38480917607E+02 -0.26514072697E+02  0.86557825288E+03  0.88538494206E+03  0.18026926166E+03 0.  0.
         24    2    5    5    0    0 -0.88878676072E+01 -0.78042934339E+02  0.38256503329E+03  0.39730412325E+03  0.72971692201E+02 0.  0.
          2    1    6    6  501    0  0.32962050003E+01 -0.64365394282E+02  0.14083939874E+03  0.15488545828E+03  0.00000000000E+00 0. -1.
         -1    1    6    6    0  501 -0.12184072608E+02 -0.13677540057E+02  0.24172563455E+03  0.24241866497E+03  0.00000000000E+00 0.  1.
          5    1    5    5  502    0  0.47368785214E+02  0.51528861641E+02  0.48301321959E+03  0.48808081881E+03  0.47000000000E+01 0. -1.
         13    1    4    4    0    0 -0.26052320942E+02  0.15293000739E+02 -0.50474797753E+00  0.30213474951E+02  0.00000000000E+00 0. -1.
        -14    1    4    4    0    0  0.60770237191E+02  0.21300028586E+02  0.40158153573E+02  0.75890646619E+02  0.00000000000E+00 0.  1.
         -5    1    3    3    0  504 -0.73198833856E+02 -0.10078956628E+02  0.80114381166E+02  0.10908739026E+03  0.47000000000E+01 0.  1.
<mgrwt>
<rscale>  2 0.18433780E+03</rscale>
<asrwt>0</asrwt>
<pdfrwt beam="1">  1       21 0.16045556E+00 0.18622777E+03</pdfrwt>
<pdfrwt beam="2">  1       21 0.88638787E-02 0.18622777E+03</pdfrwt>
<totfact> 0.25165415E+04</totfact>
</mgrwt>
</event>
<event>
12    1  0.2742799E-001  0.2653563E+03  0.7546771E-02  0.1104246E+00
         21   -1    0    0  502  503  0.00000000000E+00  0.00000000000E+00  0.23087440304E+03  0.23087440304E+03  0.00000000000E+00 0.  1.
         21   -1    0    0  503  504 -0.00000000000E+00 -0.00000000000E+00 -0.42226566414E+03  0.42226566414E+03  0.00000000000E+00 0.  1.
         -6    2    1    2    0  504  0.13587331663E+03 -0.14618905300E+03 -0.26963414096E+03  0.37830746176E+03  0.17487472163E+03 0.  0.
        -24    2    3    3    0    0  0.16906048427E+03 -0.12250845412E+03 -0.24076118646E+03  0.32812881729E+03  0.78184417651E+02 0.  0.
          6    2    1    2  502    0 -0.13587331663E+03  0.14618905300E+03  0.78242879860E+02  0.27483260542E+03  0.17198318338E+03 0.  0.
         24    2    5    5    0    0 -0.60488532696E+01  0.42258323823E+02  0.15350984751E+00  0.91050050585E+02  0.80422220736E+02 0.  0.
          2    1    6    6  501    0 -0.37717437975E+02  0.12731446946E+02 -0.18509380137E+02  0.43900934179E+02  0.00000000000E+00 0. -1.
         -1    1    6    6    0  501  0.31668584705E+02  0.29526876877E+02  0.18662889985E+02  0.47149116406E+02  0.00000000000E+00 0.  1.
          5    1    5    5  502    0 -0.12982446336E+03  0.10393072917E+03  0.78089370013E+02  0.18378255484E+03  0.47000000000E+01 0. -1.
         11    1    4    4    0    0  0.10297658781E+03 -0.30844397557E+02 -0.14165141258E+03  0.17782203796E+03  0.00000000000E+00 0. -1.
        -12    1    4    4    0    0  0.66083896450E+02 -0.91664056562E+02 -0.99109773883E+02  0.15030677934E+03  0.00000000000E+00 0.  1.
         -5    1    3    3    0  504 -0.33187167637E+02 -0.23680598876E+02 -0.28872954500E+02  0.50178644466E+02  0.47000000000E+01 0.  1.
<mgrwt>
<rscale>  2 0.26488087E+03</rscale>
<asrwt>0</asrwt>
<pdfrwt beam="1">  1       21 0.35519139E-01 0.26535630E+03</pdfrwt>
<pdfrwt beam="2">  1       21 0.64963948E-01 0.26535630E+03</pdfrwt>
<totfact> 0.16019397E+04</totfact>
</mgrwt>
</event>
<event>
12    1  0.2742799E-001  0.1843377E+03  0.7546771E-02  0.1166713E+00
         21   -1    0    0  502  503  0.00000000000E+00  0.00000000000E+00  0.19968210142E+04  0.19968210142E+04  0.00000000000E+00 0. -1.
         21   -1    0    0  503  504 -0.00000000000E+00 -0.00000000000E+00 -0.23293684264E+03  0.23293684264E+03  0.00000000000E+00 0. -1.
         -6    2    1    2    0  504 -0.61828759807E+02  0.16165156751E+02 -0.19631995824E+03  0.26090524234E+03  0.15951774712E+03 0.  0.
        -24    2    3    3    0    0 -0.61963497922E+02 -0.99038458379E+01 -0.20845219775E+03  0.23176948620E+03  0.79543791412E+02 0.  0.
          6    2    1    2  502    0  0.61828759807E+02 -0.16165156751E+02  0.19602041298E+04  0.19688526145E+04  0.17290540567E+03 0.  0.
         24    2    5    5    0    0  0.46712776903E+00 -0.64125502413E+02  0.12331657855E+04  0.12376397257E+04  0.83318292555E+02 0.  0.
          4    1    6    6  501    0 -0.26978385334E+02 -0.65702684234E+02  0.10525612967E+04  0.10549549560E+04  0.00000000000E+00 0. -1.
         -3    1    6    6    0  501  0.27445513103E+02  0.15771818212E+01  0.18060448881E+03  0.18268476967E+03  0.00000000000E+00 0.  1.
          5    1    5    5  502    0  0.61361632038E+02  0.47960345662E+02  0.72703834428E+03  0.73121288876E+03  0.47000000000E+01 0. -1.
         11    1    4    4    0    0 -0.60203872695E+02 -0.39280348968E+02 -0.14741482477E+03  0.16400787379E+03  0.00000000000E+00 0. -1.
        -12    1    4    4    0    0 -0.17596252260E+01  0.29376503130E+02 -0.61037372976E+02  0.67761612414E+02  0.00000000000E+00 0.  1.
         -5    1    3    3    0  504  0.13473811486E+00  0.26069002589E+02  0.12132239508E+02  0.29135756140E+02  0.47000000000E+01 0.  1.
<mgrwt>
<rscale>  2 0.18113133E+03</rscale>
<asrwt>0</asrwt>
<pdfrwt beam="1">  1       21 0.30720322E+00 0.18433770E+03</pdfrwt>
<pdfrwt beam="2">  1       21 0.35836439E-01 0.18433770E+03</pdfrwt>
<totfact> 0.23607805E+02</totfact>
</mgrwt>
</event>
<event>
12    1  0.2742799E-001  0.2055336E+03  0.7546771E-02  0.1145234E+00
         21   -1    0    0  502  503  0.00000000000E+00  0.00000000000E+00  0.19287034026E+04  0.19287034026E+04  0.00000000000E+00 0. -1.
         21   -1    0    0  503  504 -0.00000000000E+00 -0.00000000000E+00 -0.28159381290E+02  0.28159381290E+02  0.00000000000E+00 0.  1.
         -6    2    1    2    0  504 -0.30864326830E+01  0.11184255154E+03  0.48822340859E+03  0.52972270000E+03  0.17241159998E+03 0.  0.
        -24    2    3    3    0    0 -0.62252127170E+02  0.97601422047E+02  0.29028597030E+03  0.32258818176E+03  0.79973905338E+02 0.  0.
          6    2    1    2  502    0  0.30864326830E+01 -0.11184255154E+03  0.14123206127E+04  0.14271400838E+04  0.17193319489E+03 0.  0.
         24    2    5    5    0    0  0.20375661828E+02 -0.27243576911E+02  0.32923899011E+03  0.34061176157E+03  0.80378351766E+02 0.  0.
          2    1    6    6  501    0 -0.30895697961E+02 -0.51817917167E+01  0.12768687103E+03  0.13147369376E+03  0.00000000000E+00 0. -1.
         -1    1    6    6    0  501  0.51271359789E+02 -0.22061785195E+02  0.20155211908E+03  0.20913806781E+03  0.00000000000E+00 0.  1.
          5    1    5    5  502    0 -0.17289229145E+02 -0.84598974627E+02  0.10830816226E+04  0.10865283223E+04  0.47000000000E+01 0. -1.
         13    1    4    4    0    0 -0.15387933322E+02  0.45670188009E+02  0.21284169550E+03  0.21822956241E+03  0.00000000000E+00 0. -1.
        -14    1    4    4    0    0 -0.46864193848E+02  0.51931234038E+02  0.77444274795E+02  0.10435861935E+03  0.00000000000E+00 0.  1.
         -5    1    3    3    0  504  0.59165694487E+02  0.14241129491E+02  0.19793743829E+03  0.20713451825E+03  0.47000000000E+01 0.  1.
<mgrwt>
<rscale>  2 0.20543320E+03</rscale>
<asrwt>0</asrwt>
<pdfrwt beam="1">  1       21 0.29672350E+00 0.20553355E+03</pdfrwt>
<pdfrwt beam="2">  1       21 0.43322140E-02 0.20553355E+03</pdfrwt>
<totfact> 0.12057784E+04</totfact>
</mgrwt>
</event>
<event>
12    1  0.2742799E-001  0.1875107E+03  0.7546771E-02  0.1161084E+00
         21   -1    0    0  502  503  0.00000000000E+00  0.00000000000E+00  0.18465322421E+03  0.18465322421E+03  0.00000000000E+00 0.  1.
         21   -1    0    0  503  504 -0.00000000000E+00 -0.00000000000E+00 -0.19071709448E+03  0.19071709448E+03  0.00000000000E+00 0.  1.
         -6    2    1    2    0  504 -0.32134154956E+02  0.61561506770E+02  0.15624841501E+02  0.18660940795E+03  0.17250076067E+03 0.  0.
        -24    2    3    3    0    0  0.41206209333E+02  0.47843534077E+02  0.38162290747E+02  0.10852600109E+03  0.79590056140E+02 0.  0.
          6    2    1    2  502    0  0.32134154956E+02 -0.61561506770E+02 -0.21688711770E+02  0.18876091074E+03  0.17417766268E+03 0.  0.
         24    2    5    5    0    0 -0.20962192013E+02 -0.84437307505E+02  0.15820263445E+02  0.11968459395E+03  0.80653883355E+02 0.  0.
          2    1    6    6  501    0 -0.28872932834E+02 -0.69694773245E+02 -0.21788458624E+02  0.78522255427E+02  0.00000000000E+00 0. -1.
         -1    1    6    6    0  501  0.79107408218E+01 -0.14742534260E+02  0.37608722070E+02  0.41162338520E+02  0.00000000000E+00 0.  1.
          5    1    5    5  502    0  0.53096346968E+02  0.22875800734E+02 -0.37508975215E+02  0.69076316797E+02  0.47000000000E+01 0. -1.
         13    1    4    4    0    0  0.21711330611E+02 -0.10494402419E+02  0.40317846130E+02  0.46979177042E+02  0.00000000000E+00 0. -1.
        -14    1    4    4    0    0  0.19494878722E+02  0.58337936496E+02 -0.21555553830E+01  0.61546824045E+02  0.00000000000E+00 0.  1.
         -5    1    3    3    0  504 -0.73340364288E+02  0.13717972693E+02 -0.22537449246E+02  0.78083406863E+02  0.47000000000E+01 0.  1.
<mgrwt>
<rscale>  2 0.18712038E+03</rscale>
<asrwt>0</asrwt>
<pdfrwt beam="1">  1       21 0.28408188E-01 0.18751075E+03</pdfrwt>
<pdfrwt beam="2">  1       21 0.29341091E-01 0.18751075E+03</pdfrwt>
<totfact> 0.13205031E+05</totfact>
</mgrwt>
</event>
<event>
12    1  0.2742799E-001  0.1775623E+03  0.7546771E-02  0.1170356E+00
         21   -1    0    0  502  503  0.00000000000E+00  0.00000000000E+00  0.52267264676E+03  0.52267264676E+03  0.00000000000E+00 0.  1.
         21   -1    0    0  503  504 -0.00000000000E+00 -0.00000000000E+00 -0.30434117721E+03  0.30434117721E+03  0.00000000000E+00 0.  1.
         -6    2    1    2    0  504  0.16652084841E+01 -0.40629859883E+02 -0.26132385587E+03  0.31554770115E+03  0.17212389615E+03 0.  0.
        -24    2    3    3    0    0  0.28737752728E+02 -0.56280902058E+00 -0.40870339195E+02  0.89804186895E+02  0.74620588125E+02 0.  0.
          6    2    1    2  502    0 -0.16652084841E+01  0.40629859883E+02  0.47965532542E+03  0.51146612282E+03  0.17284329652E+03 0.  0.
         24    2    5    5    0    0 -0.59224712068E+02 -0.42298285880E+01  0.34452242972E+03  0.35781561809E+03  0.76228957752E+02 0.  0.
          2    1    6    6  501    0 -0.21796016130E+02  0.33990665229E+02  0.19153789186E+03  0.19574778583E+03  0.00000000000E+00 0. -1.
         -1    1    6    6    0  501 -0.37428695938E+02 -0.38220493817E+02  0.15298453786E+03  0.16206783226E+03  0.00000000000E+00 0.  1.
          5    1    5    5  502    0  0.57559503584E+02  0.44859688470E+02  0.13513289570E+03  0.15365050473E+03  0.47000000000E+01 0. -1.
         13    1    4    4    0    0  0.13817494808E+02  0.35435510319E+02 -0.32314403410E+02  0.49908107779E+02  0.00000000000E+00 0. -1.
        -14    1    4    4    0    0  0.14920257919E+02 -0.35998319340E+02 -0.85559357848E+01  0.39896079116E+02  0.00000000000E+00 0.  1.
         -5    1    3    3    0  504 -0.27072544243E+02 -0.40067050862E+02 -0.22045351667E+03  0.22574351426E+03  0.47000000000E+01 0.  1.
<mgrwt>
<rscale>  2 0.17738697E+03</rscale>
<asrwt>0</asrwt>
<pdfrwt beam="1">  1       21 0.80411176E-01 0.17756228E+03</pdfrwt>
<pdfrwt beam="2">  1       21 0.46821720E-01 0.17756228E+03</pdfrwt>
<totfact> 0.60064109E+03</totfact>
</mgrwt>
</event>
<event>
12    1  0.2742799E-001  0.1761210E+03  0.7546771E-02  0.1171874E+00
         21   -1    0    0  502  503  0.00000000000E+00  0.00000000000E+00  0.49895599353E+02  0.49895599353E+02  0.00000000000E+00 0.  1.
         21   -1    0    0  503  504 -0.00000000000E+00 -0.00000000000E+00 -0.63642470036E+03  0.63642470036E+03  0.00000000000E+00 0.  1.
         -6    2    1    2    0  504  0.68024703830E+01  0.26371932562E+02 -0.23566210500E+03  0.29420268225E+03  0.17400240826E+03 0.  0.
        -24    2    3    3    0    0  0.52939415183E+02  0.42048921978E+02 -0.22219992432E+03  0.24343156860E+03  0.72906986646E+02 0.  0.
          6    2    1    2  502    0 -0.68024703830E+01 -0.26371932562E+02 -0.35086699601E+03  0.39211761747E+03  0.17293589739E+03 0.  0.
         24    2    5    5    0    0 -0.32885665790E+02  0.11965410520E+02 -0.32991524879E+03  0.34101819801E+03  0.78896780202E+02 0.  0.
          4    1    6    6  501    0 -0.57931220612E+02  0.89734984244E+00 -0.24676246457E+03  0.25347296795E+03  0.00000000000E+00 0. -1.
         -3    1    6    6    0  501  0.25045554821E+02  0.11068060678E+02 -0.83152784214E+02  0.87545230059E+02  0.00000000000E+00 0.  1.
          5    1    5    5  502    0  0.26083195407E+02 -0.38337343082E+02 -0.20951747222E+02  0.51099419458E+02  0.47000000000E+01 0. -1.
         11    1    4    4    0    0  0.22126300587E+02 -0.19655035209E+02 -0.52786396531E+02  0.60516917018E+02  0.00000000000E+00 0. -1.
        -12    1    4    4    0    0  0.30813114596E+02  0.61703957187E+02 -0.16941352779E+03  0.18291465158E+03  0.00000000000E+00 0.  1.
         -5    1    3    3    0  504 -0.46136944800E+02 -0.15676989416E+02 -0.13462180673E+02  0.50771113648E+02  0.47000000000E+01 0.  1.
<mgrwt>
<rscale>  2 0.17585696E+03</rscale>
<asrwt>0</asrwt>
<pdfrwt beam="1">  1       21 0.76762464E-02 0.17612095E+03</pdfrwt>
<pdfrwt beam="2">  1       21 0.97911488E-01 0.17612095E+03</pdfrwt>
<totfact> 0.11200005E+05</totfact>
</mgrwt>
</event>
<event>
12    1  0.2742799E-001  0.2864103E+03  0.7546771E-02  0.1092330E+00
         21   -1    0    0  502  503  0.00000000000E+00  0.00000000000E+00  0.50692339031E+03  0.50692339031E+03  0.00000000000E+00 0.  1.
         21   -1    0    0  503  504 -0.00000000000E+00 -0.00000000000E+00 -0.24274819722E+03  0.24274819722E+03  0.00000000000E+00 0. -1.
         -6    2    1    2    0  504 -0.22249660760E+03 -0.51553847787E+02 -0.84751634700E+02  0.29868658789E+03  0.17282447334E+03 0.  0.
        -24    2    3    3    0    0 -0.24128623589E+03 -0.28213313918E+02 -0.79549146647E+02  0.26791344157E+03  0.80215377150E+02 0.  0.
          6    2    1    2  502    0  0.22249660760E+03  0.51553847787E+02  0.34892682779E+03  0.45098499965E+03  0.17168284463E+03 0.  0.
         24    2    5    5    0    0  0.23365093365E+03  0.17549386259E+02  0.28576797428E+03  0.37823987493E+03  0.80630813656E+02 0.  0.
          4    1    6    6  501    0  0.12824435253E+03  0.47476633221E+02  0.17891678244E+03  0.22519293883E+03  0.00000000000E+00 0. -1.
         -3    1    6    6    0  501  0.10540658112E+03 -0.29927246962E+02  0.10685119184E+03  0.15304693611E+03  0.00000000000E+00 0.  1.
          5    1    5    5  502    0 -0.11154326048E+02  0.34004461528E+02  0.63158853506E+02  0.72745124713E+02  0.47000000000E+01 0. -1.
         11    1    4    4    0    0 -0.16121712342E+03  0.15179683407E+02 -0.31578852281E+02  0.16498062790E+03  0.00000000000E+00 0. -1.
        -12    1    4    4    0    0 -0.80069112472E+02 -0.43392997325E+02 -0.47970294365E+02  0.10293281367E+03  0.00000000000E+00 0.  1.
         -5    1    3    3    0  504  0.18789628287E+02 -0.23340533869E+02 -0.52024880530E+01  0.30773146319E+02  0.47000000000E+01 0.  1.
<mgrwt>
<rscale>  2 0.28623825E+03</rscale>
<asrwt>0</asrwt>
<pdfrwt beam="1">  1       21 0.77988214E-01 0.28641026E+03</pdfrwt>
<pdfrwt beam="2">  1       21 0.37345877E-01 0.28641026E+03</pdfrwt>
<totfact> 0.95339125E+03</totfact>
</mgrwt>
</event>
<event>
12    1  0.2742799E-001  0.2074324E+03  0.7546771E-02  0.1144365E+00
         21   -1    0    0  502  503  0.00000000000E+00  0.00000000000E+00  0.17110025377E+03  0.17110025377E+03  0.00000000000E+00 0. -1.
         21   -1    0    0  503  504 -0.00000000000E+00 -0.00000000000E+00 -0.27341847192E+03  0.27341847192E+03  0.00000000000E+00 0. -1.
         -6    2    1    2    0  504  0.10522209385E+03 -0.25504992729E+02 -0.11979245543E+03  0.23635157747E+03  0.17259676157E+03 0.  0.
        -24    2    3    3    0    0  0.10001785959E+03 -0.72165703248E+02 -0.11853672767E+03  0.18915017057E+03  0.80717843498E+02 0.  0.
          6    2    1    2  502    0 -0.10522209385E+03  0.25504992729E+02  0.17474237273E+02  0.20816714822E+03  0.17693506985E+03 0.  0.
         24    2    5    5    0    0 -0.12508359625E+03 -0.25860769873E+02  0.23943953879E+02  0.15251763719E+03  0.79835025247E+02 0.  0.
          4    1    6    6  501    0 -0.13000789004E+03 -0.88586899074E+01  0.11368190136E+02  0.13080429506E+03  0.00000000000E+00 0. -1.
         -3    1    6    6    0  501  0.49242937899E+01 -0.17002079965E+02  0.12575763743E+02  0.21713342124E+02  0.00000000000E+00 0.  1.
          5    1    5    5  502    0  0.19861502400E+02  0.51365762602E+02 -0.64697166067E+01  0.55649511033E+02  0.47000000000E+01 0. -1.
         11    1    4    4    0    0  0.78684397254E+02 -0.73285615831E+01 -0.67378274720E+02  0.10384976692E+03  0.00000000000E+00 0. -1.
        -12    1    4    4    0    0  0.21333462340E+02 -0.64837141665E+02 -0.51158452948E+02  0.85300403649E+02  0.00000000000E+00 0.  1.
         -5    1    3    3    0  504  0.52042342585E+01  0.46660710519E+02 -0.12557277589E+01  0.47201406892E+02  0.47000000000E+01 0.  1.
<mgrwt>
<rscale>  2 0.20650424E+03</rscale>
<asrwt>0</asrwt>
<pdfrwt beam="1">  1       21 0.26323116E-01 0.20743243E+03</pdfrwt>
<pdfrwt beam="2">  1       21 0.42064380E-01 0.20743243E+03</pdfrwt>
<totfact> 0.74161288E+04</totfact>
</mgrwt>
</event>
<event>
12    1  0.2742799E-001  0.2332030E+03  0.7546771E-02  0.1125292E+00
         21   -1    0    0  502  503  0.00000000000E+00  0.00000000000E+00  0.13927565007E+04  0.13927565007E+04  0.00000000000E+00 0. -1.
         21   -1    0    0  503  504 -0.00000000000E+00 -0.00000000000E+00 -0.43149537423E+02  0.43149537423E+02  0.00000000000E+00 0. -1.
         -6    2    1    2    0  504 -0.18849200835E+02 -0.14676100243E+03  0.42516747752E+03  0.48250579943E+03  0.17363864298E+03 0.  0.
        -24    2    3    3    0    0  0.39833584343E+02 -0.56860210605E+02  0.12822173130E+03  0.16671364018E+03  0.80825908295E+02 0.  0.
          6    2    1    2  502    0  0.18849200835E+02  0.14676100243E+03  0.92443948578E+03  0.95340023872E+03  0.18024862860E+03 0.  0.
         24    2    5    5    0    0 -0.19648903732E+02  0.62089405101E+02  0.73739372683E+03  0.74445146655E+03  0.78849882916E+02 0.  0.
          2    1    6    6  501    0  0.12553213187E+01  0.72750899441E+02  0.64633520592E+03  0.65041791766E+03  0.00000000000E+00 0. -1.
         -1    1    6    6    0  501 -0.20904225050E+02 -0.10661494340E+02  0.91058520915E+02  0.94033548895E+02  0.00000000000E+00 0.  1.
          5    1    5    5  502    0  0.38498104567E+02  0.84671597330E+02  0.18704575895E+03  0.20894877217E+03  0.47000000000E+01 0. -1.
         13    1    4    4    0    0 -0.92671560212E+01  0.13039843752E+02  0.49655476580E+01  0.16750354305E+02  0.00000000000E+00 0. -1.
        -14    1    4    4    0    0  0.49100740364E+02 -0.69900054357E+02  0.12325618365E+03  0.14996328588E+03  0.00000000000E+00 0.  1.
         -5    1    3    3    0  504 -0.58682785178E+02 -0.89900791826E+02  0.29694574621E+03  0.31579215925E+03  0.47000000000E+01 0.  1.
<mgrwt>
<rscale>  2 0.23192494E+03</rscale>
<asrwt>0</asrwt>
<pdfrwt beam="1">  1       21 0.21427020E+00 0.23320303E+03</pdfrwt>
<pdfrwt beam="2">  1       21 0.66383914E-02 0.23320303E+03</pdfrwt>
<totfact> 0.17543426E+04</totfact>
</mgrwt>
</event>
<event>
12    1  0.2742799E-001  0.1959153E+03  0.7546771E-02  0.1153307E+00
         21   -1    0    0  502  503  0.00000000000E+00  0.00000000000E+00  0.72425864894E+02  0.72425864894E+02  0.00000000000E+00 0. -1.
         21   -1    0    0  503  504 -0.00000000000E+00 -0.00000000000E+00 -0.61324589883E+03  0.61324589883E+03  0.00000000000E+00 0. -1.
         -6    2    1    2    0  504  0.83610641425E+02  0.39611054570E+02 -0.39766728753E+03  0.44330809370E+03  0.17269342593E+03 0.  0.
        -24    2    3    3    0    0  0.76374719436E+02  0.32323045990E+02 -0.40982098761E+03  0.42671664826E+03  0.85182034148E+02 0.  0.
          6    2    1    2  502    0 -0.83610641425E+02 -0.39611054570E+02 -0.14315274640E+03  0.24236367003E+03  0.17230108747E+03 0.  0.
         24    2    5    5    0    0 -0.50329100691E+02  0.44759286620E+02 -0.69851207374E+02  0.12565368309E+03  0.79832604793E+02 0.  0.
          4    1    6    6  501    0 -0.51636462844E+02  0.11499839959E+02 -0.54780970429E+01  0.53184397725E+02  0.00000000000E+00 0. -1.
         -3    1    6    6    0  501  0.13073621535E+01  0.33259446660E+02 -0.64373110331E+02  0.72469285367E+02  0.00000000000E+00 0.  1.
          5    1    5    5  502    0 -0.33281540734E+02 -0.84370341189E+02 -0.73301539029E+02  0.11670998693E+03  0.47000000000E+01 0. -1.
         11    1    4    4    0    0  0.28730214987E+02 -0.97066022731E+01 -0.33983189665E+02  0.45546685507E+02  0.00000000000E+00 0. -1.
        -12    1    4    4    0    0  0.47644504449E+02  0.42029648263E+02 -0.37583779795E+03  0.38116996275E+03  0.00000000000E+00 0.  1.
         -5    1    3    3    0  504  0.72359219895E+01  0.72880085801E+01  0.12153700080E+02  0.16591445439E+02  0.47000000000E+01 0.  1.
<mgrwt>
<rscale>  2 0.19582878E+03</rscale>
<asrwt>0</asrwt>
<pdfrwt beam="1">  1       21 0.11142441E-01 0.19591527E+03</pdfrwt>
<pdfrwt beam="2">  1       21 0.94345524E-01 0.19591527E+03</pdfrwt>
<totfact> 0.62963379E+04</totfact>
</mgrwt>
</event>
<event>
12    1  0.2742799E-001  0.2312062E+03  0.7546771E-02  0.1125807E+00
         21   -1    0    0  502  503  0.00000000000E+00  0.00000000000E+00  0.18419267828E+03  0.18419267828E+03  0.00000000000E+00 0. -1.
         21   -1    0    0  503  504 -0.00000000000E+00 -0.00000000000E+00 -0.46525642051E+03  0.46525642051E+03  0.00000000000E+00 0. -1.
         -6    2    1    2    0  504 -0.12133751213E+03 -0.92712572587E+02 -0.33974765505E+03  0.41091163861E+03  0.17349781747E+03 0.  0.
        -24    2    3    3    0    0 -0.99432181279E+02 -0.10577451509E+03 -0.34641307267E+03  0.38413523755E+03  0.80516191484E+02 0.  0.
          6    2    1    2  502    0  0.12133751213E+03  0.92712572587E+02  0.58683912825E+02  0.23853746018E+03  0.17360272267E+03 0.  0.
         24    2    5    5    0    0  0.87086809300E+02  0.13118595143E+03  0.61487910278E+02  0.18673722923E+03  0.79348367750E+02 0.  0.
          2    1    6    6  501    0  0.62670448223E+02  0.13476067307E+03  0.39732380275E+02  0.15383980671E+03  0.00000000000E+00 0. -1.
         -1    1    6    6    0  501  0.24416361077E+02 -0.35747216364E+01  0.21755530002E+02  0.32897422524E+02  0.00000000000E+00 0.  1.
          5    1    5    5  502    0  0.34250702831E+02 -0.38473378845E+02 -0.28039974524E+01  0.51800230944E+02  0.47000000000E+01 0. -1.
         13    1    4    4    0    0 -0.21049582387E+02 -0.61333155275E+02 -0.80487172480E+02  0.10335872381E+03  0.00000000000E+00 0. -1.
        -14    1    4    4    0    0 -0.78382598892E+02 -0.44441359816E+02 -0.26592590019E+03  0.28077651374E+03  0.00000000000E+00 0.  1.
         -5    1    3    3    0  504 -0.21905330852E+02  0.13061942504E+02  0.66654176211E+01  0.26776401061E+02  0.47000000000E+01 0.  1.
<mgrwt>
<rscale>  2 0.23118653E+03</rscale>
<asrwt>0</asrwt>
<pdfrwt beam="1">  1       21 0.28337335E-01 0.23120622E+03</pdfrwt>
<pdfrwt beam="2">  1       21 0.71577910E-01 0.23120622E+03</pdfrwt>
<totfact> 0.20541121E+04</totfact>
</mgrwt>
</event>
<event>
12    1  0.2742799E-001  0.2495325E+03  0.7546771E-02  0.1115197E+00
         21   -1    0    0  502  503  0.00000000000E+00  0.00000000000E+00  0.88848368147E+03  0.88848368147E+03  0.00000000000E+00 0.  1.
         21   -1    0    0  503  504 -0.00000000000E+00 -0.00000000000E+00 -0.13413599949E+03  0.13413599949E+03  0.00000000000E+00 0. -1.
         -6    2    1    2    0  504 -0.11397319929E+03  0.13591357791E+03  0.73413972461E+03  0.77227026583E+03  0.16117641703E+03 0.  0.
        -24    2    3    3    0    0 -0.65879244090E+02  0.10947739829E+03  0.31122756443E+03  0.34578616840E+03  0.79875539823E+02 0.  0.
          6    2    1    2  502    0  0.11397319929E+03 -0.13591357791E+03  0.20207957370E+02  0.25034941513E+03  0.17551090366E+03 0.  0.
         24    2    5    5    0    0  0.12160097565E+03 -0.55931679259E+02 -0.24857369080E+02  0.15810918133E+03  0.80408173710E+02 0.  0.
          2    1    6    6  501    0  0.92962024171E+02 -0.75716073296E+02 -0.28119131633E+02  0.12314847647E+03  0.00000000000E+00 0. -1.
         -1    1    6    6    0  501  0.28638951484E+02  0.19784394037E+02  0.32617625530E+01  0.34960704862E+02  0.00000000000E+00 0.  1.
          5    1    5    5  502    0 -0.76277763678E+01 -0.79981898648E+02  0.45065326450E+02  0.92240233801E+02  0.47000000000E+01 0. -1.
         11    1    4    4    0    0 -0.54268064797E+02  0.29296884572E+02  0.81585099133E+02  0.10227149507E+03  0.00000000000E+00 0. -1.
        -12    1    4    4    0    0 -0.11611179293E+02  0.80180513722E+02  0.22964246529E+03  0.24351467334E+03  0.00000000000E+00 0.  1.
         -5    1    3    3    0  504 -0.48093955197E+02  0.26436179613E+02  0.42291216019E+03  0.42648409742E+03  0.47000000000E+01 0.  1.
<mgrwt>
<rscale>  2 0.24702867E+03</rscale>
<asrwt>0</asrwt>
<pdfrwt beam="1">  1       21 0.13668979E+00 0.24953250E+03</pdfrwt>
<pdfrwt beam="2">  1       21 0.20636308E-01 0.24953250E+03</pdfrwt>
<totfact> 0.79647996E+03</totfact>
</mgrwt>
</event>
<event>
12    1  0.2742799E-001  0.1976175E+03  0.7546771E-02  0.1152445E+00
         21   -1    0    0  502  503  0.00000000000E+00  0.00000000000E+00  0.77441382109E+03  0.77441382109E+03  0.00000000000E+00 0.  1.
         21   -1    0    0  503  504 -0.00000000000E+00 -0.00000000000E+00 -0.50852633408E+02  0.50852633408E+02  0.00000000000E+00 0.  1.
         -6    2    1    2    0  504 -0.90366445045E+02 -0.83604745727E+01  0.42297123084E+03  0.46553463643E+03  0.17199373149E+03 0.  0.
        -24    2    3    3    0    0 -0.12660039477E+03  0.12656260677E+02  0.35043734691E+03  0.38164270242E+03  0.81590301590E+02 0.  0.
          6    2    1    2  502    0  0.90366445045E+02  0.83604745727E+01  0.30058995684E+03  0.35973181806E+03  0.17554676543E+03 0.  0.
         24    2    5    5    0    0 -0.81571840633E+01 -0.36565153342E+02  0.11151406088E+03  0.14179374896E+03  0.79161426070E+02 0.  0.
          4    1    6    6  501    0 -0.27829122266E+02 -0.86576628640E+00  0.57268196611E+01  0.28425447415E+02  0.00000000000E+00 0. -1.
         -3    1    6    6    0  501  0.19671938202E+02 -0.35699387056E+02  0.10578724122E+03  0.11336830154E+03  0.00000000000E+00 0.  1.
          5    1    5    5  502    0  0.98523629108E+02  0.44925627915E+02  0.18907589595E+03  0.21793806911E+03  0.47000000000E+01 0. -1.
         13    1    4    4    0    0 -0.11328799243E+02 -0.14461607472E+02  0.13109416963E+03  0.13237507731E+03  0.00000000000E+00 0. -1.
        -14    1    4    4    0    0 -0.11527159553E+03  0.27117868149E+02  0.21934317728E+03  0.24926762511E+03  0.00000000000E+00 0.  1.
         -5    1    3    3    0  504  0.36233949726E+02 -0.21016735250E+02  0.72533883936E+02  0.83891934011E+02  0.47000000000E+01 0.  1.
<mgrwt>
<rscale>  2 0.19682536E+03</rscale>
<asrwt>0</asrwt>
<pdfrwt beam="1">  1       21 0.11914058E+00 0.19761746E+03</pdfrwt>
<pdfrwt beam="2">  1       21 0.78234826E-02 0.19761746E+03</pdfrwt>
<totfact> 0.66900484E+04</totfact>
</mgrwt>
</event>
<event>
12    1  0.2742799E-001  0.1958096E+03  0.7546771E-02  0.1155741E+00
         21   -1    0    0  502  503  0.00000000000E+00  0.00000000000E+00  0.55526988879E+03  0.55526988879E+03  0.00000000000E+00 0.  1.
         21   -1    0    0  503  504 -0.00000000000E+00 -0.00000000000E+00 -0.95661425283E+02  0.95661425283E+02  0.00000000000E+00 0.  1.
         -6    2    1    2    0  504 -0.70935228898E+02 -0.34022405439E+02  0.50917049102E+02  0.20232134418E+03  0.17930992625E+03 0.  0.
        -24    2    3    3    0    0 -0.34370054560E+00  0.34152635538E+02 -0.16043262852E+02  0.83423179925E+02  0.74401075407E+02 0.  0.
          6    2    1    2  502    0  0.70935228898E+02  0.34022405439E+02  0.40869141440E+03  0.44860996989E+03  0.16743029028E+03 0.  0.
         24    2    5    5    0    0  0.87025089401E+02 -0.11616672041E+02  0.18709561020E+03  0.22174304977E+03  0.80354835011E+02 0.  0.
          4    1    6    6  501    0  0.67059167600E+02 -0.29778478695E+02  0.17917153149E+03  0.19361334523E+03  0.00000000000E+00 0. -1.
         -3    1    6    6    0  501  0.19965921801E+02  0.18161806654E+02  0.79240787108E+01  0.28129704544E+02  0.00000000000E+00 0.  1.
          5    1    5    5  502    0 -0.16089860503E+02  0.45639077480E+02  0.22159580420E+03  0.22686692011E+03  0.47000000000E+01 0. -1.
         13    1    4    4    0    0  0.31654210642E+02  0.27168609668E+01 -0.21314974607E+02  0.38258313180E+02  0.00000000000E+00 0. -1.
        -14    1    4    4    0    0 -0.31997911188E+02  0.31435774571E+02  0.52717117555E+01  0.45164866745E+02  0.00000000000E+00 0.  1.
         -5    1    3    3    0  504 -0.70591528353E+02 -0.68175040977E+02  0.66960311954E+02  0.11889816426E+03  0.47000000000E+01 0.  1.
<mgrwt>
<rscale>  2 0.19304740E+03</rscale>
<asrwt>0</asrwt>
<pdfrwt beam="1">  1       21 0.85426135E-01 0.19580955E+03</pdfrwt>
<pdfrwt beam="2">  1       21 0.14717143E-01 0.19580955E+03</pdfrwt>
<totfact> 0.48032746E+04</totfact>
</mgrwt>
</event>
<event>
12    1  0.2742799E-001  0.2301497E+03  0.7546771E-02  0.1127234E+00
         21   -1    0    0  502  503  0.00000000000E+00  0.00000000000E+00  0.19138893927E+03  0.19138893927E+03  0.00000000000E+00 0. -1.
         21   -1    0    0  503  504 -0.00000000000E+00 -0.00000000000E+00 -0.32959489598E+03  0.32959489598E+03  0.00000000000E+00 0.  1.
         -6    2    1    2    0  504 -0.71717673266E+02 -0.12640115304E+03 -0.17746172695E+03  0.28751032864E+03  0.17334603657E+03 0.  0.
        -24    2    3    3    0    0  0.17052128827E+02 -0.11427877621E+02 -0.64389603036E+02  0.10337362119E+03  0.78222203335E+02 0.  0.
          6    2    1    2  502    0  0.71717673266E+02  0.12640115304E+03  0.39255770236E+02  0.23347350661E+03  0.17846060250E+03 0.  0.
         24    2    5    5    0    0  0.11340382446E+03  0.84243395848E+02  0.55209478627E+02  0.17189735454E+03  0.80890276425E+02 0.  0.
          4    1    6    6  501    0  0.99867409421E+02  0.32227957041E+02  0.54269732097E+02  0.11814120577E+03  0.00000000000E+00 0. -1.
         -3    1    6    6    0  501  0.13536415039E+02  0.52015438807E+02  0.93974653032E+00  0.53756148764E+02  0.00000000000E+00 0.  1.
          5    1    5    5  502    0 -0.41686151195E+02  0.42157757192E+02 -0.15953708391E+02  0.61576152075E+02  0.47000000000E+01 0. -1.
         11    1    4    4    0    0 -0.21099713784E+02  0.66473265538E+01  0.45020498720E+01  0.22575502766E+02  0.00000000000E+00 0. -1.
        -12    1    4    4    0    0  0.38151842611E+02 -0.18075204175E+02 -0.68891652908E+02  0.80798118425E+02  0.00000000000E+00 0.  1.
         -5    1    3    3    0  504 -0.88769802093E+02 -0.11497327542E+03 -0.11307212391E+03  0.18413670745E+03  0.47000000000E+01 0.  1.
<mgrwt>
<rscale>  2 0.22915755E+03</rscale>
<asrwt>0</asrwt>
<pdfrwt beam="1">  1       21 0.29444453E-01 0.23014965E+03</pdfrwt>
<pdfrwt beam="2">  1       21 0.50706906E-01 0.23014965E+03</pdfrwt>
<totfact> 0.40149490E+04</totfact>
</mgrwt>
</event>
<event>
12    1  0.2742799E-001  0.1842095E+03  0.7546771E-02  0.1164038E+00
         21   -1    0    0  502  503  0.00000000000E+00  0.00000000000E+00  0.69680310836E+03  0.69680310836E+03  0.00000000000E+00 0.  1.
         21   -1    0    0  503  504 -0.00000000000E+00 -0.00000000000E+00 -0.50252321367E+02  0.50252321367E+02  0.00000000000E+00 0.  1.
         -6    2    1    2    0  504  0.37786613421E+02  0.50702200449E+02  0.39370004661E+03  0.43421897417E+03  0.17189487933E+03 0.  0.
        -24    2    3    3    0    0  0.41512820327E+02  0.91357771437E+02  0.21403365755E+03  0.24991254066E+03  0.81094480480E+02 0.  0.
          6    2    1    2  502    0 -0.37786613421E+02 -0.50702200449E+02  0.25285074038E+03  0.31283645556E+03  0.17301621234E+03 0.  0.
         24    2    5    5    0    0 -0.78279350309E+02 -0.76005879619E+02  0.19539878399E+03  0.23798490105E+03  0.80941818118E+02 0.  0.
          4    1    6    6  501    0 -0.14583166760E+02 -0.19921612037E+01  0.10134106046E+03  0.10240433582E+03  0.00000000000E+00 0. -1.
         -3    1    6    6    0  501 -0.63696183549E+02 -0.74013718415E+02  0.94057723530E+02  0.13558056523E+03  0.00000000000E+00 0.  1.
          5    1    5    5  502    0  0.40492736888E+02  0.25303679170E+02  0.57451956390E+02  0.74851554515E+02  0.47000000000E+01 0. -1.
         13    1    4    4    0    0  0.73621588571E+01 -0.57939405351E+01 -0.28750402909E+01  0.97998462557E+01  0.00000000000E+00 0. -1.
        -14    1    4    4    0    0  0.34150661470E+02  0.97151711972E+02  0.21690869784E+03  0.24011269441E+03  0.00000000000E+00 0.  1.
         -5    1    3    3    0  504 -0.37262069067E+01 -0.40655570988E+02  0.17966638907E+03  0.18430643350E+03  0.47000000000E+01 0.  1.
<mgrwt>
<rscale>  2 0.18394577E+03</rscale>
<asrwt>0</asrwt>
<pdfrwt beam="1">  1       21 0.10720047E+00 0.18420953E+03</pdfrwt>
<pdfrwt beam="2">  1       21 0.77311269E-02 0.18420953E+03</pdfrwt>
<totfact> 0.88840331E+04</totfact>
</mgrwt>
</event>
<event>
12    1  0.2742799E-001  0.1786118E+03  0.7546771E-02  0.1169251E+00
         21   -1    0    0  502  503  0.00000000000E+00  0.00000000000E+00  0.19766741168E+03  0.19766741168E+03  0.00000000000E+00 0. -1.
         21   -1    0    0  503  504 -0.00000000000E+00 -0.00000000000E+00 -0.28504973734E+03  0.28504973734E+03  0.00000000000E+00 0. -1.
         -6    2    1    2    0  504  0.35702783776E+02  0.24526191971E+02 -0.20286372190E+03  0.27002456433E+03  0.17286802138E+03 0.  0.
        -24    2    3    3    0    0  0.71200520604E+02  0.42735499154E+02 -0.97462090302E+02  0.15722712584E+03  0.91245126063E+02 0.  0.
          6    2    1    2  502    0 -0.35702783776E+02 -0.24526191971E+02  0.11548139624E+03  0.21269258468E+03  0.17328000416E+03 0.  0.
         24    2    5    5    0    0 -0.19413722498E+02 -0.34815794348E+02 -0.51245056472E+01  0.90467043147E+02  0.81049325601E+02 0.  0.
          4    1    6    6  501    0 -0.37800108265E+02  0.11034962076E+02  0.59936873457E+01  0.39831430565E+02  0.00000000000E+00 0. -1.
         -3    1    6    6    0  501  0.18386385767E+02 -0.45850756423E+02 -0.11118192993E+02  0.50635612582E+02  0.00000000000E+00 0.  1.
          5    1    5    5  502    0 -0.16289061278E+02  0.10289602377E+02  0.12060590188E+03  0.12222554154E+03  0.47000000000E+01 0. -1.
         11    1    4    4    0    0  0.15943744832E+02  0.62597804427E+02 -0.48583201710E+02  0.80827072239E+02  0.00000000000E+00 0. -1.
        -12    1    4    4    0    0  0.55256775772E+02 -0.19862305274E+02 -0.48878888592E+02  0.76400053596E+02  0.00000000000E+00 0.  1.
         -5    1    3    3    0  504 -0.35497736827E+02 -0.18209307183E+02 -0.10540163160E+03  0.11279743849E+03  0.47000000000E+01 0.  1.
<mgrwt>
<rscale>  2 0.17851182E+03</rscale>
<asrwt>0</asrwt>
<pdfrwt beam="1">  1       21 0.30410371E-01 0.17861182E+03</pdfrwt>
<pdfrwt beam="2">  1       21 0.43853805E-01 0.17861182E+03</pdfrwt>
<totfact> 0.52186384E+04</totfact>
</mgrwt>
</event>
<event>
12    1  0.2742799E-001  0.1738296E+03  0.7546771E-02  0.1174066E+00
         21   -1    0    0  502  503  0.00000000000E+00  0.00000000000E+00  0.19270450261E+03  0.19270450261E+03  0.00000000000E+00 0.  1.
         21   -1    0    0  503  504 -0.00000000000E+00 -0.00000000000E+00 -0.17200228085E+03  0.17200228085E+03  0.00000000000E+00 0.  1.
         -6    2    1    2    0  504  0.10228589972E+02 -0.48945542457E+01 -0.44839827115E+02  0.17893136631E+03  0.17285034868E+03 0.  0.
        -24    2    3    3    0    0 -0.97896923751E+01  0.39679105798E+02 -0.78736245037E+02  0.11927736438E+03  0.79733455072E+02 0.  0.
          6    2    1    2  502    0 -0.10228589972E+02  0.48945542457E+01  0.65542048879E+02  0.18577541715E+03  0.17345940370E+03 0.  0.
         24    2    5    5    0    0 -0.50985018598E+01  0.28004315455E+02  0.10778090636E+03  0.13712780726E+03  0.79856592358E+02 0.  0.
          2    1    6    6  501    0  0.13164487612E+02  0.51300977701E+02  0.53391839874E+02  0.75204937419E+02  0.00000000000E+00 0. -1.
         -1    1    6    6    0  501 -0.18262989471E+02 -0.23296662246E+02  0.54389066484E+02  0.61922869840E+02  0.00000000000E+00 0.  1.
          5    1    5    5  502    0 -0.51300881117E+01 -0.23109761209E+02 -0.42238857480E+02  0.48647609894E+02  0.47000000000E+01 0. -1.
         11    1    4    4    0    0 -0.30972374117E+02 -0.78576240745E+01 -0.51320152058E+02  0.60454844486E+02  0.00000000000E+00 0. -1.
        -12    1    4    4    0    0  0.21182681742E+02  0.47536729872E+02 -0.27416092979E+02  0.58822519896E+02  0.00000000000E+00 0.  1.
         -5    1    3    3    0  504  0.20018282347E+02 -0.44573660043E+02  0.33896417922E+02  0.59654001925E+02  0.47000000000E+01 0.  1.
<mgrwt>
<rscale>  2 0.17367751E+03</rscale>
<asrwt>0</asrwt>
<pdfrwt beam="1">  1       21 0.29646847E-01 0.17382964E+03</pdfrwt>
<pdfrwt beam="2">  1       21 0.26461889E-01 0.17382964E+03</pdfrwt>
<totfact> 0.14905212E+05</totfact>
</mgrwt>
</event>
<event>
12    1  0.2742799E-001  0.2010650E+03  0.7546771E-02  0.1148949E+00
         21   -1    0    0  502  503  0.00000000000E+00  0.00000000000E+00  0.23588689594E+03  0.23588689594E+03  0.00000000000E+00 0. -1.
         21   -1    0    0  503  504 -0.00000000000E+00 -0.00000000000E+00 -0.51706149496E+03  0.51706149496E+03  0.00000000000E+00 0. -1.
         -6    2    1    2    0  504 -0.10143019098E+03 -0.81850578081E+01 -0.44865747923E+03  0.49165094267E+03  0.17341290883E+03 0.  0.
        -24    2    3    3    0    0  0.34729373694E+01 -0.41967063177E+02 -0.22070253394E+03  0.23840908731E+03  0.79724455092E+02 0.  0.
          6    2    1    2  502    0  0.10143019098E+03  0.81850578081E+01  0.16748288021E+03  0.26129744823E+03  0.17283160150E+03 0.  0.
         24    2    5    5    0    0  0.46591206615E+02 -0.12763048992E+02  0.98622422128E+01  0.93034282606E+02  0.78895360860E+02 0.  0.
          2    1    6    6  501    0  0.64121623597E+02 -0.20486324776E+02  0.21445393134E+02  0.70648262556E+02  0.00000000000E+00 0. -1.
         -1    1    6    6    0  501 -0.17530416982E+02  0.77232757841E+01 -0.11583150921E+02  0.22386020050E+02  0.00000000000E+00 0.  1.
          5    1    5    5  502    0  0.54838984366E+02  0.20948106800E+02  0.15762063799E+03  0.16826316563E+03  0.47000000000E+01 0. -1.
         11    1    4    4    0    0 -0.18760162756E+02 -0.53892198989E+01 -0.17386921386E+03  0.17496139838E+03  0.00000000000E+00 0. -1.
        -12    1    4    4    0    0  0.22233100125E+02 -0.36577843278E+02 -0.46833320080E+02  0.63447688924E+02  0.00000000000E+00 0.  1.
         -5    1    3    3    0  504 -0.10490312835E+03  0.33782005369E+02 -0.22795494529E+03  0.25324185536E+03  0.47000000000E+01 0.  1.
<mgrwt>
<rscale>  2 0.20093955E+03</rscale>
<asrwt>0</asrwt>
<pdfrwt beam="1">  1       21 0.36290292E-01 0.20106495E+03</pdfrwt>
<pdfrwt beam="2">  1       21 0.79547921E-01 0.20106495E+03</pdfrwt>
<totfact> 0.10141570E+04</totfact>
</mgrwt>
</event>
<event>
12    1  0.2742799E-001  0.1755178E+03  0.7546771E-02  0.1172523E+00
         21   -1    0    0  502  503  0.00000000000E+00  0.00000000000E+00  0.13258387645E+03  0.13258387645E+03  0.00000000000E+00 0.  1.
         21   -1    0    0  503  504 -0.00000000000E+00 -0.00000000000E+00 -0.23072951375E+03  0.23072951375E+03  0.00000000000E+00 0.  1.
         -6    2    1    2    0  504  0.19998130985E+02 -0.18962083379E+01 -0.48257949348E+02  0.18203108128E+03  0.17436445746E+03 0.  0.
        -24    2    3    3    0    0 -0.52308235081E+02 -0.20349799996E+02 -0.41401664424E+02  0.10694550169E+03  0.81073896523E+02 0.  0.
          6    2    1    2  502    0 -0.19998130985E+02  0.18962083379E+01 -0.49887687949E+02  0.18128230893E+03  0.17312126754E+03 0.  0.
         24    2    5    5    0    0 -0.12618353642E+02 -0.63861418384E+02 -0.50025722236E+02  0.11494502199E+03  0.80450491531E+02 0.  0.
          2    1    6    6  501    0  0.20549439372E+02 -0.65522248122E+02 -0.42936051349E+02  0.80987338288E+02  0.00000000000E+00 0. -1.
         -1    1    6    6    0  501 -0.33167793014E+02  0.16608297385E+01 -0.70896708872E+01  0.33957683698E+02  0.00000000000E+00 0.  1.
          5    1    5    5  502    0 -0.73797773430E+01  0.65757626722E+02  0.13803428705E+00  0.66337286945E+02  0.47000000000E+01 0. -1.
         11    1    4    4    0    0 -0.15119799491E+02  0.24183406382E+02  0.91919810559E+01  0.29965613570E+02  0.00000000000E+00 0. -1.
        -12    1    4    4    0    0 -0.37188435590E+02 -0.44533206378E+02 -0.50593645480E+02  0.76979888120E+02  0.00000000000E+00 0.  1.
         -5    1    3    3    0  504  0.72306366066E+02  0.18453591658E+02 -0.68562849241E+01  0.75085579586E+02  0.47000000000E+01 0.  1.
<mgrwt>
<rscale>  2 0.17520820E+03</rscale>
<asrwt>0</asrwt>
<pdfrwt beam="1">  1       21 0.20397520E-01 0.17551776E+03</pdfrwt>
<pdfrwt beam="2">  1       21 0.35496848E-01 0.17551776E+03</pdfrwt>
<totfact> 0.17114780E+05</totfact>
</mgrwt>
</event>
<event>
12    1  0.2742799E-001  0.1810013E+03  0.7546771E-02  0.1167052E+00
         21   -1    0    0  502  503  0.00000000000E+00  0.00000000000E+00  0.77839392442E+02  0.77839392442E+02  0.00000000000E+00 0.  1.
         21   -1    0    0  503  504 -0.00000000000E+00 -0.00000000000E+00 -0.52505392070E+03  0.52505392070E+03  0.00000000000E+00 0.  1.
         -6    2    1    2    0  504 -0.51248189123E+02 -0.82236717610E+01 -0.35964346584E+03  0.40262250286E+03  0.17339968750E+03 0.  0.
        -24    2    3    3    0    0 -0.84975547127E+02 -0.36216644732E+02 -0.18842125583E+03  0.22581674387E+03  0.83415485360E+02 0.  0.
          6    2    1    2  502    0  0.51248189123E+02  0.82236717610E+01 -0.87571062424E+02  0.20027081028E+03  0.17246941993E+03 0.  0.
         24    2    5    5    0    0  0.87836427716E+01  0.57616183158E+02 -0.91539941653E+02  0.13484375257E+03  0.80040613107E+02 0.  0.
          2    1    6    6  501    0  0.21125835864E+02  0.61666471802E+02 -0.99980119121E+02  0.11935274988E+03  0.00000000000E+00 0. -1.
         -1    1    6    6    0  501 -0.12342193093E+02 -0.40502886443E+01  0.84401774677E+01  0.15491002683E+02  0.00000000000E+00 0.  1.
          5    1    5    5  502    0  0.42464546352E+02 -0.49392511397E+02  0.39688792291E+01  0.65427057715E+02  0.47000000000E+01 0. -1.
         13    1    4    4    0    0 -0.29575953320E+02 -0.47304657097E+02 -0.45025596050E+02  0.71692202487E+02  0.00000000000E+00 0. -1.
        -14    1    4    4    0    0 -0.55399593808E+02  0.11088012366E+02 -0.14339565978E+03  0.15412454138E+03  0.00000000000E+00 0.  1.
         -5    1    3    3    0  504  0.33727358004E+02  0.27992972971E+02 -0.17122221001E+03  0.17680575899E+03  0.47000000000E+01 0.  1.
<mgrwt>
<rscale>  2 0.18077810E+03</rscale>
<asrwt>0</asrwt>
<pdfrwt beam="1">  1       21 0.11975291E-01 0.18100126E+03</pdfrwt>
<pdfrwt beam="2">  1       21 0.80777524E-01 0.18100126E+03</pdfrwt>
<totfact> 0.79645298E+04</totfact>
</mgrwt>
</event>
<event>
12    1  0.2742799E-001  0.2248674E+03  0.7546771E-02  0.1130468E+00
         21   -1    0    0  502  503  0.00000000000E+00  0.00000000000E+00  0.12504040636E+03  0.12504040636E+03  0.00000000000E+00 0. -1.
         21   -1    0    0  503  504 -0.00000000000E+00 -0.00000000000E+00 -0.41683167061E+03  0.41683167061E+03  0.00000000000E+00 0.  1.
         -6    2    1    2    0  504  0.68096664612E+02 -0.12661578221E+03 -0.95879938185E+02  0.24363289935E+03  0.17174200145E+03 0.  0.
        -24    2    3    3    0    0  0.11149901056E+03 -0.98210869436E+02 -0.55247275844E+02  0.17757454672E+03  0.80019084747E+02 0.  0.
          6    2    1    2  502    0 -0.68096664612E+02  0.12661578221E+03 -0.19591132607E+03  0.29823917763E+03  0.17290646996E+03 0.  0.
         24    2    5    5    0    0 -0.80648649227E+02  0.13705979644E+03 -0.10830992313E+03  0.20900507234E+03  0.81624067472E+02 0.  0.
          4    1    6    6  501    0 -0.35594642014E+02  0.10736284283E+02 -0.91832408009E+00  0.37189913410E+02  0.00000000000E+00 0. -1.
         -3    1    6    6    0  501 -0.45054007213E+02  0.12632351216E+03 -0.10739159905E+03  0.17181515893E+03  0.00000000000E+00 0.  1.
          5    1    5    5  502    0  0.12551984615E+02 -0.10444014231E+02 -0.87601402935E+02  0.89234105292E+02  0.47000000000E+01 0. -1.
         11    1    4    4    0    0 -0.14351441194E+01 -0.41757081952E+02 -0.67552973607E+01  0.42324314221E+02  0.00000000000E+00 0. -1.
        -12    1    4    4    0    0  0.11293415467E+03 -0.56453787484E+02 -0.48491978483E+02  0.13525023250E+03  0.00000000000E+00 0.  1.
         -5    1    3    3    0  504 -0.43402345944E+02 -0.28404912774E+02 -0.40632662342E+02  0.66058352629E+02  0.47000000000E+01 0.  1.
<mgrwt>
<rscale>  2 0.22464355E+03</rscale>
<asrwt>0</asrwt>
<pdfrwt beam="1">  1       21 0.19236986E-01 0.22486743E+03</pdfrwt>
<pdfrwt beam="2">  1       21 0.64127949E-01 0.22486743E+03</pdfrwt>
<totfact> 0.54880911E+04</totfact>
</mgrwt>
</event>
<event>
12    1  0.2742799E-001  0.1856203E+03  0.7546771E-02  0.1162721E+00
         21   -1    0    0  502  503  0.00000000000E+00  0.00000000000E+00  0.43354097105E+03  0.43354097105E+03  0.00000000000E+00 0. -1.
         21   -1    0    0  503  504 -0.00000000000E+00 -0.00000000000E+00 -0.18628253021E+03  0.18628253021E+03  0.00000000000E+00 0. -1.
         -6    2    1    2    0  504  0.29748751857E+02 -0.62244708052E+02 -0.11169132160E+03  0.21571975595E+03  0.17117438439E+03 0.  0.
        -24    2    3    3    0    0 -0.40862658124E+02 -0.47104320097E+02 -0.97565452318E+02  0.14198487445E+03  0.82171243673E+02 0.  0.
          6    2    1    2  502    0 -0.29748751857E+02  0.62244708052E+02  0.35894976243E+03  0.40410374531E+03  0.17232386110E+03 0.  0.
         24    2    5    5    0    0 -0.80244855894E+02  0.19718175695E+02  0.26681544568E+03  0.29066131586E+03  0.80408178249E+02 0.  0.
          4    1    6    6  501    0 -0.92425607974E+02  0.51410155696E+00  0.20846976504E+03  0.22804034784E+03  0.00000000000E+00 0. -1.
         -3    1    6    6    0  501  0.12180752079E+02  0.19204074138E+02  0.58345680646E+02  0.62620968012E+02  0.00000000000E+00 0.  1.
          5    1    5    5  502    0  0.50496104037E+02  0.42526532357E+02  0.92134316747E+02  0.11344242945E+03  0.47000000000E+01 0. -1.
         11    1    4    4    0    0 -0.29553047607E+02 -0.52137562767E+02 -0.10947579700E+03  0.12480648302E+03  0.00000000000E+00 0. -1.
        -12    1    4    4    0    0 -0.11309610517E+02  0.50332426702E+01  0.11910344684E+02  0.17178391436E+02  0.00000000000E+00 0.  1.
         -5    1    3    3    0  504  0.70611409981E+02 -0.15140387955E+02 -0.14125869277E+02  0.73734881500E+02  0.47000000000E+01 0.  1.
<mgrwt>
<rscale>  2 0.18535309E+03</rscale>
<asrwt>0</asrwt>
<pdfrwt beam="1">  1       21 0.66698611E-01 0.18562032E+03</pdfrwt>
<pdfrwt beam="2">  1       21 0.28658851E-01 0.18562032E+03</pdfrwt>
<totfact> 0.24091999E+04</totfact>
</mgrwt>
</event>
<event>
12    1  0.2742799E-001  0.2762894E+03  0.7546771E-02  0.1097878E+00
         21   -1    0    0  502  503  0.00000000000E+00  0.00000000000E+00  0.76317289224E+03  0.76317289224E+03  0.00000000000E+00 0. -1.
         21   -1    0    0  503  504 -0.00000000000E+00 -0.00000000000E+00 -0.29025706072E+03  0.29025706072E+03  0.00000000000E+00 0. -1.
         -6    2    1    2    0  504  0.20164005387E+03  0.75902923820E+02 -0.19052814982E+03  0.33475497655E+03  0.17128909272E+03 0.  0.
        -24    2    3    3    0    0  0.20967922415E+03  0.48565208525E+02 -0.12054215502E+03  0.25904428771E+03  0.79054255661E+02 0.  0.
          6    2    1    2  502    0 -0.20164005387E+03 -0.75902923820E+02  0.66344398134E+03  0.71867497640E+03  0.17296196161E+03 0.  0.
         24    2    5    5    0    0 -0.18714240588E+03 -0.49736418488E+02  0.42788078330E+03  0.48117344363E+03  0.10464189761E+03 0.  0.
          2    1    6    6  501    0 -0.17111247265E+03 -0.53845751501E+02  0.28108642832E+03  0.33344928166E+03  0.00000000000E+00 0. -1.
         -1    1    6    6    0  501 -0.16029933233E+02  0.41093330136E+01  0.14679435498E+03  0.14772416198E+03  0.00000000000E+00 0.  1.
          5    1    5    5  502    0 -0.14497647986E+02 -0.26166505332E+02  0.23556319804E+03  0.23750153277E+03  0.47000000000E+01 0. -1.
         11    1    4    4    0    0  0.94949709870E+02  0.48307860684E+02 -0.92141537394E+02  0.14085155207E+03  0.00000000000E+00 0. -1.
        -12    1    4    4    0    0  0.11472951428E+03  0.25734784145E+00 -0.28400617622E+02  0.11819273564E+03  0.00000000000E+00 0.  1.
         -5    1    3    3    0  504 -0.80391702861E+01  0.27337715295E+02 -0.69985994804E+02  0.75710688844E+02  0.47000000000E+01 0.  1.
<mgrwt>
<rscale>  2 0.27602794E+03</rscale>
<asrwt>0</asrwt>
<pdfrwt beam="1">  1       21 0.11741121E+00 0.27628935E+03</pdfrwt>
<pdfrwt beam="2">  1       21 0.44654933E-01 0.27628935E+03</pdfrwt>
<totfact> 0.25182472E+03</totfact>
</mgrwt>
</event>
<event>
12    1  0.2742799E-001  0.1860348E+03  0.7546771E-02  0.1162224E+00
         21   -1    0    0  502  503  0.00000000000E+00  0.00000000000E+00  0.47804112011E+02  0.47804112011E+02  0.00000000000E+00 0.  1.
         21   -1    0    0  503  504 -0.00000000000E+00 -0.00000000000E+00 -0.77154907717E+03  0.77154907717E+03  0.00000000000E+00 0.  1.
         -6    2    1    2    0  504  0.33500984932E+02 -0.56541252168E+02 -0.46548519512E+03  0.50106549902E+03  0.17340974093E+03 0.  0.
        -24    2    3    3    0    0 -0.47924075732E+02 -0.43954049984E+02 -0.29324762484E+03  0.31007767538E+03  0.76976098577E+02 0.  0.
          6    2    1    2  502    0 -0.33500984932E+02  0.56541252168E+02 -0.25825977004E+03  0.31828769015E+03  0.17403940846E+03 0.  0.
         24    2    5    5    0    0 -0.82316223152E+02  0.69674652929E+01 -0.16807148945E+03  0.20428548060E+03  0.81608981445E+02 0.  0.
          2    1    6    6  501    0 -0.19633536449E+02 -0.33188681484E+02 -0.81132831542E+02  0.89830399566E+02  0.00000000000E+00 0. -1.
         -1    1    6    6    0  501 -0.62682686703E+02  0.40156146777E+02 -0.86938657907E+02  0.11445508104E+03  0.00000000000E+00 0.  1.
          5    1    5    5  502    0  0.48815238219E+02  0.49573786875E+02 -0.90188280588E+02  0.11400220955E+03  0.47000000000E+01 0. -1.
         11    1    4    4    0    0 -0.67606937063E+02 -0.26040782125E+02 -0.18690179911E+03  0.20045224564E+03  0.00000000000E+00 0. -1.
        -12    1    4    4    0    0  0.19682861331E+02 -0.17913267859E+02 -0.10634582573E+03  0.10962542974E+03  0.00000000000E+00 0.  1.
         -5    1    3    3    0  504  0.81425060665E+02 -0.12587202184E+02 -0.17223757028E+03  0.19098782364E+03  0.47000000000E+01 0.  1.
<mgrwt>
<rscale>  2 0.18588739E+03</rscale>
<asrwt>0</asrwt>
<pdfrwt beam="1">  1       21 0.73544794E-02 0.18603479E+03</pdfrwt>
<pdfrwt beam="2">  1       21 0.11869985E+00 0.18603479E+03</pdfrwt>
<totfact> 0.75579208E+04</totfact>
</mgrwt>
</event>
<event>
12    1  0.2742799E-001  0.1998469E+03  0.7546771E-02  0.1150752E+00
         21   -1    0    0  502  503  0.00000000000E+00  0.00000000000E+00  0.77289518864E+02  0.77289518864E+02  0.00000000000E+00 0. -1.
         21   -1    0    0  503  504 -0.00000000000E+00 -0.00000000000E+00 -0.69575165799E+03  0.69575165799E+03  0.00000000000E+00 0.  1.
         -6    2    1    2    0  504  0.36085025792E-01  0.10030516573E+03 -0.50867376112E+03  0.54502303632E+03  0.16804757447E+03 0.  0.
        -24    2    3    3    0    0 -0.12384997852E+02  0.16380593046E+02 -0.30296278211E+03  0.32245458822E+03  0.10848411000E+03 0.  0.
          6    2    1    2  502    0 -0.36085025792E-01 -0.10030516573E+03 -0.10978837800E+03  0.22801814054E+03  0.17285154583E+03 0.  0.
         24    2    5    5    0    0  0.12540591101E+02 -0.11625620173E+02  0.63350172791E+01  0.81290612401E+02  0.79218746209E+02 0.  0.
          2    1    6    6  501    0 -0.15349207543E+02 -0.37196926665E+02  0.14148046644E+02  0.42654152780E+02  0.00000000000E+00 0. -1.
         -1    1    6    6    0  501  0.27889798644E+02  0.25571306493E+02 -0.78130293649E+01  0.38636459620E+02  0.00000000000E+00 0.  1.
          5    1    5    5  502    0 -0.12576676127E+02 -0.88679545552E+02 -0.11612339528E+03  0.14672752814E+03  0.47000000000E+01 0. -1.
         13    1    4    4    0    0 -0.21911481980E+02 -0.21397402593E+01 -0.35282515006E+01  0.22296638527E+02  0.00000000000E+00 0. -1.
        -14    1    4    4    0    0  0.95264841280E+01  0.18520333306E+02 -0.29943453061E+03  0.30015794970E+03  0.00000000000E+00 0.  1.
         -5    1    3    3    0  504  0.12421082878E+02  0.83924572679E+02 -0.20571097901E+03  0.22256844809E+03  0.47000000000E+01 0.  1.
<mgrwt>
<rscale>  2 0.19880371E+03</rscale>
<asrwt>0</asrwt>
<pdfrwt beam="1">  1       21 0.11890695E-01 0.19984690E+03</pdfrwt>
<pdfrwt beam="2">  1       21 0.10703872E+00 0.19984690E+03</pdfrwt>
<totfact> 0.41449469E+04</totfact>
</mgrwt>
</event>
<event>
12    1  0.2742799E-001  0.2300902E+03  0.7546771E-02  0.1126690E+00
         21   -1    0    0  502  503  0.00000000000E+00  0.00000000000E+00  0.47140816419E+03  0.47140816419E+03  0.00000000000E+00 0. -1.
         21   -1    0    0  503  504 -0.00000000000E+00 -0.00000000000E+00 -0.11227660622E+03  0.11227660622E+03  0.00000000000E+00 0. -1.
         -6    2    1    2    0  504  0.12278777173E+02 -0.15112763983E+03  0.19455627952E+03  0.30131986149E+03  0.17306409547E+03 0.  0.
        -24    2    3    3    0    0  0.56526420446E+02 -0.15486675176E+03  0.17786123598E+03  0.25364754907E+03  0.74320339580E+02 0.  0.
          6    2    1    2  502    0 -0.12278777173E+02  0.15112763983E+03  0.16457527846E+03  0.28236490891E+03  0.17220507430E+03 0.  0.
         24    2    5    5    0    0 -0.60720103196E+02  0.14739149691E+03  0.14306281249E+03  0.22902264590E+03  0.81075395308E+02 0.  0.
          4    1    6    6  501    0 -0.68750778433E+02  0.12042255470E+03  0.80294989976E+02  0.16023590930E+03  0.00000000000E+00 0. -1.
         -3    1    6    6    0  501  0.80306752373E+01  0.26968942215E+02  0.62767822510E+02  0.68786736597E+02  0.00000000000E+00 0.  1.
          5    1    5    5  502    0  0.48441326023E+02  0.37361429167E+01  0.21512465968E+02  0.53342263008E+02  0.47000000000E+01 0. -1.
         13    1    4    4    0    0  0.61593766491E+02 -0.13118468324E+03  0.17786129424E+03  0.22942940783E+03  0.00000000000E+00 0. -1.
        -14    1    4    4    0    0 -0.50673460453E+01 -0.23682068516E+02 -0.58258192261E-04  0.24218141240E+02  0.00000000000E+00 0.  1.
         -5    1    3    3    0  504 -0.44247643273E+02  0.37391119291E+01  0.16695043532E+02  0.47672312423E+02  0.47000000000E+01 0.  1.
<mgrwt>
<rscale>  2 0.22992870E+03</rscale>
<asrwt>0</asrwt>
<pdfrwt beam="1">  1       21 0.72524332E-01 0.23009023E+03</pdfrwt>
<pdfrwt beam="2">  1       21 0.17273324E-01 0.23009023E+03</pdfrwt>
<totfact> 0.50997318E+04</totfact>
</mgrwt>
</event>
<event>
12    1  0.2742799E-001  0.1800605E+03  0.7546771E-02  0.1167932E+00
         21   -1    0    0  502  503  0.00000000000E+00  0.00000000000E+00  0.19830301086E+03  0.19830301086E+03  0.00000000000E+00 0. -1.
         21   -1    0    0  503  504 -0.00000000000E+00 -0.00000000000E+00 -0.16618467532E+03  0.16618467532E+03  0.00000000000E+00 0. -1.
         -6    2    1    2    0  504  0.50591859270E+02 -0.19118229850E+02 -0.99369899989E+01  0.18033452920E+03  0.17174619563E+03 0.  0.
        -24    2    3    3    0    0  0.60664587262E+02  0.47580702331E+02 -0.10931003147E+02  0.11270845830E+03  0.81483706102E+02 0.  0.
          6    2    1    2  502    0 -0.50591859270E+02  0.19118229850E+02  0.42055325537E+02  0.18415315698E+03  0.17093475914E+03 0.  0.
         24    2    5    5    0    0  0.64369632593E+01  0.49501084782E+02  0.64895900815E+02  0.11545682264E+03  0.81406437466E+02 0.  0.
          2    1    6    6  501    0  0.32795568583E+02 -0.26636241758E-01  0.46354182732E+01  0.33121550851E+02  0.00000000000E+00 0. -1.
         -1    1    6    6    0  501 -0.26358605324E+02  0.49527721024E+02  0.60260482541E+02  0.82335271789E+02  0.00000000000E+00 0.  1.
          5    1    5    5  502    0 -0.57028822529E+02 -0.30382854933E+02 -0.22840575278E+02  0.68696334341E+02  0.47000000000E+01 0. -1.
         11    1    4    4    0    0  0.56494341334E+02 -0.77171632667E+00 -0.25570555843E+02  0.62016606445E+02  0.00000000000E+00 0. -1.
        -12    1    4    4    0    0  0.41702459280E+01  0.48352418657E+02  0.14639552697E+02  0.50691851853E+02  0.00000000000E+00 0.  1.
         -5    1    3    3    0  504 -0.10072727992E+02 -0.66698932180E+02  0.99401314763E+00  0.67626070900E+02  0.47000000000E+01 0.  1.
<mgrwt>
<rscale>  2 0.17986678E+03</rscale>
<asrwt>0</asrwt>
<pdfrwt beam="1">  1       21 0.30508155E-01 0.18006054E+03</pdfrwt>
<pdfrwt beam="2">  1       21 0.25566873E-01 0.18006054E+03</pdfrwt>
<totfact> 0.15025561E+05</totfact>
</mgrwt>
</event>
<event>
12    1  0.2742799E-001  0.2617458E+03  0.7546771E-02  0.1106614E+00
         21   -1    0    0  502  503  0.00000000000E+00  0.00000000000E+00  0.87925198074E+03  0.87925198074E+03  0.00000000000E+00 0. -1.
         21   -1    0    0  503  504 -0.00000000000E+00 -0.00000000000E+00 -0.95885655920E+02  0.95885655920E+02  0.00000000000E+00 0.  1.
         -6    2    1    2    0  504  0.18542603041E+03  0.48705070731E+02  0.17680502054E+03  0.31586529784E+03  0.17820178008E+03 0.  0.
        -24    2    3    3    0    0  0.19561987418E+03  0.78850630188E+02  0.17027719236E+03  0.28304195635E+03  0.81448571260E+02 0.  0.
          6    2    1    2  502    0 -0.18542603041E+03 -0.48705070731E+02  0.60656130428E+03  0.65927233882E+03  0.17311384754E+03 0.  0.
         24    2    5    5    0    0 -0.17558979525E+03  0.87124698674E+00  0.37040143675E+03  0.41771875090E+03  0.80369118729E+02 0.  0.
          4    1    6    6  501    0 -0.15782332370E+03 -0.16470901089E+02  0.35407045240E+03  0.38800177494E+03  0.00000000000E+00 0. -1.
         -3    1    6    6    0  501 -0.17766471545E+02  0.17342148075E+02  0.16330984342E+02  0.29716975967E+02  0.00000000000E+00 0.  1.
          5    1    5    5  502    0 -0.98362351652E+01 -0.49576317717E+02  0.23615986754E+03  0.24155358792E+03  0.47000000000E+01 0. -1.
         13    1    4    4    0    0  0.19047669644E+03  0.68207204106E+02  0.12862693560E+03  0.23974670622E+03  0.00000000000E+00 0. -1.
        -14    1    4    4    0    0  0.51431777410E+01  0.10643426082E+02  0.41650256762E+02  0.43295250136E+02  0.00000000000E+00 0.  1.
         -5    1    3    3    0  504 -0.10193843770E+02 -0.30145559457E+02  0.65278281711E+01  0.32823341488E+02  0.47000000000E+01 0.  1.
<mgrwt>
<rscale>  2 0.26088228E+03</rscale>
<asrwt>0</asrwt>
<pdfrwt beam="1">  1       21 0.13526953E+00 0.26174581E+03</pdfrwt>
<pdfrwt beam="2">  1       21 0.14751640E-01 0.26174581E+03</pdfrwt>
<totfact> 0.15155469E+04</totfact>
</mgrwt>
</event>
<event>
12    1  0.2742799E-001  0.2293365E+03  0.7546771E-02  0.1127195E+00
         21   -1    0    0  502  503  0.00000000000E+00  0.00000000000E+00  0.37421561375E+03  0.37421561375E+03  0.00000000000E+00 0. -1.
         21   -1    0    0  503  504 -0.00000000000E+00 -0.00000000000E+00 -0.14024738729E+03  0.14024738729E+03  0.00000000000E+00 0. -1.
         -6    2    1    2    0  504  0.13483689019E+03 -0.68035452800E+02  0.11838007398E+03  0.25808732918E+03  0.17258452356E+03 0.  0.
        -24    2    3    3    0    0  0.66047792599E+02 -0.70911782745E+02  0.66926023862E+01  0.12679987916E+03  0.81502310332E+02 0.  0.
          6    2    1    2  502    0 -0.13483689019E+03  0.68035452800E+02  0.11558815249E+03  0.25637567186E+03  0.17192456000E+03 0.  0.
         24    2    5    5    0    0 -0.56298403365E+02 -0.15512592522E+02  0.10035280752E+03  0.14060531500E+03  0.79303328312E+02 0.  0.
          4    1    6    6  501    0 -0.61166531459E+02 -0.35555056461E+02  0.96446123688E+02  0.11961338297E+03  0.00000000000E+00 0. -1.
         -3    1    6    6    0  501  0.48681280930E+01  0.20042463939E+02  0.39066838285E+01  0.20991932032E+02  0.00000000000E+00 0.  1.
          5    1    5    5  502    0 -0.78538486828E+02  0.83548045322E+02  0.15235344970E+02  0.11577035686E+03  0.47000000000E+01 0. -1.
         13    1    4    4    0    0  0.28506185372E+02  0.23784006504E+01 -0.25562008894E+02  0.38362425533E+02  0.00000000000E+00 0. -1.
        -14    1    4    4    0    0  0.37541607227E+02 -0.73290183396E+02  0.32254611280E+02  0.88437453628E+02  0.00000000000E+00 0.  1.
         -5    1    3    3    0  504  0.68789097594E+02  0.28763299450E+01  0.11168747159E+03  0.13128745002E+03  0.47000000000E+01 0.  1.
<mgrwt>
<rscale>  2 0.22921233E+03</rscale>
<asrwt>0</asrwt>
<pdfrwt beam="1">  1       21 0.57571633E-01 0.22933649E+03</pdfrwt>
<pdfrwt beam="2">  1       21 0.21576521E-01 0.22933649E+03</pdfrwt>
<totfact> 0.55741142E+04</totfact>
</mgrwt>
</event>
<event>
12    1  0.2742799E-001  0.1731933E+03  0.7546771E-02  0.1175014E+00
         21   -1    0    0  502  503  0.00000000000E+00  0.00000000000E+00  0.14770160050E+03  0.14770160050E+03  0.00000000000E+00 0.  1.
         21   -1    0    0  503  504 -0.00000000000E+00 -0.00000000000E+00 -0.20131696839E+03  0.20131696839E+03  0.00000000000E+00 0.  1.
         -6    2    1    2    0  504 -0.35869961055E+01 -0.18726611302E+01 -0.20007114718E+02  0.17434503046E+03  0.17314598351E+03 0.  0.
        -24    2    3    3    0    0 -0.65885270134E+02  0.19874007966E+02 -0.17140464342E+02  0.10813098174E+03  0.81625171859E+02 0.  0.
          6    2    1    2  502    0  0.35869961055E+01  0.18726611302E+01 -0.33608253167E+02  0.17467353843E+03  0.17136206390E+03 0.  0.
         24    2    5    5    0    0  0.28495808225E+02  0.60517778696E+02 -0.64782852649E+01  0.10526299244E+03  0.81018002774E+02 0.  0.
          2    1    6    6  501    0  0.47485649820E+02  0.66010365233E+02  0.65635746996E+01  0.81580241295E+02  0.00000000000E+00 0. -1.
         -1    1    6    6    0  501 -0.18989841594E+02 -0.54925865364E+01 -0.13041859964E+02  0.23682751149E+02  0.00000000000E+00 0.  1.
          5    1    5    5  502    0 -0.24908812120E+02 -0.58645117566E+02 -0.27129967902E+02  0.69410545985E+02  0.47000000000E+01 0. -1.
         13    1    4    4    0    0 -0.39471219903E+02  0.46384535742E+02 -0.30852902961E+02  0.68274475302E+02  0.00000000000E+00 0. -1.
        -14    1    4    4    0    0 -0.26414050231E+02 -0.26510527776E+02  0.13712438618E+02  0.39856506438E+02  0.00000000000E+00 0.  1.
         -5    1    3    3    0  504  0.62298274028E+02 -0.21746669096E+02 -0.28666503759E+01  0.66214048721E+02  0.47000000000E+01 0.  1.
<mgrwt>
<rscale>  2 0.17274567E+03</rscale>
<asrwt>0</asrwt>
<pdfrwt beam="1">  1       21 0.22723323E-01 0.17319326E+03</pdfrwt>
<pdfrwt beam="2">  1       21 0.30971841E-01 0.17319326E+03</pdfrwt>
<totfact> 0.18289044E+05</totfact>
</mgrwt>
</event>
<event>
12    1  0.2742799E-001  0.2857158E+03  0.7546771E-02  0.1092625E+00
         21   -1    0    0  502  503  0.00000000000E+00  0.00000000000E+00  0.39716636045E+03  0.39716636045E+03  0.00000000000E+00 0.  1.
         21   -1    0    0  503  504 -0.00000000000E+00 -0.00000000000E+00 -0.21747511153E+03  0.21747511153E+03  0.00000000000E+00 0. -1.
         -6    2    1    2    0  504 -0.22187964840E+03 -0.48950483882E+02  0.17588794021E+02  0.28625663608E+03  0.17322461655E+03 0.  0.
        -24    2    3    3    0    0 -0.18331389456E+03 -0.66351994086E+02 -0.39852019578E+02  0.21476071316E+03  0.80792384523E+02 0.  0.
          6    2    1    2  502    0  0.22187964840E+03  0.48950483882E+02  0.16210245489E+03  0.32838483590E+03  0.17301059598E+03 0.  0.
         24    2    5    5    0    0  0.11515959488E+03  0.94785485899E+02  0.10213343000E+03  0.19758578705E+03  0.79767694532E+02 0.  0.
          4    1    6    6  501    0  0.86754465568E+02  0.73833040997E+02  0.30819435807E+02  0.11801479934E+03  0.00000000000E+00 0. -1.
         -3    1    6    6    0  501  0.28405129316E+02  0.20952444902E+02  0.71313994188E+02  0.79570987715E+02  0.00000000000E+00 0.  1.
          5    1    5    5  502    0  0.10672005352E+03 -0.45835002017E+02  0.59969024895E+02  0.13079904885E+03  0.47000000000E+01 0. -1.
         11    1    4    4    0    0 -0.13067304737E+03 -0.11749286758E+02 -0.45096630048E+02  0.13873426790E+03  0.00000000000E+00 0. -1.
        -12    1    4    4    0    0 -0.52640847185E+02 -0.54602707328E+02  0.52446104704E+01  0.76026445260E+02  0.00000000000E+00 0.  1.
         -5    1    3    3    0  504 -0.38565753845E+02  0.17401510204E+02  0.57440813599E+02  0.71495922918E+02  0.47000000000E+01 0.  1.
<mgrwt>
<rscale>  2 0.28568333E+03</rscale>
<asrwt>0</asrwt>
<pdfrwt beam="1">  1       21 0.61102517E-01 0.28571576E+03</pdfrwt>
<pdfrwt beam="2">  1       21 0.33457710E-01 0.28571576E+03</pdfrwt>
<totfact> 0.20451795E+04</totfact>
</mgrwt>
</event>
<event>
12    1  0.2742799E-001  0.1783686E+03  0.7546771E-02  0.1169601E+00
         21   -1    0    0  502  503  0.00000000000E+00  0.00000000000E+00  0.14699700810E+04  0.14699700810E+04  0.00000000000E+00 0. -1.
         21   -1    0    0  503  504 -0.00000000000E+00 -0.00000000000E+00 -0.25647439243E+02  0.25647439243E+02  0.00000000000E+00 0. -1.
         -6    2    1    2    0  504 -0.41403380130E+02  0.90429001713E+01  0.42143102771E+03  0.45729067903E+03  0.17237934934E+03 0.  0.
        -24    2    3    3    0    0 -0.83453831081E+01  0.40044175091E+02  0.11699911243E+03  0.14946801700E+03  0.83538700134E+02 0.  0.
          6    2    1    2  502    0  0.41403380130E+02 -0.90429001713E+01  0.10228916140E+04  0.10383268412E+04  0.17326096262E+03 0.  0.
         24    2    5    5    0    0 -0.20333541055E+02 -0.21004272199E+02  0.28983933425E+03  0.30256719515E+03  0.81764512846E+02 0.  0.
          4    1    6    6  501    0  0.23220025388E+02 -0.22736018468E+02  0.20100881173E+03  0.20361885597E+03  0.00000000000E+00 0. -1.
         -3    1    6    6    0  501 -0.43553566443E+02  0.17317462689E+01  0.88830522523E+02  0.98948339181E+02  0.00000000000E+00 0.  1.
          5    1    5    5  502    0  0.61736921185E+02  0.11961372028E+02  0.73305227976E+03  0.73575964603E+03  0.47000000000E+01 0. -1.
         13    1    4    4    0    0 -0.36059279156E+02  0.16593078962E+02  0.17180633341E+02  0.43252468655E+02  0.00000000000E+00 0. -1.
        -14    1    4    4    0    0  0.27713896048E+02  0.23451096129E+02  0.99818479086E+02  0.10621554835E+03  0.00000000000E+00 0.  1.
         -5    1    3    3    0  504 -0.33057997022E+02 -0.31001274920E+02  0.30443191528E+03  0.30782266202E+03  0.47000000000E+01 0.  1.
<mgrwt>
<rscale>  2 0.17815420E+03</rscale>
<asrwt>0</asrwt>
<pdfrwt beam="1">  1       21 0.22614918E+00 0.17836865E+03</pdfrwt>
<pdfrwt beam="2">  1       21 0.39457610E-02 0.17836865E+03</pdfrwt>
<totfact> 0.37398091E+04</totfact>
</mgrwt>
</event>
<event>
12    1  0.2742799E-001  0.2400400E+03  0.7546771E-02  0.1120335E+00
         21   -1    0    0  502  503  0.00000000000E+00  0.00000000000E+00  0.67664432351E+03  0.67664432351E+03  0.00000000000E+00 0. -1.
         21   -1    0    0  503  504 -0.00000000000E+00 -0.00000000000E+00 -0.90704830827E+02  0.90704830827E+02  0.00000000000E+00 0. -1.
         -6    2    1    2    0  504  0.33500042097E+01  0.16173239429E+03  0.18637816603E+03  0.30122848421E+03  0.17272286773E+03 0.  0.
        -24    2    3    3    0    0  0.22759348130E+01  0.17869292610E+03  0.19929517896E+03  0.27937093431E+03  0.79957544120E+02 0.  0.
          6    2    1    2  502    0 -0.33500042097E+01 -0.16173239429E+03  0.39956132665E+03  0.46612067012E+03  0.17734327015E+03 0.  0.
         24    2    5    5    0    0  0.52598418922E+02 -0.87624103621E+02  0.31196786380E+03  0.33838277625E+03  0.82063256150E+02 0.  0.
          2    1    6    6  501    0  0.74636564181E+02 -0.71379541045E+02  0.25699826737E+03  0.27697249868E+03  0.00000000000E+00 0. -1.
         -1    1    6    6    0  501 -0.22038145260E+02 -0.16244562576E+02  0.54969596431E+02  0.61410277573E+02  0.00000000000E+00 0.  1.
          5    1    5    5  502    0 -0.55948423131E+02 -0.74108290669E+02  0.87593462855E+02  0.12773789388E+03  0.47000000000E+01 0. -1.
         13    1    4    4    0    0  0.14888069363E+02  0.11701369370E+03  0.74273452957E+02  0.13939298740E+03  0.00000000000E+00 0. -1.
        -14    1    4    4    0    0 -0.12612134550E+02  0.61679232405E+02  0.12502172601E+03  0.13997794691E+03  0.00000000000E+00 0.  1.
         -5    1    3    3    0  504  0.10740693966E+01 -0.16960531814E+02 -0.12917012934E+02  0.21857549900E+02  0.47000000000E+01 0.  1.
<mgrwt>
<rscale>  2 0.23918724E+03</rscale>
<asrwt>0</asrwt>
<pdfrwt beam="1">  1       21 0.10409912E+00 0.24004005E+03</pdfrwt>
<pdfrwt beam="2">  1       21 0.13954590E-01 0.24004005E+03</pdfrwt>
<totfact> 0.32537397E+04</totfact>
</mgrwt>
</event>
<event>
12    1  0.2742799E-001  0.1787576E+03  0.7546771E-02  0.1169943E+00
         21   -1    0    0  502  503  0.00000000000E+00  0.00000000000E+00  0.21651683185E+02  0.21651683185E+02  0.00000000000E+00 0.  1.
         21   -1    0    0  503  504 -0.00000000000E+00 -0.00000000000E+00 -0.14489336721E+04  0.14489336721E+04  0.00000000000E+00 0.  1.
         -6    2    1    2    0  504  0.37127566433E+02  0.24800023058E+02 -0.66700515243E+03  0.68957629008E+03  0.16919246183E+03 0.  0.
        -24    2    3    3    0    0  0.78685429799E+01  0.78473277492E+02 -0.46445825486E+03  0.47795340755E+03  0.80610297307E+02 0.  0.
          6    2    1    2  502    0 -0.37127566433E+02 -0.24800023058E+02 -0.76027683650E+03  0.78100906522E+03  0.17309186724E+03 0.  0.
         24    2    5    5    0    0  0.42439483023E+02 -0.38216581663E+02 -0.41204309052E+03  0.42351815451E+03  0.79539310523E+02 0.  0.
          4    1    6    6  501    0  0.49341383030E+02 -0.68843752514E+01 -0.35137295937E+03  0.35488719796E+03  0.00000000000E+00 0. -1.
         -3    1    6    6    0  501 -0.69019000070E+01 -0.31332206412E+02 -0.60670131151E+02  0.68630956545E+02  0.00000000000E+00 0.  1.
          5    1    5    5  502    0 -0.79567049455E+02  0.13416558606E+02 -0.34823374598E+03  0.35749091071E+03  0.47000000000E+01 0. -1.
         13    1    4    4    0    0  0.71557939901E+01 -0.59606913305E+01 -0.45627553350E+01  0.10370822774E+02  0.00000000000E+00 0. -1.
        -14    1    4    4    0    0  0.71274898978E+00  0.84433968822E+02 -0.45989549952E+03  0.46758258477E+03  0.00000000000E+00 0.  1.
         -5    1    3    3    0  504  0.29259023453E+02 -0.53673254434E+02 -0.20254689757E+03  0.21162288253E+03  0.47000000000E+01 0.  1.
<mgrwt>
<rscale>  2 0.17780680E+03</rscale>
<asrwt>0</asrwt>
<pdfrwt beam="1">  1       21 0.33310274E-02 0.17875763E+03</pdfrwt>
<pdfrwt beam="2">  1       21 0.22291293E+00 0.17875763E+03</pdfrwt>
<totfact> 0.51865172E+04</totfact>
</mgrwt>
</event>
<event>
12    1  0.2742799E-001  0.1818416E+03  0.7546771E-02  0.1166053E+00
         21   -1    0    0  502  503  0.00000000000E+00  0.00000000000E+00  0.12456355674E+04  0.12456355674E+04  0.00000000000E+00 0.  1.
         21   -1    0    0  503  504 -0.00000000000E+00 -0.00000000000E+00 -0.27350533314E+02  0.27350533314E+02  0.00000000000E+00 0.  1.
         -6    2    1    2    0  504 -0.19658859161E+02 -0.55033129776E+02  0.71903560507E+03  0.74165159717E+03  0.17210396307E+03 0.  0.
        -24    2    3    3    0    0  0.37996143657E+01 -0.50485126519E+02  0.70885212054E+03  0.71525505060E+03  0.80964643738E+02 0.  0.
          6    2    1    2  502    0  0.19658859161E+02  0.55033129776E+02  0.49924942904E+03  0.53133450358E+03  0.17219537210E+03 0.  0.
         24    2    5    5    0    0 -0.10422558377E+01  0.96226421115E+02  0.27542816168E+03  0.30276619182E+03  0.80907875054E+02 0.  0.
          4    1    6    6  501    0 -0.40069134132E+02  0.60348879966E+02  0.14910306631E+03  0.16576865568E+03  0.00000000000E+00 0. -1.
         -3    1    6    6    0  501  0.39026878294E+02  0.35877541149E+02  0.12632509537E+03  0.13699753614E+03  0.00000000000E+00 0.  1.
          5    1    5    5  502    0  0.20701114999E+02 -0.41193291339E+02  0.22382126736E+03  0.22856831175E+03  0.47000000000E+01 0. -1.
         11    1    4    4    0    0 -0.41223307349E+01  0.12005884688E+02  0.39182399690E+03  0.39202956448E+03  0.00000000000E+00 0. -1.
        -12    1    4    4    0    0  0.79219451006E+01 -0.62491011207E+02  0.31702812365E+03  0.32322548612E+03  0.00000000000E+00 0.  1.
         -5    1    3    3    0  504 -0.23458473527E+02 -0.45480032572E+01  0.10183484530E+02  0.26396546573E+02  0.47000000000E+01 0.  1.
<mgrwt>
<rscale>  2 0.18181994E+03</rscale>
<asrwt>0</asrwt>
<pdfrwt beam="1">  1       21 0.19163620E+00 0.18184159E+03</pdfrwt>
<pdfrwt beam="2">  1       21 0.42077753E-02 0.18184159E+03</pdfrwt>
<totfact> 0.55137151E+04</totfact>
</mgrwt>
</event>
<event>
12    1  0.2742799E-001  0.2090785E+03  0.7546771E-02  0.1142371E+00
         21   -1    0    0  502  503  0.00000000000E+00  0.00000000000E+00  0.63146523496E+02  0.63146523496E+02  0.00000000000E+00 0. -1.
         21   -1    0    0  503  504 -0.00000000000E+00 -0.00000000000E+00 -0.69516471327E+03  0.69516471327E+03  0.00000000000E+00 0. -1.
         -6    2    1    2    0  504  0.10927684778E+03  0.41152653268E+02 -0.28706921868E+03  0.35513735805E+03  0.17343251262E+03 0.  0.
        -24    2    3    3    0    0  0.65723294845E+02 -0.26979949359E+02 -0.23175745249E+03  0.25705349091E+03  0.85542452918E+02 0.  0.
          6    2    1    2  502    0 -0.10927684778E+03 -0.41152653268E+02 -0.34494897109E+03  0.40317387872E+03  0.17298674368E+03 0.  0.
         24    2    5    5    0    0 -0.12494400885E+03 -0.51255187568E+02 -0.18864346873E+03  0.24569047894E+03  0.80866269538E+02 0.  0.
          2    1    6    6  501    0 -0.10203268570E+03 -0.24263447987E+02 -0.81419197176E+02  0.13277224683E+03  0.00000000000E+00 0. -1.
         -1    1    6    6    0  501 -0.22911323154E+02 -0.26991739581E+02 -0.10722427155E+03  0.11291823212E+03  0.00000000000E+00 0.  1.
          5    1    5    5  502    0  0.15667161068E+02  0.10102534300E+02 -0.15630550237E+03  0.15748339978E+03  0.47000000000E+01 0. -1.
         13    1    4    4    0    0  0.23126206384E+02  0.31336004721E+02 -0.78120765014E+02  0.87290437849E+02  0.00000000000E+00 0. -1.
        -14    1    4    4    0    0  0.42597088461E+02 -0.58315954080E+02 -0.15363668747E+03  0.16976305306E+03  0.00000000000E+00 0.  1.
         -5    1    3    3    0  504  0.43553552936E+02  0.68132602626E+02 -0.55311766196E+02  0.98083867143E+02  0.47000000000E+01 0.  1.
<mgrwt>
<rscale>  2 0.20898600E+03</rscale>
<asrwt>0</asrwt>
<pdfrwt beam="1">  1       21 0.97148495E-02 0.20907847E+03</pdfrwt>
<pdfrwt beam="2">  1       21 0.10694842E+00 0.20907847E+03</pdfrwt>
<totfact> 0.59208517E+04</totfact>
</mgrwt>
</event>
<event>
12    1  0.2742799E-001  0.1801828E+03  0.7546771E-02  0.1167657E+00
         21   -1    0    0  502  503  0.00000000000E+00  0.00000000000E+00  0.56460822804E+02  0.56460822804E+02  0.00000000000E+00 0. -1.
         21   -1    0    0  503  504 -0.00000000000E+00 -0.00000000000E+00 -0.78681095269E+03  0.78681095269E+03  0.00000000000E+00 0. -1.
         -6    2    1    2    0  504 -0.47775705968E+02 -0.22389440134E+01 -0.58423967630E+03  0.61139335308E+03  0.17371903140E+03 0.  0.
        -24    2    3    3    0    0 -0.61820809419E+02  0.58920869531E+02 -0.37413456935E+03  0.39206703525E+03  0.80289493735E+02 0.  0.
          6    2    1    2  502    0  0.47775705968E+02  0.22389440134E+01 -0.14611045359E+03  0.23187842242E+03  0.17358515831E+03 0.  0.
         24    2    5    5    0    0  0.56395863172E+02 -0.61594602749E+02 -0.95331281484E+02  0.14972221072E+03  0.79713855015E+02 0.  0.
          4    1    6    6  501    0  0.24351228277E+02 -0.25527145094E+02  0.75607950011E+01  0.36080231101E+02  0.00000000000E+00 0. -1.
         -3    1    6    6    0  501  0.32044634896E+02 -0.36067457655E+02 -0.10289207649E+03  0.11364197961E+03  0.00000000000E+00 0.  1.
          5    1    5    5  502    0 -0.86201572048E+01  0.63833546762E+02 -0.50779172105E+02  0.82156211708E+02  0.47000000000E+01 0. -1.
         11    1    4    4    0    0 -0.65408882694E+02  0.35628467011E+02 -0.35179864216E+03  0.35959698862E+03  0.00000000000E+00 0. -1.
        -12    1    4    4    0    0  0.35880732758E+01  0.23292402521E+02 -0.22335927193E+02  0.32470046637E+02  0.00000000000E+00 0.  1.
         -5    1    3    3    0  504  0.14045103451E+02 -0.61159813545E+02 -0.21010510695E+03  0.21932631782E+03  0.47000000000E+01 0.  1.
<mgrwt>
<rscale>  2 0.18015050E+03</rscale>
<asrwt>0</asrwt>
<pdfrwt beam="1">  1       21 0.86862819E-02 0.18018278E+03</pdfrwt>
<pdfrwt beam="2">  1       21 0.12104782E+00 0.18018278E+03</pdfrwt>
<totfact> 0.54065393E+04</totfact>
</mgrwt>
</event>
<event>
12    1  0.2742799E-001  0.2412436E+03  0.7546771E-02  0.1119008E+00
         21   -1    0    0  502  503  0.00000000000E+00  0.00000000000E+00  0.35466533528E+02  0.35466533528E+02  0.00000000000E+00 0.  1.
         21   -1    0    0  503  504 -0.00000000000E+00 -0.00000000000E+00 -0.24631279344E+04  0.24631279344E+04  0.00000000000E+00 0. -1.
         -6    2    1    2    0  504  0.15494032555E+03  0.64614892347E+02 -0.19359375247E+04  0.19508802839E+04  0.17291094255E+03 0.  0.
        -24    2    3    3    0    0  0.26528017924E+02  0.67910788164E+02 -0.10604378093E+04  0.10659947403E+04  0.80627713195E+02 0.  0.
          6    2    1    2  502    0 -0.15494032555E+03 -0.64614892347E+02 -0.49172387621E+03  0.54771418400E+03  0.17325376798E+03 0.  0.
         24    2    5    5    0    0 -0.15871214012E+03 -0.40660534189E+01 -0.33210058599E+03  0.37688657130E+03  0.80911137639E+02 0.  0.
          2    1    6    6  501    0 -0.86010333850E+02  0.37557854402E+02 -0.19039360681E+03  0.21226892253E+03  0.00000000000E+00 0. -1.
         -1    1    6    6    0  501 -0.72701806271E+02 -0.41623907821E+02 -0.14170697918E+03  0.16461764877E+03  0.00000000000E+00 0.  1.
          5    1    5    5  502    0  0.37718145676E+01 -0.60548838928E+02 -0.15962329022E+03  0.17082761270E+03  0.47000000000E+01 0. -1.
         11    1    4    4    0    0  0.54855185203E+02  0.50109439750E+02 -0.79285428115E+03  0.79632779584E+03  0.00000000000E+00 0. -1.
        -12    1    4    4    0    0 -0.28327167280E+02  0.17801348414E+02 -0.26758352813E+03  0.26966694447E+03  0.00000000000E+00 0.  1.
         -5    1    3    3    0  504  0.12841230763E+03 -0.32958958168E+01 -0.87549971539E+03  0.88488554363E+03  0.47000000000E+01 0.  1.
<mgrwt>
<rscale>  2 0.24118202E+03</rscale>
<asrwt>0</asrwt>
<pdfrwt beam="1">  1       21 0.54563907E-02 0.24124356E+03</pdfrwt>
<pdfrwt beam="2">  1       21 0.37894269E+00 0.24124356E+03</pdfrwt>
<totfact> 0.25601822E+03</totfact>
</mgrwt>
</event>
<event>
12    1  0.2742799E-001  0.2468339E+03  0.7546771E-02  0.1115340E+00
         21   -1    0    0  502  503  0.00000000000E+00  0.00000000000E+00  0.66868858824E+03  0.66868858824E+03  0.00000000000E+00 0.  1.
         21   -1    0    0  503  504 -0.00000000000E+00 -0.00000000000E+00 -0.11317465361E+03  0.11317465361E+03  0.00000000000E+00 0. -1.
         -6    2    1    2    0  504 -0.15337698452E+03 -0.86039619836E+02  0.10504871756E+03  0.26825775762E+03  0.17320414516E+03 0.  0.
        -24    2    3    3    0    0 -0.93605213364E+02 -0.86719616074E+02  0.22492893808E+01  0.14924960893E+03  0.77383193788E+02 0.  0.
          6    2    1    2  502    0  0.15337698452E+03  0.86039619836E+02  0.45046521707E+03  0.51360548424E+03  0.17304440496E+03 0.  0.
         24    2    5    5    0    0  0.96860119289E+02 -0.33690123929E+01  0.32700670149E+03  0.35096430052E+03  0.82760645633E+02 0.  0.
          2    1    6    6  501    0  0.56092768006E+02 -0.39439143197E+02  0.13536169222E+03  0.15173869763E+03  0.00000000000E+00 0. -1.
         -1    1    6    6    0  501  0.40767351283E+02  0.36070130804E+02  0.19164500927E+03  0.19922560288E+03  0.00000000000E+00 0.  1.
          5    1    5    5  502    0  0.56516865229E+02  0.89408632228E+02  0.12345851558E+03  0.16264118372E+03  0.47000000000E+01 0. -1.
         13    1    4    4    0    0 -0.18823613244E+02 -0.12686429897E+02 -0.31422827750E+02  0.38764262187E+02  0.00000000000E+00 0. -1.
        -14    1    4    4    0    0 -0.74781600120E+02 -0.74033186177E+02  0.33672117130E+02  0.11048534674E+03  0.00000000000E+00 0.  1.
         -5    1    3    3    0  504 -0.59771771154E+02  0.67999623843E+00  0.10279942818E+03  0.11900814869E+03  0.47000000000E+01 0.  1.
<mgrwt>
<rscale>  2 0.24680591E+03</rscale>
<asrwt>0</asrwt>
<pdfrwt beam="1">  1       21 0.10287517E+00 0.24683393E+03</pdfrwt>
<pdfrwt beam="2">  1       21 0.17411486E-01 0.24683393E+03</pdfrwt>
<totfact> 0.22223161E+04</totfact>
</mgrwt>
</event>
<event>
12    1  0.2742799E-001  0.2192298E+03  0.7546771E-02  0.1134478E+00
         21   -1    0    0  502  503  0.00000000000E+00  0.00000000000E+00  0.36145988048E+03  0.36145988048E+03  0.00000000000E+00 0. -1.
         21   -1    0    0  503  504 -0.00000000000E+00 -0.00000000000E+00 -0.18467265424E+03  0.18467265424E+03  0.00000000000E+00 0. -1.
         -6    2    1    2    0  504  0.13555176233E+03  0.14055755281E+01 -0.56200058641E+02  0.22621879646E+03  0.17216341472E+03 0.  0.
        -24    2    3    3    0    0  0.15663110585E+03  0.33687120595E+02 -0.55365780270E+02  0.18737007839E+03  0.79837655506E+02 0.  0.
          6    2    1    2  502    0 -0.13555176233E+03 -0.14055755281E+01  0.23298728488E+03  0.31991373826E+03  0.17229471582E+03 0.  0.
         24    2    5    5    0    0 -0.14948087975E+03 -0.26310428170E+02  0.23542856866E+03  0.29089095645E+03  0.78448489862E+02 0.  0.
          2    1    6    6  501    0 -0.14755207516E+03 -0.41066215663E+02  0.19598228558E+03  0.24873098965E+03  0.00000000000E+00 0. -1.
         -1    1    6    6    0  501 -0.19288045973E+01  0.14755787493E+02  0.39446283082E+02  0.42159966801E+02  0.00000000000E+00 0.  1.
          5    1    5    5  502    0  0.13929117428E+02  0.24904852642E+02 -0.24412837793E+01  0.29022781809E+02  0.47000000000E+01 0. -1.
         13    1    4    4    0    0  0.65090429754E+02  0.39171246533E+02  0.72712505502E+01  0.76315278189E+02  0.00000000000E+00 0. -1.
        -14    1    4    4    0    0  0.91540676096E+02 -0.54841259382E+01 -0.62637030820E+02  0.11105480020E+03  0.00000000000E+00 0.  1.
         -5    1    3    3    0  504 -0.21079343525E+02 -0.32281545067E+02 -0.83427837111E+00  0.38848718071E+02  0.47000000000E+01 0.  1.
<mgrwt>
<rscale>  2 0.21920405E+03</rscale>
<asrwt>0</asrwt>
<pdfrwt beam="1">  1       21 0.55609212E-01 0.21922985E+03</pdfrwt>
<pdfrwt beam="2">  1       21 0.28411178E-01 0.21922985E+03</pdfrwt>
<totfact> 0.35601976E+04</totfact>
</mgrwt>
</event>
<event>
12    1  0.2742799E-001  0.1927752E+03  0.7546771E-02  0.1156000E+00
         21   -1    0    0  502  503  0.00000000000E+00  0.00000000000E+00  0.21032149706E+03  0.21032149706E+03  0.00000000000E+00 0.  1.
         21   -1    0    0  503  504 -0.00000000000E+00 -0.00000000000E+00 -0.17864258399E+03  0.17864258399E+03  0.00000000000E+00 0.  1.
         -6    2    1    2    0  504 -0.64173070504E+02 -0.54438018934E+02  0.36550655696E+02  0.19620964216E+03  0.17343757482E+03 0.  0.
        -24    2    3    3    0    0 -0.62566506782E+02 -0.10738541421E+02 -0.39465325955E+02  0.10838740780E+03  0.78488433372E+02 0.  0.
          6    2    1    2  502    0  0.64173070504E+02  0.54438018934E+02 -0.48717426301E+01  0.19275443889E+03  0.17334606702E+03 0.  0.
         24    2    5    5    0    0 -0.75073950232E+01  0.79483210788E+02  0.18885061674E+02  0.11305609183E+03  0.77788768912E+02 0.  0.
          4    1    6    6  501    0 -0.12485326616E+02  0.21031758754E+01  0.32000959403E+02  0.34414649964E+02  0.00000000000E+00 0. -1.
         -3    1    6    6    0  501  0.49779315924E+01  0.77380034912E+02 -0.13115897729E+02  0.78641441869E+02  0.00000000000E+00 0.  1.
          5    1    5    5  502    0  0.71680465527E+02 -0.25045191854E+02 -0.23756804304E+02  0.79698347059E+02  0.47000000000E+01 0. -1.
         13    1    4    4    0    0 -0.55943802269E+02 -0.20812275521E+01  0.10747778328E+02  0.57004870488E+02  0.00000000000E+00 0. -1.
        -14    1    4    4    0    0 -0.66227045136E+01 -0.86573138693E+01 -0.50213104282E+02  0.51382537308E+02  0.00000000000E+00 0.  1.
         -5    1    3    3    0  504 -0.16065637219E+01 -0.43699477512E+02  0.76015981650E+02  0.87822234361E+02  0.47000000000E+01 0.  1.
<mgrwt>
<rscale>  2 0.19275460E+03</rscale>
<asrwt>0</asrwt>
<pdfrwt beam="1">  1       21 0.32357153E-01 0.19277519E+03</pdfrwt>
<pdfrwt beam="2">  1       21 0.27483475E-01 0.19277519E+03</pdfrwt>
<totfact> 0.11606586E+05</totfact>
</mgrwt>
</event>
<event>
12    1  0.2742799E-001  0.1862091E+03  0.7546771E-02  0.1162542E+00
         21   -1    0    0  502  503  0.00000000000E+00  0.00000000000E+00  0.23785231409E+04  0.23785231409E+04  0.00000000000E+00 0.  1.
         21   -1    0    0  503  504 -0.00000000000E+00 -0.00000000000E+00 -0.24453783489E+02  0.24453783489E+02  0.00000000000E+00 0. -1.
         -6    2    1    2    0  504 -0.29279124683E+02 -0.62209338176E+02  0.40062264625E+03  0.44067524694E+03  0.17020252548E+03 0.  0.
        -24    2    3    3    0    0  0.64565704735E+01  0.26950050729E+02  0.14699344238E+03  0.16942573157E+03  0.79561384326E+02 0.  0.
          6    2    1    2  502    0  0.29279124683E+02  0.62209338176E+02  0.19534467112E+04  0.19623016775E+04  0.17305071820E+03 0.  0.
         24    2    5    5    0    0  0.46150845681E+02 -0.11463977704E+02  0.64347834157E+03  0.65014633917E+03  0.79778210840E+02 0.  0.
          2    1    6    6  501    0 -0.20386868535E+02 -0.99526945124E+01  0.96350016703E+02  0.98984878923E+02  0.00000000000E+00 0. -1.
         -1    1    6    6    0  501  0.66537714216E+02 -0.15112831912E+01  0.54712832486E+03  0.55116146024E+03  0.00000000000E+00 0.  1.
          5    1    5    5  502    0 -0.16871720998E+02  0.73673315880E+02  0.13099683696E+04  0.13121553383E+04  0.47000000000E+01 0. -1.
         11    1    4    4    0    0  0.42363232364E+02  0.22733265204E+02  0.82126900357E+02  0.95164450113E+02  0.00000000000E+00 0. -1.
        -12    1    4    4    0    0 -0.35906661890E+02  0.42167855258E+01  0.64866542027E+02  0.74261281452E+02  0.00000000000E+00 0.  1.
         -5    1    3    3    0  504 -0.35735695156E+02 -0.89159388906E+02  0.25362920387E+03  0.27124951538E+03  0.47000000000E+01 0.  1.
<mgrwt>
<rscale>  2 0.18554455E+03</rscale>
<asrwt>0</asrwt>
<pdfrwt beam="1">  1       21 0.36592645E+00 0.18620908E+03</pdfrwt>
<pdfrwt beam="2">  1       21 0.37621224E-02 0.18620908E+03</pdfrwt>
<totfact> 0.61574640E+03</totfact>
</mgrwt>
</event>
<event>
12    1  0.2742799E-001  0.2089275E+03  0.7546771E-02  0.1142542E+00
         21   -1    0    0  502  503  0.00000000000E+00  0.00000000000E+00  0.13085581643E+03  0.13085581643E+03  0.00000000000E+00 0. -1.
         21   -1    0    0  503  504 -0.00000000000E+00 -0.00000000000E+00 -0.36544778541E+03  0.36544778541E+03  0.00000000000E+00 0.  1.
         -6    2    1    2    0  504  0.10827006113E+03 -0.47337824838E+02 -0.19154881960E+03  0.28298830048E+03  0.17154635560E+03 0.  0.
        -24    2    3    3    0    0  0.10553505549E+03  0.23598682782E+02 -0.97299839707E+02  0.16490177042E+03  0.77658156791E+02 0.  0.
          6    2    1    2  502    0 -0.10827006113E+03  0.47337824838E+02 -0.43043149381E+02  0.21331530136E+03  0.17230040421E+03 0.  0.
         24    2    5    5    0    0 -0.53618992066E+02 -0.16462945301E+02  0.10818834614E+02  0.11341294433E+03  0.97976649678E+02 0.  0.
          2    1    6    6  501    0 -0.16302632451E+02  0.35467864636E+02  0.26983542611E+02  0.47453733452E+02  0.00000000000E+00 0. -1.
         -1    1    6    6    0  501 -0.37316359615E+02 -0.51930809937E+02 -0.16164707997E+02  0.65959210883E+02  0.00000000000E+00 0.  1.
          5    1    5    5  502    0 -0.54651069062E+02  0.63800770139E+02 -0.53861983995E+02  0.99902357028E+02  0.47000000000E+01 0. -1.
         11    1    4    4    0    0  0.52740705294E+02  0.31813643725E+01 -0.94451076700E+02  0.10822526953E+03  0.00000000000E+00 0. -1.
        -12    1    4    4    0    0  0.52794350193E+02  0.20417318409E+02 -0.28487630070E+01  0.56676500897E+02  0.00000000000E+00 0.  1.
         -5    1    3    3    0  504  0.27350056415E+01 -0.70936507619E+02 -0.94248979895E+02  0.11808653005E+03  0.47000000000E+01 0.  1.
<mgrwt>
<rscale>  2 0.20877198E+03</rscale>
<asrwt>0</asrwt>
<pdfrwt beam="1">  1       21 0.20131664E-01 0.20892751E+03</pdfrwt>
<pdfrwt beam="2">  1       21 0.56222736E-01 0.20892751E+03</pdfrwt>
<totfact> 0.67388339E+04</totfact>
</mgrwt>
</event>
<event>
12    1  0.2742799E-001  0.1989911E+03  0.7546771E-02  0.1152085E+00
         21   -1    0    0  502  503  0.00000000000E+00  0.00000000000E+00  0.35628083231E+02  0.35628083231E+02  0.00000000000E+00 0. -1.
         21   -1    0    0  503  504 -0.00000000000E+00 -0.00000000000E+00 -0.12527122122E+04  0.12527122122E+04  0.00000000000E+00 0.  1.
         -6    2    1    2    0  504  0.66675775418E+02  0.71952634070E+02 -0.84314225589E+03  0.86474855045E+03  0.16516159131E+03 0.  0.
        -24    2    3    3    0    0  0.65667821476E+02  0.21150419903E+02 -0.75906659837E+03  0.76639873029E+03  0.80158031408E+02 0.  0.
          6    2    1    2  502    0 -0.66675775418E+02 -0.71952634070E+02 -0.37394187307E+03  0.42359174498E+03  0.17313174580E+03 0.  0.
         24    2    5    5    0    0  0.39032258253E+01  0.14546476575E+02 -0.20908873253E+03  0.22443818738E+03  0.80172106942E+02 0.  0.
          2    1    6    6  501    0  0.28231248911E+01  0.11385953043E+02  0.31713341557E+01  0.12151844353E+02  0.00000000000E+00 0. -1.
         -1    1    6    6    0  501  0.10801009342E+01  0.31605235319E+01 -0.21226006669E+03  0.21228634303E+03  0.00000000000E+00 0.  1.
          5    1    5    5  502    0 -0.70579001243E+02 -0.86499110645E+02 -0.16485314054E+03  0.19915355760E+03  0.47000000000E+01 0. -1.
         13    1    4    4    0    0  0.35240969708E+02 -0.23306639502E+02 -0.18278683909E+03  0.18760638031E+03  0.00000000000E+00 0. -1.
        -14    1    4    4    0    0  0.30426851767E+02  0.44457059405E+02 -0.57627975928E+03  0.57879234998E+03  0.00000000000E+00 0.  1.
         -5    1    3    3    0  504  0.10079539424E+01  0.50802214166E+02 -0.84075657530E+02  0.98349820154E+02  0.47000000000E+01 0.  1.
<mgrwt>
<rscale>  2 0.19724465E+03</rscale>
<asrwt>0</asrwt>
<pdfrwt beam="1">  1       21 0.54812445E-02 0.19899106E+03</pdfrwt>
<pdfrwt beam="2">  1       21 0.19272492E+00 0.19899106E+03</pdfrwt>
<totfact> 0.34290859E+04</totfact>
</mgrwt>
</event>
<event>
12    1  0.2742799E-001  0.1971696E+03  0.7546771E-02  0.1152415E+00
         21   -1    0    0  502  503  0.00000000000E+00  0.00000000000E+00  0.10893776003E+03  0.10893776003E+03  0.00000000000E+00 0. -1.
         21   -1    0    0  503  504 -0.00000000000E+00 -0.00000000000E+00 -0.82021719600E+03  0.82021719600E+03  0.00000000000E+00 0.  1.
         -6    2    1    2    0  504  0.97636538750E+02 -0.13329232168E+02 -0.70517585167E+03  0.73189086396E+03  0.16935375061E+03 0.  0.
        -24    2    3    3    0    0  0.13118417819E+03 -0.96917955095E+01 -0.48393991607E+03  0.50804693561E+03  0.81305761879E+02 0.  0.
          6    2    1    2  502    0 -0.97636538750E+02  0.13329232168E+02 -0.61035842992E+01  0.19726409206E+03  0.17077852952E+03 0.  0.
         24    2    5    5    0    0 -0.41121257920E+02 -0.47073501261E+02 -0.37578593204E+02  0.10863433770E+03  0.80513329867E+02 0.  0.
          2    1    6    6  501    0 -0.94553829665E+01 -0.41619947044E+02  0.16476287091E+02  0.45750325630E+02  0.00000000000E+00 0. -1.
         -1    1    6    6    0  501 -0.31665874954E+02 -0.54535542169E+01 -0.54054880295E+02  0.62884012069E+02  0.00000000000E+00 0.  1.
          5    1    5    5  502    0 -0.56515280830E+02  0.60402733429E+02  0.31475008905E+02  0.88629754363E+02  0.47000000000E+01 0. -1.
         13    1    4    4    0    0  0.49407554599E+02 -0.20680924500E+02 -0.83555144864E+02  0.99248523026E+02  0.00000000000E+00 0. -1.
        -14    1    4    4    0    0  0.81776623590E+02  0.10989128990E+02 -0.40038477121E+03  0.40879841259E+03  0.00000000000E+00 0.  1.
         -5    1    3    3    0  504 -0.33547639439E+02 -0.36374366587E+01 -0.22123593560E+03  0.22384392835E+03  0.47000000000E+01 0.  1.
<mgrwt>
<rscale>  2 0.19686072E+03</rscale>
<asrwt>0</asrwt>
<pdfrwt beam="1">  1       21 0.16759656E-01 0.19716964E+03</pdfrwt>
<pdfrwt beam="2">  1       21 0.12618726E+00 0.19716964E+03</pdfrwt>
<totfact> 0.14873212E+04</totfact>
</mgrwt>
</event>
<event>
12    1  0.2742799E-001  0.2512094E+03  0.7546771E-02  0.1113385E+00
         21   -1    0    0  502  503  0.00000000000E+00  0.00000000000E+00  0.54391423585E+03  0.54391423585E+03  0.00000000000E+00 0.  1.
         21   -1    0    0  503  504 -0.00000000000E+00 -0.00000000000E+00 -0.15764538674E+03  0.15764538674E+03  0.00000000000E+00 0.  1.
         -6    2    1    2    0  504 -0.17423386984E+03 -0.49986200820E+02  0.91825926901E+01  0.25137718055E+03  0.17392557380E+03 0.  0.
        -24    2    3    3    0    0 -0.16381799965E+02 -0.28916922300E+02  0.22809576161E+02  0.91474162630E+02  0.82113908072E+02 0.  0.
          6    2    1    2  502    0  0.17423386984E+03  0.49986200820E+02  0.37708625643E+03  0.45018244204E+03  0.16617498204E+03 0.  0.
         24    2    5    5    0    0  0.14063839367E+03 -0.15374584504E+02  0.31230961688E+03  0.35210700521E+03  0.80165520637E+02 0.  0.
          2    1    6    6  501    0  0.95599452335E+02 -0.69036184011E+01  0.28022408480E+03  0.29616288244E+03  0.00000000000E+00 0. -1.
         -1    1    6    6    0  501  0.45038941339E+02 -0.84709661026E+01  0.32085532080E+02  0.55944122769E+02  0.00000000000E+00 0.  1.
          5    1    5    5  502    0  0.33595476171E+02  0.65360785324E+02  0.64776639552E+02  0.98075436828E+02  0.47000000000E+01 0. -1.
         11    1    4    4    0    0 -0.83957008382E+01 -0.57870682995E+01  0.52225160863E+02  0.53211327546E+02  0.00000000000E+00 0. -1.
        -12    1    4    4    0    0 -0.79860991271E+01 -0.23129854000E+02 -0.29415584702E+02  0.38262835084E+02  0.00000000000E+00 0.  1.
         -5    1    3    3    0  504 -0.15785206988E+03 -0.21069278521E+02 -0.13626983471E+02  0.15990301792E+03  0.47000000000E+01 0.  1.
<mgrwt>
<rscale>  2 0.24987315E+03</rscale>
<asrwt>0</asrwt>
<pdfrwt beam="1">  1       21 0.83679112E-01 0.25120941E+03</pdfrwt>
<pdfrwt beam="2">  1       21 0.24253137E-01 0.25120941E+03</pdfrwt>
<totfact> 0.19291102E+04</totfact>
</mgrwt>
</event>
<event>
12    1  0.2742799E-001  0.1731446E+03  0.7546771E-02  0.1174953E+00
         21   -1    0    0  502  503  0.00000000000E+00  0.00000000000E+00  0.10234987107E+04  0.10234987107E+04  0.00000000000E+00 0.  1.
         21   -1    0    0  503  504 -0.00000000000E+00 -0.00000000000E+00 -0.35087957009E+02  0.35087957009E+02  0.00000000000E+00 0.  1.
         -6    2    1    2    0  504 -0.12428813817E+02 -0.99791710549E+01  0.27647583034E+03  0.32621761512E+03  0.17240936281E+03 0.  0.
        -24    2    3    3    0    0  0.48681693785E+02 -0.37614891984E+02  0.20017430843E+03  0.22452081352E+03  0.80963291293E+02 0.  0.
          6    2    1    2  502    0  0.12428813817E+02  0.99791710549E+01  0.71193492337E+03  0.73236905261E+03  0.17105272531E+03 0.  0.
         24    2    5    5    0    0 -0.17918713931E+02 -0.53907602189E+02  0.35013625761E+03  0.36369188112E+03  0.80307382053E+02 0.  0.
          2    1    6    6  501    0 -0.26255781918E+01 -0.72838224592E+02  0.28454547354E+03  0.29373189669E+03  0.00000000000E+00 0. -1.
         -1    1    6    6    0  501 -0.15293135739E+02  0.18930622403E+02  0.65590784077E+02  0.69959984428E+02  0.00000000000E+00 0.  1.
          5    1    5    5  502    0  0.30347527748E+02  0.63886773244E+02  0.36179866575E+03  0.36867717149E+03  0.47000000000E+01 0. -1.
         13    1    4    4    0    0  0.11065012218E+01 -0.21063744100E+02  0.15631072602E+03  0.15772745078E+03  0.00000000000E+00 0. -1.
        -14    1    4    4    0    0  0.47575192564E+02 -0.16551147884E+02  0.43863582413E+02  0.66793362738E+02  0.00000000000E+00 0.  1.
         -5    1    3    3    0  504 -0.61110507602E+02  0.27635720929E+02  0.76301521907E+02  0.10169680160E+03  0.47000000000E+01 0.  1.
<mgrwt>
<rscale>  2 0.17280589E+03</rscale>
<asrwt>0</asrwt>
<pdfrwt beam="1">  1       21 0.15746132E+00 0.17314459E+03</pdfrwt>
<pdfrwt beam="2">  1       21 0.53981480E-02 0.17314459E+03</pdfrwt>
<totfact> 0.62729197E+04</totfact>
</mgrwt>
</event>
<event>
12    1  0.2742799E-001  0.2126990E+03  0.7546771E-02  0.1139579E+00
         21   -1    0    0  502  503  0.00000000000E+00  0.00000000000E+00  0.27692161057E+03  0.27692161057E+03  0.00000000000E+00 0. -1.
         21   -1    0    0  503  504 -0.00000000000E+00 -0.00000000000E+00 -0.31327495736E+03  0.31327495736E+03  0.00000000000E+00 0. -1.
         -6    2    1    2    0  504 -0.11048376512E+03 -0.47445035890E+02 -0.22267844727E+03  0.30793922330E+03  0.17545136244E+03 0.  0.
        -24    2    3    3    0    0 -0.38924602951E+02 -0.45085999894E+02 -0.21250063148E+03  0.23546883848E+03  0.82104710064E+02 0.  0.
          6    2    1    2  502    0  0.11048376512E+03  0.47445035890E+02  0.18632510048E+03  0.28225734462E+03  0.17462666388E+03 0.  0.
         24    2    5    5    0    0  0.85996315115E+02  0.36148742523E+02  0.34411814723E+02  0.12789744749E+03  0.80445548559E+02 0.  0.
          4    1    6    6  501    0  0.99863460415E+02  0.22005076454E+02  0.22242388918E+02  0.10465016952E+03  0.00000000000E+00 0. -1.
         -3    1    6    6    0  501 -0.13867145300E+02  0.14143666070E+02  0.12169425805E+02  0.23247277972E+02  0.00000000000E+00 0.  1.
          5    1    5    5  502    0  0.24487450008E+02  0.11296293367E+02  0.15191328576E+03  0.15435989713E+03  0.47000000000E+01 0. -1.
         13    1    4    4    0    0  0.25947519493E+02 -0.11457156049E+02 -0.59267181696E+02  0.65704939074E+02  0.00000000000E+00 0. -1.
        -14    1    4    4    0    0 -0.64872122445E+02 -0.33628843845E+02 -0.15323344979E+03  0.16976389941E+03  0.00000000000E+00 0.  1.
         -5    1    3    3    0  504 -0.71559162171E+02 -0.23590359959E+01 -0.10177815789E+02  0.72470384819E+02  0.47000000000E+01 0.  1.
<mgrwt>
<rscale>  2 0.21252888E+03</rscale>
<asrwt>0</asrwt>
<pdfrwt beam="1">  1       21 0.42603325E-01 0.21269902E+03</pdfrwt>
<pdfrwt beam="2">  1       21 0.48196147E-01 0.21269902E+03</pdfrwt>
<totfact> 0.21546213E+04</totfact>
</mgrwt>
</event>
<event>
12    1  0.2742799E-001  0.2064980E+03  0.7546771E-02  0.1144601E+00
         21   -1    0    0  502  503  0.00000000000E+00  0.00000000000E+00  0.31308621138E+03  0.31308621138E+03  0.00000000000E+00 0.  1.
         21   -1    0    0  503  504 -0.00000000000E+00 -0.00000000000E+00 -0.14235621400E+03  0.14235621400E+03  0.00000000000E+00 0.  1.
         -6    2    1    2    0  504 -0.96819613522E+02  0.56640679863E+02  0.35419873052E+02  0.20951369123E+03  0.17337593613E+03 0.  0.
        -24    2    3    3    0    0  0.73901534247E+01  0.58135103691E+02  0.34969873273E+02  0.10518631549E+03  0.80043514918E+02 0.  0.
          6    2    1    2  502    0  0.96819613522E+02 -0.56640679863E+02  0.13531012433E+03  0.24592873414E+03  0.17201717459E+03 0.  0.
         24    2    5    5    0    0  0.10843234819E+03 -0.83180190747E+02  0.14655000128E+03  0.21450221543E+03  0.76536130574E+02 0.  0.
          2    1    6    6  501    0  0.48624887314E+02 -0.38705620941E+00  0.76523367767E+02  0.90666175022E+02  0.00000000000E+00 0. -1.
         -1    1    6    6    0  501  0.59807460878E+02 -0.82793134538E+02  0.70026633511E+02  0.12383604041E+03  0.00000000000E+00 0.  1.
          5    1    5    5  502    0 -0.11612734670E+02  0.26539510884E+02 -0.11239876952E+02  0.31426518712E+02  0.47000000000E+01 0. -1.
         11    1    4    4    0    0  0.21914712936E+02  0.49071940520E+01  0.43884353311E+02  0.49296771315E+02  0.00000000000E+00 0. -1.
        -12    1    4    4    0    0 -0.14524559511E+02  0.53227909639E+02 -0.89144800384E+01  0.55889544173E+02  0.00000000000E+00 0.  1.
         -5    1    3    3    0  504 -0.10420976695E+03 -0.14944238280E+01  0.44999977934E+00  0.10432737574E+03  0.47000000000E+01 0.  1.
<mgrwt>
<rscale>  2 0.20621252E+03</rscale>
<asrwt>0</asrwt>
<pdfrwt beam="1">  1       21 0.48167109E-01 0.20649799E+03</pdfrwt>
<pdfrwt beam="2">  1       21 0.21900956E-01 0.20649799E+03</pdfrwt>
<totfact> 0.79694907E+04</totfact>
</mgrwt>
</event>
<event>
12    1  0.2742799E-001  0.2412769E+03  0.7546771E-02  0.1118957E+00
         21   -1    0    0  502  503  0.00000000000E+00  0.00000000000E+00  0.96348157438E+03  0.96348157438E+03  0.00000000000E+00 0.  1.
         21   -1    0    0  503  504 -0.00000000000E+00 -0.00000000000E+00 -0.83766916932E+02  0.83766916932E+02  0.00000000000E+00 0. -1.
         -6    2    1    2    0  504  0.85897727838E+02  0.14545910636E+03  0.16336542691E+03  0.29138083694E+03  0.17227233719E+03 0.  0.
        -24    2    3    3    0    0  0.21632432810E+02  0.76551508720E+02  0.13230321307E+02  0.11406494626E+03  0.80670161311E+02 0.  0.
          6    2    1    2  502    0 -0.85897727838E+02 -0.14545910636E+03  0.71634923054E+03  0.75586765437E+03  0.17217119257E+03 0.  0.
         24    2    5    5    0    0 -0.56235615938E+02 -0.10367519099E+03  0.67710080733E+03  0.69115084673E+03  0.72890328051E+02 0.  0.
          4    1    6    6  501    0 -0.12298121642E+02  0.14601034449E+01  0.20953552053E+03  0.20990119119E+03  0.00000000000E+00 0. -1.
         -3    1    6    6    0  501 -0.43937494296E+02 -0.10513529443E+03  0.46756528680E+03  0.48124965554E+03  0.00000000000E+00 0.  1.
          5    1    5    5  502    0 -0.29662111900E+02 -0.41783915370E+02  0.39248423208E+02  0.64716807634E+02  0.47000000000E+01 0. -1.
         11    1    4    4    0    0 -0.10584584373E+02  0.80109020333E+02  0.11339363103E+02  0.81596995782E+02  0.00000000000E+00 0. -1.
        -12    1    4    4    0    0  0.32217017183E+02 -0.35575116136E+01  0.18909582045E+01  0.32467950474E+02  0.00000000000E+00 0.  1.
         -5    1    3    3    0  504  0.64265295028E+02  0.68907597638E+02  0.15013510560E+03  0.17731589069E+03  0.47000000000E+01 0.  1.
<mgrwt>
<rscale>  2 0.24125882E+03</rscale>
<asrwt>0</asrwt>
<pdfrwt beam="1">  1       21 0.14822793E+00 0.24127687E+03</pdfrwt>
<pdfrwt beam="2">  1       21 0.12887219E-01 0.24127687E+03</pdfrwt>
<totfact> 0.15428726E+04</totfact>
</mgrwt>
</event>
<event>
12    1  0.2742799E-001  0.2907633E+03  0.7546771E-02  0.1090101E+00
         21   -1    0    0  502  503  0.00000000000E+00  0.00000000000E+00  0.25010408145E+03  0.25010408145E+03  0.00000000000E+00 0. -1.
         21   -1    0    0  503  504 -0.00000000000E+00 -0.00000000000E+00 -0.38267661286E+03  0.38267661286E+03  0.00000000000E+00 0.  1.
         -6    2    1    2    0  504 -0.12723057965E+02 -0.23225165525E+03 -0.17584200584E+03  0.33881548063E+03  0.17254799718E+03 0.  0.
        -24    2    3    3    0    0 -0.36072088534E+02 -0.91573306897E+02 -0.21749463883E+02  0.12881029877E+03  0.80200921331E+02 0.  0.
          6    2    1    2  502    0  0.12723057965E+02  0.23225165525E+03  0.43269474423E+02  0.29396521368E+03  0.17447232407E+03 0.  0.
         24    2    5    5    0    0 -0.45752650303E+02  0.87800252856E+02 -0.10752219051E+02  0.12896203348E+03  0.81935379739E+02 0.  0.
          4    1    6    6  501    0 -0.97193300905E+00 -0.14787654728E+02 -0.83298455267E+01  0.17000168018E+02  0.00000000000E+00 0. -1.
         -3    1    6    6    0  501 -0.44780717294E+02  0.10258790758E+03 -0.24223735241E+01  0.11196186546E+03  0.00000000000E+00 0.  1.
          5    1    5    5  502    0  0.58475708268E+02  0.14445140239E+03  0.54021693474E+02  0.16500318020E+03  0.47000000000E+01 0. -1.
         11    1    4    4    0    0  0.53392960209E+00  0.11205727428E+02 -0.16018973178E+02  0.19556607827E+02  0.00000000000E+00 0. -1.
        -12    1    4    4    0    0 -0.36606018136E+02 -0.10277903433E+03 -0.57304907051E+01  0.10925369094E+03  0.00000000000E+00 0.  1.
         -5    1    3    3    0  504  0.23349030570E+02 -0.14067834835E+03 -0.15409254195E+03  0.21000518186E+03  0.47000000000E+01 0.  1.
<mgrwt>
<rscale>  2 0.29047523E+03</rscale>
<asrwt>0</asrwt>
<pdfrwt beam="1">  1       21 0.38477551E-01 0.29076330E+03</pdfrwt>
<pdfrwt beam="2">  1       21 0.58873324E-01 0.29076330E+03</pdfrwt>
<totfact> 0.16702173E+04</totfact>
</mgrwt>
</event>
<event>
12    1  0.2742799E-001  0.3344193E+03  0.7546771E-02  0.1069520E+00
         21   -1    0    0  502  503  0.00000000000E+00  0.00000000000E+00  0.68518966077E+03  0.68518966077E+03  0.00000000000E+00 0.  1.
         21   -1    0    0  503  504 -0.00000000000E+00 -0.00000000000E+00 -0.17031077994E+04  0.17031077994E+04  0.00000000000E+00 0.  1.
         -6    2    1    2    0  504  0.25096465737E+03 -0.13749063424E+03 -0.16447593389E+04  0.16778284951E+04  0.16729686904E+03 0.  0.
        -24    2    3    3    0    0  0.26461862160E+03 -0.10947313875E+03 -0.13985504517E+04  0.14296102102E+04  0.76384582071E+02 0.  0.
          6    2    1    2  502    0 -0.25096465737E+03  0.13749063424E+03  0.62684120027E+03  0.71046896505E+03  0.17305873626E+03 0.  0.
         24    2    5    5    0    0 -0.22271171063E+03  0.72696944554E+02  0.56239567600E+03  0.61469962329E+03  0.81739700832E+02 0.  0.
          4    1    6    6  501    0 -0.75291026922E+02  0.36418679725E+01  0.26676611148E+03  0.27721139979E+03  0.00000000000E+00 0. -1.
         -3    1    6    6    0  501 -0.14742068370E+03  0.69055076581E+02  0.29562956452E+03  0.33748822350E+03  0.00000000000E+00 0.  1.
          5    1    5    5  502    0 -0.28252946740E+02  0.64793689691E+02  0.64445524273E+02  0.95769341764E+02  0.47000000000E+01 0. -1.
         11    1    4    4    0    0  0.20219187343E+03 -0.51147594699E+02 -0.90508988220E+03  0.92880855131E+03  0.00000000000E+00 0. -1.
        -12    1    4    4    0    0  0.62426748175E+02 -0.58325544051E+02 -0.49346056946E+03  0.50080165894E+03  0.00000000000E+00 0.  1.
         -5    1    3    3    0  504 -0.13653964239E+02 -0.28017495493E+02 -0.24620888722E+03  0.24821828486E+03  0.47000000000E+01 0.  1.
<mgrwt>
<rscale>  2 0.33368058E+03</rscale>
<asrwt>0</asrwt>
<pdfrwt beam="1">  1       21 0.10541380E+00 0.33441929E+03</pdfrwt>
<pdfrwt beam="2">  1       21 0.26201658E+00 0.33441929E+03</pdfrwt>
<totfact> 0.34218386E+01</totfact>
</mgrwt>
</event>
<event>
12    1  0.2742799E-001  0.2011664E+03  0.7546771E-02  0.1149893E+00
         21   -1    0    0  502  503  0.00000000000E+00  0.00000000000E+00  0.11523732206E+03  0.11523732206E+03  0.00000000000E+00 0. -1.
         21   -1    0    0  503  504 -0.00000000000E+00 -0.00000000000E+00 -0.47430566195E+03  0.47430566195E+03  0.00000000000E+00 0.  1.
         -6    2    1    2    0  504 -0.10238149872E+03 -0.61047368906E+01 -0.33352149856E+03  0.38676093498E+03  0.16681783995E+03 0.  0.
        -24    2    3    3    0    0 -0.31731057145E+02 -0.58574848518E+02 -0.14984959129E+03  0.18304039838E+03  0.81308145739E+02 0.  0.
          6    2    1    2  502    0  0.10238149872E+03  0.61047368906E+01 -0.25546841329E+02  0.20278204903E+03  0.17305686699E+03 0.  0.
         24    2    5    5    0    0  0.73518653594E+01  0.14540031481E+02 -0.51180426198E+02  0.10388333273E+03  0.88920460828E+02 0.  0.
          2    1    6    6  501    0  0.14900107339E+01  0.42553243417E+02  0.29197655659E+01  0.42679312181E+02  0.00000000000E+00 0. -1.
         -1    1    6    6    0  501  0.58618546255E+01 -0.28013211936E+02 -0.54100191764E+02  0.61204020550E+02  0.00000000000E+00 0.  1.
          5    1    5    5  502    0  0.95029633363E+02 -0.84352945906E+01  0.25633584869E+02  0.98898716297E+02  0.47000000000E+01 0. -1.
         11    1    4    4    0    0  0.10643343941E+02 -0.45177666986E+02 -0.30125502449E+02  0.55333970238E+02  0.00000000000E+00 0. -1.
        -12    1    4    4    0    0 -0.42374401087E+02 -0.13397181532E+02 -0.11972408884E+03  0.12770642814E+03  0.00000000000E+00 0.  1.
         -5    1    3    3    0  504 -0.70650441577E+02  0.52470111627E+02 -0.18367190728E+03  0.20372053660E+03  0.47000000000E+01 0.  1.
<mgrwt>
<rscale>  2 0.19981754E+03</rscale>
<asrwt>0</asrwt>
<pdfrwt beam="1">  1       21 0.17728819E-01 0.20116639E+03</pdfrwt>
<pdfrwt beam="2">  1       21 0.72970103E-01 0.20116639E+03</pdfrwt>
<totfact> 0.48593314E+04</totfact>
</mgrwt>
</event>
<event>
12    1  0.2742799E-001  0.1862154E+03  0.7546771E-02  0.1162378E+00
         21   -1    0    0  502  503  0.00000000000E+00  0.00000000000E+00  0.64738417287E+03  0.64738417287E+03  0.00000000000E+00 0. -1.
         21   -1    0    0  503  504 -0.00000000000E+00 -0.00000000000E+00 -0.73941319053E+02  0.73941319053E+02  0.00000000000E+00 0. -1.
         -6    2    1    2    0  504  0.63812083700E+02  0.16868052293E+02  0.95872146447E+02  0.20944608048E+03  0.17412546899E+03 0.  0.
        -24    2    3    3    0    0  0.74246676180E+02 -0.31351359706E+02  0.13318275527E+02  0.11315888498E+03  0.78307599295E+02 0.  0.
          6    2    1    2  502    0 -0.63812083700E+02 -0.16868052293E+02  0.47757070737E+03  0.51187941144E+03  0.17201813308E+03 0.  0.
         24    2    5    5    0    0  0.24198751055E+02 -0.28704240151E+02  0.17517505644E+03  0.19667912262E+03  0.81159496782E+02 0.  0.
          4    1    6    6  501    0  0.25189231234E+02 -0.29198898156E+02  0.18389216246E+03  0.18789199141E+03  0.00000000000E+00 0. -1.
         -3    1    6    6    0  501 -0.99048017895E+00  0.49465800550E+00 -0.87171060140E+01  0.87871312035E+01  0.00000000000E+00 0.  1.
          5    1    5    5  502    0 -0.88010834755E+02  0.11836187858E+02  0.30239565093E+03  0.31520028883E+03  0.47000000000E+01 0. -1.
         13    1    4    4    0    0  0.47333296156E+01  0.22587125063E+02 -0.41717150580E+01  0.23451776785E+02  0.00000000000E+00 0. -1.
        -14    1    4    4    0    0  0.69513346565E+02 -0.53938484769E+02  0.17489990585E+02  0.89707108194E+02  0.00000000000E+00 0.  1.
         -5    1    3    3    0  504 -0.10434592481E+02  0.48219411999E+02  0.82553870920E+02  0.96287195502E+02  0.47000000000E+01 0.  1.
<mgrwt>
<rscale>  2 0.18572123E+03</rscale>
<asrwt>0</asrwt>
<pdfrwt beam="1">  1       21 0.99597561E-01 0.18621545E+03</pdfrwt>
<pdfrwt beam="2">  1       21 0.11375588E-01 0.18621545E+03</pdfrwt>
<totfact> 0.53675826E+04</totfact>
</mgrwt>
</event>
<event>
12    1  0.2742799E-001  0.2126044E+03  0.7546771E-02  0.1140442E+00
         21   -1    0    0  502  503  0.00000000000E+00  0.00000000000E+00  0.30560039294E+03  0.30560039294E+03  0.00000000000E+00 0.  1.
         21   -1    0    0  503  504 -0.00000000000E+00 -0.00000000000E+00 -0.15492896943E+03  0.15492896943E+03  0.00000000000E+00 0. -1.
         -6    2    1    2    0  504  0.73932885548E+01  0.12007901945E+03  0.13535672007E+03  0.25203585766E+03  0.17529118704E+03 0.  0.
        -24    2    3    3    0    0 -0.27561773925E+01  0.36375580062E+01 -0.11528448895E+02  0.64262141547E+02  0.63054653755E+02 0.  0.
          6    2    1    2  502    0 -0.73932885548E+01 -0.12007901945E+03  0.15314703442E+02  0.20849350470E+03  0.16959177378E+03 0.  0.
         24    2    5    5    0    0 -0.38548348477E+02 -0.81043451855E+01 -0.59924934985E+01  0.90235092413E+02  0.80961758524E+02 0.  0.
          2    1    6    6  501    0 -0.54605334360E+02 -0.28150894568E+02  0.63070840305E+01  0.61757547835E+02  0.00000000000E+00 0. -1.
         -1    1    6    6    0  501  0.16056985883E+02  0.20046549383E+02 -0.12299577529E+02  0.28477544578E+02  0.00000000000E+00 0.  1.
          5    1    5    5  502    0  0.31155059922E+02 -0.11197467427E+03  0.21307196940E+02  0.11825841229E+03  0.47000000000E+01 0. -1.
         13    1    4    4    0    0  0.29468528128E+01  0.16888165516E+02 -0.33700474039E+02  0.37810263506E+02  0.00000000000E+00 0. -1.
        -14    1    4    4    0    0 -0.57030302054E+01 -0.13250607509E+02  0.22172025144E+02  0.26451878040E+02  0.00000000000E+00 0.  1.
         -5    1    3    3    0  504  0.10149465947E+02  0.11644146144E+03  0.14688516897E+03  0.18777371612E+03  0.47000000000E+01 0.  1.
<mgrwt>
<rscale>  2 0.21142611E+03</rscale>
<asrwt>0</asrwt>
<pdfrwt beam="1">  1       21 0.47015445E-01 0.21260440E+03</pdfrwt>
<pdfrwt beam="2">  1       21 0.23835226E-01 0.21260440E+03</pdfrwt>
<totfact> 0.71192054E+04</totfact>
</mgrwt>
</event>
<event>
12    1  0.2742799E-001  0.2199770E+03  0.7546771E-02  0.1135237E+00
         21   -1    0    0  502  503  0.00000000000E+00  0.00000000000E+00  0.19438071539E+03  0.19438071539E+03  0.00000000000E+00 0. -1.
         21   -1    0    0  503  504 -0.00000000000E+00 -0.00000000000E+00 -0.25084220351E+03  0.25084220351E+03  0.00000000000E+00 0.  1.
         -6    2    1    2    0  504  0.12063241441E+03 -0.49907611171E+02 -0.72693297345E+02  0.23167693404E+03  0.17705066289E+03 0.  0.
        -24    2    3    3    0    0  0.97314849646E+02 -0.21245242823E+02  0.27528683919E+02  0.12475745165E+03  0.69893154177E+02 0.  0.
          6    2    1    2  502    0 -0.12063241441E+03  0.49907611171E+02  0.16231809223E+02  0.21354598485E+03  0.16821256480E+03 0.  0.
         24    2    5    5    0    0 -0.15176987334E+03  0.35224102918E+02  0.24474699886E+01  0.17616624741E+03  0.82181048511E+02 0.  0.
          4    1    6    6  501    0 -0.28768701036E+01 -0.15634891320E+02 -0.92495658798E+01  0.18392408139E+02  0.00000000000E+00 0. -1.
         -3    1    6    6    0  501 -0.14889300324E+03  0.50858994238E+02  0.11697035868E+02  0.15777383927E+03  0.00000000000E+00 0.  1.
          5    1    5    5  502    0  0.31137458935E+02  0.14683508253E+02  0.13784339235E+02  0.37379737448E+02  0.47000000000E+01 0. -1.
         11    1    4    4    0    0  0.91391437676E+02 -0.20897999361E+02 -0.28609625986E+01  0.93793956973E+02  0.00000000000E+00 0. -1.
        -12    1    4    4    0    0  0.59234119702E+01 -0.34724346290E+00  0.30389646518E+02  0.30963494681E+02  0.00000000000E+00 0.  1.
         -5    1    3    3    0  504  0.23317564764E+02 -0.28662368348E+02 -0.10022198126E+03  0.10691948239E+03  0.47000000000E+01 0.  1.
<mgrwt>
<rscale>  2 0.21819323E+03</rscale>
<asrwt>0</asrwt>
<pdfrwt beam="1">  1       21 0.29904726E-01 0.21997701E+03</pdfrwt>
<pdfrwt beam="2">  1       21 0.38591108E-01 0.21997701E+03</pdfrwt>
<totfact> 0.68604093E+04</totfact>
</mgrwt>
</event>
<event>
12    1  0.2742799E-001  0.2040501E+03  0.7546771E-02  0.1146394E+00
         21   -1    0    0  502  503  0.00000000000E+00  0.00000000000E+00  0.58914206722E+03  0.58914206722E+03  0.00000000000E+00 0.  1.
         21   -1    0    0  503  504 -0.00000000000E+00 -0.00000000000E+00 -0.14518807302E+03  0.14518807302E+03  0.00000000000E+00 0.  1.
         -6    2    1    2    0  504 -0.10748738929E+03 -0.14071684706E+02 -0.41108180044E+02  0.20814979796E+03  0.17287251012E+03 0.  0.
        -24    2    3    3    0    0 -0.73800528760E+01  0.15209167222E+02 -0.60038335369E+02  0.10204000635E+03  0.80757521224E+02 0.  0.
          6    2    1    2  502    0  0.10748738929E+03  0.14071684706E+02  0.48506217425E+03  0.52618034229E+03  0.17271041822E+03 0.  0.
         24    2    5    5    0    0  0.15768169277E+02  0.24639708317E+02  0.36353529382E+03  0.37348793544E+03  0.80495823985E+02 0.  0.
          4    1    6    6  501    0  0.47226330925E+02  0.11980999052E+02  0.16372907041E+03  0.17082470304E+03  0.00000000000E+00 0. -1.
         -3    1    6    6    0  501 -0.31458161648E+02  0.12658709265E+02  0.19980622341E+03  0.20266323240E+03  0.00000000000E+00 0.  1.
          5    1    5    5  502    0  0.91719220016E+02 -0.10568023611E+02  0.12152688043E+03  0.15269240685E+03  0.47000000000E+01 0. -1.
         13    1    4    4    0    0  0.16155230241E+02 -0.20969435115E+02 -0.51698654689E+02  0.58081490768E+02  0.00000000000E+00 0. -1.
        -14    1    4    4    0    0 -0.23535283117E+02  0.36178602336E+02 -0.83396806798E+01  0.43958515583E+02  0.00000000000E+00 0.  1.
         -5    1    3    3    0  504 -0.10010733642E+03 -0.29280851928E+02  0.18930155325E+02  0.10610979161E+03  0.47000000000E+01 0.  1.
<mgrwt>
<rscale>  2 0.20401580E+03</rscale>
<asrwt>0</asrwt>
<pdfrwt beam="1">  1       21 0.90637240E-01 0.20405013E+03</pdfrwt>
<pdfrwt beam="2">  1       21 0.22336627E-01 0.20405013E+03</pdfrwt>
<totfact> 0.19251181E+04</totfact>
</mgrwt>
</event>
<event>
12    1  0.2742799E-001  0.2104259E+03  0.7546771E-02  0.1141383E+00
         21   -1    0    0  502  503  0.00000000000E+00  0.00000000000E+00  0.18961626304E+03  0.18961626304E+03  0.00000000000E+00 0. -1.
         21   -1    0    0  503  504 -0.00000000000E+00 -0.00000000000E+00 -0.34536262674E+03  0.34536262674E+03  0.00000000000E+00 0.  1.
         -6    2    1    2    0  504 -0.65110338421E+02 -0.99508473105E+02 -0.23058307363E+03  0.31164149542E+03  0.17265739321E+03 0.  0.
        -24    2    3    3    0    0  0.13272176784E+02 -0.67461849246E+01 -0.69600928046E+02  0.10993378114E+03  0.83782369054E+02 0.  0.
          6    2    1    2  502    0  0.65110338421E+02  0.99508473105E+02  0.74836709933E+02  0.22333739436E+03  0.17360232192E+03 0.  0.
         24    2    5    5    0    0  0.43104296818E+02  0.54873077047E+02 -0.26909448613E+02  0.10997534062E+03  0.80631396689E+02 0.  0.
          2    1    6    6  501    0  0.64581206717E+02  0.23734165369E+02 -0.17151479749E+02  0.70909915557E+02  0.00000000000E+00 0. -1.
         -1    1    6    6    0  501 -0.21476909899E+02  0.31138911677E+02 -0.97579688640E+01  0.39065425066E+02  0.00000000000E+00 0.  1.
          5    1    5    5  502    0  0.22006041604E+02  0.44635396059E+02  0.10174615855E+03  0.11336205374E+03  0.47000000000E+01 0. -1.
         11    1    4    4    0    0 -0.12949461683E+02  0.33074228350E+01  0.15413514243E+02  0.20401079015E+02  0.00000000000E+00 0. -1.
        -12    1    4    4    0    0  0.26221638467E+02 -0.10053607760E+02 -0.85014442289E+02  0.89532702129E+02  0.00000000000E+00 0.  1.
         -5    1    3    3    0  504 -0.78382515205E+02 -0.92762288181E+02 -0.16098214559E+03  0.20170771427E+03  0.47000000000E+01 0.  1.
<mgrwt>
<rscale>  2 0.21023090E+03</rscale>
<asrwt>0</asrwt>
<pdfrwt beam="1">  1       21 0.29171733E-01 0.21042590E+03</pdfrwt>
<pdfrwt beam="2">  1       21 0.53132711E-01 0.21042590E+03</pdfrwt>
<totfact> 0.37406686E+04</totfact>
</mgrwt>
</event>
<event>
12    1  0.2742799E-001  0.2061176E+03  0.7546771E-02  0.1147138E+00
         21   -1    0    0  502  503  0.00000000000E+00  0.00000000000E+00  0.72012210421E+02  0.72012210421E+02  0.00000000000E+00 0.  1.
         21   -1    0    0  503  504 -0.00000000000E+00 -0.00000000000E+00 -0.77368341507E+03  0.77368341507E+03  0.00000000000E+00 0. -1.
         -6    2    1    2    0  504  0.10303122390E+03 -0.42507738918E+02 -0.56723659245E+03  0.59961201907E+03  0.15923215953E+03 0.  0.
        -24    2    3    3    0    0  0.17274708535E+02 -0.34082704445E+02 -0.15661376940E+03  0.18001893769E+03  0.80118030819E+02 0.  0.
          6    2    1    2  502    0 -0.10303122390E+03  0.42507738918E+02 -0.13443461220E+03  0.24608360643E+03  0.17338435751E+03 0.  0.
         24    2    5    5    0    0 -0.52309120483E+02  0.84949785332E+02 -0.44695873326E+02  0.13450766666E+03  0.78370154942E+02 0.  0.
          2    1    6    6  501    0 -0.33079925567E+02  0.96571572697E+02 -0.46075693940E+02  0.11199696291E+03  0.00000000000E+00 0. -1.
         -1    1    6    6    0  501 -0.19229194916E+02 -0.11621787365E+02  0.13798206143E+01  0.22510703756E+02  0.00000000000E+00 0.  1.
          5    1    5    5  502    0 -0.50722103419E+02 -0.42442046414E+02 -0.89738738874E+02  0.11157593976E+03  0.47000000000E+01 0. -1.
         11    1    4    4    0    0  0.14215991053E+02 -0.60428901922E+02 -0.11459266893E+03  0.13032738147E+03  0.00000000000E+00 0. -1.
        -12    1    4    4    0    0  0.30587174822E+01  0.26346197476E+02 -0.42021100475E+02  0.49691556216E+02  0.00000000000E+00 0.  1.
         -5    1    3    3    0  504  0.85756515366E+02 -0.84250344725E+01 -0.41062282305E+03  0.41959308138E+03  0.47000000000E+01 0.  1.
<mgrwt>
<rscale>  2 0.20311411E+03</rscale>
<asrwt>0</asrwt>
<pdfrwt beam="1">  1       21 0.11078802E-01 0.20611763E+03</pdfrwt>
<pdfrwt beam="2">  1       21 0.11902821E+00 0.20611763E+03</pdfrwt>
<totfact> 0.36186644E+04</totfact>
</mgrwt>
</event>
<event>
12    1  0.2742799E-001  0.2462496E+03  0.7546771E-02  0.1116129E+00
         21   -1    0    0  502  503  0.00000000000E+00  0.00000000000E+00  0.67003674704E+02  0.67003674704E+02  0.00000000000E+00 0.  1.
         21   -1    0    0  503  504 -0.00000000000E+00 -0.00000000000E+00 -0.89930169565E+03  0.89930169565E+03  0.00000000000E+00 0.  1.
         -6    2    1    2    0  504  0.15665965792E+03 -0.76314823129E+02 -0.45076403343E+03  0.51364101686E+03  0.17399045867E+03 0.  0.
        -24    2    3    3    0    0  0.62757447481E+02 -0.98720015932E+02 -0.32700815564E+03  0.35661482452E+03  0.80967033127E+02 0.  0.
          6    2    1    2  502    0 -0.15665965792E+03  0.76314823129E+02 -0.38153398752E+03  0.45266435350E+03  0.17020761632E+03 0.  0.
         24    2    5    5    0    0 -0.47077950121E+02  0.41359917678E+02 -0.28422878545E+03  0.30193151551E+03  0.80309783975E+02 0.  0.
          2    1    6    6  501    0  0.49781909846E+01  0.48993377009E+02 -0.13561160206E+03  0.14427626274E+03  0.00000000000E+00 0. -1.
         -1    1    6    6    0  501 -0.52056141105E+02 -0.76334593305E+01 -0.14861718339E+03  0.15765525278E+03  0.00000000000E+00 0.  1.
          5    1    5    5  502    0 -0.10958170780E+03  0.34954905451E+02 -0.97305202062E+02  0.15073283799E+03  0.47000000000E+01 0. -1.
         13    1    4    4    0    0 -0.79673917504E+01 -0.47252163571E+01 -0.18271392267E+00  0.92650086511E+01  0.00000000000E+00 0. -1.
        -14    1    4    4    0    0  0.70724839232E+02 -0.93994799575E+02 -0.32682544171E+03  0.34734981587E+03  0.00000000000E+00 0.  1.
         -5    1    3    3    0  504  0.93902210443E+02  0.22405192803E+02 -0.12375587780E+03  0.15702619234E+03  0.47000000000E+01 0.  1.
<mgrwt>
<rscale>  2 0.24558240E+03</rscale>
<asrwt>0</asrwt>
<pdfrwt beam="1">  1       21 0.10308258E-01 0.24624963E+03</pdfrwt>
<pdfrwt beam="2">  1       21 0.13835410E+00 0.24624963E+03</pdfrwt>
<totfact> 0.27518696E+04</totfact>
</mgrwt>
</event>
<event>
12    1  0.2742799E-001  0.1863262E+03  0.7546771E-02  0.1161818E+00
         21   -1    0    0  502  503  0.00000000000E+00  0.00000000000E+00  0.39237233718E+02  0.39237233718E+02  0.00000000000E+00 0. -1.
         21   -1    0    0  503  504 -0.00000000000E+00 -0.00000000000E+00 -0.10217131123E+04  0.10217131123E+04  0.00000000000E+00 0. -1.
         -6    2    1    2    0  504 -0.36804661658E+02  0.58562374213E+02 -0.68542818922E+03  0.71030223257E+03  0.17301249732E+03 0.  0.
        -24    2    3    3    0    0  0.50236619091E+01  0.97311473292E+02 -0.41546757143E+03  0.43434584745E+03  0.80921272088E+02 0.  0.
          6    2    1    2  502    0  0.36804661658E+02 -0.58562374213E+02 -0.29704768934E+03  0.35064811343E+03  0.17301050520E+03 0.  0.
         24    2    5    5    0    0 -0.42242484416E+01 -0.39766650809E+01 -0.51917537845E+02  0.96141036354E+02  0.80709417018E+02 0.  0.
          4    1    6    6  501    0  0.10322361080E+02 -0.40329869690E+02 -0.24006123320E+02  0.48055629060E+02  0.00000000000E+00 0. -1.
         -3    1    6    6    0  501 -0.14546609521E+02  0.36353204609E+02 -0.27911414524E+02  0.48085407294E+02  0.00000000000E+00 0.  1.
          5    1    5    5  502    0  0.41028910100E+02 -0.54585709132E+02 -0.24513015150E+03  0.25450707707E+03  0.47000000000E+01 0. -1.
         13    1    4    4    0    0 -0.27813093857E+02  0.45273778069E+02 -0.10322048935E+03  0.11609372331E+03  0.00000000000E+00 0. -1.
        -14    1    4    4    0    0  0.32836755766E+02  0.52037695223E+02 -0.31224708208E+03  0.31825212414E+03  0.00000000000E+00 0.  1.
         -5    1    3    3    0  504 -0.41828323567E+02 -0.38749099079E+02 -0.26996061779E+03  0.27595638512E+03  0.47000000000E+01 0.  1.
<mgrwt>
<rscale>  2 0.18632575E+03</rscale>
<asrwt>0</asrwt>
<pdfrwt beam="1">  1       21 0.60364973E-02 0.18632622E+03</pdfrwt>
<pdfrwt beam="2">  1       21 0.15718664E+00 0.18632622E+03</pdfrwt>
<totfact> 0.51701181E+04</totfact>
</mgrwt>
</event>
<event>
12    1  0.2742799E-001  0.1880049E+03  0.7546771E-02  0.1160905E+00
         21   -1    0    0  502  503  0.00000000000E+00  0.00000000000E+00  0.50913613746E+03  0.50913613746E+03  0.00000000000E+00 0.  1.
         21   -1    0    0  503  504 -0.00000000000E+00 -0.00000000000E+00 -0.13851590691E+03  0.13851590691E+03  0.00000000000E+00 0.  1.
         -6    2    1    2    0  504 -0.73037947604E+02  0.15494392703E+02 -0.44383823828E+02  0.19317291272E+03  0.17254342177E+03 0.  0.
        -24    2    3    3    0    0 -0.49491440816E+01  0.55029249408E+02  0.16235085254E+02  0.93695115210E+02  0.73908621307E+02 0.  0.
          6    2    1    2  502    0  0.73037947604E+02 -0.15494392703E+02  0.41500405438E+03  0.45447913164E+03  0.16955323043E+03 0.  0.
         24    2    5    5    0    0  0.19099702981E+02 -0.64446021869E+02  0.30754666073E+03  0.32457617678E+03  0.79035799608E+02 0.  0.
          4    1    6    6  501    0 -0.85502362673E+01 -0.46118857265E+02  0.27176668266E+03  0.27578467206E+03  0.00000000000E+00 0. -1.
         -3    1    6    6    0  501  0.27649939248E+02 -0.18327164605E+02  0.35779978065E+02  0.48791504724E+02  0.00000000000E+00 0.  1.
          5    1    5    5  502    0  0.53938244623E+02  0.48951629167E+02  0.10745739365E+03  0.12990295486E+03  0.47000000000E+01 0. -1.
         13    1    4    4    0    0  0.24359650039E+02  0.31465582587E+02 -0.17222140847E+02  0.43359861311E+02  0.00000000000E+00 0. -1.
        -14    1    4    4    0    0 -0.29308794120E+02  0.23563666821E+02  0.33457226100E+02  0.50335253900E+02  0.00000000000E+00 0.  1.
         -5    1    3    3    0  504 -0.68088803523E+02 -0.39534856705E+02 -0.60618909082E+02  0.99477797513E+02  0.47000000000E+01 0.  1.
<mgrwt>
<rscale>  2 0.18731603E+03</rscale>
<asrwt>0</asrwt>
<pdfrwt beam="1">  1       21 0.78328636E-01 0.18800492E+03</pdfrwt>
<pdfrwt beam="2">  1       21 0.21310140E-01 0.18800492E+03</pdfrwt>
<totfact> 0.29639661E+04</totfact>
</mgrwt>
</event>
<event>
12    1  0.2742799E-001  0.2557246E+03  0.7546771E-02  0.1110084E+00
         21   -1    0    0  502  503  0.00000000000E+00  0.00000000000E+00  0.47494405346E+03  0.47494405346E+03  0.00000000000E+00 0. -1.
         21   -1    0    0  503  504 -0.00000000000E+00 -0.00000000000E+00 -0.13671804903E+03  0.13671804903E+03  0.00000000000E+00 0.  1.
         -6    2    1    2    0  504  0.61492294586E+02  0.17954101684E+03  0.15590233520E+03  0.29759680031E+03  0.16805367718E+03 0.  0.
        -24    2    3    3    0    0  0.21791889372E+02  0.94628918277E+02  0.15963510118E+03  0.20367017896E+03  0.81047255680E+02 0.  0.
          6    2    1    2  502    0 -0.61492294586E+02 -0.17954101684E+03  0.18232366923E+03  0.31406530219E+03  0.17140249314E+03 0.  0.
         24    2    5    5    0    0  0.24797871047E+02 -0.12814263073E+03  0.87436683302E+02  0.17581402054E+03  0.78929893013E+02 0.  0.
          2    1    6    6  501    0  0.38065208340E+02 -0.10329641031E+03  0.96324022035E+02  0.14627858931E+03  0.00000000000E+00 0. -1.
         -1    1    6    6    0  501 -0.13267337293E+02 -0.24846220424E+02 -0.88873387328E+01  0.29535431230E+02  0.00000000000E+00 0.  1.
          5    1    5    5  502    0 -0.86290165633E+02 -0.51398386106E+02  0.94886985926E+02  0.13825128165E+03  0.47000000000E+01 0. -1.
         11    1    4    4    0    0 -0.22183855054E+02  0.67194986316E+02  0.66616220875E+02  0.97185443841E+02  0.00000000000E+00 0. -1.
        -12    1    4    4    0    0  0.43975744426E+02  0.27433931962E+02  0.93018880302E+02  0.10648473512E+03  0.00000000000E+00 0.  1.
         -5    1    3    3    0  504  0.39700405214E+02  0.84912098563E+02 -0.37327659774E+01  0.93926621350E+02  0.47000000000E+01 0.  1.
<mgrwt>
<rscale>  2 0.25516471E+03</rscale>
<asrwt>0</asrwt>
<pdfrwt beam="1">  1       21 0.73068315E-01 0.25572464E+03</pdfrwt>
<pdfrwt beam="2">  1       21 0.21033546E-01 0.25572464E+03</pdfrwt>
<totfact> 0.34326112E+04</totfact>
</mgrwt>
</event>
<event>
12    1  0.2742799E-001  0.2249938E+03  0.7546771E-02  0.1130451E+00
         21   -1    0    0  502  503  0.00000000000E+00  0.00000000000E+00  0.59482668981E+03  0.59482668981E+03  0.00000000000E+00 0. -1.
         21   -1    0    0  503  504 -0.00000000000E+00 -0.00000000000E+00 -0.88692845224E+02  0.88692845224E+02  0.00000000000E+00 0.  1.
         -6    2    1    2    0  504  0.24708356795E+02  0.14120835600E+03  0.17904757832E+03  0.28652123612E+03  0.17171511508E+03 0.  0.
        -24    2    3    3    0    0 -0.39930136382E+02  0.29202541423E+02  0.71003121607E+02  0.11794148667E+03  0.80134554239E+02 0.  0.
          6    2    1    2  502    0 -0.24708356795E+02 -0.14120835600E+03  0.32708626627E+03  0.39699829891E+03  0.17341257469E+03 0.  0.
         24    2    5    5    0    0 -0.44884994473E+02 -0.12230309680E+03  0.33305239817E+03  0.36832443863E+03  0.88126511080E+02 0.  0.
          4    1    6    6  501    0 -0.39537674232E+02 -0.13649144756E+03  0.30269068106E+03  0.33438718776E+03  0.00000000000E+00 0. -1.
         -3    1    6    6    0  501 -0.53473202409E+01  0.14188350758E+02  0.30361717111E+02  0.33937250874E+02  0.00000000000E+00 0.  1.
          5    1    5    5  502    0  0.20176637678E+02 -0.18905259202E+02 -0.59661318993E+01  0.28673860280E+02  0.47000000000E+01 0. -1.
         13    1    4    4    0    0  0.17522045306E+01  0.37572159303E+02  0.64871883971E+02  0.74987323632E+02  0.00000000000E+00 0. -1.
        -14    1    4    4    0    0 -0.41682340913E+02 -0.83696178799E+01  0.61312376352E+01  0.42954163039E+02  0.00000000000E+00 0.  1.
         -5    1    3    3    0  504  0.64638493177E+02  0.11200581458E+03  0.10804445671E+03  0.16857974945E+03  0.47000000000E+01 0.  1.
<mgrwt>
<rscale>  2 0.22466669E+03</rscale>
<asrwt>0</asrwt>
<pdfrwt beam="1">  1       21 0.91511796E-01 0.22499383E+03</pdfrwt>
<pdfrwt beam="2">  1       21 0.13645053E-01 0.22499383E+03</pdfrwt>
<totfact> 0.46331767E+04</totfact>
</mgrwt>
</event>
<event>
12    1  0.2742799E-001  0.1821427E+03  0.7546771E-02  0.1167451E+00
         21   -1    0    0  502  503  0.00000000000E+00  0.00000000000E+00  0.12767531381E+04  0.12767531381E+04  0.00000000000E+00 0.  1.
         21   -1    0    0  503  504 -0.00000000000E+00 -0.00000000000E+00 -0.26290875973E+02  0.26290875973E+02  0.00000000000E+00 0.  1.
         -6    2    1    2    0  504  0.24313432022E+02  0.98949406275E+01  0.49222744465E+03  0.52484648551E+03  0.18024129178E+03 0.  0.
        -24    2    3    3    0    0  0.50374569131E+02 -0.29634636510E+02  0.15525188560E+03  0.18452841704E+03  0.80819427209E+02 0.  0.
          6    2    1    2  502    0 -0.24313432022E+02 -0.98949406275E+01  0.75823481751E+03  0.77819752859E+03  0.17315398407E+03 0.  0.
         24    2    5    5    0    0 -0.58781894063E+02  0.18622213113E+02  0.68721819381E+03  0.69413354240E+03  0.75831595603E+02 0.  0.
          4    1    6    6  501    0 -0.12285179081E+02  0.14601115388E+02  0.32015414241E+02  0.37270698205E+02  0.00000000000E+00 0. -1.
         -3    1    6    6    0  501 -0.46496714982E+02  0.40210977251E+01  0.65520277957E+03  0.65686284420E+03  0.00000000000E+00 0.  1.
          5    1    5    5  502    0  0.34468462041E+02 -0.28517153741E+02  0.71016623699E+02  0.84063986192E+02  0.47000000000E+01 0. -1.
         13    1    4    4    0    0 -0.80851935048E+01 -0.30384200326E+02  0.97117171880E+02  0.10207994444E+03  0.00000000000E+00 0. -1.
        -14    1    4    4    0    0  0.58459762636E+02  0.74956381622E+00  0.58134713722E+02  0.82448472593E+02  0.00000000000E+00 0.  1.
         -5    1    3    3    0  504 -0.26061137109E+02  0.39529577137E+02  0.33697555904E+03  0.34031806847E+03  0.47000000000E+01 0.  1.
<mgrwt>
<rscale>  2 0.18036427E+03</rscale>
<asrwt>0</asrwt>
<pdfrwt beam="1">  1       21 0.19642351E+00 0.18214274E+03</pdfrwt>
<pdfrwt beam="2">  1       21 0.40447512E-02 0.18214274E+03</pdfrwt>
<totfact> 0.54825146E+04</totfact>
</mgrwt>
</event>
<event>
12    1  0.2742799E-001  0.1985332E+03  0.7546771E-02  0.1151534E+00
         21   -1    0    0  502  503  0.00000000000E+00  0.00000000000E+00  0.75855043569E+03  0.75855043569E+03  0.00000000000E+00 0.  1.
         21   -1    0    0  503  504 -0.00000000000E+00 -0.00000000000E+00 -0.53063821302E+02  0.53063821302E+02  0.00000000000E+00 0. -1.
         -6    2    1    2    0  504  0.50133893889E+02  0.80167333221E+02  0.42470122022E+03  0.46773071731E+03  0.17164116298E+03 0.  0.
        -24    2    3    3    0    0 -0.36758395129E+02  0.33206873088E+02  0.24312372989E+03  0.26097475076E+03  0.80899916378E+02 0.  0.
          6    2    1    2  502    0 -0.50133893889E+02 -0.80167333221E+02  0.28078539417E+03  0.34388353969E+03  0.17457159750E+03 0.  0.
         24    2    5    5    0    0 -0.39704465966E+02 -0.11590803189E+03  0.14783455857E+03  0.20573801788E+03  0.73905066249E+02 0.  0.
          2    1    6    6  501    0 -0.11178980303E+02 -0.11349261794E+03  0.11163527220E+03  0.15958689773E+03  0.00000000000E+00 0. -1.
         -1    1    6    6    0  501 -0.28525485663E+02 -0.24154139483E+01  0.36199286378E+02  0.46151120150E+02  0.00000000000E+00 0.  1.
          5    1    5    5  502    0 -0.10429427923E+02  0.35740698672E+02  0.13295083560E+03  0.13814552181E+03  0.47000000000E+01 0. -1.
         11    1    4    4    0    0 -0.33633829189E+02  0.57766553593E+02  0.14325286378E+03  0.15808096711E+03  0.00000000000E+00 0. -1.
        -12    1    4    4    0    0 -0.31245659406E+01 -0.24559680505E+02  0.99870866105E+02  0.10289378366E+03  0.00000000000E+00 0.  1.
         -5    1    3    3    0  504  0.86892289018E+02  0.46960460133E+02  0.18157749033E+03  0.20675596654E+03  0.47000000000E+01 0.  1.
<mgrwt>
<rscale>  2 0.19788716E+03</rscale>
<asrwt>0</asrwt>
<pdfrwt beam="1">  1       21 0.11670006E+00 0.19853325E+03</pdfrwt>
<pdfrwt beam="2">  1       21 0.81636654E-02 0.19853325E+03</pdfrwt>
<totfact> 0.65332755E+04</totfact>
</mgrwt>
</event>
<event>
12    1  0.2742799E-001  0.2048228E+03  0.7546771E-02  0.1146367E+00
         21   -1    0    0  502  503  0.00000000000E+00  0.00000000000E+00  0.81332610477E+03  0.81332610477E+03  0.00000000000E+00 0. -1.
         21   -1    0    0  503  504 -0.00000000000E+00 -0.00000000000E+00 -0.79608275382E+02  0.79608275382E+02  0.00000000000E+00 0. -1.
         -6    2    1    2    0  504  0.55349672607E+02 -0.90850701553E+02  0.63715609228E+03  0.66926846368E+03  0.17502843858E+03 0.  0.
        -24    2    3    3    0    0  0.97735670460E+02 -0.34761632734E+02  0.34143599736E+03  0.36527007389E+03  0.77993936899E+02 0.  0.
          6    2    1    2  502    0 -0.55349672607E+02  0.90850701553E+02  0.96561737103E+02  0.22366591647E+03  0.17142005976E+03 0.  0.
         24    2    5    5    0    0  0.77173117820E+01  0.93306403636E+02  0.10237140704E+03  0.16011029314E+03  0.79935968928E+02 0.  0.
          4    1    6    6  501    0  0.41884639823E+02  0.32208560962E+02  0.38835319517E+02  0.65573596015E+02  0.00000000000E+00 0. -1.
         -3    1    6    6    0  501 -0.34167328042E+02  0.61097842674E+02  0.63536087524E+02  0.94536697122E+02  0.00000000000E+00 0.  1.
          5    1    5    5  502    0 -0.63066984389E+02 -0.24557020833E+01 -0.58096699379E+01  0.63555623335E+02  0.47000000000E+01 0. -1.
         11    1    4    4    0    0  0.47574508498E+02 -0.56337588887E+02  0.22244874895E+03  0.23435166671E+03  0.00000000000E+00 0. -1.
        -12    1    4    4    0    0  0.50161161962E+02  0.21575956153E+02  0.11898724841E+03  0.13091840718E+03  0.00000000000E+00 0.  1.
         -5    1    3    3    0  504 -0.42385997853E+02 -0.56089068819E+02  0.29572009492E+03  0.30399838979E+03  0.47000000000E+01 0.  1.
<mgrwt>
<rscale>  2 0.20404977E+03</rscale>
<asrwt>0</asrwt>
<pdfrwt beam="1">  1       21 0.12512709E+00 0.20482283E+03</pdfrwt>
<pdfrwt beam="2">  1       21 0.12247428E-01 0.20482283E+03</pdfrwt>
<totfact> 0.26721323E+04</totfact>
</mgrwt>
</event>
<event>
12    1  0.2742799E-001  0.1956062E+03  0.7546771E-02  0.1155392E+00
         21   -1    0    0  502  503  0.00000000000E+00  0.00000000000E+00  0.13190972400E+04  0.13190972400E+04  0.00000000000E+00 0. -1.
         21   -1    0    0  503  504 -0.00000000000E+00 -0.00000000000E+00 -0.15294596389E+03  0.15294596389E+03  0.00000000000E+00 0. -1.
         -6    2    1    2    0  504  0.88442122068E+01 -0.71693795519E+02 -0.80432502125E+02  0.21149745524E+03  0.18177889253E+03 0.  0.
        -24    2    3    3    0    0 -0.25169041835E+02  0.27824583363E+02 -0.44590201645E+02  0.10028787971E+03  0.81619143761E+02 0.  0.
          6    2    1    2  502    0 -0.88442122068E+01  0.71693795519E+02  0.12465837783E+04  0.12605457487E+04  0.17258692838E+03 0.  0.
         24    2    5    5    0    0 -0.19647331725E+02  0.11041074974E+03  0.10896068129E+04  0.10984360094E+04  0.82110343777E+02 0.  0.
          4    1    6    6  501    0 -0.45997565670E+02  0.83314017688E+02  0.61422106129E+03  0.62155008947E+03  0.00000000000E+00 0. -1.
         -3    1    6    6    0  501  0.26350233945E+02  0.27096732052E+02  0.47538575166E+03  0.47688591990E+03  0.00000000000E+00 0.  1.
          5    1    5    5  502    0  0.10803119518E+02 -0.38716954221E+02  0.15697696532E+03  0.16210973931E+03  0.47000000000E+01 0. -1.
         11    1    4    4    0    0  0.26983778576E+02 -0.11293996982E+01 -0.26782307703E+02  0.38035402664E+02  0.00000000000E+00 0. -1.
        -12    1    4    4    0    0 -0.52152820412E+02  0.28953983062E+02 -0.17807893942E+02  0.62252477049E+02  0.00000000000E+00 0.  1.
         -5    1    3    3    0  504  0.34013254042E+02 -0.99518378882E+02 -0.35842300480E+02  0.11120957553E+03  0.47000000000E+01 0.  1.
<mgrwt>
<rscale>  2 0.19344272E+03</rscale>
<asrwt>0</asrwt>
<pdfrwt beam="1">  1       21 0.20293803E+00 0.19560620E+03</pdfrwt>
<pdfrwt beam="2">  1       21 0.23530149E-01 0.19560620E+03</pdfrwt>
<totfact> 0.21790821E+03</totfact>
</mgrwt>
</event>
<event>
12    1  0.2742799E-001  0.2314080E+03  0.7546771E-02  0.1126061E+00
         21   -1    0    0  502  503  0.00000000000E+00  0.00000000000E+00  0.96795756394E+03  0.96795756394E+03  0.00000000000E+00 0.  1.
         21   -1    0    0  503  504 -0.00000000000E+00 -0.00000000000E+00 -0.99125617910E+02  0.99125617910E+02  0.00000000000E+00 0.  1.
         -6    2    1    2    0  504 -0.13766691615E+03 -0.59856139803E+02  0.79011387482E+03  0.82265286231E+03  0.17304005145E+03 0.  0.
        -24    2    3    3    0    0  0.22646306813E+01 -0.32024860799E+02  0.30597587909E+03  0.31790826669E+03  0.80085624102E+02 0.  0.
          6    2    1    2  502    0  0.13766691615E+03  0.59856139803E+02  0.78718071210E+02  0.24443031954E+03  0.17610993470E+03 0.  0.
         24    2    5    5    0    0  0.34303561387E+02 -0.30883833526E+02  0.36162555805E+02  0.10037898231E+03  0.81471861089E+02 0.  0.
          4    1    6    6  501    0  0.34198084975E+02 -0.47935384222E+02  0.50905440172E+02  0.77837484000E+02  0.00000000000E+00 0. -1.
         -3    1    6    6    0  501  0.10547641259E+00  0.17051550695E+02 -0.14742884367E+02  0.22541498305E+02  0.00000000000E+00 0.  1.
          5    1    5    5  502    0  0.10336335477E+03  0.90739973330E+02  0.42555515406E+02  0.14405133724E+03  0.47000000000E+01 0. -1.
         11    1    4    4    0    0  0.27501886354E+02 -0.37173825847E+02  0.98206733414E+02  0.10854865070E+03  0.00000000000E+00 0. -1.
        -12    1    4    4    0    0 -0.25237255673E+02  0.51489650477E+01  0.20776914567E+03  0.20935961599E+03  0.00000000000E+00 0.  1.
         -5    1    3    3    0  504 -0.13993154683E+03 -0.27831279004E+02  0.48413799573E+03  0.50474459561E+03  0.47000000000E+01 0.  1.
<mgrwt>
<rscale>  2 0.23082385E+03</rscale>
<asrwt>0</asrwt>
<pdfrwt beam="1">  1       21 0.14891654E+00 0.23140797E+03</pdfrwt>
<pdfrwt beam="2">  1       21 0.15250096E-01 0.23140797E+03</pdfrwt>
<totfact> 0.11286098E+04</totfact>
</mgrwt>
</event>
<event>
12    1  0.2742799E-001  0.1952751E+03  0.7546771E-02  0.1154544E+00
         21   -1    0    0  502  503  0.00000000000E+00  0.00000000000E+00  0.10928296728E+04  0.10928296728E+04  0.00000000000E+00 0.  1.
         21   -1    0    0  503  504 -0.00000000000E+00 -0.00000000000E+00 -0.47337065049E+02  0.47337065049E+02  0.00000000000E+00 0. -1.
         -6    2    1    2    0  504  0.26325919286E+02 -0.84556347646E+02  0.21998530070E+03  0.29187746422E+03  0.17016489544E+03 0.  0.
        -24    2    3    3    0    0  0.39428586518E+02 -0.12507296684E+03  0.16349436644E+03  0.22097900181E+03  0.70024645032E+02 0.  0.
          6    2    1    2  502    0 -0.26325919286E+02  0.84556347646E+02  0.82550730707E+03  0.84828927365E+03  0.17403892613E+03 0.  0.
         24    2    5    5    0    0 -0.37397392575E+02  0.89111354348E+02  0.82592421326E+03  0.83542111848E+03  0.80238648458E+02 0.  0.
          4    1    6    6  501    0  0.20154845464E+02  0.52874330699E+02  0.32296889898E+03  0.32788842973E+03  0.00000000000E+00 0. -1.
         -3    1    6    6    0  501 -0.57552238038E+02  0.36237023649E+02  0.50295531428E+03  0.50753268875E+03  0.00000000000E+00 0.  1.
          5    1    5    5  502    0  0.11071473288E+02 -0.45550067020E+01 -0.41690618582E+00  0.12868155175E+02  0.47000000000E+01 0. -1.
         11    1    4    4    0    0  0.12134630291E+02 -0.74193052995E+02  0.41172239797E+02  0.85714711077E+02  0.00000000000E+00 0. -1.
        -12    1    4    4    0    0  0.27293956227E+02 -0.50879913843E+02  0.12232212665E+03  0.13526429073E+03  0.00000000000E+00 0.  1.
         -5    1    3    3    0  504 -0.13102667231E+02  0.40516619192E+02  0.56490934253E+02  0.70898462410E+02  0.47000000000E+01 0.  1.
<mgrwt>
<rscale>  2 0.19440821E+03</rscale>
<asrwt>0</asrwt>
<pdfrwt beam="1">  1       21 0.16812762E+00 0.19527513E+03</pdfrwt>
<pdfrwt beam="2">  1       21 0.72826262E-02 0.19527513E+03</pdfrwt>
<totfact> 0.31020281E+04</totfact>
</mgrwt>
</event>
<event>
12    1  0.2742799E-001  0.2078999E+03  0.7546771E-02  0.1143647E+00
         21   -1    0    0  502  503  0.00000000000E+00  0.00000000000E+00  0.32965768305E+03  0.32965768305E+03  0.00000000000E+00 0. -1.
         21   -1    0    0  503  504 -0.00000000000E+00 -0.00000000000E+00 -0.13209415425E+03  0.13209415425E+03  0.00000000000E+00 0.  1.
         -6    2    1    2    0  504 -0.10723881050E+03  0.31207821886E+02  0.12845783595E+03  0.24266748540E+03  0.17295086652E+03 0.  0.
        -24    2    3    3    0    0 -0.78714624345E+02  0.70161624567E+02  0.35455357484E+02  0.13777430669E+03  0.81277497269E+02 0.  0.
          6    2    1    2  502    0  0.10723881050E+03 -0.31207821886E+02  0.69105692846E+02  0.21908435190E+03  0.17535183443E+03 0.  0.
         24    2    5    5    0    0  0.12796787911E+03 -0.71766455398E+01  0.10388037344E+02  0.15217362937E+03  0.81373336116E+02 0.  0.
          4    1    6    6  501    0  0.10269714594E+03  0.15928435172E+02 -0.20652269547E+02  0.10595723226E+03  0.00000000000E+00 0. -1.
         -3    1    6    6    0  501  0.25270733169E+02 -0.23105080712E+02  0.31040306891E+02  0.46216397107E+02  0.00000000000E+00 0.  1.
          5    1    5    5  502    0 -0.20729068610E+02 -0.24031176346E+02  0.58717655502E+02  0.66910722531E+02  0.47000000000E+01 0. -1.
         13    1    4    4    0    0 -0.14795800459E+02 -0.18454158927E+02  0.33287312410E+01  0.23886233369E+02  0.00000000000E+00 0. -1.
        -14    1    4    4    0    0 -0.63918823886E+02  0.88615783494E+02  0.32126626243E+02  0.11388807332E+03  0.00000000000E+00 0.  1.
         -5    1    3    3    0  504 -0.28524186153E+02 -0.38953802682E+02  0.93002478464E+02  0.10489317871E+03  0.47000000000E+01 0.  1.
<mgrwt>
<rscale>  2 0.20739276E+03</rscale>
<asrwt>0</asrwt>
<pdfrwt beam="1">  1       21 0.50716566E-01 0.20789987E+03</pdfrwt>
<pdfrwt beam="2">  1       21 0.20322178E-01 0.20789987E+03</pdfrwt>
<totfact> 0.82332164E+04</totfact>
</mgrwt>
</event>
<event>
12    1  0.2742799E-001  0.1860318E+03  0.7546771E-02  0.1162090E+00
         21   -1    0    0  502  503  0.00000000000E+00  0.00000000000E+00  0.88359470761E+03  0.88359470761E+03  0.00000000000E+00 0.  1.
         21   -1    0    0  503  504 -0.00000000000E+00 -0.00000000000E+00 -0.41277662645E+02  0.41277662645E+02  0.00000000000E+00 0.  1.
         -6    2    1    2    0  504 -0.14727382919E+01 -0.68247262812E+02  0.52572864119E+03  0.55767206430E+03  0.17305394910E+03 0.  0.
        -24    2    3    3    0    0 -0.45573170054E+01 -0.22446754296E+01  0.45038180670E+03  0.45734713403E+03  0.79352514092E+02 0.  0.
          6    2    1    2  502    0  0.14727382919E+01  0.68247262812E+02  0.31658840378E+03  0.36720030595E+03  0.17305487409E+03 0.  0.
         24    2    5    5    0    0  0.58942715637E+02  0.77485465059E+02  0.24124003851E+03  0.27187135534E+03  0.78987572768E+02 0.  0.
          2    1    6    6  501    0  0.66326924767E+02  0.26697877975E+02  0.11272421555E+03  0.13348702712E+03  0.00000000000E+00 0. -1.
         -1    1    6    6    0  501 -0.73842091307E+01  0.50787587084E+02  0.12851582295E+03  0.13838432822E+03  0.00000000000E+00 0.  1.
          5    1    5    5  502    0 -0.57469977345E+02 -0.92382022471E+01  0.75348365271E+02  0.95328950617E+02  0.47000000000E+01 0. -1.
         13    1    4    4    0    0 -0.21230814942E+02  0.33605675033E+02  0.20853781926E+03  0.21229251272E+03  0.00000000000E+00 0. -1.
        -14    1    4    4    0    0  0.16673497937E+02 -0.35850350463E+02  0.24184398744E+03  0.24505462130E+03  0.00000000000E+00 0.  1.
         -5    1    3    3    0  504  0.30845787135E+01 -0.66002587382E+02  0.75346834492E+02  0.10032493028E+03  0.47000000000E+01 0.  1.
<mgrwt>
<rscale>  2 0.18603163E+03</rscale>
<asrwt>0</asrwt>
<pdfrwt beam="1">  1       21 0.13593763E+00 0.18603184E+03</pdfrwt>
<pdfrwt beam="2">  1       21 0.63504103E-02 0.18603184E+03</pdfrwt>
<totfact> 0.69275048E+04</totfact>
</mgrwt>
</event>
<event>
12    1  0.2742799E-001  0.1758893E+03  0.7546771E-02  0.1172414E+00
         21   -1    0    0  502  503  0.00000000000E+00  0.00000000000E+00  0.24084545647E+03  0.24084545647E+03  0.00000000000E+00 0. -1.
         21   -1    0    0  503  504 -0.00000000000E+00 -0.00000000000E+00 -0.13743157445E+03  0.13743157445E+03  0.00000000000E+00 0. -1.
         -6    2    1    2    0  504  0.29136899864E+02  0.91931323970E+01 -0.12248417790E+01  0.17361556186E+03  0.17090169825E+03 0.  0.
        -24    2    3    3    0    0  0.47705650955E+02 -0.51181009909E+02  0.21827933849E+02  0.10621114034E+03  0.76870167996E+02 0.  0.
          6    2    1    2  502    0 -0.29136899864E+02 -0.91931323970E+01  0.10463872380E+03  0.20466146906E+03  0.17321542016E+03 0.  0.
         24    2    5    5    0    0 -0.25994936737E+02  0.59986799437E+02  0.45679754429E+02  0.11359015102E+03  0.80882195817E+02 0.  0.
          4    1    6    6  501    0 -0.27766626430E+02  0.49756701794E+02  0.68153094745E+02  0.88834448498E+02  0.00000000000E+00 0. -1.
         -3    1    6    6    0  501  0.17716896925E+01  0.10230097643E+02 -0.22473340316E+02  0.24755702517E+02  0.00000000000E+00 0.  1.
          5    1    5    5  502    0 -0.31419631269E+01 -0.69179931834E+02  0.58958969375E+02  0.91071318046E+02  0.47000000000E+01 0. -1.
         11    1    4    4    0    0  0.26559282769E+01 -0.32548345691E+02 -0.23031680809E+02  0.39961319837E+02  0.00000000000E+00 0. -1.
        -12    1    4    4    0    0  0.45049722678E+02 -0.18632664217E+02  0.44859614658E+02  0.66249820502E+02  0.00000000000E+00 0.  1.
         -5    1    3    3    0  504 -0.18568751091E+02  0.60374142306E+02 -0.23052775628E+02  0.67404421519E+02  0.47000000000E+01 0.  1.
<mgrwt>
<rscale>  2 0.17531702E+03</rscale>
<asrwt>0</asrwt>
<pdfrwt beam="1">  1       21 0.37053147E-01 0.17588932E+03</pdfrwt>
<pdfrwt beam="2">  1       21 0.21143319E-01 0.17588932E+03</pdfrwt>
<totfact> 0.14692131E+05</totfact>
</mgrwt>
</event>
<event>
12    1  0.2742799E-001  0.1751082E+03  0.7546771E-02  0.1172712E+00
         21   -1    0    0  502  503  0.00000000000E+00  0.00000000000E+00  0.23341177843E+04  0.23341177843E+04  0.00000000000E+00 0.  1.
         21   -1    0    0  503  504 -0.00000000000E+00 -0.00000000000E+00 -0.16538660836E+02  0.16538660836E+02  0.00000000000E+00 0.  1.
         -6    2    1    2    0  504  0.17939963305E+02 -0.52815436304E+01  0.62275182530E+03  0.64680713897E+03  0.17375241616E+03 0.  0.
        -24    2    3    3    0    0 -0.33301765409E+01 -0.47841982006E+02  0.19071426384E+03  0.21213214052E+03  0.79549791277E+02 0.  0.
          6    2    1    2  502    0 -0.17939963305E+02  0.52815436304E+01  0.16948272982E+04  0.17038493062E+04  0.17410672168E+03 0.  0.
         24    2    5    5    0    0  0.16765049996E+02 -0.15818087376E+02  0.15832518627E+04  0.15850183331E+04  0.71171458591E+02 0.  0.
          2    1    6    6  501    0  0.33603789890E+02 -0.15859522364E+02  0.41892845311E+03  0.42057316602E+03  0.00000000000E+00 0. -1.
         -1    1    6    6    0  501 -0.16838739894E+02  0.41434987518E-01  0.11643234096E+04  0.11644451670E+04  0.00000000000E+00 0.  1.
          5    1    5    5  502    0 -0.34705013300E+02  0.21099631007E+02  0.11157543546E+03  0.11883097313E+03  0.47000000000E+01 0. -1.
         11    1    4    4    0    0 -0.15877047456E+02 -0.65676029675E+02  0.16570740850E+03  0.17895353235E+03  0.00000000000E+00 0. -1.
        -12    1    4    4    0    0  0.12546870915E+02  0.17834047669E+02  0.25006855339E+02  0.33178608168E+02  0.00000000000E+00 0.  1.
         -5    1    3    3    0  504  0.21270139845E+02  0.42560438375E+02  0.43203756147E+03  0.43467499845E+03  0.47000000000E+01 0.  1.
<mgrwt>
<rscale>  2 0.17502008E+03</rscale>
<asrwt>0</asrwt>
<pdfrwt beam="1">  1       21 0.35909478E+00 0.17510822E+03</pdfrwt>
<pdfrwt beam="2">  1       21 0.25444112E-02 0.17510822E+03</pdfrwt>
<totfact> 0.13106010E+04</totfact>
</mgrwt>
</event>
<event>
12    1  0.2742799E-001  0.2874673E+03  0.7546771E-02  0.1091706E+00
         21   -1    0    0  502  503  0.00000000000E+00  0.00000000000E+00  0.14010599871E+03  0.14010599871E+03  0.00000000000E+00 0. -1.
         21   -1    0    0  503  504 -0.00000000000E+00 -0.00000000000E+00 -0.63158083284E+03  0.63158083284E+03  0.00000000000E+00 0.  1.
         -6    2    1    2    0  504 -0.18511383276E+03  0.13655625632E+03 -0.34553935146E+03  0.44948294169E+03  0.17240281100E+03 0.  0.
        -24    2    3    3    0    0 -0.98670412613E+02  0.78867130392E+00 -0.15249330571E+03  0.19809843976E+03  0.79071557611E+02 0.  0.
          6    2    1    2  502    0  0.18511383276E+03 -0.13655625632E+03 -0.14593548267E+03  0.32220388986E+03  0.17205650037E+03 0.  0.
         24    2    5    5    0    0  0.15337465764E+03 -0.15700537587E+03 -0.14748117751E+03  0.28412474990E+03  0.10393123751E+03 0.  0.
          2    1    6    6  501    0  0.40356283839E+02 -0.89510599546E+02 -0.18667186812E+02  0.99946190222E+02  0.00000000000E+00 0. -1.
         -1    1    6    6    0  501  0.11301837380E+03 -0.67494776322E+02 -0.12881399070E+03  0.18417855968E+03  0.00000000000E+00 0.  1.
          5    1    5    5  502    0  0.31739175126E+02  0.20449119546E+02  0.15456948328E+01  0.38079139963E+02  0.47000000000E+01 0. -1.
         13    1    4    4    0    0 -0.74365011245E+01 -0.17375696377E+02  0.65493604082E+00  0.18911512758E+02  0.00000000000E+00 0. -1.
        -14    1    4    4    0    0 -0.91233911488E+02  0.18164367681E+02 -0.15314824175E+03  0.17918692701E+03  0.00000000000E+00 0.  1.
         -5    1    3    3    0  504 -0.86443420148E+02  0.13576758502E+03 -0.19304604575E+03  0.25138450192E+03  0.47000000000E+01 0.  1.
<mgrwt>
<rscale>  2 0.28741544E+03</rscale>
<asrwt>0</asrwt>
<pdfrwt beam="1">  1       21 0.21554769E-01 0.28746734E+03</pdfrwt>
<pdfrwt beam="2">  1       21 0.97166280E-01 0.28746734E+03</pdfrwt>
<totfact> 0.16748652E+04</totfact>
</mgrwt>
</event>
<event>
12    1  0.2742799E-001  0.2246191E+03  0.7546771E-02  0.1130591E+00
         21   -1    0    0  502  503  0.00000000000E+00  0.00000000000E+00  0.19954191551E+03  0.19954191551E+03  0.00000000000E+00 0. -1.
         21   -1    0    0  503  504 -0.00000000000E+00 -0.00000000000E+00 -0.49848852829E+03  0.49848852829E+03  0.00000000000E+00 0. -1.
         -6    2    1    2    0  504 -0.10490177968E+03  0.96721671840E+02 -0.39470165132E+03  0.45385274829E+03  0.17272364746E+03 0.  0.
        -24    2    3    3    0    0 -0.10842181557E+03  0.23115784221E+02 -0.32310494569E+03  0.35100142062E+03  0.80719029853E+02 0.  0.
          6    2    1    2  502    0  0.10490177968E+03 -0.96721671840E+02  0.95755038536E+02  0.24417769552E+03  0.17347695639E+03 0.  0.
         24    2    5    5    0    0 -0.10456130620E+02 -0.62946208225E+02  0.26488625285E+02  0.10536791411E+03  0.79556233296E+02 0.  0.
          4    1    6    6  501    0 -0.21001618223E+02 -0.71112931823E+02 -0.17153047828E+01  0.74169126400E+02  0.00000000000E+00 0. -1.
         -3    1    6    6    0  501  0.10545487603E+02  0.81667235976E+01  0.28203930068E+02  0.31198787707E+02  0.00000000000E+00 0.  1.
          5    1    5    5  502    0  0.11535791030E+03 -0.33775463615E+02  0.69266413252E+02  0.13880978141E+03  0.47000000000E+01 0. -1.
         13    1    4    4    0    0 -0.38199355998E+02  0.33688180030E+02 -0.21992346840E+03  0.22574413885E+03  0.00000000000E+00 0. -1.
        -14    1    4    4    0    0 -0.70222459575E+02 -0.10572395809E+02 -0.10318147728E+03  0.12525728177E+03  0.00000000000E+00 0.  1.
         -5    1    3    3    0  504  0.35200358981E+01  0.73605887619E+02 -0.71596705629E+02  0.10285132766E+03  0.47000000000E+01 0.  1.
<mgrwt>
<rscale>  2 0.22447359E+03</rscale>
<asrwt>0</asrwt>
<pdfrwt beam="1">  1       21 0.30698756E-01 0.22461905E+03</pdfrwt>
<pdfrwt beam="2">  1       21 0.76690542E-01 0.22461905E+03</pdfrwt>
<totfact> 0.15109728E+04</totfact>
</mgrwt>
</event>
<event>
12    1  0.2742799E-001  0.2123532E+03  0.7546771E-02  0.1139855E+00
         21   -1    0    0  502  503  0.00000000000E+00  0.00000000000E+00  0.35414370410E+03  0.35414370410E+03  0.00000000000E+00 0. -1.
         21   -1    0    0  503  504 -0.00000000000E+00 -0.00000000000E+00 -0.35993758933E+03  0.35993758933E+03  0.00000000000E+00 0.  1.
         -6    2    1    2    0  504 -0.10080978448E+03  0.70259252089E+02 -0.29017828835E+03  0.35916108196E+03  0.17232025017E+03 0.  0.
        -24    2    3    3    0    0 -0.11732013339E+03  0.38763159607E+02 -0.29159623304E+03  0.32326266932E+03  0.64836671848E+02 0.  0.
          6    2    1    2  502    0  0.10080978448E+03 -0.70259252089E+02  0.28438440312E+03  0.35492021147E+03  0.17319033640E+03 0.  0.
         24    2    5    5    0    0  0.57058445342E+01 -0.81701919783E+02  0.13245813789E+03  0.17525559586E+03  0.80384110550E+02 0.  0.
          2    1    6    6  501    0  0.26602517190E+02 -0.38165503003E+02  0.16024547498E+02  0.49204528885E+02  0.00000000000E+00 0. -1.
         -1    1    6    6    0  501 -0.20896672655E+02 -0.43536416780E+02  0.11643359039E+03  0.12605106697E+03  0.00000000000E+00 0.  1.
          5    1    5    5  502    0  0.95103939942E+02  0.11442667694E+02  0.15192626524E+03  0.17966461562E+03  0.47000000000E+01 0. -1.
         13    1    4    4    0    0 -0.11174634299E+03  0.14737570459E+02 -0.21440604424E+03  0.24222797725E+03  0.00000000000E+00 0. -1.
        -14    1    4    4    0    0 -0.55737903949E+01  0.24025589148E+02 -0.77190188795E+02  0.81034692074E+02  0.00000000000E+00 0.  1.
         -5    1    3    3    0  504  0.16510348912E+02  0.31496092482E+02  0.14179446874E+01  0.35898412639E+02  0.47000000000E+01 0.  1.
<mgrwt>
<rscale>  2 0.21217569E+03</rscale>
<asrwt>0</asrwt>
<pdfrwt beam="1">  1       21 0.54483647E-01 0.21235317E+03</pdfrwt>
<pdfrwt beam="2">  1       21 0.55375014E-01 0.21235317E+03</pdfrwt>
<totfact> 0.96530774E+03</totfact>
</mgrwt>
</event>
<event>
12    1  0.2742799E-001  0.1908738E+03  0.7546771E-02  0.1158193E+00
         21   -1    0    0  502  503  0.00000000000E+00  0.00000000000E+00  0.15928145290E+02  0.15928145290E+02  0.00000000000E+00 0.  1.
         21   -1    0    0  503  504 -0.00000000000E+00 -0.00000000000E+00 -0.22852339559E+04  0.22852339559E+04  0.00000000000E+00 0.  1.
         -6    2    1    2    0  504  0.34606374217E+01  0.76970432736E+02 -0.12625634863E+04  0.12769100796E+04  0.17463210175E+03 0.  0.
        -24    2    3    3    0    0  0.93264581787E+01 -0.92989294483E+01 -0.31194992677E+03  0.32236042650E+03  0.80187498085E+02 0.  0.
          6    2    1    2  502    0 -0.34606374217E+01 -0.76970432736E+02 -0.10067423243E+04  0.10242520215E+04  0.17212109869E+03 0.  0.
         24    2    5    5    0    0 -0.58303559432E+02 -0.58146442301E+01 -0.53675251469E+03  0.54572991814E+03  0.79276518539E+02 0.  0.
          2    1    6    6  501    0  0.17394818212E+02  0.20059637895E+01 -0.18568683974E+03  0.18651060572E+03  0.00000000000E+00 0. -1.
         -1    1    6    6    0  501 -0.75698377644E+02 -0.78206080195E+01 -0.35106567495E+03  0.35921931242E+03  0.00000000000E+00 0.  1.
          5    1    5    5  502    0  0.54842922011E+02 -0.71155788506E+02 -0.46998980958E+03  0.47852210340E+03  0.47000000000E+01 0. -1.
         11    1    4    4    0    0  0.12743277025E+02  0.27816793012E+02 -0.56930933312E+02  0.64632006394E+02  0.00000000000E+00 0. -1.
        -12    1    4    4    0    0 -0.34168188460E+01 -0.37115722460E+02 -0.25501899346E+03  0.25772842010E+03  0.00000000000E+00 0.  1.
         -5    1    3    3    0  504 -0.58658207570E+01  0.86269362185E+02 -0.95061355956E+03  0.95454965315E+03  0.47000000000E+01 0.  1.
<mgrwt>
<rscale>  2 0.19029751E+03</rscale>
<asrwt>0</asrwt>
<pdfrwt beam="1">  1       21 0.24504837E-02 0.19087377E+03</pdfrwt>
<pdfrwt beam="2">  1       21 0.35157448E+00 0.19087377E+03</pdfrwt>
<totfact> 0.15146401E+04</totfact>
</mgrwt>
</event>
<event>
12    1  0.2742799E-001  0.1801416E+03  0.7546771E-02  0.1167789E+00
         21   -1    0    0  502  503  0.00000000000E+00  0.00000000000E+00  0.10128734804E+03  0.10128734804E+03  0.00000000000E+00 0.  1.
         21   -1    0    0  503  504 -0.00000000000E+00 -0.00000000000E+00 -0.37113722423E+03  0.37113722423E+03  0.00000000000E+00 0. -1.
         -6    2    1    2    0  504 -0.35446267404E+02  0.36423668397E+02 -0.22321450877E+03  0.28683743364E+03  0.17282324763E+03 0.  0.
        -24    2    3    3    0    0  0.85832469863E+01  0.42572247331E+02 -0.22387479047E+03  0.24212804836E+03  0.81363392389E+02 0.  0.
          6    2    1    2  502    0  0.35446267404E+02 -0.36423668397E+02 -0.46635367420E+02  0.18558713864E+03  0.17229221410E+03 0.  0.
         24    2    5    5    0    0 -0.44039955038E+02 -0.40050708293E+02 -0.32990714563E+02  0.10472007780E+03  0.79588507792E+02 0.  0.
          4    1    6    6  501    0 -0.54137885967E+02 -0.56468122181E+02 -0.34266724549E+02  0.85403559240E+02  0.00000000000E+00 0. -1.
         -3    1    6    6    0  501  0.10097930929E+02  0.16417413888E+02  0.12760099858E+01  0.19316518560E+02  0.00000000000E+00 0.  1.
          5    1    5    5  502    0  0.79486222442E+02  0.36270398959E+01 -0.13644652856E+02  0.80867060835E+02  0.47000000000E+01 0. -1.
         11    1    4    4    0    0 -0.22144707372E+02  0.22400263307E+02 -0.18849938272E+03  0.19111299575E+03  0.00000000000E+00 0. -1.
        -12    1    4    4    0    0  0.30727954358E+02  0.20171984024E+02 -0.35375407755E+02  0.51015052605E+02  0.00000000000E+00 0.  1.
         -5    1    3    3    0  504 -0.44029514390E+02 -0.61485789340E+01  0.66028170547E+00  0.44709385282E+02  0.47000000000E+01 0.  1.
<mgrwt>
<rscale>  2 0.18001412E+03</rscale>
<asrwt>0</asrwt>
<pdfrwt beam="1">  1       21 0.15582669E-01 0.18014160E+03</pdfrwt>
<pdfrwt beam="2">  1       21 0.57098034E-01 0.18014160E+03</pdfrwt>
<totfact> 0.10592297E+05</totfact>
</mgrwt>
</event>
<event>
12    1  0.2742799E-001  0.1943786E+03  0.7546771E-02  0.1154822E+00
         21   -1    0    0  502  503  0.00000000000E+00  0.00000000000E+00  0.18043977490E+03  0.18043977490E+03  0.00000000000E+00 0. -1.
         21   -1    0    0  503  504 -0.00000000000E+00 -0.00000000000E+00 -0.21961927148E+03  0.21961927148E+03  0.00000000000E+00 0.  1.
         -6    2    1    2    0  504  0.72537106754E+02  0.47614541995E+02  0.26042327396E+02  0.19611538585E+03  0.17393753271E+03 0.  0.
        -24    2    3    3    0    0  0.29147623052E+02  0.95560435213E+02  0.31591396226E+02  0.13104359367E+03  0.78695783997E+02 0.  0.
          6    2    1    2  502    0 -0.72537106754E+02 -0.47614541995E+02 -0.65221823970E+02  0.20394366053E+03  0.17265675163E+03 0.  0.
         24    2    5    5    0    0 -0.70360290595E+02  0.27823881751E+02 -0.12552255337E+02  0.11179232975E+03  0.81334045687E+02 0.  0.
          2    1    6    6  501    0 -0.23287207810E+02 -0.89546805982E+01  0.29576247688E+02  0.38694118151E+02  0.00000000000E+00 0. -1.
         -1    1    6    6    0  501 -0.47073082785E+02  0.36778562350E+02 -0.42128503024E+02  0.73098211596E+02  0.00000000000E+00 0.  1.
          5    1    5    5  502    0 -0.21768161593E+01 -0.75438423746E+02 -0.52669568633E+02  0.92151330788E+02  0.47000000000E+01 0. -1.
         13    1    4    4    0    0  0.46525275333E+02  0.36277948918E+02  0.35993062942E+02  0.69109994953E+02  0.00000000000E+00 0. -1.
        -14    1    4    4    0    0 -0.17377652282E+02  0.59282486295E+02 -0.44016667159E+01  0.61933598717E+02  0.00000000000E+00 0.  1.
         -5    1    3    3    0  504  0.43389483702E+02 -0.47945893218E+02 -0.55490688300E+01  0.65071792178E+02  0.47000000000E+01 0.  1.
<mgrwt>
<rscale>  2 0.19409166E+03</rscale>
<asrwt>0</asrwt>
<pdfrwt beam="1">  1       21 0.27759965E-01 0.19437860E+03</pdfrwt>
<pdfrwt beam="2">  1       21 0.33787580E-01 0.19437860E+03</pdfrwt>
<totfact> 0.10447083E+05</totfact>
</mgrwt>
</event>
<event>
12    1  0.2742799E-001  0.2390925E+03  0.7546771E-02  0.1120787E+00
         21   -1    0    0  502  503  0.00000000000E+00  0.00000000000E+00  0.63618376446E+02  0.63618376446E+02  0.00000000000E+00 0.  1.
         21   -1    0    0  503  504 -0.00000000000E+00 -0.00000000000E+00 -0.91767132194E+03  0.91767132194E+03  0.00000000000E+00 0.  1.
         -6    2    1    2    0  504  0.15653122859E+03  0.52498026891E+02 -0.51036182385E+03  0.56261465384E+03  0.16972916405E+03 0.  0.
        -24    2    3    3    0    0  0.67539233600E+02  0.87983077884E+02 -0.35477325099E+03  0.37983429927E+03  0.78150273264E+02 0.  0.
          6    2    1    2  502    0 -0.15653122859E+03 -0.52498026891E+02 -0.34369112165E+03  0.41867504454E+03  0.17293680196E+03 0.  0.
         24    2    5    5    0    0 -0.13235719275E+03 -0.49729966409E+02 -0.14351476751E+03  0.21697053561E+03  0.80549542504E+02 0.  0.
          4    1    6    6  501    0 -0.73139412370E+02 -0.47631399617E+02 -0.12935446163E+03  0.15604711024E+03  0.00000000000E+00 0. -1.
         -3    1    6    6    0  501 -0.59217780379E+02 -0.20985667915E+01 -0.14160305877E+02  0.60923425365E+02  0.00000000000E+00 0.  1.
          5    1    5    5  502    0 -0.24174035841E+02 -0.27680604826E+01 -0.20017635414E+03  0.20170450894E+03  0.47000000000E+01 0. -1.
         13    1    4    4    0    0  0.13955515983E+02  0.52947821357E+02 -0.75190920790E+02  0.93015605046E+02  0.00000000000E+00 0. -1.
        -14    1    4    4    0    0  0.53583717617E+02  0.35035256527E+02 -0.27958233020E+03  0.28681869422E+03  0.00000000000E+00 0.  1.
         -5    1    3    3    0  504  0.88991994991E+02 -0.35485050993E+02 -0.15558857286E+03  0.18278035458E+03  0.47000000000E+01 0.  1.
<mgrwt>
<rscale>  2 0.23851292E+03</rscale>
<asrwt>0</asrwt>
<pdfrwt beam="1">  1       21 0.97874433E-02 0.23909246E+03</pdfrwt>
<pdfrwt beam="2">  1       21 0.14118019E+00 0.23909246E+03</pdfrwt>
<totfact> 0.28729742E+04</totfact>
</mgrwt>
</event>
<event>
12    1  0.2742799E-001  0.1925598E+03  0.7546771E-02  0.1156422E+00
         21   -1    0    0  502  503  0.00000000000E+00  0.00000000000E+00  0.29409241859E+03  0.29409241859E+03  0.00000000000E+00 0. -1.
         21   -1    0    0  503  504 -0.00000000000E+00 -0.00000000000E+00 -0.12617453632E+03  0.12617453632E+03  0.00000000000E+00 0. -1.
         -6    2    1    2    0  504  0.82031945202E+02 -0.14188165943E+02  0.10073353045E+03  0.21632330583E+03  0.17238904955E+03 0.  0.
        -24    2    3    3    0    0  0.97325474133E+02 -0.34419564119E+02  0.21454015738E+02  0.13295344946E+03  0.80990064956E+02 0.  0.
          6    2    1    2  502    0 -0.82031945202E+02  0.14188165943E+02  0.67184351810E+02  0.20394364908E+03  0.17363389872E+03 0.  0.
         24    2    5    5    0    0 -0.10678054187E+03 -0.10356865109E+02  0.80731089522E+01  0.13516007096E+03  0.81815163120E+02 0.  0.
          4    1    6    6  501    0 -0.57546013336E+02  0.22122687865E+02 -0.26149256654E+02  0.66968205835E+02  0.00000000000E+00 0. -1.
         -3    1    6    6    0  501 -0.49234528535E+02 -0.32479552974E+02  0.34222365606E+02  0.68191865124E+02  0.00000000000E+00 0.  1.
          5    1    5    5  502    0  0.24748596668E+02  0.24545031051E+02  0.59111242858E+02  0.68783578117E+02  0.47000000000E+01 0. -1.
         11    1    4    4    0    0  0.81778537289E+02 -0.34179108647E+02  0.49033567177E+02  0.10129280004E+03  0.00000000000E+00 0. -1.
        -12    1    4    4    0    0  0.15546936843E+02 -0.24045547242E+00 -0.27579551439E+02  0.31660649419E+02  0.00000000000E+00 0.  1.
         -5    1    3    3    0  504 -0.15293528931E+02  0.20231398177E+02  0.79279514715E+02  0.83369856379E+02  0.47000000000E+01 0.  1.
<mgrwt>
<rscale>  2 0.19227875E+03</rscale>
<asrwt>0</asrwt>
<pdfrwt beam="1">  1       21 0.45244987E-01 0.19255980E+03</pdfrwt>
<pdfrwt beam="2">  1       21 0.19411467E-01 0.19255980E+03</pdfrwt>
<totfact> 0.11437782E+05</totfact>
</mgrwt>
</event>
<event>
12    1  0.2742799E-001  0.1740054E+03  0.7546771E-02  0.1173775E+00
         21   -1    0    0  502  503  0.00000000000E+00  0.00000000000E+00  0.15262804844E+02  0.15262804844E+02  0.00000000000E+00 0.  1.
         21   -1    0    0  503  504 -0.00000000000E+00 -0.00000000000E+00 -0.19952014359E+04  0.19952014359E+04  0.00000000000E+00 0.  1.
         -6    2    1    2    0  504  0.12484416732E+02 -0.14196205692E+02 -0.90753192517E+03  0.92403246224E+03  0.17281320308E+03 0.  0.
        -24    2    3    3    0    0  0.31293467017E+02  0.45368369928E+02 -0.70557255156E+03  0.71258176437E+03  0.83081738855E+02 0.  0.
          6    2    1    2  502    0 -0.12484416732E+02  0.14196205692E+02 -0.10724067059E+04  0.10864317785E+04  0.17297535545E+03 0.  0.
         24    2    5    5    0    0  0.38763299882E+02  0.35440522425E+02 -0.39995353721E+03  0.41167774664E+03  0.82201649038E+02 0.  0.
          2    1    6    6  501    0  0.33183655017E+02 -0.13897029704E+02 -0.77738226119E+02  0.85659291352E+02  0.00000000000E+00 0. -1.
         -1    1    6    6    0  501  0.55796448652E+01  0.49337552128E+02 -0.32221531109E+03  0.32601845529E+03  0.00000000000E+00 0.  1.
          5    1    5    5  502    0 -0.51247716614E+02 -0.21244316733E+02 -0.67245316870E+03  0.67475403189E+03  0.47000000000E+01 0. -1.
         11    1    4    4    0    0  0.20261332012E+02  0.13363370016E+02 -0.44881754317E+02  0.51024240354E+02  0.00000000000E+00 0. -1.
        -12    1    4    4    0    0  0.11032135005E+02  0.32004999912E+02 -0.66069079724E+03  0.66155752402E+03  0.00000000000E+00 0.  1.
         -5    1    3    3    0  504 -0.18809050286E+02 -0.59564575620E+02 -0.20195937361E+03  0.21145069787E+03  0.47000000000E+01 0.  1.
<mgrwt>
<rscale>  2 0.17396505E+03</rscale>
<asrwt>0</asrwt>
<pdfrwt beam="1">  1       21 0.23481234E-02 0.17400536E+03</pdfrwt>
<pdfrwt beam="2">  1       21 0.30695412E+00 0.17400536E+03</pdfrwt>
<totfact> 0.30044203E+04</totfact>
</mgrwt>
</event>
<event>
12    1  0.2742799E-001  0.3595922E+03  0.7546771E-02  0.1058896E+00
         21   -1    0    0  502  503  0.00000000000E+00  0.00000000000E+00  0.57609223085E+02  0.57609223085E+02  0.00000000000E+00 0.  1.
         21   -1    0    0  503  504 -0.00000000000E+00 -0.00000000000E+00 -0.34378123620E+04  0.34378123620E+04  0.00000000000E+00 0. -1.
         -6    2    1    2    0  504  0.25886897083E+02  0.31402651451E+03 -0.27261383094E+04  0.27497520992E+04  0.17327360340E+03 0.  0.
        -24    2    3    3    0    0  0.39599896464E+01  0.95454712044E+02 -0.14004164400E+04  0.14059459423E+04  0.79940626766E+02 0.  0.
          6    2    1    2  502    0 -0.25886897083E+02 -0.31402651451E+03 -0.65406482947E+03  0.74566948587E+03  0.17011583629E+03 0.  0.
         24    2    5    5    0    0  0.32777486520E+02 -0.24844063462E+03 -0.42028126678E+03  0.49582981383E+03  0.80085882151E+02 0.  0.
          4    1    6    6  501    0  0.50054894249E+02 -0.84438911465E+02 -0.15472460463E+03  0.18323516443E+03  0.00000000000E+00 0. -1.
         -3    1    6    6    0  501 -0.17277407729E+02 -0.16400172316E+03 -0.26555666215E+03  0.31259464939E+03  0.00000000000E+00 0.  1.
          5    1    5    5  502    0 -0.58664383603E+02 -0.65585879891E+02 -0.23378356269E+03  0.24983967205E+03  0.47000000000E+01 0. -1.
         13    1    4    4    0    0  0.78501681208E+01  0.10596735501E+03 -0.10527604930E+04  0.10581093333E+04  0.00000000000E+00 0. -1.
        -14    1    4    4    0    0 -0.38901784744E+01 -0.10512642962E+02 -0.34765594694E+03  0.34783660904E+03  0.00000000000E+00 0.  1.
         -5    1    3    3    0  504  0.21926907436E+02  0.21857180247E+03 -0.13257218695E+04  0.13438061569E+04  0.47000000000E+01 0.  1.
<mgrwt>
<rscale>  2 0.35921384E+03</rscale>
<asrwt>0</asrwt>
<pdfrwt beam="1">  1       21 0.88629536E-02 0.35959216E+03</pdfrwt>
<pdfrwt beam="2">  1       21 0.52889444E+00 0.35959216E+03</pdfrwt>
<totfact> 0.95235638E+01</totfact>
</mgrwt>
</event>
<event>
12    1  0.2742799E-001  0.2361001E+03  0.7546771E-02  0.1124421E+00
         21   -1    0    0  502  503  0.00000000000E+00  0.00000000000E+00  0.36656359919E+03  0.36656359919E+03  0.00000000000E+00 0.  1.
         21   -1    0    0  503  504 -0.00000000000E+00 -0.00000000000E+00 -0.16646080103E+03  0.16646080103E+03  0.00000000000E+00 0.  1.
         -6    2    1    2    0  504 -0.14244371648E+03  0.18353548176E+02  0.19405337394E+03  0.29684676912E+03  0.17272587327E+03 0.  0.
        -24    2    3    3    0    0 -0.12462168766E+03 -0.36824946853E+02  0.88892981017E+02  0.17666736462E+03  0.80142085699E+02 0.  0.
          6    2    1    2  502    0  0.14244371648E+03 -0.18353548176E+02  0.60494242128E+01  0.23617763110E+03  0.18739320372E+03 0.  0.
         24    2    5    5    0    0  0.27552371196E+02  0.35518572533E+02 -0.41045331552E+02  0.10074413217E+03  0.80274272162E+02 0.  0.
          2    1    6    6  501    0  0.15772225478E+02  0.13752336347E+02 -0.63787623632E+02  0.67132337813E+02  0.00000000000E+00 0. -1.
         -1    1    6    6    0  501  0.11780145718E+02  0.21766236186E+02  0.22742292080E+02  0.33611794357E+02  0.00000000000E+00 0.  1.
          5    1    5    5  502    0  0.11489134529E+03 -0.53872120709E+02  0.47094755765E+02  0.13543349893E+03  0.47000000000E+01 0. -1.
         11    1    4    4    0    0  0.41597413731E+01 -0.11911100720E+01 -0.96925868954E+01  0.10614538719E+02  0.00000000000E+00 0. -1.
        -12    1    4    4    0    0 -0.12878142903E+03 -0.35633836781E+02  0.98585567912E+02  0.16605282590E+03  0.00000000000E+00 0.  1.
         -5    1    3    3    0  504 -0.17822028823E+02  0.55178495029E+02  0.10516039293E+03  0.12017940450E+03  0.47000000000E+01 0.  1.
<mgrwt>
<rscale>  2 0.23318037E+03</rscale>
<asrwt>0</asrwt>
<pdfrwt beam="1">  1       21 0.56394400E-01 0.23610014E+03</pdfrwt>
<pdfrwt beam="2">  1       21 0.25609354E-01 0.23610014E+03</pdfrwt>
<totfact> 0.41905308E+04</totfact>
</mgrwt>
</event>
<event>
12    1  0.2742799E-001  0.2109405E+03  0.7546771E-02  0.1140931E+00
         21   -1    0    0  502  503  0.00000000000E+00  0.00000000000E+00  0.81125836199E+03  0.81125836199E+03  0.00000000000E+00 0.  1.
         21   -1    0    0  503  504 -0.00000000000E+00 -0.00000000000E+00 -0.92366920561E+02  0.92366920561E+02  0.00000000000E+00 0. -1.
         -6    2    1    2    0  504  0.11292893847E+03  0.38776517218E+02  0.71222519991E+02  0.22263997852E+03  0.17389464985E+03 0.  0.
        -24    2    3    3    0    0  0.12173305314E+03 -0.14590467320E+02  0.82683971874E+02  0.16715121972E+03  0.77917091098E+02 0.  0.
          6    2    1    2  502    0 -0.11292893847E+03 -0.38776517218E+02  0.64766892144E+03  0.68098530403E+03  0.17323218259E+03 0.  0.
         24    2    5    5    0    0 -0.61865236983E+00  0.11841541214E+02  0.32579448057E+03  0.33631004544E+03  0.82594178157E+02 0.  0.
          2    1    6    6  501    0 -0.25426717218E+02 -0.26445295713E+02  0.17315259383E+03  0.17699630608E+03  0.00000000000E+00 0. -1.
         -1    1    6    6    0  501  0.24808064848E+02  0.38286836927E+02  0.15264188674E+03  0.15931373936E+03  0.00000000000E+00 0.  1.
          5    1    5    5  502    0 -0.11231028610E+03 -0.50618058431E+02  0.32187444087E+03  0.34467525860E+03  0.47000000000E+01 0. -1.
         11    1    4    4    0    0  0.11377428753E+03  0.12787113692E+02  0.53575076018E+02  0.12640564683E+03  0.00000000000E+00 0. -1.
        -12    1    4    4    0    0  0.79587656062E+01 -0.27377581012E+02  0.29108895856E+02  0.40745572888E+02  0.00000000000E+00 0.  1.
         -5    1    3    3    0  504 -0.88041146674E+01  0.53366984538E+02 -0.11461451884E+02  0.55488758798E+02  0.47000000000E+01 0.  1.
<mgrwt>
<rscale>  2 0.21080396E+03</rscale>
<asrwt>0</asrwt>
<pdfrwt beam="1">  1       21 0.12480897E+00 0.21094054E+03</pdfrwt>
<pdfrwt beam="2">  1       21 0.14210296E-01 0.21094054E+03</pdfrwt>
<totfact> 0.20486167E+04</totfact>
</mgrwt>
</event>
<event>
12    1  0.2742799E-001  0.2543852E+03  0.7546771E-02  0.1110825E+00
         21   -1    0    0  502  503  0.00000000000E+00  0.00000000000E+00  0.10848040649E+03  0.10848040649E+03  0.00000000000E+00 0.  1.
         21   -1    0    0  503  504 -0.00000000000E+00 -0.00000000000E+00 -0.81712130575E+03  0.81712130575E+03  0.00000000000E+00 0. -1.
         -6    2    1    2    0  504  0.88585330217E+02  0.16331571097E+03 -0.59776350741E+03  0.64964070188E+03  0.17375974380E+03 0.  0.
        -24    2    3    3    0    0  0.70580311145E+02  0.15127259884E+03 -0.59959342940E+03  0.62739984137E+03  0.79077815446E+02 0.  0.
          6    2    1    2  502    0 -0.88585330217E+02 -0.16331571097E+03 -0.11087739185E+03  0.27596101036E+03  0.17129302682E+03 0.  0.
         24    2    5    5    0    0 -0.25345583740E+02 -0.15974300176E+03 -0.11242845981E+03  0.21242735316E+03  0.79529847028E+02 0.  0.
          2    1    6    6  501    0 -0.18525980129E+02 -0.15103195052E+03 -0.12409442343E+03  0.19634991200E+03  0.00000000000E+00 0. -1.
         -1    1    6    6    0  501 -0.68196036112E+01 -0.87110512341E+01  0.11665963614E+02  0.16077441154E+02  0.00000000000E+00 0.  1.
          5    1    5    5  502    0 -0.63239746477E+02 -0.35727092099E+01  0.15510679615E+01  0.63533657201E+02  0.47000000000E+01 0. -1.
         11    1    4    4    0    0  0.71927563407E+02  0.11321267902E+03 -0.34824528375E+03  0.37318288107E+03  0.00000000000E+00 0. -1.
        -12    1    4    4    0    0 -0.13472522618E+01  0.38059919819E+02 -0.25134814565E+03  0.25421696030E+03  0.00000000000E+00 0.  1.
         -5    1    3    3    0  504  0.18005019072E+02  0.12043112125E+02  0.18299219878E+01  0.22240860503E+02  0.47000000000E+01 0.  1.
<mgrwt>
<rscale>  2 0.25396454E+03</rscale>
<asrwt>0</asrwt>
<pdfrwt beam="1">  1       21 0.16689293E-01 0.25438520E+03</pdfrwt>
<pdfrwt beam="2">  1       21 0.12571098E+00 0.25438520E+03</pdfrwt>
<totfact> 0.14615661E+04</totfact>
</mgrwt>
</event>
<event>
12    1  0.2742799E-001  0.1857542E+03  0.7546771E-02  0.1162421E+00
         21   -1    0    0  502  503  0.00000000000E+00  0.00000000000E+00  0.12150811498E+03  0.12150811498E+03  0.00000000000E+00 0. -1.
         21   -1    0    0  503  504 -0.00000000000E+00 -0.00000000000E+00 -0.34433466739E+03  0.34433466739E+03  0.00000000000E+00 0. -1.
         -6    2    1    2    0  504 -0.65115079949E+02 -0.19938111190E+02 -0.13578704830E+02  0.18624988859E+03  0.17282111520E+03 0.  0.
        -24    2    3    3    0    0 -0.96331546761E+02 -0.31432846099E+02 -0.48488553721E+02  0.13780007661E+03  0.79811844715E+02 0.  0.
          6    2    1    2  502    0  0.65115079949E+02  0.19938111190E+02 -0.20924784758E+03  0.27959289378E+03  0.17248194868E+03 0.  0.
         24    2    5    5    0    0  0.10607140119E+03 -0.33205231697E+01 -0.12426530652E+03  0.18231747753E+03  0.80843232151E+02 0.  0.
          2    1    6    6  501    0  0.61918821556E+02  0.37724496107E+02 -0.76531416428E+02  0.10542360158E+03  0.00000000000E+00 0. -1.
         -1    1    6    6    0  501  0.44152579631E+02 -0.41045019277E+02 -0.47733890096E+02  0.76893875954E+02  0.00000000000E+00 0.  1.
          5    1    5    5  502    0 -0.40956321239E+02  0.23258634359E+02 -0.84982541052E+02  0.97275416244E+02  0.47000000000E+01 0. -1.
         13    1    4    4    0    0 -0.30585114626E+02 -0.46534646276E+02 -0.42548200110E+02  0.70080467131E+02  0.00000000000E+00 0. -1.
        -14    1    4    4    0    0 -0.65746432135E+02  0.15101800177E+02 -0.59403536111E+01  0.67719609480E+02  0.00000000000E+00 0.  1.
         -5    1    3    3    0  504  0.31216466812E+02  0.11494734909E+02  0.34909848891E+02  0.48449811975E+02  0.47000000000E+01 0.  1.
<mgrwt>
<rscale>  2 0.18567532E+03</rscale>
<asrwt>0</asrwt>
<pdfrwt beam="1">  1       21 0.18693556E-01 0.18575425E+03</pdfrwt>
<pdfrwt beam="2">  1       21 0.52974563E-01 0.18575425E+03</pdfrwt>
<totfact> 0.88617023E+04</totfact>
</mgrwt>
</event>
<event>
12    1  0.2742799E-001  0.1962959E+03  0.7546771E-02  0.1153023E+00
         21   -1    0    0  502  503  0.00000000000E+00  0.00000000000E+00  0.20649257592E+02  0.20649257592E+02  0.00000000000E+00 0. -1.
         21   -1    0    0  503  504 -0.00000000000E+00 -0.00000000000E+00 -0.20110097926E+04  0.20110097926E+04  0.00000000000E+00 0. -1.
         -6    2    1    2    0  504  0.35698638801E+02 -0.85692589484E+02 -0.12741970536E+04  0.12892285313E+04  0.17295797715E+03 0.  0.
        -24    2    3    3    0    0  0.85636199254E+02 -0.76103134564E+02 -0.10517540369E+04  0.10609990344E+04  0.80044682088E+02 0.  0.
          6    2    1    2  502    0 -0.35698638801E+02  0.85692589484E+02 -0.71616348133E+03  0.74243051880E+03  0.17232333140E+03 0.  0.
         24    2    5    5    0    0 -0.82847402474E+02  0.34797462295E+02 -0.36672985146E+03  0.38614513940E+03  0.80887138976E+02 0.  0.
          4    1    6    6  501    0 -0.72775081656E+02  0.35527812796E+02 -0.16150350859E+03  0.18067047706E+03  0.00000000000E+00 0. -1.
         -3    1    6    6    0  501 -0.10072320818E+02 -0.73035050144E+00 -0.20522634287E+03  0.20547466235E+03  0.00000000000E+00 0.  1.
          5    1    5    5  502    0  0.47148763673E+02  0.50895127189E+02 -0.34943362987E+03  0.35628537940E+03  0.47000000000E+01 0. -1.
         11    1    4    4    0    0  0.62616610921E+02 -0.25083807307E+02 -0.81205396321E+03  0.81485070812E+03  0.00000000000E+00 0. -1.
        -12    1    4    4    0    0  0.23019588333E+02 -0.51019327257E+02 -0.23970007366E+03  0.24614832624E+03  0.00000000000E+00 0.  1.
         -5    1    3    3    0  504 -0.49937560453E+02 -0.95894549199E+01 -0.22244301677E+03  0.22822949699E+03  0.47000000000E+01 0.  1.
<mgrwt>
<rscale>  2 0.19615600E+03</rscale>
<asrwt>0</asrwt>
<pdfrwt beam="1">  1       21 0.31768073E-02 0.19629589E+03</pdfrwt>
<pdfrwt beam="2">  1       21 0.30938627E+00 0.19629589E+03</pdfrwt>
<totfact> 0.17278742E+04</totfact>
</mgrwt>
</event>
<event>
12    1  0.2742799E-001  0.2288299E+03  0.7546771E-02  0.1127733E+00
         21   -1    0    0  502  503  0.00000000000E+00  0.00000000000E+00  0.72415374360E+03  0.72415374360E+03  0.00000000000E+00 0.  1.
         21   -1    0    0  503  504 -0.00000000000E+00 -0.00000000000E+00 -0.25199966228E+03  0.25199966228E+03  0.00000000000E+00 0.  1.
         -6    2    1    2    0  504  0.14402572142E+03 -0.31405355222E+02 -0.17683280083E+03  0.28800582785E+03  0.17305436330E+03 0.  0.
        -24    2    3    3    0    0  0.13084387367E+03 -0.12052708153E+02 -0.54576831267E+02  0.16343898574E+03  0.80425645774E+02 0.  0.
          6    2    1    2  502    0 -0.14402572142E+03  0.31405355222E+02  0.64898688214E+03  0.68814757803E+03  0.17502403033E+03 0.  0.
         24    2    5    5    0    0 -0.40238138961E+02  0.44053234395E+02  0.47218572518E+03  0.48269059902E+03  0.80442899216E+02 0.  0.
          2    1    6    6  501    0  0.15574144221E+02  0.27994826695E+02  0.28257187758E+03  0.28438201471E+03  0.00000000000E+00 0. -1.
         -1    1    6    6    0  501 -0.55812283181E+02  0.16058407700E+02  0.18961384759E+03  0.19830858431E+03  0.00000000000E+00 0.  1.
          5    1    5    5  502    0 -0.10378758246E+03 -0.12647879173E+02  0.17680115696E+03  0.20545697901E+03  0.47000000000E+01 0. -1.
         13    1    4    4    0    0  0.66648117573E+02  0.32705256467E+02 -0.14992142622E+02  0.75738825691E+02  0.00000000000E+00 0. -1.
        -14    1    4    4    0    0  0.64195756098E+02 -0.44757964620E+02 -0.39584688645E+02  0.87700160051E+02  0.00000000000E+00 0.  1.
         -5    1    3    3    0  504  0.13181847752E+02 -0.19352647069E+02 -0.12225596956E+03  0.12456684210E+03  0.47000000000E+01 0.  1.
<mgrwt>
<rscale>  2 0.22845321E+03</rscale>
<asrwt>0</asrwt>
<pdfrwt beam="1">  1       21 0.11140827E+00 0.22882988E+03</pdfrwt>
<pdfrwt beam="2">  1       21 0.38769179E-01 0.22882988E+03</pdfrwt>
<totfact> 0.39488792E+03</totfact>
</mgrwt>
</event>
<event>
12    1  0.2742799E-001  0.1851305E+03  0.7546771E-02  0.1163035E+00
         21   -1    0    0  502  503  0.00000000000E+00  0.00000000000E+00  0.68628682990E+02  0.68628682990E+02  0.00000000000E+00 0.  1.
         21   -1    0    0  503  504 -0.00000000000E+00 -0.00000000000E+00 -0.62475429270E+03  0.62475429270E+03  0.00000000000E+00 0.  1.
         -6    2    1    2    0  504 -0.58269355895E+02  0.36387350798E+02 -0.43384323207E+03  0.47151303995E+03  0.17142123466E+03 0.  0.
        -24    2    3    3    0    0 -0.99560266627E+02  0.16493833793E+02 -0.24667868195E+03  0.27876099677E+03  0.81688603533E+02 0.  0.
          6    2    1    2  502    0  0.58269355895E+02 -0.36387350798E+02 -0.12228237764E+03  0.22186993574E+03  0.17191256897E+03 0.  0.
         24    2    5    5    0    0  0.10656795606E+03 -0.27598602641E+02 -0.89572636122E+02  0.16269211842E+03  0.79542794321E+02 0.  0.
          4    1    6    6  501    0  0.73918856821E+02 -0.75055206441E+01 -0.10791676544E+02  0.75078562296E+02  0.00000000000E+00 0. -1.
         -3    1    6    6    0  501  0.32649099243E+02 -0.20093081997E+02 -0.78780959578E+02  0.87613556128E+02  0.00000000000E+00 0.  1.
          5    1    5    5  502    0 -0.48298600168E+02 -0.87887481567E+01 -0.32709741517E+02  0.59177817318E+02  0.47000000000E+01 0. -1.
         11    1    4    4    0    0 -0.87678452446E+02  0.22849869987E+02 -0.11505282608E+03  0.14644719311E+03  0.00000000000E+00 0. -1.
        -12    1    4    4    0    0 -0.11881814181E+02 -0.63560361943E+01 -0.13162585587E+03  0.13231380366E+03  0.00000000000E+00 0.  1.
         -5    1    3    3    0  504  0.41290910732E+02  0.19893517005E+02 -0.18716455012E+03  0.19275204318E+03  0.47000000000E+01 0.  1.
<mgrwt>
<rscale>  2 0.18501632E+03</rscale>
<asrwt>0</asrwt>
<pdfrwt beam="1">  1       21 0.10558259E-01 0.18513046E+03</pdfrwt>
<pdfrwt beam="2">  1       21 0.96116043E-01 0.18513046E+03</pdfrwt>
<totfact> 0.66662577E+04</totfact>
</mgrwt>
</event>
<event>
12    1  0.2742799E-001  0.2043806E+03  0.7546771E-02  0.1146116E+00
         21   -1    0    0  502  503  0.00000000000E+00  0.00000000000E+00  0.22681509882E+03  0.22681509882E+03  0.00000000000E+00 0.  1.
         21   -1    0    0  503  504 -0.00000000000E+00 -0.00000000000E+00 -0.15568741823E+04  0.15568741823E+04  0.00000000000E+00 0.  1.
         -6    2    1    2    0  504  0.10566439793E+03 -0.28500239451E+02 -0.15025149848E+04  0.15163517749E+04  0.17260995627E+03 0.  0.
        -24    2    3    3    0    0  0.29341620876E+02 -0.74604528459E+02 -0.93280066969E+03  0.93968266473E+03  0.80371976700E+02 0.  0.
          6    2    1    2  502    0 -0.10566439793E+03  0.28500239451E+02  0.17245590133E+03  0.26733750623E+03  0.17248500136E+03 0.  0.
         24    2    5    5    0    0 -0.46392744931E+02 -0.16410680858E+02  0.16873038064E+03  0.19273127917E+03  0.79081017891E+02 0.  0.
          4    1    6    6  501    0  0.19631262837E+00 -0.45531951812E+01 -0.82025043468E+01  0.93835602287E+01  0.00000000000E+00 0. -1.
         -3    1    6    6    0  501 -0.46589057559E+02 -0.11857485677E+02  0.17693288499E+03  0.18334771894E+03  0.00000000000E+00 0.  1.
          5    1    5    5  502    0 -0.59271652997E+02  0.44910920309E+02  0.37255206947E+01  0.74606227062E+02  0.47000000000E+01 0. -1.
         11    1    4    4    0    0  0.41735469470E+02 -0.55237450256E+02 -0.37054604349E+03  0.37695808211E+03  0.00000000000E+00 0. -1.
        -12    1    4    4    0    0 -0.12393848594E+02 -0.19367078203E+02 -0.56225462620E+03  0.56272458262E+03  0.00000000000E+00 0.  1.
         -5    1    3    3    0  504  0.76322777052E+02  0.46104289009E+02 -0.56971431511E+03  0.57666911015E+03  0.47000000000E+01 0.  1.
<mgrwt>
<rscale>  2 0.20435421E+03</rscale>
<asrwt>0</asrwt>
<pdfrwt beam="1">  1       21 0.34894632E-01 0.20438059E+03</pdfrwt>
<pdfrwt beam="2">  1       21 0.23951910E+00 0.20438059E+03</pdfrwt>
<totfact> 0.59831234E+02</totfact>
</mgrwt>
</event>
<event>
12    1  0.2742799E-001  0.2497440E+03  0.7546771E-02  0.1113556E+00
         21   -1    0    0  502  503  0.00000000000E+00  0.00000000000E+00  0.88763607601E+02  0.88763607601E+02  0.00000000000E+00 0. -1.
         21   -1    0    0  503  504 -0.00000000000E+00 -0.00000000000E+00 -0.90622036610E+03  0.90622036610E+03  0.00000000000E+00 0.  1.
         -6    2    1    2    0  504 -0.72480935254E+02  0.16467498015E+03 -0.64577846729E+03  0.69238855331E+03  0.17320723102E+03 0.  0.
        -24    2    3    3    0    0 -0.41603303345E+02  0.17694859413E+03 -0.61616714437E+03  0.64763377482E+03  0.82011686215E+02 0.  0.
          6    2    1    2  502    0  0.72480935254E+02 -0.16467498015E+03 -0.17167829121E+03  0.30259542039E+03  0.17239262660E+03 0.  0.
         24    2    5    5    0    0 -0.18371761276E+02 -0.12401563781E+03 -0.93193895413E+02  0.17575187515E+03  0.80537068744E+02 0.  0.
          2    1    6    6  501    0 -0.64165744835E+01 -0.10599553449E+03 -0.32087287702E+02  0.11093159961E+03  0.00000000000E+00 0. -1.
         -1    1    6    6    0  501 -0.11955186793E+02 -0.18020103321E+02 -0.61106607711E+02  0.64820275539E+02  0.00000000000E+00 0.  1.
          5    1    5    5  502    0  0.90852696531E+02 -0.40659342336E+02 -0.78484395795E+02  0.12684354524E+03  0.47000000000E+01 0. -1.
         13    1    4    4    0    0  0.19296177392E+02  0.38517490075E+02 -0.84120221078E+02  0.94510058184E+02  0.00000000000E+00 0. -1.
        -14    1    4    4    0    0 -0.60899480737E+02  0.13843110405E+03 -0.53204692329E+03  0.55312371664E+03  0.00000000000E+00 0.  1.
         -5    1    3    3    0  504 -0.30877631909E+02 -0.12273613982E+02 -0.29611322919E+02  0.44754778488E+02  0.47000000000E+01 0.  1.
<mgrwt>
<rscale>  2 0.24960284E+03</rscale>
<asrwt>0</asrwt>
<pdfrwt beam="1">  1       21 0.13655940E-01 0.24974403E+03</pdfrwt>
<pdfrwt beam="2">  1       21 0.13941852E+00 0.24974403E+03</pdfrwt>
<totfact> 0.16237502E+04</totfact>
</mgrwt>
</event>
<event>
12    1  0.2742799E-001  0.1912652E+03  0.7546771E-02  0.1157489E+00
         21   -1    0    0  502  503  0.00000000000E+00  0.00000000000E+00  0.15285384389E+04  0.15285384389E+04  0.00000000000E+00 0.  1.
         21   -1    0    0  503  504 -0.00000000000E+00 -0.00000000000E+00 -0.23943929063E+02  0.23943929063E+02  0.00000000000E+00 0. -1.
         -6    2    1    2    0  504 -0.73599930424E+02 -0.19699244285E+02  0.70003831216E+03  0.72550410239E+03  0.17463548928E+03 0.  0.
        -24    2    3    3    0    0  0.17107281442E+02 -0.49448087440E+02  0.32866549700E+03  0.34202965762E+03  0.78901871623E+02 0.  0.
          6    2    1    2  502    0  0.73599930424E+02  0.19699244285E+02  0.80455619772E+03  0.82697826561E+03  0.17543479278E+03 0.  0.
         24    2    5    5    0    0  0.10219994791E+03 -0.29896082862E+02  0.53568504047E+03  0.55203927842E+03  0.80313742385E+02 0.  0.
          2    1    6    6  501    0  0.72066808738E+01 -0.12842875971E+02  0.25115707199E+03  0.25158845467E+03  0.00000000000E+00 0. -1.
         -1    1    6    6    0  501  0.94993267032E+02 -0.17053206891E+02  0.28452796848E+03  0.30045082375E+03  0.00000000000E+00 0.  1.
          5    1    5    5  502    0 -0.28600017481E+02  0.49595327147E+02  0.26887115725E+03  0.27493898719E+03  0.47000000000E+01 0. -1.
         11    1    4    4    0    0  0.33681661826E+02 -0.37581814749E+02  0.95853805474E+02  0.10832727804E+03  0.00000000000E+00 0. -1.
        -12    1    4    4    0    0 -0.16574380384E+02 -0.11866272691E+02  0.23281169152E+03  0.23370237958E+03  0.00000000000E+00 0.  1.
         -5    1    3    3    0  504 -0.90707211866E+02  0.29748843155E+02  0.37137281516E+03  0.38347444478E+03  0.47000000000E+01 0.  1.
<mgrwt>
<rscale>  2 0.19108172E+03</rscale>
<asrwt>0</asrwt>
<pdfrwt beam="1">  1       21 0.23515968E+00 0.19126520E+03</pdfrwt>
<pdfrwt beam="2">  1       21 0.36836826E-02 0.19126520E+03</pdfrwt>
<totfact> 0.36662085E+04</totfact>
</mgrwt>
</event>
<event>
12    1  0.2742799E-001  0.1868257E+03  0.7546771E-02  0.1162364E+00
         21   -1    0    0  502  503  0.00000000000E+00  0.00000000000E+00  0.38203016617E+02  0.38203016617E+02  0.00000000000E+00 0.  1.
         21   -1    0    0  503  504 -0.00000000000E+00 -0.00000000000E+00 -0.11283042052E+04  0.11283042052E+04  0.00000000000E+00 0.  1.
         -6    2    1    2    0  504  0.45103066324E+02 -0.31086066800E+02 -0.80654801115E+03  0.82693948120E+03  0.17409359879E+03 0.  0.
        -24    2    3    3    0    0  0.23566445366E+02 -0.68327000473E+02 -0.30987865162E+03  0.32838832447E+03  0.81179779365E+02 0.  0.
          6    2    1    2  502    0 -0.45103066324E+02  0.31086066800E+02 -0.28355317748E+03  0.33956774066E+03  0.17861471355E+03 0.  0.
         24    2    5    5    0    0 -0.92657485912E+02  0.46116787539E+02 -0.16949037956E+03  0.21498942289E+03  0.82348621143E+02 0.  0.
          2    1    6    6  501    0 -0.41931787266E+02 -0.21631772089E+02 -0.69287509508E+02  0.83827008302E+02  0.00000000000E+00 0. -1.
         -1    1    6    6    0  501 -0.50725698646E+02  0.67748559628E+02 -0.10020287005E+03  0.13116241459E+03  0.00000000000E+00 0.  1.
          5    1    5    5  502    0  0.47554419587E+02 -0.15030720738E+02 -0.11406279792E+03  0.12457831777E+03  0.47000000000E+01 0. -1.
         13    1    4    4    0    0 -0.10342627703E+02  0.15000534050E+02 -0.41222738045E+02  0.45069946766E+02  0.00000000000E+00 0. -1.
        -14    1    4    4    0    0  0.33909073069E+02 -0.83327534523E+02 -0.26865591357E+03  0.28331837770E+03  0.00000000000E+00 0.  1.
         -5    1    3    3    0  504  0.21536620958E+02  0.37240933673E+02 -0.49666935953E+03  0.49855115674E+03  0.47000000000E+01 0.  1.
<mgrwt>
<rscale>  2 0.18573683E+03</rscale>
<asrwt>0</asrwt>
<pdfrwt beam="1">  1       21 0.58773877E-02 0.18682571E+03</pdfrwt>
<pdfrwt beam="2">  1       21 0.17358525E+00 0.18682571E+03</pdfrwt>
<totfact> 0.41294498E+04</totfact>
</mgrwt>
</event>
<event>
12    1  0.2742799E-001  0.1952971E+03  0.7546771E-02  0.1153896E+00
         21   -1    0    0  502  503  0.00000000000E+00  0.00000000000E+00  0.11094111759E+03  0.11094111759E+03  0.00000000000E+00 0. -1.
         21   -1    0    0  503  504 -0.00000000000E+00 -0.00000000000E+00 -0.34788575791E+03  0.34788575791E+03  0.00000000000E+00 0. -1.
         -6    2    1    2    0  504 -0.61785076202E+02 -0.68935304235E+02 -0.14613334686E+03  0.24344891057E+03  0.17129782597E+03 0.  0.
        -24    2    3    3    0    0 -0.87548678506E+02 -0.92237329200E+02 -0.83826229379E+02  0.17195755123E+03  0.79812697536E+02 0.  0.
          6    2    1    2  502    0  0.61785076202E+02  0.68935304235E+02 -0.90811293456E+02  0.21537796494E+03  0.17196367334E+03 0.  0.
         24    2    5    5    0    0 -0.17427071266E+02  0.80002544016E+02 -0.54940172446E+02  0.12759484910E+03  0.80980942863E+02 0.  0.
          2    1    6    6  501    0  0.87926029196E+01  0.87062145905E+02 -0.46873188946E+02  0.99268438880E+02  0.00000000000E+00 0. -1.
         -1    1    6    6    0  501 -0.26219674186E+02 -0.70596018892E+01 -0.80669834995E+01  0.28326410221E+02  0.00000000000E+00 0.  1.
          5    1    5    5  502    0  0.79212147469E+02 -0.11067239780E+02 -0.35871121010E+02  0.87783115834E+02  0.47000000000E+01 0. -1.
         13    1    4    4    0    0 -0.36131698579E+02 -0.55006720757E+02  0.12301175528E+01  0.65823644383E+02  0.00000000000E+00 0. -1.
        -14    1    4    4    0    0 -0.51416979927E+02 -0.37230608443E+02 -0.85056346932E+02  0.10613390685E+03  0.00000000000E+00 0.  1.
         -5    1    3    3    0  504  0.25763602304E+02  0.23302024965E+02 -0.62307117481E+02  0.71491359337E+02  0.47000000000E+01 0.  1.
<mgrwt>
<rscale>  2 0.19515048E+03</rscale>
<asrwt>0</asrwt>
<pdfrwt beam="1">  1       21 0.17067864E-01 0.19529715E+03</pdfrwt>
<pdfrwt beam="2">  1       21 0.53520885E-01 0.19529715E+03</pdfrwt>
<totfact> 0.10221617E+05</totfact>
</mgrwt>
</event>
<event>
12    1  0.2742799E-001  0.1939291E+03  0.7546771E-02  0.1157117E+00
         21   -1    0    0  502  503  0.00000000000E+00  0.00000000000E+00  0.10595754727E+03  0.10595754727E+03  0.00000000000E+00 0.  1.
         21   -1    0    0  503  504 -0.00000000000E+00 -0.00000000000E+00 -0.55572030812E+03  0.55572030812E+03  0.00000000000E+00 0.  1.
         -6    2    1    2    0  504  0.41516174548E+02  0.59144912437E+02 -0.43551378724E+03  0.47673969551E+03  0.17996323232E+03 0.  0.
        -24    2    3    3    0    0  0.26247711155E+02 -0.36702515862E+02 -0.15919424813E+03  0.18383282776E+03  0.80097958227E+02 0.  0.
          6    2    1    2  502    0 -0.41516174548E+02 -0.59144912437E+02 -0.14248973613E+02  0.18493815987E+03  0.16963895871E+03 0.  0.
         24    2    5    5    0    0 -0.62089363966E+02  0.41756456345E+01  0.27952893498E+02  0.10597084521E+03  0.81092112104E+02 0.  0.
          4    1    6    6  501    0  0.11915407403E+02 -0.16224695450E+02  0.20683746231E+02  0.28862346304E+02  0.00000000000E+00 0. -1.
         -3    1    6    6    0  501 -0.74004771368E+02  0.20400341084E+02  0.72691472676E+01  0.77108498906E+02  0.00000000000E+00 0.  1.
          5    1    5    5  502    0  0.20573189418E+02 -0.63320558071E+02 -0.42201867111E+02  0.78967314662E+02  0.47000000000E+01 0. -1.
         13    1    4    4    0    0  0.32342362696E+02 -0.59055594068E+02 -0.10306434071E+03  0.12310909772E+03  0.00000000000E+00 0. -1.
        -14    1    4    4    0    0 -0.60946515405E+01  0.22353078206E+02 -0.56129907418E+02  0.60723730035E+02  0.00000000000E+00 0.  1.
         -5    1    3    3    0  504  0.15268463393E+02  0.95847428298E+02 -0.27631953911E+03  0.29290686775E+03  0.47000000000E+01 0.  1.
<mgrwt>
<rscale>  2 0.19149859E+03</rscale>
<asrwt>0</asrwt>
<pdfrwt beam="1">  1       21 0.16301161E-01 0.19392906E+03</pdfrwt>
<pdfrwt beam="2">  1       21 0.85495430E-01 0.19392906E+03</pdfrwt>
<totfact> 0.39819554E+04</totfact>
</mgrwt>
</event>
<event>
12    1  0.2742799E-001  0.2290306E+03  0.7546771E-02  0.1127631E+00
         21   -1    0    0  502  503  0.00000000000E+00  0.00000000000E+00  0.17898246915E+04  0.17898246915E+04  0.00000000000E+00 0. -1.
         21   -1    0    0  503  504 -0.00000000000E+00 -0.00000000000E+00 -0.30427740491E+02  0.30427740491E+02  0.00000000000E+00 0.  1.
         -6    2    1    2    0  504  0.14714393113E+03  0.15437873561E+02  0.68545415512E+03  0.72215948359E+03  0.17256087784E+03 0.  0.
        -24    2    3    3    0    0  0.13581031908E+03 -0.25545000113E+02  0.35874536140E+03  0.39266172550E+03  0.79925005743E+02 0.  0.
          6    2    1    2  502    0 -0.14714393113E+03 -0.15437873561E+02  0.10739427959E+04  0.10980929484E+04  0.17482943137E+03 0.  0.
         24    2    5    5    0    0 -0.63189659881E+02  0.23471753420E+02  0.28638219496E+03  0.30510110174E+03  0.80796437844E+02 0.  0.
          2    1    6    6  501    0 -0.65670634407E+02 -0.14388729523E+02  0.17837389354E+03  0.19062243745E+03  0.00000000000E+00 0. -1.
         -1    1    6    6    0  501  0.24809745252E+01  0.37860482943E+02  0.10800830142E+03  0.11447866430E+03  0.00000000000E+00 0.  1.
          5    1    5    5  502    0 -0.83954271246E+02 -0.38909626981E+02  0.78756060093E+03  0.79299184666E+03  0.47000000000E+01 0. -1.
         11    1    4    4    0    0  0.75175020241E+02 -0.41203512467E+02  0.13173922386E+03  0.15717581306E+03  0.00000000000E+00 0. -1.
        -12    1    4    4    0    0  0.60635298842E+02  0.15658512354E+02  0.22700613754E+03  0.23548591244E+03  0.00000000000E+00 0.  1.
         -5    1    3    3    0  504  0.11333612045E+02  0.40982873674E+02  0.32670879372E+03  0.32949775810E+03  0.47000000000E+01 0.  1.
<mgrwt>
<rscale>  2 0.22859759E+03</rscale>
<asrwt>0</asrwt>
<pdfrwt beam="1">  1       21 0.27535756E+00 0.22903055E+03</pdfrwt>
<pdfrwt beam="2">  1       21 0.46811923E-02 0.22903055E+03</pdfrwt>
<totfact> 0.13766662E+04</totfact>
</mgrwt>
</event>
<event>
12    1  0.2742799E-001  0.2110448E+03  0.7546771E-02  0.1141098E+00
         21   -1    0    0  502  503  0.00000000000E+00  0.00000000000E+00  0.37949423288E+03  0.37949423288E+03  0.00000000000E+00 0.  1.
         21   -1    0    0  503  504 -0.00000000000E+00 -0.00000000000E+00 -0.16158840091E+03  0.16158840091E+03  0.00000000000E+00 0.  1.
         -6    2    1    2    0  504 -0.81347259079E+02  0.87989938447E+02  0.25173823414E+03  0.32734323396E+03  0.17152798158E+03 0.  0.
        -24    2    3    3    0    0 -0.41613510458E+02  0.38467144944E+02  0.24326404380E+03  0.26311567167E+03  0.82710677535E+02 0.  0.
          6    2    1    2  502    0  0.81347259079E+02 -0.87989938447E+02 -0.33832402170E+02  0.21373939983E+03  0.17372476443E+03 0.  0.
         24    2    5    5    0    0  0.88021922797E+02  0.35428743384E+01 -0.18598520492E+02  0.12058915505E+03  0.80221122531E+02 0.  0.
          4    1    6    6  501    0 -0.74897479387E+01  0.53240836512E+01  0.16443156928E+02  0.18836655772E+02  0.00000000000E+00 0. -1.
         -3    1    6    6    0  501  0.95511670736E+02 -0.17812093128E+01 -0.35041677420E+02  0.10175249928E+03  0.00000000000E+00 0.  1.
          5    1    5    5  502    0 -0.66746637183E+01 -0.91532812785E+02 -0.15233881678E+02  0.93150244783E+02  0.47000000000E+01 0. -1.
         13    1    4    4    0    0  0.23445344828E+02  0.37477589640E+01  0.36008393955E+02  0.43131593138E+02  0.00000000000E+00 0. -1.
        -14    1    4    4    0    0 -0.65058855286E+02  0.34719385980E+02  0.20725564985E+03  0.21998407853E+03  0.00000000000E+00 0.  1.
         -5    1    3    3    0  504 -0.39733748620E+02  0.49522793503E+02  0.84741903372E+01  0.64227562289E+02  0.47000000000E+01 0.  1.
<mgrwt>
<rscale>  2 0.21059218E+03</rscale>
<asrwt>0</asrwt>
<pdfrwt beam="1">  1       21 0.58383728E-01 0.21104478E+03</pdfrwt>
<pdfrwt beam="2">  1       21 0.24859754E-01 0.21104478E+03</pdfrwt>
<totfact> 0.41672123E+04</totfact>
</mgrwt>
</event>
<event>
12    1  0.2742799E-001  0.4760750E+03  0.7546771E-02  0.1020230E+00
         21   -1    0    0  502  503  0.00000000000E+00  0.00000000000E+00  0.93498927926E+03  0.93498927926E+03  0.00000000000E+00 0.  1.
         21   -1    0    0  503  504 -0.00000000000E+00 -0.00000000000E+00 -0.25086332258E+03  0.25086332258E+03  0.00000000000E+00 0. -1.
         -6    2    1    2    0  504 -0.11365803811E+03 -0.42840896717E+03  0.23274327067E+03  0.52992153506E+03  0.17376711567E+03 0.  0.
        -24    2    3    3    0    0 -0.12871046954E+03 -0.27069864310E+03  0.19811415161E+03  0.36768594124E+03  0.78099897413E+02 0.  0.
          6    2    1    2  502    0  0.11365803811E+03  0.42840896717E+03  0.45138268601E+03  0.65593106678E+03  0.17334025025E+03 0.  0.
         24    2    5    5    0    0  0.47058954500E+02  0.22277143228E+03  0.31704271236E+03  0.40138921911E+03  0.93571189578E+02 0.  0.
          2    1    6    6  501    0  0.80298339629E+01  0.28544088388E+02  0.11366948963E+03  0.11747338459E+03  0.00000000000E+00 0. -1.
         -1    1    6    6    0  501  0.39029120537E+02  0.19422734390E+03  0.20337322273E+03  0.28391583452E+03  0.00000000000E+00 0.  1.
          5    1    5    5  502    0  0.66599083613E+02  0.20563753489E+03  0.13433997365E+03  0.25454184767E+03  0.47000000000E+01 0. -1.
         11    1    4    4    0    0 -0.84790950067E+02 -0.23730385971E+03  0.17975028811E+03  0.30953641647E+03  0.00000000000E+00 0. -1.
        -12    1    4    4    0    0 -0.43919519478E+02 -0.33394783390E+02  0.18363863496E+02  0.58149524773E+02  0.00000000000E+00 0.  1.
         -5    1    3    3    0  504  0.15052431431E+02 -0.15771032408E+03  0.34629119068E+02  0.16223559381E+03  0.47000000000E+01 0.  1.
<mgrwt>
<rscale>  2 0.47603608E+03</rscale>
<asrwt>0</asrwt>
<pdfrwt beam="1">  1       21 0.14384450E+00 0.47607500E+03</pdfrwt>
<pdfrwt beam="2">  1       21 0.38594358E-01 0.47607500E+03</pdfrwt>
<totfact> 0.18295861E+03</totfact>
</mgrwt>
</event>
<event>
12    1  0.2742799E-001  0.1872417E+03  0.7546771E-02  0.1161149E+00
         21   -1    0    0  502  503  0.00000000000E+00  0.00000000000E+00  0.77801828960E+03  0.77801828960E+03  0.00000000000E+00 0.  1.
         21   -1    0    0  503  504 -0.00000000000E+00 -0.00000000000E+00 -0.97456557021E+02  0.97456557021E+02  0.00000000000E+00 0. -1.
         -6    2    1    2    0  504 -0.10945046560E+02 -0.71815865585E+02  0.18441793143E+02  0.18738891135E+03  0.17174746510E+03 0.  0.
        -24    2    3    3    0    0 -0.53498940355E+02 -0.77369796785E+00  0.36233827859E+02  0.10255690114E+03  0.79638511175E+02 0.  0.
          6    2    1    2  502    0  0.10945046560E+02  0.71815865585E+02  0.66211993944E+03  0.68808593528E+03  0.17257499102E+03 0.  0.
         24    2    5    5    0    0  0.11040053772E+02  0.11556039127E+03  0.46527448309E+03  0.48638363920E+03  0.81317974988E+02 0.  0.
          2    1    6    6  501    0  0.13555082932E+02  0.79060506605E+02  0.16057520064E+03  0.17949567972E+03  0.00000000000E+00 0. -1.
         -1    1    6    6    0  501 -0.25150291596E+01  0.36499884664E+02  0.30469928245E+03  0.30688795948E+03  0.00000000000E+00 0.  1.
          5    1    5    5  502    0 -0.95007212095E-01 -0.43744525684E+02  0.19684545635E+03  0.20170229607E+03  0.47000000000E+01 0. -1.
         13    1    4    4    0    0 -0.19546204750E+02  0.35271742418E+02 -0.14169652034E+01  0.40350436475E+02  0.00000000000E+00 0. -1.
        -14    1    4    4    0    0 -0.33952735605E+02 -0.36045440386E+02  0.37650793063E+02  0.62206464663E+02  0.00000000000E+00 0.  1.
         -5    1    3    3    0  504  0.42553893795E+02 -0.71042167617E+02 -0.17792034716E+02  0.84832010210E+02  0.47000000000E+01 0.  1.
<mgrwt>
<rscale>  2 0.18705076E+03</rscale>
<asrwt>0</asrwt>
<pdfrwt beam="1">  1       21 0.11969512E+00 0.18724166E+03</pdfrwt>
<pdfrwt beam="2">  1       21 0.14993317E-01 0.18724166E+03</pdfrwt>
<totfact> 0.20935291E+04</totfact>
</mgrwt>
</event>
<event>
12    1  0.2742799E-001  0.1962915E+03  0.7546771E-02  0.1153080E+00
         21   -1    0    0  502  503  0.00000000000E+00  0.00000000000E+00  0.58025142447E+02  0.58025142447E+02  0.00000000000E+00 0.  1.
         21   -1    0    0  503  504 -0.00000000000E+00 -0.00000000000E+00 -0.71875848442E+03  0.71875848442E+03  0.00000000000E+00 0.  1.
         -6    2    1    2    0  504  0.87756231494E+02  0.31463514325E+02 -0.22119063471E+03  0.29572903578E+03  0.17274043192E+03 0.  0.
        -24    2    3    3    0    0  0.46840051719E+02  0.73403091772E+02 -0.74141435762E+02  0.13736673334E+03  0.76096403360E+02 0.  0.
          6    2    1    2  502    0 -0.87756231494E+02 -0.31463514325E+02 -0.43954270727E+03  0.48105459109E+03  0.17182729468E+03 0.  0.
         24    2    5    5    0    0 -0.11955601697E+03  0.36973748327E+01 -0.37104672685E+03  0.39762016285E+03  0.78222813958E+02 0.  0.
          4    1    6    6  501    0 -0.64438142053E+02 -0.31914004356E+02 -0.13934206883E+03  0.15680239147E+03  0.00000000000E+00 0. -1.
         -3    1    6    6    0  501 -0.55117874915E+02  0.35611379188E+02 -0.23170465802E+03  0.24081777138E+03  0.00000000000E+00 0.  1.
          5    1    5    5  502    0  0.31799785474E+02 -0.35160889158E+02 -0.68495980418E+02  0.83434428242E+02  0.47000000000E+01 0. -1.
         13    1    4    4    0    0  0.18852116251E+02  0.34701409503E+02 -0.80030323593E+02  0.89243726968E+02  0.00000000000E+00 0. -1.
        -14    1    4    4    0    0  0.27987935469E+02  0.38701682270E+02  0.58888878309E+01  0.48123006371E+02  0.00000000000E+00 0.  1.
         -5    1    3    3    0  504  0.40916179775E+02 -0.41939577447E+02 -0.14704919894E+03  0.15836230244E+03  0.47000000000E+01 0.  1.
<mgrwt>
<rscale>  2 0.19609045E+03</rscale>
<asrwt>0</asrwt>
<pdfrwt beam="1">  1       21 0.89269449E-02 0.19629153E+03</pdfrwt>
<pdfrwt beam="2">  1       21 0.11057823E+00 0.19629153E+03</pdfrwt>
<totfact> 0.63785616E+04</totfact>
</mgrwt>
</event>
<event>
12    1  0.2742799E-001  0.2193113E+03  0.7546771E-02  0.1134705E+00
         21   -1    0    0  502  503  0.00000000000E+00  0.00000000000E+00  0.34664084673E+03  0.34664084673E+03  0.00000000000E+00 0.  1.
         21   -1    0    0  503  504 -0.00000000000E+00 -0.00000000000E+00 -0.31927981408E+03  0.31927981408E+03  0.00000000000E+00 0.  1.
         -6    2    1    2    0  504  0.11351902906E+03 -0.73001141762E+02 -0.23738011928E+03  0.32318227170E+03  0.17286330743E+03 0.  0.
        -24    2    3    3    0    0  0.26624318367E+02 -0.41152768020E+02 -0.33077179504E+02  0.98845937465E+02  0.79208679482E+02 0.  0.
          6    2    1    2  502    0 -0.11351902906E+03  0.73001141762E+02  0.26474115193E+03  0.34273838911E+03  0.17078052930E+03 0.  0.
         24    2    5    5    0    0 -0.14718935048E+03  0.45915752726E+02  0.21126020382E+03  0.27382097002E+03  0.81080753937E+02 0.  0.
          2    1    6    6  501    0 -0.96628424446E+02  0.38822374552E+02  0.75065151088E+02  0.12837058107E+03  0.00000000000E+00 0. -1.
         -1    1    6    6    0  501 -0.50560926037E+02  0.70933781732E+01  0.13619505273E+03  0.14545038895E+03  0.00000000000E+00 0.  1.
          5    1    5    5  502    0  0.33670321421E+02  0.27085389037E+02  0.53480948105E+02  0.68917419090E+02  0.47000000000E+01 0. -1.
         11    1    4    4    0    0 -0.22735290862E+02  0.28275984145E+01  0.36794945863E+01  0.23204039385E+02  0.00000000000E+00 0. -1.
        -12    1    4    4    0    0  0.49359609229E+02 -0.43980366434E+02 -0.36756674091E+02  0.75641898080E+02  0.00000000000E+00 0.  1.
         -5    1    3    3    0  504  0.86894710695E+02 -0.31848373742E+02 -0.20430293978E+03  0.22433633423E+03  0.47000000000E+01 0.  1.
<mgrwt>
<rscale>  2 0.21890071E+03</rscale>
<asrwt>0</asrwt>
<pdfrwt beam="1">  1       21 0.53329361E-01 0.21931133E+03</pdfrwt>
<pdfrwt beam="2">  1       21 0.49119972E-01 0.21931133E+03</pdfrwt>
<totfact> 0.12941533E+04</totfact>
</mgrwt>
</event>
<event>
12    1  0.2742799E-001  0.1769803E+03  0.7546771E-02  0.1170789E+00
         21   -1    0    0  502  503  0.00000000000E+00  0.00000000000E+00  0.12242225924E+03  0.12242225924E+03  0.00000000000E+00 0.  1.
         21   -1    0    0  503  504 -0.00000000000E+00 -0.00000000000E+00 -0.26042931265E+03  0.26042931265E+03  0.00000000000E+00 0.  1.
         -6    2    1    2    0  504 -0.73837108260E+01  0.35085836203E+02 -0.43110500682E+02  0.18203482174E+03  0.17318379245E+03 0.  0.
        -24    2    3    3    0    0  0.60293093758E+02  0.24791798705E+02 -0.33054411386E+02  0.11268547409E+03  0.85764395421E+02 0.  0.
          6    2    1    2  502    0  0.73837108260E+01 -0.35085836203E+02 -0.94896552724E+02  0.20081675015E+03  0.17331034688E+03 0.  0.
         24    2    5    5    0    0 -0.43756343121E+02 -0.65580683704E+02 -0.37482593379E+02  0.11796933879E+03  0.79349709822E+02 0.  0.
          4    1    6    6  501    0 -0.65388830554E+02 -0.34464289285E+02 -0.26334366597E+02  0.78466459467E+02  0.00000000000E+00 0. -1.
         -3    1    6    6    0  501  0.21632487433E+02 -0.31116394419E+02 -0.11148226782E+02  0.39502879320E+02  0.00000000000E+00 0.  1.
          5    1    5    5  502    0  0.51140053947E+02  0.30494847501E+02 -0.57413959345E+02  0.82847411363E+02  0.47000000000E+01 0. -1.
         11    1    4    4    0    0  0.64503625182E+02  0.33301607253E+02  0.56702056031E+01  0.72813913085E+02  0.00000000000E+00 0. -1.
        -12    1    4    4    0    0 -0.42105314233E+01 -0.85098085485E+01 -0.38724616989E+02  0.39871561009E+02  0.00000000000E+00 0.  1.
         -5    1    3    3    0  504 -0.67676804584E+02  0.10294037498E+02 -0.10056089297E+02  0.69349347644E+02  0.47000000000E+01 0.  1.
<mgrwt>
<rscale>  2 0.17694927E+03</rscale>
<asrwt>0</asrwt>
<pdfrwt beam="1">  1       21 0.18834194E-01 0.17698026E+03</pdfrwt>
<pdfrwt beam="2">  1       21 0.40066048E-01 0.17698026E+03</pdfrwt>
<totfact> 0.15575842E+05</totfact>
</mgrwt>
</event>
<event>
12    1  0.2742799E-001  0.1762082E+03  0.7546771E-02  0.1171653E+00
         21   -1    0    0  502  503  0.00000000000E+00  0.00000000000E+00  0.29551916456E+03  0.29551916456E+03  0.00000000000E+00 0. -1.
         21   -1    0    0  503  504 -0.00000000000E+00 -0.00000000000E+00 -0.10859518651E+03  0.10859518651E+03  0.00000000000E+00 0. -1.
         -6    2    1    2    0  504  0.19691897545E+02  0.23904097092E+02  0.55612323390E+02  0.18477574815E+03  0.17346518355E+03 0.  0.
        -24    2    3    3    0    0 -0.39934511552E+02 -0.26334852704E+02  0.61852526241E+01  0.92339899784E+02  0.78740777633E+02 0.  0.
          6    2    1    2  502    0 -0.19691897545E+02 -0.23904097092E+02  0.13131165466E+03  0.21933860292E+03  0.17293783679E+03 0.  0.
         24    2    5    5    0    0 -0.15390035691E+02 -0.79214934511E+02  0.11173402751E+03  0.16032023089E+03  0.81891540967E+02 0.  0.
          2    1    6    6  501    0 -0.83005030069E+01 -0.58203827312E+02  0.14452051509E+02  0.60542924085E+02  0.00000000000E+00 0. -1.
         -1    1    6    6    0  501 -0.70895326845E+01 -0.21011107199E+02  0.97281975998E+02  0.99777306806E+02  0.00000000000E+00 0.  1.
          5    1    5    5  502    0 -0.43018618532E+01  0.55310837419E+02  0.19577627155E+02  0.59018372025E+02  0.47000000000E+01 0. -1.
         11    1    4    4    0    0 -0.33159819361E+02  0.21652515852E+02  0.16310370905E+02  0.42830284400E+02  0.00000000000E+00 0. -1.
        -12    1    4    4    0    0 -0.67746921917E+01 -0.47987368556E+02 -0.10125118280E+02  0.49509615383E+02  0.00000000000E+00 0.  1.
         -5    1    3    3    0  504  0.59626409097E+02  0.50238949795E+02  0.49427070766E+02  0.92435848364E+02  0.47000000000E+01 0.  1.
<mgrwt>
<rscale>  2 0.17607833E+03</rscale>
<asrwt>0</asrwt>
<pdfrwt beam="1">  1       21 0.45464487E-01 0.17620825E+03</pdfrwt>
<pdfrwt beam="2">  1       21 0.16706952E-01 0.17620825E+03</pdfrwt>
<totfact> 0.15024959E+05</totfact>
</mgrwt>
</event>
<event>
12    1  0.2742799E-001  0.2013329E+03  0.7546771E-02  0.1149471E+00
         21   -1    0    0  502  503  0.00000000000E+00  0.00000000000E+00  0.15304504019E+04  0.15304504019E+04  0.00000000000E+00 0.  1.
         21   -1    0    0  503  504 -0.00000000000E+00 -0.00000000000E+00 -0.27699464316E+02  0.27699464316E+02  0.00000000000E+00 0.  1.
         -6    2    1    2    0  504 -0.76995837835E+02  0.54892244068E+02  0.56317033357E+03  0.59807672907E+03  0.17774541272E+03 0.  0.
        -24    2    3    3    0    0 -0.65941700389E+01  0.18731034104E+02  0.11133055386E+03  0.13933354988E+03  0.81394171664E+02 0.  0.
          6    2    1    2  502    0  0.76995837835E+02 -0.54892244068E+02  0.93958060405E+03  0.96007313718E+03  0.17316812558E+03 0.  0.
         24    2    5    5    0    0  0.10268496216E+03 -0.36113197254E+02  0.89464090044E+03  0.90480786174E+03  0.80290481800E+02 0.  0.
          2    1    6    6  501    0  0.90534854196E+02 -0.43684234323E+01  0.77957270469E+03  0.78482434012E+03  0.00000000000E+00 0. -1.
         -1    1    6    6    0  501  0.12150107966E+02 -0.31744773821E+02  0.11506819574E+03  0.11998352162E+03  0.00000000000E+00 0.  1.
          5    1    5    5  502    0 -0.25689124327E+02 -0.18779046815E+02  0.44939703617E+02  0.55265275437E+02  0.47000000000E+01 0. -1.
         13    1    4    4    0    0  0.75932091235E+01  0.11324984601E+02  0.12024406223E+03  0.12101465449E+03  0.00000000000E+00 0. -1.
        -14    1    4    4    0    0 -0.14187379162E+02  0.74060495026E+01 -0.89135083647E+01  0.18318895384E+02  0.00000000000E+00 0.  1.
         -5    1    3    3    0  504 -0.70401667797E+02  0.36161209964E+02  0.45183977970E+03  0.45874317919E+03  0.47000000000E+01 0.  1.
<mgrwt>
<rscale>  2 0.20031795E+03</rscale>
<asrwt>0</asrwt>
<pdfrwt beam="1">  1       21 0.23545384E+00 0.20133293E+03</pdfrwt>
<pdfrwt beam="2">  1       21 0.42614572E-02 0.20133293E+03</pdfrwt>
<totfact> 0.28376750E+04</totfact>
</mgrwt>
</event>
<event>
12    1  0.2742799E-001  0.1987696E+03  0.7546771E-02  0.1150811E+00
         21   -1    0    0  502  503  0.00000000000E+00  0.00000000000E+00  0.19362940844E+03  0.19362940844E+03  0.00000000000E+00 0. -1.
         21   -1    0    0  503  504 -0.00000000000E+00 -0.00000000000E+00 -0.20517908936E+03  0.20517908936E+03  0.00000000000E+00 0. -1.
         -6    2    1    2    0  504  0.84758456038E+02  0.50884451523E+02  0.99510596911E+01  0.19887940174E+03  0.17228107722E+03 0.  0.
        -24    2    3    3    0    0 -0.14636946300E+02 -0.53904802572E+01 -0.64106850245E+01  0.83397322422E+02  0.81674469881E+02 0.  0.
          6    2    1    2  502    0 -0.84758456038E+02 -0.50884451523E+02 -0.21500740616E+02  0.19992909607E+03  0.17244169545E+03 0.  0.
         24    2    5    5    0    0 -0.11885819157E+03 -0.12867198666E+02 -0.28863620595E+02  0.14811784749E+03  0.82540618162E+02 0.  0.
          2    1    6    6  501    0 -0.12550676896E+03 -0.90759832226E+01 -0.82218025363E+01  0.12610281742E+03  0.00000000000E+00 0. -1.
         -1    1    6    6    0  501  0.66485773912E+01 -0.37912154433E+01 -0.20641818059E+02  0.22015030062E+02  0.00000000000E+00 0.  1.
          5    1    5    5  502    0  0.34099735528E+02 -0.38017252857E+02  0.73628799796E+01  0.51811248581E+02  0.47000000000E+01 0. -1.
         11    1    4    4    0    0 -0.40734237886E+00  0.95059723128E+01 -0.41571268882E+02  0.42646217111E+02  0.00000000000E+00 0. -1.
        -12    1    4    4    0    0 -0.14229603921E+02 -0.14896452570E+02  0.35160583857E+02  0.40751105311E+02  0.00000000000E+00 0.  1.
         -5    1    3    3    0  504  0.99395402338E+02  0.56274931780E+02  0.16361744716E+02  0.11548207932E+03  0.47000000000E+01 0.  1.
<mgrwt>
<rscale>  2 0.19873478E+03</rscale>
<asrwt>0</asrwt>
<pdfrwt beam="1">  1       21 0.29789140E-01 0.19876962E+03</pdfrwt>
<pdfrwt beam="2">  1       21 0.31566014E-01 0.19876962E+03</pdfrwt>
<totfact> 0.10397400E+05</totfact>
</mgrwt>
</event>
<event>
12    1  0.2742799E-001  0.1810492E+03  0.7546771E-02  0.1167510E+00
         21   -1    0    0  502  503  0.00000000000E+00  0.00000000000E+00  0.20729017248E+02  0.20729017248E+02  0.00000000000E+00 0. -1.
         21   -1    0    0  503  504 -0.00000000000E+00 -0.00000000000E+00 -0.15731177290E+04  0.15731177290E+04  0.00000000000E+00 0. -1.
         -6    2    1    2    0  504  0.34101226273E+02 -0.32394996458E+02 -0.69818376927E+03  0.72127621769E+03  0.17483271175E+03 0.  0.
        -24    2    3    3    0    0 -0.13447903221E+02 -0.73607311363E+02 -0.53921341989E+03  0.55024102658E+03  0.80094898415E+02 0.  0.
          6    2    1    2  502    0 -0.34101226273E+02  0.32394996458E+02 -0.85420494251E+03  0.87257052859E+03  0.17175830148E+03 0.  0.
         24    2    5    5    0    0 -0.68822088383E+02  0.10796452305E+02 -0.78296696144E+03  0.79029674587E+03  0.81722950295E+02 0.  0.
          4    1    6    6  501    0 -0.49518716532E+02  0.33710759236E+02 -0.69057120804E+03  0.69316456340E+03  0.00000000000E+00 0. -1.
         -3    1    6    6    0  501 -0.19303371850E+02 -0.22914306930E+02 -0.92395753394E+02  0.97132182474E+02  0.00000000000E+00 0.  1.
          5    1    5    5  502    0  0.34720862110E+02  0.21598544153E+02 -0.71237981076E+02  0.82273782719E+02  0.47000000000E+01 0. -1.
         13    1    4    4    0    0  0.31141496636E+02 -0.11741327775E+02 -0.17281413278E+03  0.17598970447E+03  0.00000000000E+00 0. -1.
        -14    1    4    4    0    0 -0.44589399857E+02 -0.61865983589E+02 -0.36639928711E+03  0.37425132210E+03  0.00000000000E+00 0.  1.
         -5    1    3    3    0  504  0.47549129494E+02  0.41212314905E+02 -0.15897034938E+03  0.17103519111E+03  0.47000000000E+01 0.  1.
<mgrwt>
<rscale>  2 0.18030282E+03</rscale>
<asrwt>0</asrwt>
<pdfrwt beam="1">  1       21 0.31890790E-02 0.18104918E+03</pdfrwt>
<pdfrwt beam="2">  1       21 0.24201815E+00 0.18104918E+03</pdfrwt>
<totfact> 0.42763538E+04</totfact>
</mgrwt>
</event>
<event>
12    1  0.2742799E-001  0.1771605E+03  0.7546771E-02  0.1170651E+00
         21   -1    0    0  502  503  0.00000000000E+00  0.00000000000E+00  0.72783968937E+02  0.72783968937E+02  0.00000000000E+00 0. -1.
         21   -1    0    0  503  504 -0.00000000000E+00 -0.00000000000E+00 -0.61134196942E+03  0.61134196942E+03  0.00000000000E+00 0. -1.
         -6    2    1    2    0  504  0.18987694479E+02 -0.29375390331E+02 -0.45546686114E+03  0.48870838751E+03  0.17367319978E+03 0.  0.
        -24    2    3    3    0    0  0.20612235886E+02  0.20175879535E+02 -0.10672562281E+03  0.13642936628E+03  0.79941747773E+02 0.  0.
          6    2    1    2  502    0 -0.18987694479E+02  0.29375390331E+02 -0.83091139339E+02  0.19541755085E+03  0.17337945566E+03 0.  0.
         24    2    5    5    0    0 -0.15094524715E+02  0.86109553360E+02 -0.42304556001E+02  0.12527799421E+03  0.79134066736E+02 0.  0.
          2    1    6    6  501    0 -0.26289198719E+02  0.97107015731E+02 -0.28985801977E+02  0.10469513451E+03  0.00000000000E+00 0. -1.
         -1    1    6    6    0  501  0.11194674005E+02 -0.10997462371E+02 -0.13318754024E+02  0.20582859700E+02  0.00000000000E+00 0.  1.
          5    1    5    5  502    0 -0.38931697641E+01 -0.56734163029E+02 -0.40786583338E+02  0.70139556641E+02  0.47000000000E+01 0. -1.
         11    1    4    4    0    0 -0.27190601432E+01 -0.21894598733E+02 -0.76493331445E+02  0.79611534951E+02  0.00000000000E+00 0. -1.
        -12    1    4    4    0    0  0.23331296029E+02  0.42070478267E+02 -0.30232291364E+02  0.56817831331E+02  0.00000000000E+00 0.  1.
         -5    1    3    3    0  504 -0.16245414069E+01 -0.49551269865E+02 -0.34874123833E+03  0.35227902122E+03  0.47000000000E+01 0.  1.
<mgrwt>
<rscale>  2 0.17708842E+03</rscale>
<asrwt>0</asrwt>
<pdfrwt beam="1">  1       21 0.11197534E-01 0.17716045E+03</pdfrwt>
<pdfrwt beam="2">  1       21 0.94052608E-01 0.17716045E+03</pdfrwt>
<totfact> 0.63421912E+04</totfact>
</mgrwt>
</event>
<event>
12    1  0.2742799E-001  0.1763054E+03  0.7546771E-02  0.1171748E+00
         21   -1    0    0  502  503  0.00000000000E+00  0.00000000000E+00  0.21601190017E+04  0.21601190017E+04  0.00000000000E+00 0.  1.
         21   -1    0    0  503  504 -0.00000000000E+00 -0.00000000000E+00 -0.61786559639E+02  0.61786559639E+02  0.00000000000E+00 0.  1.
         -6    2    1    2    0  504 -0.29886273576E+02  0.15630809238E+02  0.75957939494E+02  0.19197190796E+03  0.17304939563E+03 0.  0.
        -24    2    3    3    0    0 -0.56081426286E+02 -0.25565658039E+02  0.95205668878E+02  0.13928509720E+03  0.80854744264E+02 0.  0.
          6    2    1    2  502    0  0.29886273576E+02 -0.15630809238E+02  0.20223745026E+04  0.20299336534E+04  0.17173961962E+03 0.  0.
         24    2    5    5    0    0  0.69211483113E+02  0.90591649084E+01  0.17761491569E+04  0.17793242406E+04  0.80103855995E+02 0.  0.
          2    1    6    6  501    0  0.54899530088E+02 -0.11965461940E+02  0.54037516535E+03  0.54328855133E+03  0.00000000000E+00 0. -1.
         -1    1    6    6    0  501  0.14311953024E+02  0.21024626848E+02  0.12357739915E+04  0.12360356893E+04  0.00000000000E+00 0.  1.
          5    1    5    5  502    0 -0.39325209537E+02 -0.24689974146E+02  0.24622534567E+03  0.25060941279E+03  0.47000000000E+01 0. -1.
         11    1    4    4    0    0  0.18684602492E+02 -0.72474879288E+01  0.49153372089E+01  0.20634945879E+02  0.00000000000E+00 0. -1.
        -12    1    4    4    0    0 -0.74766028777E+02 -0.18318170110E+02  0.90290331669E+02  0.11865015132E+03  0.00000000000E+00 0.  1.
         -5    1    3    3    0  504  0.26195152710E+02  0.41196467277E+02 -0.19247729384E+02  0.52686810760E+02  0.47000000000E+01 0.  1.
<mgrwt>
<rscale>  2 0.17598320E+03</rscale>
<asrwt>0</asrwt>
<pdfrwt beam="1">  1       21 0.33232594E+00 0.17630543E+03</pdfrwt>
<pdfrwt beam="2">  1       21 0.95056262E-02 0.17630543E+03</pdfrwt>
<totfact> 0.20154811E+03</totfact>
</mgrwt>
</event>
<event>
12    1  0.2742799E-001  0.1988607E+03  0.7546771E-02  0.1151280E+00
         21   -1    0    0  502  503  0.00000000000E+00  0.00000000000E+00  0.26639572658E+03  0.26639572658E+03  0.00000000000E+00 0. -1.
         21   -1    0    0  503  504 -0.00000000000E+00 -0.00000000000E+00 -0.28000175661E+03  0.28000175661E+03  0.00000000000E+00 0. -1.
         -6    2    1    2    0  504  0.89078082175E+02 -0.47355288636E+01 -0.19546050773E+03  0.27692277428E+03  0.17471142743E+03 0.  0.
        -24    2    3    3    0    0  0.76952238241E+02  0.73852194061E+01 -0.45467821791E+02  0.12588024893E+03  0.88330775020E+02 0.  0.
          6    2    1    2  502    0 -0.89078082175E+02  0.47355288636E+01  0.18185447770E+03  0.26947470891E+03  0.17773080129E+03 0.  0.
         24    2    5    5    0    0 -0.42408406747E+02 -0.47144567689E+02  0.32535588886E+02  0.10458740322E+03  0.76543302403E+02 0.  0.
          4    1    6    6  501    0 -0.56783328900E+01 -0.56260514695E+02  0.35270082033E+02  0.66644337080E+02  0.00000000000E+00 0. -1.
         -3    1    6    6    0  501 -0.36730073857E+02  0.91159470061E+01 -0.27344931478E+01  0.37943066140E+02  0.00000000000E+00 0.  1.
          5    1    5    5  502    0 -0.46669675429E+02  0.51880096553E+02  0.14931888881E+03  0.16488730569E+03  0.47000000000E+01 0. -1.
         13    1    4    4    0    0  0.17428819195E+02 -0.38221174509E+02 -0.11460631960E+02  0.43542714709E+02  0.00000000000E+00 0. -1.
        -14    1    4    4    0    0  0.59523419046E+02  0.45606393915E+02 -0.34007189831E+02  0.82337534218E+02  0.00000000000E+00 0.  1.
         -5    1    3    3    0  504  0.12125843934E+02 -0.12120748270E+02 -0.14999268594E+03  0.15104252535E+03  0.47000000000E+01 0.  1.
<mgrwt>
<rscale>  2 0.19818376E+03</rscale>
<asrwt>0</asrwt>
<pdfrwt beam="1">  1       21 0.40983958E-01 0.19886067E+03</pdfrwt>
<pdfrwt beam="2">  1       21 0.43077194E-01 0.19886067E+03</pdfrwt>
<totfact> 0.29613144E+04</totfact>
</mgrwt>
</event>
<event>
12    1  0.2742799E-001  0.4154282E+03  0.7546771E-02  0.1038654E+00
         21   -1    0    0  502  503  0.00000000000E+00  0.00000000000E+00  0.29703661034E+03  0.29703661034E+03  0.00000000000E+00 0.  1.
         21   -1    0    0  503  504 -0.00000000000E+00 -0.00000000000E+00 -0.12377772294E+04  0.12377772294E+04  0.00000000000E+00 0. -1.
         -6    2    1    2    0  504 -0.19641535460E+03 -0.32157801013E+03 -0.10297231254E+04  0.11099626913E+04  0.17232542755E+03 0.  0.
        -24    2    3    3    0    0 -0.17696739476E+03 -0.33331351446E+03 -0.91821582528E+03  0.99606838423E+03  0.81342280161E+02 0.  0.
          6    2    1    2  502    0  0.19641535460E+03  0.32157801013E+03  0.88982506278E+02  0.42485114849E+03  0.17489769532E+03 0.  0.
         24    2    5    5    0    0  0.15925715890E+03  0.32774121823E+03  0.10416561849E+03  0.38396920214E+03  0.61682439371E+02 0.  0.
          4    1    6    6  501    0  0.76294386144E+02  0.91340643052E+02  0.35503306855E+02  0.12419513367E+03  0.00000000000E+00 0. -1.
         -3    1    6    6    0  501  0.82962772759E+02  0.23640057518E+03  0.68662311632E+02  0.25977406847E+03  0.00000000000E+00 0.  1.
          5    1    5    5  502    0  0.37158195693E+02 -0.61632080987E+01 -0.15183112209E+02  0.40881946353E+02  0.47000000000E+01 0. -1.
         11    1    4    4    0    0 -0.60704385411E+02 -0.12247276663E+03 -0.23751206826E+03  0.27403755863E+03  0.00000000000E+00 0. -1.
        -12    1    4    4    0    0 -0.11626300935E+03 -0.21084074783E+03 -0.68070375703E+03  0.72203082560E+03  0.00000000000E+00 0.  1.
         -5    1    3    3    0  504 -0.19447959833E+02  0.11735504325E+02 -0.11150730010E+03  0.11389430705E+03  0.47000000000E+01 0.  1.
<mgrwt>
<rscale>  2 0.41515887E+03</rscale>
<asrwt>0</asrwt>
<pdfrwt beam="1">  1       21 0.45697940E-01 0.41542823E+03</pdfrwt>
<pdfrwt beam="2">  1       21 0.19042727E+00 0.41542823E+03</pdfrwt>
<totfact> 0.59936081E+02</totfact>
</mgrwt>
</event>
<event>
12    1  0.2742799E-001  0.2000225E+03  0.7546771E-02  0.1149803E+00
         21   -1    0    0  502  503  0.00000000000E+00  0.00000000000E+00  0.48596259499E+03  0.48596259499E+03  0.00000000000E+00 0. -1.
         21   -1    0    0  503  504 -0.00000000000E+00 -0.00000000000E+00 -0.10132098647E+03  0.10132098647E+03  0.00000000000E+00 0.  1.
         -6    2    1    2    0  504  0.35534233040E+01  0.99293098024E+02  0.64804799680E+02  0.21025855832E+03  0.17360084433E+03 0.  0.
        -24    2    3    3    0    0 -0.52471973090E+02  0.13927681952E+02  0.54399468796E+01  0.92053757019E+02  0.74141842942E+02 0.  0.
          6    2    1    2  502    0 -0.35534233040E+01 -0.99293098024E+02  0.31983680885E+03  0.37702502314E+03  0.17314888868E+03 0.  0.
         24    2    5    5    0    0  0.41051822043E+02  0.62470521445E+00  0.15489267964E+03  0.17903044979E+03  0.79840574877E+02 0.  0.
          4    1    6    6  501    0  0.46224975842E+02 -0.19627558054E+01  0.16279248877E+03  0.16923946113E+03  0.00000000000E+00 0. -1.
         -3    1    6    6    0  501 -0.51731537985E+01  0.25874610199E+01 -0.78998091304E+01  0.97909886655E+01  0.00000000000E+00 0.  1.
          5    1    5    5  502    0 -0.44605245347E+02 -0.99917803239E+02  0.16494412920E+03  0.19799457335E+03  0.47000000000E+01 0. -1.
         13    1    4    4    0    0 -0.30990334097E+02  0.16599691078E+02  0.38754081583E+02  0.52324271525E+02  0.00000000000E+00 0. -1.
        -14    1    4    4    0    0 -0.21481638993E+02 -0.26720091261E+01 -0.33314134703E+02  0.39729485494E+02  0.00000000000E+00 0.  1.
         -5    1    3    3    0  504  0.56025396394E+02  0.85365416073E+02  0.59364852801E+02  0.11820480130E+03  0.47000000000E+01 0.  1.
<mgrwt>
<rscale>  2 0.19992439E+03</rscale>
<asrwt>0</asrwt>
<pdfrwt beam="1">  1       21 0.74763475E-01 0.20002250E+03</pdfrwt>
<pdfrwt beam="2">  1       21 0.15587844E-01 0.20002250E+03</pdfrwt>
<totfact> 0.58352236E+04</totfact>
</mgrwt>
</event>
<event>
12    1  0.2742799E-001  0.2329822E+03  0.7546771E-02  0.1124852E+00
         21   -1    0    0  502  503  0.00000000000E+00  0.00000000000E+00  0.14437603754E+04  0.14437603754E+04  0.00000000000E+00 0. -1.
         21   -1    0    0  503  504 -0.00000000000E+00 -0.00000000000E+00 -0.71758097787E+02  0.71758097787E+02  0.00000000000E+00 0. -1.
         -6    2    1    2    0  504  0.76812696914E+02  0.13979874230E+03  0.16238814390E+03  0.28399047965E+03  0.16981402915E+03 0.  0.
        -24    2    3    3    0    0  0.22649984686E+02  0.45797453330E+02  0.14604422360E+03  0.17417674893E+03  0.79988724715E+02 0.  0.
          6    2    1    2  502    0 -0.76812696914E+02 -0.13979874230E+03  0.12096141338E+04  0.12315279936E+04  0.16748423100E+03 0.  0.
         24    2    5    5    0    0 -0.73588431754E+02 -0.15818090808E+03  0.85792804323E+03  0.87931570508E+03  0.81970268156E+02 0.  0.
          2    1    6    6  501    0 -0.36086439888E+02 -0.17628669517E+02  0.30248109003E+03  0.30513572547E+03  0.00000000000E+00 0. -1.
         -1    1    6    6    0  501 -0.37501991867E+02 -0.14055223856E+03  0.55544695321E+03  0.57417997961E+03  0.00000000000E+00 0.  1.
          5    1    5    5  502    0 -0.32242651600E+01  0.18382165778E+02  0.35168609052E+03  0.35221228850E+03  0.47000000000E+01 0. -1.
         11    1    4    4    0    0  0.16906027377E+02  0.64408233716E+02  0.13776231302E+03  0.15301205580E+03  0.00000000000E+00 0. -1.
        -12    1    4    4    0    0  0.57439573087E+01 -0.18610780386E+02  0.82819105804E+01  0.21164693124E+02  0.00000000000E+00 0.  1.
         -5    1    3    3    0  504  0.54162712228E+02  0.94001288973E+02  0.16343920298E+02  0.10981373072E+03  0.47000000000E+01 0.  1.
<mgrwt>
<rscale>  2 0.23255784E+03</rscale>
<asrwt>0</asrwt>
<pdfrwt beam="1">  1       21 0.22211696E+00 0.23298215E+03</pdfrwt>
<pdfrwt beam="2">  1       21 0.11039708E-01 0.23298215E+03</pdfrwt>
<totfact> 0.64171214E+03</totfact>
</mgrwt>
</event>
<event>
12    1  0.2742799E-001  0.2070514E+03  0.7546771E-02  0.1144041E+00
         21   -1    0    0  502  503  0.00000000000E+00  0.00000000000E+00  0.96889954117E+02  0.96889954117E+02  0.00000000000E+00 0. -1.
         21   -1    0    0  503  504 -0.00000000000E+00 -0.00000000000E+00 -0.48354465561E+03  0.48354465561E+03  0.00000000000E+00 0. -1.
         -6    2    1    2    0  504  0.46592179427E+02 -0.10995751602E+03 -0.27895254130E+03  0.34704644167E+03  0.16841979060E+03 0.  0.
        -24    2    3    3    0    0  0.54717458937E+02 -0.13304439910E+03 -0.27656271181E+03  0.32200995585E+03  0.80676301694E+02 0.  0.
          6    2    1    2  502    0 -0.46592179427E+02  0.10995751602E+03 -0.10770216019E+03  0.23338816805E+03  0.16914134670E+03 0.  0.
         24    2    5    5    0    0 -0.64528542402E+02  0.75072599821E+02 -0.13514343978E+03  0.18528635602E+03  0.79167268385E+02 0.  0.
          2    1    6    6  501    0 -0.27152880831E+02  0.37673264195E+02 -0.73892736287E+01  0.47022921403E+02  0.00000000000E+00 0. -1.
         -1    1    6    6    0  501 -0.37375661571E+02  0.37399335626E+02 -0.12775416615E+03  0.13826343462E+03  0.00000000000E+00 0.  1.
          5    1    5    5  502    0  0.17936362975E+02  0.34884916197E+02  0.27441279592E+02  0.48101812030E+02  0.47000000000E+01 0. -1.
         11    1    4    4    0    0  0.25653260843E+01 -0.10536534467E+03 -0.18900284422E+03  0.21640358564E+03  0.00000000000E+00 0. -1.
        -12    1    4    4    0    0  0.52152132852E+02 -0.27679054432E+02 -0.87559867593E+02  0.10560637021E+03  0.00000000000E+00 0.  1.
         -5    1    3    3    0  504 -0.81252795098E+01  0.23086883082E+02 -0.23898294904E+01  0.25036485827E+02  0.47000000000E+01 0.  1.
<mgrwt>
<rscale>  2 0.20690399E+03</rscale>
<asrwt>0</asrwt>
<pdfrwt beam="1">  1       21 0.14906147E-01 0.20705140E+03</pdfrwt>
<pdfrwt beam="2">  1       21 0.74391485E-01 0.20705140E+03</pdfrwt>
<totfact> 0.63814253E+04</totfact>
</mgrwt>
</event>
<event>
12    1  0.2742799E-001  0.1818202E+03  0.7546771E-02  0.1166280E+00
         21   -1    0    0  502  503  0.00000000000E+00  0.00000000000E+00  0.54862941599E+03  0.54862941599E+03  0.00000000000E+00 0.  1.
         21   -1    0    0  503  504 -0.00000000000E+00 -0.00000000000E+00 -0.13101844371E+03  0.13101844371E+03  0.00000000000E+00 0. -1.
         -6    2    1    2    0  504 -0.52278079780E+02 -0.11586502863E+02 -0.41236418692E+02  0.18643777676E+03  0.17375660478E+03 0.  0.
        -24    2    3    3    0    0 -0.10144514920E+03 -0.98312065902E+00 -0.36260706046E+02  0.13567676667E+03  0.82469760455E+02 0.  0.
          6    2    1    2  502    0  0.52278079780E+02  0.11586502863E+02  0.45884739097E+03  0.49321008293E+03  0.17276577506E+03 0.  0.
         24    2    5    5    0    0  0.84715383438E+02 -0.33121582640E+02  0.36893594071E+03  0.38758266951E+03  0.76373175476E+02 0.  0.
          2    1    6    6  501    0  0.69971486800E+02 -0.56738647821E+02  0.26080177733E+03  0.27592181897E+03  0.00000000000E+00 0. -1.
         -1    1    6    6    0  501  0.14743896638E+02  0.23617065181E+02  0.10813416337E+03  0.11166085054E+03  0.00000000000E+00 0.  1.
          5    1    5    5  502    0 -0.32437303658E+02  0.44708085503E+02  0.89911450262E+02  0.10562741342E+03  0.47000000000E+01 0. -1.
         13    1    4    4    0    0 -0.20115722835E+02 -0.46038503560E+01 -0.49100335026E+02  0.53260497960E+02  0.00000000000E+00 0. -1.
        -14    1    4    4    0    0 -0.81329426363E+02  0.36207296970E+01  0.12839628980E+02  0.82416268712E+02  0.00000000000E+00 0.  1.
         -5    1    3    3    0  504  0.49167069418E+02 -0.10603382204E+02 -0.49757126458E+01  0.50761010093E+02  0.47000000000E+01 0.  1.
<mgrwt>
<rscale>  2 0.18158312E+03</rscale>
<asrwt>0</asrwt>
<pdfrwt beam="1">  1       21 0.84404525E-01 0.18182025E+03</pdfrwt>
<pdfrwt beam="2">  1       21 0.20156684E-01 0.18182025E+03</pdfrwt>
<totfact> 0.27869770E+04</totfact>
</mgrwt>
</event>
<event>
12    1  0.2742799E-001  0.1754247E+03  0.7546771E-02  0.1174959E+00
         21   -1    0    0  502  503  0.00000000000E+00  0.00000000000E+00  0.17819211120E+03  0.17819211120E+03  0.00000000000E+00 0. -1.
         21   -1    0    0  503  504 -0.00000000000E+00 -0.00000000000E+00 -0.69450300225E+03  0.69450300225E+03  0.00000000000E+00 0. -1.
         -6    2    1    2    0  504 -0.18677443987E+02 -0.13919883487E+02 -0.63810725295E+03  0.65913443772E+03  0.16350758590E+03 0.  0.
        -24    2    3    3    0    0  0.13459837019E+02 -0.38388917516E+02 -0.21098774066E+03  0.23008350107E+03  0.82266120341E+02 0.  0.
          6    2    1    2  502    0  0.18677443987E+02  0.13919883487E+02  0.12179636190E+03  0.21356067573E+03  0.17387121204E+03 0.  0.
         24    2    5    5    0    0  0.15797785798E+02 -0.32327390664E+02  0.92530649365E+01  0.91760895398E+02  0.83903590449E+02 0.  0.
          2    1    6    6  501    0  0.32730172771E+02 -0.48895762570E+02  0.24339801367E+02  0.63674843836E+02  0.00000000000E+00 0. -1.
         -1    1    6    6    0  501 -0.16932386973E+02  0.16568371906E+02 -0.15086736431E+02  0.28086051562E+02  0.00000000000E+00 0.  1.
          5    1    5    5  502    0  0.28796581887E+01  0.46247274152E+02  0.11254329696E+03  0.12179978033E+03  0.47000000000E+01 0. -1.
         11    1    4    4    0    0  0.37946643265E+02  0.37707111861E+01 -0.57146425489E+02  0.68701382403E+02  0.00000000000E+00 0. -1.
        -12    1    4    4    0    0 -0.24486806245E+02 -0.42159628702E+02 -0.15384131517E+03  0.16138211867E+03  0.00000000000E+00 0.  1.
         -5    1    3    3    0  504 -0.32137281006E+02  0.24469034029E+02 -0.42711951229E+03  0.42905093665E+03  0.47000000000E+01 0.  1.
<mgrwt>
<rscale>  2 0.17279979E+03</rscale>
<asrwt>0</asrwt>
<pdfrwt beam="1">  1       21 0.27414171E-01 0.17542465E+03</pdfrwt>
<pdfrwt beam="2">  1       21 0.10684662E+00 0.17542465E+03</pdfrwt>
<totfact> 0.90057852E+03</totfact>
</mgrwt>
</event>
<event>
12    1  0.2742799E-001  0.2257937E+03  0.7546771E-02  0.1129667E+00
         21   -1    0    0  502  503  0.00000000000E+00  0.00000000000E+00  0.46068708700E+03  0.46068708700E+03  0.00000000000E+00 0. -1.
         21   -1    0    0  503  504 -0.00000000000E+00 -0.00000000000E+00 -0.12368048776E+03  0.12368048776E+03  0.00000000000E+00 0.  1.
         -6    2    1    2    0  504 -0.14548865529E+03 -0.19947281382E+01  0.26353383695E+03  0.34692065435E+03  0.17243239093E+03 0.  0.
        -24    2    3    3    0    0 -0.48004217089E+01 -0.20923120957E+02  0.95745321498E+02  0.12708767448E+03  0.80766882918E+02 0.  0.
          6    2    1    2  502    0  0.14548865529E+03  0.19947281382E+01  0.73472762291E+02  0.23744692040E+03  0.17266112895E+03 0.  0.
         24    2    5    5    0    0  0.49827406320E+02  0.10544665207E+02 -0.26280539368E+02  0.98893727831E+02  0.80593686291E+02 0.  0.
          2    1    6    6  501    0  0.59553082029E+02 -0.16038179802E+02 -0.32788699219E+02  0.69849062893E+02  0.00000000000E+00 0. -1.
         -1    1    6    6    0  501 -0.97256757090E+01  0.26582845008E+02  0.65081598514E+01  0.29044664938E+02  0.00000000000E+00 0.  1.
          5    1    5    5  502    0  0.95661248975E+02 -0.85499370685E+01  0.99753301660E+02  0.13855319257E+03  0.47000000000E+01 0. -1.
         13    1    4    4    0    0 -0.27255416411E+02 -0.16068472038E+02  0.32775956572E+01  0.31808743305E+02  0.00000000000E+00 0. -1.
        -14    1    4    4    0    0  0.22454994702E+02 -0.48546489194E+01  0.92467725841E+02  0.95278931172E+02  0.00000000000E+00 0.  1.
         -5    1    3    3    0  504 -0.14068823359E+03  0.18928392819E+02  0.16778851545E+03  0.21983297988E+03  0.47000000000E+01 0.  1.
<mgrwt>
<rscale>  2 0.22574997E+03</rscale>
<asrwt>0</asrwt>
<pdfrwt beam="1">  1       21 0.70874935E-01 0.22579370E+03</pdfrwt>
<pdfrwt beam="2">  1       21 0.19027768E-01 0.22579370E+03</pdfrwt>
<totfact> 0.44932281E+04</totfact>
</mgrwt>
</event>
<event>
12    1  0.2742799E-001  0.3736415E+03  0.7546771E-02  0.1053311E+00
         21   -1    0    0  502  503  0.00000000000E+00  0.00000000000E+00  0.75357217905E+03  0.75357217905E+03  0.00000000000E+00 0.  1.
         21   -1    0    0  503  504 -0.00000000000E+00 -0.00000000000E+00 -0.31985418648E+03  0.31985418648E+03  0.00000000000E+00 0. -1.
         -6    2    1    2    0  504  0.22085442364E+03  0.24675153106E+03 -0.13130697445E+03  0.39604230533E+03  0.17304621219E+03 0.  0.
        -24    2    3    3    0    0  0.14568485970E+03  0.24169818133E+03 -0.12908145076E+03  0.32052381329E+03  0.80196039473E+02 0.  0.
          6    2    1    2  502    0 -0.22085442364E+03 -0.24675153106E+03  0.56502496701E+03  0.67738406019E+03  0.17301143642E+03 0.  0.
         24    2    5    5    0    0 -0.47498242712E+02 -0.60622856322E+02  0.24046366420E+03  0.26500270961E+03  0.80451529068E+02 0.  0.
          4    1    6    6  501    0  0.18771522932E+01 -0.34842961573E+02  0.17767317597E+03  0.18106715089E+03  0.00000000000E+00 0. -1.
         -3    1    6    6    0  501 -0.49375395006E+02 -0.25779894749E+02  0.62790488233E+02  0.83935558721E+02  0.00000000000E+00 0.  1.
          5    1    5    5  502    0 -0.17335618092E+03 -0.18612867474E+03  0.32456130281E+03  0.41238135058E+03  0.47000000000E+01 0. -1.
         13    1    4    4    0    0  0.63999417239E+02  0.62173868594E+02 -0.73515140726E+02  0.11561138032E+03  0.00000000000E+00 0. -1.
        -14    1    4    4    0    0  0.81685442466E+02  0.17952431274E+03 -0.55566310038E+02  0.20491243297E+03  0.00000000000E+00 0.  1.
         -5    1    3    3    0  504  0.75169563932E+02  0.50533497303E+01 -0.22255236807E+01  0.75518492045E+02  0.47000000000E+01 0.  1.
<mgrwt>
<rscale>  2 0.37363749E+03</rscale>
<asrwt>0</asrwt>
<pdfrwt beam="1">  1       21 0.11593418E+00 0.37364152E+03</pdfrwt>
<pdfrwt beam="2">  1       21 0.49208337E-01 0.37364152E+03</pdfrwt>
<totfact> 0.20125038E+03</totfact>
</mgrwt>
</event>
<event>
12    1  0.2742799E-001  0.2587064E+03  0.7546771E-02  0.1107959E+00
         21   -1    0    0  502  503  0.00000000000E+00  0.00000000000E+00  0.18633446829E+03  0.18633446829E+03  0.00000000000E+00 0. -1.
         21   -1    0    0  503  504 -0.00000000000E+00 -0.00000000000E+00 -0.38114560526E+03  0.38114560526E+03  0.00000000000E+00 0. -1.
         -6    2    1    2    0  504  0.16487249133E+03  0.99228442324E+02 -0.16606476571E+03  0.30741912088E+03  0.17291554964E+03 0.  0.
        -24    2    3    3    0    0  0.82396851923E+02  0.12745049841E+03 -0.11052882825E+03  0.20395392917E+03  0.79672533520E+02 0.  0.
          6    2    1    2  502    0 -0.16487249133E+03 -0.99228442324E+02 -0.28746371256E+02  0.26006095267E+03  0.17255759352E+03 0.  0.
         24    2    5    5    0    0 -0.30741682320E+02 -0.14213734925E+02 -0.49401594720E+02  0.99850769922E+02  0.79891034546E+02 0.  0.
          2    1    6    6  501    0 -0.27849350244E+02 -0.46329908973E+02 -0.35906008467E+02  0.64894439041E+02  0.00000000000E+00 0. -1.
         -1    1    6    6    0  501 -0.28923320758E+01  0.32116174048E+02 -0.13495586253E+02  0.34956330881E+02  0.00000000000E+00 0.  1.
          5    1    5    5  502    0 -0.13413080901E+03 -0.85014707399E+02  0.20655223463E+02  0.16021018275E+03  0.47000000000E+01 0. -1.
         13    1    4    4    0    0  0.86175669973E+02  0.73821483853E+02 -0.53080873767E+02  0.12527344784E+03  0.00000000000E+00 0. -1.
        -14    1    4    4    0    0 -0.37788180495E+01  0.53629014559E+02 -0.57447954482E+02  0.78680481331E+02  0.00000000000E+00 0.  1.
         -5    1    3    3    0  504  0.82475639408E+02 -0.28222056089E+02 -0.55535937457E+02  0.10346519171E+03  0.47000000000E+01 0.  1.
<mgrwt>
<rscale>  2 0.25864662E+03</rscale>
<asrwt>0</asrwt>
<pdfrwt beam="1">  1       21 0.28666841E-01 0.25870642E+03</pdfrwt>
<pdfrwt beam="2">  1       21 0.58637785E-01 0.25870642E+03</pdfrwt>
<totfact> 0.30675306E+04</totfact>
</mgrwt>
</event>
<event>
12    1  0.2742799E-001  0.1891460E+03  0.7546771E-02  0.1159819E+00
         21   -1    0    0  502  503  0.00000000000E+00  0.00000000000E+00  0.15846968716E+03  0.15846968716E+03  0.00000000000E+00 0.  1.
         21   -1    0    0  503  504 -0.00000000000E+00 -0.00000000000E+00 -0.44155763505E+03  0.44155763505E+03  0.00000000000E+00 0.  1.
         -6    2    1    2    0  504  0.46586489213E+02 -0.51680883620E+02 -0.35323889680E+03  0.40069180915E+03  0.17588346426E+03 0.  0.
        -24    2    3    3    0    0 -0.19976718732E+02  0.26344631076E+02 -0.16344061177E+03  0.18490459777E+03  0.79898484489E+02 0.  0.
          6    2    1    2  502    0 -0.46586489213E+02  0.51680883620E+02  0.70150948908E+02  0.19933551306E+03  0.17312503120E+03 0.  0.
         24    2    5    5    0    0 -0.21365342389E+02  0.59565022460E+02 -0.24401410219E+02  0.10104764754E+03  0.74904796223E+02 0.  0.
          2    1    6    6  501    0  0.21730201394E+02  0.14149670346E+02 -0.28218054586E+02  0.38323275280E+02  0.00000000000E+00 0. -1.
         -1    1    6    6    0  501 -0.43095543783E+02  0.45415352114E+02  0.38166443675E+01  0.62724372263E+02  0.00000000000E+00 0.  1.
          5    1    5    5  502    0 -0.25221146824E+02 -0.78841388398E+01  0.94552359126E+02  0.98287865521E+02  0.47000000000E+01 0. -1.
         13    1    4    4    0    0  0.23516335801E+02  0.10085579045E+02 -0.15656530925E+02  0.29997731828E+02  0.00000000000E+00 0. -1.
        -14    1    4    4    0    0 -0.43493054533E+02  0.16259052031E+02 -0.14778408084E+03  0.15490686594E+03  0.00000000000E+00 0.  1.
         -5    1    3    3    0  504  0.66563207945E+02 -0.78025514696E+02 -0.18979828503E+03  0.21578721138E+03  0.47000000000E+01 0.  1.
<mgrwt>
<rscale>  2 0.18850215E+03</rscale>
<asrwt>0</asrwt>
<pdfrwt beam="1">  1       21 0.24379952E-01 0.18914600E+03</pdfrwt>
<pdfrwt beam="2">  1       21 0.67931944E-01 0.18914600E+03</pdfrwt>
<totfact> 0.31508773E+04</totfact>
</mgrwt>
</event>
<event>
12    1  0.2742799E-001  0.1756186E+03  0.7546771E-02  0.1172448E+00
         21   -1    0    0  502  503  0.00000000000E+00  0.00000000000E+00  0.45249627616E+02  0.45249627616E+02  0.00000000000E+00 0.  1.
         21   -1    0    0  503  504 -0.00000000000E+00 -0.00000000000E+00 -0.16276644624E+04  0.16276644624E+04  0.00000000000E+00 0. -1.
         -6    2    1    2    0  504 -0.96846032391E+01 -0.30644760252E+02 -0.14319163398E+04  0.14426455843E+04  0.17265278691E+03 0.  0.
        -24    2    3    3    0    0 -0.51752736023E+02 -0.62215113174E+02 -0.11652932002E+04  0.11708434438E+04  0.80106563929E+02 0.  0.
          6    2    1    2  502    0  0.96846032391E+01  0.30644760252E+02 -0.15049849504E+03  0.23026850578E+03  0.17129184123E+03 0.  0.
         24    2    5    5    0    0  0.50539072216E+02 -0.14875851087E+02 -0.42249630894E+02  0.10584535568E+03  0.81502878732E+02 0.  0.
          4    1    6    6  501    0  0.15725084609E+02 -0.18603353427E+02 -0.61316186292E+02  0.65977554866E+02  0.00000000000E+00 0. -1.
         -3    1    6    6    0  501  0.34813987606E+02  0.37275023405E+01  0.19066555398E+02  0.39867800811E+02  0.00000000000E+00 0.  1.
          5    1    5    5  502    0 -0.40854468976E+02  0.45520611339E+02 -0.10824886415E+03  0.12442315010E+03  0.47000000000E+01 0. -1.
         11    1    4    4    0    0 -0.43517644259E+02 -0.76673311527E+02 -0.74133922412E+03  0.74656307656E+03  0.00000000000E+00 0. -1.
        -12    1    4    4    0    0 -0.82350917637E+01  0.14458198352E+02 -0.42395397605E+03  0.42428036727E+03  0.00000000000E+00 0.  1.
         -5    1    3    3    0  504  0.42068132784E+02  0.31570352922E+02 -0.26662313959E+03  0.27180214043E+03  0.47000000000E+01 0.  1.
<mgrwt>
<rscale>  2 0.17528315E+03</rscale>
<asrwt>0</asrwt>
<pdfrwt beam="1">  1       21 0.69614802E-02 0.17561856E+03</pdfrwt>
<pdfrwt beam="2">  1       21 0.25040995E+00 0.17561856E+03</pdfrwt>
<totfact> 0.10269626E+04</totfact>
</mgrwt>
</event>
<event>
12    1  0.2742799E-001  0.2581573E+03  0.7546771E-02  0.1108285E+00
         21   -1    0    0  502  503  0.00000000000E+00  0.00000000000E+00  0.14436430636E+03  0.14436430636E+03  0.00000000000E+00 0. -1.
         21   -1    0    0  503  504 -0.00000000000E+00 -0.00000000000E+00 -0.56379337355E+03  0.56379337355E+03  0.00000000000E+00 0.  1.
         -6    2    1    2    0  504 -0.69819026630E+02  0.17742027678E+03 -0.36074511461E+03  0.44360144624E+03  0.17404756333E+03 0.  0.
        -24    2    3    3    0    0  0.87319950690E+01  0.32498997564E+02 -0.16976147719E+03  0.19127372295E+03  0.81450877055E+02 0.  0.
          6    2    1    2  502    0  0.69819026630E+02 -0.17742027678E+03 -0.58683952572E+02  0.26455623366E+03  0.17376289416E+03 0.  0.
         24    2    5    5    0    0  0.57080479692E+02 -0.35925968924E+02 -0.60701375208E+02  0.12239762602E+03  0.82144175068E+02 0.  0.
          2    1    6    6  501    0 -0.13842643962E+01 -0.45618879467E+02 -0.36268420108E+02  0.58295768705E+02  0.00000000000E+00 0. -1.
         -1    1    6    6    0  501  0.58464744088E+02  0.96929105425E+01 -0.24432955100E+02  0.64101857313E+02  0.00000000000E+00 0.  1.
          5    1    5    5  502    0  0.12738546938E+02 -0.14149430786E+03  0.20174226363E+01  0.14215860764E+03  0.47000000000E+01 0. -1.
         13    1    4    4    0    0  0.11020161533E+02  0.17081682529E+02  0.46682940839E+00  0.20333365878E+02  0.00000000000E+00 0. -1.
        -14    1    4    4    0    0 -0.22881664640E+01  0.15417315035E+02 -0.17022830660E+03  0.17094035707E+03  0.00000000000E+00 0.  1.
         -5    1    3    3    0  504 -0.78551021699E+02  0.14492127922E+03 -0.19098363743E+03  0.25232772330E+03  0.47000000000E+01 0.  1.
<mgrwt>
<rscale>  2 0.25810935E+03</rscale>
<asrwt>0</asrwt>
<pdfrwt beam="1">  1       21 0.22209894E-01 0.25815733E+03</pdfrwt>
<pdfrwt beam="2">  1       21 0.86737441E-01 0.25815733E+03</pdfrwt>
<totfact> 0.20934013E+04</totfact>
</mgrwt>
</event>
<event>
12    1  0.2742799E-001  0.2203164E+03  0.7546771E-02  0.1134619E+00
         21   -1    0    0  502  503  0.00000000000E+00  0.00000000000E+00  0.36191804958E+02  0.36191804958E+02  0.00000000000E+00 0.  1.
         21   -1    0    0  503  504 -0.00000000000E+00 -0.00000000000E+00 -0.13374438447E+04  0.13374438447E+04  0.00000000000E+00 0.  1.
         -6    2    1    2    0  504 -0.11795163739E+03  0.64130346814E+02 -0.74153355605E+03  0.77211748098E+03  0.16813119743E+03 0.  0.
        -24    2    3    3    0    0 -0.48121613223E+02  0.99443826199E+02 -0.49248879559E+03  0.51102620037E+03  0.79986245394E+02 0.  0.
          6    2    1    2  502    0  0.11795163739E+03 -0.64130346814E+02 -0.55971848369E+03  0.60151816867E+03  0.17468267261E+03 0.  0.
         24    2    5    5    0    0  0.66549968736E+02  0.11408844926E+02 -0.16332830104E+03  0.19470670382E+03  0.81703772935E+02 0.  0.
          2    1    6    6  501    0 -0.13464377667E+02  0.55503527607E+01 -0.70610450564E+02  0.72096682383E+02  0.00000000000E+00 0. -1.
         -1    1    6    6    0  501  0.80014346403E+02  0.58584921657E+01 -0.92717850475E+02  0.12261002144E+03  0.00000000000E+00 0.  1.
          5    1    5    5  502    0  0.51401668658E+02 -0.75539191741E+02 -0.39639018265E+03  0.40681146484E+03  0.47000000000E+01 0. -1.
         11    1    4    4    0    0  0.20051540616E+02  0.43411262091E+02 -0.15653042426E+03  0.16367154816E+03  0.00000000000E+00 0. -1.
        -12    1    4    4    0    0 -0.68173153840E+02  0.56032564108E+02 -0.33595837133E+03  0.34735465221E+03  0.00000000000E+00 0.  1.
         -5    1    3    3    0  504 -0.69830024170E+02 -0.35313479385E+02 -0.24904476046E+03  0.26109128061E+03  0.47000000000E+01 0.  1.
<mgrwt>
<rscale>  2 0.21901559E+03</rscale>
<asrwt>0</asrwt>
<pdfrwt beam="1">  1       21 0.55679708E-02 0.22031642E+03</pdfrwt>
<pdfrwt beam="2">  1       21 0.20576056E+00 0.22031642E+03</pdfrwt>
<totfact> 0.27104128E+04</totfact>
</mgrwt>
</event>
<event>
12    1  0.2742799E-001  0.2200400E+03  0.7546771E-02  0.1133926E+00
         21   -1    0    0  502  503  0.00000000000E+00  0.00000000000E+00  0.10909138070E+04  0.10909138070E+04  0.00000000000E+00 0.  1.
         21   -1    0    0  503  504 -0.00000000000E+00 -0.00000000000E+00 -0.78428470280E+02  0.78428470280E+02  0.00000000000E+00 0.  1.
         -6    2    1    2    0  504 -0.78742881396E+02  0.11155817253E+03  0.12032224199E+03  0.25044478257E+03  0.17204499403E+03 0.  0.
        -24    2    3    3    0    0 -0.12797089244E+02  0.80848189918E+02  0.10388369487E+02  0.11853763016E+03  0.85106146879E+02 0.  0.
          6    2    1    2  502    0  0.78742881396E+02 -0.11155817253E+03  0.89216309474E+03  0.91889749472E+03  0.17254550402E+03 0.  0.
         24    2    5    5    0    0 -0.20718953308E+02 -0.29590623281E+02  0.43747502214E+03  0.44627220016E+03  0.80433833848E+02 0.  0.
          2    1    6    6  501    0 -0.46610161524E+02 -0.92697191279E+01  0.16166303649E+03  0.16850332998E+03  0.00000000000E+00 0. -1.
         -1    1    6    6    0  501  0.25891208216E+02 -0.20320904153E+02  0.27581198565E+03  0.27776887017E+03  0.00000000000E+00 0.  1.
          5    1    5    5  502    0  0.99461834703E+02 -0.81967549247E+02  0.45468807261E+03  0.47262529456E+03  0.47000000000E+01 0. -1.
         13    1    4    4    0    0  0.84729327107E+00  0.13459425953E+02 -0.34082133124E+02  0.36653319783E+02  0.00000000000E+00 0. -1.
        -14    1    4    4    0    0 -0.13644382515E+02  0.67388763965E+02  0.44470502611E+02  0.81884310374E+02  0.00000000000E+00 0.  1.
         -5    1    3    3    0  504 -0.65945792152E+02  0.30709982610E+02  0.10993387250E+03  0.13190715241E+03  0.47000000000E+01 0.  1.
<mgrwt>
<rscale>  2 0.21994191E+03</rscale>
<asrwt>0</asrwt>
<pdfrwt beam="1">  1       21 0.16783288E+00 0.22004004E+03</pdfrwt>
<pdfrwt beam="2">  1       21 0.12065919E-01 0.22004004E+03</pdfrwt>
<totfact> 0.12589712E+04</totfact>
</mgrwt>
</event>
<event>
12    1  0.2742799E-001  0.1823271E+03  0.7546771E-02  0.1167187E+00
         21   -1    0    0  502  503  0.00000000000E+00  0.00000000000E+00  0.14236995857E+03  0.14236995857E+03  0.00000000000E+00 0.  1.
         21   -1    0    0  503  504 -0.00000000000E+00 -0.00000000000E+00 -0.43807915582E+03  0.43807915582E+03  0.00000000000E+00 0.  1.
         -6    2    1    2    0  504 -0.50761014031E+02  0.26078213744E+02 -0.34881039927E+03  0.39054674726E+03  0.16613643002E+03 0.  0.
        -24    2    3    3    0    0  0.24308861053E+02  0.30259418060E+00 -0.17128194270E+03  0.19602602445E+03  0.92182894723E+02 0.  0.
          6    2    1    2  502    0  0.50761014031E+02 -0.26078213744E+02  0.53101202018E+02  0.18990236714E+03  0.17316586734E+03 0.  0.
         24    2    5    5    0    0  0.25483972311E+02 -0.81236784016E+02  0.10807491382E+02  0.11579268712E+03  0.77732210824E+02 0.  0.
          4    1    6    6  501    0  0.21368615784E+02 -0.54200734181E+02 -0.30877610993E+02  0.65937577958E+02  0.00000000000E+00 0. -1.
         -3    1    6    6    0  501  0.41153565274E+01 -0.27036049835E+02  0.41685102375E+02  0.49855109167E+02  0.00000000000E+00 0.  1.
          5    1    5    5  502    0  0.25277041720E+02  0.55158570272E+02  0.42293710637E+02  0.74109680015E+02  0.47000000000E+01 0. -1.
         11    1    4    4    0    0  0.14527664049E+02  0.25884242016E+02 -0.83867831269E+01  0.30844531747E+02  0.00000000000E+00 0. -1.
        -12    1    4    4    0    0  0.97811970038E+01 -0.25581647836E+02 -0.16289515957E+03  0.16518149270E+03  0.00000000000E+00 0.  1.
         -5    1    3    3    0  504 -0.75069875084E+02  0.25775619563E+02 -0.17752845657E+03  0.19452072281E+03  0.47000000000E+01 0.  1.
<mgrwt>
<rscale>  2 0.18063816E+03</rscale>
<asrwt>0</asrwt>
<pdfrwt beam="1">  1       21 0.21903071E-01 0.18232710E+03</pdfrwt>
<pdfrwt beam="2">  1       21 0.67396792E-01 0.18232710E+03</pdfrwt>
<totfact> 0.39403697E+04</totfact>
</mgrwt>
</event>
<event>
12    1  0.2742799E-001  0.1743750E+03  0.7546771E-02  0.1173805E+00
         21   -1    0    0  502  503  0.00000000000E+00  0.00000000000E+00  0.14829215387E+04  0.14829215387E+04  0.00000000000E+00 0. -1.
         21   -1    0    0  503  504 -0.00000000000E+00 -0.00000000000E+00 -0.22008183305E+02  0.22008183305E+02  0.00000000000E+00 0. -1.
         -6    2    1    2    0  504  0.26447477817E+01 -0.63368525592E+01  0.94354871459E+03  0.95952634884E+03  0.17423973978E+03 0.  0.
        -24    2    3    3    0    0  0.16605519911E+01  0.45119403004E+02  0.82616339671E+03  0.83126833649E+03  0.80140945993E+02 0.  0.
          6    2    1    2  502    0 -0.26447477817E+01  0.63368525592E+01  0.51736464082E+03  0.54540337318E+03  0.17248628211E+03 0.  0.
         24    2    5    5    0    0 -0.58499846646E+02 -0.24436806879E+02  0.38603387406E+03  0.39933260101E+03  0.80156002404E+02 0.  0.
          2    1    6    6  501    0 -0.14477242587E+02  0.28845795772E+02  0.10063041300E+03  0.10567947061E+03  0.00000000000E+00 0. -1.
         -1    1    6    6    0  501 -0.44022604058E+02 -0.53282602651E+02  0.28540346106E+03  0.29365313041E+03  0.00000000000E+00 0.  1.
          5    1    5    5  502    0  0.55855098864E+02  0.30773659438E+02  0.13133076676E+03  0.14607077217E+03  0.47000000000E+01 0. -1.
         11    1    4    4    0    0 -0.10841252908E+02  0.85227908320E+01  0.67802208656E+03  0.67816231139E+03  0.00000000000E+00 0. -1.
        -12    1    4    4    0    0  0.12501804899E+02  0.36596612172E+02  0.14814131016E+03  0.15310602510E+03  0.00000000000E+00 0.  1.
         -5    1    3    3    0  504  0.98419579059E+00 -0.51456255564E+02  0.11738531788E+03  0.12825801235E+03  0.47000000000E+01 0.  1.
<mgrwt>
<rscale>  2 0.17393531E+03</rscale>
<asrwt>0</asrwt>
<pdfrwt beam="1">  1       21 0.22814170E+00 0.17437499E+03</pdfrwt>
<pdfrwt beam="2">  1       21 0.33858755E-02 0.17437499E+03</pdfrwt>
<totfact> 0.47090341E+04</totfact>
</mgrwt>
</event>
<event>
12    1  0.2742799E-001  0.2090025E+03  0.7546771E-02  0.1142563E+00
         21   -1    0    0  502  503  0.00000000000E+00  0.00000000000E+00  0.13334576413E+03  0.13334576413E+03  0.00000000000E+00 0.  1.
         21   -1    0    0  503  504 -0.00000000000E+00 -0.00000000000E+00 -0.41496736577E+03  0.41496736577E+03  0.00000000000E+00 0.  1.
         -6    2    1    2    0  504 -0.99636200977E+02 -0.62990402752E+02 -0.26749535514E+03  0.33883380698E+03  0.17134590845E+03 0.  0.
        -24    2    3    3    0    0 -0.36091112453E+02  0.29562155808E+02 -0.88653984212E+02  0.12762234818E+03  0.79066082385E+02 0.  0.
          6    2    1    2  502    0  0.99636200977E+02  0.62990402752E+02 -0.14126246497E+02  0.20947932292E+03  0.17258873807E+03 0.  0.
         24    2    5    5    0    0  0.11233823704E+03  0.50970637426E+02 -0.60796034588E+02  0.15941960259E+03  0.80626090619E+02 0.  0.
          2    1    6    6  501    0  0.41291860221E+02  0.23927443748E+02 -0.67982790906E+02  0.83061423924E+02  0.00000000000E+00 0. -1.
         -1    1    6    6    0  501  0.71046376820E+02  0.27043193677E+02  0.71867563178E+01  0.76358178671E+02  0.00000000000E+00 0.  1.
          5    1    5    5  502    0 -0.12702036064E+02  0.12019765326E+02  0.46669788092E+02  0.50059720327E+02  0.47000000000E+01 0. -1.
         13    1    4    4    0    0 -0.45793205476E+02  0.34753842872E+02 -0.97712751759E+02  0.11336943644E+03  0.00000000000E+00 0. -1.
        -14    1    4    4    0    0  0.97020930225E+01 -0.51916870641E+01  0.90587675469E+01  0.14252911740E+02  0.00000000000E+00 0.  1.
         -5    1    3    3    0  504 -0.63545088524E+02 -0.92552558559E+02 -0.17884137093E+03  0.21121145880E+03  0.47000000000E+01 0.  1.
<mgrwt>
<rscale>  2 0.20874573E+03</rscale>
<asrwt>0</asrwt>
<pdfrwt beam="1">  1       21 0.20514734E-01 0.20900248E+03</pdfrwt>
<pdfrwt beam="2">  1       21 0.63841131E-01 0.20900248E+03</pdfrwt>
<totfact> 0.49489209E+04</totfact>
</mgrwt>
</event>
<event>
12    1  0.2742799E-001  0.2140444E+03  0.7546771E-02  0.1138429E+00
         21   -1    0    0  502  503  0.00000000000E+00  0.00000000000E+00  0.29869723626E+04  0.29869723626E+04  0.00000000000E+00 0.  1.
         21   -1    0    0  503  504 -0.00000000000E+00 -0.00000000000E+00 -0.24471561105E+02  0.24471561105E+02  0.00000000000E+00 0.  1.
         -6    2    1    2    0  504  0.69160376308E+02 -0.10541763593E+03  0.56118111203E+03  0.60061573267E+03  0.17297104446E+03 0.  0.
        -24    2    3    3    0    0  0.84677459842E+02 -0.58110680967E+02  0.51906296395E+03  0.53523411242E+03  0.80635420912E+02 0.  0.
          6    2    1    2  502    0 -0.69160376308E+02  0.10541763593E+03  0.24013196895E+04  0.24108281910E+04  0.17280127326E+03 0.  0.
         24    2    5    5    0    0 -0.94708416114E+02  0.86095066516E+02  0.12603524498E+04  0.12694017168E+04  0.80686903539E+02 0.  0.
          2    1    6    6  501    0 -0.56612167921E+02  0.12038971303E+02  0.75671123617E+03  0.75892145136E+03  0.00000000000E+00 0. -1.
         -1    1    6    6    0  501 -0.38096248193E+02  0.74056095213E+02  0.50364121362E+03  0.51048026546E+03  0.00000000000E+00 0.  1.
          5    1    5    5  502    0  0.25548039806E+02  0.19322569410E+02  0.11409672397E+04  0.11414264742E+04  0.47000000000E+01 0. -1.
         13    1    4    4    0    0  0.66760212088E+02 -0.45290618237E+01  0.36622817295E+03  0.37229089833E+03  0.00000000000E+00 0. -1.
        -14    1    4    4    0    0  0.17917247754E+02 -0.53581619144E+02  0.15283479100E+03  0.16294321409E+03  0.00000000000E+00 0.  1.
         -5    1    3    3    0  504 -0.15517083534E+02 -0.47306954959E+02  0.42118148070E+02  0.65381620244E+02  0.47000000000E+01 0.  1.
<mgrwt>
<rscale>  2 0.21401013E+03</rscale>
<asrwt>0</asrwt>
<pdfrwt beam="1">  1       21 0.45953392E+00 0.21404443E+03</pdfrwt>
<pdfrwt beam="2">  1       21 0.37648579E-02 0.21404443E+03</pdfrwt>
<totfact> 0.15105142E+03</totfact>
</mgrwt>
</event>
<event>
12    1  0.2742799E-001  0.1787351E+03  0.7546771E-02  0.1169218E+00
         21   -1    0    0  502  503  0.00000000000E+00  0.00000000000E+00  0.20620891371E+03  0.20620891371E+03  0.00000000000E+00 0.  1.
         21   -1    0    0  503  504 -0.00000000000E+00 -0.00000000000E+00 -0.44347117346E+03  0.44347117346E+03  0.00000000000E+00 0.  1.
         -6    2    1    2    0  504 -0.46090133847E+02  0.18381931822E+02 -0.38104283357E+03  0.42087988311E+03  0.17170917023E+03 0.  0.
        -24    2    3    3    0    0 -0.66243289738E+02  0.67367483700E+02 -0.23904357790E+03  0.26925002921E+03  0.80169787319E+02 0.  0.
          6    2    1    2  502    0  0.46090133847E+02 -0.18381931822E+02  0.14378057382E+03  0.22880020405E+03  0.17092245058E+03 0.  0.
         24    2    5    5    0    0  0.81741939184E+02 -0.30016161891E+01  0.15077870856E+03  0.18906773342E+03  0.79508707353E+02 0.  0.
          2    1    6    6  501    0  0.36959601362E+02  0.32846086951E+02  0.37376805756E+02  0.61983087769E+02  0.00000000000E+00 0. -1.
         -1    1    6    6    0  501  0.44782337822E+02 -0.35847703140E+02  0.11340190280E+03  0.12708464565E+03  0.00000000000E+00 0.  1.
          5    1    5    5  502    0 -0.35651805337E+02 -0.15380315633E+02 -0.69981347407E+01  0.39732470633E+02  0.47000000000E+01 0. -1.
         11    1    4    4    0    0 -0.63258516554E+00  0.49041035596E+00  0.64435305808E+01  0.64930541854E+01  0.00000000000E+00 0. -1.
        -12    1    4    4    0    0 -0.65610704572E+02  0.66877073344E+02 -0.24548710848E+03  0.26275697503E+03  0.00000000000E+00 0.  1.
         -5    1    3    3    0  504  0.20153155891E+02 -0.48985551877E+02 -0.14199925566E+03  0.15162985390E+03  0.47000000000E+01 0.  1.
<mgrwt>
<rscale>  2 0.17854588E+03</rscale>
<asrwt>0</asrwt>
<pdfrwt beam="1">  1       21 0.31724448E-01 0.17873510E+03</pdfrwt>
<pdfrwt beam="2">  1       21 0.68226334E-01 0.17873510E+03</pdfrwt>
<totfact> 0.18888687E+04</totfact>
</mgrwt>
</event>
<event>
12    1  0.2742799E-001  0.2407449E+03  0.7546771E-02  0.1119339E+00
         21   -1    0    0  502  503  0.00000000000E+00  0.00000000000E+00  0.24138349332E+03  0.24138349332E+03  0.00000000000E+00 0. -1.
         21   -1    0    0  503  504 -0.00000000000E+00 -0.00000000000E+00 -0.33496153682E+03  0.33496153682E+03  0.00000000000E+00 0.  1.
         -6    2    1    2    0  504  0.10451428687E+03  0.13021181583E+03  0.10677799048E+03  0.26313481771E+03  0.17308968744E+03 0.  0.
        -24    2    3    3    0    0  0.40113161069E+02  0.10876632956E+03  0.12958233772E+03  0.19137450737E+03  0.79958987522E+02 0.  0.
          6    2    1    2  502    0 -0.10451428687E+03 -0.13021181583E+03 -0.20035603398E+03  0.31321021243E+03  0.17343512814E+03 0.  0.
         24    2    5    5    0    0 -0.40064075254E+02 -0.10603600309E+03 -0.20117563929E+03  0.24420976712E+03  0.79485900878E+02 0.  0.
          4    1    6    6  501    0  0.75858183352E+01 -0.20057976184E+02 -0.10326518490E+03  0.10546831496E+03  0.00000000000E+00 0. -1.
         -3    1    6    6    0  501 -0.47649893590E+02 -0.85978026907E+02 -0.97910454391E+02  0.13874145217E+03  0.00000000000E+00 0.  1.
          5    1    5    5  502    0 -0.64450211618E+02 -0.24175812739E+02  0.81960530606E+00  0.69000445303E+02  0.47000000000E+01 0. -1.
         11    1    4    4    0    0 -0.15030644713E+02  0.67629688449E+02  0.83830371154E+02  0.10875305130E+03  0.00000000000E+00 0. -1.
        -12    1    4    4    0    0  0.55143805781E+02  0.41136641107E+02  0.45751966571E+02  0.82621456067E+02  0.00000000000E+00 0.  1.
         -5    1    3    3    0  504  0.64401125804E+02  0.21445486274E+02 -0.22804347248E+02  0.71760310338E+02  0.47000000000E+01 0.  1.
<mgrwt>
<rscale>  2 0.24068267E+03</rscale>
<asrwt>0</asrwt>
<pdfrwt beam="1">  1       21 0.37135922E-01 0.24074488E+03</pdfrwt>
<pdfrwt beam="2">  1       21 0.51532544E-01 0.24074488E+03</pdfrwt>
<totfact> 0.24384152E+04</totfact>
</mgrwt>
</event>
<event>
12    1  0.2742799E-001  0.2019798E+03  0.7546771E-02  0.1149149E+00
         21   -1    0    0  502  503  0.00000000000E+00  0.00000000000E+00  0.13480578058E+04  0.13480578058E+04  0.00000000000E+00 0.  1.
         21   -1    0    0  503  504 -0.00000000000E+00 -0.00000000000E+00 -0.46014036411E+02  0.46014036411E+02  0.00000000000E+00 0.  1.
         -6    2    1    2    0  504  0.93199611166E+01 -0.93486426383E+02  0.22827011354E+03  0.30146682662E+03  0.17305614472E+03 0.  0.
        -24    2    3    3    0    0  0.97956189480E+01  0.25486266421E+02  0.39725080691E+02  0.78473447133E+02  0.61923306941E+02 0.  0.
          6    2    1    2  502    0 -0.93199611166E+01  0.93486426383E+02  0.10737736558E+04  0.10926050156E+04  0.17879955957E+03 0.  0.
         24    2    5    5    0    0  0.31638120761E+02  0.43652647324E+02  0.31342532437E+03  0.32951088956E+03  0.86229160236E+02 0.  0.
          2    1    6    6  501    0  0.14364402443E+02  0.19822565807E+01  0.17702085516E+01  0.14608183906E+02  0.00000000000E+00 0. -1.
         -1    1    6    6    0  501  0.17273718317E+02  0.41670390743E+02  0.31165511582E+03  0.31490270565E+03  0.00000000000E+00 0.  1.
          5    1    5    5  502    0 -0.40958081877E+02  0.49833779059E+02  0.76034833144E+03  0.76309412600E+03  0.47000000000E+01 0. -1.
         11    1    4    4    0    0  0.31331503629E+02  0.20101727223E+02  0.42042046603E+02  0.56154040278E+02  0.00000000000E+00 0. -1.
        -12    1    4    4    0    0 -0.21535884681E+02  0.53845391978E+01 -0.23169659117E+01  0.22319406856E+02  0.00000000000E+00 0.  1.
         -5    1    3    3    0  504 -0.47565783134E+00 -0.11897269280E+03  0.18854503285E+03  0.22299337949E+03  0.47000000000E+01 0.  1.
<mgrwt>
<rscale>  2 0.20070121E+03</rscale>
<asrwt>0</asrwt>
<pdfrwt beam="1">  1       21 0.20739348E+00 0.20197984E+03</pdfrwt>
<pdfrwt beam="2">  1       21 0.70790835E-02 0.20197984E+03</pdfrwt>
<totfact> 0.17746112E+04</totfact>
</mgrwt>
</event>
<event>
12    1  0.2742799E-001  0.2785436E+03  0.7546771E-02  0.1096569E+00
         21   -1    0    0  502  503  0.00000000000E+00  0.00000000000E+00  0.16840408512E+03  0.16840408512E+03  0.00000000000E+00 0.  1.
         21   -1    0    0  503  504 -0.00000000000E+00 -0.00000000000E+00 -0.72913727756E+03  0.72913727756E+03  0.00000000000E+00 0. -1.
         -6    2    1    2    0  504 -0.74756301990E+02 -0.20391587175E+03 -0.55296324739E+03  0.61888942577E+03  0.17345195568E+03 0.  0.
        -24    2    3    3    0    0 -0.25583473929E+02 -0.59131643342E+02 -0.34912919961E+03  0.36403486166E+03  0.80492963041E+02 0.  0.
          6    2    1    2  502    0  0.74756301990E+02  0.20391587175E+03 -0.77699450548E+01  0.27865193691E+03  0.17440281665E+03 0.  0.
         24    2    5    5    0    0  0.53535883071E+02  0.53817368480E+02  0.43186684885E+02  0.11865651510E+03  0.80323588681E+02 0.  0.
          4    1    6    6  501    0  0.61326510592E+02  0.36444671012E+02 -0.13185841378E+00  0.71338435175E+02  0.00000000000E+00 0. -1.
         -3    1    6    6    0  501 -0.77906275211E+01  0.17372697468E+02  0.43318543299E+02  0.47318079928E+02  0.00000000000E+00 0.  1.
          5    1    5    5  502    0  0.21220418919E+02  0.15009850327E+03 -0.50956629940E+02  0.15999542181E+03  0.47000000000E+01 0. -1.
         11    1    4    4    0    0 -0.42267833761E+02 -0.70751906440E+02 -0.26727699040E+03  0.27969517628E+03  0.00000000000E+00 0. -1.
        -12    1    4    4    0    0  0.16684359832E+02  0.11620263098E+02 -0.81852209211E+02  0.84339685381E+02  0.00000000000E+00 0.  1.
         -5    1    3    3    0  504 -0.49172828061E+02 -0.14478422841E+03 -0.20383404778E+03  0.25485456411E+03  0.47000000000E+01 0.  1.
<mgrwt>
<rscale>  2 0.27839488E+03</rscale>
<asrwt>0</asrwt>
<pdfrwt beam="1">  1       21 0.25908321E-01 0.27854359E+03</pdfrwt>
<pdfrwt beam="2">  1       21 0.11217496E+00 0.27854359E+03</pdfrwt>
<totfact> 0.83490140E+03</totfact>
</mgrwt>
</event>
<event>
12    1  0.2742799E-001  0.2038641E+03  0.7546771E-02  0.1146593E+00
         21   -1    0    0  502  503  0.00000000000E+00  0.00000000000E+00  0.20650446587E+03  0.20650446587E+03  0.00000000000E+00 0. -1.
         21   -1    0    0  503  504 -0.00000000000E+00 -0.00000000000E+00 -0.37233270661E+03  0.37233270661E+03  0.00000000000E+00 0. -1.
         -6    2    1    2    0  504 -0.42772800124E+02  0.97834594369E+02 -0.27925706407E+03  0.34554189131E+03  0.17324425106E+03 0.  0.
        -24    2    3    3    0    0  0.25546030245E+01  0.10339051709E+03 -0.11317788330E+03  0.17323453209E+03  0.80652618188E+02 0.  0.
          6    2    1    2  502    0  0.42772800124E+02 -0.97834594369E+02  0.11342882333E+03  0.23329528118E+03  0.17366482077E+03 0.  0.
         24    2    5    5    0    0  0.12396996017E+01 -0.46385158352E+02 -0.11129214950E+02  0.92196600088E+02  0.78887476014E+02 0.  0.
          4    1    6    6  501    0  0.62063567778E+01 -0.68351745488E+02 -0.11926228817E+02  0.69661430574E+02  0.00000000000E+00 0. -1.
         -3    1    6    6    0  501 -0.49666571762E+01  0.21966587136E+02  0.79701386748E+00  0.22535169514E+02  0.00000000000E+00 0.  1.
          5    1    5    5  502    0  0.41533100523E+02 -0.51449436017E+02  0.12455803828E+03  0.14109868109E+03  0.47000000000E+01 0. -1.
         11    1    4    4    0    0  0.78624611184E+01  0.37157047989E+02  0.43458224079E+01  0.38227616751E+02  0.00000000000E+00 0. -1.
        -12    1    4    4    0    0 -0.53078580939E+01  0.66233469097E+02 -0.11752370571E+03  0.13500691534E+03  0.00000000000E+00 0.  1.
         -5    1    3    3    0  504 -0.45327403149E+02 -0.55559227165E+01 -0.16607918077E+03  0.17230735921E+03  0.47000000000E+01 0.  1.
<mgrwt>
<rscale>  2 0.20377455E+03</rscale>
<asrwt>0</asrwt>
<pdfrwt beam="1">  1       21 0.31769918E-01 0.20386415E+03</pdfrwt>
<pdfrwt beam="2">  1       21 0.57281955E-01 0.20386415E+03</pdfrwt>
<totfact> 0.27085874E+04</totfact>
</mgrwt>
</event>
<event>
12    1  0.2742799E-001  0.2317639E+03  0.7546771E-02  0.1125774E+00
         21   -1    0    0  502  503  0.00000000000E+00  0.00000000000E+00  0.65982281387E+02  0.65982281387E+02  0.00000000000E+00 0. -1.
         21   -1    0    0  503  504 -0.00000000000E+00 -0.00000000000E+00 -0.80667429220E+03  0.80667429220E+03  0.00000000000E+00 0. -1.
         -6    2    1    2    0  504 -0.25913606462E+02 -0.15119189744E+03 -0.37147139011E+03  0.43784185301E+03  0.17373540147E+03 0.  0.
        -24    2    3    3    0    0 -0.67338162219E+02 -0.13715124776E+03 -0.34640561582E+03  0.38721066990E+03  0.81181028283E+02 0.  0.
          6    2    1    2  502    0  0.25913606462E+02  0.15119189744E+03 -0.36922062070E+03  0.43481472058E+03  0.17090778107E+03 0.  0.
         24    2    5    5    0    0  0.66396477775E+02  0.73828206485E+02 -0.13892309385E+03  0.18847543337E+03  0.79776353926E+02 0.  0.
          4    1    6    6  501    0  0.12108406112E+02  0.60328718571E+02 -0.35886110490E+02  0.71231879865E+02  0.00000000000E+00 0. -1.
         -3    1    6    6    0  501  0.54288071663E+02  0.13499487914E+02 -0.10303698336E+03  0.11724355351E+03  0.00000000000E+00 0.  1.
          5    1    5    5  502    0 -0.40482871313E+02  0.77363690951E+02 -0.23029752685E+03  0.24633928721E+03  0.47000000000E+01 0. -1.
         13    1    4    4    0    0 -0.28408298251E+02 -0.90859002076E+02 -0.12171723395E+03  0.15452337916E+03  0.00000000000E+00 0. -1.
        -14    1    4    4    0    0 -0.38929863968E+02 -0.46292245687E+02 -0.22468838187E+03  0.23268729073E+03  0.00000000000E+00 0.  1.
         -5    1    3    3    0  504  0.41424555757E+02 -0.14040649673E+02 -0.25065774289E+02  0.50631183115E+02  0.47000000000E+01 0.  1.
<mgrwt>
<rscale>  2 0.23123406E+03</rscale>
<asrwt>0</asrwt>
<pdfrwt beam="1">  1       21 0.10151121E-01 0.23176388E+03</pdfrwt>
<pdfrwt beam="2">  1       21 0.12410373E+00 0.23176388E+03</pdfrwt>
<totfact> 0.37578787E+04</totfact>
</mgrwt>
</event>
<event>
12    1  0.2742799E-001  0.1853823E+03  0.7546771E-02  0.1163568E+00
         21   -1    0    0  502  503  0.00000000000E+00  0.00000000000E+00  0.71997802211E+03  0.71997802211E+03  0.00000000000E+00 0.  1.
         21   -1    0    0  503  504 -0.00000000000E+00 -0.00000000000E+00 -0.10696752533E+03  0.10696752533E+03  0.00000000000E+00 0.  1.
         -6    2    1    2    0  504  0.86959454849E+01 -0.34378006476E+02 -0.22806774549E+01  0.18539635617E+03  0.18195917288E+03 0.  0.
        -24    2    3    3    0    0 -0.61991775913E+02  0.84536198030E+01 -0.10034334256E+02  0.10224882848E+03  0.80247685911E+02 0.  0.
          6    2    1    2  502    0 -0.86959454849E+01  0.34378006476E+02  0.61529117423E+03  0.64154919128E+03  0.17817033688E+03 0.  0.
         24    2    5    5    0    0  0.63967906860E+01  0.16023815735E+02  0.61139934624E+03  0.61701547309E+03  0.81248088298E+02 0.  0.
          4    1    6    6  501    0  0.27291334978E+02  0.30488599942E+02  0.16886325960E+03  0.17375031549E+03  0.00000000000E+00 0. -1.
         -3    1    6    6    0  501 -0.20894544292E+02 -0.14464784207E+02  0.44253608664E+03  0.44326515760E+03  0.00000000000E+00 0.  1.
          5    1    5    5  502    0 -0.15092736171E+02  0.18354190741E+02  0.38918279951E+01  0.24533718186E+02  0.47000000000E+01 0. -1.
         11    1    4    4    0    0  0.11013591984E+02  0.75672826752E+01  0.19376043614E+02  0.23537078017E+02  0.00000000000E+00 0. -1.
        -12    1    4    4    0    0 -0.73005367897E+02  0.88633712777E+00 -0.29410377869E+02  0.78711750468E+02  0.00000000000E+00 0.  1.
         -5    1    3    3    0  504  0.70687721398E+02 -0.42831626279E+02  0.77536568008E+01  0.83147527684E+02  0.47000000000E+01 0.  1.
<mgrwt>
<rscale>  2 0.18444590E+03</rscale>
<asrwt>0</asrwt>
<pdfrwt beam="1">  1       21 0.11076585E+00 0.18538233E+03</pdfrwt>
<pdfrwt beam="2">  1       21 0.16456543E-01 0.18538233E+03</pdfrwt>
<totfact> 0.21363189E+04</totfact>
</mgrwt>
</event>
<event>
12    1  0.2742799E-001  0.1849556E+03  0.7546771E-02  0.1164058E+00
         21   -1    0    0  502  503  0.00000000000E+00  0.00000000000E+00  0.26105510493E+02  0.26105510493E+02  0.00000000000E+00 0. -1.
         21   -1    0    0  503  504 -0.00000000000E+00 -0.00000000000E+00 -0.16999890491E+04  0.16999890491E+04  0.00000000000E+00 0. -1.
         -6    2    1    2    0  504 -0.50134787313E+02 -0.43271902141E+02 -0.12580293817E+04  0.12709646384E+04  0.16830695923E+03 0.  0.
        -24    2    3    3    0    0 -0.33691454830E+02  0.24176294769E+01 -0.11390490552E+04  0.11423709972E+04  0.80235814535E+02 0.  0.
          6    2    1    2  502    0  0.50134787313E+02  0.43271902141E+02 -0.41585415690E+03  0.45512992115E+03  0.17269224331E+03 0.  0.
         24    2    5    5    0    0  0.80890213745E+02 -0.18551709478E+02 -0.24926129193E+03  0.27473222752E+03  0.80369226556E+02 0.  0.
          2    1    6    6  501    0  0.72956325341E+02  0.95626311080E+01 -0.10933086936E+03  0.13178508381E+03  0.00000000000E+00 0. -1.
         -1    1    6    6    0  501  0.79338884037E+01 -0.28114340586E+02 -0.13993042257E+03  0.14294714370E+03  0.00000000000E+00 0.  1.
          5    1    5    5  502    0 -0.30755426432E+02  0.61823611619E+02 -0.16659286497E+03  0.18039769363E+03  0.47000000000E+01 0. -1.
         11    1    4    4    0    0  0.12177114314E+02 -0.25748855013E+02 -0.23479575299E+03  0.23651708452E+03  0.00000000000E+00 0. -1.
        -12    1    4    4    0    0 -0.45868569145E+02  0.28166484490E+02 -0.90425330226E+03  0.90585391269E+03  0.00000000000E+00 0.  1.
         -5    1    3    3    0  504 -0.16443332483E+02 -0.45689531618E+02 -0.11898032644E+03  0.12859364122E+03  0.47000000000E+01 0.  1.
<mgrwt>
<rscale>  2 0.18392507E+03</rscale>
<asrwt>0</asrwt>
<pdfrwt beam="1">  1       21 0.40162329E-02 0.18495558E+03</pdfrwt>
<pdfrwt beam="2">  1       21 0.26153674E+00 0.18495558E+03</pdfrwt>
<totfact> 0.22309296E+04</totfact>
</mgrwt>
</event>
<event>
12    1  0.2742799E-001  0.1827075E+03  0.7546771E-02  0.1166169E+00
         21   -1    0    0  502  503  0.00000000000E+00  0.00000000000E+00  0.87865631665E+02  0.87865631665E+02  0.00000000000E+00 0. -1.
         21   -1    0    0  503  504 -0.00000000000E+00 -0.00000000000E+00 -0.37180150550E+03  0.37180150550E+03  0.00000000000E+00 0.  1.
         -6    2    1    2    0  504  0.51939092781E+02 -0.33731706611E+02 -0.13574775707E+03  0.22441883492E+03  0.16763311883E+03 0.  0.
        -24    2    3    3    0    0  0.50653856795E+02 -0.80435165365E+01 -0.16167905861E+03  0.18759415107E+03  0.80130744154E+02 0.  0.
          6    2    1    2  502    0 -0.51939092781E+02  0.33731706611E+02 -0.14818811677E+03  0.23524830225E+03  0.17189109450E+03 0.  0.
         24    2    5    5    0    0 -0.43801643825E+02  0.62979435598E+02 -0.16570933004E+03  0.19988263188E+03  0.81292626696E+02 0.  0.
          4    1    6    6  501    0 -0.65605534604E+02  0.41710755729E+02 -0.94070999051E+02  0.12203780634E+03  0.00000000000E+00 0. -1.
         -3    1    6    6    0  501  0.21803890778E+02  0.21268679869E+02 -0.71638330986E+02  0.77844825537E+02  0.00000000000E+00 0.  1.
          5    1    5    5  502    0 -0.81374489556E+01 -0.29247728987E+02  0.17521213265E+02  0.35365670370E+02  0.47000000000E+01 0. -1.
         11    1    4    4    0    0  0.70303457885E+02  0.45082816380E+01 -0.10650672855E+03  0.12769723576E+03  0.00000000000E+00 0. -1.
        -12    1    4    4    0    0 -0.19649601090E+02 -0.12551798175E+02 -0.55172330057E+02  0.59896915316E+02  0.00000000000E+00 0.  1.
         -5    1    3    3    0  504  0.12852359863E+01 -0.25688190074E+02  0.25931301540E+02  0.36824683847E+02  0.47000000000E+01 0.  1.
<mgrwt>
<rscale>  2 0.18169921E+03</rscale>
<asrwt>0</asrwt>
<pdfrwt beam="1">  1       21 0.13517789E-01 0.18270754E+03</pdfrwt>
<pdfrwt beam="2">  1       21 0.57200232E-01 0.18270754E+03</pdfrwt>
<totfact> 0.13642580E+05</totfact>
</mgrwt>
</event>
<event>
12    1  0.2742799E-001  0.3639035E+03  0.7546771E-02  0.1057078E+00
         21   -1    0    0  502  503  0.00000000000E+00  0.00000000000E+00  0.30763119178E+03  0.30763119178E+03  0.00000000000E+00 0.  1.
         21   -1    0    0  503  504 -0.00000000000E+00 -0.00000000000E+00 -0.44134722333E+03  0.44134722333E+03  0.00000000000E+00 0. -1.
         -6    2    1    2    0  504 -0.31609178443E+03 -0.48914770312E+02 -0.12657533778E+03  0.38500489371E+03  0.17291842328E+03 0.  0.
        -24    2    3    3    0    0 -0.24770646362E+03  0.15897989547E+02 -0.12793039742E+03  0.29065887032E+03  0.80654535652E+02 0.  0.
          6    2    1    2  502    0  0.31609178443E+03  0.48914770312E+02 -0.71406937679E+01  0.36397352140E+03  0.17354844809E+03 0.  0.
         24    2    5    5    0    0  0.15267946796E+03 -0.19751670818E+02 -0.52435610789E+02  0.18096427349E+03  0.79356326560E+02 0.  0.
          4    1    6    6  501    0  0.15446431414E+03 -0.20090279753E+02 -0.64625647735E+02  0.16863960990E+03  0.00000000000E+00 0. -1.
         -3    1    6    6    0  501 -0.17848461777E+01  0.33860893524E+00  0.12190036946E+02  0.12324663591E+02  0.00000000000E+00 0.  1.
          5    1    5    5  502    0  0.16341231647E+03  0.68666441130E+02  0.45294917021E+02  0.18300924791E+03  0.47000000000E+01 0. -1.
         13    1    4    4    0    0  0.36238946082E+01 -0.19183586159E+01  0.44392703714E+01  0.60431641829E+01  0.00000000000E+00 0. -1.
        -14    1    4    4    0    0 -0.25133035823E+03  0.17816348163E+02 -0.13236966779E+03  0.28461570614E+03  0.00000000000E+00 0.  1.
         -5    1    3    3    0  504 -0.68385320803E+02 -0.64812759859E+02  0.13550596419E+01  0.94346023385E+02  0.47000000000E+01 0.  1.
<mgrwt>
<rscale>  2 0.36382844E+03</rscale>
<asrwt>0</asrwt>
<pdfrwt beam="1">  1       21 0.47327876E-01 0.36390347E+03</pdfrwt>
<pdfrwt beam="2">  1       21 0.67899572E-01 0.36390347E+03</pdfrwt>
<totfact> 0.77328913E+03</totfact>
</mgrwt>
</event>
<event>
12    1  0.2742799E-001  0.1997832E+03  0.7546771E-02  0.1150028E+00
         21   -1    0    0  502  503  0.00000000000E+00  0.00000000000E+00  0.70995113895E+02  0.70995113895E+02  0.00000000000E+00 0.  1.
         21   -1    0    0  503  504 -0.00000000000E+00 -0.00000000000E+00 -0.59852833206E+03  0.59852833206E+03  0.00000000000E+00 0. -1.
         -6    2    1    2    0  504  0.75860187289E+02  0.63587909427E+02 -0.18001891421E+03  0.26892402285E+03  0.17353711520E+03 0.  0.
        -24    2    3    3    0    0  0.95105350309E+02  0.59100335863E+02 -0.19853975404E+03  0.24143536838E+03  0.79593503583E+02 0.  0.
          6    2    1    2  502    0 -0.75860187289E+02 -0.63587909427E+02 -0.34751430396E+03  0.40059942311E+03  0.17296102480E+03 0.  0.
         24    2    5    5    0    0 -0.60689323370E+02  0.37873634033E+02 -0.17613576165E+03  0.20080629340E+03  0.64666489105E+02 0.  0.
          2    1    6    6  501    0 -0.20981241612E+02 -0.11175329320E+02 -0.95486290579E+02  0.98400874862E+02  0.00000000000E+00 0. -1.
         -1    1    6    6    0  501 -0.39708081758E+02  0.49048963354E+02 -0.80649471066E+02  0.10240541854E+03  0.00000000000E+00 0.  1.
          5    1    5    5  502    0 -0.15170863919E+02 -0.10146154346E+03 -0.17137854232E+03  0.19979312971E+03  0.47000000000E+01 0. -1.
         13    1    4    4    0    0  0.74219479983E+02  0.73070994228E+02 -0.11960588266E+03  0.15859845072E+03  0.00000000000E+00 0. -1.
        -14    1    4    4    0    0  0.20885870327E+02 -0.13970658365E+02 -0.78933871386E+02  0.82836917654E+02  0.00000000000E+00 0.  1.
         -5    1    3    3    0  504 -0.19245163020E+02  0.44875735645E+01  0.18520839836E+02  0.27488654467E+02  0.47000000000E+01 0.  1.
<mgrwt>
<rscale>  2 0.19965802E+03</rscale>
<asrwt>0</asrwt>
<pdfrwt beam="1">  1       21 0.10922325E-01 0.19978318E+03</pdfrwt>
<pdfrwt beam="2">  1       21 0.92081286E-01 0.19978318E+03</pdfrwt>
<totfact> 0.68914730E+04</totfact>
</mgrwt>
</event>
<event>
12    1  0.2742799E-001  0.1890783E+03  0.7546771E-02  0.1159325E+00
         21   -1    0    0  502  503  0.00000000000E+00  0.00000000000E+00  0.12478550264E+03  0.12478550264E+03  0.00000000000E+00 0.  1.
         21   -1    0    0  503  504 -0.00000000000E+00 -0.00000000000E+00 -0.99755675199E+03  0.99755675199E+03  0.00000000000E+00 0. -1.
         -6    2    1    2    0  504 -0.70823199268E+02  0.28537927288E+02 -0.91027671990E+03  0.92970657358E+03  0.17297475916E+03 0.  0.
        -24    2    3    3    0    0 -0.33655121977E+01 -0.12697054481E+02 -0.22482161827E+03  0.23969088563E+03  0.82063504344E+02 0.  0.
          6    2    1    2  502    0  0.70823199268E+02 -0.28537927288E+02  0.37505470551E+02  0.19263568105E+03  0.17283375378E+03 0.  0.
         24    2    5    5    0    0  0.19279289477E+02  0.38758760655E+02  0.52370275821E+02  0.10644594106E+03  0.81939978324E+02 0.  0.
          4    1    6    6  501    0 -0.23161173131E+01  0.60953235362E+02  0.28394765258E+02  0.67282419654E+02  0.00000000000E+00 0. -1.
         -3    1    6    6    0  501  0.21595406791E+02 -0.22194474707E+02  0.23975510563E+02  0.39163521403E+02  0.00000000000E+00 0.  1.
          5    1    5    5  502    0  0.51543909791E+02 -0.67296687944E+02 -0.14864805270E+02  0.86189739995E+02  0.47000000000E+01 0. -1.
         11    1    4    4    0    0  0.18367835008E+02 -0.36197020056E+02 -0.18056961415E+03  0.18507562557E+03  0.00000000000E+00 0. -1.
        -12    1    4    4    0    0 -0.21733347205E+02  0.23499965576E+02 -0.44252004122E+02  0.54615260062E+02  0.00000000000E+00 0.  1.
         -5    1    3    3    0  504 -0.67457687071E+02  0.41234981769E+02 -0.68545510163E+03  0.69001568795E+03  0.47000000000E+01 0.  1.
<mgrwt>
<rscale>  2 0.18904605E+03</rscale>
<asrwt>0</asrwt>
<pdfrwt beam="1">  1       21 0.19197770E-01 0.18907831E+03</pdfrwt>
<pdfrwt beam="2">  1       21 0.15347027E+00 0.18907831E+03</pdfrwt>
<totfact> 0.70307205E+03</totfact>
</mgrwt>
</event>
<event>
12    1  0.2742799E-001  0.2263344E+03  0.7546771E-02  0.1129395E+00
         21   -1    0    0  502  503  0.00000000000E+00  0.00000000000E+00  0.19630885080E+03  0.19630885080E+03  0.00000000000E+00 0.  1.
         21   -1    0    0  503  504 -0.00000000000E+00 -0.00000000000E+00 -0.11530063505E+04  0.11530063505E+04  0.00000000000E+00 0. -1.
         -6    2    1    2    0  504  0.47289231636E+02  0.13789754885E+03 -0.10718889478E+04  0.10953539033E+04  0.17205304899E+03 0.  0.
        -24    2    3    3    0    0  0.85864658970E+02  0.47969828287E+02 -0.57233141824E+03  0.58628134083E+03  0.80552555660E+02 0.  0.
          6    2    1    2  502    0 -0.47289231636E+02 -0.13789754885E+03  0.11519144805E+03  0.25396129804E+03  0.17313366452E+03 0.  0.
         24    2    5    5    0    0 -0.32484043394E+02 -0.15649674935E+03  0.13260792054E+03  0.22411925769E+03  0.84250432901E+02 0.  0.
          2    1    6    6  501    0  0.13608092254E+02 -0.62196359081E+02  0.91331261401E+02  0.11133268418E+03  0.00000000000E+00 0. -1.
         -1    1    6    6    0  501 -0.46092135647E+02 -0.94300390274E+02  0.41276659135E+02  0.11278657351E+03  0.00000000000E+00 0.  1.
          5    1    5    5  502    0 -0.14805188243E+02  0.18599200508E+02 -0.17416472485E+02  0.29842040350E+02  0.47000000000E+01 0. -1.
         11    1    4    4    0    0  0.37570897461E+02  0.12363994429E+02 -0.43006385632E+03  0.43187887330E+03  0.00000000000E+00 0. -1.
        -12    1    4    4    0    0  0.48293761509E+02  0.35605833858E+02 -0.14226756192E+03  0.15440246753E+03  0.00000000000E+00 0.  1.
         -5    1    3    3    0  504 -0.38575427334E+02  0.89927720560E+02 -0.49955752951E+03  0.50907256242E+03  0.47000000000E+01 0.  1.
<mgrwt>
<rscale>  2 0.22612776E+03</rscale>
<asrwt>0</asrwt>
<pdfrwt beam="1">  1       21 0.30201362E-01 0.22633442E+03</pdfrwt>
<pdfrwt beam="2">  1       21 0.17738559E+00 0.22633442E+03</pdfrwt>
<totfact> 0.19316730E+03</totfact>
</mgrwt>
</event>
<event>
12    1  0.2742799E-001  0.1856297E+03  0.7546771E-02  0.1162590E+00
         21   -1    0    0  502  503  0.00000000000E+00  0.00000000000E+00  0.29272607540E+03  0.29272607540E+03  0.00000000000E+00 0.  1.
         21   -1    0    0  503  504 -0.00000000000E+00 -0.00000000000E+00 -0.31677668497E+03  0.31677668497E+03  0.00000000000E+00 0.  1.
         -6    2    1    2    0  504 -0.39429672459E+01 -0.65873868937E+02 -0.25380842318E+03  0.31412663535E+03  0.17292169834E+03 0.  0.
        -24    2    3    3    0    0 -0.67407542416E+00 -0.16418606346E+02 -0.25094880951E+03  0.26425905027E+03  0.81163511761E+02 0.  0.
          6    2    1    2  502    0  0.39429672459E+01  0.65873868937E+02  0.22975781361E+03  0.29537612502E+03  0.17350356975E+03 0.  0.
         24    2    5    5    0    0  0.20127316285E+02  0.10304630985E+03  0.12636542505E+03  0.18421948091E+03  0.83336340606E+02 0.  0.
          4    1    6    6  501    0 -0.29697764707E+02  0.43626767067E+02  0.30635865120E+02  0.61023014224E+02  0.00000000000E+00 0. -1.
         -3    1    6    6    0  501  0.49825080992E+02  0.59419542780E+02  0.95729559934E+02  0.12319646669E+03  0.00000000000E+00 0.  1.
          5    1    5    5  502    0 -0.16184349039E+02 -0.37172440910E+02  0.10339238856E+03  0.11115664411E+03  0.47000000000E+01 0. -1.
         13    1    4    4    0    0  0.40934447754E+01  0.24061596067E+02 -0.26054453717E+02  0.35700857887E+02  0.00000000000E+00 0. -1.
        -14    1    4    4    0    0 -0.47675201996E+01 -0.40480202412E+02 -0.22489435579E+03  0.22855819238E+03  0.00000000000E+00 0.  1.
         -5    1    3    3    0  504 -0.32688918217E+01 -0.49455262591E+02 -0.28596136728E+01  0.49867585084E+02  0.47000000000E+01 0.  1.
<mgrwt>
<rscale>  2 0.18549366E+03</rscale>
<asrwt>0</asrwt>
<pdfrwt beam="1">  1       21 0.45034781E-01 0.18562975E+03</pdfrwt>
<pdfrwt beam="2">  1       21 0.48734874E-01 0.18562975E+03</pdfrwt>
<totfact> 0.19095274E+04</totfact>
</mgrwt>
</event>
<event>
12    1  0.2742799E-001  0.1799005E+03  0.7546771E-02  0.1168125E+00
         21   -1    0    0  502  503  0.00000000000E+00  0.00000000000E+00  0.51858211237E+03  0.51858211237E+03  0.00000000000E+00 0.  1.
         21   -1    0    0  503  504 -0.00000000000E+00 -0.00000000000E+00 -0.62562727813E+02  0.62562727813E+02  0.00000000000E+00 0.  1.
         -6    2    1    2    0  504 -0.51624062787E+02  0.12119362746E+01  0.20326117784E+03  0.27143932080E+03  0.17233016512E+03 0.  0.
        -24    2    3    3    0    0 -0.97512623236E+02  0.22978674142E+02  0.13950325960E+03  0.18978937900E+03  0.80759629688E+02 0.  0.
          6    2    1    2  502    0  0.51624062787E+02 -0.12119362746E+01  0.25275820671E+03  0.30970551937E+03  0.17136010336E+03 0.  0.
         24    2    5    5    0    0  0.90028469472E+02  0.28005418580E+02  0.20324139460E+03  0.24040503627E+03  0.87167013244E+02 0.  0.
          2    1    6    6  501    0  0.60766585743E+02  0.38176434766E+02  0.59084323793E+02  0.92956847151E+02  0.00000000000E+00 0. -1.
         -1    1    6    6    0  501  0.29261883730E+02 -0.10171016185E+02  0.14415707081E+03  0.14744818911E+03  0.00000000000E+00 0.  1.
          5    1    5    5  502    0 -0.38404406685E+02 -0.29217354855E+02  0.49516812110E+02  0.69300483109E+02  0.47000000000E+01 0. -1.
         13    1    4    4    0    0 -0.17395137604E+02 -0.20440276937E+01  0.91369233840E+02  0.93032820842E+02  0.00000000000E+00 0. -1.
        -14    1    4    4    0    0 -0.80117485632E+02  0.25022701835E+02  0.48134025763E+02  0.96756558162E+02  0.00000000000E+00 0.  1.
         -5    1    3    3    0  504  0.45888560449E+02 -0.21766737867E+02  0.63757918241E+02  0.81649941799E+02  0.47000000000E+01 0.  1.
<mgrwt>
<rscale>  2 0.17966782E+03</rscale>
<asrwt>0</asrwt>
<pdfrwt beam="1">  1       21 0.79781860E-01 0.17990052E+03</pdfrwt>
<pdfrwt beam="2">  1       21 0.96250354E-02 0.17990052E+03</pdfrwt>
<totfact> 0.12069522E+05</totfact>
</mgrwt>
</event>
<event>
12    1  0.2742799E-001  0.1893102E+03  0.7546771E-02  0.1159171E+00
         21   -1    0    0  502  503  0.00000000000E+00  0.00000000000E+00  0.30288319599E+02  0.30288319599E+02  0.00000000000E+00 0. -1.
         21   -1    0    0  503  504 -0.00000000000E+00 -0.00000000000E+00 -0.14864454003E+04  0.14864454003E+04  0.00000000000E+00 0. -1.
         -6    2    1    2    0  504 -0.43372051324E+02  0.64993215404E+02 -0.10713454327E+04  0.10878766671E+04  0.17201556275E+03 0.  0.
        -24    2    3    3    0    0 -0.69150703456E+02  0.62257929946E+02 -0.45583955352E+03  0.47180719215E+03  0.78450356168E+02 0.  0.
          6    2    1    2  502    0  0.43372051324E+02 -0.64993215404E+02 -0.38481164798E+03  0.42885705275E+03  0.17243292722E+03 0.  0.
         24    2    5    5    0    0  0.76526745828E+02 -0.67922386914E+01 -0.30432821990E+03  0.32404169294E+03  0.80528727788E+02 0.  0.
          4    1    6    6  501    0  0.35430490450E+02  0.35674183582E+02 -0.11041764638E+03  0.12132610461E+03  0.00000000000E+00 0. -1.
         -3    1    6    6    0  501  0.41096255377E+02 -0.42466422274E+02 -0.19391057353E+03  0.20271558833E+03  0.00000000000E+00 0.  1.
          5    1    5    5  502    0 -0.33154694504E+02 -0.58200976712E+02 -0.80483428080E+02  0.10481535982E+03  0.47000000000E+01 0. -1.
         11    1    4    4    0    0 -0.56977159623E+02  0.22077359386E+02 -0.38208455289E+03  0.38693980420E+03  0.00000000000E+00 0. -1.
        -12    1    4    4    0    0 -0.12173543834E+02  0.40180570560E+02 -0.73755000631E+02  0.84867387954E+02  0.00000000000E+00 0.  1.
         -5    1    3    3    0  504  0.25778652133E+02  0.27352854577E+01 -0.61550587920E+03  0.61606947499E+03  0.47000000000E+01 0.  1.
<mgrwt>
<rscale>  2 0.18921515E+03</rscale>
<asrwt>0</asrwt>
<pdfrwt beam="1">  1       21 0.46597418E-02 0.18931024E+03</pdfrwt>
<pdfrwt beam="2">  1       21 0.22868389E+00 0.18931024E+03</pdfrwt>
<totfact> 0.27065802E+04</totfact>
</mgrwt>
</event>
<event>
12    1  0.2742799E-001  0.2035810E+03  0.7546771E-02  0.1146987E+00
         21   -1    0    0  502  503  0.00000000000E+00  0.00000000000E+00  0.30277334290E+03  0.30277334290E+03  0.00000000000E+00 0.  1.
         21   -1    0    0  503  504 -0.00000000000E+00 -0.00000000000E+00 -0.11245956897E+04  0.11245956897E+04  0.00000000000E+00 0.  1.
         -6    2    1    2    0  504  0.80698398212E+02  0.69253646688E+02 -0.10798708582E+04  0.10986833715E+04  0.17226659981E+03 0.  0.
        -24    2    3    3    0    0  0.11690437019E+03  0.57074234863E+02 -0.67597525782E+03  0.69295814863E+03  0.79525760107E+02 0.  0.
          6    2    1    2  502    0 -0.80698398212E+02 -0.69253646688E+02  0.25804851133E+03  0.32868566116E+03  0.17359991532E+03 0.  0.
         24    2    5    5    0    0 -0.34651462374E+02  0.15993644866E+02  0.57315472930E+02  0.10574337328E+03  0.80250090565E+02 0.  0.
          4    1    6    6  501    0 -0.49235682222E+02  0.24638738351E+02  0.10628066466E+02  0.56072949166E+02  0.00000000000E+00 0. -1.
         -3    1    6    6    0  501  0.14584219847E+02 -0.86450934841E+01  0.46687406463E+02  0.49670424119E+02  0.00000000000E+00 0.  1.
          5    1    5    5  502    0 -0.46046935838E+02 -0.85247291554E+02  0.20073303840E+03  0.22294228787E+03  0.47000000000E+01 0. -1.
         11    1    4    4    0    0  0.19299432040E+02 -0.20052774495E+02 -0.13941013004E+03  0.14216105725E+03  0.00000000000E+00 0. -1.
        -12    1    4    4    0    0  0.97604938146E+02  0.77127009358E+02 -0.53656512778E+03  0.55079709138E+03  0.00000000000E+00 0.  1.
         -5    1    3    3    0  504 -0.36205971974E+02  0.12179411825E+02 -0.40389560034E+03  0.40572522285E+03  0.47000000000E+01 0.  1.
<mgrwt>
<rscale>  2 0.20329648E+03</rscale>
<asrwt>0</asrwt>
<pdfrwt beam="1">  1       21 0.46580514E-01 0.20358101E+03</pdfrwt>
<pdfrwt beam="2">  1       21 0.17301472E+00 0.20358101E+03</pdfrwt>
<totfact> 0.88663577E+02</totfact>
</mgrwt>
</event>
<event>
12    1  0.2742799E-001  0.1730879E+03  0.7546771E-02  0.1175152E+00
         21   -1    0    0  502  503  0.00000000000E+00  0.00000000000E+00  0.27488147001E+03  0.27488147001E+03  0.00000000000E+00 0.  1.
         21   -1    0    0  503  504 -0.00000000000E+00 -0.00000000000E+00 -0.13074271414E+03  0.13074271414E+03  0.00000000000E+00 0.  1.
         -6    2    1    2    0  504 -0.16516824601E+02  0.13112463397E+02 -0.13220999827E+02  0.17169787385E+03  0.16988414540E+03 0.  0.
        -24    2    3    3    0    0 -0.50977860471E+02 -0.33963511571E+01  0.40549458453E+02  0.10556576263E+03  0.83003579434E+02 0.  0.
          6    2    1    2  502    0  0.16516824601E+02 -0.13112463397E+02  0.15735975570E+03  0.23392631030E+03  0.17179838109E+03 0.  0.
         24    2    5    5    0    0  0.15203601942E+02 -0.17726955674E+02  0.85532416079E+01  0.84968307062E+02  0.81246912517E+02 0.  0.
          2    1    6    6  501    0 -0.25325299785E+02  0.94860778614E+01 -0.14826367202E+02  0.30841168052E+02  0.00000000000E+00 0. -1.
         -1    1    6    6    0  501  0.40528901727E+02 -0.27213033535E+02  0.23379608810E+02  0.54127139011E+02  0.00000000000E+00 0.  1.
          5    1    5    5  502    0  0.13132226589E+01  0.46144922763E+01  0.14880651409E+03  0.14895800324E+03  0.47000000000E+01 0. -1.
         13    1    4    4    0    0 -0.45766547721E+02 -0.33452853594E+02  0.24274486948E+01  0.56741191484E+02  0.00000000000E+00 0. -1.
        -14    1    4    4    0    0 -0.52113127500E+01  0.30056502437E+02  0.38122009758E+02  0.48824571143E+02  0.00000000000E+00 0.  1.
         -5    1    3    3    0  504  0.34461035870E+02  0.16508814555E+02 -0.53770458280E+02  0.66132111223E+02  0.47000000000E+01 0.  1.
<mgrwt>
<rscale>  2 0.17261099E+03</rscale>
<asrwt>0</asrwt>
<pdfrwt beam="1">  1       21 0.42289457E-01 0.17308791E+03</pdfrwt>
<pdfrwt beam="2">  1       21 0.20114264E-01 0.17308791E+03</pdfrwt>
<totfact> 0.12373582E+05</totfact>
</mgrwt>
</event>
<event>
12    1  0.2742799E-001  0.2524129E+03  0.7546771E-02  0.1111942E+00
         21   -1    0    0  502  503  0.00000000000E+00  0.00000000000E+00  0.24511106135E+03  0.24511106135E+03  0.00000000000E+00 0.  1.
         21   -1    0    0  503  504 -0.00000000000E+00 -0.00000000000E+00 -0.35380503810E+03  0.35380503810E+03  0.00000000000E+00 0. -1.
         -6    2    1    2    0  504 -0.13719289158E+03 -0.12069860206E+03 -0.20949706862E+03  0.32802639392E+03  0.17413285535E+03 0.  0.
        -24    2    3    3    0    0 -0.85993162539E+02  0.13202572009E+01 -0.11848384172E+03  0.16735433120E+03  0.81070859992E+02 0.  0.
          6    2    1    2  502    0  0.13719289158E+03  0.12069860206E+03  0.10080309187E+03  0.27088970552E+03  0.17271342504E+03 0.  0.
         24    2    5    5    0    0  0.13741921520E+03  0.14251156327E+03  0.67683403080E+02  0.23095400365E+03  0.97801443642E+02 0.  0.
          2    1    6    6  501    0  0.28798907266E+02  0.91237252415E+02  0.58366485026E+01  0.95852385227E+02  0.00000000000E+00 0. -1.
         -1    1    6    6    0  501  0.10862030793E+03  0.51274310850E+02  0.61846754577E+02  0.13510161842E+03  0.00000000000E+00 0.  1.
          5    1    5    5  502    0 -0.22632361595E+00 -0.21812961203E+02  0.33119688789E+02  0.39935701876E+02  0.47000000000E+01 0. -1.
         13    1    4    4    0    0 -0.60264843182E+00 -0.24409242202E+02 -0.47359666814E+02  0.53283321319E+02  0.00000000000E+00 0. -1.
        -14    1    4    4    0    0 -0.85390514107E+02  0.25729499403E+02 -0.71124174906E+02  0.11407100988E+03  0.00000000000E+00 0.  1.
         -5    1    3    3    0  504 -0.51199729040E+02 -0.12201885926E+03 -0.91013226898E+02  0.16067206272E+03  0.47000000000E+01 0.  1.
<mgrwt>
<rscale>  2 0.25216831E+03</rscale>
<asrwt>0</asrwt>
<pdfrwt beam="1">  1       21 0.37709394E-01 0.25241294E+03</pdfrwt>
<pdfrwt beam="2">  1       21 0.54431544E-01 0.25241294E+03</pdfrwt>
<totfact> 0.20941113E+04</totfact>
</mgrwt>
</event>
<event>
12    1  0.2742799E-001  0.1951360E+03  0.7546771E-02  0.1154096E+00
         21   -1    0    0  502  503  0.00000000000E+00  0.00000000000E+00  0.43009334801E+02  0.43009334801E+02  0.00000000000E+00 0.  1.
         21   -1    0    0  503  504 -0.00000000000E+00 -0.00000000000E+00 -0.19386010234E+04  0.19386010234E+04  0.00000000000E+00 0.  1.
         -6    2    1    2    0  504 -0.74514049587E+02 -0.48808535066E+02 -0.16785093005E+04  0.16897151359E+04  0.17265327072E+03 0.  0.
        -24    2    3    3    0    0 -0.11143782299E+03 -0.10732024371E+02 -0.10184091388E+04  0.10274708463E+04  0.77495813513E+02 0.  0.
          6    2    1    2  502    0  0.74514049587E+02  0.48808535066E+02 -0.21708238803E+03  0.29189522225E+03  0.17361866517E+03 0.  0.
         24    2    5    5    0    0  0.11681414306E+03  0.20550219757E+02 -0.16874443617E+03  0.22156402091E+03  0.80920177162E+02 0.  0.
          4    1    6    6  501    0  0.75470952690E+02  0.50060860317E+02 -0.88722020174E+02  0.12678151008E+03  0.00000000000E+00 0. -1.
         -3    1    6    6    0  501  0.41343190369E+02 -0.29510640560E+02 -0.80022415996E+02  0.94782510823E+02  0.00000000000E+00 0.  1.
          5    1    5    5  502    0 -0.42300093472E+02  0.28258315309E+02 -0.48337951861E+02  0.70331201340E+02  0.47000000000E+01 0. -1.
         13    1    4    4    0    0 -0.56833601735E+02 -0.39693355561E+01 -0.80735330557E+03  0.80936096640E+03  0.00000000000E+00 0. -1.
        -14    1    4    4    0    0 -0.54604221259E+02 -0.67626888148E+01 -0.21105583327E+03  0.21810987987E+03  0.00000000000E+00 0.  1.
         -5    1    3    3    0  504  0.36923773408E+02 -0.38076510695E+02 -0.66010016168E+03  0.66224428964E+03  0.47000000000E+01 0.  1.
<mgrwt>
<rscale>  2 0.19492103E+03</rscale>
<asrwt>0</asrwt>
<pdfrwt beam="1">  1       21 0.66168193E-02 0.19513600E+03</pdfrwt>
<pdfrwt beam="2">  1       21 0.29824638E+00 0.19513600E+03</pdfrwt>
<totfact> 0.58072847E+03</totfact>
</mgrwt>
</event>
<event>
12    1  0.2742799E-001  0.1731558E+03  0.7546771E-02  0.1174869E+00
         21   -1    0    0  502  503  0.00000000000E+00  0.00000000000E+00  0.16650722571E+03  0.16650722571E+03  0.00000000000E+00 0. -1.
         21   -1    0    0  503  504 -0.00000000000E+00 -0.00000000000E+00 -0.32509304527E+03  0.32509304527E+03  0.00000000000E+00 0. -1.
         -6    2    1    2    0  504  0.78103135867E+01  0.16066503301E+01 -0.24422393802E+03  0.29937978010E+03  0.17297207435E+03 0.  0.
        -24    2    3    3    0    0  0.15354135216E+02 -0.37187850440E+02 -0.24459295732E+03  0.25957841442E+03  0.77049028386E+02 0.  0.
          6    2    1    2  502    0 -0.78103135867E+01 -0.16066503301E+01  0.85638118457E+02  0.19222049088E+03  0.17190476275E+03 0.  0.
         24    2    5    5    0    0  0.37638530738E+02  0.11413997697E+02  0.10670828484E+03  0.14024764569E+03  0.82071954578E+02 0.  0.
          2    1    6    6  501    0 -0.17829175715E+02 -0.18763382450E+02  0.45260287249E+02  0.52138638547E+02  0.00000000000E+00 0. -1.
         -1    1    6    6    0  501  0.55467706453E+02  0.30177380146E+02  0.61447997593E+02  0.88109007143E+02  0.00000000000E+00 0.  1.
          5    1    5    5  502    0 -0.45448844325E+02 -0.13020648027E+02 -0.21070166385E+02  0.51972845188E+02  0.47000000000E+01 0. -1.
         13    1    4    4    0    0 -0.64987954873E+01  0.68153097772E+01 -0.16999068745E+03  0.17025133365E+03  0.00000000000E+00 0. -1.
        -14    1    4    4    0    0  0.21852930703E+02 -0.44003160217E+02 -0.74602269865E+02  0.89327080767E+02  0.00000000000E+00 0.  1.
         -5    1    3    3    0  504 -0.75438216295E+01  0.38794500770E+02  0.36901929267E+00  0.39801365680E+02  0.47000000000E+01 0.  1.
<mgrwt>
<rscale>  2 0.17288861E+03</rscale>
<asrwt>0</asrwt>
<pdfrwt beam="1">  1       21 0.25616496E-01 0.17315577E+03</pdfrwt>
<pdfrwt beam="2">  1       21 0.50014315E-01 0.17315577E+03</pdfrwt>
<totfact> 0.55557134E+04</totfact>
</mgrwt>
</event>
<event>
12    1  0.2742799E-001  0.2652272E+03  0.7546771E-02  0.1104181E+00
         21   -1    0    0  502  503  0.00000000000E+00  0.00000000000E+00  0.50193090003E+03  0.50193090003E+03  0.00000000000E+00 0. -1.
         21   -1    0    0  503  504 -0.00000000000E+00 -0.00000000000E+00 -0.56035135082E+03  0.56035135082E+03  0.00000000000E+00 0.  1.
         -6    2    1    2    0  504  0.19244794840E+03  0.57021488721E+02 -0.48944302587E+03  0.55668657413E+03  0.17337186399E+03 0.  0.
        -24    2    3    3    0    0  0.88109949649E+02  0.38542524401E+02 -0.15108900138E+03  0.20209747955E+03  0.93630206072E+02 0.  0.
          6    2    1    2  502    0 -0.19244794840E+03 -0.57021488721E+02  0.43102257507E+03  0.50559567672E+03  0.17192691783E+03 0.  0.
         24    2    5    5    0    0 -0.12713662994E+03  0.17943999667E+02  0.18187125079E+03  0.23729758660E+03  0.82141846503E+02 0.  0.
          4    1    6    6  501    0 -0.10119602288E+03 -0.14947442679E+02  0.89692841167E+02  0.13604729636E+03  0.00000000000E+00 0. -1.
         -3    1    6    6    0  501 -0.25940607060E+02  0.32891442346E+02  0.92178409620E+02  0.10125029024E+03  0.00000000000E+00 0.  1.
          5    1    5    5  502    0 -0.65311318461E+02 -0.74965488388E+02  0.24915132429E+03  0.26829809012E+03  0.47000000000E+01 0. -1.
         11    1    4    4    0    0  0.39579557735E+02  0.63348943551E+02 -0.59414121756E+02  0.95444580274E+02  0.00000000000E+00 0. -1.
        -12    1    4    4    0    0  0.48530391915E+02 -0.24806419151E+02 -0.91674879626E+02  0.10665289928E+03  0.00000000000E+00 0.  1.
         -5    1    3    3    0  504  0.10433799875E+03  0.18478964321E+02 -0.33835402449E+03  0.35458909457E+03  0.47000000000E+01 0.  1.
<mgrwt>
<rscale>  2 0.26499132E+03</rscale>
<asrwt>0</asrwt>
<pdfrwt beam="1">  1       21 0.77220138E-01 0.26522720E+03</pdfrwt>
<pdfrwt beam="2">  1       21 0.86207900E-01 0.26522720E+03</pdfrwt>
<totfact> 0.16294630E+03</totfact>
</mgrwt>
</event>
<event>
12    1  0.2742799E-001  0.1824074E+03  0.7546771E-02  0.1165661E+00
         21   -1    0    0  502  503  0.00000000000E+00  0.00000000000E+00  0.22276377910E+03  0.22276377910E+03  0.00000000000E+00 0.  1.
         21   -1    0    0  503  504 -0.00000000000E+00 -0.00000000000E+00 -0.35817774802E+03  0.35817774802E+03  0.00000000000E+00 0.  1.
         -6    2    1    2    0  504  0.43679878038E+02 -0.17921584332E+02 -0.28985192667E+03  0.34247129724E+03  0.17619118909E+03 0.  0.
        -24    2    3    3    0    0 -0.26623284673E+02 -0.42985488475E+01 -0.58957612048E+02  0.10068131336E+03  0.77028890893E+02 0.  0.
          6    2    1    2  502    0 -0.43679878038E+02  0.17921584332E+02  0.15443795775E+03  0.23847022988E+03  0.17546467683E+03 0.  0.
         24    2    5    5    0    0  0.75421692294E+01  0.69137428488E+02  0.11151603395E+03  0.15414264032E+03  0.80543524888E+02 0.  0.
          4    1    6    6  501    0 -0.37128187484E+01  0.63193797906E+02  0.27246700388E+02  0.68917514457E+02  0.00000000000E+00 0. -1.
         -3    1    6    6    0  501  0.11254987978E+02  0.59436305812E+01  0.84269333562E+02  0.85225125860E+02  0.00000000000E+00 0.  1.
          5    1    5    5  502    0 -0.51222047268E+02 -0.51215844155E+02  0.42921923803E+02  0.84327589565E+02  0.47000000000E+01 0. -1.
         11    1    4    4    0    0 -0.56346029361E+01  0.12952079583E+01  0.18944782702E+02  0.19807349785E+02  0.00000000000E+00 0. -1.
        -12    1    4    4    0    0 -0.20988681737E+02 -0.55937568058E+01 -0.77902394750E+02  0.80873963573E+02  0.00000000000E+00 0.  1.
         -5    1    3    3    0  504  0.70303162712E+02 -0.13623035485E+02 -0.23089431462E+03  0.24178998388E+03  0.47000000000E+01 0.  1.
<mgrwt>
<rscale>  2 0.18223171E+03</rscale>
<asrwt>0</asrwt>
<pdfrwt beam="1">  1       21 0.34271351E-01 0.18240737E+03</pdfrwt>
<pdfrwt beam="2">  1       21 0.55104269E-01 0.18240737E+03</pdfrwt>
<totfact> 0.25635793E+04</totfact>
</mgrwt>
</event>
<event>
12    1  0.2742799E-001  0.2093245E+03  0.7546771E-02  0.1142251E+00
         21   -1    0    0  502  503  0.00000000000E+00  0.00000000000E+00  0.17510711557E+03  0.17510711557E+03  0.00000000000E+00 0.  1.
         21   -1    0    0  503  504 -0.00000000000E+00 -0.00000000000E+00 -0.24985084182E+03  0.24985084182E+03  0.00000000000E+00 0.  1.
         -6    2    1    2    0  504 -0.11512646388E+03 -0.23117353150E+02 -0.27643950594E+02  0.21039992690E+03  0.17238163050E+03 0.  0.
        -24    2    3    3    0    0 -0.40387372805E+02  0.47963009702E+02 -0.28539000092E+02  0.10714664206E+03  0.82063013569E+02 0.  0.
          6    2    1    2  502    0  0.11512646388E+03  0.23117353150E+02 -0.47099775661E+02  0.21455803049E+03  0.17328659751E+03 0.  0.
         24    2    5    5    0    0  0.11453764977E+03  0.31890138574E+02  0.20432929666E+02  0.14629336353E+03  0.82754996501E+02 0.  0.
          2    1    6    6  501    0  0.50396012264E+02  0.50500963548E+02 -0.11498237805E+02  0.72265585474E+02  0.00000000000E+00 0. -1.
         -1    1    6    6    0  501  0.64141637504E+02 -0.18610824974E+02  0.31931167471E+02  0.74027778057E+02  0.00000000000E+00 0.  1.
          5    1    5    5  502    0  0.58881411208E+00 -0.87727854237E+01 -0.67532705327E+02  0.68264666959E+02  0.47000000000E+01 0. -1.
         13    1    4    4    0    0  0.10048922468E+02  0.13465530613E+02 -0.41420053963E+02  0.44698123314E+02  0.00000000000E+00 0. -1.
        -14    1    4    4    0    0 -0.50436295273E+02  0.34497479089E+02  0.12881053871E+02  0.62448518743E+02  0.00000000000E+00 0.  1.
         -5    1    3    3    0  504 -0.74739091075E+02 -0.71080362852E+02  0.89504949821E+00  0.10325328485E+03  0.47000000000E+01 0.  1.
<mgrwt>
<rscale>  2 0.20913714E+03</rscale>
<asrwt>0</asrwt>
<pdfrwt beam="1">  1       21 0.26939556E-01 0.20932453E+03</pdfrwt>
<pdfrwt beam="2">  1       21 0.38438591E-01 0.20932453E+03</pdfrwt>
<totfact> 0.85069191E+04</totfact>
</mgrwt>
</event>
<event>
12    1  0.2742799E-001  0.2029177E+03  0.7546771E-02  0.1147347E+00
         21   -1    0    0  502  503  0.00000000000E+00  0.00000000000E+00  0.96220234598E+03  0.96220234598E+03  0.00000000000E+00 0.  1.
         21   -1    0    0  503  504 -0.00000000000E+00 -0.00000000000E+00 -0.60957358829E+02  0.60957358829E+02  0.00000000000E+00 0.  1.
         -6    2    1    2    0  504 -0.10270080173E+03  0.29885869583E+02  0.17081751610E+03  0.26507008429E+03  0.17217115293E+03 0.  0.
        -24    2    3    3    0    0 -0.67638480312E+02 -0.43788889224E+02  0.13984193479E+03  0.17766920840E+03  0.74284251694E+02 0.  0.
          6    2    1    2  502    0  0.10270080173E+03 -0.29885869583E+02  0.73042747105E+03  0.75808962052E+03  0.17243828577E+03 0.  0.
         24    2    5    5    0    0  0.12918952686E+03  0.10710025288E+02  0.50947581469E+03  0.53183444668E+03  0.80483752604E+02 0.  0.
          2    1    6    6  501    0  0.41653677460E+01  0.19742193889E+02  0.29357412017E+02  0.35622494977E+02  0.00000000000E+00 0. -1.
         -1    1    6    6    0  501  0.12502415911E+03 -0.90321686009E+01  0.48011840267E+03  0.49621195170E+03  0.00000000000E+00 0.  1.
          5    1    5    5  502    0 -0.26488725136E+02 -0.40595894871E+02  0.22095165636E+03  0.22625517384E+03  0.47000000000E+01 0. -1.
         11    1    4    4    0    0 -0.69943404242E+02 -0.60042855497E+02  0.10918630416E+03  0.14289462309E+03  0.00000000000E+00 0. -1.
        -12    1    4    4    0    0  0.23049239299E+01  0.16253966273E+02  0.30655630632E+02  0.34774585309E+02  0.00000000000E+00 0.  1.
         -5    1    3    3    0  504 -0.35062321413E+02  0.73674758807E+02  0.30975581310E+02  0.87400875886E+02  0.47000000000E+01 0.  1.
<mgrwt>
<rscale>  2 0.20286091E+03</rscale>
<asrwt>0</asrwt>
<pdfrwt beam="1">  1       21 0.14803112E+00 0.20291767E+03</pdfrwt>
<pdfrwt beam="2">  1       21 0.93780559E-02 0.20291767E+03</pdfrwt>
<totfact> 0.27938838E+04</totfact>
</mgrwt>
</event>
<event>
12    1  0.2742799E-001  0.1862701E+03  0.7546771E-02  0.1161901E+00
         21   -1    0    0  502  503  0.00000000000E+00  0.00000000000E+00  0.45533439344E+02  0.45533439344E+02  0.00000000000E+00 0.  1.
         21   -1    0    0  503  504 -0.00000000000E+00 -0.00000000000E+00 -0.88750587122E+03  0.88750587122E+03  0.00000000000E+00 0.  1.
         -6    2    1    2    0  504 -0.69307491999E+02 -0.72576057818E+01 -0.59694711862E+03  0.62533383762E+03  0.17274358096E+03 0.  0.
        -24    2    3    3    0    0  0.23801777223E+02  0.23955644721E+02 -0.27045797568E+03  0.28436337926E+03  0.81084014097E+02 0.  0.
          6    2    1    2  502    0  0.69307491999E+02  0.72576057818E+01 -0.24502531325E+03  0.30770547293E+03  0.17259505395E+03 0.  0.
         24    2    5    5    0    0  0.63083310982E+02  0.21526722009E+02 -0.53185295206E+02  0.11517747333E+03  0.77422676596E+02 0.  0.
          2    1    6    6  501    0  0.23812905152E+02 -0.13077213363E+02  0.13554647558E+02  0.30361100632E+02  0.00000000000E+00 0. -1.
         -1    1    6    6    0  501  0.39270405830E+02  0.34603935373E+02 -0.66739942765E+02  0.84816372697E+02  0.00000000000E+00 0.  1.
          5    1    5    5  502    0  0.62241810175E+01 -0.14269116228E+02 -0.19184001805E+03  0.19252799961E+03  0.47000000000E+01 0. -1.
         13    1    4    4    0    0 -0.26566323489E+02  0.20815098377E+02 -0.15021085857E+03  0.15395564262E+03  0.00000000000E+00 0. -1.
        -14    1    4    4    0    0  0.50368100711E+02  0.31405463445E+01 -0.12024711712E+03  0.13040773664E+03  0.00000000000E+00 0.  1.
         -5    1    3    3    0  504 -0.93109269222E+02 -0.31213250503E+02 -0.32648914293E+03  0.34097045836E+03  0.47000000000E+01 0.  1.
<mgrwt>
<rscale>  2 0.18623565E+03</rscale>
<asrwt>0</asrwt>
<pdfrwt beam="1">  1       21 0.70051449E-02 0.18627009E+03</pdfrwt>
<pdfrwt beam="2">  1       21 0.13653936E+00 0.18627009E+03</pdfrwt>
<totfact> 0.57849011E+04</totfact>
</mgrwt>
</event>
<event>
12    1  0.2742799E-001  0.1783497E+03  0.7546771E-02  0.1169609E+00
         21   -1    0    0  502  503  0.00000000000E+00  0.00000000000E+00  0.57681014772E+03  0.57681014772E+03  0.00000000000E+00 0. -1.
         21   -1    0    0  503  504 -0.00000000000E+00 -0.00000000000E+00 -0.26345060519E+03  0.26345060519E+03  0.00000000000E+00 0. -1.
         -6    2    1    2    0  504 -0.70763951261E+01  0.43271037353E+02 -0.21705096940E+03  0.28092658980E+03  0.17287616232E+03 0.  0.
        -24    2    3    3    0    0  0.62116010650E+02  0.17699408837E+02 -0.14295570770E+03  0.17626668817E+03  0.80386212394E+02 0.  0.
          6    2    1    2  502    0  0.70763951261E+01 -0.43271037353E+02  0.53041051193E+03  0.55933416312E+03  0.17203760292E+03 0.  0.
         24    2    5    5    0    0 -0.41641818518E+02 -0.56064484416E+02  0.45733600437E+03  0.47045722413E+03  0.85419619401E+02 0.  0.
          4    1    6    6  501    0 -0.27983990187E+02 -0.54719088734E+02  0.14086450536E+03  0.15368829249E+03  0.00000000000E+00 0. -1.
         -3    1    6    6    0  501 -0.13657828332E+02 -0.13453956819E+01  0.31647149901E+03  0.31676893164E+03  0.00000000000E+00 0.  1.
          5    1    5    5  502    0  0.48718213644E+02  0.12793447063E+02  0.73074507557E+02  0.88876938984E+02  0.47000000000E+01 0. -1.
         13    1    4    4    0    0  0.21765297376E+02 -0.32020877260E+02 -0.46779721144E+02  0.60724023752E+02  0.00000000000E+00 0. -1.
        -14    1    4    4    0    0  0.40350713275E+02  0.49720286097E+02 -0.96175986555E+02  0.11554266442E+03  0.00000000000E+00 0.  1.
         -5    1    3    3    0  504 -0.69192405776E+02  0.25571628516E+02 -0.74095261702E+02  0.10465990163E+03  0.47000000000E+01 0.  1.
<mgrwt>
<rscale>  2 0.17814620E+03</rscale>
<asrwt>0</asrwt>
<pdfrwt beam="1">  1       21 0.88740023E-01 0.17834973E+03</pdfrwt>
<pdfrwt beam="2">  1       21 0.40530862E-01 0.17834973E+03</pdfrwt>
<totfact> 0.64360166E+03</totfact>
</mgrwt>
</event>
<event>
12    1  0.2742799E-001  0.1846378E+03  0.7546771E-02  0.1163804E+00
         21   -1    0    0  502  503  0.00000000000E+00  0.00000000000E+00  0.10494511840E+03  0.10494511840E+03  0.00000000000E+00 0. -1.
         21   -1    0    0  503  504 -0.00000000000E+00 -0.00000000000E+00 -0.15565611758E+04  0.15565611758E+04  0.00000000000E+00 0. -1.
         -6    2    1    2    0  504  0.45269461137E+02 -0.40271432294E+02 -0.14664542852E+04  0.14780322331E+04  0.17441329923E+03 0.  0.
        -24    2    3    3    0    0 -0.69747297932E+01 -0.79164633018E+02 -0.10947826522E+04  0.11006676489E+04  0.81268271223E+02 0.  0.
          6    2    1    2  502    0 -0.45269461137E+02  0.40271432294E+02  0.14838227817E+02  0.18347406114E+03  0.17254403999E+03 0.  0.
         24    2    5    5    0    0 -0.85730609141E+01 -0.15040370288E+02 -0.45856238061E+02  0.93407810621E+02  0.79514240260E+02 0.  0.
          2    1    6    6  501    0  0.43319524250E+01  0.31624087448E+02 -0.25633668073E+02  0.40938168713E+02  0.00000000000E+00 0. -1.
         -1    1    6    6    0  501 -0.12905013339E+02 -0.46664457736E+02 -0.20222569988E+02  0.52469641908E+02  0.00000000000E+00 0.  1.
          5    1    5    5  502    0 -0.36696400223E+02  0.55311802582E+02  0.60694465878E+02  0.90066250518E+02  0.47000000000E+01 0. -1.
         13    1    4    4    0    0  0.88400597586E+01  0.12396003569E+02 -0.31516450952E+03  0.31553205166E+03  0.00000000000E+00 0. -1.
        -14    1    4    4    0    0 -0.15814789552E+02 -0.91560636587E+02 -0.77961814263E+03  0.78513559724E+03  0.00000000000E+00 0.  1.
         -5    1    3    3    0  504  0.52244190930E+02  0.38893200724E+02 -0.37167163309E+03  0.37736458418E+03  0.47000000000E+01 0.  1.
<mgrwt>
<rscale>  2 0.18419501E+03</rscale>
<asrwt>0</asrwt>
<pdfrwt beam="1">  1       21 0.16145404E-01 0.18463778E+03</pdfrwt>
<pdfrwt beam="2">  1       21 0.23947094E+00 0.18463778E+03</pdfrwt>
<totfact> 0.26554568E+03</totfact>
</mgrwt>
</event>
<event>
12    1  0.2742799E-001  0.1996951E+03  0.7546771E-02  0.1150461E+00
         21   -1    0    0  502  503  0.00000000000E+00  0.00000000000E+00  0.40648995400E+03  0.40648995400E+03  0.00000000000E+00 0. -1.
         21   -1    0    0  503  504 -0.00000000000E+00 -0.00000000000E+00 -0.17896505478E+03  0.17896505478E+03  0.00000000000E+00 0. -1.
         -6    2    1    2    0  504 -0.54069007371E+02 -0.82187470477E+02 -0.83961654430E+02  0.21662804568E+03  0.17378122137E+03 0.  0.
        -24    2    3    3    0    0 -0.96551752203E+02 -0.32909216937E+02 -0.34606919581E+02  0.13482884194E+03  0.81092048464E+02 0.  0.
          6    2    1    2  502    0  0.54069007371E+02  0.82187470477E+02  0.31148655365E+03  0.36882696310E+03  0.17126359140E+03 0.  0.
         24    2    5    5    0    0  0.35574294980E+02  0.51607871436E+02  0.68599777077E+02  0.12328013966E+03  0.81013335710E+02 0.  0.
          2    1    6    6  501    0  0.59815035460E+02  0.30799613778E+02  0.60120808012E+02  0.90227303140E+02  0.00000000000E+00 0. -1.
         -1    1    6    6    0  501 -0.24240740480E+02  0.20808257659E+02  0.84789690651E+01  0.33052836523E+02  0.00000000000E+00 0.  1.
          5    1    5    5  502    0  0.18494712391E+02  0.30579599041E+02  0.24288677657E+03  0.24554682343E+03  0.47000000000E+01 0. -1.
         13    1    4    4    0    0  0.11266838448E+02 -0.18208742394E+02 -0.74903472124E+01  0.22684912377E+02  0.00000000000E+00 0. -1.
        -14    1    4    4    0    0 -0.10781859065E+03 -0.14700474543E+02 -0.27116572369E+02  0.11214392957E+03  0.00000000000E+00 0.  1.
         -5    1    3    3    0  504  0.42482744832E+02 -0.49278253540E+02 -0.49354734849E+02  0.81799203739E+02  0.47000000000E+01 0.  1.
<mgrwt>
<rscale>  2 0.19914613E+03</rscale>
<asrwt>0</asrwt>
<pdfrwt beam="1">  1       21 0.62536916E-01 0.19969514E+03</pdfrwt>
<pdfrwt beam="2">  1       21 0.27533085E-01 0.19969514E+03</pdfrwt>
<totfact> 0.29712068E+04</totfact>
</mgrwt>
</event>
<event>
12    1  0.2742799E-001  0.2284042E+03  0.7546771E-02  0.1128267E+00
         21   -1    0    0  502  503  0.00000000000E+00  0.00000000000E+00  0.20925529712E+04  0.20925529712E+04  0.00000000000E+00 0.  1.
         21   -1    0    0  503  504 -0.00000000000E+00 -0.00000000000E+00 -0.25365944533E+02  0.25365944533E+02  0.00000000000E+00 0.  1.
         -6    2    1    2    0  504 -0.12921611218E+03 -0.75056793559E+02  0.84668130884E+03  0.87622543701E+03  0.16903091970E+03 0.  0.
        -24    2    3    3    0    0 -0.32295709727E+02  0.20346700705E+02  0.20982793391E+03  0.22499605938E+03  0.71683078828E+02 0.  0.
          6    2    1    2  502    0  0.12921611218E+03  0.75056793559E+02  0.12205057179E+04  0.12416934788E+04  0.17273726280E+03 0.  0.
         24    2    5    5    0    0  0.10794080002E+03  0.11412317597E+03  0.10780008451E+04  0.10923330090E+04  0.80188933739E+02 0.  0.
          4    1    6    6  501    0  0.85763148041E+02  0.67486212936E+02  0.48688343136E+03  0.49896410916E+03  0.00000000000E+00 0. -1.
         -3    1    6    6    0  501  0.22177651979E+02  0.46636963034E+02  0.59111741370E+03  0.59336889988E+03  0.00000000000E+00 0.  1.
          5    1    5    5  502    0  0.21275312156E+02 -0.39066382411E+02  0.14250487281E+03  0.14936046973E+03  0.47000000000E+01 0. -1.
         11    1    4    4    0    0 -0.16969281081E+01  0.81113023747E+01  0.18106580508E+03  0.18125534078E+03  0.00000000000E+00 0. -1.
        -12    1    4    4    0    0 -0.30598781619E+02  0.12235398330E+02  0.28762128832E+02  0.43740718602E+02  0.00000000000E+00 0.  1.
         -5    1    3    3    0  504 -0.96920402449E+02 -0.95403494264E+02  0.63685337492E+03  0.65122937762E+03  0.47000000000E+01 0.  1.
<mgrwt>
<rscale>  2 0.22770350E+03</rscale>
<asrwt>0</asrwt>
<pdfrwt beam="1">  1       21 0.32193109E+00 0.22840422E+03</pdfrwt>
<pdfrwt beam="2">  1       21 0.39024546E-02 0.22840422E+03</pdfrwt>
<totfact> 0.10032531E+04</totfact>
</mgrwt>
</event>
<event>
12    1  0.2742799E-001  0.2035710E+03  0.7546771E-02  0.1146852E+00
         21   -1    0    0  502  503  0.00000000000E+00  0.00000000000E+00  0.20357285019E+03  0.20357285019E+03  0.00000000000E+00 0.  1.
         21   -1    0    0  503  504 -0.00000000000E+00 -0.00000000000E+00 -0.28582499616E+03  0.28582499616E+03  0.00000000000E+00 0.  1.
         -6    2    1    2    0  504  0.50972224914E+01  0.10562778764E+03 -0.17278003534E+03  0.26700954031E+03  0.17394810377E+03 0.  0.
        -24    2    3    3    0    0 -0.46785845617E+02  0.18964860467E+02 -0.49059953760E+02  0.10722510963E+03  0.80881170797E+02 0.  0.
          6    2    1    2  502    0 -0.50972224914E+01 -0.10562778764E+03  0.90527889365E+02  0.22238830604E+03  0.17343024163E+03 0.  0.
         24    2    5    5    0    0 -0.19655110898E+02  0.13515036905E+02  0.24122973900E+02  0.85134353258E+02  0.78083036749E+02 0.  0.
          4    1    6    6  501    0  0.24028013733E+02 -0.82883632103E+01 -0.80535140531E+01  0.26662736117E+02  0.00000000000E+00 0. -1.
         -3    1    6    6    0  501 -0.43683124630E+02  0.21803400116E+02  0.32176487953E+02  0.58471617141E+02  0.00000000000E+00 0.  1.
          5    1    5    5  502    0  0.14557888406E+02 -0.11914282455E+03  0.66404915465E+02  0.13725395278E+03  0.47000000000E+01 0. -1.
         13    1    4    4    0    0 -0.16682037832E+02  0.38343866535E+02 -0.56862734517E+02  0.70582668296E+02  0.00000000000E+00 0. -1.
        -14    1    4    4    0    0 -0.30103807785E+02 -0.19379006068E+02  0.78027807562E+01  0.36642441334E+02  0.00000000000E+00 0.  1.
         -5    1    3    3    0  504  0.51883068109E+02  0.86662927174E+02 -0.12372008157E+03  0.15978443068E+03  0.47000000000E+01 0.  1.
<mgrwt>
<rscale>  2 0.20346033E+03</rscale>
<asrwt>0</asrwt>
<pdfrwt beam="1">  1       21 0.31318900E-01 0.20357100E+03</pdfrwt>
<pdfrwt beam="2">  1       21 0.43973076E-01 0.20357100E+03</pdfrwt>
<totfact> 0.48414391E+04</totfact>
</mgrwt>
</event>
<event>
12    1  0.2742799E-001  0.1780444E+03  0.7546771E-02  0.1170630E+00
         21   -1    0    0  502  503  0.00000000000E+00  0.00000000000E+00  0.29617025227E+03  0.29617025227E+03  0.00000000000E+00 0.  1.
         21   -1    0    0  503  504 -0.00000000000E+00 -0.00000000000E+00 -0.10765634259E+03  0.10765634259E+03  0.00000000000E+00 0.  1.
         -6    2    1    2    0  504  0.11334756104E+02 -0.26788086521E+02  0.60486995472E+02  0.18453068157E+03  0.17189187748E+03 0.  0.
        -24    2    3    3    0    0 -0.17790155692E+02 -0.38839983383E+02  0.96907772160E+02  0.13613572647E+03  0.85538212318E+02 0.  0.
          6    2    1    2  502    0 -0.11334756104E+02  0.26788086521E+02  0.12802691420E+03  0.21929591329E+03  0.17565229446E+03 0.  0.
         24    2    5    5    0    0  0.47372575027E+02  0.56322834090E+02  0.58671204361E+02  0.12363423585E+03  0.80166648608E+02 0.  0.
          4    1    6    6  501    0  0.32379918537E+02  0.14144227383E+02 -0.14225468850E+02  0.38090448366E+02  0.00000000000E+00 0. -1.
         -3    1    6    6    0  501  0.14992656490E+02  0.42178606707E+02  0.72896673211E+02  0.85543787486E+02  0.00000000000E+00 0.  1.
          5    1    5    5  502    0 -0.58707331131E+02 -0.29534747569E+02  0.69355709843E+02  0.95661677438E+02  0.47000000000E+01 0. -1.
         13    1    4    4    0    0  0.18245978483E+02 -0.53577776175E+02  0.60136744667E+02  0.82582818369E+02  0.00000000000E+00 0. -1.
        -14    1    4    4    0    0 -0.36036134176E+02  0.14737792792E+02  0.36771027493E+02  0.53552908096E+02  0.00000000000E+00 0.  1.
         -5    1    3    3    0  504  0.29124911796E+02  0.12051896862E+02 -0.36420776687E+02  0.48394955105E+02  0.47000000000E+01 0.  1.
<mgrwt>
<rscale>  2 0.17710986E+03</rscale>
<asrwt>0</asrwt>
<pdfrwt beam="1">  1       21 0.45564654E-01 0.17804440E+03</pdfrwt>
<pdfrwt beam="2">  1       21 0.16562514E-01 0.17804440E+03</pdfrwt>
<totfact> 0.15187848E+05</totfact>
</mgrwt>
</event>
<event>
12    1  0.2742799E-001  0.1793540E+03  0.7546771E-02  0.1169432E+00
         21   -1    0    0  502  503  0.00000000000E+00  0.00000000000E+00  0.62772744944E+02  0.62772744944E+02  0.00000000000E+00 0. -1.
         21   -1    0    0  503  504 -0.00000000000E+00 -0.00000000000E+00 -0.50601145748E+03  0.50601145748E+03  0.00000000000E+00 0. -1.
         -6    2    1    2    0  504 -0.12737130090E+02  0.40639957645E+02 -0.25277257277E+03  0.30993842313E+03  0.17422402804E+03 0.  0.
        -24    2    3    3    0    0 -0.43169225401E+02 -0.36033063644E+01 -0.61327606143E+02  0.11104939859E+03  0.81818871993E+02 0.  0.
          6    2    1    2  502    0  0.12737130090E+02 -0.40639957645E+02 -0.19046613977E+03  0.25884577929E+03  0.17002925166E+03 0.  0.
         24    2    5    5    0    0 -0.49994504962E+02 -0.12394639934E+02 -0.65464940950E+02  0.11608568083E+03  0.80852638632E+02 0.  0.
          4    1    6    6  501    0 -0.45724354995E+02 -0.44224893262E+02 -0.40534150282E+02  0.75429272585E+02  0.00000000000E+00 0. -1.
         -3    1    6    6    0  501 -0.42701499667E+01  0.31830253328E+02 -0.24930790668E+02  0.40656408240E+02  0.00000000000E+00 0.  1.
          5    1    5    5  502    0  0.62731635052E+02 -0.28245317711E+02 -0.12500119882E+03  0.14276009847E+03  0.47000000000E+01 0. -1.
         11    1    4    4    0    0 -0.23194187660E+01  0.35669942290E+02 -0.26997332939E+02  0.44794871048E+02  0.00000000000E+00 0. -1.
        -12    1    4    4    0    0 -0.40849806635E+02 -0.39273248654E+02 -0.34330273203E+02  0.66254527545E+02  0.00000000000E+00 0.  1.
         -5    1    3    3    0  504  0.30432095310E+02  0.44243264009E+02 -0.19144496662E+03  0.19888902454E+03  0.47000000000E+01 0.  1.
<mgrwt>
<rscale>  2 0.17832721E+03</rscale>
<asrwt>0</asrwt>
<pdfrwt beam="1">  1       21 0.96573451E-02 0.17935399E+03</pdfrwt>
<pdfrwt beam="2">  1       21 0.77847918E-01 0.17935399E+03</pdfrwt>
<totfact> 0.12682012E+05</totfact>
</mgrwt>
</event>
<event>
12    1  0.2742799E-001  0.1814096E+03  0.7546771E-02  0.1166728E+00
         21   -1    0    0  502  503  0.00000000000E+00  0.00000000000E+00  0.55167535219E+02  0.55167535219E+02  0.00000000000E+00 0. -1.
         21   -1    0    0  503  504 -0.00000000000E+00 -0.00000000000E+00 -0.67259218125E+03  0.67259218125E+03  0.00000000000E+00 0. -1.
         -6    2    1    2    0  504  0.40607535762E+02  0.32188015685E+02 -0.43501916730E+03  0.47132907938E+03  0.17385161730E+03 0.  0.
        -24    2    3    3    0    0  0.92221749555E-01  0.23144765660E+02 -0.87885865583E+02  0.12169085178E+03  0.80926196961E+02 0.  0.
          6    2    1    2  502    0 -0.40607535762E+02 -0.32188015685E+02 -0.18240547874E+03  0.25643063709E+03  0.17262639616E+03 0.  0.
         24    2    5    5    0    0  0.19233673726E+02  0.25807545017E+02 -0.52576695760E+02  0.10208667607E+03  0.81372089257E+02 0.  0.
          2    1    6    6  501    0 -0.24456765397E+02  0.23629784985E+02 -0.41490502793E+00  0.34009884714E+02  0.00000000000E+00 0. -1.
         -1    1    6    6    0  501  0.43690439123E+02  0.21777600319E+01 -0.52161790732E+02  0.68076791360E+02  0.00000000000E+00 0.  1.
          5    1    5    5  502    0 -0.59841209488E+02 -0.57995560702E+02 -0.12982878298E+03  0.15434396102E+03  0.47000000000E+01 0. -1.
         11    1    4    4    0    0  0.94985547657E+01  0.11002405291E+02 -0.10066580931E+03  0.10170978630E+03  0.00000000000E+00 0. -1.
        -12    1    4    4    0    0 -0.94063330162E+01  0.12142360369E+02  0.12779943725E+02  0.19981065481E+02  0.00000000000E+00 0.  1.
         -5    1    3    3    0  504  0.40515314012E+02  0.90432500251E+01 -0.34713330172E+03  0.34963822760E+03  0.47000000000E+01 0.  1.
<mgrwt>
<rscale>  2 0.18111538E+03</rscale>
<asrwt>0</asrwt>
<pdfrwt beam="1">  1       21 0.84873139E-02 0.18140955E+03</pdfrwt>
<pdfrwt beam="2">  1       21 0.10347571E+00 0.18140955E+03</pdfrwt>
<totfact> 0.82311539E+04</totfact>
</mgrwt>
</event>
<event>
12    1  0.2742799E-001  0.2603443E+03  0.7546771E-02  0.1106948E+00
         21   -1    0    0  502  503  0.00000000000E+00  0.00000000000E+00  0.10789075737E+03  0.10789075737E+03  0.00000000000E+00 0. -1.
         21   -1    0    0  503  504 -0.00000000000E+00 -0.00000000000E+00 -0.62852789415E+03  0.62852789415E+03  0.00000000000E+00 0.  1.
         -6    2    1    2    0  504 -0.16448128143E+02  0.19403430628E+03 -0.27052873532E+03  0.37540150627E+03  0.17268654073E+03 0.  0.
        -24    2    3    3    0    0 -0.31143932943E+02  0.58102368332E+02 -0.56560784835E+02  0.12143727205E+03  0.84864945038E+02 0.  0.
          6    2    1    2  502    0  0.16448128143E+02 -0.19403430628E+03 -0.25010840146E+03  0.36101714524E+03  0.17279847726E+03 0.  0.
         24    2    5    5    0    0 -0.26236786433E+02 -0.13963439381E+03 -0.90383150311E+02  0.18690339431E+03  0.81102601966E+02 0.  0.
          4    1    6    6  501    0 -0.25274952731E+02 -0.47916855000E+02  0.52084181154E+01  0.54424037409E+02  0.00000000000E+00 0. -1.
         -3    1    6    6    0  501 -0.96183370185E+00 -0.91717538812E+02 -0.95591568427E+02  0.13247935690E+03  0.00000000000E+00 0.  1.
          5    1    5    5  502    0  0.42684914575E+02 -0.54399912465E+02 -0.15972525115E+03  0.17411375093E+03  0.47000000000E+01 0. -1.
         13    1    4    4    0    0 -0.47390855824E+02  0.71709206041E+02 -0.48980098301E+02  0.98930043345E+02  0.00000000000E+00 0. -1.
        -14    1    4    4    0    0  0.16246922880E+02 -0.13606837710E+02 -0.75806865346E+01  0.22507228703E+02  0.00000000000E+00 0.  1.
         -5    1    3    3    0  504  0.14695804801E+02  0.13593193795E+03 -0.21396795048E+03  0.25396423423E+03  0.47000000000E+01 0.  1.
<mgrwt>
<rscale>  2 0.26032575E+03</rscale>
<asrwt>0</asrwt>
<pdfrwt beam="1">  1       21 0.16598578E-01 0.26034432E+03</pdfrwt>
<pdfrwt beam="2">  1       21 0.96696600E-01 0.26034432E+03</pdfrwt>
<totfact> 0.27976503E+04</totfact>
</mgrwt>
</event>
<event>
12    1  0.2742799E-001  0.2016196E+03  0.7546771E-02  0.1148811E+00
         21   -1    0    0  502  503  0.00000000000E+00  0.00000000000E+00  0.52880897647E+02  0.52880897647E+02  0.00000000000E+00 0. -1.
         21   -1    0    0  503  504 -0.00000000000E+00 -0.00000000000E+00 -0.12006640220E+04  0.12006640220E+04  0.00000000000E+00 0.  1.
         -6    2    1    2    0  504  0.62655794323E+02 -0.79102143820E+02 -0.19270714317E+03  0.27741962767E+03  0.17217058132E+03 0.  0.
        -24    2    3    3    0    0  0.30540412010E+02 -0.71456383428E+02 -0.36769187806E+02  0.11795617934E+03  0.80764816431E+02 0.  0.
          6    2    1    2  502    0 -0.62655794323E+02  0.79102143820E+02 -0.95507598122E+03  0.97612529201E+03  0.17454958630E+03 0.  0.
         24    2    5    5    0    0  0.22155670503E+02  0.72615416783E+02 -0.58281400271E+03  0.59424031870E+03  0.87667109717E+02 0.  0.
          4    1    6    6  501    0  0.13830164093E+02 -0.18073665536E+02 -0.16887170365E+03  0.17039830726E+03  0.00000000000E+00 0. -1.
         -3    1    6    6    0  501  0.83255064103E+01  0.90689082319E+02 -0.41394229906E+03  0.42384201143E+03  0.00000000000E+00 0.  1.
          5    1    5    5  502    0 -0.84811464827E+02  0.64867270372E+01 -0.37226197851E+03  0.38188497331E+03  0.47000000000E+01 0. -1.
         13    1    4    4    0    0  0.45546931276E+02 -0.80072851769E+02 -0.39866426487E+02  0.10037687234E+03  0.00000000000E+00 0. -1.
        -14    1    4    4    0    0 -0.15006519266E+02  0.86164683405E+01  0.30972386810E+01  0.17579307000E+02  0.00000000000E+00 0.  1.
         -5    1    3    3    0  504  0.32115382313E+02 -0.76457603918E+01 -0.15593795536E+03  0.15946344834E+03  0.47000000000E+01 0.  1.
<mgrwt>
<rscale>  2 0.20110359E+03</rscale>
<asrwt>0</asrwt>
<pdfrwt beam="1">  1       21 0.81355227E-02 0.20161958E+03</pdfrwt>
<pdfrwt beam="2">  1       21 0.18471754E+00 0.20161958E+03</pdfrwt>
<totfact> 0.19577517E+04</totfact>
</mgrwt>
</event>
<event>
12    1  0.2742799E-001  0.2115437E+03  0.7546771E-02  0.1140602E+00
         21   -1    0    0  502  503  0.00000000000E+00  0.00000000000E+00  0.55174077756E+03  0.55174077756E+03  0.00000000000E+00 0.  1.
         21   -1    0    0  503  504 -0.00000000000E+00 -0.00000000000E+00 -0.13136821946E+03  0.13136821946E+03  0.00000000000E+00 0.  1.
         -6    2    1    2    0  504  0.12067184838E+03 -0.30395012335E+01 -0.17145874687E+01  0.21155065160E+03  0.17372335716E+03 0.  0.
        -24    2    3    3    0    0  0.42128211440E+02  0.46742573983E+02  0.39939276731E+02  0.10954823830E+03  0.80287086555E+02 0.  0.
          6    2    1    2  502    0 -0.12067184838E+03  0.30395012335E+01  0.42208714557E+03  0.47155834542E+03  0.17215917381E+03 0.  0.
         24    2    5    5    0    0  0.22707534574E+01 -0.22046850631E+02  0.17173863370E+03  0.19148571950E+03  0.81739846609E+02 0.  0.
          4    1    6    6  501    0  0.27504778584E+02 -0.52045709061E+01  0.14844623878E+02  0.31685379299E+02  0.00000000000E+00 0. -1.
         -3    1    6    6    0  501 -0.25234025126E+02 -0.16842279725E+02  0.15689400982E+03  0.15980034020E+03  0.00000000000E+00 0.  1.
          5    1    5    5  502    0 -0.12294260184E+03  0.25086351865E+02  0.25034851186E+03  0.28007262592E+03  0.47000000000E+01 0. -1.
         13    1    4    4    0    0 -0.19848469553E+02  0.89843261133E+01  0.28820187292E+02  0.36128701262E+02  0.00000000000E+00 0. -1.
        -14    1    4    4    0    0  0.61976680994E+02  0.37758247870E+02  0.11119089439E+02  0.73419537040E+02  0.00000000000E+00 0.  1.
         -5    1    3    3    0  504  0.78543636941E+02 -0.49782075217E+02 -0.41653864200E+02  0.10200241330E+03  0.47000000000E+01 0.  1.
<mgrwt>
<rscale>  2 0.21122231E+03</rscale>
<asrwt>0</asrwt>
<pdfrwt beam="1">  1       21 0.84883195E-01 0.21154370E+03</pdfrwt>
<pdfrwt beam="2">  1       21 0.20210496E-01 0.21154370E+03</pdfrwt>
<totfact> 0.26918442E+04</totfact>
</mgrwt>
</event>
<event>
12    1  0.2742799E-001  0.1849592E+03  0.7546771E-02  0.1163564E+00
         21   -1    0    0  502  503  0.00000000000E+00  0.00000000000E+00  0.31850336838E+03  0.31850336838E+03  0.00000000000E+00 0.  1.
         21   -1    0    0  503  504 -0.00000000000E+00 -0.00000000000E+00 -0.24330157775E+03  0.24330157775E+03  0.00000000000E+00 0.  1.
         -6    2    1    2    0  504 -0.58793528066E+02 -0.89629682824E+01 -0.17314564588E+03  0.25335608049E+03  0.17513673256E+03 0.  0.
        -24    2    3    3    0    0 -0.27356213851E+02  0.37372581864E+02 -0.16957249892E+03  0.19705203701E+03  0.89048304818E+02 0.  0.
          6    2    1    2  502    0  0.58793528066E+02  0.89629682824E+01  0.24834743651E+03  0.30844886564E+03  0.17299491251E+03 0.  0.
         24    2    5    5    0    0 -0.35779969452E+02  0.63694896634E+01  0.13347297917E+03  0.15955593931E+03  0.79512797632E+02 0.  0.
          2    1    6    6  501    0 -0.25843748943E+02  0.18561425010E+02  0.76125745645E+01  0.32716618855E+02  0.00000000000E+00 0. -1.
         -1    1    6    6    0  501 -0.99362205090E+01 -0.12191935346E+02  0.12586040460E+03  0.12683932045E+03  0.00000000000E+00 0.  1.
          5    1    5    5  502    0  0.94573497517E+02  0.25934786189E+01  0.11487445734E+03  0.14889292634E+03  0.47000000000E+01 0. -1.
         13    1    4    4    0    0  0.15902626547E+02  0.66353524258E+01  0.21053551607E+01  0.17359549339E+02  0.00000000000E+00 0. -1.
        -14    1    4    4    0    0 -0.43258840397E+02  0.30737229438E+02 -0.17167785408E+03  0.17969248767E+03  0.00000000000E+00 0.  1.
         -5    1    3    3    0  504 -0.31437314215E+02 -0.46335550146E+02 -0.35731469601E+01  0.56304043475E+02  0.47000000000E+01 0.  1.
<mgrwt>
<rscale>  2 0.18445036E+03</rscale>
<asrwt>0</asrwt>
<pdfrwt beam="1">  1       21 0.49000518E-01 0.18495915E+03</pdfrwt>
<pdfrwt beam="2">  1       21 0.37431012E-01 0.18495915E+03</pdfrwt>
<totfact> 0.27471119E+04</totfact>
</mgrwt>
</event>
<event>
12    1  0.2742799E-001  0.1767724E+03  0.7546771E-02  0.1171246E+00
         21   -1    0    0  502  503  0.00000000000E+00  0.00000000000E+00  0.14103533215E+03  0.14103533215E+03  0.00000000000E+00 0.  1.
         21   -1    0    0  503  504 -0.00000000000E+00 -0.00000000000E+00 -0.25466823429E+03  0.25466823429E+03  0.00000000000E+00 0.  1.
         -6    2    1    2    0  504  0.26884035888E+02  0.11031168858E+02 -0.12981908876E+03  0.21932051260E+03  0.17436758119E+03 0.  0.
        -24    2    3    3    0    0  0.15972241904E+02 -0.57275500569E+02 -0.47583596775E+02  0.11175827723E+03  0.81793143790E+02 0.  0.
          6    2    1    2  502    0 -0.26884035888E+02 -0.11031168858E+02  0.16186186629E+02  0.17638305384E+03  0.17321821778E+03 0.  0.
         24    2    5    5    0    0  0.16980554797E+02  0.52402731157E+02  0.19336081460E+02  0.99052763363E+02  0.80019875092E+02 0.  0.
          4    1    6    6  501    0  0.42257788886E+02  0.56699312553E+02  0.19711119031E+02  0.73410223940E+02  0.00000000000E+00 0. -1.
         -3    1    6    6    0  501 -0.25277234089E+02 -0.42965813955E+01 -0.37503757148E+00  0.25642539423E+02  0.00000000000E+00 0.  1.
          5    1    5    5  502    0 -0.43864590685E+02 -0.63433900015E+02 -0.31498948303E+01  0.77330290473E+02  0.47000000000E+01 0. -1.
         11    1    4    4    0    0  0.39329832733E+02 -0.56303440919E+00 -0.13475133978E+02  0.41578022876E+02  0.00000000000E+00 0. -1.
        -12    1    4    4    0    0 -0.23357590829E+02 -0.56712466159E+02 -0.34108462797E+02  0.70180254357E+02  0.00000000000E+00 0.  1.
         -5    1    3    3    0  504  0.10911793984E+02  0.68306669426E+02 -0.82235491986E+02  0.10756223537E+03  0.47000000000E+01 0.  1.
<mgrwt>
<rscale>  2 0.17648834E+03</rscale>
<asrwt>0</asrwt>
<pdfrwt beam="1">  1       21 0.21697744E-01 0.17677243E+03</pdfrwt>
<pdfrwt beam="2">  1       21 0.39179728E-01 0.17677243E+03</pdfrwt>
<totfact> 0.12512653E+05</totfact>
</mgrwt>
</event>
<event>
12    1  0.2742799E-001  0.2805026E+03  0.7546771E-02  0.1095463E+00
         21   -1    0    0  502  503  0.00000000000E+00  0.00000000000E+00  0.14780620756E+04  0.14780620756E+04  0.00000000000E+00 0. -1.
         21   -1    0    0  503  504 -0.00000000000E+00 -0.00000000000E+00 -0.59335522022E+02  0.59335522022E+02  0.00000000000E+00 0.  1.
         -6    2    1    2    0  504  0.17244842825E+03 -0.13723805526E+03  0.95765351109E+03  0.99788876298E+03  0.17351942766E+03 0.  0.
        -24    2    3    3    0    0  0.10851520825E+03 -0.13230258175E+03  0.86334573634E+03  0.88374910337E+03  0.79794070599E+02 0.  0.
          6    2    1    2  502    0 -0.17244842825E+03  0.13723805526E+03  0.46107304251E+03  0.53950883465E+03  0.17294128463E+03 0.  0.
         24    2    5    5    0    0 -0.18866834535E+03  0.15390846116E+03  0.42510830617E+03  0.49642124475E+03  0.80208611232E+02 0.  0.
          4    1    6    6  501    0 -0.14962051593E+03  0.15737002763E+03  0.36150405018E+03  0.42170701047E+03  0.00000000000E+00 0. -1.
         -3    1    6    6    0  501 -0.39047829416E+02 -0.34615664693E+01  0.63604255987E+02  0.74714234281E+02  0.00000000000E+00 0.  1.
          5    1    5    5  502    0  0.16219917101E+02 -0.16670405903E+02  0.35964736336E+02  0.43087589900E+02  0.47000000000E+01 0. -1.
         13    1    4    4    0    0  0.85654179775E+02 -0.11593368577E+03  0.53101411821E+03  0.55023018069E+03  0.00000000000E+00 0. -1.
        -14    1    4    4    0    0  0.22861028479E+02 -0.16368895988E+02  0.33233161813E+03  0.33351892268E+03  0.00000000000E+00 0.  1.
         -5    1    3    3    0  504  0.63933219993E+02 -0.49354735009E+01  0.94307774751E+02  0.11413965961E+03  0.47000000000E+01 0.  1.
<mgrwt>
<rscale>  2 0.28041329E+03</rscale>
<asrwt>0</asrwt>
<pdfrwt beam="1">  1       21 0.22739414E+00 0.28050265E+03</pdfrwt>
<pdfrwt beam="2">  1       21 0.91285430E-02 0.28050265E+03</pdfrwt>
<totfact> 0.80695415E+03</totfact>
</mgrwt>
</event>
<event>
12    1  0.2742799E-001  0.1796127E+03  0.7546771E-02  0.1168303E+00
         21   -1    0    0  502  503  0.00000000000E+00  0.00000000000E+00  0.74004812144E+03  0.74004812144E+03  0.00000000000E+00 0. -1.
         21   -1    0    0  503  504 -0.00000000000E+00 -0.00000000000E+00 -0.11063668067E+03  0.11063668067E+03  0.00000000000E+00 0. -1.
         -6    2    1    2    0  504 -0.14256439480E+02  0.38185749768E+02 -0.16886788478E+02  0.17989262914E+03  0.17439838543E+03 0.  0.
        -24    2    3    3    0    0  0.28989209452E+02  0.29936742742E+02  0.47090897190E+02  0.10208860269E+03  0.80423549847E+02 0.  0.
          6    2    1    2  502    0  0.14256439480E+02 -0.38185749768E+02  0.64629822924E+03  0.67079217297E+03  0.17492667219E+03 0.  0.
         24    2    5    5    0    0 -0.57065801522E+02 -0.25174637072E+02  0.29189235315E+03  0.30901632230E+03  0.79997959775E+02 0.  0.
          2    1    6    6  501    0 -0.25233788392E+02 -0.10563161126E+02  0.26065046907E+03  0.26208203196E+03  0.00000000000E+00 0. -1.
         -1    1    6    6    0  501 -0.31832013130E+02 -0.14611475947E+02  0.31241884077E+02  0.46934290342E+02  0.00000000000E+00 0.  1.
          5    1    5    5  502    0  0.71322241002E+02 -0.13011112696E+02  0.35440587609E+03  0.36177585067E+03  0.47000000000E+01 0. -1.
         13    1    4    4    0    0  0.18614708368E+02  0.52231085609E+02  0.81659300240E+01  0.56047088101E+02  0.00000000000E+00 0. -1.
        -14    1    4    4    0    0  0.10374501084E+02 -0.22294342866E+02  0.38924967166E+02  0.46041514587E+02  0.00000000000E+00 0.  1.
         -5    1    3    3    0  504 -0.43245648932E+02  0.82490070257E+01 -0.63977685668E+02  0.77804026450E+02  0.47000000000E+01 0.  1.
<mgrwt>
<rscale>  2 0.17948399E+03</rscale>
<asrwt>0</asrwt>
<pdfrwt beam="1">  1       21 0.11385355E+00 0.17961275E+03</pdfrwt>
<pdfrwt beam="2">  1       21 0.17021028E-01 0.17961275E+03</pdfrwt>
<totfact> 0.18855608E+04</totfact>
</mgrwt>
</event>
<event>
12    1  0.2742799E-001  0.1858583E+03  0.7546771E-02  0.1162986E+00
         21   -1    0    0  502  503  0.00000000000E+00  0.00000000000E+00  0.21370592447E+03  0.21370592447E+03  0.00000000000E+00 0. -1.
         21   -1    0    0  503  504 -0.00000000000E+00 -0.00000000000E+00 -0.65330744239E+03  0.65330744239E+03  0.00000000000E+00 0. -1.
         -6    2    1    2    0  504 -0.58504958739E+02 -0.20506860460E+02 -0.59645390042E+03  0.62381389448E+03  0.17188123250E+03 0.  0.
        -24    2    3    3    0    0 -0.68263946570E+02 -0.60918019417E+01 -0.18778680287E+03  0.21474920719E+03  0.78461851920E+02 0.  0.
          6    2    1    2  502    0  0.58504958739E+02  0.20506860460E+02  0.15685238250E+03  0.24319947239E+03  0.17521401757E+03 0.  0.
         24    2    5    5    0    0  0.15883157385E+01 -0.45404093721E+02  0.48954506304E+02  0.10446303226E+03  0.80323887784E+02 0.  0.
          2    1    6    6  501    0 -0.36514923069E+02 -0.39183075878E+02  0.25871280813E+02  0.59480889477E+02  0.00000000000E+00 0. -1.
         -1    1    6    6    0  501  0.38103238808E+02 -0.62210178428E+01  0.23083225491E+02  0.44982142787E+02  0.00000000000E+00 0.  1.
          5    1    5    5  502    0  0.56916643001E+02  0.65910954181E+02  0.10789787620E+03  0.13873644013E+03  0.47000000000E+01 0. -1.
         13    1    4    4    0    0  0.11325958261E+02 -0.13519572379E+02 -0.71465916636E+02  0.73610008888E+02  0.00000000000E+00 0. -1.
        -14    1    4    4    0    0 -0.79589904831E+02  0.74277704370E+01 -0.11632088623E+03  0.14113919830E+03  0.00000000000E+00 0.  1.
         -5    1    3    3    0  504  0.97589878304E+01 -0.14415058519E+02 -0.40866709756E+03  0.40906468728E+03  0.47000000000E+01 0.  1.
<mgrwt>
<rscale>  2 0.18506866E+03</rscale>
<asrwt>0</asrwt>
<pdfrwt beam="1">  1       21 0.32877835E-01 0.18585832E+03</pdfrwt>
<pdfrwt beam="2">  1       21 0.10050884E+00 0.18585832E+03</pdfrwt>
<totfact> 0.72601751E+03</totfact>
</mgrwt>
</event>
<event>
12    1  0.2742799E-001  0.2038781E+03  0.7546771E-02  0.1146990E+00
         21   -1    0    0  502  503  0.00000000000E+00  0.00000000000E+00  0.44898400064E+03  0.44898400064E+03  0.00000000000E+00 0.  1.
         21   -1    0    0  503  504 -0.00000000000E+00 -0.00000000000E+00 -0.11841329564E+03  0.11841329564E+03  0.00000000000E+00 0. -1.
         -6    2    1    2    0  504  0.64248339276E+02  0.86405305860E+02  0.29359461920E+02  0.20367418157E+03  0.17037449414E+03 0.  0.
        -24    2    3    3    0    0  0.25144988088E+02 -0.16540004049E+02 -0.60837489220E+00  0.89450847047E+02  0.84233258026E+02 0.  0.
          6    2    1    2  502    0 -0.64248339276E+02 -0.86405305860E+02  0.30121124308E+03  0.36372311470E+03  0.17312586529E+03 0.  0.
         24    2    5    5    0    0 -0.70187494747E+02 -0.46084682344E+02  0.30635294002E+03  0.32237637002E+03  0.54993797159E+02 0.  0.
          2    1    6    6  501    0 -0.47196662139E+02 -0.24542337699E+02  0.26554603729E+03  0.27082198799E+03  0.00000000000E+00 0. -1.
         -1    1    6    6    0  501 -0.22990832608E+02 -0.21542344645E+02  0.40806902726E+02  0.51554382034E+02  0.00000000000E+00 0.  1.
          5    1    5    5  502    0  0.59391554710E+01 -0.40320623516E+02 -0.51416969358E+01  0.41346744682E+02  0.47000000000E+01 0. -1.
         11    1    4    4    0    0  0.26240507776E+02 -0.43296715958E+02 -0.21975967697E+02  0.55191602779E+02  0.00000000000E+00 0. -1.
        -12    1    4    4    0    0 -0.10955196877E+01  0.26756711909E+02  0.21367592805E+02  0.34259244269E+02  0.00000000000E+00 0.  1.
         -5    1    3    3    0  504  0.39103351188E+02  0.10294530991E+03  0.29967836813E+02  0.11422333452E+03  0.47000000000E+01 0.  1.
<mgrwt>
<rscale>  2 0.20329283E+03</rscale>
<asrwt>0</asrwt>
<pdfrwt beam="1">  1       21 0.69074461E-01 0.20387813E+03</pdfrwt>
<pdfrwt beam="2">  1       21 0.18217430E-01 0.20387813E+03</pdfrwt>
<totfact> 0.52105444E+04</totfact>
</mgrwt>
</event>
<event>
12    1  0.2742799E-001  0.1765484E+03  0.7546771E-02  0.1171424E+00
         21   -1    0    0  502  503  0.00000000000E+00  0.00000000000E+00  0.31851688075E+02  0.31851688075E+02  0.00000000000E+00 0. -1.
         21   -1    0    0  503  504 -0.00000000000E+00 -0.00000000000E+00 -0.10009905051E+04  0.10009905051E+04  0.00000000000E+00 0. -1.
         -6    2    1    2    0  504 -0.22855302805E+02 -0.17993239819E+02 -0.57176513077E+03  0.59840180227E+03  0.17413566736E+03 0.  0.
        -24    2    3    3    0    0  0.41251259893E+02 -0.49788633442E+02 -0.28011598465E+03  0.29806546936E+03  0.78724104958E+02 0.  0.
          6    2    1    2  502    0  0.22855302805E+02  0.17993239819E+02 -0.39737368626E+03  0.43444039091E+03  0.17316606243E+03 0.  0.
         24    2    5    5    0    0  0.56059414371E+02  0.10101401232E+02 -0.38494494025E+03  0.39781583810E+03  0.82644647589E+02 0.  0.
          2    1    6    6  501    0  0.99031151362E+01  0.42709662783E+02 -0.17190379124E+03  0.17740659635E+03  0.00000000000E+00 0. -1.
         -1    1    6    6    0  501  0.46156299235E+02 -0.32608261551E+02 -0.21304114901E+03  0.22040924175E+03  0.00000000000E+00 0.  1.
          5    1    5    5  502    0 -0.33204111566E+02  0.78918385866E+01 -0.12428746012E+02  0.36624552811E+02  0.47000000000E+01 0. -1.
         13    1    4    4    0    0 -0.32390657954E+01 -0.54304496229E+02 -0.11875384387E+03  0.13062138145E+03  0.00000000000E+00 0. -1.
        -14    1    4    4    0    0  0.44490325688E+02  0.45158627875E+01 -0.16136214079E+03  0.16744408791E+03  0.00000000000E+00 0.  1.
         -5    1    3    3    0  504 -0.64106562698E+02  0.31795393623E+02 -0.29164914611E+03  0.30033633291E+03  0.47000000000E+01 0.  1.
<mgrwt>
<rscale>  2 0.17630888E+03</rscale>
<asrwt>0</asrwt>
<pdfrwt beam="1">  1       21 0.49002605E-02 0.17654844E+03</pdfrwt>
<pdfrwt beam="2">  1       21 0.15399851E+00 0.17654844E+03</pdfrwt>
<totfact> 0.78257261E+04</totfact>
</mgrwt>
</event>
<event>
12    1  0.2742799E-001  0.1806549E+03  0.7546771E-02  0.1167328E+00
         21   -1    0    0  502  503  0.00000000000E+00  0.00000000000E+00  0.18287202182E+03  0.18287202182E+03  0.00000000000E+00 0. -1.
         21   -1    0    0  503  504 -0.00000000000E+00 -0.00000000000E+00 -0.24420315910E+03  0.24420315910E+03  0.00000000000E+00 0.  1.
         -6    2    1    2    0  504  0.36563727885E+02 -0.37157380444E+02 -0.14203795011E+03  0.22980636199E+03  0.17296996161E+03 0.  0.
        -24    2    3    3    0    0  0.81650861545E+02 -0.58555903464E+02 -0.11832407927E+03  0.17435201969E+03  0.79387543192E+02 0.  0.
          6    2    1    2  502    0 -0.36563727885E+02  0.37157380444E+02  0.80706812837E+02  0.19726881893E+03  0.17228993054E+03 0.  0.
         24    2    5    5    0    0 -0.11719468209E+02  0.70120063479E+02  0.53011295413E+00  0.10696838197E+03  0.79923616560E+02 0.  0.
          4    1    6    6  501    0 -0.27933390162E+02  0.11228022279E+02  0.26959712725E+02  0.40412484215E+02  0.00000000000E+00 0. -1.
         -3    1    6    6    0  501  0.16213921952E+02  0.58892041200E+02 -0.26429599771E+02  0.66555897754E+02  0.00000000000E+00 0.  1.
          5    1    5    5  502    0 -0.24844259676E+02 -0.32962683035E+02  0.80176699882E+02  0.90300436963E+02  0.47000000000E+01 0. -1.
         11    1    4    4    0    0 -0.56311226400E+01 -0.10801521291E+02  0.72235772134E+01  0.14162008055E+02  0.00000000000E+00 0. -1.
        -12    1    4    4    0    0  0.87281984185E+02 -0.47754382173E+02 -0.12554765648E+03  0.16019001163E+03  0.00000000000E+00 0.  1.
         -5    1    3    3    0  504 -0.45087133661E+02  0.21398523020E+02 -0.23713870843E+02  0.55454342297E+02  0.47000000000E+01 0.  1.
<mgrwt>
<rscale>  2 0.18049191E+03</rscale>
<asrwt>0</asrwt>
<pdfrwt beam="1">  1       21 0.28134157E-01 0.18065488E+03</pdfrwt>
<pdfrwt beam="2">  1       21 0.37569717E-01 0.18065488E+03</pdfrwt>
<totfact> 0.82878275E+04</totfact>
</mgrwt>
</event>
<event>
12    1  0.2742799E-001  0.1819084E+03  0.7546771E-02  0.1167753E+00
         21   -1    0    0  502  503  0.00000000000E+00  0.00000000000E+00  0.29622490854E+03  0.29622490854E+03  0.00000000000E+00 0. -1.
         21   -1    0    0  503  504 -0.00000000000E+00 -0.00000000000E+00 -0.11613527913E+03  0.11613527913E+03  0.00000000000E+00 0. -1.
         -6    2    1    2    0  504  0.21745468176E+02  0.43676846182E+02  0.34771568600E+02  0.18520184026E+03  0.17524305228E+03 0.  0.
        -24    2    3    3    0    0 -0.56482108694E+01  0.15575458256E+02  0.95635769841E+02  0.11263020222E+03  0.57138995379E+02 0.  0.
          6    2    1    2  502    0 -0.21745468176E+02 -0.43676846182E+02  0.14531806081E+03  0.22715834741E+03  0.16763962456E+03 0.  0.
         24    2    5    5    0    0 -0.20710631462E+02  0.39722792676E+02  0.71441375452E+02  0.11563962572E+03  0.79131677581E+02 0.  0.
          4    1    6    6  501    0 -0.36904195846E+02  0.67572252305E+01  0.69354822824E+02  0.78852211211E+02  0.00000000000E+00 0. -1.
         -3    1    6    6    0  501  0.16193564384E+02  0.32965567445E+02  0.20865526279E+01  0.36787414510E+02  0.00000000000E+00 0.  1.
          5    1    5    5  502    0 -0.10348367138E+01 -0.83399638858E+02  0.73876685357E+02  0.11151872169E+03  0.47000000000E+01 0. -1.
         13    1    4    4    0    0  0.17639131917E+02  0.12874071541E+02  0.10322321175E+02  0.24154316535E+02  0.00000000000E+00 0. -1.
        -14    1    4    4    0    0 -0.23287342787E+02  0.27013867151E+01  0.85313448666E+02  0.88475885684E+02  0.00000000000E+00 0.  1.
         -5    1    3    3    0  504  0.27393679045E+02  0.28101387926E+02 -0.60864201240E+02  0.72571638038E+02  0.47000000000E+01 0.  1.
<mgrwt>
<rscale>  2 0.18005193E+03</rscale>
<asrwt>0</asrwt>
<pdfrwt beam="1">  1       21 0.45573063E-01 0.18190838E+03</pdfrwt>
<pdfrwt beam="2">  1       21 0.17866966E-01 0.18190838E+03</pdfrwt>
<totfact> 0.13189561E+05</totfact>
</mgrwt>
</event>
<event>
12    1  0.2742799E-001  0.1955376E+03  0.7546771E-02  0.1153630E+00
         21   -1    0    0  502  503  0.00000000000E+00  0.00000000000E+00  0.21089787592E+03  0.21089787592E+03  0.00000000000E+00 0. -1.
         21   -1    0    0  503  504 -0.00000000000E+00 -0.00000000000E+00 -0.18257184590E+03  0.18257184590E+03  0.00000000000E+00 0. -1.
         -6    2    1    2    0  504 -0.54395187570E+02  0.73344285255E+02 -0.41346455607E+01  0.19525605786E+03  0.17253872675E+03 0.  0.
        -24    2    3    3    0    0 -0.45299990092E+02  0.90087114475E+02 -0.50657036698E+02  0.14476380277E+03  0.90678806388E+02 0.  0.
          6    2    1    2  502    0  0.54395187570E+02 -0.73344285255E+02  0.32460675579E+02  0.19821366395E+03  0.17290673934E+03 0.  0.
         24    2    5    5    0    0 -0.11352060356E+02 -0.86750831908E+02 -0.89699974424E+01  0.11921349452E+03  0.80478694767E+02 0.  0.
          4    1    6    6  501    0 -0.34290584354E+02 -0.88152495079E+02 -0.14193506918E+02  0.95646025545E+02  0.00000000000E+00 0. -1.
         -3    1    6    6    0  501  0.22938523998E+02  0.14016631706E+01  0.52235094758E+01  0.23567468979E+02  0.00000000000E+00 0.  1.
          5    1    5    5  502    0  0.65747247927E+02  0.13406546653E+02  0.41430673021E+02  0.79000169431E+02  0.47000000000E+01 0. -1.
         11    1    4    4    0    0 -0.67955985581E+02  0.72353922686E+02 -0.17378421024E+02  0.10077259360E+03  0.00000000000E+00 0. -1.
        -12    1    4    4    0    0  0.22655995488E+02  0.17733191789E+02 -0.33278615674E+02  0.43991209165E+02  0.00000000000E+00 0.  1.
         -5    1    3    3    0  504 -0.90951974780E+01 -0.16742829220E+02  0.46522391137E+02  0.50492255095E+02  0.47000000000E+01 0.  1.
<mgrwt>
<rscale>  2 0.19545623E+03</rscale>
<asrwt>0</asrwt>
<pdfrwt beam="1">  1       21 0.32445827E-01 0.19553762E+03</pdfrwt>
<pdfrwt beam="2">  1       21 0.28087976E-01 0.19553762E+03</pdfrwt>
<totfact> 0.11056815E+05</totfact>
</mgrwt>
</event>
<event>
12    1  0.2742799E-001  0.1768135E+03  0.7546771E-02  0.1172034E+00
         21   -1    0    0  502  503  0.00000000000E+00  0.00000000000E+00  0.99529845993E+02  0.99529845993E+02  0.00000000000E+00 0. -1.
         21   -1    0    0  503  504 -0.00000000000E+00 -0.00000000000E+00 -0.30638183168E+03  0.30638183168E+03  0.00000000000E+00 0. -1.
         -6    2    1    2    0  504  0.13310564531E+02  0.46068971311E+01 -0.10135948783E+03  0.20380573286E+03  0.17625162792E+03 0.  0.
        -24    2    3    3    0    0 -0.31117225250E+02  0.62732637323E+02 -0.32540198041E+02  0.10325417979E+03  0.68548491324E+02 0.  0.
          6    2    1    2  502    0 -0.13310564531E+02 -0.46068971311E+01 -0.10549249786E+03  0.20210594481E+03  0.17181312870E+03 0.  0.
         24    2    5    5    0    0  0.20964983782E+02  0.16073669982E+02 -0.12756975665E+03  0.15614950431E+03  0.86085605480E+02 0.  0.
          2    1    6    6  501    0  0.32715213416E+02  0.29397451245E+02 -0.13088543387E+03  0.13807784807E+03  0.00000000000E+00 0. -1.
         -1    1    6    6    0  501 -0.11750229634E+02 -0.13323781263E+02  0.33156772188E+01  0.18071656233E+02  0.00000000000E+00 0.  1.
          5    1    5    5  502    0 -0.34275548313E+02 -0.20680567114E+02  0.22077258794E+02  0.45956440508E+02  0.47000000000E+01 0. -1.
         13    1    4    4    0    0 -0.33493754857E+02  0.32449213731E+01 -0.27587109633E+02  0.43513328384E+02  0.00000000000E+00 0. -1.
        -14    1    4    4    0    0  0.23765296065E+01  0.59487715950E+02 -0.49530884071E+01  0.59740851406E+02  0.00000000000E+00 0.  1.
         -5    1    3    3    0  504  0.44427789782E+02 -0.58125740192E+02 -0.68819289790E+02  0.10055155307E+03  0.47000000000E+01 0.  1.
<mgrwt>
<rscale>  2 0.17569701E+03</rscale>
<asrwt>0</asrwt>
<pdfrwt beam="1">  1       21 0.15312284E-01 0.17681355E+03</pdfrwt>
<pdfrwt beam="2">  1       21 0.47135667E-01 0.17681355E+03</pdfrwt>
<totfact> 0.16353936E+05</totfact>
</mgrwt>
</event>
<event>
12    1  0.2742799E-001  0.1988238E+03  0.7546771E-02  0.1151156E+00
         21   -1    0    0  502  503  0.00000000000E+00  0.00000000000E+00  0.10882398563E+04  0.10882398563E+04  0.00000000000E+00 0.  1.
         21   -1    0    0  503  504 -0.00000000000E+00 -0.00000000000E+00 -0.49002442430E+02  0.49002442430E+02  0.00000000000E+00 0. -1.
         -6    2    1    2    0  504  0.48536809389E+02 -0.80862292621E+02  0.22444060343E+03  0.29853808714E+03  0.17279141407E+03 0.  0.
        -24    2    3    3    0    0 -0.16254680077E+02  0.21452090161E+01  0.68767116938E+02  0.11053673919E+03  0.84974336087E+02 0.  0.
          6    2    1    2  502    0 -0.48536809389E+02  0.80862292621E+02  0.81479681046E+03  0.83870421160E+03  0.17503251124E+03 0.  0.
         24    2    5    5    0    0 -0.13670034123E+01  0.43392181970E+02  0.72356642756E+03  0.72927810616E+03  0.80083898991E+02 0.  0.
          4    1    6    6  501    0  0.19980527212E+02  0.69327959135E+01  0.55817918499E+03  0.55857970575E+03  0.00000000000E+00 0. -1.
         -3    1    6    6    0  501 -0.21347530625E+02  0.36459386057E+02  0.16538724258E+03  0.17069840041E+03  0.00000000000E+00 0.  1.
          5    1    5    5  502    0 -0.47169805977E+02  0.37470110651E+02  0.91230382892E+02  0.10942610544E+03  0.47000000000E+01 0. -1.
         13    1    4    4    0    0  0.30236769437E+02  0.22145624237E+01  0.53695341373E+02  0.61663248357E+02  0.00000000000E+00 0. -1.
        -14    1    4    4    0    0 -0.46491449514E+02 -0.69353407609E-01  0.15071775565E+02  0.48873490836E+02  0.00000000000E+00 0.  1.
         -5    1    3    3    0  504  0.64791489466E+02 -0.83007501637E+02  0.15567348649E+03  0.18800134795E+03  0.47000000000E+01 0.  1.
<mgrwt>
<rscale>  2 0.19832947E+03</rscale>
<asrwt>0</asrwt>
<pdfrwt beam="1">  1       21 0.16742150E+00 0.19882382E+03</pdfrwt>
<pdfrwt beam="2">  1       21 0.75388381E-02 0.19882382E+03</pdfrwt>
<totfact> 0.29485252E+04</totfact>
</mgrwt>
</event>
<event>
12    1  0.2742799E-001  0.1952246E+03  0.7546771E-02  0.1154218E+00
         21   -1    0    0  502  503  0.00000000000E+00  0.00000000000E+00  0.80391656999E+02  0.80391656999E+02  0.00000000000E+00 0. -1.
         21   -1    0    0  503  504 -0.00000000000E+00 -0.00000000000E+00 -0.48816302383E+03  0.48816302383E+03  0.00000000000E+00 0. -1.
         -6    2    1    2    0  504  0.89733444518E+02 -0.58053107727E+01 -0.14786597740E+03  0.24349550542E+03  0.17128899903E+03 0.  0.
        -24    2    3    3    0    0 -0.11208553677E+02  0.22199405123E+02 -0.64316816927E+02  0.10942051398E+03  0.84957346225E+02 0.  0.
          6    2    1    2  502    0 -0.89733444518E+02  0.58053107727E+01 -0.25990538943E+03  0.32505917541E+03  0.17328261126E+03 0.  0.
         24    2    5    5    0    0 -0.10665372492E+02 -0.42903499587E+02 -0.81317994802E+02  0.12371405940E+03  0.82085880444E+02 0.  0.
          2    1    6    6  501    0 -0.38657227172E+02 -0.14544309228E+02 -0.10759148696E+02  0.42681113203E+02  0.00000000000E+00 0. -1.
         -1    1    6    6    0  501  0.27991854680E+02 -0.28359190358E+02 -0.70558846106E+02  0.81032946201E+02  0.00000000000E+00 0.  1.
          5    1    5    5  502    0 -0.79068072026E+02  0.48708810359E+02 -0.17858739463E+03  0.20134511601E+03  0.47000000000E+01 0. -1.
         11    1    4    4    0    0  0.42124955537E+01  0.18182426771E+02 -0.82879992373E+02  0.84955511285E+02  0.00000000000E+00 0. -1.
        -12    1    4    4    0    0 -0.15421049231E+02  0.40169783525E+01  0.18563175445E+02  0.24465002699E+02  0.00000000000E+00 0.  1.
         -5    1    3    3    0  504  0.10094199819E+03 -0.28004715896E+02 -0.83549160473E+02  0.13407499143E+03  0.47000000000E+01 0.  1.
<mgrwt>
<rscale>  2 0.19478128E+03</rscale>
<asrwt>0</asrwt>
<pdfrwt beam="1">  1       21 0.12367947E-01 0.19522463E+03</pdfrwt>
<pdfrwt beam="2">  1       21 0.75102004E-01 0.19522463E+03</pdfrwt>
<totfact> 0.88025488E+04</totfact>
</mgrwt>
</event>
<event>
12    1  0.2742799E-001  0.1900101E+03  0.7546771E-02  0.1158625E+00
         21   -1    0    0  502  503  0.00000000000E+00  0.00000000000E+00  0.23375995100E+03  0.23375995100E+03  0.00000000000E+00 0. -1.
         21   -1    0    0  503  504 -0.00000000000E+00 -0.00000000000E+00 -0.17198754569E+03  0.17198754569E+03  0.00000000000E+00 0. -1.
         -6    2    1    2    0  504  0.71118980891E+02 -0.34762912717E+02  0.96751504824E+02  0.21254452277E+03  0.17189517425E+03 0.  0.
        -24    2    3    3    0    0  0.99334811231E+02  0.20149467974E+02  0.69340548063E+02  0.14483224039E+03  0.76777994692E+02 0.  0.
          6    2    1    2  502    0 -0.71118980891E+02  0.34762912717E+02 -0.34979099513E+02  0.19320297393E+03  0.17273529514E+03 0.  0.
         24    2    5    5    0    0 -0.46341046495E+02 -0.44832861164E+02  0.12271761384E+01  0.10219518498E+03  0.79277183610E+02 0.  0.
          4    1    6    6  501    0 -0.13469255918E+01  0.11420759152E+00  0.31661374992E+02  0.31690218023E+02  0.00000000000E+00 0. -1.
         -3    1    6    6    0  501 -0.44994120903E+02 -0.44947068755E+02 -0.30434198854E+02  0.70504966956E+02  0.00000000000E+00 0.  1.
          5    1    5    5  502    0 -0.24777934396E+02  0.79595773881E+02 -0.36206275652E+02  0.91007788948E+02  0.47000000000E+01 0. -1.
         11    1    4    4    0    0  0.57221899374E+02  0.19156298623E+02 -0.37628811875E+01  0.60460473201E+02  0.00000000000E+00 0. -1.
        -12    1    4    4    0    0  0.42112911857E+02  0.99316935088E+00  0.73103429250E+02  0.84371767189E+02  0.00000000000E+00 0.  1.
         -5    1    3    3    0  504 -0.28215830340E+02 -0.54912380691E+02  0.27410956762E+02  0.67712282383E+02  0.47000000000E+01 0.  1.
<mgrwt>
<rscale>  2 0.18981899E+03</rscale>
<asrwt>0</asrwt>
<pdfrwt beam="1">  1       21 0.35963069E-01 0.19001014E+03</pdfrwt>
<pdfrwt beam="2">  1       21 0.26459622E-01 0.19001014E+03</pdfrwt>
<totfact> 0.10140857E+05</totfact>
</mgrwt>
</event>
<event>
12    1  0.2742799E-001  0.3442216E+03  0.7546771E-02  0.1065124E+00
         21   -1    0    0  502  503  0.00000000000E+00  0.00000000000E+00  0.46018767937E+03  0.46018767937E+03  0.00000000000E+00 0. -1.
         21   -1    0    0  503  504 -0.00000000000E+00 -0.00000000000E+00 -0.26052365446E+03  0.26052365446E+03  0.00000000000E+00 0.  1.
         -6    2    1    2    0  504  0.29407374524E+03 -0.34369131407E+02  0.14344196927E+03  0.37192852784E+03  0.17347802870E+03 0.  0.
        -24    2    3    3    0    0  0.27412130203E+03 -0.75142454424E+02  0.10988802694E+03  0.31528472054E+03  0.80871502141E+02 0.  0.
          6    2    1    2  502    0 -0.29407374524E+03  0.34369131407E+02  0.56222055642E+02  0.34878280599E+03  0.17557881815E+03 0.  0.
         24    2    5    5    0    0 -0.30390090364E+03  0.86584510531E+01  0.61869886855E+02  0.32029420961E+03  0.79559850439E+02 0.  0.
          4    1    6    6  501    0 -0.29068642797E+03  0.79783708000E+01  0.76377231390E+02  0.30065883536E+03  0.00000000000E+00 0. -1.
         -3    1    6    6    0  501 -0.13214475674E+02  0.68008025314E+00 -0.14507344536E+02  0.19635374250E+02  0.00000000000E+00 0.  1.
          5    1    5    5  502    0  0.98271584000E+01  0.25710680354E+02 -0.56478312133E+01  0.28488596383E+02  0.47000000000E+01 0. -1.
         11    1    4    4    0    0  0.17017541494E+03 -0.80203256778E+02  0.92979874026E+02  0.20985111680E+03  0.00000000000E+00 0. -1.
        -12    1    4    4    0    0  0.10394588708E+03  0.50608023537E+01  0.16908152914E+02  0.10543360374E+03  0.00000000000E+00 0.  1.
         -5    1    3    3    0  504  0.19952443212E+02  0.40773323018E+02  0.33553942329E+02  0.56643807304E+02  0.47000000000E+01 0.  1.
<mgrwt>
<rscale>  2 0.34395461E+03</rscale>
<asrwt>0</asrwt>
<pdfrwt beam="1">  1       21 0.70798105E-01 0.34422162E+03</pdfrwt>
<pdfrwt beam="2">  1       21 0.40080562E-01 0.34422162E+03</pdfrwt>
<totfact> 0.10018178E+04</totfact>
</mgrwt>
</event>
<event>
12    1  0.2742799E-001  0.1953007E+03  0.7546771E-02  0.1153890E+00
         21   -1    0    0  502  503  0.00000000000E+00  0.00000000000E+00  0.39833121693E+03  0.39833121693E+03  0.00000000000E+00 0.  1.
         21   -1    0    0  503  504 -0.00000000000E+00 -0.00000000000E+00 -0.95952135896E+02  0.95952135896E+02  0.00000000000E+00 0. -1.
         -6    2    1    2    0  504 -0.51137233115E+02  0.76211762738E+02  0.13356600421E+03  0.23613571672E+03  0.17174676079E+03 0.  0.
        -24    2    3    3    0    0 -0.51769361388E+02  0.10735791068E+03  0.14275980909E+03  0.20331654296E+03  0.82167303623E+02 0.  0.
          6    2    1    2  502    0  0.51137233115E+02 -0.76211762738E+02  0.16881307683E+03  0.25814763611E+03  0.17239227862E+03 0.  0.
         24    2    5    5    0    0  0.78584260230E+02 -0.70521896539E+02  0.18183755262E+03  0.22688358575E+03  0.85219962988E+02 0.  0.
          4    1    6    6  501    0  0.21131097665E+02 -0.50654213847E+02  0.28305169511E+02  0.61753990074E+02  0.00000000000E+00 0. -1.
         -3    1    6    6    0  501  0.57453162565E+02 -0.19867682692E+02  0.15353238311E+03  0.16512959568E+03  0.00000000000E+00 0.  1.
          5    1    5    5  502    0 -0.27447027115E+02 -0.56898661991E+01 -0.13024475796E+02  0.31264050355E+02  0.47000000000E+01 0. -1.
         13    1    4    4    0    0  0.26293636357E+01  0.71232701808E+02  0.10782867905E+03  0.12925956593E+03  0.00000000000E+00 0. -1.
        -14    1    4    4    0    0 -0.54398725024E+02  0.36125208877E+02  0.34931130048E+02  0.74056977032E+02  0.00000000000E+00 0.  1.
         -5    1    3    3    0  504  0.63212827380E+00 -0.31146147947E+02 -0.91938048858E+01  0.32819173761E+02  0.47000000000E+01 0.  1.
<mgrwt>
<rscale>  2 0.19515811E+03</rscale>
<asrwt>0</asrwt>
<pdfrwt beam="1">  1       21 0.61281724E-01 0.19530066E+03</pdfrwt>
<pdfrwt beam="2">  1       21 0.14761867E-01 0.19530066E+03</pdfrwt>
<totfact> 0.99896441E+04</totfact>
</mgrwt>
</event>
<event>
12    1  0.2742799E-001  0.2549133E+03  0.7546771E-02  0.1110593E+00
         21   -1    0    0  502  503  0.00000000000E+00  0.00000000000E+00  0.14276172437E+04  0.14276172437E+04  0.00000000000E+00 0.  1.
         21   -1    0    0  503  504 -0.00000000000E+00 -0.00000000000E+00 -0.98510008915E+02  0.98510008915E+02  0.00000000000E+00 0. -1.
         -6    2    1    2    0  504 -0.18428484888E+03 -0.44286962561E+01  0.10136404564E+03  0.27219977019E+03  0.17273542273E+03 0.  0.
        -24    2    3    3    0    0 -0.19745213102E+03  0.28853060156E+02  0.77849728077E+02  0.22911768854E+03  0.81329526726E+02 0.  0.
          6    2    1    2  502    0  0.18428484888E+03  0.44286962561E+01  0.12277431892E+04  0.12539274824E+04  0.17606894616E+03 0.  0.
         24    2    5    5    0    0  0.20001458052E+03 -0.13189472165E+02  0.11877170243E+04  0.12072155119E+04  0.80732693635E+02 0.  0.
          4    1    6    6  501    0  0.60008505326E+02  0.33951733085E+01  0.59197271340E+03  0.59501616896E+03  0.00000000000E+00 0. -1.
         -3    1    6    6    0  501  0.14000607519E+03 -0.16584645473E+02  0.59574431090E+03  0.61219934296E+03  0.00000000000E+00 0.  1.
          5    1    5    5  502    0 -0.15729731632E+02  0.17618168421E+02  0.40026164858E+02  0.46711970510E+02  0.47000000000E+01 0. -1.
         13    1    4    4    0    0 -0.92769804356E+02 -0.11930402040E+02  0.69372232627E+02  0.11645204057E+03  0.00000000000E+00 0. -1.
        -14    1    4    4    0    0 -0.10468232666E+03  0.40783462196E+02  0.84774954495E+01  0.11266564797E+03  0.00000000000E+00 0.  1.
         -5    1    3    3    0  504  0.13167282135E+02 -0.33281756412E+02  0.23514317560E+02  0.43082081647E+02  0.47000000000E+01 0.  1.
<mgrwt>
<rscale>  2 0.25433862E+03</rscale>
<asrwt>0</asrwt>
<pdfrwt beam="1">  1       21 0.21963341E+00 0.25491330E+03</pdfrwt>
<pdfrwt beam="2">  1       21 0.15155387E-01 0.25491330E+03</pdfrwt>
<totfact> 0.36842992E+03</totfact>
</mgrwt>
</event>
<event>
12    1  0.2742799E-001  0.1809047E+03  0.7546771E-02  0.1167654E+00
         21   -1    0    0  502  503  0.00000000000E+00  0.00000000000E+00  0.84854416876E+02  0.84854416876E+02  0.00000000000E+00 0. -1.
         21   -1    0    0  503  504 -0.00000000000E+00 -0.00000000000E+00 -0.48018497099E+03  0.48018497099E+03  0.00000000000E+00 0. -1.
         -6    2    1    2    0  504 -0.92050458403E+01 -0.48455193678E+02 -0.32842809403E+03  0.37495535952E+03  0.17405134306E+03 0.  0.
        -24    2    3    3    0    0  0.54799514965E+02  0.29624765916E+01 -0.18146424658E+03  0.20654864030E+03  0.81983564921E+02 0.  0.
          6    2    1    2  502    0  0.92050458403E+01  0.48455193678E+02 -0.66902460084E+02  0.19008402834E+03  0.17094841328E+03 0.  0.
         24    2    5    5    0    0 -0.30874875551E+02  0.34007109076E+02  0.13157278768E+02  0.99272140176E+02  0.87017828188E+02 0.  0.
          4    1    6    6  501    0 -0.37395250883E+02 -0.93434057215E+01  0.33384563820E+02  0.50992481020E+02  0.00000000000E+00 0. -1.
         -3    1    6    6    0  501  0.65203753324E+01  0.43350514797E+02 -0.20227285052E+02  0.48279659156E+02  0.00000000000E+00 0.  1.
          5    1    5    5  502    0  0.40079921391E+02  0.14448084602E+02 -0.80059738852E+02  0.90811888167E+02  0.47000000000E+01 0. -1.
         11    1    4    4    0    0  0.49861054468E+02 -0.20883498759E+02 -0.52676719302E+02  0.75479017147E+02  0.00000000000E+00 0. -1.
        -12    1    4    4    0    0  0.49384604972E+01  0.23845975351E+02 -0.12878752728E+03  0.13106962316E+03  0.00000000000E+00 0.  1.
         -5    1    3    3    0  504 -0.64004560805E+02 -0.51417670269E+02 -0.14696384745E+03  0.16840671921E+03  0.47000000000E+01 0.  1.
<mgrwt>
<rscale>  2 0.18015420E+03</rscale>
<asrwt>0</asrwt>
<pdfrwt beam="1">  1       21 0.13054526E-01 0.18090470E+03</pdfrwt>
<pdfrwt beam="2">  1       21 0.73874610E-01 0.18090470E+03</pdfrwt>
<totfact> 0.83363928E+04</totfact>
</mgrwt>
</event>
<event>
12    1  0.2742799E-001  0.2665610E+03  0.7546771E-02  0.1103933E+00
         21   -1    0    0  502  503  0.00000000000E+00  0.00000000000E+00  0.82719881499E+03  0.82719881499E+03  0.00000000000E+00 0.  1.
         21   -1    0    0  503  504 -0.00000000000E+00 -0.00000000000E+00 -0.30960274933E+03  0.30960274933E+03  0.00000000000E+00 0. -1.
         -6    2    1    2    0  504  0.15397023070E+03  0.12183361708E+03 -0.22654078878E+03  0.34636218646E+03  0.17348133339E+03 0.  0.
        -24    2    3    3    0    0  0.10472563983E+03  0.94233138050E+02 -0.23856659095E+03  0.28845254918E+03  0.80271482262E+02 0.  0.
          6    2    1    2  502    0 -0.15397023070E+03 -0.12183361708E+03  0.74413685444E+03  0.79043937786E+03  0.18029001567E+03 0.  0.
         24    2    5    5    0    0 -0.19313104615E+01 -0.27156185068E+02  0.19566736295E+03  0.21344672410E+03  0.80824493555E+02 0.  0.
          4    1    6    6  501    0 -0.12142156219E+02 -0.30126304706E+02  0.21493737267E+02  0.38948773211E+02  0.00000000000E+00 0. -1.
         -3    1    6    6    0  501  0.10210845758E+02  0.29701196384E+01  0.17417362568E+03  0.17449795089E+03  0.00000000000E+00 0.  1.
          5    1    5    5  502    0 -0.15203892024E+03 -0.94677432011E+02  0.54846949149E+03  0.57699265376E+03  0.47000000000E+01 0. -1.
         13    1    4    4    0    0  0.10539198037E+03  0.72785762088E+02 -0.14962460823E+03  0.19695877761E+03  0.00000000000E+00 0. -1.
        -14    1    4    4    0    0 -0.66634053938E+00  0.21447375962E+02 -0.88941982725E+02  0.91493771571E+02  0.00000000000E+00 0.  1.
         -5    1    3    3    0  504  0.49244590867E+02  0.27600479029E+02  0.12025802166E+02  0.57909637281E+02  0.47000000000E+01 0.  1.
<mgrwt>
<rscale>  2 0.26541432E+03</rscale>
<asrwt>0</asrwt>
<pdfrwt beam="1">  1       21 0.12726136E+00 0.26656097E+03</pdfrwt>
<pdfrwt beam="2">  1       21 0.47631193E-01 0.26656097E+03</pdfrwt>
<totfact> 0.18097961E+03</totfact>
</mgrwt>
</event>
<event>
12    1  0.2742799E-001  0.2909722E+03  0.7546771E-02  0.1089998E+00
         21   -1    0    0  502  503  0.00000000000E+00  0.00000000000E+00  0.85145593168E+02  0.85145593168E+02  0.00000000000E+00 0. -1.
         21   -1    0    0  503  504 -0.00000000000E+00 -0.00000000000E+00 -0.99845288592E+03  0.99845288592E+03  0.00000000000E+00 0.  1.
         -6    2    1    2    0  504 -0.21805394779E+03 -0.81816737147E+02 -0.50473951801E+03  0.58200858337E+03  0.17242536777E+03 0.  0.
        -24    2    3    3    0    0 -0.20184784524E+03 -0.99162140077E+02 -0.34028592157E+03  0.41578410820E+03  0.80661227108E+02 0.  0.
          6    2    1    2  502    0  0.21805394779E+03  0.81816737147E+02 -0.40856777474E+03  0.50158989572E+03  0.17442274596E+03 0.  0.
         24    2    5    5    0    0  0.16153557605E+03  0.22074603960E+02 -0.36651853061E+03  0.40910380080E+03  0.80306015195E+02 0.  0.
          2    1    6    6  501    0  0.24194295416E+02  0.33288756175E+02 -0.11754697755E+03  0.12454235083E+03  0.00000000000E+00 0. -1.
         -1    1    6    6    0  501  0.13734128063E+03 -0.11214152216E+02 -0.24897155306E+03  0.28456144997E+03  0.00000000000E+00 0.  1.
          5    1    5    5  502    0  0.56518371737E+02  0.59742133188E+02 -0.42049244123E+02  0.92486094917E+02  0.47000000000E+01 0. -1.
         11    1    4    4    0    0 -0.15306526516E+03 -0.45725049520E+02 -0.18472480595E+03  0.24421918329E+03  0.00000000000E+00 0. -1.
        -12    1    4    4    0    0 -0.48782580082E+02 -0.53437090557E+02 -0.15556111563E+03  0.17156492492E+03  0.00000000000E+00 0.  1.
         -5    1    3    3    0  504 -0.16206102541E+02  0.17345402930E+02 -0.16445359644E+03  0.16622447517E+03  0.47000000000E+01 0.  1.
<mgrwt>
<rscale>  2 0.29067347E+03</rscale>
<asrwt>0</asrwt>
<pdfrwt beam="1">  1       21 0.13099322E-01 0.29097216E+03</pdfrwt>
<pdfrwt beam="2">  1       21 0.15360813E+00 0.29097216E+03</pdfrwt>
<totfact> 0.13261256E+04</totfact>
</mgrwt>
</event>
<event>
12    1  0.2742799E-001  0.1778887E+03  0.7546771E-02  0.1170116E+00
         21   -1    0    0  502  503  0.00000000000E+00  0.00000000000E+00  0.43377930682E+03  0.43377930682E+03  0.00000000000E+00 0. -1.
         21   -1    0    0  503  504 -0.00000000000E+00 -0.00000000000E+00 -0.73328914394E+02  0.73328914394E+02  0.00000000000E+00 0. -1.
         -6    2    1    2    0  504  0.32876917256E+02 -0.17842414290E+02  0.20618870466E+03  0.27164900958E+03  0.17285878353E+03 0.  0.
        -24    2    3    3    0    0  0.68931385068E+02 -0.32001353652E+02  0.20465341143E+03  0.23259971588E+03  0.80274445101E+02 0.  0.
          6    2    1    2  502    0 -0.32876917256E+02  0.17842414290E+02  0.15426168777E+03  0.23545921163E+03  0.17391126644E+03 0.  0.
         24    2    5    5    0    0 -0.12107301511E+02 -0.56966387673E+02  0.97344271318E+02  0.13907759469E+03  0.80466851014E+02 0.  0.
          4    1    6    6  501    0 -0.24387241182E+02 -0.64624090832E+02  0.39751448406E+02  0.79694342953E+02  0.00000000000E+00 0. -1.
         -3    1    6    6    0  501  0.12279939671E+02  0.76577031586E+01  0.57592822912E+02  0.59383251738E+02  0.00000000000E+00 0.  1.
          5    1    5    5  502    0 -0.20769615745E+02  0.74808801963E+02  0.56917416451E+02  0.96381616944E+02  0.47000000000E+01 0. -1.
         11    1    4    4    0    0  0.40490332820E+02 -0.44541219156E+02  0.18786449013E+03  0.19727253714E+03  0.00000000000E+00 0. -1.
        -12    1    4    4    0    0  0.28441052248E+02  0.12539865504E+02  0.16788921297E+02  0.35327178746E+02  0.00000000000E+00 0.  1.
         -5    1    3    3    0  504 -0.36054467812E+02  0.14158939362E+02  0.15352932295E+01  0.39049293699E+02  0.47000000000E+01 0.  1.
<mgrwt>
<rscale>  2 0.17763089E+03</rscale>
<asrwt>0</asrwt>
<pdfrwt beam="1">  1       21 0.66735277E-01 0.17788865E+03</pdfrwt>
<pdfrwt beam="2">  1       21 0.11281372E-01 0.17788865E+03</pdfrwt>
<totfact> 0.13552155E+05</totfact>
</mgrwt>
</event>
<event>
12    1  0.2742799E-001  0.1747165E+03  0.7546771E-02  0.1173312E+00
         21   -1    0    0  502  503  0.00000000000E+00  0.00000000000E+00  0.12184158155E+04  0.12184158155E+04  0.00000000000E+00 0.  1.
         21   -1    0    0  503  504 -0.00000000000E+00 -0.00000000000E+00 -0.31175676825E+02  0.31175676825E+02  0.00000000000E+00 0.  1.
         -6    2    1    2    0  504 -0.13499713361E+02  0.39812207124E+01  0.31458259193E+03  0.35984448660E+03  0.17414865781E+03 0.  0.
        -24    2    3    3    0    0 -0.48741074383E+02  0.22140828105E+02  0.86970260952E+02  0.12875751579E+03  0.78414048366E+02 0.  0.
          6    2    1    2  502    0  0.13499713361E+02 -0.39812207124E+01  0.87265754673E+03  0.88974700570E+03  0.17297528123E+03 0.  0.
         24    2    5    5    0    0  0.69679255291E+02 -0.21716804496E+02  0.65653476297E+03  0.66568933562E+03  0.82326049058E+02 0.  0.
          4    1    6    6  501    0 -0.57287602007E+00 -0.37644958018E+02  0.25065475922E+03  0.25346652515E+03  0.00000000000E+00 0. -1.
         -3    1    6    6    0  501  0.70252131311E+02  0.15928153522E+02  0.40588000375E+03  0.41222281047E+03  0.00000000000E+00 0.  1.
          5    1    5    5  502    0 -0.56179541931E+02  0.17735583783E+02  0.21612278375E+03  0.22405767008E+03  0.47000000000E+01 0. -1.
         11    1    4    4    0    0 -0.50042128875E+02  0.42337354219E+02  0.86477946049E+02  0.10851313919E+03  0.00000000000E+00 0. -1.
        -12    1    4    4    0    0  0.13010544919E+01 -0.20196526113E+02  0.49231490302E+00  0.20244376597E+02  0.00000000000E+00 0.  1.
         -5    1    3    3    0  504  0.35241361023E+02 -0.18159607393E+02  0.22761233098E+03  0.23108697081E+03  0.47000000000E+01 0.  1.
<mgrwt>
<rscale>  2 0.17442336E+03</rscale>
<asrwt>0</asrwt>
<pdfrwt beam="1">  1       21 0.18744855E+00 0.17471648E+03</pdfrwt>
<pdfrwt beam="2">  1       21 0.47962589E-02 0.17471648E+03</pdfrwt>
<totfact> 0.47345723E+04</totfact>
</mgrwt>
</event>
<event>
12    1  0.2742799E-001  0.2954023E+03  0.7546771E-02  0.1087575E+00
         21   -1    0    0  502  503  0.00000000000E+00  0.00000000000E+00  0.23013851176E+04  0.23013851176E+04  0.00000000000E+00 0. -1.
         21   -1    0    0  503  504 -0.00000000000E+00 -0.00000000000E+00 -0.40682170367E+02  0.40682170367E+02  0.00000000000E+00 0.  1.
         -6    2    1    2    0  504  0.21072046565E+03  0.11311792281E+03  0.82451012654E+03  0.87583074326E+03  0.17338905093E+03 0.  0.
        -24    2    3    3    0    0  0.22843357376E+03  0.10190731315E+03  0.80371797192E+03  0.84593365876E+03  0.84108136054E+02 0.  0.
          6    2    1    2  502    0 -0.21072046565E+03 -0.11311792281E+03  0.14361928207E+04  0.14662365447E+04  0.17320798972E+03 0.  0.
         24    2    5    5    0    0 -0.22753058631E+03 -0.10689008381E+03  0.11670071664E+04  0.11964136905E+04  0.79399841448E+02 0.  0.
          2    1    6    6  501    0 -0.17956167659E+03 -0.11445988513E+03  0.88512074558E+03  0.91037475539E+03  0.00000000000E+00 0. -1.
         -1    1    6    6    0  501 -0.47968909719E+02  0.75698013172E+01  0.28188642078E+03  0.28603893513E+03  0.00000000000E+00 0.  1.
          5    1    5    5  502    0  0.16810120665E+02 -0.62278389948E+01  0.26918565435E+03  0.26982285419E+03  0.47000000000E+01 0. -1.
         13    1    4    4    0    0  0.16587087346E+03  0.10967991421E+03  0.56255391153E+03  0.59666551235E+03  0.00000000000E+00 0. -1.
        -14    1    4    4    0    0  0.62562700297E+02 -0.77726010627E+01  0.24116406039E+03  0.24926814642E+03  0.00000000000E+00 0.  1.
         -5    1    3    3    0  504 -0.17713108112E+02  0.11210609662E+02  0.20792154617E+02  0.29897084500E+02  0.47000000000E+01 0.  1.
<mgrwt>
<rscale>  2 0.29537578E+03</rscale>
<asrwt>0</asrwt>
<pdfrwt beam="1">  1       21 0.35405915E+00 0.29540234E+03</pdfrwt>
<pdfrwt beam="2">  1       21 0.62587972E-02 0.29540234E+03</pdfrwt>
<totfact> 0.27177330E+03</totfact>
</mgrwt>
</event>
<event>
12    1  0.2742799E-001  0.1951601E+03  0.7546771E-02  0.1153915E+00
         21   -1    0    0  502  503  0.00000000000E+00  0.00000000000E+00  0.14835122231E+03  0.14835122231E+03  0.00000000000E+00 0.  1.
         21   -1    0    0  503  504 -0.00000000000E+00 -0.00000000000E+00 -0.60296097542E+03  0.60296097542E+03  0.00000000000E+00 0. -1.
         -6    2    1    2    0  504 -0.36016513294E+02 -0.82765979159E+02 -0.51199884517E+03  0.54788907708E+03  0.17289368638E+03 0.  0.
        -24    2    3    3    0    0 -0.65741698193E+02 -0.40444719530E+02 -0.46477558519E+03  0.47769789589E+03  0.78874513790E+02 0.  0.
          6    2    1    2  502    0  0.36016513294E+02  0.82765979159E+02  0.57389092056E+02  0.20342312066E+03  0.17303196698E+03 0.  0.
         24    2    5    5    0    0  0.61622068211E+01  0.73429570053E+02 -0.27266732851E+02  0.11305085257E+03  0.81284352705E+02 0.  0.
          2    1    6    6  501    0 -0.14840506436E+02  0.43633185739E+02 -0.51627241791E+02  0.69205979683E+02  0.00000000000E+00 0. -1.
         -1    1    6    6    0  501  0.21002713257E+02  0.29796384314E+02  0.24360508940E+02  0.43844872883E+02  0.00000000000E+00 0.  1.
          5    1    5    5  502    0  0.29854306473E+02  0.93364091065E+01  0.84655824907E+02  0.90372268095E+02  0.47000000000E+01 0. -1.
         11    1    4    4    0    0  0.10596016107E+02  0.12297857503E+02 -0.99862769692E+02  0.10117354213E+03  0.00000000000E+00 0. -1.
        -12    1    4    4    0    0 -0.76337714300E+02 -0.52742577033E+02 -0.36491281550E+03  0.37652435376E+03  0.00000000000E+00 0.  1.
         -5    1    3    3    0  504  0.29725184899E+02 -0.42321259629E+02 -0.47223259977E+02  0.70191181189E+02  0.47000000000E+01 0.  1.
<mgrwt>
<rscale>  2 0.19512943E+03</rscale>
<asrwt>0</asrwt>
<pdfrwt beam="1">  1       21 0.22823265E-01 0.19516008E+03</pdfrwt>
<pdfrwt beam="2">  1       21 0.92763226E-01 0.19516008E+03</pdfrwt>
<totfact> 0.17610158E+04</totfact>
</mgrwt>
</event>
<event>
12    1  0.2742799E-001  0.2220848E+03  0.7546771E-02  0.1132473E+00
         21   -1    0    0  502  503  0.00000000000E+00  0.00000000000E+00  0.19989038097E+03  0.19989038097E+03  0.00000000000E+00 0.  1.
         21   -1    0    0  503  504 -0.00000000000E+00 -0.00000000000E+00 -0.70556620703E+03  0.70556620703E+03  0.00000000000E+00 0.  1.
         -6    2    1    2    0  504 -0.62905267360E+02 -0.12451726447E+03 -0.61838835354E+03  0.65705844575E+03  0.17280053104E+03 0.  0.
        -24    2    3    3    0    0 -0.87049290103E+02 -0.30943036849E+02 -0.28130906065E+03  0.30636825540E+03  0.78687164649E+02 0.  0.
          6    2    1    2  502    0  0.62905267360E+02  0.12451726447E+03  0.11271252749E+03  0.24839814225E+03  0.17186012163E+03 0.  0.
         24    2    5    5    0    0  0.10565553763E+03  0.98740137405E+02  0.61891819172E+02  0.17700570370E+03  0.81164736780E+02 0.  0.
          4    1    6    6  501    0  0.11778187948E+03  0.83214485519E+02  0.62781478268E+02  0.15728552301E+03  0.00000000000E+00 0. -1.
         -3    1    6    6    0  501 -0.12126341855E+02  0.15525651886E+02 -0.88965909587E+00  0.19720180693E+02  0.00000000000E+00 0.  1.
          5    1    5    5  502    0 -0.42750270269E+02  0.25777127070E+02  0.50820708313E+02  0.71392438546E+02  0.47000000000E+01 0. -1.
         13    1    4    4    0    0 -0.61512984119E+01  0.68569867788E+01  0.19088466349E+01  0.94074669977E+01  0.00000000000E+00 0. -1.
        -14    1    4    4    0    0 -0.80897991692E+02 -0.37800023628E+02 -0.28321790728E+03  0.29696078841E+03  0.00000000000E+00 0.  1.
         -5    1    3    3    0  504  0.24144022743E+02 -0.93574227626E+02 -0.33707929289E+03  0.35069019035E+03  0.47000000000E+01 0.  1.
<mgrwt>
<rscale>  2 0.22190181E+03</rscale>
<asrwt>0</asrwt>
<pdfrwt beam="1">  1       21 0.30752366E-01 0.22208477E+03</pdfrwt>
<pdfrwt beam="2">  1       21 0.10854865E+00 0.22208477E+03</pdfrwt>
<totfact> 0.67015586E+03</totfact>
</mgrwt>
</event>
<event>
12    1  0.2742799E-001  0.2269584E+03  0.7546771E-02  0.1131045E+00
         21   -1    0    0  502  503  0.00000000000E+00  0.00000000000E+00  0.47688930341E+03  0.47688930341E+03  0.00000000000E+00 0. -1.
         21   -1    0    0  503  504 -0.00000000000E+00 -0.00000000000E+00 -0.10311657221E+03  0.10311657221E+03  0.00000000000E+00 0. -1.
         -6    2    1    2    0  504 -0.11520324606E+03  0.52533386223E+02  0.20768299239E+03  0.29876590308E+03  0.17348571971E+03 0.  0.
        -24    2    3    3    0    0 -0.93433719139E+02  0.54404173496E+02  0.56394500355E+02  0.14583549417E+03  0.79987359766E+02 0.  0.
          6    2    1    2  502    0  0.11520324606E+03 -0.52533386223E+02  0.16608973881E+03  0.28123997254E+03  0.18835757549E+03 0.  0.
         24    2    5    5    0    0 -0.13006355590E+02 -0.37199399577E+02  0.94354453124E+02  0.13345338887E+03  0.85755953505E+02 0.  0.
          2    1    6    6  501    0 -0.90782862505E+01 -0.56213512468E+02  0.98337160020E+02  0.11363349553E+03  0.00000000000E+00 0. -1.
         -1    1    6    6    0  501 -0.39280693394E+01  0.19014112891E+02 -0.39827068965E+01  0.19819893339E+02  0.00000000000E+00 0.  1.
          5    1    5    5  502    0  0.12820960165E+03 -0.15333986645E+02  0.71735285684E+02  0.14778658367E+03  0.47000000000E+01 0. -1.
         13    1    4    4    0    0 -0.32679704057E+02 -0.19098167310E+02  0.25322163684E+02  0.45540257196E+02  0.00000000000E+00 0. -1.
        -14    1    4    4    0    0 -0.60754015082E+02  0.73502340806E+02  0.31072336671E+02  0.10029523697E+03  0.00000000000E+00 0.  1.
         -5    1    3    3    0  504 -0.21769526918E+02 -0.18707872733E+01  0.15128849204E+03  0.15293040891E+03  0.47000000000E+01 0.  1.
<mgrwt>
<rscale>  2 0.22384958E+03</rscale>
<asrwt>0</asrwt>
<pdfrwt beam="1">  1       21 0.73367584E-01 0.22695841E+03</pdfrwt>
<pdfrwt beam="2">  1       21 0.15864088E-01 0.22695841E+03</pdfrwt>
<totfact> 0.58217267E+04</totfact>
</mgrwt>
</event>
<event>
12    1  0.2742799E-001  0.1948351E+03  0.7546771E-02  0.1154624E+00
         21   -1    0    0  502  503  0.00000000000E+00  0.00000000000E+00  0.22949904705E+03  0.22949904705E+03  0.00000000000E+00 0. -1.
         21   -1    0    0  503  504 -0.00000000000E+00 -0.00000000000E+00 -0.16936181155E+03  0.16936181155E+03  0.00000000000E+00 0. -1.
         -6    2    1    2    0  504  0.17831876172E+02 -0.84175898841E+02 -0.66803336459E+01  0.19288682701E+03  0.17250258961E+03 0.  0.
        -24    2    3    3    0    0  0.88899788502E+01 -0.12600111613E+03 -0.98511369383E+01  0.14974229870E+03  0.79814773886E+02 0.  0.
          6    2    1    2  502    0 -0.17831876172E+02  0.84175898841E+02  0.66817569142E+02  0.20597403159E+03  0.17480605364E+03 0.  0.
         24    2    5    5    0    0 -0.55661796990E+02  0.36363514107E+02  0.92187404298E+02  0.13977096838E+03  0.81344116492E+02 0.  0.
          4    1    6    6  501    0 -0.18935291397E+02  0.47419063230E+01  0.89095108788E+02  0.91208384186E+02  0.00000000000E+00 0. -1.
         -3    1    6    6    0  501 -0.36726505593E+02  0.31621607784E+02  0.30922955104E+01  0.48562584192E+02  0.00000000000E+00 0.  1.
          5    1    5    5  502    0  0.37829920818E+02  0.47812384734E+02 -0.25369835156E+02  0.66203063213E+02  0.47000000000E+01 0. -1.
         13    1    4    4    0    0 -0.19435295239E+02 -0.99415327905E+02  0.16732394672E+02  0.10266991358E+03  0.00000000000E+00 0. -1.
        -14    1    4    4    0    0  0.28325274089E+02 -0.26585788230E+02 -0.26583531610E+02  0.47072385120E+02  0.00000000000E+00 0.  1.
         -5    1    3    3    0  504  0.89418973217E+01  0.41825217294E+02  0.31708032924E+01  0.43144528308E+02  0.47000000000E+01 0.  1.
<mgrwt>
<rscale>  2 0.19431704E+03</rscale>
<asrwt>0</asrwt>
<pdfrwt beam="1">  1       21 0.35307546E-01 0.19483509E+03</pdfrwt>
<pdfrwt beam="2">  1       21 0.26055663E-01 0.19483509E+03</pdfrwt>
<totfact> 0.10814342E+05</totfact>
</mgrwt>
</event>
<event>
12    1  0.2742799E-001  0.1940481E+03  0.7546771E-02  0.1154913E+00
         21   -1    0    0  502  503  0.00000000000E+00  0.00000000000E+00  0.86898269291E+02  0.86898269291E+02  0.00000000000E+00 0.  1.
         21   -1    0    0  503  504 -0.00000000000E+00 -0.00000000000E+00 -0.65637755794E+03  0.65637755794E+03  0.00000000000E+00 0. -1.
         -6    2    1    2    0  504  0.88028808370E+02 -0.13431935753E+02 -0.50153047039E+03  0.53767497811E+03  0.17213971463E+03 0.  0.
        -24    2    3    3    0    0  0.45720750571E+02 -0.75029495722E+02 -0.31212728604E+03  0.33400886067E+03  0.80116565435E+02 0.  0.
          6    2    1    2  502    0 -0.88028808370E+02  0.13431935753E+02 -0.67948818256E+02  0.20560084912E+03  0.17240991635E+03 0.  0.
         24    2    5    5    0    0 -0.35977864748E+02  0.56568682019E+02  0.81993326909E+01  0.10366601453E+03  0.78644713585E+02 0.  0.
          4    1    6    6  501    0 -0.28283809801E+01  0.47346504893E+02 -0.26888588483E+02  0.54522357388E+02  0.00000000000E+00 0. -1.
         -3    1    6    6    0  501 -0.33149483768E+02  0.92221771255E+01  0.35087921174E+02  0.49143657142E+02  0.00000000000E+00 0.  1.
          5    1    5    5  502    0 -0.52050943621E+02 -0.43136746266E+02 -0.76148150947E+02  0.10193483459E+03  0.47000000000E+01 0. -1.
         11    1    4    4    0    0  0.52323771070E+02 -0.27355207197E+02 -0.24100566072E+03  0.24813265178E+03  0.00000000000E+00 0. -1.
        -12    1    4    4    0    0 -0.66030204988E+01 -0.47674288525E+02 -0.71121625319E+02  0.85876208895E+02  0.00000000000E+00 0.  1.
         -5    1    3    3    0  504  0.42308057798E+02  0.61597559969E+02 -0.18940318436E+03  0.20366611744E+03  0.47000000000E+01 0.  1.
<mgrwt>
<rscale>  2 0.19398807E+03</rscale>
<asrwt>0</asrwt>
<pdfrwt beam="1">  1       21 0.13368964E-01 0.19404811E+03</pdfrwt>
<pdfrwt beam="2">  1       21 0.10098116E+00 0.19404811E+03</pdfrwt>
<totfact> 0.38738733E+04</totfact>
</mgrwt>
</event>
<event>
12    1  0.2742799E-001  0.2529100E+03  0.7546771E-02  0.1111537E+00
         21   -1    0    0  502  503  0.00000000000E+00  0.00000000000E+00  0.24000759380E+03  0.24000759380E+03  0.00000000000E+00 0.  1.
         21   -1    0    0  503  504 -0.00000000000E+00 -0.00000000000E+00 -0.29674472067E+03  0.29674472067E+03  0.00000000000E+00 0.  1.
         -6    2    1    2    0  504  0.37409726643E+02  0.18052644389E+03 -0.11457135741E+03  0.27731399469E+03  0.17258960317E+03 0.  0.
        -24    2    3    3    0    0  0.63364619862E+02  0.44952478265E+02 -0.32977508999E+02  0.11689702945E+03  0.80880152344E+02 0.  0.
          6    2    1    2  502    0 -0.37409726643E+02 -0.18052644389E+03  0.57834230540E+02  0.25943831979E+03  0.17313046804E+03 0.  0.
         24    2    5    5    0    0 -0.47854298013E+02 -0.79500294989E+02 -0.28343637655E+02  0.12615633751E+03  0.80633299311E+02 0.  0.
          4    1    6    6  501    0 -0.40795867401E+02 -0.56573980625E+02 -0.56071062266E+02  0.89492357798E+02  0.00000000000E+00 0. -1.
         -3    1    6    6    0  501 -0.70584306114E+01 -0.22926314365E+02  0.27727424611E+02  0.36663979716E+02  0.00000000000E+00 0.  1.
          5    1    5    5  502    0  0.10444571370E+02 -0.10102614890E+03  0.86177868195E+02  0.13328198227E+03  0.47000000000E+01 0. -1.
         11    1    4    4    0    0  0.71166707082E+02  0.56713664150E+01 -0.14771060190E+02  0.72904381303E+02  0.00000000000E+00 0. -1.
        -12    1    4    4    0    0 -0.78020872209E+01  0.39281111850E+02 -0.18206448809E+02  0.43992648152E+02  0.00000000000E+00 0.  1.
         -5    1    3    3    0  504 -0.25954893219E+02  0.13557396562E+03 -0.81593848407E+02  0.16041696523E+03  0.47000000000E+01 0.  1.
<mgrwt>
<rscale>  2 0.25281741E+03</rscale>
<asrwt>0</asrwt>
<pdfrwt beam="1">  1       21 0.36924245E-01 0.25290995E+03</pdfrwt>
<pdfrwt beam="2">  1       21 0.45653034E-01 0.25290995E+03</pdfrwt>
<totfact> 0.31592979E+04</totfact>
</mgrwt>
</event>
<event>
12    1  0.2742799E-001  0.1911509E+03  0.7546771E-02  0.1157678E+00
         21   -1    0    0  502  503  0.00000000000E+00  0.00000000000E+00  0.12192186390E+04  0.12192186390E+04  0.00000000000E+00 0.  1.
         21   -1    0    0  503  504 -0.00000000000E+00 -0.00000000000E+00 -0.37900868871E+02  0.37900868871E+02  0.00000000000E+00 0. -1.
         -6    2    1    2    0  504 -0.37354230913E+02  0.70356723262E+02  0.30132280839E+03  0.35683903838E+03  0.17376207117E+03 0.  0.
        -24    2    3    3    0    0 -0.21606389668E+02  0.17547337661E+02  0.55843464395E+02  0.10520632182E+03  0.84706153865E+02 0.  0.
          6    2    1    2  502    0  0.37354230913E+02 -0.70356723262E+02  0.87999496169E+03  0.90028046944E+03  0.17253516740E+03 0.  0.
         24    2    5    5    0    0 -0.30927827232E+02 -0.61587916330E+02  0.35425249034E+03  0.37002905020E+03  0.81713335135E+02 0.  0.
          2    1    6    6  501    0 -0.31042765163E+02 -0.52105229712E+02  0.11016535436E+03  0.12575775735E+03  0.00000000000E+00 0. -1.
         -1    1    6    6    0  501  0.11493793131E+00 -0.94826866186E+01  0.24408713598E+03  0.24427129285E+03  0.00000000000E+00 0.  1.
          5    1    5    5  502    0  0.68282058145E+02 -0.87688069319E+01  0.52574247134E+03  0.53025141925E+03  0.47000000000E+01 0. -1.
         11    1    4    4    0    0  0.38716526557E+01  0.44628333276E+02  0.50725056525E+02  0.67673548634E+02  0.00000000000E+00 0. -1.
        -12    1    4    4    0    0 -0.25478042324E+02 -0.27080995615E+02  0.51184078696E+01  0.37532773189E+02  0.00000000000E+00 0.  1.
         -5    1    3    3    0  504 -0.15747841245E+02  0.52809385601E+02  0.24547934400E+03  0.25163271656E+03  0.47000000000E+01 0.  1.
<mgrwt>
<rscale>  2 0.19087163E+03</rscale>
<asrwt>0</asrwt>
<pdfrwt beam="1">  1       21 0.18757207E+00 0.19115089E+03</pdfrwt>
<pdfrwt beam="2">  1       21 0.58309038E-02 0.19115089E+03</pdfrwt>
<totfact> 0.33545442E+04</totfact>
</mgrwt>
</event>
<event>
12    1  0.2742799E-001  0.1876450E+03  0.7546771E-02  0.1160768E+00
         21   -1    0    0  502  503  0.00000000000E+00  0.00000000000E+00  0.29160468260E+03  0.29160468260E+03  0.00000000000E+00 0. -1.
         21   -1    0    0  503  504 -0.00000000000E+00 -0.00000000000E+00 -0.33145717830E+03  0.33145717830E+03  0.00000000000E+00 0. -1.
         -6    2    1    2    0  504 -0.45524839349E+02  0.57127664466E+02 -0.26859990571E+03  0.32765310847E+03  0.17284261366E+03 0.  0.
        -24    2    3    3    0    0 -0.31742558668E+02  0.73984724921E+02 -0.82578586421E+02  0.14030281363E+03  0.79901983858E+02 0.  0.
          6    2    1    2  502    0  0.45524839349E+02 -0.57127664466E+02  0.22874741000E+03  0.29540875243E+03  0.17206066483E+03 0.  0.
         24    2    5    5    0    0 -0.14431743164E+02 -0.74393288310E+02  0.87016795444E+02  0.14048118659E+03  0.80127426886E+02 0.  0.
          2    1    6    6  501    0 -0.43956367002E+02 -0.20620276363E+02  0.44328640328E+02  0.65744857979E+02  0.00000000000E+00 0. -1.
         -1    1    6    6    0  501  0.29524623839E+02 -0.53773011948E+02  0.42688155116E+02  0.74736328609E+02  0.00000000000E+00 0.  1.
          5    1    5    5  502    0  0.59956582513E+02  0.17265623844E+02  0.14173061456E+03  0.15492756584E+03  0.47000000000E+01 0. -1.
         13    1    4    4    0    0 -0.20026095949E+02  0.78255292782E+02 -0.93616773779E+02  0.12364884027E+03  0.00000000000E+00 0. -1.
        -14    1    4    4    0    0 -0.11716462718E+02 -0.42705678615E+01  0.11038187358E+02  0.16653973359E+02  0.00000000000E+00 0.  1.
         -5    1    3    3    0  504 -0.13782280682E+02 -0.16857060455E+02 -0.18602131928E+03  0.18735029484E+03  0.47000000000E+01 0.  1.
<mgrwt>
<rscale>  2 0.18746475E+03</rscale>
<asrwt>0</asrwt>
<pdfrwt beam="1">  1       21 0.44862259E-01 0.18764501E+03</pdfrwt>
<pdfrwt beam="2">  1       21 0.50993412E-01 0.18764501E+03</pdfrwt>
<totfact> 0.17492321E+04</totfact>
</mgrwt>
</event>
<event>
12    1  0.2742799E-001  0.2736855E+03  0.7546771E-02  0.1099415E+00
         21   -1    0    0  502  503  0.00000000000E+00  0.00000000000E+00  0.40191175060E+03  0.40191175060E+03  0.00000000000E+00 0.  1.
         21   -1    0    0  503  504 -0.00000000000E+00 -0.00000000000E+00 -0.30135054070E+03  0.30135054070E+03  0.00000000000E+00 0. -1.
         -6    2    1    2    0  504  0.96204627334E+02  0.18737685766E+03 -0.16785988929E+03  0.32106179858E+03  0.17475216441E+03 0.  0.
        -24    2    3    3    0    0  0.11926972744E+03  0.18683058649E+03 -0.11504972924E+03  0.26324051997E+03  0.83235780907E+02 0.  0.
          6    2    1    2  502    0 -0.96204627334E+02 -0.18737685766E+03  0.26842109919E+03  0.38220049271E+03  0.17222634243E+03 0.  0.
         24    2    5    5    0    0 -0.10453066896E+03 -0.20704021787E+03  0.26032668042E+03  0.35888568371E+03  0.85068448110E+02 0.  0.
          2    1    6    6  501    0 -0.37874982445E+02 -0.11167164329E+03  0.74006964878E+02  0.13921961450E+03  0.00000000000E+00 0. -1.
         -1    1    6    6    0  501 -0.66655686511E+02 -0.95368574572E+02  0.18631971555E+03  0.21966606921E+03  0.00000000000E+00 0.  1.
          5    1    5    5  502    0  0.83260416221E+01  0.19663360203E+02  0.80944187701E+01  0.23314809002E+02  0.47000000000E+01 0. -1.
         13    1    4    4    0    0  0.97545721539E+02  0.18612319952E+03 -0.86222375919E+02  0.22713720809E+03  0.00000000000E+00 0. -1.
        -14    1    4    4    0    0  0.21724005906E+02  0.70738696438E+00 -0.28827353320E+02  0.36103311875E+02  0.00000000000E+00 0.  1.
         -5    1    3    3    0  504 -0.23065100111E+02  0.54627117380E+00 -0.52810160057E+02  0.57821278614E+02  0.47000000000E+01 0.  1.
<mgrwt>
<rscale>  2 0.27328313E+03</rscale>
<asrwt>0</asrwt>
<pdfrwt beam="1">  1       21 0.61832577E-01 0.27368547E+03</pdfrwt>
<pdfrwt beam="2">  1       21 0.46361622E-01 0.27368547E+03</pdfrwt>
<totfact> 0.10319082E+04</totfact>
</mgrwt>
</event>
<event>
12    1  0.2742799E-001  0.1837057E+03  0.7546771E-02  0.1164847E+00
         21   -1    0    0  502  503  0.00000000000E+00  0.00000000000E+00  0.18701202373E+03  0.18701202373E+03  0.00000000000E+00 0. -1.
         21   -1    0    0  503  504 -0.00000000000E+00 -0.00000000000E+00 -0.51927205820E+03  0.51927205820E+03  0.00000000000E+00 0. -1.
         -6    2    1    2    0  504 -0.63094294308E+02 -0.56265198641E+01 -0.45200961773E+03  0.48699488939E+03  0.16981984593E+03 0.  0.
        -24    2    3    3    0    0 -0.45601244628E+02  0.10804087255E+02 -0.45332768581E+03  0.46250409641E+03  0.78789889365E+02 0.  0.
          6    2    1    2  502    0  0.63094294308E+02  0.56265198641E+01  0.11974958327E+03  0.21928919254E+03  0.17243908945E+03 0.  0.
         24    2    5    5    0    0  0.46422220510E+02 -0.34504152761E+02  0.13955973046E+03  0.17130001811E+03  0.80754063214E+02 0.  0.
          4    1    6    6  501    0  0.45716451917E+02 -0.53509071484E+02  0.13421006068E+03  0.15154390484E+03  0.00000000000E+00 0. -1.
         -3    1    6    6    0  501  0.70576859347E+00  0.19004918723E+02  0.53496697808E+01  0.19756113275E+02  0.00000000000E+00 0.  1.
          5    1    5    5  502    0  0.16672073798E+02  0.40130672625E+02 -0.19810147191E+02  0.47989174423E+02  0.47000000000E+01 0. -1.
         13    1    4    4    0    0 -0.43571964648E+02 -0.28222106204E+02 -0.23029847481E+03  0.23607708673E+03  0.00000000000E+00 0. -1.
        -14    1    4    4    0    0 -0.20292799793E+01  0.39026193459E+02 -0.22302921100E+03  0.22642700968E+03  0.00000000000E+00 0.  1.
         -5    1    3    3    0  504 -0.17493049680E+02 -0.16430607119E+02  0.13180680720E+01  0.24490792981E+02  0.47000000000E+01 0.  1.
<mgrwt>
<rscale>  2 0.18308852E+03</rscale>
<asrwt>0</asrwt>
<pdfrwt beam="1">  1       21 0.28771081E-01 0.18370571E+03</pdfrwt>
<pdfrwt beam="2">  1       21 0.79888008E-01 0.18370571E+03</pdfrwt>
<totfact> 0.16038489E+04</totfact>
</mgrwt>
</event>
<event>
12    1  0.2742799E-001  0.2344441E+03  0.7546771E-02  0.1123745E+00
         21   -1    0    0  502  503  0.00000000000E+00  0.00000000000E+00  0.15216593949E+03  0.15216593949E+03  0.00000000000E+00 0. -1.
         21   -1    0    0  503  504 -0.00000000000E+00 -0.00000000000E+00 -0.46761660177E+03  0.46761660177E+03  0.00000000000E+00 0. -1.
         -6    2    1    2    0  504  0.15036491109E+03  0.46515428468E+02 -0.30646085201E+03  0.38516610619E+03  0.17222480648E+03 0.  0.
        -24    2    3    3    0    0  0.30338630914E+02 -0.20000649566E+02 -0.73620881845E+02  0.11485658309E+03  0.80321491063E+02 0.  0.
          6    2    1    2  502    0 -0.15036491109E+03 -0.46515428468E+02 -0.89898102585E+01  0.23461643507E+03  0.17375489445E+03 0.  0.
         24    2    5    5    0    0 -0.17019946569E+03 -0.23828598604E+02 -0.36917919229E+02  0.19326222034E+03  0.80322430349E+02 0.  0.
          4    1    6    6  501    0 -0.14288070296E+03 -0.17272758915E+02 -0.60946568708E+02  0.15629372258E+03  0.00000000000E+00 0. -1.
         -3    1    6    6    0  501 -0.27318762728E+02 -0.65558396889E+01  0.24028649479E+02  0.36968497762E+02  0.00000000000E+00 0.  1.
          5    1    5    5  502    0  0.19834554600E+02 -0.22686829864E+02  0.27928108971E+02  0.41354214732E+02  0.47000000000E+01 0. -1.
         13    1    4    4    0    0  0.52174197576E+02 -0.19533865456E+02 -0.74466237510E+02  0.92999673770E+02  0.00000000000E+00 0. -1.
        -14    1    4    4    0    0 -0.21835566662E+02 -0.46678411091E+00  0.84535566468E+00  0.21856909321E+02  0.00000000000E+00 0.  1.
         -5    1    3    3    0  504  0.12002628018E+03  0.66516078034E+02 -0.23283997017E+03  0.27030952310E+03  0.47000000000E+01 0.  1.
<mgrwt>
<rscale>  2 0.23416069E+03</rscale>
<asrwt>0</asrwt>
<pdfrwt beam="1">  1       21 0.23410145E-01 0.23444414E+03</pdfrwt>
<pdfrwt beam="2">  1       21 0.71941015E-01 0.23444414E+03</pdfrwt>
<totfact> 0.29285812E+04</totfact>
</mgrwt>
</event>
<event>
12    1  0.2742799E-001  0.2152838E+03  0.7546771E-02  0.1138059E+00
         21   -1    0    0  502  503  0.00000000000E+00  0.00000000000E+00  0.17014538995E+03  0.17014538995E+03  0.00000000000E+00 0. -1.
         21   -1    0    0  503  504 -0.00000000000E+00 -0.00000000000E+00 -0.32199153907E+03  0.32199153907E+03  0.00000000000E+00 0. -1.
         -6    2    1    2    0  504  0.81641167190E+02 -0.99979806438E+02 -0.17582722524E+03  0.27552158564E+03  0.16833207995E+03 0.  0.
        -24    2    3    3    0    0  0.65935045036E+02 -0.13449706364E+03 -0.11108698049E+03  0.20034504270E+03  0.73218362509E+02 0.  0.
          6    2    1    2  502    0 -0.81641167190E+02  0.99979806438E+02  0.23981076116E+02  0.21661534339E+03  0.17229588824E+03 0.  0.
         24    2    5    5    0    0 -0.31544274202E+01  0.10932610261E+03  0.27362215895E+02  0.13736230762E+03  0.78470157204E+02 0.  0.
          2    1    6    6  501    0 -0.23843937162E+02  0.98777675478E+02  0.18596174569E+00  0.10161494523E+03  0.00000000000E+00 0. -1.
         -1    1    6    6    0  501  0.20689509742E+02  0.10548427134E+02  0.27176254149E+02  0.35747362391E+02  0.00000000000E+00 0.  1.
          5    1    5    5  502    0 -0.78486739770E+02 -0.93462961740E+01 -0.33811397788E+01  0.79253035766E+02  0.47000000000E+01 0. -1.
         11    1    4    4    0    0  0.45685810942E+02 -0.48335289658E+02 -0.85282734545E+02  0.10815099796E+03  0.00000000000E+00 0. -1.
        -12    1    4    4    0    0  0.20249234093E+02 -0.86161773979E+02 -0.25804245941E+02  0.92194044738E+02  0.00000000000E+00 0.  1.
         -5    1    3    3    0  504  0.15706122155E+02  0.34517257199E+02 -0.64740244754E+02  0.75176542940E+02  0.47000000000E+01 0.  1.
<mgrwt>
<rscale>  2 0.21448967E+03</rscale>
<asrwt>0</asrwt>
<pdfrwt beam="1">  1       21 0.26176214E-01 0.21528380E+03</pdfrwt>
<pdfrwt beam="2">  1       21 0.49537160E-01 0.21528380E+03</pdfrwt>
<totfact> 0.53316893E+04</totfact>
</mgrwt>
</event>
<event>
12    1  0.2742799E-001  0.1795986E+03  0.7546771E-02  0.1168250E+00
         21   -1    0    0  502  503  0.00000000000E+00  0.00000000000E+00  0.19320322862E+03  0.19320322862E+03  0.00000000000E+00 0. -1.
         21   -1    0    0  503  504 -0.00000000000E+00 -0.00000000000E+00 -0.24381694638E+03  0.24381694638E+03  0.00000000000E+00 0. -1.
         -6    2    1    2    0  504  0.38181106448E+02 -0.28420746891E+02 -0.14818278395E+03  0.23283854512E+03  0.17317654255E+03 0.  0.
        -24    2    3    3    0    0  0.86169988975E+02 -0.52548238933E+01 -0.94318329365E+02  0.15692370927E+03  0.90973749521E+02 0.  0.
          6    2    1    2  502    0 -0.38181106448E+02  0.28420746891E+02  0.97569066186E+02  0.20418162988E+03  0.17293027370E+03 0.  0.
         24    2    5    5    0    0 -0.54108575919E+02 -0.15566083915E+02  0.19219679022E+01  0.97603100250E+02  0.79703389272E+02 0.  0.
          4    1    6    6  501    0 -0.68286446875E+02  0.74346334635E+01 -0.72451065231E+01  0.69071008173E+02  0.00000000000E+00 0. -1.
         -3    1    6    6    0  501  0.14177870956E+02 -0.23000717379E+02  0.91670744253E+01  0.28532092077E+02  0.00000000000E+00 0.  1.
          5    1    5    5  502    0  0.15927469471E+02  0.43986830806E+02  0.95647098283E+02  0.10657852963E+03  0.47000000000E+01 0. -1.
         11    1    4    4    0    0 -0.78862999206E+01  0.24312448791E+02 -0.28998931626E+02  0.38655231575E+02  0.00000000000E+00 0. -1.
        -12    1    4    4    0    0  0.94056288896E+02 -0.29567272684E+02 -0.65319397739E+02  0.11826847769E+03  0.00000000000E+00 0.  1.
         -5    1    3    3    0  504 -0.47988882527E+02 -0.23165922998E+02 -0.53864454587E+02  0.75914835853E+02  0.47000000000E+01 0.  1.
<mgrwt>
<rscale>  2 0.17953919E+03</rscale>
<asrwt>0</asrwt>
<pdfrwt beam="1">  1       21 0.29723574E-01 0.17959858E+03</pdfrwt>
<pdfrwt beam="2">  1       21 0.37510299E-01 0.17959858E+03</pdfrwt>
<totfact> 0.74775683E+04</totfact>
</mgrwt>
</event>
<event>
12    1  0.2742799E-001  0.1898873E+03  0.7546771E-02  0.1158746E+00
         21   -1    0    0  502  503  0.00000000000E+00  0.00000000000E+00  0.13973794561E+03  0.13973794561E+03  0.00000000000E+00 0.  1.
         21   -1    0    0  503  504 -0.00000000000E+00 -0.00000000000E+00 -0.25793369757E+03  0.25793369757E+03  0.00000000000E+00 0. -1.
         -6    2    1    2    0  504  0.73018657745E+02  0.22785930411E+02 -0.46598521034E+02  0.19473487420E+03  0.17291421591E+03 0.  0.
        -24    2    3    3    0    0 -0.25409677386E+02  0.43201916767E+02 -0.28083166717E+02  0.92412550139E+02  0.72383408687E+02 0.  0.
          6    2    1    2  502    0 -0.73018657745E+02 -0.22785930411E+02 -0.71597230923E+02  0.20293676898E+03  0.17379944110E+03 0.  0.
         24    2    5    5    0    0 -0.75338959403E+02 -0.59587285669E+02 -0.74315181364E+01  0.12878117415E+03  0.85456187225E+02 0.  0.
          4    1    6    6  501    0 -0.94157698120E+02 -0.54710972954E+02 -0.90463852837E+01  0.10927396654E+03  0.00000000000E+00 0. -1.
         -3    1    6    6    0  501  0.18818738717E+02 -0.48763127143E+01  0.16148671472E+01  0.19507207604E+02  0.00000000000E+00 0.  1.
          5    1    5    5  502    0  0.23203016582E+01  0.36801355258E+02 -0.64165712786E+02  0.74155594840E+02  0.47000000000E+01 0. -1.
         13    1    4    4    0    0  0.13503278023E+02  0.33129376971E+02 -0.36755799101E+02  0.51292132959E+02  0.00000000000E+00 0. -1.
        -14    1    4    4    0    0 -0.38912955409E+02  0.10072539796E+02  0.86726323846E+01  0.41120417180E+02  0.00000000000E+00 0.  1.
         -5    1    3    3    0  504  0.98428335130E+02 -0.20415986356E+02 -0.18515354318E+02  0.10232232406E+03  0.47000000000E+01 0.  1.
<mgrwt>
<rscale>  2 0.18968446E+03</rscale>
<asrwt>0</asrwt>
<pdfrwt beam="1">  1       21 0.21498146E-01 0.18988725E+03</pdfrwt>
<pdfrwt beam="2">  1       21 0.39682107E-01 0.18988725E+03</pdfrwt>
<totfact> 0.12353046E+05</totfact>
</mgrwt>
</event>
<event>
12    1  0.2742799E-001  0.1905837E+03  0.7546771E-02  0.1158020E+00
         21   -1    0    0  502  503  0.00000000000E+00  0.00000000000E+00  0.11336349645E+04  0.11336349645E+04  0.00000000000E+00 0.  1.
         21   -1    0    0  503  504 -0.00000000000E+00 -0.00000000000E+00 -0.65826318928E+02  0.65826318928E+02  0.00000000000E+00 0.  1.
         -6    2    1    2    0  504 -0.69406795357E+02  0.40012745775E+02  0.10358967669E+03  0.21658775967E+03  0.17251409639E+03 0.  0.
        -24    2    3    3    0    0  0.24194068009E+02 -0.76420115498E+01  0.52543550493E+02  0.99712208255E+02  0.80857569276E+02 0.  0.
          6    2    1    2  502    0  0.69406795357E+02 -0.40012745775E+02  0.96421896892E+03  0.98287352380E+03  0.17292721214E+03 0.  0.
         24    2    5    5    0    0  0.39961095773E+02  0.44896725087E+02  0.39551606132E+03  0.40709426525E+03  0.75366975110E+02 0.  0.
          4    1    6    6  501    0  0.27415379597E+02  0.26155037390E+02  0.60941337113E+02  0.71760264690E+02  0.00000000000E+00 0. -1.
         -3    1    6    6    0  501  0.12545716176E+02  0.18741687697E+02  0.33457472421E+03  0.33533400056E+03  0.00000000000E+00 0.  1.
          5    1    5    5  502    0  0.29445699584E+02 -0.84909470862E+02  0.56870290759E+03  0.57577925855E+03  0.47000000000E+01 0. -1.
         13    1    4    4    0    0 -0.15128921239E+02  0.23831279505E+02  0.37904551463E+02  0.47260651311E+02  0.00000000000E+00 0. -1.
        -14    1    4    4    0    0  0.39322989248E+02 -0.31473291055E+02  0.14638999030E+02  0.52451556944E+02  0.00000000000E+00 0.  1.
         -5    1    3    3    0  504 -0.93600863366E+02  0.47654757324E+02  0.51046126201E+02  0.11687555142E+03  0.47000000000E+01 0.  1.
<mgrwt>
<rscale>  2 0.19048993E+03</rscale>
<asrwt>0</asrwt>
<pdfrwt beam="1">  1       21 0.17440536E+00 0.19058369E+03</pdfrwt>
<pdfrwt beam="2">  1       21 0.10127127E-01 0.19058369E+03</pdfrwt>
<totfact> 0.15800033E+04</totfact>
</mgrwt>
</event>
<event>
12    1  0.2742799E-001  0.3480881E+03  0.7546771E-02  0.1063995E+00
         21   -1    0    0  502  503  0.00000000000E+00  0.00000000000E+00  0.13642705663E+03  0.13642705663E+03  0.00000000000E+00 0.  1.
         21   -1    0    0  503  504 -0.00000000000E+00 -0.00000000000E+00 -0.89543682655E+03  0.89543682655E+03  0.00000000000E+00 0. -1.
         -6    2    1    2    0  504 -0.27392527103E+03  0.11325461283E+03 -0.46293821831E+03  0.57920389338E+03  0.18249299904E+03 0.  0.
        -24    2    3    3    0    0 -0.25993283937E+03  0.12557470809E+03 -0.47101723257E+03  0.55834883735E+03  0.81006805230E+02 0.  0.
          6    2    1    2  502    0  0.27392527103E+03 -0.11325461283E+03 -0.29607155161E+03  0.45265998979E+03  0.17140898825E+03 0.  0.
         24    2    5    5    0    0  0.96194577407E+02  0.17357534277E+01 -0.74245845236E+02  0.14600102972E+03  0.80916287492E+02 0.  0.
          2    1    6    6  501    0  0.94688995741E+02 -0.12293735514E+02 -0.30810928324E+02  0.10033172555E+03  0.00000000000E+00 0. -1.
         -1    1    6    6    0  501  0.15055816654E+01  0.14029488942E+02 -0.43434916912E+02  0.45669304169E+02  0.00000000000E+00 0.  1.
          5    1    5    5  502    0  0.17773069362E+03 -0.11499036626E+03 -0.22182570637E+03  0.30665896007E+03  0.47000000000E+01 0. -1.
         13    1    4    4    0    0 -0.15556248198E+03  0.34685348341E+02 -0.28436049150E+03  0.32598105515E+03  0.00000000000E+00 0. -1.
        -14    1    4    4    0    0 -0.10437035739E+03  0.90889359747E+02 -0.18665674107E+03  0.23236778220E+03  0.00000000000E+00 0.  1.
         -5    1    3    3    0  504 -0.13992431653E+02 -0.12320095258E+02  0.80790142594E+01  0.20855056033E+02  0.47000000000E+01 0.  1.
<mgrwt>
<rscale>  2 0.34665914E+03</rscale>
<asrwt>0</asrwt>
<pdfrwt beam="1">  1       21 0.20988777E-01 0.34808814E+03</pdfrwt>
<pdfrwt beam="2">  1       21 0.13775952E+00 0.34808814E+03</pdfrwt>
<totfact> 0.71849694E+03</totfact>
</mgrwt>
</event>
<event>
12    1  0.2742799E-001  0.2058134E+03  0.7546771E-02  0.1145642E+00
         21   -1    0    0  502  503  0.00000000000E+00  0.00000000000E+00  0.15541541495E+03  0.15541541495E+03  0.00000000000E+00 0.  1.
         21   -1    0    0  503  504 -0.00000000000E+00 -0.00000000000E+00 -0.41666309274E+03  0.41666309274E+03  0.00000000000E+00 0.  1.
         -6    2    1    2    0  504  0.10647435072E+03 -0.20170313981E+02 -0.30079024764E+03  0.36250093941E+03  0.17084650734E+03 0.  0.
        -24    2    3    3    0    0  0.63504202893E+02 -0.25496642884E+02 -0.67488268890E+02  0.12516845812E+03  0.80184873185E+02 0.  0.
          6    2    1    2  502    0 -0.10647435072E+03  0.20170313981E+02  0.39542569853E+02  0.20957756827E+03  0.17497289323E+03 0.  0.
         24    2    5    5    0    0 -0.37611123806E+02 -0.41084702485E+02  0.60495455750E+02  0.11494441081E+03  0.80311692788E+02 0.  0.
          2    1    6    6  501    0  0.15903193014E+02  0.13310666689E+02  0.75551034530E+01  0.22071814242E+02  0.00000000000E+00 0. -1.
         -1    1    6    6    0  501 -0.53514316820E+02 -0.54395369175E+02  0.52940352297E+02  0.92872596570E+02  0.00000000000E+00 0.  1.
          5    1    5    5  502    0 -0.68863226915E+02  0.61255016467E+02 -0.20952885897E+02  0.94633157460E+02  0.47000000000E+01 0. -1.
         13    1    4    4    0    0  0.56821374624E+02  0.12774811288E+02 -0.15499271936E+02  0.60266838711E+02  0.00000000000E+00 0. -1.
        -14    1    4    4    0    0  0.66828282692E+01 -0.38271454171E+02 -0.51988996954E+02  0.64901619413E+02  0.00000000000E+00 0.  1.
         -5    1    3    3    0  504  0.42970147828E+02  0.53263289021E+01 -0.23330197875E+03  0.23733248129E+03  0.47000000000E+01 0.  1.
<mgrwt>
<rscale>  2 0.20493364E+03</rscale>
<asrwt>0</asrwt>
<pdfrwt beam="1">  1       21 0.23910064E-01 0.20581337E+03</pdfrwt>
<pdfrwt beam="2">  1       21 0.64102013E-01 0.20581337E+03</pdfrwt>
<totfact> 0.36784673E+04</totfact>
</mgrwt>
</event>
<event>
12    1  0.2742799E-001  0.1927653E+03  0.7546771E-02  0.1156455E+00
         21   -1    0    0  502  503  0.00000000000E+00  0.00000000000E+00  0.13609079848E+03  0.13609079848E+03  0.00000000000E+00 0. -1.
         21   -1    0    0  503  504 -0.00000000000E+00 -0.00000000000E+00 -0.55403505021E+03  0.55403505021E+03  0.00000000000E+00 0. -1.
         -6    2    1    2    0  504  0.70662421928E+01  0.79445471458E+02 -0.45544295268E+03  0.49374712149E+03  0.17319475201E+03 0.  0.
        -24    2    3    3    0    0 -0.58931001652E+02  0.41417844774E+02 -0.20935619059E+03  0.23609906491E+03  0.82002762702E+02 0.  0.
          6    2    1    2  502    0 -0.70662421928E+01 -0.79445471458E+02  0.37498700957E+02  0.19637872719E+03  0.17549056159E+03 0.  0.
         24    2    5    5    0    0  0.16202117796E+02 -0.10280587682E+03 -0.16320824721E+02  0.13308768154E+03  0.81328990696E+02 0.  0.
          4    1    6    6  501    0 -0.33231682123E+02 -0.39214130407E+02 -0.34153296001E+01  0.51514630898E+02  0.00000000000E+00 0. -1.
         -3    1    6    6    0  501  0.49433799919E+02 -0.63591746417E+02 -0.12905495121E+02  0.81573050642E+02  0.00000000000E+00 0.  1.
          5    1    5    5  502    0 -0.23268359989E+02  0.23360405366E+02  0.53819525679E+02  0.63291045652E+02  0.47000000000E+01 0. -1.
         13    1    4    4    0    0 -0.27001716890E+02  0.54468869977E+02 -0.18257103727E+03  0.19242695799E+03  0.00000000000E+00 0. -1.
        -14    1    4    4    0    0 -0.31929284761E+02 -0.13051025203E+02 -0.26785153319E+02  0.43672106917E+02  0.00000000000E+00 0.  1.
         -5    1    3    3    0  504  0.65997243844E+02  0.38027626684E+02 -0.24608676209E+03  0.25764805658E+03  0.47000000000E+01 0.  1.
<mgrwt>
<rscale>  2 0.19224122E+03</rscale>
<asrwt>0</asrwt>
<pdfrwt beam="1">  1       21 0.20937047E-01 0.19276528E+03</pdfrwt>
<pdfrwt beam="2">  1       21 0.85236158E-01 0.19276528E+03</pdfrwt>
<totfact> 0.25226756E+04</totfact>
</mgrwt>
</event>
<event>
12    1  0.2742799E-001  0.2338564E+03  0.7546771E-02  0.1124176E+00
         21   -1    0    0  502  503  0.00000000000E+00  0.00000000000E+00  0.61261003491E+03  0.61261003491E+03  0.00000000000E+00 0. -1.
         21   -1    0    0  503  504 -0.00000000000E+00 -0.00000000000E+00 -0.58091171173E+03  0.58091171173E+03  0.00000000000E+00 0. -1.
         -6    2    1    2    0  504 -0.94296342847E+02 -0.12568155418E+03 -0.53341183283E+03  0.58242336638E+03  0.17320837442E+03 0.  0.
        -24    2    3    3    0    0 -0.24179692397E+02  0.70740633707E+01 -0.17823579072E+03  0.19679075683E+03  0.79522983988E+02 0.  0.
          6    2    1    2  502    0  0.94296342847E+02  0.12568155418E+03  0.56511015601E+03  0.61109838026E+03  0.17147620416E+03 0.  0.
         24    2    5    5    0    0  0.21252572939E+02  0.12282162530E+03  0.28836940448E+03  0.32482734597E+03  0.82577646809E+02 0.  0.
          4    1    6    6  501    0  0.13499059180E+02  0.89954185780E+02  0.27294316600E+03  0.28770115051E+03  0.00000000000E+00 0. -1.
         -3    1    6    6    0  501  0.77535137590E+01  0.32867439516E+02  0.15426238486E+02  0.37126195466E+02  0.00000000000E+00 0.  1.
          5    1    5    5  502    0  0.73043769908E+02  0.28599288844E+01  0.27674075152E+03  0.28627103428E+03  0.47000000000E+01 0. -1.
         13    1    4    4    0    0  0.20243957803E+02 -0.15503726103E+02 -0.10606932983E+03  0.10909118241E+03  0.00000000000E+00 0. -1.
        -14    1    4    4    0    0 -0.44423650200E+02  0.22577789473E+02 -0.72166460897E+02  0.87699574417E+02  0.00000000000E+00 0.  1.
         -5    1    3    3    0  504 -0.70116650450E+02 -0.13275561755E+03 -0.35517604211E+03  0.38563260955E+03  0.47000000000E+01 0.  1.
<mgrwt>
<rscale>  2 0.23353569E+03</rscale>
<asrwt>0</asrwt>
<pdfrwt beam="1">  1       21 0.94247697E-01 0.23385635E+03</pdfrwt>
<pdfrwt beam="2">  1       21 0.89371033E-01 0.23385635E+03</pdfrwt>
<totfact> 0.96944962E+02</totfact>
</mgrwt>
</event>
<event>
12    1  0.2742799E-001  0.1972071E+03  0.7546771E-02  0.1152270E+00
         21   -1    0    0  502  503  0.00000000000E+00  0.00000000000E+00  0.98107946654E+03  0.98107946654E+03  0.00000000000E+00 0. -1.
         21   -1    0    0  503  504 -0.00000000000E+00 -0.00000000000E+00 -0.49337299517E+02  0.49337299517E+02  0.00000000000E+00 0. -1.
         -6    2    1    2    0  504 -0.80551766962E+02  0.46840613487E+02  0.23646120542E+03  0.30790347119E+03  0.17380453294E+03 0.  0.
        -24    2    3    3    0    0 -0.10513569530E+03  0.49422843328E+02  0.24447156758E+03  0.28149715858E+03  0.77318633387E+02 0.  0.
          6    2    1    2  502    0  0.80551766962E+02 -0.46840613487E+02  0.69528096160E+03  0.72251329487E+03  0.17299484230E+03 0.  0.
         24    2    5    5    0    0  0.47222778910E+02  0.16798538088E+02  0.22098275549E+03  0.24278249392E+03  0.87165241922E+02 0.  0.
          2    1    6    6  501    0  0.49364010613E+02 -0.24566617228E+02  0.91433733193E+02  0.10677289821E+03  0.00000000000E+00 0. -1.
         -1    1    6    6    0  501 -0.21412317038E+01  0.41365155316E+02  0.12954902229E+03  0.13600959571E+03  0.00000000000E+00 0.  1.
          5    1    5    5  502    0  0.33328988052E+02 -0.63639151575E+02  0.47429820611E+03  0.47973080095E+03  0.47000000000E+01 0. -1.
         11    1    4    4    0    0 -0.18965554151E+02  0.21133365608E+02  0.10014874945E+02  0.30109950288E+02  0.00000000000E+00 0. -1.
        -12    1    4    4    0    0 -0.86170141147E+02  0.28289477720E+02  0.23445669263E+03  0.25138720830E+03  0.00000000000E+00 0.  1.
         -5    1    3    3    0  504  0.24583928336E+02 -0.25822298406E+01 -0.80103621595E+01  0.26406312603E+02  0.47000000000E+01 0.  1.
<mgrwt>
<rscale>  2 0.19702856E+03</rscale>
<asrwt>0</asrwt>
<pdfrwt beam="1">  1       21 0.15093529E+00 0.19720711E+03</pdfrwt>
<pdfrwt beam="2">  1       21 0.75903545E-02 0.19720711E+03</pdfrwt>
<totfact> 0.38556316E+04</totfact>
</mgrwt>
</event>
<event>
12    1  0.2742799E-001  0.1832906E+03  0.7546771E-02  0.1164699E+00
         21   -1    0    0  502  503  0.00000000000E+00  0.00000000000E+00  0.83533201882E+02  0.83533201882E+02  0.00000000000E+00 0.  1.
         21   -1    0    0  503  504 -0.00000000000E+00 -0.00000000000E+00 -0.93501363560E+03  0.93501363560E+03  0.00000000000E+00 0.  1.
         -6    2    1    2    0  504  0.64145422987E+02 -0.63417859523E+01 -0.81042138164E+03  0.83089003415E+03  0.17158257337E+03 0.  0.
        -24    2    3    3    0    0  0.54906583077E+02  0.29190022575E+02 -0.76751492953E+03  0.77422506073E+03  0.80489050926E+02 0.  0.
          6    2    1    2  502    0 -0.64145422987E+02  0.63417859523E+01 -0.41059052071E+02  0.18765680333E+03  0.17138954618E+03 0.  0.
         24    2    5    5    0    0 -0.10044649683E+03  0.34361018490E+02 -0.12455213600E+02  0.13340632012E+03  0.79824404694E+02 0.  0.
          4    1    6    6  501    0 -0.24623557959E+02  0.13343621357E+02 -0.41046287259E+02  0.49690738928E+02  0.00000000000E+00 0. -1.
         -3    1    6    6    0  501 -0.75822938866E+02  0.21017397133E+02  0.28591073659E+02  0.83715581187E+02  0.00000000000E+00 0.  1.
          5    1    5    5  502    0  0.36301073839E+02 -0.28019232537E+02 -0.28603838472E+02  0.54250483216E+02  0.47000000000E+01 0. -1.
         13    1    4    4    0    0  0.16211046363E+02  0.52654283649E+02 -0.35748268575E+03  0.36170311337E+03  0.00000000000E+00 0. -1.
        -14    1    4    4    0    0  0.38695536714E+02 -0.23464261074E+02 -0.41003224378E+03  0.41252194736E+03  0.00000000000E+00 0.  1.
         -5    1    3    3    0  504  0.92388399099E+01 -0.35531808527E+02 -0.42906452110E+02  0.56664973421E+02  0.47000000000E+01 0.  1.
<mgrwt>
<rscale>  2 0.18324538E+03</rscale>
<asrwt>0</asrwt>
<pdfrwt beam="1">  1       21 0.12851261E-01 0.18329057E+03</pdfrwt>
<pdfrwt beam="2">  1       21 0.14384826E+00 0.18329057E+03</pdfrwt>
<totfact> 0.17419104E+04</totfact>
</mgrwt>
</event>
<event>
12    1  0.2742799E-001  0.3326153E+03  0.7546771E-02  0.1070004E+00
         21   -1    0    0  502  503  0.00000000000E+00  0.00000000000E+00  0.30351574861E+03  0.30351574861E+03  0.00000000000E+00 0.  1.
         21   -1    0    0  503  504 -0.00000000000E+00 -0.00000000000E+00 -0.38090622205E+03  0.38090622205E+03  0.00000000000E+00 0. -1.
         -6    2    1    2    0  504 -0.11377312772E+03 -0.26089626068E+03 -0.11010079860E+03  0.35020210215E+03  0.17177934413E+03 0.  0.
        -24    2    3    3    0    0 -0.95456571406E+02 -0.11135578680E+03 -0.67640658921E+01  0.16744975636E+03  0.80508384908E+02 0.  0.
          6    2    1    2  502    0  0.11377312772E+03  0.26089626068E+03  0.32710325164E+02  0.33421986851E+03  0.17210976645E+03 0.  0.
         24    2    5    5    0    0  0.86329480486E+02  0.27475628008E+03  0.44625595885E+02  0.30091344890E+03  0.74924410399E+02 0.  0.
          4    1    6    6  501    0  0.99109482025E+02  0.23656501038E+03  0.30782267849E+02  0.25832777934E+03  0.00000000000E+00 0. -1.
         -3    1    6    6    0  501 -0.12780001538E+02  0.38191269697E+02  0.13843328036E+02  0.42585669556E+02  0.00000000000E+00 0.  1.
          5    1    5    5  502    0  0.27443647232E+02 -0.13860019402E+02 -0.11915270721E+02  0.33306419615E+02  0.47000000000E+01 0. -1.
         13    1    4    4    0    0 -0.99366242908E+02 -0.77094797790E+02 -0.25320985820E+02  0.12829033634E+03  0.00000000000E+00 0. -1.
        -14    1    4    4    0    0  0.39096715028E+01 -0.34260989009E+02  0.18556919928E+02  0.39159420021E+02  0.00000000000E+00 0.  1.
         -5    1    3    3    0  504 -0.18316556312E+02 -0.14954047388E+03 -0.10333673271E+03  0.18275234579E+03  0.47000000000E+01 0.  1.
<mgrwt>
<rscale>  2 0.33257260E+03</rscale>
<asrwt>0</asrwt>
<pdfrwt beam="1">  1       21 0.46694731E-01 0.33261533E+03</pdfrwt>
<pdfrwt beam="2">  1       21 0.58600957E-01 0.33261533E+03</pdfrwt>
<totfact> 0.11129341E+04</totfact>
</mgrwt>
</event>
<event>
12    1  0.2742799E-001  0.1856328E+03  0.7546771E-02  0.1162957E+00
         21   -1    0    0  502  503  0.00000000000E+00  0.00000000000E+00  0.38094491826E+03  0.38094491826E+03  0.00000000000E+00 0.  1.
         21   -1    0    0  503  504 -0.00000000000E+00 -0.00000000000E+00 -0.13724365514E+03  0.13724365514E+03  0.00000000000E+00 0.  1.
         -6    2    1    2    0  504 -0.11314351621E+02 -0.63770798958E+02 -0.31538405798E+02  0.18620000892E+03  0.17170044534E+03 0.  0.
        -24    2    3    3    0    0 -0.27767073417E+02 -0.49144447571E+02  0.44566374652E+02  0.10683597540E+03  0.79003650533E+02 0.  0.
          6    2    1    2  502    0  0.11314351621E+02  0.63770798958E+02  0.27523966892E+03  0.33198856447E+03  0.17396781956E+03 0.  0.
         24    2    5    5    0    0  0.43507283860E+02  0.52585366655E+02  0.75601629818E+02  0.12940787576E+03  0.79829113380E+02 0.  0.
          2    1    6    6  501    0  0.50815185875E+02  0.68793415098E+02  0.52867104872E+02  0.10054674462E+03  0.00000000000E+00 0. -1.
         -1    1    6    6    0  501 -0.73079020150E+01 -0.16208048443E+02  0.22734524946E+02  0.28861131141E+02  0.00000000000E+00 0.  1.
          5    1    5    5  502    0 -0.32192932239E+02  0.11185432302E+02  0.19963803910E+03  0.20258068871E+03  0.47000000000E+01 0. -1.
         11    1    4    4    0    0 -0.50628243841E+02 -0.22136074707E+02  0.77927364228E+01  0.55802792214E+02  0.00000000000E+00 0. -1.
        -12    1    4    4    0    0  0.22861170424E+02 -0.27008372863E+02  0.36773638229E+02  0.51033183190E+02  0.00000000000E+00 0.  1.
         -5    1    3    3    0  504  0.16452721796E+02 -0.14626351387E+02 -0.76104780450E+02  0.79364033521E+02  0.47000000000E+01 0.  1.
<mgrwt>
<rscale>  2 0.18509970E+03</rscale>
<asrwt>0</asrwt>
<pdfrwt beam="1">  1       21 0.58606910E-01 0.18563279E+03</pdfrwt>
<pdfrwt beam="2">  1       21 0.21114409E-01 0.18563279E+03</pdfrwt>
<totfact> 0.57008978E+04</totfact>
</mgrwt>
</event>
<event>
12    1  0.2742799E-001  0.2577047E+03  0.7546771E-02  0.1108562E+00
         21   -1    0    0  502  503  0.00000000000E+00  0.00000000000E+00  0.58283437322E+03  0.58283437322E+03  0.00000000000E+00 0. -1.
         21   -1    0    0  503  504 -0.00000000000E+00 -0.00000000000E+00 -0.11457422828E+03  0.11457422828E+03  0.00000000000E+00 0. -1.
         -6    2    1    2    0  504 -0.13955459154E+03  0.12939943940E+03  0.26166922986E+03  0.36711857226E+03  0.17345189911E+03 0.  0.
        -24    2    3    3    0    0 -0.19648757772E+02  0.39044140250E+02  0.40454370921E+02  0.99724494404E+02  0.79986874472E+02 0.  0.
          6    2    1    2  502    0  0.13955459154E+03 -0.12939943940E+03  0.20659091508E+03  0.33029002924E+03  0.17375844810E+03 0.  0.
         24    2    5    5    0    0  0.10903894956E+03 -0.33350269182E+02  0.61947382655E+02  0.15393672199E+03  0.82808835189E+02 0.  0.
          2    1    6    6  501    0  0.10876203816E+03 -0.18675664476E+02  0.75700562258E+02  0.13382278025E+03  0.00000000000E+00 0. -1.
         -1    1    6    6    0  501  0.27691139807E+00 -0.14674604707E+02 -0.13753179603E+02  0.20113941742E+02  0.00000000000E+00 0.  1.
          5    1    5    5  502    0  0.30515641982E+02 -0.96049170215E+02  0.14464353243E+03  0.17635330725E+03  0.47000000000E+01 0. -1.
         13    1    4    4    0    0 -0.41777886202E+02  0.38710355317E+02  0.49841904676E+02  0.75684204733E+02  0.00000000000E+00 0. -1.
        -14    1    4    4    0    0  0.22129128431E+02  0.33378493261E+00 -0.93875337552E+01  0.24040289671E+02  0.00000000000E+00 0.  1.
         -5    1    3    3    0  504 -0.11990583377E+03  0.90355299147E+02  0.22121485894E+03  0.26739407786E+03  0.47000000000E+01 0.  1.
<mgrwt>
<rscale>  2 0.25765301E+03</rscale>
<asrwt>0</asrwt>
<pdfrwt beam="1">  1       21 0.89666825E-01 0.25770467E+03</pdfrwt>
<pdfrwt beam="2">  1       21 0.17626805E-01 0.25770467E+03</pdfrwt>
<totfact> 0.29921983E+04</totfact>
</mgrwt>
</event>
<event>
12    1  0.2742799E-001  0.1935385E+03  0.7546771E-02  0.1155508E+00
         21   -1    0    0  502  503  0.00000000000E+00  0.00000000000E+00  0.31629660123E+03  0.31629660123E+03  0.00000000000E+00 0. -1.
         21   -1    0    0  503  504 -0.00000000000E+00 -0.00000000000E+00 -0.33512002793E+03  0.33512002793E+03  0.00000000000E+00 0. -1.
         -6    2    1    2    0  504 -0.51064755764E+02  0.66606341551E+02 -0.27164971693E+03  0.33301706095E+03  0.17338621677E+03 0.  0.
        -24    2    3    3    0    0 -0.46043632742E+02 -0.18836905429E+02 -0.20023819540E+03  0.22144889553E+03  0.80432787527E+02 0.  0.
          6    2    1    2  502    0  0.51064755764E+02 -0.66606341551E+02  0.25282629022E+03  0.31839956820E+03  0.17439362944E+03 0.  0.
         24    2    5    5    0    0  0.21308621407E+02  0.21547982231E+02  0.19579726244E+03  0.20917039471E+03  0.67062009798E+02 0.  0.
          2    1    6    6  501    0 -0.20629988339E+00  0.27615019598E+01 -0.53399516370E+01  0.60152752391E+01  0.00000000000E+00 0. -1.
         -1    1    6    6    0  501  0.21514921291E+02  0.18786480271E+02  0.20113721408E+03  0.20315511947E+03  0.00000000000E+00 0.  1.
          5    1    5    5  502    0  0.29756134357E+02 -0.88154323782E+02  0.57029027782E+02  0.10922917350E+03  0.47000000000E+01 0. -1.
         11    1    4    4    0    0 -0.54780057495E+02 -0.87859996880E+01 -0.64581008430E+02  0.85139621443E+02  0.00000000000E+00 0. -1.
        -12    1    4    4    0    0  0.87364247526E+01 -0.10050905741E+02 -0.13565718697E+03  0.13630927408E+03  0.00000000000E+00 0.  1.
         -5    1    3    3    0  504 -0.50211230222E+01  0.85443246980E+02 -0.71411521525E+02  0.11156816543E+03  0.47000000000E+01 0.  1.
<mgrwt>
<rscale>  2 0.19331129E+03</rscale>
<asrwt>0</asrwt>
<pdfrwt beam="1">  1       21 0.48661016E-01 0.19353850E+03</pdfrwt>
<pdfrwt beam="2">  1       21 0.51556927E-01 0.19353850E+03</pdfrwt>
<totfact> 0.14402196E+04</totfact>
</mgrwt>
</event>
<event>
12    1  0.2742799E-001  0.1965497E+03  0.7546771E-02  0.1152926E+00
         21   -1    0    0  502  503  0.00000000000E+00  0.00000000000E+00  0.69422058487E+03  0.69422058487E+03  0.00000000000E+00 0.  1.
         21   -1    0    0  503  504 -0.00000000000E+00 -0.00000000000E+00 -0.15417251951E+03  0.15417251951E+03  0.00000000000E+00 0. -1.
         -6    2    1    2    0  504 -0.58503860537E+02  0.67472129019E+02 -0.69905756673E+02  0.20755347028E+03  0.17382876147E+03 0.  0.
        -24    2    3    3    0    0 -0.67588006379E+02 -0.13886486589E+02 -0.67394528953E+02  0.12551602575E+03  0.80319842329E+02 0.  0.
          6    2    1    2  502    0  0.58503860537E+02 -0.67472129019E+02  0.60995382203E+03  0.64083963410E+03  0.17509021025E+03 0.  0.
         24    2    5    5    0    0 -0.24094865647E+02 -0.48397667415E+02  0.40991804933E+03  0.42353159234E+03  0.91778569280E+02 0.  0.
          2    1    6    6  501    0 -0.49940996363E+01 -0.66637409523E+01 -0.24003744329E+01  0.86665028746E+01  0.00000000000E+00 0. -1.
         -1    1    6    6    0  501 -0.19100766010E+02 -0.41733926462E+02  0.41231842376E+03  0.41486508946E+03  0.00000000000E+00 0.  1.
          5    1    5    5  502    0  0.82598726184E+02 -0.19074461605E+02  0.20003577270E+03  0.21730804176E+03  0.47000000000E+01 0. -1.
         11    1    4    4    0    0 -0.48303318070E+02  0.27628479577E+02 -0.18750907291E+02  0.58720864644E+02  0.00000000000E+00 0. -1.
        -12    1    4    4    0    0 -0.19284688309E+02 -0.41514966167E+02 -0.48643621662E+02  0.66795161108E+02  0.00000000000E+00 0.  1.
         -5    1    3    3    0  504  0.90841458417E+01  0.81358615609E+02 -0.25112277198E+01  0.82037444525E+02  0.47000000000E+01 0.  1.
<mgrwt>
<rscale>  2 0.19626834E+03</rscale>
<asrwt>0</asrwt>
<pdfrwt beam="1">  1       21 0.10680317E+00 0.19654967E+03</pdfrwt>
<pdfrwt beam="2">  1       21 0.23718849E-01 0.19654967E+03</pdfrwt>
<totfact> 0.11710012E+04</totfact>
</mgrwt>
</event>
<event>
12    1  0.2742799E-001  0.1832343E+03  0.7546771E-02  0.1165067E+00
         21   -1    0    0  502  503  0.00000000000E+00  0.00000000000E+00  0.17122341268E+03  0.17122341268E+03  0.00000000000E+00 0. -1.
         21   -1    0    0  503  504 -0.00000000000E+00 -0.00000000000E+00 -0.30695838426E+03  0.30695838426E+03  0.00000000000E+00 0. -1.
         -6    2    1    2    0  504  0.31948562846E+02 -0.44690577221E+02 -0.21277543053E+03  0.28079918760E+03  0.17480515313E+03 0.  0.
        -24    2    3    3    0    0  0.47092708385E+02  0.36633919884E+02 -0.13260720353E+03  0.16550801884E+03  0.79047242860E+02 0.  0.
          6    2    1    2  502    0 -0.31948562846E+02  0.44690577221E+02  0.77040458951E+02  0.19738260934E+03  0.17322443187E+03 0.  0.
         24    2    5    5    0    0 -0.59274685781E+02  0.78710557056E+01  0.10201589720E+03  0.14495879152E+03  0.83847278230E+02 0.  0.
          4    1    6    6  501    0 -0.22125110086E+02 -0.37011548167E+02  0.56218189409E+02  0.70850970456E+02  0.00000000000E+00 0. -1.
         -3    1    6    6    0  501 -0.37149575696E+02  0.44882603873E+02  0.45797707789E+02  0.74107821068E+02  0.00000000000E+00 0.  1.
          5    1    5    5  502    0  0.27326122936E+02  0.36819521515E+02 -0.24975438247E+02  0.52423817821E+02  0.47000000000E+01 0. -1.
         13    1    4    4    0    0  0.35195052128E+02  0.30190023195E+02 -0.14177416389E+03  0.14916448217E+03  0.00000000000E+00 0. -1.
        -14    1    4    4    0    0  0.11897656257E+02  0.64438966888E+01  0.91669603538E+01  0.16343536676E+02  0.00000000000E+00 0.  1.
         -5    1    3    3    0  504 -0.15144145539E+02 -0.81324497105E+02 -0.80168226995E+02  0.11529116876E+03  0.47000000000E+01 0.  1.
<mgrwt>
<rscale>  2 0.18285626E+03</rscale>
<asrwt>0</asrwt>
<pdfrwt beam="1">  1       21 0.26342064E-01 0.18323428E+03</pdfrwt>
<pdfrwt beam="2">  1       21 0.47224367E-01 0.18323428E+03</pdfrwt>
<totfact> 0.59040031E+04</totfact>
</mgrwt>
</event>
<event>
12    1  0.2742799E-001  0.2032195E+03  0.7546771E-02  0.1147095E+00
         21   -1    0    0  502  503  0.00000000000E+00  0.00000000000E+00  0.17334122211E+03  0.17334122211E+03  0.00000000000E+00 0.  1.
         21   -1    0    0  503  504 -0.00000000000E+00 -0.00000000000E+00 -0.40588629881E+03  0.40588629881E+03  0.00000000000E+00 0.  1.
         -6    2    1    2    0  504  0.25069328788E+02 -0.10471115837E+03 -0.30250043676E+03  0.36430451494E+03  0.17209987633E+03 0.  0.
        -24    2    3    3    0    0  0.31167683132E+02 -0.70921490726E+02 -0.30904527797E+03  0.32903616494E+03  0.82185957965E+02 0.  0.
          6    2    1    2  502    0 -0.25069328788E+02  0.10471115837E+03  0.69955360049E+02  0.21492300599E+03  0.17235210521E+03 0.  0.
         24    2    5    5    0    0 -0.62690594730E+02  0.91060969075E+02  0.24755995819E+01  0.13632723389E+03  0.79729388247E+02 0.  0.
          2    1    6    6  501    0 -0.48090172553E+02  0.12582320245E+02 -0.19713743549E+02  0.53475332291E+02  0.00000000000E+00 0. -1.
         -1    1    6    6    0  501 -0.14600422177E+02  0.78478648830E+02  0.22189343131E+02  0.82851901598E+02  0.00000000000E+00 0.  1.
          5    1    5    5  502    0  0.37621265942E+02  0.13650189291E+02  0.67479760467E+02  0.78595772096E+02  0.47000000000E+01 0. -1.
         13    1    4    4    0    0  0.27050175581E+02  0.12109936500E+02 -0.73471650740E+02  0.79224024282E+02  0.00000000000E+00 0. -1.
        -14    1    4    4    0    0  0.41175075510E+01 -0.83031427226E+02 -0.23557362723E+03  0.24981214066E+03  0.00000000000E+00 0.  1.
         -5    1    3    3    0  504 -0.60983543441E+01 -0.33789667640E+02  0.65448412098E+01  0.35268349995E+02  0.47000000000E+01 0.  1.
<mgrwt>
<rscale>  2 0.20316596E+03</rscale>
<asrwt>0</asrwt>
<pdfrwt beam="1">  1       21 0.26667880E-01 0.20321945E+03</pdfrwt>
<pdfrwt beam="2">  1       21 0.62444046E-01 0.20321945E+03</pdfrwt>
<totfact> 0.31639067E+04</totfact>
</mgrwt>
</event>
<event>
12    1  0.2742799E-001  0.3247266E+03  0.7546771E-02  0.1073557E+00
         21   -1    0    0  502  503  0.00000000000E+00  0.00000000000E+00  0.10724344481E+04  0.10724344481E+04  0.00000000000E+00 0.  1.
         21   -1    0    0  503  504 -0.00000000000E+00 -0.00000000000E+00 -0.12577262401E+03  0.12577262401E+03  0.00000000000E+00 0. -1.
         -6    2    1    2    0  504 -0.19688574355E+03  0.19124782593E+03  0.19229486273E+03  0.37691729028E+03  0.17248073093E+03 0.  0.
        -24    2    3    3    0    0 -0.16476925134E+03  0.99530693361E+02  0.71036558046E+02  0.22145292802E+03  0.83306312132E+02 0.  0.
          6    2    1    2  502    0  0.19688574355E+03 -0.19124782593E+03  0.75436696136E+03  0.82128978184E+03  0.17351560859E+03 0.  0.
         24    2    5    5    0    0  0.20402847181E+03 -0.17516813907E+03  0.56241254700E+03  0.62847338708E+03  0.79746040571E+02 0.  0.
          2    1    6    6  501    0  0.13587728368E+03 -0.73107783231E+02  0.26354880896E+03  0.30539377677E+03  0.00000000000E+00 0. -1.
         -1    1    6    6    0  501  0.68151188135E+02 -0.10206035584E+03  0.29886373805E+03  0.32307961031E+03  0.00000000000E+00 0.  1.
          5    1    5    5  502    0 -0.71427282575E+01 -0.16079686859E+02  0.19195441436E+03  0.19281639476E+03  0.47000000000E+01 0. -1.
         11    1    4    4    0    0 -0.14561564108E+03  0.46163177638E+02  0.46569792919E+02  0.15969877742E+03  0.00000000000E+00 0. -1.
        -12    1    4    4    0    0 -0.19153610259E+02  0.53367515723E+02  0.24466765128E+02  0.61754150599E+02  0.00000000000E+00 0.  1.
         -5    1    3    3    0  504 -0.32116492214E+02  0.91717132568E+02  0.12125830469E+03  0.15546436226E+03  0.47000000000E+01 0.  1.
<mgrwt>
<rscale>  2 0.32458861E+03</rscale>
<asrwt>0</asrwt>
<pdfrwt beam="1">  1       21 0.16498991E+00 0.32472664E+03</pdfrwt>
<pdfrwt beam="2">  1       21 0.19349635E-01 0.32472664E+03</pdfrwt>
<totfact> 0.52079595E+03</totfact>
</mgrwt>
</event>
<event>
12    1  0.2742799E-001  0.2222541E+03  0.7546771E-02  0.1132273E+00
         21   -1    0    0  502  503  0.00000000000E+00  0.00000000000E+00  0.39151907085E+03  0.39151907085E+03  0.00000000000E+00 0.  1.
         21   -1    0    0  503  504 -0.00000000000E+00 -0.00000000000E+00 -0.63493685222E+03  0.63493685222E+03  0.00000000000E+00 0. -1.
         -6    2    1    2    0  504 -0.96674506787E+02 -0.10328356373E+03 -0.58122512950E+03  0.62226967963E+03  0.17141600926E+03 0.  0.
        -24    2    3    3    0    0 -0.13518895427E+03 -0.74097672820E+02 -0.45528000758E+03  0.48729026406E+03  0.80033728344E+02 0.  0.
          6    2    1    2  502    0  0.96674506787E+02  0.10328356373E+03  0.33780734814E+03  0.40418624344E+03  0.17099491259E+03 0.  0.
         24    2    5    5    0    0  0.21038404108E+02  0.19359962223E+02  0.24066262419E+03  0.25511183816E+03  0.79662592880E+02 0.  0.
          2    1    6    6  501    0 -0.21642719216E+02 -0.16767784431E+02  0.59106472785E+02  0.65139396795E+02  0.00000000000E+00 0. -1.
         -1    1    6    6    0  501  0.42681123323E+02  0.36127746654E+02  0.18155615140E+03  0.18997244136E+03  0.00000000000E+00 0.  1.
          5    1    5    5  502    0  0.75636102679E+02  0.83923601506E+02  0.97144723951E+02  0.14907440528E+03  0.47000000000E+01 0. -1.
         13    1    4    4    0    0 -0.20298651716E+02 -0.37711466806E+02 -0.20602950661E+03  0.21043371304E+03  0.00000000000E+00 0. -1.
        -14    1    4    4    0    0 -0.11489030255E+03 -0.36386206014E+02 -0.24925050097E+03  0.27685655102E+03  0.00000000000E+00 0.  1.
         -5    1    3    3    0  504  0.38514447481E+02 -0.29185890910E+02 -0.12594512192E+03  0.13497941557E+03  0.47000000000E+01 0.  1.
<mgrwt>
<rscale>  2 0.22217294E+03</rscale>
<asrwt>0</asrwt>
<pdfrwt beam="1">  1       21 0.60233704E-01 0.22225414E+03</pdfrwt>
<pdfrwt beam="2">  1       21 0.97682592E-01 0.22225414E+03</pdfrwt>
<totfact> 0.21737183E+03</totfact>
</mgrwt>
</event>
<event>
12    1  0.2742799E-001  0.1739540E+03  0.7546771E-02  0.1174117E+00
         21   -1    0    0  502  503  0.00000000000E+00  0.00000000000E+00  0.12711622077E+03  0.12711622077E+03  0.00000000000E+00 0. -1.
         21   -1    0    0  503  504 -0.00000000000E+00 -0.00000000000E+00 -0.23641820835E+03  0.23641820835E+03  0.00000000000E+00 0. -1.
         -6    2    1    2    0  504 -0.95753112321E+01 -0.82931270217E+01 -0.49894628177E+02  0.17971594107E+03  0.17218560629E+03 0.  0.
        -24    2    3    3    0    0 -0.39509206589E+02  0.33519419284E+02  0.15554947609E+02  0.96348896679E+02  0.79728442990E+02 0.  0.
          6    2    1    2  502    0  0.95753112321E+01  0.82931270217E+01 -0.59407359408E+02  0.18381848805E+03  0.17349218903E+03 0.  0.
         24    2    5    5    0    0  0.19668478170E+02 -0.43136949832E+02 -0.84353387442E+02  0.12558345444E+03  0.80050387774E+02 0.  0.
          4    1    6    6  501    0  0.32474396987E+02 -0.12842533489E+02 -0.85828081339E+02  0.92660545393E+02  0.00000000000E+00 0. -1.
         -3    1    6    6    0  501 -0.12805918818E+02 -0.30294416342E+02  0.14746938970E+01  0.32922909051E+02  0.00000000000E+00 0.  1.
          5    1    5    5  502    0 -0.10093166938E+02  0.51430076853E+02  0.24946028035E+02  0.58235033603E+02  0.47000000000E+01 0. -1.
         13    1    4    4    0    0 -0.23180736259E+02 -0.20806624041E+02 -0.11878069738E+02  0.33336926646E+02  0.00000000000E+00 0. -1.
        -14    1    4    4    0    0 -0.16328470330E+02  0.54326043325E+02  0.27433017347E+02  0.63011970033E+02  0.00000000000E+00 0.  1.
         -5    1    3    3    0  504  0.29933895357E+02 -0.41812546306E+02 -0.65449575787E+02  0.83367044391E+02  0.47000000000E+01 0.  1.
<mgrwt>
<rscale>  2 0.17362733E+03</rscale>
<asrwt>0</asrwt>
<pdfrwt beam="1">  1       21 0.19556342E-01 0.17395402E+03</pdfrwt>
<pdfrwt beam="2">  1       21 0.36372032E-01 0.17395402E+03</pdfrwt>
<totfact> 0.17646177E+05</totfact>
</mgrwt>
</event>
<event>
12    1  0.2742799E-001  0.2061209E+03  0.7546771E-02  0.1144951E+00
         21   -1    0    0  502  503  0.00000000000E+00  0.00000000000E+00  0.37006057504E+02  0.37006057504E+02  0.00000000000E+00 0.  1.
         21   -1    0    0  503  504 -0.00000000000E+00 -0.00000000000E+00 -0.13549720146E+04  0.13549720146E+04  0.00000000000E+00 0.  1.
         -6    2    1    2    0  504  0.11215121928E+03 -0.12033720342E+02 -0.93769050739E+03  0.96007776562E+03  0.17251991766E+03 0.  0.
        -24    2    3    3    0    0  0.65355302004E+02 -0.74573143096E+02 -0.60753218127E+03  0.62077311258E+03  0.80196239643E+02 0.  0.
          6    2    1    2  502    0 -0.11215121928E+03  0.12033720342E+02 -0.38027544972E+03  0.43190030650E+03  0.17089690073E+03 0.  0.
         24    2    5    5    0    0 -0.45442684439E+02 -0.27592973336E+00 -0.34101455463E+03  0.35338238505E+03  0.80765524099E+02 0.  0.
          2    1    6    6  501    0  0.30518344961E+01 -0.29335711620E+02 -0.18715742325E+03  0.18946714424E+03  0.00000000000E+00 0. -1.
         -1    1    6    6    0  501 -0.48494518935E+02  0.29059781887E+02 -0.15385713138E+03  0.16391524080E+03  0.00000000000E+00 0.  1.
          5    1    5    5  502    0 -0.66708534841E+02  0.12309650075E+02 -0.39260895090E+02  0.78517921450E+02  0.47000000000E+01 0. -1.
         13    1    4    4    0    0 -0.89033036413E+01 -0.10575886093E+02 -0.15879627418E+02  0.21054233525E+02  0.00000000000E+00 0. -1.
        -14    1    4    4    0    0  0.74258605645E+02 -0.63997257003E+02 -0.59165255386E+03  0.59971887906E+03  0.00000000000E+00 0.  1.
         -5    1    3    3    0  504  0.46795917276E+02  0.62539422754E+02 -0.33015832611E+03  0.33930465304E+03  0.47000000000E+01 0.  1.
<mgrwt>
<rscale>  2 0.20578094E+03</rscale>
<asrwt>0</asrwt>
<pdfrwt beam="1">  1       21 0.56932397E-02 0.20612091E+03</pdfrwt>
<pdfrwt beam="2">  1       21 0.20845723E+00 0.20612091E+03</pdfrwt>
<totfact> 0.25337085E+04</totfact>
</mgrwt>
</event>
<event>
12    1  0.2742799E-001  0.2208748E+03  0.7546771E-02  0.1133237E+00
         21   -1    0    0  502  503  0.00000000000E+00  0.00000000000E+00  0.47575605485E+03  0.47575605485E+03  0.00000000000E+00 0. -1.
         21   -1    0    0  503  504 -0.00000000000E+00 -0.00000000000E+00 -0.11416412756E+03  0.11416412756E+03  0.00000000000E+00 0.  1.
         -6    2    1    2    0  504  0.54002018060E+02 -0.12624042734E+03  0.86640342706E+02  0.23723897497E+03  0.17298242342E+03 0.  0.
        -24    2    3    3    0    0  0.16601808432E+02 -0.10660822240E+03 -0.21953832431E+01  0.13876016834E+03  0.87227469776E+02 0.  0.
          6    2    1    2  502    0 -0.54002018060E+02  0.12624042734E+03  0.27495158459E+03  0.35268120744E+03  0.17301097295E+03 0.  0.
         24    2    5    5    0    0  0.21839950585E+02  0.25389746929E+02  0.14026818682E+03  0.16806113382E+03  0.86300392679E+02 0.  0.
          4    1    6    6  501    0  0.14753546622E+02 -0.71184321209E+01  0.13299990749E+03  0.13400490516E+03  0.00000000000E+00 0. -1.
         -3    1    6    6    0  501  0.70864039639E+01  0.32508179050E+02  0.72682793277E+01  0.34056228662E+02  0.00000000000E+00 0.  1.
          5    1    5    5  502    0 -0.75841968645E+02  0.10085068041E+03  0.13468339777E+03  0.18462007362E+03  0.47000000000E+01 0. -1.
         11    1    4    4    0    0 -0.18155802958E+02 -0.30906962944E-01  0.17180646507E+02  0.24996174721E+02  0.00000000000E+00 0. -1.
        -12    1    4    4    0    0  0.34757611389E+02 -0.10657731543E+03 -0.19376029751E+02  0.11376399362E+03  0.00000000000E+00 0.  1.
         -5    1    3    3    0  504  0.37400209628E+02 -0.19632204946E+02  0.88835725949E+02  0.98478806635E+02  0.47000000000E+01 0.  1.
<mgrwt>
<rscale>  2 0.22086917E+03</rscale>
<asrwt>0</asrwt>
<pdfrwt beam="1">  1       21 0.73193238E-01 0.22087476E+03</pdfrwt>
<pdfrwt beam="2">  1       21 0.17563712E-01 0.22087476E+03</pdfrwt>
<totfact> 0.48645656E+04</totfact>
</mgrwt>
</event>
<event>
12    1  0.2742799E-001  0.1963371E+03  0.7546771E-02  0.1154336E+00
         21   -1    0    0  502  503  0.00000000000E+00  0.00000000000E+00  0.21719870452E+03  0.21719870452E+03  0.00000000000E+00 0. -1.
         21   -1    0    0  503  504 -0.00000000000E+00 -0.00000000000E+00 -0.21142072512E+03  0.21142072512E+03  0.00000000000E+00 0.  1.
         -6    2    1    2    0  504  0.43378162617E+02 -0.83132659804E+02  0.96046953984E+02  0.21857095289E+03  0.17249794190E+03 0.  0.
        -24    2    3    3    0    0 -0.42023369020E+02 -0.71801918383E+02  0.65632640773E+02  0.12708910904E+03  0.70160666142E+02 0.  0.
          6    2    1    2  502    0 -0.43378162617E+02  0.83132659804E+02 -0.90268974593E+02  0.21004847675E+03  0.16486106482E+03 0.  0.
         24    2    5    5    0    0 -0.39014107228E+01  0.98739385322E+02 -0.10469085941E+03  0.16497004972E+03  0.80562112941E+02 0.  0.
          4    1    6    6  501    0  0.36103835266E+02  0.28647634034E+02 -0.46526172834E+02  0.65489377881E+02  0.00000000000E+00 0. -1.
         -3    1    6    6    0  501 -0.40005245989E+02  0.70091751288E+02 -0.58164686578E+02  0.99480671841E+02  0.00000000000E+00 0.  1.
          5    1    5    5  502    0 -0.39476751894E+02 -0.15606725518E+02  0.14421884818E+02  0.45078427026E+02  0.47000000000E+01 0. -1.
         13    1    4    4    0    0 -0.24042969855E+02  0.40424415473E+00  0.43077619595E+02  0.49334664514E+02  0.00000000000E+00 0. -1.
        -14    1    4    4    0    0 -0.17980399166E+02 -0.72206162538E+02  0.22555021178E+02  0.77754444522E+02  0.00000000000E+00 0.  1.
         -5    1    3    3    0  504  0.85401531637E+02 -0.11330741421E+02  0.30414313211E+02  0.91481843856E+02  0.47000000000E+01 0.  1.
<mgrwt>
<rscale>  2 0.19464673E+03</rscale>
<asrwt>0</asrwt>
<pdfrwt beam="1">  1       21 0.33415185E-01 0.19633707E+03</pdfrwt>
<pdfrwt beam="2">  1       21 0.32526265E-01 0.19633707E+03</pdfrwt>
<totfact> 0.78332331E+04</totfact>
</mgrwt>
</event>
<event>
12    1  0.2742799E-001  0.2443299E+03  0.7546771E-02  0.1117086E+00
         21   -1    0    0  502  503  0.00000000000E+00  0.00000000000E+00  0.45320638067E+02  0.45320638067E+02  0.00000000000E+00 0.  1.
         21   -1    0    0  503  504 -0.00000000000E+00 -0.00000000000E+00 -0.13235024545E+04  0.13235024545E+04  0.00000000000E+00 0. -1.
         -6    2    1    2    0  504  0.16733141371E+03 -0.41663839463E+02 -0.70275596959E+03  0.74401816666E+03  0.17309362200E+03 0.  0.
        -24    2    3    3    0    0  0.69320604319E+02 -0.85474774752E+02 -0.42345029855E+03  0.44475362701E+03  0.79902128247E+02 0.  0.
          6    2    1    2  502    0 -0.16733141371E+03  0.41663839463E+02 -0.57542584683E+03  0.62480492590E+03  0.17184473428E+03 0.  0.
         24    2    5    5    0    0 -0.85783084598E+02  0.36449456701E+02 -0.16354314055E+03  0.20486829556E+03  0.80853937498E+02 0.  0.
          2    1    6    6  501    0 -0.48679191262E+02 -0.19461492482E+02 -0.97591369809E+02  0.11078126562E+03  0.00000000000E+00 0. -1.
         -1    1    6    6    0  501 -0.37103893336E+02  0.55910949184E+02 -0.65951770740E+02  0.94087029941E+02  0.00000000000E+00 0.  1.
          5    1    5    5  502    0 -0.81548329114E+02  0.52143827614E+01 -0.41188270628E+03  0.41993663034E+03  0.47000000000E+01 0. -1.
         13    1    4    4    0    0  0.60301209366E+01 -0.45070034318E+02 -0.27129163946E+03  0.27507603311E+03  0.00000000000E+00 0. -1.
        -14    1    4    4    0    0  0.63290483383E+02 -0.40404740434E+02 -0.15215865909E+03  0.16967759390E+03  0.00000000000E+00 0.  1.
         -5    1    3    3    0  504  0.98010809393E+02  0.43810935290E+02 -0.27930567105E+03  0.29926453964E+03  0.47000000000E+01 0.  1.
<mgrwt>
<rscale>  2 0.24410877E+03</rscale>
<asrwt>0</asrwt>
<pdfrwt beam="1">  1       21 0.69724057E-02 0.24432986E+03</pdfrwt>
<pdfrwt beam="2">  1       21 0.20361577E+00 0.24432986E+03</pdfrwt>
<totfact> 0.18693147E+04</totfact>
</mgrwt>
</event>
<event>
12    1  0.2742799E-001  0.1940182E+03  0.7546771E-02  0.1157399E+00
         21   -1    0    0  502  503  0.00000000000E+00  0.00000000000E+00  0.13005822009E+04  0.13005822009E+04  0.00000000000E+00 0. -1.
         21   -1    0    0  503  504 -0.00000000000E+00 -0.00000000000E+00 -0.30944149181E+02  0.30944149181E+02  0.00000000000E+00 0.  1.
         -6    2    1    2    0  504  0.15413642959E+02  0.53140204680E+02  0.39029800830E+03  0.43103649355E+03  0.17435154643E+03 0.  0.
        -24    2    3    3    0    0 -0.51098912960E+02  0.62270756561E+02  0.21174264897E+03  0.24021879673E+03  0.79883508197E+02 0.  0.
          6    2    1    2  502    0 -0.15413642959E+02 -0.53140204680E+02  0.87934004337E+03  0.90048985649E+03  0.18596130785E+03 0.  0.
         24    2    5    5    0    0  0.50289399110E+02 -0.43718261779E+02  0.30716186357E+03  0.32445546326E+03  0.80514763423E+02 0.  0.
          4    1    6    6  501    0  0.92619386257E+01 -0.45644936898E+02  0.24860463256E+03  0.25292984621E+03  0.00000000000E+00 0. -1.
         -3    1    6    6    0  501  0.41027460484E+02  0.19266751196E+01  0.58557231009E+02  0.71525617049E+02  0.00000000000E+00 0.  1.
          5    1    5    5  502    0 -0.65703042068E+02 -0.94219429014E+01  0.57217817980E+03  0.57603439323E+03  0.47000000000E+01 0. -1.
         11    1    4    4    0    0 -0.17095621647E+02  0.13796402504E+02  0.16025125536E+03  0.16175001034E+03  0.00000000000E+00 0. -1.
        -12    1    4    4    0    0 -0.34003291313E+02  0.48474354057E+02  0.51491393610E+02  0.78468786388E+02  0.00000000000E+00 0.  1.
         -5    1    3    3    0  504  0.66512555919E+02 -0.91305518803E+01  0.17855535933E+03  0.19081769682E+03  0.47000000000E+01 0.  1.
<mgrwt>
<rscale>  2 0.19118222E+03</rscale>
<asrwt>0</asrwt>
<pdfrwt beam="1">  1       21 0.20008953E+00 0.19401822E+03</pdfrwt>
<pdfrwt beam="2">  1       21 0.47606393E-02 0.19401822E+03</pdfrwt>
<totfact> 0.39157536E+04</totfact>
</mgrwt>
</event>
<event>
12    1  0.2742799E-001  0.1851357E+03  0.7546771E-02  0.1163125E+00
         21   -1    0    0  502  503  0.00000000000E+00  0.00000000000E+00  0.14811309292E+03  0.14811309292E+03  0.00000000000E+00 0.  1.
         21   -1    0    0  503  504 -0.00000000000E+00 -0.00000000000E+00 -0.28671947854E+03  0.28671947854E+03  0.00000000000E+00 0.  1.
         -6    2    1    2    0  504 -0.20371059413E+02 -0.60861522820E+02 -0.16584753050E+03  0.24855708844E+03  0.17365516929E+03 0.  0.
        -24    2    3    3    0    0  0.18543614974E+02  0.50176213325E+01 -0.20532587132E+02  0.84261816802E+02  0.79431885640E+02 0.  0.
          6    2    1    2  502    0  0.20371059413E+02  0.60861522820E+02  0.27241144880E+02  0.18627548302E+03  0.17273497208E+03 0.  0.
         24    2    5    5    0    0 -0.43007055012E+02  0.76091859736E+02  0.24641508612E+02  0.12087214473E+03  0.79770254647E+02 0.  0.
          4    1    6    6  501    0 -0.65888841397E+02  0.65160886534E+02  0.15729693728E+02  0.93993105169E+02  0.00000000000E+00 0. -1.
         -3    1    6    6    0  501  0.22881786385E+02  0.10930973202E+02  0.89118148841E+01  0.26879039563E+02  0.00000000000E+00 0.  1.
          5    1    5    5  502    0  0.63378114425E+02 -0.15230336916E+02  0.25996362675E+01  0.65403338289E+02  0.47000000000E+01 0. -1.
         11    1    4    4    0    0  0.24805218920E+02 -0.29727645680E+02  0.71824639831E+01  0.39377907413E+02  0.00000000000E+00 0. -1.
        -12    1    4    4    0    0 -0.62616039458E+01  0.34745267013E+02 -0.27715051115E+02  0.44883909389E+02  0.00000000000E+00 0.  1.
         -5    1    3    3    0  504 -0.38914674387E+02 -0.65879144153E+02 -0.14531494337E+03  0.16429527164E+03  0.47000000000E+01 0.  1.
<mgrwt>
<rscale>  2 0.18491960E+03</rscale>
<asrwt>0</asrwt>
<pdfrwt beam="1">  1       21 0.22786630E-01 0.18513569E+03</pdfrwt>
<pdfrwt beam="2">  1       21 0.44110689E-01 0.18513569E+03</pdfrwt>
<totfact> 0.89438704E+04</totfact>
</mgrwt>
</event>
<event>
12    1  0.2742799E-001  0.1862753E+03  0.7546771E-02  0.1163881E+00
         21   -1    0    0  502  503  0.00000000000E+00  0.00000000000E+00  0.14841801473E+03  0.14841801473E+03  0.00000000000E+00 0.  1.
         21   -1    0    0  503  504 -0.00000000000E+00 -0.00000000000E+00 -0.43891238613E+03  0.43891238613E+03  0.00000000000E+00 0.  1.
         -6    2    1    2    0  504 -0.34154716925E+02  0.18892464043E+02 -0.35279746903E+03  0.39895431813E+03  0.18214012166E+03 0.  0.
        -24    2    3    3    0    0  0.24942002462E+02 -0.81035199574E+01 -0.75112530152E+02  0.11373121130E+03  0.81271924515E+02 0.  0.
          6    2    1    2  502    0  0.34154716925E+02 -0.18892464043E+02  0.62303097632E+02  0.18837608273E+03  0.17343702801E+03 0.  0.
         24    2    5    5    0    0  0.48266401036E+02 -0.39982440535E+02  0.99762888664E+02  0.14288704360E+03  0.80844494275E+02 0.  0.
          2    1    6    6  501    0  0.12942779309E+02 -0.60087647925E+02  0.64206948761E+02  0.88885168834E+02  0.00000000000E+00 0. -1.
         -1    1    6    6    0  501  0.35323621727E+02  0.20105207390E+02  0.35555939903E+02  0.54001874768E+02  0.00000000000E+00 0.  1.
          5    1    5    5  502    0 -0.14111684111E+02  0.21089976492E+02 -0.37459791032E+02  0.45489039131E+02  0.47000000000E+01 0. -1.
         11    1    4    4    0    0  0.75827400811E+01  0.36616078954E+02 -0.31295845663E+02  0.48761307826E+02  0.00000000000E+00 0. -1.
        -12    1    4    4    0    0  0.17359262381E+02 -0.44719598912E+02 -0.43816684489E+02  0.64969903470E+02  0.00000000000E+00 0.  1.
         -5    1    3    3    0  504 -0.59096719386E+02  0.26995984000E+02 -0.27768493888E+03  0.28522310684E+03  0.47000000000E+01 0.  1.
<mgrwt>
<rscale>  2 0.18411282E+03</rscale>
<asrwt>0</asrwt>
<pdfrwt beam="1">  1       21 0.22833541E-01 0.18627532E+03</pdfrwt>
<pdfrwt beam="2">  1       21 0.67524983E-01 0.18627532E+03</pdfrwt>
<totfact> 0.36205612E+04</totfact>
</mgrwt>
</event>
<event>
12    1  0.2742799E-001  0.3697422E+03  0.7546771E-02  0.1054892E+00
         21   -1    0    0  502  503  0.00000000000E+00  0.00000000000E+00  0.54061706178E+03  0.54061706178E+03  0.00000000000E+00 0.  1.
         21   -1    0    0  503  504 -0.00000000000E+00 -0.00000000000E+00 -0.25557066222E+03  0.25557066222E+03  0.00000000000E+00 0.  1.
         -6    2    1    2    0  504  0.32743032427E+02 -0.32514702017E+03  0.96714545363E+02  0.38218187198E+03  0.17296412659E+03 0.  0.
        -24    2    3    3    0    0  0.99130140020E+01 -0.16502473362E+03  0.11815294295E+03  0.21895794211E+03  0.81553859086E+02 0.  0.
          6    2    1    2  502    0 -0.32743032427E+02  0.32514702017E+03  0.18833185420E+03  0.41400585202E+03  0.17070227680E+03 0.  0.
         24    2    5    5    0    0 -0.60380260664E+02  0.32560645523E+03  0.17616391021E+03  0.38344155379E+03  0.79551004719E+02 0.  0.
          4    1    6    6  501    0 -0.20537961721E+02  0.24859631251E+03  0.10254973506E+03  0.26970054250E+03  0.00000000000E+00 0. -1.
         -3    1    6    6    0  501 -0.39842298943E+02  0.77010142718E+02  0.73614175154E+02  0.11374101129E+03  0.00000000000E+00 0.  1.
          5    1    5    5  502    0  0.27637228237E+02 -0.45943505980E+00  0.12167943991E+02  0.30564298228E+02  0.47000000000E+01 0. -1.
         11    1    4    4    0    0 -0.87476159031E+01  0.46917357071E+01  0.19206370781E+02  0.21619848439E+02  0.00000000000E+00 0. -1.
        -12    1    4    4    0    0  0.18660629905E+02 -0.16971646933E+03  0.98946572169E+02  0.19733809367E+03  0.00000000000E+00 0.  1.
         -5    1    3    3    0  504  0.22830018425E+02 -0.16012228655E+03 -0.21438397587E+02  0.16322392987E+03  0.47000000000E+01 0.  1.
<mgrwt>
<rscale>  2 0.36947873E+03</rscale>
<asrwt>0</asrwt>
<pdfrwt beam="1">  1       21 0.83171855E-01 0.36974218E+03</pdfrwt>
<pdfrwt beam="2">  1       21 0.39318564E-01 0.36974218E+03</pdfrwt>
<totfact> 0.71475882E+03</totfact>
</mgrwt>
</event>
<event>
12    1  0.2742799E-001  0.2044342E+03  0.7546771E-02  0.1146322E+00
         21   -1    0    0  502  503  0.00000000000E+00  0.00000000000E+00  0.22434503359E+03  0.22434503359E+03  0.00000000000E+00 0.  1.
         21   -1    0    0  503  504 -0.00000000000E+00 -0.00000000000E+00 -0.20346951922E+03  0.20346951922E+03  0.00000000000E+00 0. -1.
         -6    2    1    2    0  504 -0.43330511686E+02 -0.10043529269E+03 -0.53816570477E+02  0.21139908848E+03  0.17270949624E+03 0.  0.
        -24    2    3    3    0    0 -0.22359828415E+02 -0.80423855126E+02  0.31967482993E+02  0.12072813933E+03  0.81150509897E+02 0.  0.
          6    2    1    2  502    0  0.43330511686E+02  0.10043529269E+03  0.74692084847E+02  0.21641546433E+03  0.17114895384E+03 0.  0.
         24    2    5    5    0    0  0.15113806392E+02  0.40455590704E+02  0.11281196275E+03  0.13980631214E+03  0.70385964587E+02 0.  0.
          4    1    6    6  501    0 -0.14731909199E+02 -0.13969385634E+02  0.32197959232E+02  0.38064175577E+02  0.00000000000E+00 0. -1.
         -3    1    6    6    0  501  0.29845715590E+02  0.54424976339E+02  0.80614003518E+02  0.10174213656E+03  0.00000000000E+00 0.  1.
          5    1    5    5  502    0  0.28216705295E+02  0.59979701987E+02 -0.38119877903E+02  0.76609152192E+02  0.47000000000E+01 0. -1.
         11    1    4    4    0    0  0.58034946970E+01 -0.30409256108E+02 -0.25049745474E+02  0.39823274050E+02  0.00000000000E+00 0. -1.
        -12    1    4    4    0    0 -0.28163323112E+02 -0.50014599018E+02  0.57017228467E+02  0.80904865278E+02  0.00000000000E+00 0.  1.
         -5    1    3    3    0  504 -0.20970683271E+02 -0.20011437565E+02 -0.85784053470E+02  0.90670949151E+02  0.47000000000E+01 0.  1.
<mgrwt>
<rscale>  2 0.20410426E+03</rscale>
<asrwt>0</asrwt>
<pdfrwt beam="1">  1       21 0.34514621E-01 0.20443422E+03</pdfrwt>
<pdfrwt beam="2">  1       21 0.31303003E-01 0.20443422E+03</pdfrwt>
<totfact> 0.78938829E+04</totfact>
</mgrwt>
</event>
<event>
12    1  0.2742799E-001  0.1998126E+03  0.7546771E-02  0.1149941E+00
         21   -1    0    0  502  503  0.00000000000E+00  0.00000000000E+00  0.24325530052E+03  0.24325530052E+03  0.00000000000E+00 0.  1.
         21   -1    0    0  503  504 -0.00000000000E+00 -0.00000000000E+00 -0.18959080112E+03  0.18959080112E+03  0.00000000000E+00 0.  1.
         -6    2    1    2    0  504 -0.42198162128E+02  0.91386040998E+02  0.10642177992E+03  0.22638611463E+03  0.17260644333E+03 0.  0.
        -24    2    3    3    0    0 -0.87457690916E+02  0.94877977102E+02  0.87297302936E+02  0.17690425751E+03  0.83807034224E+02 0.  0.
          6    2    1    2  502    0  0.42198162128E+02 -0.91386040998E+02 -0.52757280523E+02  0.20645998701E+03  0.17236676655E+03 0.  0.
         24    2    5    5    0    0  0.35574312354E+02  0.10664489429E+02 -0.43613263971E+00  0.91491388416E+02  0.83613521086E+02 0.  0.
          4    1    6    6  501    0  0.62215388235E+02 -0.13122196202E+01 -0.17312148063E+01  0.62253301585E+02  0.00000000000E+00 0. -1.
         -3    1    6    6    0  501 -0.26641075881E+02  0.11976709049E+02  0.12950821666E+01  0.29238086831E+02  0.00000000000E+00 0.  1.
          5    1    5    5  502    0  0.66238497742E+01 -0.10205053043E+03 -0.52321147883E+02  0.11496859859E+03  0.47000000000E+01 0. -1.
         13    1    4    4    0    0 -0.66959960127E+02  0.90196155425E+02  0.30590345003E+02  0.11642487673E+03  0.00000000000E+00 0. -1.
        -14    1    4    4    0    0 -0.20497730789E+02  0.46818216776E+01  0.56706957933E+02  0.60479380782E+02  0.00000000000E+00 0.  1.
         -5    1    3    3    0  504  0.45259528788E+02 -0.34919361040E+01  0.19124476985E+02  0.49481857118E+02  0.47000000000E+01 0.  1.
<mgrwt>
<rscale>  2 0.19976083E+03</rscale>
<asrwt>0</asrwt>
<pdfrwt beam="1">  1       21 0.37423893E-01 0.19981261E+03</pdfrwt>
<pdfrwt beam="2">  1       21 0.29167815E-01 0.19981261E+03</pdfrwt>
<totfact> 0.77268964E+04</totfact>
</mgrwt>
</event>
<event>
12    1  0.2742799E-001  0.1762708E+03  0.7546771E-02  0.1171679E+00
         21   -1    0    0  502  503  0.00000000000E+00  0.00000000000E+00  0.18979472673E+03  0.18979472673E+03  0.00000000000E+00 0.  1.
         21   -1    0    0  503  504 -0.00000000000E+00 -0.00000000000E+00 -0.23166943855E+03  0.23166943855E+03  0.00000000000E+00 0.  1.
         -6    2    1    2    0  504  0.26033256220E+02 -0.18332677485E+02 -0.13571175812E+03  0.22177241862E+03  0.17248625126E+03 0.  0.
        -24    2    3    3    0    0  0.17776222291E+02  0.48238493200E+02 -0.11905307882E+03  0.15249398783E+03  0.80236116824E+02 0.  0.
          6    2    1    2  502    0 -0.26033256220E+02  0.18332677485E+02  0.93837046303E+02  0.19969174667E+03  0.17337123445E+03 0.  0.
         24    2    5    5    0    0 -0.74551263394E+02  0.29412624222E+02  0.28273672876E+02  0.11724535090E+03  0.80771767299E+02 0.  0.
          2    1    6    6  501    0 -0.41524305604E+02 -0.16557428482E+02 -0.13723617692E+02  0.46762742396E+02  0.00000000000E+00 0. -1.
         -1    1    6    6    0  501 -0.33026957790E+02  0.45970052704E+02  0.41997290568E+02  0.70482608504E+02  0.00000000000E+00 0.  1.
          5    1    5    5  502    0  0.48518007174E+02 -0.11079946738E+02  0.65563373427E+02  0.82446395767E+02  0.47000000000E+01 0. -1.
         11    1    4    4    0    0 -0.31238125446E+02  0.90342659271E+01 -0.41702465137E+02  0.52882265843E+02  0.00000000000E+00 0. -1.
        -12    1    4    4    0    0  0.49014347737E+02  0.39204227273E+02 -0.77350613686E+02  0.99611721990E+02  0.00000000000E+00 0.  1.
         -5    1    3    3    0  504  0.82570339293E+01 -0.66571170685E+02 -0.16658679302E+02  0.69278430783E+02  0.47000000000E+01 0.  1.
<mgrwt>
<rscale>  2 0.17605283E+03</rscale>
<asrwt>0</asrwt>
<pdfrwt beam="1">  1       21 0.29199189E-01 0.17627082E+03</pdfrwt>
<pdfrwt beam="2">  1       21 0.35641452E-01 0.17627082E+03</pdfrwt>
<totfact> 0.85817499E+04</totfact>
</mgrwt>
</event>
<event>
12    1  0.2742799E-001  0.3151463E+03  0.7546771E-02  0.1077953E+00
         21   -1    0    0  502  503  0.00000000000E+00  0.00000000000E+00  0.19570360011E+04  0.19570360011E+04  0.00000000000E+00 0.  1.
         21   -1    0    0  503  504 -0.00000000000E+00 -0.00000000000E+00 -0.55365982368E+02  0.55365982368E+02  0.00000000000E+00 0. -1.
         -6    2    1    2    0  504 -0.40463429826E+02 -0.26003387180E+03  0.12440179963E+04  0.12833152242E+04  0.17338479136E+03 0.  0.
        -24    2    3    3    0    0 -0.46833209043E+02 -0.16041284132E+03  0.51176039660E+03  0.54426975460E+03  0.80032700270E+02 0.  0.
          6    2    1    2  502    0  0.40463429826E+02  0.26003387180E+03  0.65765202238E+03  0.72908675923E+03  0.17264534836E+03 0.  0.
         24    2    5    5    0    0 -0.47749572321E+00  0.23653143065E+03  0.43020719565E+03  0.49674700084E+03  0.75710012294E+02 0.  0.
          4    1    6    6  501    0  0.10275294849E+02  0.13225623777E+03  0.16592969446E+03  0.21243812657E+03  0.00000000000E+00 0. -1.
         -3    1    6    6    0  501 -0.10752790572E+02  0.10427519288E+03  0.26427750119E+03  0.28430887427E+03  0.00000000000E+00 0.  1.
          5    1    5    5  502    0  0.40940925549E+02  0.23502441145E+02  0.22744482673E+03  0.23233975839E+03  0.47000000000E+01 0. -1.
         13    1    4    4    0    0 -0.29009815292E+02 -0.14474651592E+02  0.15588215222E+03  0.15921787055E+03  0.00000000000E+00 0. -1.
        -14    1    4    4    0    0 -0.17823393752E+02 -0.14593818972E+03  0.35587824438E+03  0.38505188405E+03  0.00000000000E+00 0.  1.
         -5    1    3    3    0  504  0.63697792173E+01 -0.99621030480E+02  0.73225759970E+03  0.73904546959E+03  0.47000000000E+01 0.  1.
<mgrwt>
<rscale>  2 0.31504470E+03</rscale>
<asrwt>0</asrwt>
<pdfrwt beam="1">  1       21 0.30108241E+00 0.31514630E+03</pdfrwt>
<pdfrwt beam="2">  1       21 0.85178450E-02 0.31514630E+03</pdfrwt>
<totfact> 0.32287036E+03</totfact>
</mgrwt>
</event>
<event>
12    1  0.2742799E-001  0.2365791E+03  0.7546771E-02  0.1122212E+00
         21   -1    0    0  502  503  0.00000000000E+00  0.00000000000E+00  0.13136106108E+03  0.13136106108E+03  0.00000000000E+00 0. -1.
         21   -1    0    0  503  504 -0.00000000000E+00 -0.00000000000E+00 -0.47261734795E+03  0.47261734795E+03  0.00000000000E+00 0.  1.
         -6    2    1    2    0  504  0.49298478708E+01 -0.16047686890E+03 -0.74358516639E+02  0.24732158166E+03  0.17280522824E+03 0.  0.
        -24    2    3    3    0    0  0.10300325687E+02 -0.18325724053E+03 -0.88791840802E+02  0.21942537744E+03  0.81081393397E+02 0.  0.
          6    2    1    2  502    0 -0.49298478708E+01  0.16047686890E+03 -0.26689777022E+03  0.35665682737E+03  0.17376001814E+03 0.  0.
         24    2    5    5    0    0 -0.38263127048E+02  0.71686264191E+02 -0.61142937850E+02  0.13004698638E+03  0.81060301339E+02 0.  0.
          4    1    6    6  501    0  0.45277296712E+01 -0.10130323252E+02  0.88432576813E+01  0.14188974297E+02  0.00000000000E+00 0. -1.
         -3    1    6    6    0  501 -0.42790856719E+02  0.81816587443E+02 -0.69986195532E+02  0.11585801209E+03  0.00000000000E+00 0.  1.
          5    1    5    5  502    0  0.33333279177E+02  0.88790604709E+02 -0.20575483237E+03  0.22660984098E+03  0.47000000000E+01 0. -1.
         11    1    4    4    0    0 -0.22170611088E+02 -0.15662798281E+03 -0.63895549099E+02  0.17060627828E+03  0.00000000000E+00 0. -1.
        -12    1    4    4    0    0  0.32470936775E+02 -0.26629257720E+02 -0.24896291704E+02  0.48819099156E+02  0.00000000000E+00 0.  1.
         -5    1    3    3    0  504 -0.53704778161E+01  0.22780371629E+02  0.14433324164E+02  0.27896204221E+02  0.47000000000E+01 0.  1.
<mgrwt>
<rscale>  2 0.23640382E+03</rscale>
<asrwt>0</asrwt>
<pdfrwt beam="1">  1       21 0.20209394E-01 0.23657910E+03</pdfrwt>
<pdfrwt beam="2">  1       21 0.72710360E-01 0.23657910E+03</pdfrwt>
<totfact> 0.37733545E+04</totfact>
</mgrwt>
</event>
<event>
12    1  0.2742799E-001  0.1918270E+03  0.7546771E-02  0.1157258E+00
         21   -1    0    0  502  503  0.00000000000E+00  0.00000000000E+00  0.18592253796E+03  0.18592253796E+03  0.00000000000E+00 0. -1.
         21   -1    0    0  503  504 -0.00000000000E+00 -0.00000000000E+00 -0.32186129084E+03  0.32186129084E+03  0.00000000000E+00 0. -1.
         -6    2    1    2    0  504 -0.64764279035E+02 -0.44709319992E+02 -0.22699334128E+03  0.29719285361E+03  0.17494079032E+03 0.  0.
        -24    2    3    3    0    0 -0.40949783114E+02  0.58118239937E+01 -0.22336440928E+03  0.24102546669E+03  0.80566458459E+02 0.  0.
          6    2    1    2  502    0  0.64764279035E+02  0.44709319992E+02  0.91054588408E+02  0.21059097519E+03  0.17281286303E+03 0.  0.
         24    2    5    5    0    0  0.49319538158E+02  0.64068334630E+02  0.21910477453E+01  0.11822144381E+03  0.86222623130E+02 0.  0.
          4    1    6    6  501    0  0.61413132801E+02  0.78124662630E+02 -0.11509785256E+01  0.99379879971E+02  0.00000000000E+00 0. -1.
         -3    1    6    6    0  501 -0.12093594642E+02 -0.14056328000E+02  0.33420262708E+01  0.18841563837E+02  0.00000000000E+00 0.  1.
          5    1    5    5  502    0  0.15444740876E+02 -0.19359014638E+02  0.88863540663E+02  0.92369531382E+02  0.47000000000E+01 0. -1.
         11    1    4    4    0    0  0.16343042953E+02  0.73149142310E+01 -0.13174905886E+03  0.13296021034E+03  0.00000000000E+00 0. -1.
        -12    1    4    4    0    0 -0.57292826068E+02 -0.15030902373E+01 -0.91615350418E+02  0.10806525636E+03  0.00000000000E+00 0.  1.
         -5    1    3    3    0  504 -0.23814495921E+02 -0.50521143986E+02 -0.36289320057E+01  0.56167386917E+02  0.47000000000E+01 0.  1.
<mgrwt>
<rscale>  2 0.19134055E+03</rscale>
<asrwt>0</asrwt>
<pdfrwt beam="1">  1       21 0.28603467E-01 0.19182705E+03</pdfrwt>
<pdfrwt beam="2">  1       21 0.49517122E-01 0.19182705E+03</pdfrwt>
<totfact> 0.45477010E+04</totfact>
</mgrwt>
</event>
<event>
12    1  0.2742799E-001  0.1929692E+03  0.7546771E-02  0.1155945E+00
         21   -1    0    0  502  503  0.00000000000E+00  0.00000000000E+00  0.10987572993E+04  0.10987572993E+04  0.00000000000E+00 0.  1.
         21   -1    0    0  503  504 -0.00000000000E+00 -0.00000000000E+00 -0.11939403965E+03  0.11939403965E+03  0.00000000000E+00 0. -1.
         -6    2    1    2    0  504 -0.14528669921E+02  0.82786025609E+02 -0.25854686857E+02  0.19469354370E+03  0.17370233977E+03 0.  0.
        -24    2    3    3    0    0 -0.70917684932E+02  0.30024903455E+02 -0.33401946748E+02  0.11695997208E+03  0.81444043115E+02 0.  0.
          6    2    1    2  502    0  0.14528669921E+02 -0.82786025609E+02  0.10052179465E+04  0.10234577952E+04  0.17302638638E+03 0.  0.
         24    2    5    5    0    0  0.60152909684E+02 -0.51547210859E+02  0.39259219137E+03  0.40832379305E+03  0.79524862495E+02 0.  0.
          2    1    6    6  501    0  0.82899836285E+01  0.11694597968E+02  0.11010623294E+02  0.18075432927E+02  0.00000000000E+00 0. -1.
         -1    1    6    6    0  501  0.51862926055E+02 -0.63241808826E+02  0.38158156808E+03  0.39024836013E+03  0.00000000000E+00 0.  1.
          5    1    5    5  502    0 -0.45624239763E+02 -0.31238814750E+02  0.61262575510E+03  0.61513400216E+03  0.47000000000E+01 0. -1.
         13    1    4    4    0    0 -0.51866721409E+01 -0.12721207778E+02 -0.35976069756E+02  0.38509846667E+02  0.00000000000E+00 0. -1.
        -14    1    4    4    0    0 -0.65731012791E+02  0.42746111233E+02  0.25741230084E+01  0.78450125413E+02  0.00000000000E+00 0.  1.
         -5    1    3    3    0  504  0.56389015011E+02  0.52761122154E+02  0.75472598911E+01  0.77733571619E+02  0.47000000000E+01 0.  1.
<mgrwt>
<rscale>  2 0.19281696E+03</rscale>
<asrwt>0</asrwt>
<pdfrwt beam="1">  1       21 0.16903958E+00 0.19296920E+03</pdfrwt>
<pdfrwt beam="2">  1       21 0.18368315E-01 0.19296920E+03</pdfrwt>
<totfact> 0.58596746E+03</totfact>
</mgrwt>
</event>
<event>
12    1  0.2742799E-001  0.2725794E+03  0.7546771E-02  0.1100069E+00
         21   -1    0    0  502  503  0.00000000000E+00  0.00000000000E+00  0.48423518549E+03  0.48423518549E+03  0.00000000000E+00 0. -1.
         21   -1    0    0  503  504 -0.00000000000E+00 -0.00000000000E+00 -0.15252011635E+03  0.15252011635E+03  0.00000000000E+00 0. -1.
         -6    2    1    2    0  504  0.19655256611E+03  0.69539099274E+02  0.15720192679E+03  0.31309750910E+03  0.17276865123E+03 0.  0.
        -24    2    3    3    0    0  0.20224689000E+03  0.75234816852E+02  0.17745989045E+03  0.29079635184E+03  0.80662403543E+02 0.  0.
          6    2    1    2  502    0 -0.19655256611E+03 -0.69539099274E+02  0.17451314235E+03  0.32365779274E+03  0.17558739242E+03 0.  0.
         24    2    5    5    0    0 -0.56913203791E+02 -0.92796551253E+01  0.98363355519E+01  0.99446078471E+02  0.80421043646E+02 0.  0.
          2    1    6    6  501    0 -0.64883964727E+02 -0.26972497876E+02 -0.10830461137E+02  0.71096718692E+02  0.00000000000E+00 0. -1.
         -1    1    6    6    0  501  0.79707609358E+01  0.17692842750E+02  0.20666796689E+02  0.28349359779E+02  0.00000000000E+00 0.  1.
          5    1    5    5  502    0 -0.13963936232E+03 -0.60259444149E+02  0.16467680680E+03  0.22421171427E+03  0.47000000000E+01 0. -1.
         13    1    4    4    0    0  0.11938915736E+03  0.30513109411E+02  0.51550877387E+02  0.13357512381E+03  0.00000000000E+00 0. -1.
        -14    1    4    4    0    0  0.82857732645E+02  0.44721707441E+02  0.12590901306E+03  0.15722122804E+03  0.00000000000E+00 0.  1.
         -5    1    3    3    0  504 -0.56943238967E+01 -0.56957175781E+01 -0.20257963658E+02  0.22301157255E+02  0.47000000000E+01 0.  1.
<mgrwt>
<rscale>  2 0.27212648E+03</rscale>
<asrwt>0</asrwt>
<pdfrwt beam="1">  1       21 0.74497720E-01 0.27257940E+03</pdfrwt>
<pdfrwt beam="2">  1       21 0.23464634E-01 0.27257940E+03</pdfrwt>
<totfact> 0.26506372E+04</totfact>
</mgrwt>
</event>
<event>
12    1  0.2742799E-001  0.1888798E+03  0.7546771E-02  0.1159503E+00
         21   -1    0    0  502  503  0.00000000000E+00  0.00000000000E+00  0.16489616304E+03  0.16489616304E+03  0.00000000000E+00 0. -1.
         21   -1    0    0  503  504 -0.00000000000E+00 -0.00000000000E+00 -0.31911072409E+03  0.31911072409E+03  0.00000000000E+00 0.  1.
         -6    2    1    2    0  504 -0.73433093455E+02  0.97926666886E+01 -0.21451085790E+03  0.28573633627E+03  0.17361460242E+03 0.  0.
        -24    2    3    3    0    0 -0.64313650132E+02 -0.60216171626E+01 -0.41059308651E+02  0.11126345655E+03  0.80753851122E+02 0.  0.
          6    2    1    2  502    0  0.73433093455E+02 -0.97926666886E+01  0.60296296850E+02  0.19827055086E+03  0.17374479097E+03 0.  0.
         24    2    5    5    0    0  0.18815147493E+02  0.30869803348E+02 -0.22275574326E+02  0.91140907900E+02  0.80644338594E+02 0.  0.
          4    1    6    6  501    0 -0.23802333458E+02  0.38235499374E+02 -0.93235652880E+01  0.45993840458E+02  0.00000000000E+00 0. -1.
         -3    1    6    6    0  501  0.42617480951E+02 -0.73656960253E+01 -0.12952009038E+02  0.45147067442E+02  0.00000000000E+00 0.  1.
          5    1    5    5  502    0  0.54617945962E+02 -0.40662470037E+02  0.82571871176E+02  0.10712964296E+03  0.47000000000E+01 0. -1.
         13    1    4    4    0    0 -0.76290748200E+02  0.19319764271E+01 -0.52717674502E+02  0.92753242524E+02  0.00000000000E+00 0. -1.
        -14    1    4    4    0    0  0.11977098068E+02 -0.79535935897E+01  0.11658365851E+02  0.18510214030E+02  0.00000000000E+00 0.  1.
         -5    1    3    3    0  504 -0.91194433235E+01  0.15814283851E+02 -0.17345154925E+03  0.17447287972E+03  0.47000000000E+01 0.  1.
<mgrwt>
<rscale>  2 0.18884983E+03</rscale>
<asrwt>0</asrwt>
<pdfrwt beam="1">  1       21 0.25368640E-01 0.18887977E+03</pdfrwt>
<pdfrwt beam="2">  1       21 0.49093958E-01 0.18887977E+03</pdfrwt>
<totfact> 0.58401621E+04</totfact>
</mgrwt>
</event>
<event>
12    1  0.2742799E-001  0.3373952E+03  0.7546771E-02  0.1067951E+00
         21   -1    0    0  502  503  0.00000000000E+00  0.00000000000E+00  0.16821117135E+03  0.16821117135E+03  0.00000000000E+00 0.  1.
         21   -1    0    0  503  504 -0.00000000000E+00 -0.00000000000E+00 -0.71954879258E+03  0.71954879258E+03  0.00000000000E+00 0.  1.
         -6    2    1    2    0  504  0.25526558717E+03 -0.13653892333E+03 -0.38472660954E+03  0.51146919830E+03  0.17257687895E+03 0.  0.
        -24    2    3    3    0    0  0.14179210301E+03 -0.80662041443E+01 -0.21923319257E+03  0.27315924836E+03  0.79891915192E+02 0.  0.
          6    2    1    2  502    0 -0.25526558717E+03  0.13653892333E+03 -0.16661101169E+03  0.37629076562E+03  0.17329775966E+03 0.  0.
         24    2    5    5    0    0 -0.19360015267E+03  0.14659009021E+03 -0.17937504702E+03  0.31234811659E+03  0.80101590381E+02 0.  0.
          2    1    6    6  501    0 -0.16045207152E+03  0.97615431433E+02 -0.16828850931E+03  0.25217982091E+03  0.00000000000E+00 0. -1.
         -1    1    6    6    0  501 -0.33148081148E+02  0.48974658780E+02 -0.11086537710E+02  0.60168295678E+02  0.00000000000E+00 0.  1.
          5    1    5    5  502    0 -0.61665434498E+02 -0.10051166882E+02  0.12764035332E+02  0.63942649034E+02  0.47000000000E+01 0. -1.
         11    1    4    4    0    0  0.95648914858E+02  0.20435455619E+02 -0.89626268496E+02  0.13266194166E+03  0.00000000000E+00 0. -1.
        -12    1    4    4    0    0  0.46143188157E+02 -0.28501659764E+02 -0.12960692407E+03  0.14049730670E+03  0.00000000000E+00 0.  1.
         -5    1    3    3    0  504  0.11347348415E+03 -0.12847271919E+03 -0.16549341697E+03  0.23830994994E+03  0.47000000000E+01 0.  1.
<mgrwt>
<rscale>  2 0.33730272E+03</rscale>
<asrwt>0</asrwt>
<pdfrwt beam="1">  1       21 0.25878641E-01 0.33739519E+03</pdfrwt>
<pdfrwt beam="2">  1       21 0.11069982E+00 0.33739519E+03</pdfrwt>
<totfact> 0.84084900E+03</totfact>
</mgrwt>
</event>
<event>
12    1  0.2742799E-001  0.2056630E+03  0.7546771E-02  0.1145509E+00
         21   -1    0    0  502  503  0.00000000000E+00  0.00000000000E+00  0.98462209939E+03  0.98462209939E+03  0.00000000000E+00 0.  1.
         21   -1    0    0  503  504 -0.00000000000E+00 -0.00000000000E+00 -0.42540134457E+02  0.42540134457E+02  0.00000000000E+00 0. -1.
         -6    2    1    2    0  504 -0.89666044017E+02  0.56399923067E+02  0.45050993311E+03  0.49430172232E+03  0.17364919257E+03 0.  0.
        -24    2    3    3    0    0 -0.11382814582E+02  0.10198000437E+01  0.99970664970E+02  0.13085283933E+03  0.83652395335E+02 0.  0.
          6    2    1    2  502    0  0.89666044017E+02 -0.56399923067E+02  0.49157203182E+03  0.53286051153E+03  0.17628474553E+03 0.  0.
         24    2    5    5    0    0  0.98886532291E+02 -0.38914297228E+02  0.49508925805E+03  0.51223951749E+03  0.77350378456E+02 0.  0.
          4    1    6    6  501    0  0.19582184073E+02  0.12575975743E+02  0.22256104325E+03  0.22377451837E+03  0.00000000000E+00 0. -1.
         -3    1    6    6    0  501  0.79304348218E+02 -0.51490272971E+02  0.27252821480E+03  0.28846499912E+03  0.00000000000E+00 0.  1.
          5    1    5    5  502    0 -0.92204882734E+01 -0.17485625840E+02 -0.35172262239E+01  0.20620994043E+02  0.47000000000E+01 0. -1.
         11    1    4    4    0    0  0.29848121319E+02  0.15974093082E+02  0.69925734367E+02  0.77689705385E+02  0.00000000000E+00 0. -1.
        -12    1    4    4    0    0 -0.41230935901E+02 -0.14954293038E+02  0.30044930602E+02  0.53163133941E+02  0.00000000000E+00 0.  1.
         -5    1    3    3    0  504 -0.78283229436E+02  0.55380123023E+02  0.35053926814E+03  0.36344888299E+03  0.47000000000E+01 0.  1.
<mgrwt>
<rscale>  2 0.20509701E+03</rscale>
<asrwt>0</asrwt>
<pdfrwt beam="1">  1       21 0.15148031E+00 0.20566298E+03</pdfrwt>
<pdfrwt beam="2">  1       21 0.65446368E-02 0.20566298E+03</pdfrwt>
<totfact> 0.49109200E+04</totfact>
</mgrwt>
</event>
<event>
12    1  0.2742799E-001  0.1767260E+03  0.7546771E-02  0.1171868E+00
         21   -1    0    0  502  503  0.00000000000E+00  0.00000000000E+00  0.19267644610E+04  0.19267644610E+04  0.00000000000E+00 0. -1.
         21   -1    0    0  503  504 -0.00000000000E+00 -0.00000000000E+00 -0.17428501516E+02  0.17428501516E+02  0.00000000000E+00 0. -1.
         -6    2    1    2    0  504  0.89545795302E+01 -0.19506177712E+02  0.65796231516E+03  0.68040181091E+03  0.17196377716E+03 0.  0.
        -24    2    3    3    0    0 -0.10040095169E+02  0.38792410859E+02  0.21248255607E+03  0.23069765387E+03  0.80417138831E+02 0.  0.
          6    2    1    2  502    0 -0.89545795302E+01  0.19506177712E+02  0.12513736444E+04  0.12637911516E+04  0.17541779188E+03 0.  0.
         24    2    5    5    0    0  0.31024659822E+02 -0.47270511934E+02  0.65651364707E+03  0.66384284367E+03  0.80499201804E+02 0.  0.
          2    1    6    6  501    0  0.11016246215E+01 -0.70147517832E+01  0.48729586812E+03  0.48734760019E+03  0.00000000000E+00 0. -1.
         -1    1    6    6    0  501  0.29923035201E+02 -0.40255760151E+02  0.16921777894E+03  0.17649524348E+03  0.00000000000E+00 0.  1.
          5    1    5    5  502    0 -0.39979239353E+02  0.66776689647E+02  0.59485999729E+03  0.59994830797E+03  0.47000000000E+01 0. -1.
         11    1    4    4    0    0  0.62935735764E+01  0.51260027081E+02  0.20020938021E+03  0.20676313832E+03  0.00000000000E+00 0. -1.
        -12    1    4    4    0    0 -0.16333668745E+02 -0.12467616222E+02  0.12273175856E+02  0.23934515548E+02  0.00000000000E+00 0.  1.
         -5    1    3    3    0  504  0.18994674699E+02 -0.58298588571E+02  0.44547975909E+03  0.44970415704E+03  0.47000000000E+01 0.  1.
<mgrwt>
<rscale>  2 0.17586270E+03</rscale>
<asrwt>0</asrwt>
<pdfrwt beam="1">  1       21 0.29642513E+00 0.17672599E+03</pdfrwt>
<pdfrwt beam="2">  1       21 0.26813095E-02 0.17672599E+03</pdfrwt>
<totfact> 0.27692575E+04</totfact>
</mgrwt>
</event>
<event>
12    1  0.2742799E-001  0.2012763E+03  0.7546771E-02  0.1148963E+00
         21   -1    0    0  502  503  0.00000000000E+00  0.00000000000E+00  0.16297394823E+03  0.16297394823E+03  0.00000000000E+00 0.  1.
         21   -1    0    0  503  504 -0.00000000000E+00 -0.00000000000E+00 -0.29485387067E+03  0.29485387067E+03  0.00000000000E+00 0.  1.
         -6    2    1    2    0  504 -0.89978461193E+02 -0.44169677082E+02 -0.15851010810E+03  0.25619840391E+03  0.17454249897E+03 0.  0.
        -24    2    3    3    0    0 -0.98965532357E+02  0.17063636627E+02 -0.14288468595E+03  0.19219426363E+03  0.80232519613E+02 0.  0.
          6    2    1    2  502    0  0.89978461193E+02  0.44169677082E+02  0.26630185656E+02  0.20162941498E+03  0.17291087399E+03 0.  0.
         24    2    5    5    0    0  0.23329060601E+02  0.73031120382E+02 -0.21604962377E+02  0.11431478268E+03  0.81995765296E+02 0.  0.
          2    1    6    6  501    0  0.12057257652E+02  0.31896604108E+01 -0.39432539278E+02  0.41357907945E+02  0.00000000000E+00 0. -1.
         -1    1    6    6    0  501  0.11271802949E+02  0.69841459971E+02  0.17827576901E+02  0.72956874733E+02  0.00000000000E+00 0.  1.
          5    1    5    5  502    0  0.66649400593E+02 -0.28861443300E+02  0.48235148033E+02  0.87314632304E+02  0.47000000000E+01 0. -1.
         13    1    4    4    0    0 -0.60322233014E+02 -0.72690075140E+01 -0.24868516666E+02  0.65650996848E+02  0.00000000000E+00 0. -1.
        -14    1    4    4    0    0 -0.38643299343E+02  0.24332644140E+02 -0.11801616929E+03  0.12654326678E+03  0.00000000000E+00 0.  1.
         -5    1    3    3    0  504  0.89870711633E+01 -0.61233313709E+02 -0.15625422144E+02  0.64004140280E+02  0.47000000000E+01 0.  1.
<mgrwt>
<rscale>  2 0.20092210E+03</rscale>
<asrwt>0</asrwt>
<pdfrwt beam="1">  1       21 0.25072915E-01 0.20127635E+03</pdfrwt>
<pdfrwt beam="2">  1       21 0.45362134E-01 0.20127635E+03</pdfrwt>
<totfact> 0.69940774E+04</totfact>
</mgrwt>
</event>
<event>
12    1  0.2742799E-001  0.1761380E+03  0.7546771E-02  0.1171629E+00
         21   -1    0    0  502  503  0.00000000000E+00  0.00000000000E+00  0.22401682344E+03  0.22401682344E+03  0.00000000000E+00 0.  1.
         21   -1    0    0  503  504 -0.00000000000E+00 -0.00000000000E+00 -0.13855709045E+03  0.13855709045E+03  0.00000000000E+00 0.  1.
         -6    2    1    2    0  504  0.24220187784E+02  0.20588647680E+02  0.36286684367E+02  0.17970077777E+03  0.17310440826E+03 0.  0.
        -24    2    3    3    0    0 -0.51984532752E+02  0.29687689138E+02  0.23891007721E+02  0.10181820728E+03  0.78818884485E+02 0.  0.
          6    2    1    2  502    0 -0.24220187784E+02 -0.20588647680E+02  0.49173048625E+02  0.18287313612E+03  0.17324573673E+03 0.  0.
         24    2    5    5    0    0  0.99279319569E+01  0.55661359394E+02 -0.40146634365E+01  0.83720827146E+02  0.61614191653E+02 0.  0.
          2    1    6    6  501    0  0.34813765617E+02  0.44022329349E+02 -0.36916685742E+01  0.56245819175E+02  0.00000000000E+00 0. -1.
         -1    1    6    6    0  501 -0.24885833660E+02  0.11639030045E+02 -0.32299486236E+00  0.27475007972E+02  0.00000000000E+00 0.  1.
          5    1    5    5  502    0 -0.34148119741E+02 -0.76250007074E+02  0.53187712062E+02  0.99152308975E+02  0.47000000000E+01 0. -1.
         11    1    4    4    0    0 -0.70214214383E+02  0.11534075736E+02  0.80591085727E+01  0.71610195053E+02  0.00000000000E+00 0. -1.
        -12    1    4    4    0    0  0.18229681631E+02  0.18153613403E+02  0.15831899148E+02  0.30208012225E+02  0.00000000000E+00 0.  1.
         -5    1    3    3    0  504  0.76204720537E+02 -0.90990414584E+01  0.12395676647E+02  0.77882570496E+02  0.47000000000E+01 0.  1.
<mgrwt>
<rscale>  2 0.17610324E+03</rscale>
<asrwt>0</asrwt>
<pdfrwt beam="1">  1       21 0.34464127E-01 0.17613800E+03</pdfrwt>
<pdfrwt beam="2">  1       21 0.21316475E-01 0.17613800E+03</pdfrwt>
<totfact> 0.16705855E+05</totfact>
</mgrwt>
</event>
<event>
12    1  0.2742799E-001  0.2150832E+03  0.7546771E-02  0.1137763E+00
         21   -1    0    0  502  503  0.00000000000E+00  0.00000000000E+00  0.24926548580E+03  0.24926548580E+03  0.00000000000E+00 0. -1.
         21   -1    0    0  503  504 -0.00000000000E+00 -0.00000000000E+00 -0.19176267482E+03  0.19176267482E+03  0.00000000000E+00 0. -1.
         -6    2    1    2    0  504 -0.12725904061E+03 -0.53820002780E+01  0.70614998422E+02  0.22637855606E+03  0.17331169406E+03 0.  0.
        -24    2    3    3    0    0 -0.10073559654E+03  0.29070182946E+02 -0.12298964664E+02  0.13263816302E+03  0.80304930166E+02 0.  0.
          6    2    1    2  502    0  0.12725904061E+03  0.53820002780E+01 -0.13112187435E+02  0.21464960455E+03  0.17227505313E+03 0.  0.
         24    2    5    5    0    0  0.16753945912E+02  0.48027635961E+02 -0.20258540758E+02  0.95892766590E+02  0.78725254468E+02 0.  0.
          2    1    6    6  501    0 -0.13913330025E+02  0.45694635582E+02  0.14076625571E+02  0.49796906137E+02  0.00000000000E+00 0. -1.
         -1    1    6    6    0  501  0.30667275937E+02  0.23330003797E+01 -0.34335166328E+02  0.46095860454E+02  0.00000000000E+00 0.  1.
          5    1    5    5  502    0  0.11050509470E+03 -0.42645635683E+02  0.71463533228E+01  0.11875683796E+03  0.47000000000E+01 0. -1.
         11    1    4    4    0    0 -0.11316065334E+03  0.16819700767E+02 -0.80929952000E+01  0.11468972216E+03  0.00000000000E+00 0. -1.
        -12    1    4    4    0    0  0.12425056796E+02  0.12250482179E+02 -0.42059694640E+01  0.17948440855E+02  0.00000000000E+00 0.  1.
         -5    1    3    3    0  504 -0.26523444066E+02 -0.34452183224E+02  0.82913963086E+02  0.93740393047E+02  0.47000000000E+01 0.  1.
<mgrwt>
<rscale>  2 0.21487426E+03</rscale>
<asrwt>0</asrwt>
<pdfrwt beam="1">  1       21 0.38348536E-01 0.21508318E+03</pdfrwt>
<pdfrwt beam="2">  1       21 0.29501950E-01 0.21508318E+03</pdfrwt>
<totfact> 0.71490291E+04</totfact>
</mgrwt>
</event>
<event>
12    1  0.2742799E-001  0.1794727E+03  0.7546771E-02  0.1170590E+00
         21   -1    0    0  502  503  0.00000000000E+00  0.00000000000E+00  0.88052392104E+03  0.88052392104E+03  0.00000000000E+00 0. -1.
         21   -1    0    0  503  504 -0.00000000000E+00 -0.00000000000E+00 -0.67579725012E+02  0.67579725012E+02  0.00000000000E+00 0.  1.
         -6    2    1    2    0  504 -0.41605459311E+02 -0.12605333624E+02  0.70664601901E+02  0.18443524135E+03  0.16472086574E+03 0.  0.
        -24    2    3    3    0    0  0.59769824604E+01 -0.44509088423E+02  0.88057314028E+02  0.12438080962E+03  0.75496436853E+02 0.  0.
          6    2    1    2  502    0  0.41605459311E+02  0.12605333624E+02  0.74227959413E+03  0.76366840470E+03  0.17412790643E+03 0.  0.
         24    2    5    5    0    0  0.67027884722E+02 -0.47023529599E+00  0.26904730714E+03  0.28955010969E+03  0.83425739973E+02 0.  0.
          2    1    6    6  501    0  0.15990801332E+02  0.69754400817E+01  0.21171236260E+03  0.21242995779E+03  0.00000000000E+00 0. -1.
         -1    1    6    6    0  501  0.51037083390E+02 -0.74456753777E+01  0.57334944547E+02  0.77120151900E+02  0.00000000000E+00 0.  1.
          5    1    5    5  502    0 -0.25422425411E+02  0.13075568920E+02  0.47323228699E+03  0.47411829501E+03  0.47000000000E+01 0. -1.
         13    1    4    4    0    0 -0.30785185350E+02 -0.24719475182E+02  0.66640174380E+02  0.77457684781E+02  0.00000000000E+00 0. -1.
        -14    1    4    4    0    0  0.36762167810E+02 -0.19789613241E+02  0.21417139648E+02  0.46923124843E+02  0.00000000000E+00 0.  1.
         -5    1    3    3    0  504 -0.47582441771E+02  0.31903754798E+02 -0.17392712127E+02  0.60054431728E+02  0.47000000000E+01 0.  1.
<mgrwt>
<rscale>  2 0.17715005E+03</rscale>
<asrwt>0</asrwt>
<pdfrwt beam="1">  1       21 0.13546521E+00 0.17947266E+03</pdfrwt>
<pdfrwt beam="2">  1       21 0.10396881E-01 0.17947266E+03</pdfrwt>
<totfact> 0.29733229E+04</totfact>
</mgrwt>
</event>
<event>
12    1  0.2742799E-001  0.2100840E+03  0.7546771E-02  0.1141634E+00
         21   -1    0    0  502  503  0.00000000000E+00  0.00000000000E+00  0.70268558479E+02  0.70268558479E+02  0.00000000000E+00 0.  1.
         21   -1    0    0  503  504 -0.00000000000E+00 -0.00000000000E+00 -0.69605879479E+03  0.69605879479E+03  0.00000000000E+00 0.  1.
         -6    2    1    2    0  504  0.21911600948E+02  0.11673505601E+03 -0.43393884894E+03  0.48182388790E+03  0.17246490302E+03 0.  0.
        -24    2    3    3    0    0  0.80913771201E+02  0.83137874807E+02 -0.29822583417E+03  0.33000116543E+03  0.80642274420E+02 0.  0.
          6    2    1    2  502    0 -0.21911600948E+02 -0.11673505601E+03 -0.19185138737E+03  0.28450346537E+03  0.17328610854E+03 0.  0.
         24    2    5    5    0    0 -0.11163858919E+02 -0.21779231919E+02 -0.24171027692E+02  0.91446697789E+02  0.84730710300E+02 0.  0.
          2    1    6    6  501    0 -0.37748757540E+02 -0.23452713024E+02 -0.40563212051E+02  0.60169532289E+02  0.00000000000E+00 0. -1.
         -1    1    6    6    0  501  0.26584898621E+02  0.16734811041E+01  0.16392184359E+02  0.31277165500E+02  0.00000000000E+00 0.  1.
          5    1    5    5  502    0 -0.10747742028E+02 -0.94955824086E+02 -0.16768035968E+03  0.19305676758E+03  0.47000000000E+01 0. -1.
         13    1    4    4    0    0  0.34518523393E+02 -0.10935304665E+02 -0.84125459849E+02  0.91587129774E+02  0.00000000000E+00 0. -1.
        -14    1    4    4    0    0  0.46395247808E+02  0.94073179473E+02 -0.21410037432E+03  0.23841403566E+03  0.00000000000E+00 0.  1.
         -5    1    3    3    0  504 -0.59002170253E+02  0.33597181199E+02 -0.13571301477E+03  0.15182272246E+03  0.47000000000E+01 0.  1.
<mgrwt>
<rscale>  2 0.20991453E+03</rscale>
<asrwt>0</asrwt>
<pdfrwt beam="1">  1       21 0.10810548E-01 0.21008395E+03</pdfrwt>
<pdfrwt beam="2">  1       21 0.10708597E+00 0.21008395E+03</pdfrwt>
<totfact> 0.48812957E+04</totfact>
</mgrwt>
</event>
<event>
12    1  0.2742799E-001  0.1990214E+03  0.7546771E-02  0.1152577E+00
         21   -1    0    0  502  503  0.00000000000E+00  0.00000000000E+00  0.76187054250E+03  0.76187054250E+03  0.00000000000E+00 0. -1.
         21   -1    0    0  503  504 -0.00000000000E+00 -0.00000000000E+00 -0.66452947907E+02  0.66452947907E+02  0.00000000000E+00 0. -1.
         -6    2    1    2    0  504  0.74689248167E+02 -0.20343318379E+02  0.13306744876E+03  0.23179419598E+03  0.17328955242E+03 0.  0.
        -24    2    3    3    0    0  0.69717809303E+02  0.12125402972E+02  0.15668967319E+02  0.10979654636E+03  0.82475249159E+02 0.  0.
          6    2    1    2  502    0 -0.74689248167E+02  0.20343318379E+02  0.56235014583E+03  0.59652929442E+03  0.18334987916E+03 0.  0.
         24    2    5    5    0    0 -0.11236934524E+02  0.74183702162E+02  0.39409672247E+03  0.40876271724E+03  0.78391593807E+02 0.  0.
          2    1    6    6  501    0  0.11349057707E+02 -0.21093188465E+01  0.17982585891E+03  0.18019597628E+03  0.00000000000E+00 0. -1.
         -1    1    6    6    0  501 -0.22585992231E+02  0.76293021009E+02  0.21427086357E+03  0.22856674096E+03  0.00000000000E+00 0.  1.
          5    1    5    5  502    0 -0.63452313642E+02 -0.53840383783E+02  0.16825342336E+03  0.18776657718E+03  0.47000000000E+01 0. -1.
         11    1    4    4    0    0  0.64499226843E+02  0.42852018529E+02  0.12943007813E+02  0.78510936859E+02  0.00000000000E+00 0. -1.
        -12    1    4    4    0    0  0.52185824607E+01 -0.30726615556E+02  0.27259595062E+01  0.31285609498E+02  0.00000000000E+00 0.  1.
         -5    1    3    3    0  504  0.49714388633E+01 -0.32468721351E+02  0.11739848144E+03  0.12199764963E+03  0.47000000000E+01 0.  1.
<mgrwt>
<rscale>  2 0.19667320E+03</rscale>
<asrwt>0</asrwt>
<pdfrwt beam="1">  1       21 0.11721085E+00 0.19902139E+03</pdfrwt>
<pdfrwt beam="2">  1       21 0.10223531E-01 0.19902139E+03</pdfrwt>
<totfact> 0.43518365E+04</totfact>
</mgrwt>
</event>
<event>
12    1  0.2742799E-001  0.2038269E+03  0.7546771E-02  0.1148610E+00
         21   -1    0    0  502  503  0.00000000000E+00  0.00000000000E+00  0.10835271557E+03  0.10835271557E+03  0.00000000000E+00 0. -1.
         21   -1    0    0  503  504 -0.00000000000E+00 -0.00000000000E+00 -0.49589125088E+03  0.49589125088E+03  0.00000000000E+00 0.  1.
         -6    2    1    2    0  504 -0.20323865979E+02 -0.83732027699E+02 -0.35227293225E+03  0.40699094943E+03  0.18471952286E+03 0.  0.
        -24    2    3    3    0    0  0.47255473177E+02 -0.76611084162E+02 -0.29275222708E+03  0.31653389187E+03  0.79921838578E+02 0.  0.
          6    2    1    2  502    0  0.20323865979E+02  0.83732027699E+02 -0.35265603049E+02  0.19725301702E+03  0.17389933288E+03 0.  0.
         24    2    5    5    0    0  0.10126597670E+02  0.12422423381E+03 -0.38492525724E+02  0.15510914360E+03  0.83922366782E+02 0.  0.
          2    1    6    6  501    0 -0.19899047612E+02  0.43214362545E+02  0.19111622306E+02  0.51270920932E+02  0.00000000000E+00 0. -1.
         -1    1    6    6    0  501  0.30025645282E+02  0.81009871265E+02 -0.57604148031E+02  0.10383822267E+03  0.00000000000E+00 0.  1.
          5    1    5    5  502    0  0.10197268309E+02 -0.40492206112E+02  0.32269226751E+01  0.42143873419E+02  0.47000000000E+01 0. -1.
         11    1    4    4    0    0  0.29048507319E+02 -0.29384616211E+02 -0.23960424264E+03  0.24314083272E+03  0.00000000000E+00 0. -1.
        -12    1    4    4    0    0  0.18206965858E+02 -0.47226467951E+02 -0.53147984440E+02  0.73393059147E+02  0.00000000000E+00 0.  1.
         -5    1    3    3    0  504 -0.67579339156E+02 -0.71209435364E+01 -0.59520705178E+02  0.90457057560E+02  0.47000000000E+01 0.  1.
<mgrwt>
<rscale>  2 0.20134393E+03</rscale>
<asrwt>0</asrwt>
<pdfrwt beam="1">  1       21 0.16669649E-01 0.20382692E+03</pdfrwt>
<pdfrwt beam="2">  1       21 0.76290961E-01 0.20382692E+03</pdfrwt>
<totfact> 0.49221734E+04</totfact>
</mgrwt>
</event>
<event>
12    1  0.2742799E-001  0.1890226E+03  0.7546771E-02  0.1160365E+00
         21   -1    0    0  502  503  0.00000000000E+00  0.00000000000E+00  0.85784384368E+02  0.85784384368E+02  0.00000000000E+00 0.  1.
         21   -1    0    0  503  504 -0.00000000000E+00 -0.00000000000E+00 -0.88421538955E+03  0.88421538955E+03  0.00000000000E+00 0.  1.
         -6    2    1    2    0  504  0.79609930974E+01  0.74926928617E+02 -0.75776582155E+03  0.78098563794E+03  0.17335542770E+03 0.  0.
        -24    2    3    3    0    0  0.23933511574E+02 -0.26585811491E+02 -0.41516195522E+03  0.42327142662E+03  0.74294233868E+02 0.  0.
          6    2    1    2  502    0 -0.79609930974E+01 -0.74926928617E+02 -0.40665183626E+02  0.18901413598E+03  0.16850894456E+03 0.  0.
         24    2    5    5    0    0  0.33139805433E+02 -0.10092240737E+03 -0.46346802565E+02  0.13982662385E+03  0.78229659438E+02 0.  0.
          2    1    6    6  501    0  0.51110876867E+01 -0.38293019135E+02 -0.58537941271E+02  0.70136788493E+02  0.00000000000E+00 0. -1.
         -1    1    6    6    0  501  0.28028717746E+02 -0.62629388234E+02  0.12191138706E+02  0.69689835356E+02  0.00000000000E+00 0.  1.
          5    1    5    5  502    0 -0.41100798530E+02  0.25995478752E+02  0.56816189393E+01  0.49187512126E+02  0.47000000000E+01 0. -1.
         13    1    4    4    0    0  0.29141611778E+02 -0.18232682819E+02 -0.70156138239E+02  0.78125207151E+02  0.00000000000E+00 0. -1.
        -14    1    4    4    0    0 -0.52081002034E+01 -0.83531286722E+01 -0.34500581698E+03  0.34514621947E+03  0.00000000000E+00 0.  1.
         -5    1    3    3    0  504 -0.15972518477E+02  0.10151274011E+03 -0.34260386634E+03  0.35771421132E+03  0.47000000000E+01 0.  1.
<mgrwt>
<rscale>  2 0.18790400E+03</rscale>
<asrwt>0</asrwt>
<pdfrwt beam="1">  1       21 0.13197598E-01 0.18902256E+03</pdfrwt>
<pdfrwt beam="2">  1       21 0.13603313E+00 0.18902256E+03</pdfrwt>
<totfact> 0.19104848E+04</totfact>
</mgrwt>
</event>
<event>
12    1  0.2742799E-001  0.2866596E+03  0.7546771E-02  0.1092122E+00
         21   -1    0    0  502  503  0.00000000000E+00  0.00000000000E+00  0.31864255375E+03  0.31864255375E+03  0.00000000000E+00 0. -1.
         21   -1    0    0  503  504 -0.00000000000E+00 -0.00000000000E+00 -0.57004018891E+03  0.57004018891E+03  0.00000000000E+00 0.  1.
         -6    2    1    2    0  504 -0.22138781612E+03  0.55430464849E+02 -0.45457810071E+03  0.53741511021E+03  0.17346080097E+03 0.  0.
        -24    2    3    3    0    0 -0.84001351198E+02 -0.28680383916E+02 -0.14425826978E+03  0.18774360280E+03  0.80984076013E+02 0.  0.
          6    2    1    2  502    0  0.22138781612E+03 -0.55430464849E+02  0.20318046556E+03  0.35126763245E+03  0.17326726888E+03 0.  0.
         24    2    5    5    0    0  0.79224972264E+02  0.30027837741E+02  0.66012215482E+02  0.13597570394E+03  0.83387722108E+02 0.  0.
          2    1    6    6  501    0  0.68880343281E+02  0.93083749480E+01  0.82254639441E+02  0.10768924387E+03  0.00000000000E+00 0. -1.
         -1    1    6    6    0  501  0.10344628984E+02  0.20719462793E+02 -0.16242423960E+02  0.28286460071E+02  0.00000000000E+00 0.  1.
          5    1    5    5  502    0  0.14216284385E+03 -0.85458302590E+02  0.13716825008E+03  0.21529192851E+03  0.47000000000E+01 0. -1.
         13    1    4    4    0    0 -0.81434174666E+02 -0.40052505902E+01 -0.63742038594E+02  0.10349209786E+03  0.00000000000E+00 0. -1.
        -14    1    4    4    0    0 -0.25671765324E+01 -0.24675133326E+02 -0.80516231181E+02  0.84251504934E+02  0.00000000000E+00 0.  1.
         -5    1    3    3    0  504 -0.13738646492E+03  0.84110848765E+02 -0.31031983094E+03  0.34967150741E+03  0.47000000000E+01 0.  1.
<mgrwt>
<rscale>  2 0.28663037E+03</rscale>
<asrwt>0</asrwt>
<pdfrwt beam="1">  1       21 0.49021932E-01 0.28665964E+03</pdfrwt>
<pdfrwt beam="2">  1       21 0.87698490E-01 0.28665964E+03</pdfrwt>
<totfact> 0.41563953E+03</totfact>
</mgrwt>
</event>
<event>
12    1  0.2742799E-001  0.2136224E+03  0.7546771E-02  0.1138860E+00
         21   -1    0    0  502  503  0.00000000000E+00  0.00000000000E+00  0.14267176701E+03  0.14267176701E+03  0.00000000000E+00 0. -1.
         21   -1    0    0  503  504 -0.00000000000E+00 -0.00000000000E+00 -0.32495572262E+03  0.32495572262E+03  0.00000000000E+00 0. -1.
         -6    2    1    2    0  504 -0.91946235906E+02  0.89568237164E+02 -0.12334603535E+03  0.24667547778E+03  0.17075704231E+03 0.  0.
        -24    2    3    3    0    0 -0.65307931707E+02  0.12840802193E+03 -0.85163904334E+02  0.18586352781E+03  0.80861698781E+02 0.  0.
          6    2    1    2  502    0  0.91946235906E+02 -0.89568237164E+02 -0.58937920258E+02  0.22095201185E+03  0.16991036958E+03 0.  0.
         24    2    5    5    0    0 -0.39202986245E+01 -0.75660251563E+02 -0.55914184748E+02  0.12392079274E+03  0.80561308383E+02 0.  0.
          4    1    6    6  501    0 -0.14093371541E+02  0.87861654433E+01  0.71030727647E+01  0.18063041474E+02  0.00000000000E+00 0. -1.
         -3    1    6    6    0  501  0.10173072916E+02 -0.84446417006E+02 -0.63017257513E+02  0.10585775126E+03  0.00000000000E+00 0.  1.
          5    1    5    5  502    0  0.95866534530E+02 -0.13907985602E+02 -0.30237355096E+01  0.97031219114E+02  0.47000000000E+01 0. -1.
         13    1    4    4    0    0 -0.75546724389E+02  0.61358090918E+02 -0.52476422060E+02  0.11057078167E+03  0.00000000000E+00 0. -1.
        -14    1    4    4    0    0  0.10238792683E+02  0.67049931008E+02 -0.32687482274E+02  0.75292746139E+02  0.00000000000E+00 0.  1.
         -5    1    3    3    0  504 -0.26638304199E+02 -0.38839784762E+02 -0.38182131013E+02  0.60811949974E+02  0.47000000000E+01 0.  1.
<mgrwt>
<rscale>  2 0.21345320E+03</rscale>
<asrwt>0</asrwt>
<pdfrwt beam="1">  1       21 0.21949503E-01 0.21362244E+03</pdfrwt>
<pdfrwt beam="2">  1       21 0.49993188E-01 0.21362244E+03</pdfrwt>
<totfact> 0.73221041E+04</totfact>
</mgrwt>
</event>
<event>
12    1  0.2742799E-001  0.1767099E+03  0.7546771E-02  0.1171687E+00
         21   -1    0    0  502  503  0.00000000000E+00  0.00000000000E+00  0.78094950504E+03  0.78094950504E+03  0.00000000000E+00 0.  1.
         21   -1    0    0  503  504 -0.00000000000E+00 -0.00000000000E+00 -0.42915151298E+02  0.42915151298E+02  0.00000000000E+00 0.  1.
         -6    2    1    2    0  504 -0.26633031139E+02 -0.23364195454E+02  0.25348456707E+03  0.30899971719E+03  0.17312190937E+03 0.  0.
        -24    2    3    3    0    0 -0.36692740340E+02  0.29870294897E+02  0.23798901578E+03  0.25245494889E+03  0.69685994835E+02 0.  0.
          6    2    1    2  502    0  0.26633031139E+02  0.23364195454E+02  0.48454978667E+03  0.51486493915E+03  0.17041773916E+03 0.  0.
         24    2    5    5    0    0  0.54926384048E+02  0.52349966706E+02  0.20958610146E+03  0.23689406488E+03  0.80218684684E+02 0.  0.
          2    1    6    6  501    0 -0.90735143614E+01 -0.14277996421E+02  0.21632262137E+02  0.27461693499E+02  0.00000000000E+00 0. -1.
         -1    1    6    6    0  501  0.63999898409E+02  0.66627963127E+02  0.18795383932E+03  0.20943237138E+03  0.00000000000E+00 0.  1.
          5    1    5    5  502    0 -0.28293352909E+02 -0.28985771251E+02  0.27496368521E+03  0.27797087427E+03  0.47000000000E+01 0. -1.
         13    1    4    4    0    0 -0.18353522597E+01 -0.17120296258E+02  0.11472836403E+03  0.11601323448E+03  0.00000000000E+00 0. -1.
        -14    1    4    4    0    0 -0.34857388080E+02  0.46990591155E+02  0.12326065175E+03  0.13644171441E+03  0.00000000000E+00 0.  1.
         -5    1    3    3    0  504  0.10059709201E+02 -0.53234490352E+02  0.15495551286E+02  0.56544768298E+02  0.47000000000E+01 0.  1.
<mgrwt>
<rscale>  2 0.17604407E+03</rscale>
<asrwt>0</asrwt>
<pdfrwt beam="1">  1       21 0.12014607E+00 0.17670993E+03</pdfrwt>
<pdfrwt beam="2">  1       21 0.66023316E-02 0.17670993E+03</pdfrwt>
<totfact> 0.88729025E+04</totfact>
</mgrwt>
</event>
<event>
12    1  0.2742799E-001  0.1797487E+03  0.7546771E-02  0.1168837E+00
         21   -1    0    0  502  503  0.00000000000E+00  0.00000000000E+00  0.13680807913E+03  0.13680807913E+03  0.00000000000E+00 0. -1.
         21   -1    0    0  503  504 -0.00000000000E+00 -0.00000000000E+00 -0.25405149421E+04  0.25405149421E+04  0.00000000000E+00 0. -1.
         -6    2    1    2    0  504 -0.36740110407E+02  0.31567509578E+02 -0.24789345245E+04  0.24854428096E+04  0.17309893025E+03 0.  0.
        -24    2    3    3    0    0 -0.71889539436E+02  0.33208340506E+02 -0.23153800484E+04  0.23180799363E+04  0.78986853744E+02 0.  0.
          6    2    1    2  502    0  0.36740110407E+02 -0.31567509578E+02  0.75227661576E+02  0.19188021158E+03  0.16974236701E+03 0.  0.
         24    2    5    5    0    0  0.27585262439E+02  0.34967036877E+02  0.83532713734E+02  0.12404422552E+03  0.80159935444E+02 0.  0.
          4    1    6    6  501    0 -0.42937115411E+01 -0.26013564205E+01  0.73613468228E+02  0.73784454450E+02  0.00000000000E+00 0. -1.
         -3    1    6    6    0  501  0.31878973980E+02  0.37568393297E+02  0.99192455058E+01  0.50259771073E+02  0.00000000000E+00 0.  1.
          5    1    5    5  502    0  0.91548479679E+01 -0.66534546455E+02 -0.83050521579E+01  0.67835986059E+02  0.47000000000E+01 0. -1.
         11    1    4    4    0    0  0.79718192033E+01 -0.77490182422E+01 -0.77978766807E+03  0.77986691458E+03  0.00000000000E+00 0. -1.
        -12    1    4    4    0    0 -0.79861358639E+02  0.40957358748E+02 -0.15355923803E+04  0.15382130217E+04  0.00000000000E+00 0.  1.
         -5    1    3    3    0  504  0.35149429029E+02 -0.16408309279E+01 -0.16355447619E+03  0.16736287333E+03  0.47000000000E+01 0.  1.
<mgrwt>
<rscale>  2 0.17893565E+03</rscale>
<asrwt>0</asrwt>
<pdfrwt beam="1">  1       21 0.21047398E-01 0.17974867E+03</pdfrwt>
<pdfrwt beam="2">  1       21 0.39084843E+00 0.17974867E+03</pdfrwt>
<totfact> 0.21314364E+02</totfact>
</mgrwt>
</event>
<event>
12    1  0.2742799E-001  0.1971866E+03  0.7546771E-02  0.1152183E+00
         21   -1    0    0  502  503  0.00000000000E+00  0.00000000000E+00  0.64838392124E+03  0.64838392124E+03  0.00000000000E+00 0.  1.
         21   -1    0    0  503  504 -0.00000000000E+00 -0.00000000000E+00 -0.64234463918E+02  0.64234463918E+02  0.00000000000E+00 0.  1.
         -6    2    1    2    0  504  0.56099074989E+02  0.74747641911E+02  0.38478547211E+03  0.43236838855E+03  0.17363250758E+03 0.  0.
        -24    2    3    3    0    0 -0.34655685165E+02  0.12123174728E+02  0.13853865559E+03  0.16252058881E+03  0.76628942410E+02 0.  0.
          6    2    1    2  502    0 -0.56099074989E+02 -0.74747641911E+02  0.19936398522E+03  0.28024999661E+03  0.17337746627E+03 0.  0.
         24    2    5    5    0    0 -0.10266878745E+03 -0.41892125916E+02  0.16192258902E+03  0.21189671432E+03  0.79909089430E+02 0.  0.
          2    1    6    6  501    0 -0.43408701266E+02  0.88394989504E+00  0.12006264296E+03  0.12767198184E+03  0.00000000000E+00 0. -1.
         -1    1    6    6    0  501 -0.59260086189E+02 -0.42776075811E+02  0.41859946062E+02  0.84224732479E+02  0.00000000000E+00 0.  1.
          5    1    5    5  502    0  0.46569712465E+02 -0.32855515996E+02  0.37441396197E+02  0.68353282289E+02  0.47000000000E+01 0. -1.
         11    1    4    4    0    0 -0.26781078471E+02 -0.21276805859E+02  0.11725127544E+03  0.12213840602E+03  0.00000000000E+00 0. -1.
        -12    1    4    4    0    0 -0.78746066946E+01  0.33399980586E+02  0.21287380154E+02  0.40382182799E+02  0.00000000000E+00 0.  1.
         -5    1    3    3    0  504  0.90754760154E+02  0.62624467184E+02  0.24624681651E+03  0.26984779974E+03  0.47000000000E+01 0.  1.
<mgrwt>
<rscale>  2 0.19713046E+03</rscale>
<asrwt>0</asrwt>
<pdfrwt beam="1">  1       21 0.99751368E-01 0.19718662E+03</pdfrwt>
<pdfrwt beam="2">  1       21 0.98822257E-02 0.19718662E+03</pdfrwt>
<totfact> 0.68281399E+04</totfact>
</mgrwt>
</event>
<event>
12    1  0.2742799E-001  0.1751783E+03  0.7546771E-02  0.1173716E+00
         21   -1    0    0  502  503  0.00000000000E+00  0.00000000000E+00  0.72078731198E+03  0.72078731198E+03  0.00000000000E+00 0.  1.
         21   -1    0    0  503  504 -0.00000000000E+00 -0.00000000000E+00 -0.56862910033E+02  0.56862910033E+02  0.00000000000E+00 0.  1.
         -6    2    1    2    0  504  0.25061856987E+02 -0.10992046783E+01  0.12647395177E+03  0.21237114453E+03  0.16874992630E+03 0.  0.
        -24    2    3    3    0    0 -0.44831443232E+02 -0.32461857924E+02  0.68365952035E+02  0.11610422879E+03  0.75780327408E+02 0.  0.
          6    2    1    2  502    0 -0.25061856987E+02  0.10992046783E+01  0.53745045018E+03  0.56527907748E+03  0.17337284711E+03 0.  0.
         24    2    5    5    0    0  0.19734882720E+02 -0.54630674387E+02  0.36932666139E+03  0.38252168183E+03  0.80911544759E+02 0.  0.
          2    1    6    6  501    0  0.29120641005E+02  0.10188751265E+02  0.77062129151E+02  0.83008397974E+02  0.00000000000E+00 0. -1.
         -1    1    6    6    0  501 -0.93857582851E+01 -0.64819425652E+02  0.29226453224E+03  0.29951328386E+03  0.00000000000E+00 0.  1.
          5    1    5    5  502    0 -0.44796739707E+02  0.55729879065E+02  0.16812378878E+03  0.18275739565E+03  0.47000000000E+01 0. -1.
         13    1    4    4    0    0 -0.28719038961E+02  0.18113445604E+02  0.64693369432E+01  0.34564901721E+02  0.00000000000E+00 0. -1.
        -14    1    4    4    0    0 -0.16112404272E+02 -0.50575303528E+02  0.61896615092E+02  0.81539327065E+02  0.00000000000E+00 0.  1.
         -5    1    3    3    0  504  0.69893300219E+02  0.31362653246E+02  0.58107999732E+02  0.96266915745E+02  0.47000000000E+01 0.  1.
<mgrwt>
<rscale>  2 0.17402347E+03</rscale>
<asrwt>0</asrwt>
<pdfrwt beam="1">  1       21 0.11089035E+00 0.17517833E+03</pdfrwt>
<pdfrwt beam="2">  1       21 0.87481405E-02 0.17517833E+03</pdfrwt>
<totfact> 0.66306404E+04</totfact>
</mgrwt>
</event>
<event>
12    1  0.2742799E-001  0.1793557E+03  0.7546771E-02  0.1170154E+00
         21   -1    0    0  502  503  0.00000000000E+00  0.00000000000E+00  0.30138689472E+03  0.30138689472E+03  0.00000000000E+00 0. -1.
         21   -1    0    0  503  504 -0.00000000000E+00 -0.00000000000E+00 -0.10482557009E+03  0.10482557009E+03  0.00000000000E+00 0. -1.
         -6    2    1    2    0  504  0.36879885135E+02 -0.29091336959E+02  0.70850044452E+02  0.19284244228E+03  0.17309548501E+03 0.  0.
        -24    2    3    3    0    0 -0.16470080265E+02 -0.70466919717E+02  0.59794367179E+02  0.12426784307E+03  0.81426532268E+02 0.  0.
          6    2    1    2  502    0 -0.36879885135E+02  0.29091336959E+02  0.12571128017E+03  0.21337002253E+03  0.16588251487E+03 0.  0.
         24    2    5    5    0    0 -0.36476710890E+01 -0.20196904069E+02  0.58965815418E+02  0.12386718560E+03  0.10698080127E+03 0.  0.
          4    1    6    6  501    0 -0.30540270222E+02 -0.25802778967E+02 -0.16730374137E+02  0.43340476767E+02  0.00000000000E+00 0. -1.
         -3    1    6    6    0  501  0.26892599133E+02  0.56058748986E+01  0.75696189555E+02  0.80526708828E+02  0.00000000000E+00 0.  1.
          5    1    5    5  502    0 -0.33232214046E+02  0.49288241028E+02  0.66745464756E+02  0.89502836936E+02  0.47000000000E+01 0. -1.
         11    1    4    4    0    0  0.25880384992E+02 -0.48799491419E+01  0.68778672317E+00  0.26345422402E+02  0.00000000000E+00 0. -1.
        -12    1    4    4    0    0 -0.42350465257E+02 -0.65586970575E+02  0.59106580455E+02  0.97922420670E+02  0.00000000000E+00 0.  1.
         -5    1    3    3    0  504  0.53349965400E+02  0.41375582758E+02  0.11055677274E+02  0.68574599209E+02  0.47000000000E+01 0.  1.
<mgrwt>
<rscale>  2 0.17759218E+03</rscale>
<asrwt>0</asrwt>
<pdfrwt beam="1">  1       21 0.46367214E-01 0.17935573E+03</pdfrwt>
<pdfrwt beam="2">  1       21 0.16127011E-01 0.17935573E+03</pdfrwt>
<totfact> 0.15378040E+05</totfact>
</mgrwt>
</event>
<event>
12    1  0.2742799E-001  0.1739883E+03  0.7546771E-02  0.1173812E+00
         21   -1    0    0  502  503  0.00000000000E+00  0.00000000000E+00  0.15231903634E+03  0.15231903634E+03  0.00000000000E+00 0.  1.
         21   -1    0    0  503  504 -0.00000000000E+00 -0.00000000000E+00 -0.31117547783E+03  0.31117547783E+03  0.00000000000E+00 0.  1.
         -6    2    1    2    0  504 -0.78005574780E+01 -0.21193361390E+02 -0.21886744585E+03  0.27944768973E+03  0.17227317022E+03 0.  0.
        -24    2    3    3    0    0 -0.13774574220E+02  0.49414244876E+02 -0.90904337322E+02  0.13309957705E+03  0.82585666895E+02 0.  0.
          6    2    1    2  502    0  0.78005574780E+01  0.21193361390E+02  0.60011004367E+02  0.18404682444E+03  0.17251639249E+03 0.  0.
         24    2    5    5    0    0  0.30496667204E+02 -0.73412730326E+01  0.98166004855E+02  0.13106349856E+03  0.80976139364E+02 0.  0.
          2    1    6    6  501    0  0.32774268634E+02 -0.35569073468E+02  0.29170396085E+02  0.56482065115E+02  0.00000000000E+00 0. -1.
         -1    1    6    6    0  501 -0.22776014305E+01  0.28227800436E+02  0.68995608770E+02  0.74581433449E+02  0.00000000000E+00 0.  1.
          5    1    5    5  502    0 -0.22696109726E+02  0.28534634422E+02 -0.38155000489E+02  0.52983325873E+02  0.47000000000E+01 0. -1.
         13    1    4    4    0    0  0.35564894262E+01  0.50762597091E+02 -0.11972882088E+02  0.52276570144E+02  0.00000000000E+00 0. -1.
        -14    1    4    4    0    0 -0.17331063646E+02 -0.13483522154E+01 -0.78931455234E+02  0.80823006911E+02  0.00000000000E+00 0.  1.
         -5    1    3    3    0  504  0.59740167421E+01 -0.70607606266E+02 -0.12796310853E+03  0.14634811268E+03  0.47000000000E+01 0.  1.
<mgrwt>
<rscale>  2 0.17392793E+03</rscale>
<asrwt>0</asrwt>
<pdfrwt beam="1">  1       21 0.23433698E-01 0.17398826E+03</pdfrwt>
<pdfrwt beam="2">  1       21 0.47873150E-01 0.17398826E+03</pdfrwt>
<totfact> 0.72021492E+04</totfact>
</mgrwt>
</event>
<event>
12    1  0.2742799E-001  0.2146684E+03  0.7546771E-02  0.1137974E+00
         21   -1    0    0  502  503  0.00000000000E+00  0.00000000000E+00  0.13649635212E+04  0.13649635212E+04  0.00000000000E+00 0. -1.
         21   -1    0    0  503  504 -0.00000000000E+00 -0.00000000000E+00 -0.33804680128E+02  0.33804680128E+02  0.00000000000E+00 0. -1.
         -6    2    1    2    0  504  0.83743066526E+01  0.13374825536E+03  0.62976601898E+03  0.66525989810E+03  0.16735222896E+03 0.  0.
        -24    2    3    3    0    0  0.36862444972E+02  0.15321763977E+03  0.48199388244E+03  0.51343985564E+03  0.80423240861E+02 0.  0.
          6    2    1    2  502    0 -0.83743066526E+01 -0.13374825536E+03  0.70139282205E+03  0.73350830318E+03  0.16770156585E+03 0.  0.
         24    2    5    5    0    0 -0.33878605318E+02 -0.53487115493E+02  0.19812807743E+03  0.22322425189E+03  0.81029008041E+02 0.  0.
          2    1    6    6  501    0 -0.26218782565E+02 -0.12726323133E+02  0.17145268358E+03  0.17391206561E+03  0.00000000000E+00 0. -1.
         -1    1    6    6    0  501 -0.76598227535E+01 -0.40760792360E+02  0.26675393854E+02  0.49312186279E+02  0.00000000000E+00 0.  1.
          5    1    5    5  502    0  0.25504298665E+02 -0.80261139872E+02  0.50326474462E+03  0.51028405129E+03  0.47000000000E+01 0. -1.
         11    1    4    4    0    0  0.29057889783E+02  0.40870418364E+02  0.68562865094E+02  0.84944796931E+02  0.00000000000E+00 0. -1.
        -12    1    4    4    0    0  0.78045551899E+01  0.11234722141E+03  0.41343101734E+03  0.42849505871E+03  0.00000000000E+00 0.  1.
         -5    1    3    3    0  504 -0.28488138320E+02 -0.19469384408E+02  0.14777213654E+03  0.15182004246E+03  0.47000000000E+01 0.  1.
<mgrwt>
<rscale>  2 0.21460021E+03</rscale>
<asrwt>0</asrwt>
<pdfrwt beam="1">  1       21 0.20999434E+00 0.21466844E+03</pdfrwt>
<pdfrwt beam="2">  1       21 0.52007211E-02 0.21466844E+03</pdfrwt>
<totfact> 0.28739998E+04</totfact>
</mgrwt>
</event>
<event>
12    1  0.2742799E-001  0.2072659E+03  0.7546771E-02  0.1145255E+00
         21   -1    0    0  502  503  0.00000000000E+00  0.00000000000E+00  0.13136957384E+03  0.13136957384E+03  0.00000000000E+00 0. -1.
         21   -1    0    0  503  504 -0.00000000000E+00 -0.00000000000E+00 -0.32293914015E+03  0.32293914015E+03  0.00000000000E+00 0.  1.
         -6    2    1    2    0  504  0.65900598792E+02 -0.87410147301E+02 -0.13184067211E+03  0.24564432825E+03  0.17599929093E+03 0.  0.
        -24    2    3    3    0    0 -0.24975674584E+02 -0.79159778381E+02 -0.76886919281E+02  0.13902082896E+03  0.80778324412E+02 0.  0.
          6    2    1    2  502    0 -0.65900598792E+02  0.87410147301E+02 -0.59728894210E+02  0.20866438574E+03  0.16730171040E+03 0.  0.
         24    2    5    5    0    0 -0.73681982888E+02  0.12070690320E+03 -0.57331222015E+02  0.17406579150E+03  0.83742699196E+02 0.  0.
          2    1    6    6  501    0 -0.22536293567E+02  0.23439594041E+02  0.21358348624E+02  0.38903446537E+02  0.00000000000E+00 0. -1.
         -1    1    6    6    0  501 -0.51145689321E+02  0.97267309160E+02 -0.78689570639E+02  0.13516234496E+03  0.00000000000E+00 0.  1.
          5    1    5    5  502    0  0.77813840961E+01 -0.33296755900E+02 -0.23976721960E+01  0.34598594247E+02  0.47000000000E+01 0. -1.
         11    1    4    4    0    0 -0.12668818993E+02 -0.57166101143E+02 -0.46979901347E+00  0.58554955433E+02  0.00000000000E+00 0. -1.
        -12    1    4    4    0    0 -0.12306855592E+02 -0.21993677237E+02 -0.76417120267E+02  0.80465873530E+02  0.00000000000E+00 0.  1.
         -5    1    3    3    0  504  0.90876273376E+02 -0.82503689208E+01 -0.54953752826E+02  0.10662349929E+03  0.47000000000E+01 0.  1.
<mgrwt>
<rscale>  2 0.20540793E+03</rscale>
<asrwt>0</asrwt>
<pdfrwt beam="1">  1       21 0.20210704E-01 0.20726595E+03</pdfrwt>
<pdfrwt beam="2">  1       21 0.49682944E-01 0.20726595E+03</pdfrwt>
<totfact> 0.86866267E+04</totfact>
</mgrwt>
</event>
<event>
12    1  0.2742799E-001  0.2665451E+03  0.7546771E-02  0.1103297E+00
         21   -1    0    0  502  503  0.00000000000E+00  0.00000000000E+00  0.15668783065E+03  0.15668783065E+03  0.00000000000E+00 0. -1.
         21   -1    0    0  503  504 -0.00000000000E+00 -0.00000000000E+00 -0.45413392789E+03  0.45413392789E+03  0.00000000000E+00 0.  1.
         -6    2    1    2    0  504  0.44449363025E+02  0.19819212892E+03 -0.13458298241E+03  0.29859483415E+03  0.17259904400E+03 0.  0.
        -24    2    3    3    0    0  0.45374767745E+02  0.63474127198E+02 -0.60250768475E+01  0.11231810065E+03  0.80568106663E+02 0.  0.
          6    2    1    2  502    0 -0.44449363025E+02 -0.19819212892E+03 -0.16286311482E+03  0.31222692438E+03  0.17235252334E+03 0.  0.
         24    2    5    5    0    0 -0.68424599073E+02 -0.59394421356E+02 -0.93283095719E+02  0.15505477473E+03  0.84443023241E+02 0.  0.
          2    1    6    6  501    0 -0.54515325402E+02 -0.55375125665E+01 -0.11245838911E+02  0.55937944563E+02  0.00000000000E+00 0. -1.
         -1    1    6    6    0  501 -0.13909273671E+02 -0.53856908789E+02 -0.82037256808E+02  0.99116830170E+02  0.00000000000E+00 0.  1.
          5    1    5    5  502    0  0.23975236048E+02 -0.13879770756E+03 -0.69580019103E+02  0.15717214965E+03  0.47000000000E+01 0. -1.
         13    1    4    4    0    0 -0.17210409964E+02  0.23582841141E+02  0.18013250096E+02  0.34304894497E+02  0.00000000000E+00 0. -1.
        -14    1    4    4    0    0  0.62585177709E+02  0.39891286057E+02 -0.24038326944E+02  0.78013206153E+02  0.00000000000E+00 0.  1.
         -5    1    3    3    0  504 -0.92540472002E+00  0.13471800172E+03 -0.12855790556E+03  0.18627673350E+03  0.47000000000E+01 0.  1.
<mgrwt>
<rscale>  2 0.26650521E+03</rscale>
<asrwt>0</asrwt>
<pdfrwt beam="1">  1       21 0.24105821E-01 0.26654511E+03</pdfrwt>
<pdfrwt beam="2">  1       21 0.69866757E-01 0.26654511E+03</pdfrwt>
<totfact> 0.29132455E+04</totfact>
</mgrwt>
</event>
<event>
12    1  0.2742799E-001  0.1751146E+03  0.7546771E-02  0.1172655E+00
         21   -1    0    0  502  503  0.00000000000E+00  0.00000000000E+00  0.19849931975E+03  0.19849931975E+03  0.00000000000E+00 0.  1.
         21   -1    0    0  503  504 -0.00000000000E+00 -0.00000000000E+00 -0.15987002698E+03  0.15987002698E+03  0.00000000000E+00 0.  1.
         -6    2    1    2    0  504 -0.19776852344E+02  0.17184078949E+02 -0.13975257543E+02  0.17567137914E+03  0.17314360851E+03 0.  0.
        -24    2    3    3    0    0 -0.38729991732E+02 -0.55520675977E+01 -0.69258395881E+02  0.11278680840E+03  0.79958120508E+02 0.  0.
          6    2    1    2  502    0  0.19776852344E+02 -0.17184078949E+02  0.52604550317E+02  0.18269796759E+03  0.17298812731E+03 0.  0.
         24    2    5    5    0    0 -0.42909826022E+02  0.18246926140E+02  0.51433967095E+02  0.11052847243E+03  0.86005155453E+02 0.  0.
          2    1    6    6  501    0 -0.49769399113E+02  0.77605599046E+01 -0.69203072637E+01  0.50843977330E+02  0.00000000000E+00 0. -1.
         -1    1    6    6    0  501  0.68595730912E+01  0.10486366235E+02  0.58354274359E+02  0.59684495103E+02  0.00000000000E+00 0.  1.
          5    1    5    5  502    0  0.62686678366E+02 -0.35431005089E+02  0.11705832222E+01  0.72169495157E+02  0.47000000000E+01 0. -1.
         11    1    4    4    0    0  0.42386044545E+00 -0.37143223671E+02 -0.19193605387E+02  0.41811400480E+02  0.00000000000E+00 0. -1.
        -12    1    4    4    0    0 -0.39153852177E+02  0.31591156073E+02 -0.50064790494E+02  0.70975407921E+02  0.00000000000E+00 0.  1.
         -5    1    3    3    0  504  0.18953139388E+02  0.22736146547E+02  0.55283138337E+02  0.62884570738E+02  0.47000000000E+01 0.  1.
<mgrwt>
<rscale>  2 0.17507616E+03</rscale>
<asrwt>0</asrwt>
<pdfrwt beam="1">  1       21 0.30538357E-01 0.17511461E+03</pdfrwt>
<pdfrwt beam="2">  1       21 0.24595389E-01 0.17511461E+03</pdfrwt>
<totfact> 0.16171702E+05</totfact>
</mgrwt>
</event>
<event>
12    1  0.2742799E-001  0.2273540E+03  0.7546771E-02  0.1130337E+00
         21   -1    0    0  502  503  0.00000000000E+00  0.00000000000E+00  0.27892808564E+03  0.27892808564E+03  0.00000000000E+00 0.  1.
         21   -1    0    0  503  504 -0.00000000000E+00 -0.00000000000E+00 -0.36437505205E+03  0.36437505205E+03  0.00000000000E+00 0.  1.
         -6    2    1    2    0  504 -0.35918526223E+02  0.14188419684E+03 -0.27270815191E+03  0.34875841031E+03  0.16075268832E+03 0.  0.
        -24    2    3    3    0    0  0.25351104975E+01  0.12816546281E+02 -0.12423715610E+03  0.14825188375E+03  0.79831443894E+02 0.  0.
          6    2    1    2  502    0  0.35918526223E+02 -0.14188419684E+03  0.18726118551E+03  0.29454472738E+03  0.17397867396E+03 0.  0.
         24    2    5    5    0    0 -0.31581023561E+02 -0.78080209651E+02  0.15871816657E+03  0.19726198517E+03  0.81406106679E+02 0.  0.
          2    1    6    6  501    0 -0.43965157666E+02 -0.74330818178E+02  0.80761720728E+02  0.11823900014E+03  0.00000000000E+00 0. -1.
         -1    1    6    6    0  501  0.12384134105E+02 -0.37493914733E+01  0.77956445846E+02  0.79022985029E+02  0.00000000000E+00 0.  1.
          5    1    5    5  502    0  0.67499549784E+02 -0.63803987185E+02  0.28543018933E+02  0.97282742208E+02  0.47000000000E+01 0. -1.
         11    1    4    4    0    0  0.15523942450E+02 -0.21986424198E+01  0.57929669269E+01  0.16714822269E+02  0.00000000000E+00 0. -1.
        -12    1    4    4    0    0 -0.12988831952E+02  0.15015188700E+02 -0.13003012303E+03  0.13153706148E+03  0.00000000000E+00 0.  1.
         -5    1    3    3    0  504 -0.38453636721E+02  0.12906765055E+03 -0.14847099581E+03  0.20050652656E+03  0.47000000000E+01 0.  1.
<mgrwt>
<rscale>  2 0.22482353E+03</rscale>
<asrwt>0</asrwt>
<pdfrwt beam="1">  1       21 0.42912013E-01 0.22735401E+03</pdfrwt>
<pdfrwt beam="2">  1       21 0.56057701E-01 0.22735401E+03</pdfrwt>
<totfact> 0.15320755E+04</totfact>
</mgrwt>
</event>
<event>
12    1  0.2742799E-001  0.2352273E+03  0.7546771E-02  0.1126235E+00
         21   -1    0    0  502  503  0.00000000000E+00  0.00000000000E+00  0.43988871542E+03  0.43988871542E+03  0.00000000000E+00 0.  1.
         21   -1    0    0  503  504 -0.00000000000E+00 -0.00000000000E+00 -0.11639377820E+03  0.11639377820E+03  0.00000000000E+00 0. -1.
         -6    2    1    2    0  504 -0.56365874721E+02 -0.12652603376E+03  0.17547330934E+03  0.29346681862E+03  0.19012086230E+03 0.  0.
        -24    2    3    3    0    0  0.31548827203E+01 -0.11531748440E+03  0.18527550368E+03  0.23193207104E+03  0.78469088302E+02 0.  0.
          6    2    1    2  502    0  0.56365874721E+02  0.12652603376E+03  0.14802162787E+03  0.26281567500E+03  0.16725946208E+03 0.  0.
         24    2    5    5    0    0 -0.28679717350E+02  0.76346137101E+02  0.93512739330E+02  0.14992597800E+03  0.84154070749E+02 0.  0.
          2    1    6    6  501    0 -0.53612022815E+02  0.32048823689E+02  0.70315411980E+02  0.94051226744E+02  0.00000000000E+00 0. -1.
         -1    1    6    6    0  501  0.24932305465E+02  0.44297313411E+02  0.23197327350E+02  0.55874751252E+02  0.00000000000E+00 0.  1.
          5    1    5    5  502    0  0.85045592071E+02  0.50179896663E+02  0.54508888543E+02  0.11288969701E+03  0.47000000000E+01 0. -1.
         11    1    4    4    0    0 -0.25775223920E+02 -0.10603239167E+03  0.14630856097E+03  0.18251965720E+03  0.00000000000E+00 0. -1.
        -12    1    4    4    0    0  0.28930106641E+02 -0.92850927327E+01  0.38966942714E+02  0.49412413843E+02  0.00000000000E+00 0.  1.
         -5    1    3    3    0  504 -0.59520757441E+02 -0.11208549363E+02 -0.98021943393E+01  0.61534747575E+02  0.47000000000E+01 0.  1.
<mgrwt>
<rscale>  2 0.23057620E+03</rscale>
<asrwt>0</asrwt>
<pdfrwt beam="1">  1       21 0.67675186E-01 0.23522732E+03</pdfrwt>
<pdfrwt beam="2">  1       21 0.17906735E-01 0.23522732E+03</pdfrwt>
<totfact> 0.55490944E+04</totfact>
</mgrwt>
</event>
<event>
12    1  0.2742799E-001  0.2615712E+03  0.7546771E-02  0.1106609E+00
         21   -1    0    0  502  503  0.00000000000E+00  0.00000000000E+00  0.32042500979E+03  0.32042500979E+03  0.00000000000E+00 0.  1.
         21   -1    0    0  503  504 -0.00000000000E+00 -0.00000000000E+00 -0.23731505579E+03  0.23731505579E+03  0.00000000000E+00 0. -1.
         -6    2    1    2    0  504  0.15995089988E+03  0.10741855194E+03 -0.50548604634E+02  0.26641064344E+03  0.17690798126E+03 0.  0.
        -24    2    3    3    0    0  0.16180721466E+03  0.37957818252E+02 -0.71566747361E+01  0.18435463203E+03  0.79454651689E+02 0.  0.
          6    2    1    2  502    0 -0.15995089988E+03 -0.10741855194E+03  0.13365855863E+03  0.29132942215E+03  0.17287332427E+03 0.  0.
         24    2    5    5    0    0 -0.48767246773E+02 -0.11091082606E+03  0.92746342767E+02  0.17271281242E+03  0.80922035214E+02 0.  0.
          4    1    6    6  501    0 -0.70565907747E+02 -0.96050043549E+02  0.78696865759E+02  0.14282280939E+03  0.00000000000E+00 0. -1.
         -3    1    6    6    0  501  0.21798660974E+02 -0.14860782513E+02  0.14049477009E+02  0.29890003034E+02  0.00000000000E+00 0.  1.
          5    1    5    5  502    0 -0.11118365310E+03  0.34922741259E+01  0.40912215867E+02  0.11861660973E+03  0.47000000000E+01 0. -1.
         13    1    4    4    0    0  0.10854848887E+03  0.62443119551E+02  0.57907852845E+00  0.12522880239E+03  0.00000000000E+00 0. -1.
        -14    1    4    4    0    0  0.53258725784E+02 -0.24485301298E+02 -0.77357532646E+01  0.59125829638E+02  0.00000000000E+00 0.  1.
         -5    1    3    3    0  504 -0.18563147777E+01  0.69460733684E+02 -0.43391929898E+02  0.82056011411E+02  0.47000000000E+01 0.  1.
<mgrwt>
<rscale>  2 0.26089058E+03</rscale>
<asrwt>0</asrwt>
<pdfrwt beam="1">  1       21 0.49296156E-01 0.26157116E+03</pdfrwt>
<pdfrwt beam="2">  1       21 0.36510008E-01 0.26157116E+03</pdfrwt>
<totfact> 0.27436885E+04</totfact>
</mgrwt>
</event>
<event>
12    1  0.2742799E-001  0.2149168E+03  0.7546771E-02  0.1138112E+00
         21   -1    0    0  502  503  0.00000000000E+00  0.00000000000E+00  0.74579428334E+03  0.74579428334E+03  0.00000000000E+00 0. -1.
         21   -1    0    0  503  504 -0.00000000000E+00 -0.00000000000E+00 -0.35002560897E+03  0.35002560897E+03  0.00000000000E+00 0. -1.
         -6    2    1    2    0  504 -0.11557269243E+03  0.54506221100E+02 -0.29952297377E+03  0.36865054535E+03  0.17280404333E+03 0.  0.
        -24    2    3    3    0    0 -0.18960469446E+02  0.66255937084E+02 -0.10295528102E+03  0.14925837299E+03  0.83240155080E+02 0.  0.
          6    2    1    2  502    0  0.11557269243E+03 -0.54506221100E+02  0.69529164814E+03  0.72716934696E+03  0.17034320596E+03 0.  0.
         24    2    5    5    0    0  0.12308644078E+03 -0.92040160761E+02  0.56161471565E+03  0.58804039483E+03  0.82211641660E+02 0.  0.
          4    1    6    6  501    0  0.85994009844E+02 -0.81389769837E+02  0.51017180270E+03  0.52373135540E+03  0.00000000000E+00 0. -1.
         -3    1    6    6    0  501  0.37092430936E+02 -0.10650390924E+02  0.51442912951E+02  0.64309039431E+02  0.00000000000E+00 0.  1.
          5    1    5    5  502    0 -0.75137483529E+01  0.37533939661E+02  0.13367693249E+03  0.13912895213E+03  0.47000000000E+01 0. -1.
         13    1    4    4    0    0 -0.50977471061E+02  0.32940540532E+02 -0.47470967823E+02  0.77053712126E+02  0.00000000000E+00 0. -1.
        -14    1    4    4    0    0  0.32017001615E+02  0.33315396552E+02 -0.55484313197E+02  0.72204660866E+02  0.00000000000E+00 0.  1.
         -5    1    3    3    0  504 -0.96612222981E+02 -0.11749715984E+02 -0.19656769275E+03  0.21939217235E+03  0.47000000000E+01 0.  1.
<mgrwt>
<rscale>  2 0.21442165E+03</rscale>
<asrwt>0</asrwt>
<pdfrwt beam="1">  1       21 0.11473758E+00 0.21491676E+03</pdfrwt>
<pdfrwt beam="2">  1       21 0.53850094E-01 0.21491676E+03</pdfrwt>
<totfact> 0.18846210E+03</totfact>
</mgrwt>
</event>
<event>
12    1  0.2742799E-001  0.2566393E+03  0.7546771E-02  0.1109297E+00
         21   -1    0    0  502  503  0.00000000000E+00  0.00000000000E+00  0.20580002146E+03  0.20580002146E+03  0.00000000000E+00 0.  1.
         21   -1    0    0  503  504 -0.00000000000E+00 -0.00000000000E+00 -0.32171681361E+03  0.32171681361E+03  0.00000000000E+00 0. -1.
         -6    2    1    2    0  504  0.83365469879E+02 -0.17002407400E+03 -0.81763149818E+02  0.26861489276E+03  0.17207777496E+03 0.  0.
        -24    2    3    3    0    0  0.43264557097E+02 -0.94915722424E+01 -0.35385622312E+02  0.96708719562E+02  0.78348722571E+02 0.  0.
          6    2    1    2  502    0 -0.83365469879E+02  0.17002407400E+03 -0.34153642337E+02  0.25890194231E+03  0.17322169939E+03 0.  0.
         24    2    5    5    0    0 -0.66767303437E+02  0.73238519006E+02 -0.79920354928E+02  0.15046013872E+03  0.80182521400E+02 0.  0.
          4    1    6    6  501    0 -0.83590539172E+02  0.50299923083E+02 -0.70963245178E+02  0.12063682136E+03  0.00000000000E+00 0. -1.
         -3    1    6    6    0  501  0.16823235735E+02  0.22938595924E+02 -0.89571097493E+01  0.29823317364E+02  0.00000000000E+00 0.  1.
          5    1    5    5  502    0 -0.16598166441E+02  0.96785554990E+02  0.45766712591E+02  0.10844180359E+03  0.47000000000E+01 0. -1.
         13    1    4    4    0    0  0.27199250426E+02 -0.10774015073E+02 -0.60308014051E+02  0.67029360606E+02  0.00000000000E+00 0. -1.
        -14    1    4    4    0    0  0.16065306671E+02  0.12824428305E+01  0.24922391739E+02  0.29679358956E+02  0.00000000000E+00 0.  1.
         -5    1    3    3    0  504  0.40100912782E+02 -0.16053250175E+03 -0.46377527506E+02  0.17190617320E+03  0.47000000000E+01 0.  1.
<mgrwt>
<rscale>  2 0.25644643E+03</rscale>
<asrwt>0</asrwt>
<pdfrwt beam="1">  1       21 0.31661542E-01 0.25663933E+03</pdfrwt>
<pdfrwt beam="2">  1       21 0.49494894E-01 0.25663933E+03</pdfrwt>
<totfact> 0.36211385E+04</totfact>
</mgrwt>
</event>
<event>
12    1  0.2742799E-001  0.2540476E+03  0.7546771E-02  0.1112668E+00
         21   -1    0    0  502  503  0.00000000000E+00  0.00000000000E+00  0.87073536373E+02  0.87073536373E+02  0.00000000000E+00 0.  1.
         21   -1    0    0  503  504 -0.00000000000E+00 -0.00000000000E+00 -0.78627276535E+03  0.78627276535E+03  0.00000000000E+00 0. -1.
         -6    2    1    2    0  504 -0.12885069295E+03  0.11138675228E+03 -0.21836677578E+03  0.33499885351E+03  0.18849581807E+03 0.  0.
        -24    2    3    3    0    0 -0.26901697037E+02 -0.12466639072E+02 -0.47901756462E+02  0.10087565276E+03  0.83679153043E+02 0.  0.
          6    2    1    2  502    0  0.12885069295E+03 -0.11138675228E+03 -0.48083245320E+03  0.53834744822E+03  0.17207154704E+03 0.  0.
         24    2    5    5    0    0  0.12830456397E+03 -0.13899332513E+03 -0.45862344111E+03  0.50260180038E+03  0.80572349132E+02 0.  0.
          2    1    6    6  501    0  0.75447514813E+02 -0.78316147900E+02 -0.35571287597E+03  0.37196424108E+03  0.00000000000E+00 0. -1.
         -1    1    6    6    0  501  0.52857049159E+02 -0.60677177228E+02 -0.10291056514E+03  0.13063755930E+03  0.00000000000E+00 0.  1.
          5    1    5    5  502    0  0.54612898211E+00  0.27606572851E+02 -0.22209012087E+02  0.35745647838E+02  0.47000000000E+01 0. -1.
         11    1    4    4    0    0  0.81311206256E+01  0.29338608511E+02 -0.31757325791E+02  0.43993145073E+02  0.00000000000E+00 0. -1.
        -12    1    4    4    0    0 -0.35032817663E+02 -0.41805247583E+02 -0.16144430670E+02  0.56882507685E+02  0.00000000000E+00 0.  1.
         -5    1    3    3    0  504 -0.10194899592E+03  0.12385339135E+03 -0.17046501932E+03  0.23412320075E+03  0.47000000000E+01 0.  1.
<mgrwt>
<rscale>  2 0.25100959E+03</rscale>
<asrwt>0</asrwt>
<pdfrwt beam="1">  1       21 0.13395929E-01 0.25404760E+03</pdfrwt>
<pdfrwt beam="2">  1       21 0.12096504E+00 0.25404760E+03</pdfrwt>
<totfact> 0.24093747E+04</totfact>
</mgrwt>
</event>
<event>
12    1  0.2742799E-001  0.2600799E+03  0.7546771E-02  0.1107234E+00
         21   -1    0    0  502  503  0.00000000000E+00  0.00000000000E+00  0.55266560328E+03  0.55266560328E+03  0.00000000000E+00 0. -1.
         21   -1    0    0  503  504 -0.00000000000E+00 -0.00000000000E+00 -0.39340278204E+03  0.39340278204E+03  0.00000000000E+00 0.  1.
         -6    2    1    2    0  504 -0.49835055931E+02 -0.18732006985E+03 -0.31325465366E+03  0.40714865254E+03  0.17340474577E+03 0.  0.
        -24    2    3    3    0    0 -0.66630641297E+00 -0.13251691078E+03 -0.29148207975E+03  0.33022604762E+03  0.80785296322E+02 0.  0.
          6    2    1    2  502    0  0.49835055931E+02  0.18732006985E+03  0.47251747490E+03  0.53891973278E+03  0.17201561823E+03 0.  0.
         24    2    5    5    0    0 -0.25756646513E+02  0.66415640278E+02  0.13943329937E+03  0.17656749454E+03  0.81608780405E+02 0.  0.
          2    1    6    6  501    0 -0.34527869493E+02  0.32372766748E+02  0.13254791556E+03  0.14074487457E+03  0.00000000000E+00 0. -1.
         -1    1    6    6    0  501  0.87712229798E+01  0.34042873529E+02  0.68853838109E+01  0.35822619962E+02  0.00000000000E+00 0.  1.
          5    1    5    5  502    0  0.75591702444E+02  0.12090442957E+03  0.33308417553E+03  0.36235223824E+03  0.47000000000E+01 0. -1.
         11    1    4    4    0    0  0.46037310485E+00  0.73732981550E+01 -0.54768337740E+02  0.55264349158E+02  0.00000000000E+00 0. -1.
        -12    1    4    4    0    0 -0.11266795178E+01 -0.13989020893E+03 -0.23671374201E+03  0.27496169846E+03  0.00000000000E+00 0.  1.
         -5    1    3    3    0  504 -0.49168749518E+02 -0.54803159073E+02 -0.21772573912E+02  0.76922604924E+02  0.47000000000E+01 0.  1.
<mgrwt>
<rscale>  2 0.25984855E+03</rscale>
<asrwt>0</asrwt>
<pdfrwt beam="1">  1       21 0.85025478E-01 0.26007989E+03</pdfrwt>
<pdfrwt beam="2">  1       21 0.60523505E-01 0.26007989E+03</pdfrwt>
<totfact> 0.28950547E+03</totfact>
</mgrwt>
</event>
<event>
12    1  0.2742799E-001  0.1899777E+03  0.7546771E-02  0.1158868E+00
         21   -1    0    0  502  503  0.00000000000E+00  0.00000000000E+00  0.30100196053E+03  0.30100196053E+03  0.00000000000E+00 0.  1.
         21   -1    0    0  503  504 -0.00000000000E+00 -0.00000000000E+00 -0.12066438030E+03  0.12066438030E+03  0.00000000000E+00 0. -1.
         -6    2    1    2    0  504 -0.68334720099E+02  0.28431413693E+02  0.64576273583E+02  0.20065294876E+03  0.17496722974E+03 0.  0.
        -24    2    3    3    0    0 -0.66377340692E+02 -0.41544658215E+02  0.10168029097E+02  0.11186765132E+03  0.79240599524E+02 0.  0.
          6    2    1    2  502    0  0.68334720099E+02 -0.28431413693E+02  0.11576130664E+03  0.22101339207E+03  0.17311343132E+03 0.  0.
         24    2    5    5    0    0  0.19956381195E+02  0.37057931354E+02  0.10420976199E+03  0.13864321437E+03  0.81183243172E+02 0.  0.
          4    1    6    6  501    0 -0.93514221322E+01  0.46277068204E+02  0.24444054530E+02  0.53165100764E+02  0.00000000000E+00 0. -1.
         -3    1    6    6    0  501  0.29307803327E+02 -0.92191368497E+01  0.79765707456E+02  0.85478113609E+02  0.00000000000E+00 0.  1.
          5    1    5    5  502    0  0.48378338904E+02 -0.65489345047E+02  0.11551544656E+02  0.82370177696E+02  0.47000000000E+01 0. -1.
         13    1    4    4    0    0 -0.37465065265E+02  0.17676044459E+02 -0.10620029326E+02  0.42765157382E+02  0.00000000000E+00 0. -1.
        -14    1    4    4    0    0 -0.28912275427E+02 -0.59220702674E+02  0.20788058422E+02  0.69102493939E+02  0.00000000000E+00 0.  1.
         -5    1    3    3    0  504 -0.19573794068E+01  0.69976071908E+02  0.54408244486E+02  0.88785297442E+02  0.47000000000E+01 0.  1.
<mgrwt>
<rscale>  2 0.18954973E+03</rscale>
<asrwt>0</asrwt>
<pdfrwt beam="1">  1       21 0.46307994E-01 0.18997766E+03</pdfrwt>
<pdfrwt beam="2">  1       21 0.18563751E-01 0.18997766E+03</pdfrwt>
<totfact> 0.11857866E+05</totfact>
</mgrwt>
</event>
<event>
12    1  0.2742799E-001  0.1750937E+03  0.7546771E-02  0.1173934E+00
         21   -1    0    0  502  503  0.00000000000E+00  0.00000000000E+00  0.75261303376E+02  0.75261303376E+02  0.00000000000E+00 0. -1.
         21   -1    0    0  503  504 -0.00000000000E+00 -0.00000000000E+00 -0.43272436205E+03  0.43272436205E+03  0.00000000000E+00 0. -1.
         -6    2    1    2    0  504 -0.25217421656E+01  0.20307466495E+02 -0.25070651832E+03  0.30291304886E+03  0.16877145631E+03 0.  0.
        -24    2    3    3    0    0  0.10710259339E+02 -0.46486577278E+02 -0.96183129326E+02  0.13398673980E+03  0.80159469524E+02 0.  0.
          6    2    1    2  502    0  0.25217421656E+01 -0.20307466495E+02 -0.10675654036E+03  0.20507261657E+03  0.17389383766E+03 0.  0.
         24    2    5    5    0    0  0.37796506025E+02 -0.21094119903E+02  0.17694945776E+01  0.90858265242E+02  0.79865859349E+02 0.  0.
          4    1    6    6  501    0  0.62409032416E+02 -0.12560564297E+02  0.77505640971E+01  0.64130541448E+02  0.00000000000E+00 0. -1.
         -3    1    6    6    0  501 -0.24612526391E+02 -0.85335556058E+01 -0.59810695195E+01  0.26727723794E+02  0.00000000000E+00 0.  1.
          5    1    5    5  502    0 -0.35274763860E+02  0.78665340774E+00 -0.10852603494E+03  0.11421435133E+03  0.47000000000E+01 0. -1.
         13    1    4    4    0    0 -0.27796292161E+02 -0.31594125968E+02 -0.78510924039E+02  0.89077426136E+02  0.00000000000E+00 0. -1.
        -14    1    4    4    0    0  0.38506551501E+02 -0.14892451310E+02 -0.17672205288E+02  0.44909313669E+02  0.00000000000E+00 0.  1.
         -5    1    3    3    0  504 -0.13232001505E+02  0.66794043773E+02 -0.15452338899E+03  0.16892630906E+03  0.47000000000E+01 0.  1.
<mgrwt>
<rscale>  2 0.17380810E+03</rscale>
<asrwt>0</asrwt>
<pdfrwt beam="1">  1       21 0.11578662E-01 0.17509374E+03</pdfrwt>
<pdfrwt beam="2">  1       21 0.66572979E-01 0.17509374E+03</pdfrwt>
<totfact> 0.13021362E+05</totfact>
</mgrwt>
</event>
<event>
12    1  0.2742799E-001  0.1976702E+03  0.7546771E-02  0.1152044E+00
         21   -1    0    0  502  503  0.00000000000E+00  0.00000000000E+00  0.87599309097E+03  0.87599309097E+03  0.00000000000E+00 0. -1.
         21   -1    0    0  503  504 -0.00000000000E+00 -0.00000000000E+00 -0.44310732850E+02  0.44310732850E+02  0.00000000000E+00 0.  1.
         -6    2    1    2    0  504  0.91650169657E+02 -0.17169107846E+02  0.42904539616E+03  0.47176169422E+03  0.17258218999E+03 0.  0.
        -24    2    3    3    0    0  0.61033082941E+02  0.30779890157E+02  0.38436717960E+03  0.39927207121E+03  0.83711523958E+02 0.  0.
          6    2    1    2  502    0 -0.91650169657E+02  0.17169107846E+02  0.40263696196E+03  0.44854212960E+03  0.17429568851E+03 0.  0.
         24    2    5    5    0    0 -0.30936721375E+01 -0.39784987468E+02  0.14130958659E+03  0.16676187951E+03  0.79048777097E+02 0.  0.
          4    1    6    6  501    0  0.34114992923E+02 -0.38314934960E+02  0.80594914758E+02  0.95537465258E+02  0.00000000000E+00 0. -1.
         -3    1    6    6    0  501 -0.37208665060E+02 -0.14700525083E+01  0.60714671836E+02  0.71224414256E+02  0.00000000000E+00 0.  1.
          5    1    5    5  502    0 -0.88556497520E+02  0.56954095314E+02  0.26132737536E+03  0.28178025009E+03  0.47000000000E+01 0. -1.
         11    1    4    4    0    0  0.21398078776E+02  0.27116911561E+02  0.33046865114E+03  0.33226906876E+03  0.00000000000E+00 0. -1.
        -12    1    4    4    0    0  0.39635004165E+02  0.36629785962E+01  0.53898528462E+02  0.67003002453E+02  0.00000000000E+00 0.  1.
         -5    1    3    3    0  504  0.30617086717E+02 -0.47948998003E+02  0.44678216562E+02  0.72489623007E+02  0.47000000000E+01 0.  1.
<mgrwt>
<rscale>  2 0.19729184E+03</rscale>
<asrwt>0</asrwt>
<pdfrwt beam="1">  1       21 0.13476815E+00 0.19767023E+03</pdfrwt>
<pdfrwt beam="2">  1       21 0.68170365E-02 0.19767023E+03</pdfrwt>
<totfact> 0.62311074E+04</totfact>
</mgrwt>
</event>
<event>
12    1  0.2742799E-001  0.2122759E+03  0.7546771E-02  0.1140207E+00
         21   -1    0    0  502  503  0.00000000000E+00  0.00000000000E+00  0.22561615653E+03  0.22561615653E+03  0.00000000000E+00 0. -1.
         21   -1    0    0  503  504 -0.00000000000E+00 -0.00000000000E+00 -0.24398375187E+03  0.24398375187E+03  0.00000000000E+00 0.  1.
         -6    2    1    2    0  504  0.22929540770E+01  0.11752952954E+03  0.93156044643E+02  0.22981129567E+03  0.17411701528E+03 0.  0.
        -24    2    3    3    0    0  0.50114341360E+01 -0.10072961771E+01  0.26652793098E+01  0.80583155575E+02  0.80376688978E+02 0.  0.
          6    2    1    2  502    0 -0.22929540770E+01 -0.11752952954E+03 -0.11152363998E+03  0.23978861273E+03  0.17675578793E+03 0.  0.
         24    2    5    5    0    0 -0.29543485161E+02  0.28120645276E+01 -0.28523818798E+02  0.91007730140E+02  0.81166948225E+02 0.  0.
          4    1    6    6  501    0 -0.34727174353E+02 -0.68145950174E+01  0.20419565610E+02  0.40857973561E+02  0.00000000000E+00 0. -1.
         -3    1    6    6    0  501  0.51836891917E+01  0.96266595450E+01 -0.48943384409E+02  0.50149756580E+02  0.00000000000E+00 0.  1.
          5    1    5    5  502    0  0.27250531084E+02 -0.12034159407E+03 -0.82999821182E+02  0.14878088259E+03  0.47000000000E+01 0. -1.
         13    1    4    4    0    0  0.17674187053E+02  0.33267446028E+02  0.17004728876E+02  0.41331110042E+02  0.00000000000E+00 0. -1.
        -14    1    4    4    0    0 -0.12662752917E+02 -0.34274742205E+02 -0.14339449566E+02  0.39252045533E+02  0.00000000000E+00 0.  1.
         -5    1    3    3    0  504 -0.27184800591E+01  0.11853682572E+03  0.90490765333E+02  0.14922814009E+03  0.47000000000E+01 0.  1.
<mgrwt>
<rscale>  2 0.21172573E+03</rscale>
<asrwt>0</asrwt>
<pdfrwt beam="1">  1       21 0.34710178E-01 0.21227590E+03</pdfrwt>
<pdfrwt beam="2">  1       21 0.37535962E-01 0.21227590E+03</pdfrwt>
<totfact> 0.54259140E+04</totfact>
</mgrwt>
</event>
<event>
12    1  0.2742799E-001  0.2129748E+03  0.7546771E-02  0.1139895E+00
         21   -1    0    0  502  503  0.00000000000E+00  0.00000000000E+00  0.10304711541E+04  0.10304711541E+04  0.00000000000E+00 0.  1.
         21   -1    0    0  503  504 -0.00000000000E+00 -0.00000000000E+00 -0.61085317708E+02  0.61085317708E+02  0.00000000000E+00 0.  1.
         -6    2    1    2    0  504 -0.11381305632E+03 -0.33773343052E+02  0.78175920526E+03  0.81025039641E+03  0.17681685264E+03 0.  0.
        -24    2    3    3    0    0 -0.25835378503E+02 -0.46538374413E+02  0.60139291515E+03  0.60911087660E+03  0.80680446981E+02 0.  0.
          6    2    1    2  502    0  0.11381305632E+03  0.33773343052E+02  0.18762663116E+03  0.28130607543E+03  0.17272899254E+03 0.  0.
         24    2    5    5    0    0  0.66202902627E+02  0.82827854322E+02  0.72760884584E+02  0.14755518180E+03  0.72354043310E+02 0.  0.
          2    1    6    6  501    0  0.74843521674E+02  0.78347976147E+02  0.80613080179E+02  0.13504971973E+03  0.00000000000E+00 0. -1.
         -1    1    6    6    0  501 -0.86406190470E+01  0.44798781750E+01 -0.78521955956E+01  0.12505462073E+02  0.00000000000E+00 0.  1.
          5    1    5    5  502    0  0.47610153692E+02 -0.49054511270E+02  0.11486574658E+03  0.13375089363E+03  0.47000000000E+01 0. -1.
         13    1    4    4    0    0  0.86481320213E+01  0.19901695715E+02  0.14718185129E+03  0.14877286389E+03  0.00000000000E+00 0. -1.
        -14    1    4    4    0    0 -0.34483510525E+02 -0.66440070128E+02  0.45421106386E+03  0.46033801271E+03  0.00000000000E+00 0.  1.
         -5    1    3    3    0  504 -0.87977677815E+02  0.12765031360E+02  0.18036629011E+03  0.20113951981E+03  0.47000000000E+01 0.  1.
<mgrwt>
<rscale>  2 0.21212432E+03</rscale>
<asrwt>0</asrwt>
<pdfrwt beam="1">  1       21 0.15853401E+00 0.21297476E+03</pdfrwt>
<pdfrwt beam="2">  1       21 0.93977420E-02 0.21297476E+03</pdfrwt>
<totfact> 0.23049149E+04</totfact>
</mgrwt>
</event>
<event>
12    1  0.2742799E-001  0.2840646E+03  0.7546771E-02  0.1093603E+00
         21   -1    0    0  502  503  0.00000000000E+00  0.00000000000E+00  0.26403232612E+03  0.26403232612E+03  0.00000000000E+00 0.  1.
         21   -1    0    0  503  504 -0.00000000000E+00 -0.00000000000E+00 -0.30482133722E+03  0.30482133722E+03  0.00000000000E+00 0. -1.
         -6    2    1    2    0  504  0.18517954033E+03 -0.12584262589E+03 -0.25939202895E+02  0.28524645886E+03  0.17482811958E+03 0.  0.
        -24    2    3    3    0    0  0.10092044029E+03 -0.55222843740E+02 -0.84181021309E+02  0.16074365173E+03  0.74280411171E+02 0.  0.
          6    2    1    2  502    0 -0.18517954033E+03  0.12584262589E+03 -0.14849808204E+02  0.28360720449E+03  0.17344941910E+03 0.  0.
         24    2    5    5    0    0 -0.16376612904E+03  0.48992681268E+02 -0.52025468074E+02  0.19546772492E+03  0.79254995535E+02 0.  0.
          2    1    6    6  501    0 -0.13632549914E+03  0.69596271489E+02 -0.34357373085E+02  0.15687164118E+03  0.00000000000E+00 0. -1.
         -1    1    6    6    0  501 -0.27440629900E+02 -0.20603590221E+02 -0.17668094989E+02  0.38596083738E+02  0.00000000000E+00 0.  1.
          5    1    5    5  502    0 -0.21413411283E+02  0.76849944625E+02  0.37175659870E+02  0.88139479568E+02  0.47000000000E+01 0. -1.
         13    1    4    4    0    0  0.10102204001E+03 -0.66265002106E+02 -0.87545035757E+02  0.14919998779E+03  0.00000000000E+00 0. -1.
        -14    1    4    4    0    0 -0.10159972092E+00  0.11042158365E+02  0.33640144477E+01  0.11543663936E+02  0.00000000000E+00 0.  1.
         -5    1    3    3    0  504  0.84259100037E+02 -0.70619782153E+02  0.58241818414E+02  0.12450280713E+03  0.47000000000E+01 0.  1.
<mgrwt>
<rscale>  2 0.28385276E+03</rscale>
<asrwt>0</asrwt>
<pdfrwt beam="1">  1       21 0.40620358E-01 0.28406461E+03</pdfrwt>
<pdfrwt beam="2">  1       21 0.46895590E-01 0.28406461E+03</pdfrwt>
<totfact> 0.24305247E+04</totfact>
</mgrwt>
</event>
<event>
12    1  0.2742799E-001  0.1937095E+03  0.7546771E-02  0.1155205E+00
         21   -1    0    0  502  503  0.00000000000E+00  0.00000000000E+00  0.46768612674E+02  0.46768612674E+02  0.00000000000E+00 0.  1.
         21   -1    0    0  503  504 -0.00000000000E+00 -0.00000000000E+00 -0.85218613945E+03  0.85218613945E+03  0.00000000000E+00 0.  1.
         -6    2    1    2    0  504  0.82551934480E+02 -0.25519012244E+02 -0.29279458585E+03  0.35095323460E+03  0.17312845376E+03 0.  0.
        -24    2    3    3    0    0  0.13181379825E+02  0.41586310884E+02 -0.14406629635E+03  0.17359035139E+03  0.86460062010E+02 0.  0.
          6    2    1    2  502    0 -0.82551934480E+02  0.25519012244E+02 -0.51262294093E+03  0.54800151753E+03  0.17337053317E+03 0.  0.
         24    2    5    5    0    0 -0.69352792274E+02  0.81465012172E+02 -0.38095291808E+03  0.40425431866E+03  0.82765151859E+02 0.  0.
          4    1    6    6  501    0 -0.56827776377E+02  0.54031445222E+02 -0.13239871436E+03  0.15387726539E+03  0.00000000000E+00 0. -1.
         -3    1    6    6    0  501 -0.12525015897E+02  0.27433566950E+02 -0.24855420372E+03  0.25037705327E+03  0.00000000000E+00 0.  1.
          5    1    5    5  502    0 -0.13199142206E+02 -0.55945999928E+02 -0.13167002285E+03  0.14374719886E+03  0.47000000000E+01 0. -1.
         13    1    4    4    0    0 -0.34976307039E+02  0.31390059115E+02 -0.60576007323E+02  0.76668967180E+02  0.00000000000E+00 0. -1.
        -14    1    4    4    0    0  0.48157686864E+02  0.10196251769E+02 -0.83490289029E+02  0.96921384206E+02  0.00000000000E+00 0.  1.
         -5    1    3    3    0  504  0.69370554655E+02 -0.67105323128E+02 -0.14872828950E+03  0.17736288321E+03  0.47000000000E+01 0.  1.
<mgrwt>
<rscale>  2 0.19365535E+03</rscale>
<asrwt>0</asrwt>
<pdfrwt beam="1">  1       21 0.71951719E-02 0.19370953E+03</pdfrwt>
<pdfrwt beam="2">  1       21 0.13110555E+00 0.19370953E+03</pdfrwt>
<totfact> 0.60999942E+04</totfact>
</mgrwt>
</event>
<event>
12    1  0.2742799E-001  0.1761026E+03  0.7546771E-02  0.1172033E+00
         21   -1    0    0  502  503  0.00000000000E+00  0.00000000000E+00  0.27057397837E+03  0.27057397837E+03  0.00000000000E+00 0. -1.
         21   -1    0    0  503  504 -0.00000000000E+00 -0.00000000000E+00 -0.54035454842E+03  0.54035454842E+03  0.00000000000E+00 0. -1.
         -6    2    1    2    0  504  0.36198571312E+02 -0.32785539039E+00 -0.49536480441E+03  0.52573606723E+03  0.17234175026E+03 0.  0.
        -24    2    3    3    0    0 -0.16575848795E+02  0.18850550087E+02 -0.43540193688E+03  0.44345249574E+03  0.80281799549E+02 0.  0.
          6    2    1    2  502    0 -0.36198571312E+02  0.32785539039E+00  0.22558423437E+03  0.28519245956E+03  0.17069284735E+03 0.  0.
         24    2    5    5    0    0 -0.86084188150E+02 -0.19453575431E+02  0.13906680500E+03  0.18327467231E+03  0.80380969205E+02 0.  0.
          2    1    6    6  501    0 -0.97847247973E+02 -0.48342682854E+01  0.12899318036E+03  0.16197745110E+03  0.00000000000E+00 0. -1.
         -1    1    6    6    0  501  0.11763059823E+02 -0.14619307146E+02  0.10073624642E+02  0.21297221209E+02  0.00000000000E+00 0.  1.
          5    1    5    5  502    0  0.49885616838E+02  0.19781430821E+02  0.86517429369E+02  0.10191778725E+03  0.47000000000E+01 0. -1.
         13    1    4    4    0    0  0.15418408156E+02  0.40949821720E+02 -0.27134270274E+03  0.27484809903E+03  0.00000000000E+00 0. -1.
        -14    1    4    4    0    0 -0.31994256951E+02 -0.22099271634E+02 -0.16405923414E+03  0.16860439671E+03  0.00000000000E+00 0.  1.
         -5    1    3    3    0  504  0.52774420107E+02 -0.19178405477E+02 -0.59962867536E+02  0.82283571491E+02  0.47000000000E+01 0.  1.
<mgrwt>
<rscale>  2 0.17569786E+03</rscale>
<asrwt>0</asrwt>
<pdfrwt beam="1">  1       21 0.41626766E-01 0.17610259E+03</pdfrwt>
<pdfrwt beam="2">  1       21 0.83131468E-01 0.17610259E+03</pdfrwt>
<totfact> 0.70922132E+03</totfact>
</mgrwt>
</event>
<event>
12    1  0.2742799E-001  0.1907760E+03  0.7546771E-02  0.1157783E+00
         21   -1    0    0  502  503  0.00000000000E+00  0.00000000000E+00  0.44186283817E+03  0.44186283817E+03  0.00000000000E+00 0. -1.
         21   -1    0    0  503  504 -0.00000000000E+00 -0.00000000000E+00 -0.85466347225E+02  0.85466347225E+02  0.00000000000E+00 0. -1.
         -6    2    1    2    0  504  0.49582092947E+02 -0.60322110905E+02  0.12772840345E+03  0.22958661939E+03  0.17406415412E+03 0.  0.
        -24    2    3    3    0    0  0.96265172832E+01 -0.73854568000E+02  0.16006712263E+02  0.11007343307E+03  0.79452997309E+02 0.  0.
          6    2    1    2  502    0 -0.49582092947E+02  0.60322110905E+02  0.22866808750E+03  0.29774256601E+03  0.17396666454E+03 0.  0.
         24    2    5    5    0    0 -0.41639277047E+02 -0.23571139576E+02  0.17174811987E+03  0.19594306446E+03  0.81282469314E+02 0.  0.
          2    1    6    6  501    0 -0.14486223565E+02 -0.24682503503E+02  0.16563349261E+03  0.16808786549E+03  0.00000000000E+00 0. -1.
         -1    1    6    6    0  501 -0.27153053481E+02  0.11113639272E+01  0.61146272646E+01  0.27855198971E+02  0.00000000000E+00 0.  1.
          5    1    5    5  502    0 -0.79428159003E+01  0.83893250481E+02  0.56919967624E+02  0.10179950155E+03  0.47000000000E+01 0. -1.
         11    1    4    4    0    0  0.40618322101E+02 -0.21966796598E+02 -0.41457343215E+01  0.46363513199E+02  0.00000000000E+00 0. -1.
        -12    1    4    4    0    0 -0.30991804818E+02 -0.51887771402E+02  0.20152446585E+02  0.63709919874E+02  0.00000000000E+00 0.  1.
         -5    1    3    3    0  504  0.39955575664E+02  0.13532457095E+02  0.11172169119E+03  0.11951318632E+03  0.47000000000E+01 0.  1.
<mgrwt>
<rscale>  2 0.19075373E+03</rscale>
<asrwt>0</asrwt>
<pdfrwt beam="1">  1       21 0.67978897E-01 0.19077597E+03</pdfrwt>
<pdfrwt beam="2">  1       21 0.13148669E-01 0.19077597E+03</pdfrwt>
<totfact> 0.98491476E+04</totfact>
</mgrwt>
</event>
<event>
12    1  0.2742799E-001  0.1761363E+03  0.7546771E-02  0.1171764E+00
         21   -1    0    0  502  503  0.00000000000E+00  0.00000000000E+00  0.19936968957E+03  0.19936968957E+03  0.00000000000E+00 0. -1.
         21   -1    0    0  503  504 -0.00000000000E+00 -0.00000000000E+00 -0.19506866080E+03  0.19506866080E+03  0.00000000000E+00 0. -1.
         -6    2    1    2    0  504 -0.17745304616E+02  0.20280008477E+02 -0.87220271662E+02  0.19594367109E+03  0.17337927175E+03 0.  0.
        -24    2    3    3    0    0 -0.13188796506E+02 -0.16929704460E+02  0.17423685210E+02  0.84688234313E+02  0.80049690682E+02 0.  0.
          6    2    1    2  502    0  0.17745304616E+02 -0.20280008477E+02  0.91521300425E+02  0.19849467928E+03  0.17406267461E+03 0.  0.
         24    2    5    5    0    0 -0.37474518432E+01  0.21423124149E+01  0.12765433323E+03  0.15061582054E+03  0.79817690430E+02 0.  0.
          4    1    6    6  501    0  0.14026414713E+02 -0.35023088295E+02  0.73014923333E+02  0.82185984528E+02  0.00000000000E+00 0. -1.
         -3    1    6    6    0  501 -0.17773866556E+02  0.37165400710E+02  0.54639409900E+02  0.68429836011E+02  0.00000000000E+00 0.  1.
          5    1    5    5  502    0  0.21492756460E+02 -0.22422320892E+02 -0.36133032809E+02  0.47878858741E+02  0.47000000000E+01 0. -1.
         13    1    4    4    0    0 -0.33660223157E+01  0.24943654400E+02  0.30678263901E+02  0.39682135490E+02  0.00000000000E+00 0. -1.
        -14    1    4    4    0    0 -0.98227741906E+01 -0.41873358859E+02 -0.13254578691E+02  0.45006098823E+02  0.00000000000E+00 0.  1.
         -5    1    3    3    0  504 -0.45565081102E+01  0.37209712937E+02 -0.10464395687E+03  0.11125543678E+03  0.47000000000E+01 0.  1.
<mgrwt>
<rscale>  2 0.17596721E+03</rscale>
<asrwt>0</asrwt>
<pdfrwt beam="1">  1       21 0.30672260E-01 0.17613628E+03</pdfrwt>
<pdfrwt beam="2">  1       21 0.30010563E-01 0.17613628E+03</pdfrwt>
<totfact> 0.10933253E+05</totfact>
</mgrwt>
</event>
<event>
12    1  0.2742799E-001  0.1847829E+03  0.7546771E-02  0.1163391E+00
         21   -1    0    0  502  503  0.00000000000E+00  0.00000000000E+00  0.90619539752E+02  0.90619539752E+02  0.00000000000E+00 0.  1.
         21   -1    0    0  503  504 -0.00000000000E+00 -0.00000000000E+00 -0.40258230111E+03  0.40258230111E+03  0.00000000000E+00 0.  1.
         -6    2    1    2    0  504  0.52348939659E+02 -0.27459732185E+02 -0.91890220863E+02  0.20584031559E+03  0.17444762669E+03 0.  0.
        -24    2    3    3    0    0  0.47193357926E+02  0.26323054489E+02 -0.11065530806E+03  0.14845227970E+03  0.82905765272E+02 0.  0.
          6    2    1    2  502    0 -0.52348939659E+02  0.27459732185E+02 -0.22007254050E+03  0.28736152527E+03  0.17507219868E+03 0.  0.
         24    2    5    5    0    0 -0.74082992362E+02 -0.37497302058E+02 -0.13850019191E+03  0.18074106101E+03  0.81183068183E+02 0.  0.
          2    1    6    6  501    0 -0.24601846118E+02 -0.42767839590E+02 -0.11614257656E+03  0.12618810176E+03  0.00000000000E+00 0. -1.
         -1    1    6    6    0  501 -0.49481146244E+02  0.52705375319E+01 -0.22357615346E+02  0.54552959255E+02  0.00000000000E+00 0.  1.
          5    1    5    5  502    0  0.21734052702E+02  0.64957034243E+02 -0.81572348590E+02  0.10662046426E+03  0.47000000000E+01 0. -1.
         13    1    4    4    0    0 -0.14729272239E+02 -0.10829294559E+01  0.39929474249E+01  0.15299275343E+02  0.00000000000E+00 0. -1.
        -14    1    4    4    0    0  0.61922630164E+02  0.27405983945E+02 -0.11464825549E+03  0.13315300436E+03  0.00000000000E+00 0.  1.
         -5    1    3    3    0  504  0.51555817339E+01 -0.53782786674E+02  0.18765087202E+02  0.57388035888E+02  0.47000000000E+01 0.  1.
<mgrwt>
<rscale>  2 0.18463482E+03</rscale>
<asrwt>0</asrwt>
<pdfrwt beam="1">  1       21 0.13941468E-01 0.18478291E+03</pdfrwt>
<pdfrwt beam="2">  1       21 0.61935739E-01 0.18478291E+03</pdfrwt>
<totfact> 0.10873887E+05</totfact>
</mgrwt>
</event>
<event>
12    1  0.2742799E-001  0.1904563E+03  0.7546771E-02  0.1158816E+00
         21   -1    0    0  502  503  0.00000000000E+00  0.00000000000E+00  0.29081124384E+03  0.29081124384E+03  0.00000000000E+00 0. -1.
         21   -1    0    0  503  504 -0.00000000000E+00 -0.00000000000E+00 -0.12301236464E+03  0.12301236464E+03  0.00000000000E+00 0. -1.
         -6    2    1    2    0  504  0.18949424436E+02  0.78087087210E+02  0.71721547466E+02  0.20351306717E+03  0.17267574891E+03 0.  0.
        -24    2    3    3    0    0 -0.14939332183E+01  0.11371230127E+03  0.25046794474E+02  0.14116156906E+03  0.79790521807E+02 0.  0.
          6    2    1    2  502    0 -0.18949424436E+02 -0.78087087210E+02  0.96077331730E+02  0.21031054131E+03  0.16894672604E+03 0.  0.
         24    2    5    5    0    0  0.37156370912E+02  0.22137006283E+02  0.46833801937E+02  0.85251577558E+02  0.56601974575E+02 0.  0.
          4    1    6    6  501    0 -0.11992528191E+02  0.95426467625E+01  0.26457688348E+02  0.30576005501E+02  0.00000000000E+00 0. -1.
         -3    1    6    6    0  501  0.49148899104E+02  0.12594359521E+02  0.20376113589E+02  0.54675572057E+02  0.00000000000E+00 0.  1.
          5    1    5    5  502    0 -0.56105795348E+02 -0.10022409349E+03  0.49243529794E+02  0.12505896375E+03  0.47000000000E+01 0. -1.
         11    1    4    4    0    0  0.25471795044E+02  0.93266790501E+02  0.39400897734E+02  0.10440276479E+03  0.00000000000E+00 0. -1.
        -12    1    4    4    0    0 -0.26965728262E+02  0.20445510770E+02 -0.14354103260E+02  0.36758804275E+02  0.00000000000E+00 0.  1.
         -5    1    3    3    0  504  0.20443357654E+02 -0.35625214060E+02  0.46674752992E+02  0.62351498104E+02  0.47000000000E+01 0.  1.
<mgrwt>
<rscale>  2 0.18960703E+03</rscale>
<asrwt>0</asrwt>
<pdfrwt beam="1">  1       21 0.44740191E-01 0.19045626E+03</pdfrwt>
<pdfrwt beam="2">  1       21 0.18924979E-01 0.19045626E+03</pdfrwt>
<totfact> 0.12279003E+05</totfact>
</mgrwt>
</event>
<event>
12    1  0.2742799E-001  0.2781479E+03  0.7546771E-02  0.1096715E+00
         21   -1    0    0  502  503  0.00000000000E+00  0.00000000000E+00  0.68591337308E+03  0.68591337308E+03  0.00000000000E+00 0. -1.
         21   -1    0    0  503  504 -0.00000000000E+00 -0.00000000000E+00 -0.22217447244E+03  0.22217447244E+03  0.00000000000E+00 0.  1.
         -6    2    1    2    0  504 -0.86607236789E+02  0.19978004154E+03 -0.86773237324E+02  0.29129789122E+03  0.17295082611E+03 0.  0.
        -24    2    3    3    0    0 -0.58976125520E+02  0.28560188356E+02 -0.24761738664E+02  0.10705014388E+03  0.80948884257E+02 0.  0.
          6    2    1    2  502    0  0.86607236789E+02 -0.19978004154E+03  0.55051213797E+03  0.61678995430E+03  0.17307037648E+03 0.  0.
         24    2    5    5    0    0  0.73574144422E+01 -0.13284475278E+03  0.43633566667E+03  0.46245517591E+03  0.75987603129E+02 0.  0.
          4    1    6    6  501    0  0.21536616276E+02 -0.77279387961E+02  0.34807710541E+03  0.35720246494E+03  0.00000000000E+00 0. -1.
         -3    1    6    6    0  501 -0.14179201834E+02 -0.55565364819E+02  0.88258561259E+02  0.10525271098E+03  0.00000000000E+00 0.  1.
          5    1    5    5  502    0  0.79249822347E+02 -0.66935288758E+02  0.11417647130E+03  0.15433477839E+03  0.47000000000E+01 0. -1.
         13    1    4    4    0    0 -0.11585817301E+02  0.18669551346E+02 -0.48416264306E+02  0.53168768646E+02  0.00000000000E+00 0. -1.
        -14    1    4    4    0    0 -0.47390308219E+02  0.98906370098E+01  0.23654525643E+02  0.53881375232E+02  0.00000000000E+00 0.  1.
         -5    1    3    3    0  504 -0.27631111269E+02  0.17121985318E+03 -0.62011498660E+02  0.18424774734E+03  0.47000000000E+01 0.  1.
<mgrwt>
<rscale>  2 0.27812927E+03</rscale>
<asrwt>0</asrwt>
<pdfrwt beam="1">  1       21 0.10552513E+00 0.27814786E+03</pdfrwt>
<pdfrwt beam="2">  1       21 0.34180688E-01 0.27814786E+03</pdfrwt>
<totfact> 0.56255494E+03</totfact>
</mgrwt>
</event>
<event>
12    1  0.2742799E-001  0.2616569E+03  0.7546771E-02  0.1106440E+00
         21   -1    0    0  502  503  0.00000000000E+00  0.00000000000E+00  0.10160194704E+04  0.10160194704E+04  0.00000000000E+00 0.  1.
         21   -1    0    0  503  504 -0.00000000000E+00 -0.00000000000E+00 -0.34450265906E+03  0.34450265906E+03  0.00000000000E+00 0.  1.
         -6    2    1    2    0  504  0.75982909998E+02  0.18025423867E+03 -0.27514078517E+03  0.37836890493E+03  0.17086715127E+03 0.  0.
        -24    2    3    3    0    0  0.60281090645E+02  0.93225422169E+02 -0.67491754805E+02  0.15262397842E+03  0.80088404868E+02 0.  0.
          6    2    1    2  502    0 -0.75982909998E+02 -0.18025423867E+03  0.94665759650E+03  0.98215322452E+03  0.17377962552E+03 0.  0.
         24    2    5    5    0    0 -0.64926411416E+02 -0.36052167721E+02  0.36101857580E+03  0.37890233476E+03  0.87848560129E+02 0.  0.
          2    1    6    6  501    0 -0.65663536441E+02 -0.46608484524E+02  0.17560317910E+03  0.19318521516E+03  0.00000000000E+00 0. -1.
         -1    1    6    6    0  501  0.73712502533E+00  0.10556316803E+02  0.18541539670E+03  0.18571711960E+03  0.00000000000E+00 0.  1.
          5    1    5    5  502    0 -0.11056498583E+02 -0.14420207094E+03  0.58563902070E+03  0.60325088976E+03  0.47000000000E+01 0. -1.
         13    1    4    4    0    0  0.64905242389E+01  0.52803305708E+02  0.53403779014E+01  0.53468080522E+02  0.00000000000E+00 0. -1.
        -14    1    4    4    0    0  0.53790566406E+02  0.40422116461E+02 -0.72832132706E+02  0.99155897898E+02  0.00000000000E+00 0.  1.
         -5    1    3    3    0  504  0.15701819354E+02  0.87028816496E+02 -0.20764903036E+03  0.22574492651E+03  0.47000000000E+01 0.  1.
<mgrwt>
<rscale>  2 0.26117430E+03</rscale>
<asrwt>0</asrwt>
<pdfrwt beam="1">  1       21 0.15631069E+00 0.26165693E+03</pdfrwt>
<pdfrwt beam="2">  1       21 0.53000410E-01 0.26165693E+03</pdfrwt>
<totfact> 0.84737363E+02</totfact>
</mgrwt>
</event>
<event>
12    1  0.2742799E-001  0.2433646E+03  0.7546771E-02  0.1117778E+00
         21   -1    0    0  502  503  0.00000000000E+00  0.00000000000E+00  0.16263134886E+03  0.16263134886E+03  0.00000000000E+00 0. -1.
         21   -1    0    0  503  504 -0.00000000000E+00 -0.00000000000E+00 -0.36255953935E+03  0.36255953935E+03  0.00000000000E+00 0.  1.
         -6    2    1    2    0  504  0.11901230628E+03  0.12179732964E+03 -0.10735757158E+03  0.26599244003E+03  0.17386147194E+03 0.  0.
        -24    2    3    3    0    0  0.10047594950E+03  0.13508172483E+02 -0.37039571770E+02  0.13546715828E+03  0.81862897233E+02 0.  0.
          6    2    1    2  502    0 -0.11901230628E+03 -0.12179732964E+03 -0.92570618906E+02  0.25919844818E+03  0.17209299086E+03 0.  0.
         24    2    5    5    0    0 -0.10688312857E+03 -0.34423132278E+02 -0.99533643260E+02  0.17058726930E+03  0.81142560325E+02 0.  0.
          2    1    6    6  501    0 -0.76261020902E+02 -0.22450159562E+02 -0.16376792964E+02  0.81166201840E+02  0.00000000000E+00 0. -1.
         -1    1    6    6    0  501 -0.30622107671E+02 -0.11972972717E+02 -0.83156850296E+02  0.89421067456E+02  0.00000000000E+00 0.  1.
          5    1    5    5  502    0 -0.12129177708E+02 -0.87374197357E+02  0.69630243539E+01  0.88611178887E+02  0.47000000000E+01 0. -1.
         13    1    4    4    0    0  0.19769512261E+02  0.31138416687E+02  0.12735352474E+02  0.39020812542E+02  0.00000000000E+00 0. -1.
        -14    1    4    4    0    0  0.80706437234E+02 -0.17630244204E+02 -0.49774924243E+02  0.96446345733E+02  0.00000000000E+00 0.  1.
         -5    1    3    3    0  504  0.18536356785E+02  0.10828915715E+03 -0.70317999815E+02  0.13052528176E+03  0.47000000000E+01 0.  1.
<mgrwt>
<rscale>  2 0.24304893E+03</rscale>
<asrwt>0</asrwt>
<pdfrwt beam="1">  1       21 0.25020208E-01 0.24336460E+03</pdfrwt>
<pdfrwt beam="2">  1       21 0.55778390E-01 0.24336460E+03</pdfrwt>
<totfact> 0.44722755E+04</totfact>
</mgrwt>
</event>
<event>
12    1  0.2742799E-001  0.2634899E+03  0.7546771E-02  0.1105274E+00
         21   -1    0    0  502  503  0.00000000000E+00  0.00000000000E+00  0.55059001561E+02  0.55059001561E+02  0.00000000000E+00 0. -1.
         21   -1    0    0  503  504 -0.00000000000E+00 -0.00000000000E+00 -0.17283472275E+04  0.17283472275E+04  0.00000000000E+00 0. -1.
         -6    2    1    2    0  504  0.39110452056E+01  0.19826743427E+03 -0.13053204818E+04  0.13316487868E+04  0.17349829746E+03 0.  0.
        -24    2    3    3    0    0  0.20606953978E+02  0.16282508600E+03 -0.12521515080E+04  0.12654374343E+04  0.80696008972E+02 0.  0.
          6    2    1    2  502    0 -0.39110452056E+01 -0.19826743427E+03 -0.36796774407E+03  0.45175744226E+03  0.17134542363E+03 0.  0.
         24    2    5    5    0    0  0.10806271249E+02 -0.74317187368E+02 -0.27538358877E+03  0.29627696464E+03  0.79398356244E+02 0.  0.
          2    1    6    6  501    0  0.38634230613E+02 -0.12217167025E+02 -0.11964416841E+03  0.12631939669E+03  0.00000000000E+00 0. -1.
         -1    1    6    6    0  501 -0.27827959364E+02 -0.62100020343E+02 -0.15573942036E+03  0.16995756795E+03  0.00000000000E+00 0.  1.
          5    1    5    5  502    0 -0.14717316455E+02 -0.12395024690E+03 -0.92584155294E+02  0.15548047762E+03  0.47000000000E+01 0. -1.
         11    1    4    4    0    0 -0.12736226526E+01  0.13716104537E+03 -0.11428249795E+04  0.11510272405E+04  0.00000000000E+00 0. -1.
        -12    1    4    4    0    0  0.21880576630E+02  0.25664040634E+02 -0.10932652851E+03  0.11441019383E+03  0.00000000000E+00 0.  1.
         -5    1    3    3    0  504 -0.16695908772E+02  0.35442348264E+02 -0.53168973802E+02  0.66211352466E+02  0.47000000000E+01 0.  1.
<mgrwt>
<rscale>  2 0.26313605E+03</rscale>
<asrwt>0</asrwt>
<pdfrwt beam="1">  1       21 0.84706155E-02 0.26348991E+03</pdfrwt>
<pdfrwt beam="2">  1       21 0.26589958E+00 0.26348991E+03</pdfrwt>
<totfact> 0.54656131E+03</totfact>
</mgrwt>
</event>
<event>
12    1  0.2742799E-001  0.2597558E+03  0.7546771E-02  0.1107516E+00
         21   -1    0    0  502  503  0.00000000000E+00  0.00000000000E+00  0.33744598004E+02  0.33744598004E+02  0.00000000000E+00 0. -1.
         21   -1    0    0  503  504 -0.00000000000E+00 -0.00000000000E+00 -0.24914090633E+04  0.24914090633E+04  0.00000000000E+00 0.  1.
         -6    2    1    2    0  504 -0.18868705232E+03 -0.42338353402E+02 -0.17991880147E+04  0.18178422833E+04  0.17342927892E+03 0.  0.
        -24    2    3    3    0    0 -0.21599310076E+03 -0.26702079817E+02 -0.15627737964E+04  0.15792969292E+04  0.67459849437E+02 0.  0.
          6    2    1    2  502    0  0.18868705232E+03  0.42338353402E+02 -0.65847645061E+03  0.70731137803E+03  0.17118063442E+03 0.  0.
         24    2    5    5    0    0  0.19539381449E+03  0.27984351405E+02 -0.44271455240E+03  0.49091751317E+03  0.77730066020E+02 0.  0.
          4    1    6    6  501    0  0.18411814021E+03  0.45548176631E+02 -0.37792719059E+03  0.42285114088E+03  0.00000000000E+00 0. -1.
         -3    1    6    6    0  501  0.11275674272E+02 -0.17563825226E+02 -0.64787361810E+02  0.68066372293E+02  0.00000000000E+00 0.  1.
          5    1    5    5  502    0 -0.67067621630E+01  0.14354001997E+02 -0.21576189821E+03  0.21639386486E+03  0.47000000000E+01 0. -1.
         13    1    4    4    0    0 -0.81997897456E+02 -0.39505411423E+02 -0.52522840523E+03  0.53305647954E+03  0.00000000000E+00 0. -1.
        -14    1    4    4    0    0 -0.13399520331E+03  0.12803331606E+02 -0.10375453912E+04  0.10462404497E+04  0.00000000000E+00 0.  1.
         -5    1    3    3    0  504  0.27306048439E+02 -0.15636273585E+02 -0.23641421833E+03  0.23854535409E+03  0.47000000000E+01 0.  1.
<mgrwt>
<rscale>  2 0.25938097E+03</rscale>
<asrwt>0</asrwt>
<pdfrwt beam="1">  1       21 0.51914763E-02 0.25975576E+03</pdfrwt>
<pdfrwt beam="2">  1       21 0.38329372E+00 0.25975576E+03</pdfrwt>
<totfact> 0.25698883E+03</totfact>
</mgrwt>
</event>
<event>
12    1  0.2742799E-001  0.1743479E+03  0.7546771E-02  0.1173705E+00
         21   -1    0    0  502  503  0.00000000000E+00  0.00000000000E+00  0.62987688524E+02  0.62987688524E+02  0.00000000000E+00 0. -1.
         21   -1    0    0  503  504 -0.00000000000E+00 -0.00000000000E+00 -0.57086735097E+03  0.57086735097E+03  0.00000000000E+00 0. -1.
         -6    2    1    2    0  504 -0.13580494114E+02  0.43330042003E+01 -0.38021862775E+03  0.41776589510E+03  0.17250777801E+03 0.  0.
        -24    2    3    3    0    0  0.15912763711E+02  0.99861611455E+01 -0.74638589798E+02  0.11067786206E+03  0.79534461714E+02 0.  0.
          6    2    1    2  502    0  0.13580494114E+02 -0.43330042003E+01 -0.12766103470E+03  0.21608914440E+03  0.17376413266E+03 0.  0.
         24    2    5    5    0    0  0.58747964555E+02  0.36629114370E+02 -0.10906641060E+03  0.15216852496E+03  0.80416184371E+02 0.  0.
          2    1    6    6  501    0  0.23559407677E+02  0.33945329964E+02 -0.42113785744E+01  0.41533923797E+02  0.00000000000E+00 0. -1.
         -1    1    6    6    0  501  0.35188556878E+02  0.26837844065E+01 -0.10485503202E+03  0.11063460116E+03  0.00000000000E+00 0.  1.
          5    1    5    5  502    0 -0.45167470442E+02 -0.40962118571E+02 -0.18594624102E+02  0.63920619438E+02  0.47000000000E+01 0. -1.
         11    1    4    4    0    0  0.94740532151E+00  0.13291649284E+02 -0.88809937580E+02  0.89804067449E+02  0.00000000000E+00 0. -1.
        -12    1    4    4    0    0  0.14965358389E+02 -0.33054881386E+01  0.14171347782E+02  0.20873794612E+02  0.00000000000E+00 0.  1.
         -5    1    3    3    0  504 -0.29493257824E+02 -0.56531569452E+01 -0.30558003795E+03  0.30708803303E+03  0.47000000000E+01 0.  1.
<mgrwt>
<rscale>  2 0.17403399E+03</rscale>
<asrwt>0</asrwt>
<pdfrwt beam="1">  1       21 0.96904136E-02 0.17434787E+03</pdfrwt>
<pdfrwt beam="2">  1       21 0.87825746E-01 0.17434787E+03</pdfrwt>
<totfact> 0.96066655E+04</totfact>
</mgrwt>
</event>
<event>
12    1  0.2742799E-001  0.2637347E+03  0.7546771E-02  0.1104987E+00
         21   -1    0    0  502  503  0.00000000000E+00  0.00000000000E+00  0.40572954607E+02  0.40572954607E+02  0.00000000000E+00 0. -1.
         21   -1    0    0  503  504 -0.00000000000E+00 -0.00000000000E+00 -0.27266904846E+04  0.27266904846E+04  0.00000000000E+00 0.  1.
         -6    2    1    2    0  504 -0.16635364916E+03  0.10804592755E+03 -0.21866374489E+04  0.22024304384E+04  0.17311569628E+03 0.  0.
        -24    2    3    3    0    0 -0.81319198999E+02  0.10240363582E+03 -0.17871665615E+04  0.17939432623E+04  0.84668726399E+02 0.  0.
          6    2    1    2  502    0  0.16635364916E+03 -0.10804592755E+03 -0.49948008117E+03  0.56483300082E+03  0.17380595007E+03 0.  0.
         24    2    5    5    0    0  0.89402935867E+02 -0.25105229878E+02 -0.13524204497E+03  0.18339885365E+03  0.81985189429E+02 0.  0.
          2    1    6    6  501    0  0.98698491689E+02 -0.25187668018E+02 -0.86070869987E+02  0.13335668541E+03  0.00000000000E+00 0. -1.
         -1    1    6    6    0  501 -0.92955558225E+01  0.82438140346E-01 -0.49171174980E+02  0.50042168248E+02  0.00000000000E+00 0.  1.
          5    1    5    5  502    0  0.76950713296E+02 -0.82940697667E+02 -0.36423803621E+03  0.38143414717E+03  0.47000000000E+01 0. -1.
         13    1    4    4    0    0 -0.13275060733E+02 -0.10597308594E+02 -0.44165101735E+03  0.44197754616E+03  0.00000000000E+00 0. -1.
        -14    1    4    4    0    0 -0.68044138266E+02  0.11300094442E+03 -0.13455155441E+04  0.13519657162E+04  0.00000000000E+00 0.  1.
         -5    1    3    3    0  504 -0.85034450164E+02  0.56422917206E+01 -0.39947088737E+03  0.40848717608E+03  0.47000000000E+01 0.  1.
<mgrwt>
<rscale>  2 0.26362099E+03</rscale>
<asrwt>0</asrwt>
<pdfrwt beam="1">  1       21 0.62419902E-02 0.26373465E+03</pdfrwt>
<pdfrwt beam="2">  1       21 0.41949104E+00 0.26373465E+03</pdfrwt>
<totfact> 0.11020074E+03</totfact>
</mgrwt>
</event>
<event>
12    1  0.2742799E-001  0.2088908E+03  0.7546771E-02  0.1142873E+00
         21   -1    0    0  502  503  0.00000000000E+00  0.00000000000E+00  0.18777303898E+03  0.18777303898E+03  0.00000000000E+00 0. -1.
         21   -1    0    0  503  504 -0.00000000000E+00 -0.00000000000E+00 -0.53025497990E+03  0.53025497990E+03  0.00000000000E+00 0. -1.
         -6    2    1    2    0  504 -0.10267012813E+03  0.48207421822E+02 -0.44176261996E+03  0.48866099151E+03  0.17541448488E+03 0.  0.
        -24    2    3    3    0    0 -0.52107532917E+02  0.74068879969E+02 -0.15698191143E+03  0.19823452405E+03  0.80325662419E+02 0.  0.
          6    2    1    2  502    0  0.10267012813E+03 -0.48207421822E+02  0.99280679044E+02  0.22936702737E+03  0.17287992736E+03 0.  0.
         24    2    5    5    0    0  0.99296329496E+02  0.23680860141E+02  0.87304688269E+02  0.15625873813E+03  0.79838214281E+02 0.  0.
          2    1    6    6  501    0  0.72472213836E+02  0.37096182428E+02  0.95180201815E+02  0.12525022693E+03  0.00000000000E+00 0. -1.
         -1    1    6    6    0  501  0.26824115660E+02 -0.13415322287E+02 -0.78755135462E+01  0.31008511197E+02  0.00000000000E+00 0.  1.
          5    1    5    5  502    0  0.33737986338E+01 -0.71888281963E+02  0.11975990775E+02  0.73108289242E+02  0.47000000000E+01 0. -1.
         13    1    4    4    0    0 -0.64113905456E+02  0.29035310573E+02 -0.11835878551E+03  0.13770419108E+03  0.00000000000E+00 0. -1.
        -14    1    4    4    0    0  0.12006372539E+02  0.45033569396E+02 -0.38623125919E+02  0.60530332973E+02  0.00000000000E+00 0.  1.
         -5    1    3    3    0  504 -0.50562595213E+02 -0.25861458147E+02 -0.28478070853E+03  0.29042646746E+03  0.47000000000E+01 0.  1.
<mgrwt>
<rscale>  2 0.20835778E+03</rscale>
<asrwt>0</asrwt>
<pdfrwt beam="1">  1       21 0.28888160E-01 0.20889077E+03</pdfrwt>
<pdfrwt beam="2">  1       21 0.81577689E-01 0.20889077E+03</pdfrwt>
<totfact> 0.14934838E+04</totfact>
</mgrwt>
</event>
<event>
12    1  0.2742799E-001  0.2126940E+03  0.7546771E-02  0.1140009E+00
         21   -1    0    0  502  503  0.00000000000E+00  0.00000000000E+00  0.80801595107E+02  0.80801595107E+02  0.00000000000E+00 0.  1.
         21   -1    0    0  503  504 -0.00000000000E+00 -0.00000000000E+00 -0.11525711338E+04  0.11525711338E+04  0.00000000000E+00 0.  1.
         -6    2    1    2    0  504  0.39869417783E+02 -0.11419870755E+03 -0.98262025339E+03  0.10053761888E+04  0.17495085958E+03 0.  0.
        -24    2    3    3    0    0  0.13166289802E+02  0.10820116635E+02 -0.45169488873E+03  0.45925660818E+03  0.81227664904E+02 0.  0.
          6    2    1    2  502    0 -0.39869417783E+02  0.11419870755E+03 -0.89149285287E+02  0.22799654013E+03  0.17147568914E+03 0.  0.
         24    2    5    5    0    0 -0.20681542435E+02  0.13844107137E+03 -0.10549976576E+03  0.19270780290E+03  0.80077714026E+02 0.  0.
          2    1    6    6  501    0 -0.17851129920E+02 -0.26773460767E+01 -0.30678178554E+01  0.18309629374E+02  0.00000000000E+00 0. -1.
         -1    1    6    6    0  501 -0.28304125157E+01  0.14111841745E+03 -0.10243194790E+03  0.17439817353E+03  0.00000000000E+00 0.  1.
          5    1    5    5  502    0 -0.19187875347E+02 -0.24242363819E+02  0.16350480472E+02  0.35288737233E+02  0.47000000000E+01 0. -1.
         11    1    4    4    0    0 -0.34807271103E+01  0.23032692311E+02 -0.34955149386E+02  0.42005747761E+02  0.00000000000E+00 0. -1.
        -12    1    4    4    0    0  0.16647016912E+02 -0.12212575676E+02 -0.41673973934E+03  0.41725086042E+03  0.00000000000E+00 0.  1.
         -5    1    3    3    0  504  0.26703127980E+02 -0.12501882419E+03 -0.53092536466E+03  0.54611958057E+03  0.47000000000E+01 0.  1.
<mgrwt>
<rscale>  2 0.21197805E+03</rscale>
<asrwt>0</asrwt>
<pdfrwt beam="1">  1       21 0.12431015E-01 0.21269396E+03</pdfrwt>
<pdfrwt beam="2">  1       21 0.17731863E+00 0.21269396E+03</pdfrwt>
<totfact> 0.10293985E+04</totfact>
</mgrwt>
</event>
<event>
12    1  0.2742799E-001  0.1789167E+03  0.7546771E-02  0.1172253E+00
         21   -1    0    0  502  503  0.00000000000E+00  0.00000000000E+00  0.95493374789E+02  0.95493374789E+02  0.00000000000E+00 0.  1.
         21   -1    0    0  503  504 -0.00000000000E+00 -0.00000000000E+00 -0.34052081043E+03  0.34052081043E+03  0.00000000000E+00 0.  1.
         -6    2    1    2    0  504 -0.27938145705E+02 -0.25812391210E+02 -0.19137456035E+03  0.26198361963E+03  0.17482670013E+03 0.  0.
        -24    2    3    3    0    0 -0.72183243589E+02  0.18589674136E+02 -0.77706394396E+02  0.13209245732E+03  0.76512331764E+02 0.  0.
          6    2    1    2  502    0  0.27938145705E+02  0.25812391210E+02 -0.53652875295E+02  0.17403056559E+03  0.16112475666E+03 0.  0.
         24    2    5    5    0    0  0.57599170181E+02  0.57623785718E+02 -0.61162886730E+02  0.12964327614E+03  0.80176774996E+02 0.  0.
          4    1    6    6  501    0  0.50364117366E+02  0.10825226291E+02  0.96805920785E+00  0.51523460491E+02  0.00000000000E+00 0. -1.
         -3    1    6    6    0  501  0.72350528146E+01  0.46798559426E+02 -0.62130945938E+02  0.78119815647E+02  0.00000000000E+00 0.  1.
          5    1    5    5  502    0 -0.29661024476E+02 -0.31811394508E+02  0.75100114352E+01  0.44387289456E+02  0.47000000000E+01 0. -1.
         13    1    4    4    0    0  0.15869288441E+02  0.47095319250E+01 -0.19743244229E+02  0.25764504638E+02  0.00000000000E+00 0. -1.
        -14    1    4    4    0    0 -0.88052532030E+02  0.13880142211E+02 -0.57963150168E+02  0.10632795268E+03  0.00000000000E+00 0.  1.
         -5    1    3    3    0  504  0.44245097884E+02 -0.44402065346E+02 -0.11366816595E+03  0.12989116230E+03  0.47000000000E+01 0.  1.
<mgrwt>
<rscale>  2 0.17547809E+03</rscale>
<asrwt>0</asrwt>
<pdfrwt beam="1">  1       21 0.14691289E-01 0.17891673E+03</pdfrwt>
<pdfrwt beam="2">  1       21 0.52387816E-01 0.17891673E+03</pdfrwt>
<totfact> 0.14145183E+05</totfact>
</mgrwt>
</event>
<event>
12    1  0.2742799E-001  0.1830651E+03  0.7546771E-02  0.1165025E+00
         21   -1    0    0  502  503  0.00000000000E+00  0.00000000000E+00  0.88865626128E+02  0.88865626128E+02  0.00000000000E+00 0.  1.
         21   -1    0    0  503  504 -0.00000000000E+00 -0.00000000000E+00 -0.37583765672E+03  0.37583765672E+03  0.00000000000E+00 0.  1.
         -6    2    1    2    0  504 -0.54583122713E+02 -0.42512376566E+01 -0.14047675818E+03  0.23075217580E+03  0.17468673889E+03 0.  0.
        -24    2    3    3    0    0 -0.62041243630E+02  0.52606395608E+02 -0.12685416413E+03  0.17162452494E+03  0.82136775162E+02 0.  0.
          6    2    1    2  502    0  0.54583122713E+02  0.42512376566E+01 -0.14649527241E+03  0.23395110704E+03  0.17399673946E+03 0.  0.
         24    2    5    5    0    0  0.61889703391E+02  0.35408988111E+02 -0.26484157926E+02  0.10965730537E+03  0.78988493942E+02 0.  0.
          4    1    6    6  501    0 -0.16195107757E+02  0.32080122512E+01  0.80970735676E+01  0.18388459920E+02  0.00000000000E+00 0. -1.
         -3    1    6    6    0  501  0.78084811147E+02  0.32200975859E+02 -0.34581231493E+02  0.91268845450E+02  0.00000000000E+00 0.  1.
          5    1    5    5  502    0 -0.73065806777E+01 -0.31157750454E+02 -0.12001111448E+03  0.12429380167E+03  0.47000000000E+01 0. -1.
         13    1    4    4    0    0 -0.21687422575E+01  0.17707895643E+02  0.83475007316E+01  0.19696542325E+02  0.00000000000E+00 0. -1.
        -14    1    4    4    0    0 -0.59872501373E+02  0.34898499964E+02 -0.13520166486E+03  0.15192798262E+03  0.00000000000E+00 0.  1.
         -5    1    3    3    0  504  0.74581209172E+01 -0.56857633264E+02 -0.13622594051E+02  0.59127650864E+02  0.47000000000E+01 0.  1.
<mgrwt>
<rscale>  2 0.18290035E+03</rscale>
<asrwt>0</asrwt>
<pdfrwt beam="1">  1       21 0.13671635E-01 0.18306514E+03</pdfrwt>
<pdfrwt beam="2">  1       21 0.57821177E-01 0.18306514E+03</pdfrwt>
<totfact> 0.13061380E+05</totfact>
</mgrwt>
</event>
<event>
12    1  0.2742799E-001  0.1953597E+03  0.7546771E-02  0.1153913E+00
         21   -1    0    0  502  503  0.00000000000E+00  0.00000000000E+00  0.42949356656E+03  0.42949356656E+03  0.00000000000E+00 0.  1.
         21   -1    0    0  503  504 -0.00000000000E+00 -0.00000000000E+00 -0.11513116047E+03  0.11513116047E+03  0.00000000000E+00 0.  1.
         -6    2    1    2    0  504  0.62897609979E+02 -0.65483009637E+02  0.26364769410E+02  0.19713070295E+03  0.17297768379E+03 0.  0.
        -24    2    3    3    0    0 -0.31923505994E+01  0.18018653671E+02 -0.14452865980E+02  0.82987897558E+02  0.79644477672E+02 0.  0.
          6    2    1    2  502    0 -0.62897609979E+02  0.65483009637E+02  0.28799763669E+03  0.34749402408E+03  0.17194570114E+03 0.  0.
         24    2    5    5    0    0 -0.10358032971E+03  0.68060939628E+02  0.18285895798E+03  0.23463144760E+03  0.79078072082E+02 0.  0.
          2    1    6    6  501    0 -0.17041512308E+02 -0.19633815681E+01 -0.35450052925E+01  0.17516708351E+02  0.00000000000E+00 0. -1.
         -1    1    6    6    0  501 -0.86538817404E+02  0.70024321196E+02  0.18640396327E+03  0.21711473925E+03  0.00000000000E+00 0.  1.
          5    1    5    5  502    0  0.40682719733E+02 -0.25779299915E+01  0.10513867871E+03  0.11286257647E+03  0.47000000000E+01 0. -1.
         13    1    4    4    0    0  0.21044083158E+02 -0.81928305349E+01  0.22309539041E+02  0.31744156004E+02  0.00000000000E+00 0. -1.
        -14    1    4    4    0    0 -0.24236433758E+02  0.26211484206E+02 -0.36762405022E+02  0.51243741555E+02  0.00000000000E+00 0.  1.
         -5    1    3    3    0  504  0.66089960578E+02 -0.83501663308E+02  0.40817635390E+02  0.11414280539E+03  0.47000000000E+01 0.  1.
<mgrwt>
<rscale>  2 0.19513101E+03</rscale>
<asrwt>0</asrwt>
<pdfrwt beam="1">  1       21 0.66075933E-01 0.19535970E+03</pdfrwt>
<pdfrwt beam="2">  1       21 0.17712486E-01 0.19535970E+03</pdfrwt>
<totfact> 0.60747839E+04</totfact>
</mgrwt>
</event>
<event>
12    1  0.2742799E-001  0.1852308E+03  0.7546771E-02  0.1163034E+00
         21   -1    0    0  502  503  0.00000000000E+00  0.00000000000E+00  0.39975749898E+03  0.39975749898E+03  0.00000000000E+00 0. -1.
         21   -1    0    0  503  504 -0.00000000000E+00 -0.00000000000E+00 -0.85608605285E+02  0.85608605285E+02  0.00000000000E+00 0. -1.
         -6    2    1    2    0  504 -0.41995231703E+02 -0.52324931098E+02  0.14575264206E+03  0.23503083966E+03  0.17173865325E+03 0.  0.
        -24    2    3    3    0    0 -0.75971167932E+02 -0.47706873990E+02  0.15767590365E+03  0.19842558237E+03  0.80395627776E+02 0.  0.
          6    2    1    2  502    0  0.41995231703E+02  0.52324931098E+02  0.16839625164E+03  0.25033526461E+03  0.17265268386E+03 0.  0.
         24    2    5    5    0    0  0.61148715816E+02 -0.17468591914E+02  0.13252228180E+03  0.16942158518E+03  0.84244888279E+02 0.  0.
          2    1    6    6  501    0  0.45478018126E+02  0.49438886146E+01  0.13443702054E+03  0.14200705848E+03  0.00000000000E+00 0. -1.
         -1    1    6    6    0  501  0.15670697690E+02 -0.22412480529E+02 -0.19147387382E+01  0.27414526696E+02  0.00000000000E+00 0.  1.
          5    1    5    5  502    0 -0.19153484113E+02  0.69793523012E+02  0.35873969837E+02  0.80913679437E+02  0.47000000000E+01 0. -1.
         11    1    4    4    0    0  0.14250255041E+02 -0.22749374046E+02  0.34199091327E+02  0.43476219199E+02  0.00000000000E+00 0. -1.
        -12    1    4    4    0    0 -0.90221422973E+02 -0.24957499944E+02  0.12347681232E+03  0.15494936317E+03  0.00000000000E+00 0.  1.
         -5    1    3    3    0  504  0.33975936229E+02 -0.46180571084E+01 -0.11923261583E+02  0.36605257285E+02  0.47000000000E+01 0.  1.
<mgrwt>
<rscale>  2 0.18501751E+03</rscale>
<asrwt>0</asrwt>
<pdfrwt beam="1">  1       21 0.61501152E-01 0.18523079E+03</pdfrwt>
<pdfrwt beam="2">  1       21 0.13170555E-01 0.18523079E+03</pdfrwt>
<totfact> 0.12231696E+05</totfact>
</mgrwt>
</event>
<event>
12    1  0.2742799E-001  0.2067209E+03  0.7546771E-02  0.1144939E+00
         21   -1    0    0  502  503  0.00000000000E+00  0.00000000000E+00  0.62333917507E+02  0.62333917507E+02  0.00000000000E+00 0. -1.
         21   -1    0    0  503  504 -0.00000000000E+00 -0.00000000000E+00 -0.82658432783E+03  0.82658432783E+03  0.00000000000E+00 0.  1.
         -6    2    1    2    0  504 -0.11353564515E+03 -0.37767515233E+01 -0.57623195812E+03  0.61219017205E+03  0.17271053998E+03 0.  0.
        -24    2    3    3    0    0 -0.61321830384E+02 -0.47779629731E+02 -0.19510852833E+03  0.22496969934E+03  0.80627339644E+02 0.  0.
          6    2    1    2  502    0  0.11353564515E+03  0.37767515233E+01 -0.18801845221E+03  0.27672807329E+03  0.16829403319E+03 0.  0.
         24    2    5    5    0    0 -0.88579255101E+01  0.63536543367E+01 -0.89344850730E+02  0.11942137860E+03  0.78486505505E+02 0.  0.
          4    1    6    6  501    0  0.15699887973E+02 -0.30625454847E+02 -0.45270236019E+02  0.56866503640E+02  0.00000000000E+00 0. -1.
         -3    1    6    6    0  501 -0.24557813484E+02  0.36979109183E+02 -0.44074614711E+02  0.62554874958E+02  0.00000000000E+00 0.  1.
          5    1    5    5  502    0  0.12239357066E+03 -0.25769028133E+01 -0.98673601477E+02  0.15730669470E+03  0.47000000000E+01 0. -1.
         13    1    4    4    0    0 -0.70659500539E+02 -0.51802656180E+02 -0.19607185233E+03  0.21475672628E+03  0.00000000000E+00 0. -1.
        -14    1    4    4    0    0  0.93376701553E+01  0.40230264494E+01  0.96332400550E+00  0.10212973068E+02  0.00000000000E+00 0.  1.
         -5    1    3    3    0  504 -0.52213814770E+02  0.44002878208E+02 -0.38112342979E+03  0.38722047270E+03  0.47000000000E+01 0.  1.
<mgrwt>
<rscale>  2 0.20579588E+03</rscale>
<asrwt>0</asrwt>
<pdfrwt beam="1">  1       21 0.95898334E-02 0.20672092E+03</pdfrwt>
<pdfrwt beam="2">  1       21 0.12716682E+00 0.20672092E+03</pdfrwt>
<totfact> 0.39603824E+04</totfact>
</mgrwt>
</event>
<event>
12    1  0.2742799E-001  0.2197776E+03  0.7546771E-02  0.1134073E+00
         21   -1    0    0  502  503  0.00000000000E+00  0.00000000000E+00  0.21188025073E+03  0.21188025073E+03  0.00000000000E+00 0.  1.
         21   -1    0    0  503  504 -0.00000000000E+00 -0.00000000000E+00 -0.56198903868E+03  0.56198903868E+03  0.00000000000E+00 0.  1.
         -6    2    1    2    0  504  0.68294553221E+01  0.13534679311E+03 -0.47339709058E+03  0.52187283717E+03  0.17286138071E+03 0.  0.
        -24    2    3    3    0    0 -0.41863894386E+01  0.12204520787E+02 -0.28834145276E+03  0.29926769986E+03  0.79081518791E+02 0.  0.
          6    2    1    2  502    0 -0.68294553221E+01 -0.13534679311E+03  0.12328830262E+03  0.25199645224E+03  0.17302257227E+03 0.  0.
         24    2    5    5    0    0 -0.15674608846E+02 -0.16628115541E+03  0.11600363982E+03  0.21867487028E+03  0.80416033431E+02 0.  0.
          2    1    6    6  501    0 -0.26323383593E+02 -0.14552202143E+03  0.62962378329E+02  0.16072908987E+03  0.00000000000E+00 0. -1.
         -1    1    6    6    0  501  0.10648774747E+02 -0.20759133984E+02  0.53041261486E+02  0.57945780411E+02  0.00000000000E+00 0.  1.
          5    1    5    5  502    0  0.88451535235E+01  0.30934362308E+02  0.72846628087E+01  0.33321581963E+02  0.47000000000E+01 0. -1.
         11    1    4    4    0    0  0.32564826208E+01 -0.15895186502E+02 -0.25294507198E+03  0.25346493066E+03  0.00000000000E+00 0. -1.
        -12    1    4    4    0    0 -0.74428720594E+01  0.28099707289E+02 -0.35396380774E+02  0.45802769197E+02  0.00000000000E+00 0.  1.
         -5    1    3    3    0  504  0.11015844761E+02  0.12314227232E+03 -0.18505563782E+03  0.22260513731E+03  0.47000000000E+01 0.  1.
<mgrwt>
<rscale>  2 0.21974590E+03</rscale>
<asrwt>0</asrwt>
<pdfrwt beam="1">  1       21 0.32596962E-01 0.21977763E+03</pdfrwt>
<pdfrwt beam="2">  1       21 0.86459851E-01 0.21977763E+03</pdfrwt>
<totfact> 0.10248912E+04</totfact>
</mgrwt>
</event>
<event>
12    1  0.2742799E-001  0.1834502E+03  0.7546771E-02  0.1164771E+00
         21   -1    0    0  502  503  0.00000000000E+00  0.00000000000E+00  0.65479066567E+02  0.65479066567E+02  0.00000000000E+00 0. -1.
         21   -1    0    0  503  504 -0.00000000000E+00 -0.00000000000E+00 -0.63084048130E+03  0.63084048130E+03  0.00000000000E+00 0. -1.
         -6    2    1    2    0  504  0.43418398083E+02 -0.38428623851E+02 -0.43383817857E+03  0.47059332353E+03  0.17286004322E+03 0.  0.
        -24    2    3    3    0    0  0.94772470328E+02 -0.38289092205E+02 -0.32704910342E+03  0.35200472047E+03  0.80612229022E+02 0.  0.
          6    2    1    2  502    0 -0.43418398083E+02  0.38428623851E+02 -0.13152323617E+03  0.22572622434E+03  0.17404611538E+03 0.  0.
         24    2    5    5    0    0  0.23443897038E+02 -0.44873328980E+01 -0.16563103045E+02  0.85903951223E+02  0.80841820789E+02 0.  0.
          4    1    6    6  501    0  0.54500213569E+01 -0.11027319730E+02  0.31688851872E+02  0.33992467492E+02  0.00000000000E+00 0. -1.
         -3    1    6    6    0  501  0.17993875681E+02  0.65399868322E+01 -0.48251954918E+02  0.51911483731E+02  0.00000000000E+00 0.  1.
          5    1    5    5  502    0 -0.66862295121E+02  0.42915956749E+02 -0.11496013312E+03  0.13982227312E+03  0.47000000000E+01 0. -1.
         13    1    4    4    0    0  0.31365947399E+02 -0.17950073721E+02 -0.23844522681E+03  0.24116831050E+03  0.00000000000E+00 0. -1.
        -14    1    4    4    0    0  0.63406522929E+02 -0.20339018485E+02 -0.88603876611E+02  0.11083640996E+03  0.00000000000E+00 0.  1.
         -5    1    3    3    0  504 -0.51354072245E+02 -0.13953164587E+00 -0.10678907515E+03  0.11858860306E+03  0.47000000000E+01 0.  1.
<mgrwt>
<rscale>  2 0.18316830E+03</rscale>
<asrwt>0</asrwt>
<pdfrwt beam="1">  1       21 0.10073702E-01 0.18345017E+03</pdfrwt>
<pdfrwt beam="2">  1       21 0.97052385E-01 0.18345017E+03</pdfrwt>
<totfact> 0.70862482E+04</totfact>
</mgrwt>
</event>
<event>
12    1  0.2742799E-001  0.1821096E+03  0.7546771E-02  0.1166380E+00
         21   -1    0    0  502  503  0.00000000000E+00  0.00000000000E+00  0.19225454336E+03  0.19225454336E+03  0.00000000000E+00 0. -1.
         21   -1    0    0  503  504 -0.00000000000E+00 -0.00000000000E+00 -0.51590523904E+03  0.51590523904E+03  0.00000000000E+00 0. -1.
         -6    2    1    2    0  504  0.16649416502E+02  0.50792207823E+02 -0.45207158144E+03  0.48737319617E+03  0.17408867325E+03 0.  0.
        -24    2    3    3    0    0  0.71211013563E+02  0.12326033634E+02 -0.21489909422E+03  0.24093964909E+03  0.81531308414E+02 0.  0.
          6    2    1    2  502    0 -0.16649416502E+02 -0.50792207823E+02  0.12842088576E+03  0.22078658623E+03  0.17145769541E+03 0.  0.
         24    2    5    5    0    0 -0.29236119125E+02 -0.82491371632E+02  0.14085428698E+03  0.18418137438E+03  0.80145314594E+02 0.  0.
          2    1    6    6  501    0 -0.37150410610E+02 -0.94746793472E+02  0.10888349339E+03  0.14903933378E+03  0.00000000000E+00 0. -1.
         -1    1    6    6    0  501  0.79142914848E+01  0.12255421840E+02  0.31970793597E+02  0.35142040598E+02  0.00000000000E+00 0.  1.
          5    1    5    5  502    0  0.12586702623E+02  0.31699163809E+02 -0.12433401220E+02  0.36605211856E+02  0.47000000000E+01 0. -1.
         11    1    4    4    0    0  0.41673158601E+02  0.39064099819E+02 -0.17685744625E+03  0.18585266298E+03  0.00000000000E+00 0. -1.
        -12    1    4    4    0    0  0.29537854961E+02 -0.26738066185E+02 -0.38041647970E+02  0.55086986115E+02  0.00000000000E+00 0.  1.
         -5    1    3    3    0  504 -0.54561597061E+02  0.38466174189E+02 -0.23717248722E+03  0.24643354708E+03  0.47000000000E+01 0.  1.
<mgrwt>
<rscale>  2 0.18147799E+03</rscale>
<asrwt>0</asrwt>
<pdfrwt beam="1">  1       21 0.29577623E-01 0.18210963E+03</pdfrwt>
<pdfrwt beam="2">  1       21 0.79370035E-01 0.18210963E+03</pdfrwt>
<totfact> 0.15441244E+04</totfact>
</mgrwt>
</event>
<event>
12    1  0.2742799E-001  0.2992539E+03  0.7546771E-02  0.1085644E+00
         21   -1    0    0  502  503  0.00000000000E+00  0.00000000000E+00  0.13243005802E+04  0.13243005802E+04  0.00000000000E+00 0. -1.
         21   -1    0    0  503  504 -0.00000000000E+00 -0.00000000000E+00 -0.20437481754E+03  0.20437481754E+03  0.00000000000E+00 0.  1.
         -6    2    1    2    0  504  0.14357810736E+02  0.24308999041E+03 -0.65313777303E+02  0.30629856281E+03  0.17393685610E+03 0.  0.
        -24    2    3    3    0    0  0.12535881694E+02  0.26168741495E+03 -0.45146194652E+02  0.27840582155E+03  0.82669045641E+02 0.  0.
          6    2    1    2  502    0 -0.14357810736E+02 -0.24308999041E+03  0.11852395399E+04  0.12223768349E+04  0.17353232933E+03 0.  0.
         24    2    5    5    0    0 -0.47054000669E+02 -0.24518684094E+03  0.11072752803E+04  0.11376776413E+04  0.76949354700E+02 0.  0.
          2    1    6    6  501    0 -0.58824533377E+02 -0.21558918133E+03  0.10323973485E+04  0.10563064451E+04  0.00000000000E+00 0. -1.
         -1    1    6    6    0  501  0.11770532708E+02 -0.29597659606E+02  0.74877931792E+02  0.81371196156E+02  0.00000000000E+00 0.  1.
          5    1    5    5  502    0  0.32696189933E+02  0.20968505258E+01  0.77964259658E+02  0.84699193634E+02  0.47000000000E+01 0. -1.
         11    1    4    4    0    0  0.98560054688E+01  0.15609616097E+01 -0.12848283185E+02  0.16268245933E+02  0.00000000000E+00 0. -1.
        -12    1    4    4    0    0  0.26798762252E+01  0.26012645334E+03 -0.32297911467E+02  0.26213757562E+03  0.00000000000E+00 0.  1.
         -5    1    3    3    0  504  0.18219290416E+01 -0.18597424544E+02 -0.20167582650E+02  0.27892741261E+02  0.47000000000E+01 0.  1.
<mgrwt>
<rscale>  2 0.29919519E+03</rscale>
<asrwt>0</asrwt>
<pdfrwt beam="1">  1       21 0.20373855E+00 0.29925394E+03</pdfrwt>
<pdfrwt beam="2">  1       21 0.31442280E-01 0.29925394E+03</pdfrwt>
<totfact> 0.11229696E+03</totfact>
</mgrwt>
</event>
<event>
12    1  0.2742799E-001  0.1798459E+03  0.7546771E-02  0.1168154E+00
         21   -1    0    0  502  503  0.00000000000E+00  0.00000000000E+00  0.63459440627E+03  0.63459440627E+03  0.00000000000E+00 0.  1.
         21   -1    0    0  503  504 -0.00000000000E+00 -0.00000000000E+00 -0.53864329423E+02  0.53864329423E+02  0.00000000000E+00 0.  1.
         -6    2    1    2    0  504  0.24276132419E+02  0.38508268196E+02  0.37271786437E+03  0.41347937999E+03  0.17313108886E+03 0.  0.
        -24    2    3    3    0    0  0.60846120771E+02  0.41525253964E+02  0.35708249768E+03  0.37331694800E+03  0.80193742823E+02 0.  0.
          6    2    1    2  502    0 -0.24276132419E+02 -0.38508268196E+02  0.20801221248E+03  0.27497935571E+03  0.17398950600E+03 0.  0.
         24    2    5    5    0    0 -0.57865533202E+02 -0.53640723019E+02  0.21606380835E+03  0.23697728695E+03  0.56999282020E+02 0.  0.
          4    1    6    6  501    0 -0.39407347941E+02 -0.19360963696E+01  0.12015184666E+03  0.12646404152E+03  0.00000000000E+00 0. -1.
         -3    1    6    6    0  501 -0.18458185262E+02 -0.51704626649E+02  0.95911961690E+02  0.11051324543E+03  0.00000000000E+00 0.  1.
          5    1    5    5  502    0  0.33589400783E+02  0.15132454823E+02 -0.80515958714E+01  0.38002068760E+02  0.47000000000E+01 0. -1.
         11    1    4    4    0    0 -0.52875291255E+01  0.39506324173E+02  0.17785561757E+03  0.18226718936E+03  0.00000000000E+00 0. -1.
        -12    1    4    4    0    0  0.66133649897E+02  0.20189297916E+01  0.17922688011E+03  0.19104975865E+03  0.00000000000E+00 0.  1.
         -5    1    3    3    0  504 -0.36569988352E+02 -0.30169857683E+01  0.15635366686E+02  0.40162431981E+02  0.47000000000E+01 0.  1.
<mgrwt>
<rscale>  2 0.17963801E+03</rscale>
<asrwt>0</asrwt>
<pdfrwt beam="1">  1       21 0.97629903E-01 0.17984595E+03</pdfrwt>
<pdfrwt beam="2">  1       21 0.82868204E-02 0.17984595E+03</pdfrwt>
<totfact> 0.98569617E+04</totfact>
</mgrwt>
</event>
<event>
12    1  0.2742799E-001  0.2061161E+03  0.7546771E-02  0.1146652E+00
         21   -1    0    0  502  503  0.00000000000E+00  0.00000000000E+00  0.47292587832E+03  0.47292587832E+03  0.00000000000E+00 0. -1.
         21   -1    0    0  503  504 -0.00000000000E+00 -0.00000000000E+00 -0.10099080405E+03  0.10099080405E+03  0.00000000000E+00 0. -1.
         -6    2    1    2    0  504 -0.99226279210E+02  0.51239107454E+02  0.70782448025E+02  0.20898275597E+03  0.16184046689E+03 0.  0.
        -24    2    3    3    0    0 -0.64413588020E+02  0.11275126901E+02 -0.20195120440E+02  0.10358801619E+03  0.77758571231E+02 0.  0.
          6    2    1    2  502    0  0.99226279210E+02 -0.51239107454E+02  0.30115262624E+03  0.36493392640E+03  0.17324135108E+03 0.  0.
         24    2    5    5    0    0  0.77771555900E+02  0.32814074299E+02  0.16406479530E+03  0.20263665005E+03  0.83780525841E+02 0.  0.
          4    1    6    6  501    0  0.90920068953E+02  0.36366868035E+02  0.11177598452E+03  0.14860309130E+03  0.00000000000E+00 0. -1.
         -3    1    6    6    0  501 -0.13148513053E+02 -0.35527937366E+01  0.52288810781E+02  0.54033558755E+02  0.00000000000E+00 0.  1.
          5    1    5    5  502    0  0.21454723311E+02 -0.84053181752E+02  0.13708783095E+03  0.16229727634E+03  0.47000000000E+01 0. -1.
         11    1    4    4    0    0  0.58460144983E+01  0.24724953706E+02 -0.19536591823E+02  0.32049612187E+02  0.00000000000E+00 0. -1.
        -12    1    4    4    0    0 -0.70259602518E+02 -0.13449826805E+02 -0.65852861694E+00  0.71538404001E+02  0.00000000000E+00 0.  1.
         -5    1    3    3    0  504 -0.34812691191E+02  0.39963980552E+02  0.90977568464E+02  0.10539473978E+03  0.47000000000E+01 0.  1.
<mgrwt>
<rscale>  2 0.20370273E+03</rscale>
<asrwt>0</asrwt>
<pdfrwt beam="1">  1       21 0.72757826E-01 0.20611615E+03</pdfrwt>
<pdfrwt beam="2">  1       21 0.15537047E-01 0.20611615E+03</pdfrwt>
<totfact> 0.62190669E+04</totfact>
</mgrwt>
</event>
<event>
12    1  0.2742799E-001  0.2379207E+03  0.7546771E-02  0.1121432E+00
         21   -1    0    0  502  503  0.00000000000E+00  0.00000000000E+00  0.13577450047E+03  0.13577450047E+03  0.00000000000E+00 0. -1.
         21   -1    0    0  503  504 -0.00000000000E+00 -0.00000000000E+00 -0.56710593752E+03  0.56710593752E+03  0.00000000000E+00 0.  1.
         -6    2    1    2    0  504  0.69429330454E+02 -0.14898730543E+03 -0.39757177493E+03  0.46257651877E+03  0.16998844193E+03 0.  0.
        -24    2    3    3    0    0  0.92136537718E+02 -0.76454533422E+02 -0.17118890669E+03  0.22372946873E+03  0.80092422511E+02 0.  0.
          6    2    1    2  502    0 -0.69429330454E+02  0.14898730543E+03 -0.33759662119E+02  0.24030391923E+03  0.17201339978E+03 0.  0.
         24    2    5    5    0    0  0.12591031159E+02  0.11822528296E+03  0.77438990860E+01  0.14325610968E+03  0.79539885537E+02 0.  0.
          2    1    6    6  501    0 -0.16230689634E+02  0.70753157209E+02 -0.27336970595E+02  0.77567741377E+02  0.00000000000E+00 0. -1.
         -1    1    6    6    0  501  0.28821720793E+02  0.47472125747E+02  0.35080869681E+02  0.65688368300E+02  0.00000000000E+00 0.  1.
          5    1    5    5  502    0 -0.82020361613E+02  0.30762022470E+02 -0.41503561205E+02  0.97047809550E+02  0.47000000000E+01 0. -1.
         11    1    4    4    0    0  0.15105008750E+02 -0.52717063309E+02 -0.33734296144E+02  0.64383637592E+02  0.00000000000E+00 0. -1.
        -12    1    4    4    0    0  0.77031528968E+02 -0.23737470113E+02 -0.13745461055E+03  0.15934583114E+03  0.00000000000E+00 0.  1.
         -5    1    3    3    0  504 -0.22707207264E+02 -0.72532772004E+02 -0.22638286824E+03  0.23884705003E+03  0.47000000000E+01 0.  1.
<mgrwt>
<rscale>  2 0.23755489E+03</rscale>
<asrwt>0</asrwt>
<pdfrwt beam="1">  1       21 0.20888385E-01 0.23792070E+03</pdfrwt>
<pdfrwt beam="2">  1       21 0.87247067E-01 0.23792070E+03</pdfrwt>
<totfact> 0.23422264E+04</totfact>
</mgrwt>
</event>
<event>
12    1  0.2742799E-001  0.2116295E+03  0.7546771E-02  0.1140693E+00
         21   -1    0    0  502  503  0.00000000000E+00  0.00000000000E+00  0.63567951519E+03  0.63567951519E+03  0.00000000000E+00 0. -1.
         21   -1    0    0  503  504 -0.00000000000E+00 -0.00000000000E+00 -0.10684604665E+03  0.10684604665E+03  0.00000000000E+00 0.  1.
         -6    2    1    2    0  504  0.63020710878E+01  0.12384834026E+03  0.46551006108E+02  0.21668879054E+03  0.17149025714E+03 0.  0.
        -24    2    3    3    0    0  0.18527118609E+02  0.15065616522E+03  0.62538804998E+02  0.18283896072E+03  0.80488814028E+02 0.  0.
          6    2    1    2  502    0 -0.63020710878E+01 -0.12384834026E+03  0.48228246243E+03  0.52583677130E+03  0.16890769372E+03 0.  0.
         24    2    5    5    0    0 -0.28226777750E+02 -0.14291077791E+02  0.12680216104E+03  0.15318167446E+03  0.79905265534E+02 0.  0.
          2    1    6    6  501    0 -0.19350313435E+02 -0.22991543321E+02  0.13499220090E+03  0.13829656539E+03  0.00000000000E+00 0. -1.
         -1    1    6    6    0  501 -0.88764643151E+01  0.87004655298E+01 -0.81900398614E+01  0.14885109073E+02  0.00000000000E+00 0.  1.
          5    1    5    5  502    0  0.21924706663E+02 -0.10955726247E+03  0.35548030139E+03  0.37265509683E+03  0.47000000000E+01 0. -1.
         11    1    4    4    0    0 -0.36227059985E+01  0.54364089094E+02  0.63961772170E+02  0.84021940473E+02  0.00000000000E+00 0. -1.
        -12    1    4    4    0    0  0.22149824608E+02  0.96292076124E+02 -0.14229671721E+01  0.98817020244E+02  0.00000000000E+00 0.  1.
         -5    1    3    3    0  504 -0.12225047522E+02 -0.26807824960E+02 -0.15987798889E+02  0.33849829827E+02  0.47000000000E+01 0.  1.
<mgrwt>
<rscale>  2 0.21110572E+03</rscale>
<asrwt>0</asrwt>
<pdfrwt beam="1">  1       21 0.97796846E-01 0.21162948E+03</pdfrwt>
<pdfrwt beam="2">  1       21 0.16437854E-01 0.21162948E+03</pdfrwt>
<totfact> 0.28406859E+04</totfact>
</mgrwt>
</event>
<event>
12    1  0.2742799E-001  0.3790114E+03  0.7546771E-02  0.1051381E+00
         21   -1    0    0  502  503  0.00000000000E+00  0.00000000000E+00  0.27827293293E+03  0.27827293293E+03  0.00000000000E+00 0.  1.
         21   -1    0    0  503  504 -0.00000000000E+00 -0.00000000000E+00 -0.10601986004E+04  0.10601986004E+04  0.00000000000E+00 0. -1.
         -6    2    1    2    0  504 -0.43988454300E+02  0.33461707115E+03 -0.87064405533E+03  0.94921510863E+03  0.17054232015E+03 0.  0.
        -24    2    3    3    0    0  0.37548710576E+02  0.18140329389E+03 -0.41110154507E+03  0.45796753405E+03  0.80079467946E+02 0.  0.
          6    2    1    2  502    0  0.43988454300E+02 -0.33461707115E+03  0.88718387910E+02  0.38925642465E+03  0.17247041300E+03 0.  0.
         24    2    5    5    0    0  0.32258972195E+02 -0.93867041135E+02  0.72004874940E+02  0.14759635509E+03  0.82148154712E+02 0.  0.
          4    1    6    6  501    0  0.47372367268E+02 -0.39826232800E+02  0.78846722336E+01  0.62389406600E+02  0.00000000000E+00 0. -1.
         -3    1    6    6    0  501 -0.15113395073E+02 -0.54040808335E+02  0.64120202706E+02  0.85206948491E+02  0.00000000000E+00 0.  1.
          5    1    5    5  502    0  0.11729482105E+02 -0.24075003001E+03  0.16713512971E+02  0.24166006956E+03  0.47000000000E+01 0. -1.
         13    1    4    4    0    0 -0.23203682523E+02  0.59843447891E+02 -0.16115447206E+03  0.17346588426E+03  0.00000000000E+00 0. -1.
        -14    1    4    4    0    0  0.60752393099E+02  0.12155984599E+03 -0.24994707301E+03  0.28450164979E+03  0.00000000000E+00 0.  1.
         -5    1    3    3    0  504 -0.81537164876E+02  0.15321377726E+03 -0.45954251026E+03  0.49124757458E+03  0.47000000000E+01 0.  1.
<mgrwt>
<rscale>  2 0.37879280E+03</rscale>
<asrwt>0</asrwt>
<pdfrwt beam="1">  1       21 0.42811219E-01 0.37901136E+03</pdfrwt>
<pdfrwt beam="2">  1       21 0.16310748E+00 0.37901136E+03</pdfrwt>
<totfact> 0.10935994E+03</totfact>
</mgrwt>
</event>
<event>
12    1  0.2742799E-001  0.1890003E+03  0.7546771E-02  0.1160395E+00
         21   -1    0    0  502  503  0.00000000000E+00  0.00000000000E+00  0.14389486469E+04  0.14389486469E+04  0.00000000000E+00 0.  1.
         21   -1    0    0  503  504 -0.00000000000E+00 -0.00000000000E+00 -0.58216241422E+02  0.58216241422E+02  0.00000000000E+00 0.  1.
         -6    2    1    2    0  504  0.46019987003E+02 -0.47809463880E+02  0.11506054906E+03  0.21745931904E+03  0.17218025858E+03 0.  0.
        -24    2    3    3    0    0 -0.14057665988E+01 -0.57957661029E+02  0.13167993760E+03  0.16597648611E+03  0.82749751213E+02 0.  0.
          6    2    1    2  502    0 -0.46019987003E+02  0.47809463880E+02  0.12656718565E+04  0.12797055693E+04  0.17696754471E+03 0.  0.
         24    2    5    5    0    0 -0.75900555582E+02 -0.20863195882E+02  0.80495141657E+03  0.81291418518E+03  0.81771157198E+02 0.  0.
          4    1    6    6  501    0 -0.45082594342E+01  0.15073168835E+02  0.30213895905E+02  0.34064707948E+02  0.00000000000E+00 0. -1.
         -3    1    6    6    0  501 -0.71392296148E+02 -0.35936364717E+02  0.77473752066E+03  0.77884947723E+03  0.00000000000E+00 0.  1.
          5    1    5    5  502    0  0.29880568579E+02  0.68672659763E+02  0.46072043990E+03  0.46679138415E+03  0.47000000000E+01 0. -1.
         11    1    4    4    0    0  0.14592956437E+02 -0.74135975555E+02  0.82997611303E+02  0.11223947938E+03  0.00000000000E+00 0. -1.
        -12    1    4    4    0    0 -0.15998723035E+02  0.16178314526E+02  0.48682326294E+02  0.53737006737E+02  0.00000000000E+00 0.  1.
         -5    1    3    3    0  504  0.47425753602E+02  0.10148197149E+02 -0.16619388541E+02  0.51482832921E+02  0.47000000000E+01 0.  1.
<mgrwt>
<rscale>  2 0.18787147E+03</rscale>
<asrwt>0</asrwt>
<pdfrwt beam="1">  1       21 0.22137669E+00 0.18900025E+03</pdfrwt>
<pdfrwt beam="2">  1       21 0.89563459E-02 0.18900025E+03</pdfrwt>
<totfact> 0.97520222E+03</totfact>
</mgrwt>
</event>
<event>
12    1  0.2742799E-001  0.1853498E+03  0.7546771E-02  0.1163097E+00
         21   -1    0    0  502  503  0.00000000000E+00  0.00000000000E+00  0.58967503602E+02  0.58967503602E+02  0.00000000000E+00 0. -1.
         21   -1    0    0  503  504 -0.00000000000E+00 -0.00000000000E+00 -0.95446210461E+03  0.95446210461E+03  0.00000000000E+00 0. -1.
         -6    2    1    2    0  504 -0.64000264095E+02  0.23396301565E+02 -0.76732035146E+03  0.78938904681E+03  0.17236915245E+03 0.  0.
        -24    2    3    3    0    0 -0.10854433003E+03  0.32948083621E+02 -0.59393837961E+03  0.61006027468E+03  0.80890618511E+02 0.  0.
          6    2    1    2  502    0  0.64000264095E+02 -0.23396301565E+02 -0.12817424954E+03  0.22404056140E+03  0.17065202658E+03 0.  0.
         24    2    5    5    0    0 -0.24762355829E+02 -0.32685758273E+02 -0.32976451623E+02  0.93465650221E+02  0.77245377529E+02 0.  0.
          4    1    6    6  501    0 -0.16711945179E+01  0.13112525740E+02 -0.39601479028E+02  0.41749351655E+02  0.00000000000E+00 0. -1.
         -3    1    6    6    0  501 -0.23091161311E+02 -0.45798284014E+02  0.66250274053E+01  0.51716298566E+02  0.00000000000E+00 0.  1.
          5    1    5    5  502    0  0.88762619924E+02  0.92894567088E+01 -0.95197797919E+02  0.13057491118E+03  0.47000000000E+01 0. -1.
         13    1    4    4    0    0 -0.70659671514E+02 -0.10187837750E+02 -0.20881720618E+03  0.22068349919E+03  0.00000000000E+00 0. -1.
        -14    1    4    4    0    0 -0.37884658520E+02  0.43135921370E+02 -0.38512117343E+03  0.38937677549E+03  0.00000000000E+00 0.  1.
         -5    1    3    3    0  504  0.44544065939E+02 -0.95517820561E+01 -0.17338197185E+03  0.17932877213E+03  0.47000000000E+01 0.  1.
<mgrwt>
<rscale>  2 0.18494955E+03</rscale>
<asrwt>0</asrwt>
<pdfrwt beam="1">  1       21 0.90719232E-02 0.18534979E+03</pdfrwt>
<pdfrwt beam="2">  1       21 0.14684033E+00 0.18534979E+03</pdfrwt>
<totfact> 0.30583800E+04</totfact>
</mgrwt>
</event>
<event>
12    1  0.2742799E-001  0.2325679E+03  0.7546771E-02  0.1124860E+00
         21   -1    0    0  502  503  0.00000000000E+00  0.00000000000E+00  0.29860962721E+02  0.29860962721E+02  0.00000000000E+00 0.  1.
         21   -1    0    0  503  504 -0.00000000000E+00 -0.00000000000E+00 -0.19470589471E+04  0.19470589471E+04  0.00000000000E+00 0. -1.
         -6    2    1    2    0  504  0.11761145762E+03 -0.10158184086E+03 -0.12200719179E+04  0.12420236194E+04  0.17290419591E+03 0.  0.
        -24    2    3    3    0    0  0.12874633982E+03 -0.43603032810E+02 -0.64859777074E+03  0.66748874783E+03  0.79908170957E+02 0.  0.
          6    2    1    2  502    0 -0.11761145762E+03  0.10158184086E+03 -0.69712606649E+03  0.73489629042E+03  0.17302161640E+03 0.  0.
         24    2    5    5    0    0 -0.72670864297E+02  0.52940663329E+02 -0.18923472825E+03  0.22268410535E+03  0.75462971373E+02 0.  0.
          4    1    6    6  501    0 -0.37155002883E+02  0.58412421805E+02 -0.16609202262E+03  0.17994183849E+03  0.00000000000E+00 0. -1.
         -3    1    6    6    0  501 -0.35515861414E+02 -0.54717584767E+01 -0.23142705635E+02  0.42742266867E+02  0.00000000000E+00 0.  1.
          5    1    5    5  502    0 -0.44940593327E+02  0.48641177529E+02 -0.50789133823E+03  0.51221218507E+03  0.47000000000E+01 0. -1.
         13    1    4    4    0    0  0.50096798453E+02 -0.27533767358E+02 -0.44468242805E+03  0.44834167704E+03  0.00000000000E+00 0. -1.
        -14    1    4    4    0    0  0.78649541370E+02 -0.16069265452E+02 -0.20391534269E+03  0.21914707079E+03  0.00000000000E+00 0.  1.
         -5    1    3    3    0  504 -0.11134882200E+02 -0.57978808048E+02 -0.57147414716E+03  0.57453487158E+03  0.47000000000E+01 0.  1.
<mgrwt>
<rscale>  2 0.23254601E+03</rscale>
<asrwt>0</asrwt>
<pdfrwt beam="1">  1       21 0.45939928E-02 0.23256785E+03</pdfrwt>
<pdfrwt beam="2">  1       21 0.29954763E+00 0.23256785E+03</pdfrwt>
<totfact> 0.10244982E+04</totfact>
</mgrwt>
</event>
<event>
12    1  0.2742799E-001  0.2173236E+03  0.7546771E-02  0.1135991E+00
         21   -1    0    0  502  503  0.00000000000E+00  0.00000000000E+00  0.70567628466E+02  0.70567628466E+02  0.00000000000E+00 0. -1.
         21   -1    0    0  503  504 -0.00000000000E+00 -0.00000000000E+00 -0.10192603032E+04  0.10192603032E+04  0.00000000000E+00 0. -1.
         -6    2    1    2    0  504 -0.60123180257E+02  0.11570132559E+03 -0.79473746350E+03  0.82391576386E+03  0.17386188915E+03 0.  0.
        -24    2    3    3    0    0 -0.10338448986E+03  0.10370345129E+03 -0.68751991887E+03  0.70758355950E+03  0.80920308159E+02 0.  0.
          6    2    1    2  502    0  0.60123180257E+02 -0.11570132559E+03 -0.15395521126E+03  0.26591216783E+03  0.17322090053E+03 0.  0.
         24    2    5    5    0    0  0.17876423187E+02 -0.75231710845E+02 -0.17114054148E+03  0.20475659756E+03  0.81589230201E+02 0.  0.
          2    1    6    6  501    0  0.29848653202E+02 -0.72565134277E+02 -0.77393915895E+02  0.11021097508E+03  0.00000000000E+00 0. -1.
         -1    1    6    6    0  501 -0.11972230015E+02 -0.26665765682E+01 -0.93746625581E+02  0.94545622479E+02  0.00000000000E+00 0.  1.
          5    1    5    5  502    0  0.42246757070E+02 -0.40469614746E+02  0.17185330217E+02  0.61155570272E+02  0.47000000000E+01 0. -1.
         13    1    4    4    0    0 -0.29448274004E+02  0.73337601268E+02 -0.23165386332E+03  0.24476338981E+03  0.00000000000E+00 0. -1.
        -14    1    4    4    0    0 -0.73936215851E+02  0.30365850023E+02 -0.45586605556E+03  0.46282016969E+03  0.00000000000E+00 0.  1.
         -5    1    3    3    0  504  0.43261309598E+02  0.11997874301E+02 -0.10721754462E+03  0.11633220436E+03  0.47000000000E+01 0.  1.
<mgrwt>
<rscale>  2 0.21719538E+03</rscale>
<asrwt>0</asrwt>
<pdfrwt beam="1">  1       21 0.10856559E-01 0.21732361E+03</pdfrwt>
<pdfrwt beam="2">  1       21 0.15680927E+00 0.21732361E+03</pdfrwt>
<totfact> 0.18331115E+04</totfact>
</mgrwt>
</event>
<event>
12    1  0.2742799E-001  0.2128436E+03  0.7546771E-02  0.1139569E+00
         21   -1    0    0  502  503  0.00000000000E+00  0.00000000000E+00  0.27723345513E+03  0.27723345513E+03  0.00000000000E+00 0. -1.
         21   -1    0    0  503  504 -0.00000000000E+00 -0.00000000000E+00 -0.22510068801E+03  0.22510068801E+03  0.00000000000E+00 0. -1.
         -6    2    1    2    0  504 -0.74579204450E+02 -0.97288320301E+02 -0.10645778873E+03  0.23690363537E+03  0.17251955445E+03 0.  0.
        -24    2    3    3    0    0 -0.11567100999E+03 -0.96362972889E+02 -0.80633360144E+02  0.18813495831E+03  0.78913995415E+02 0.  0.
          6    2    1    2  502    0  0.74579204450E+02  0.97288320301E+02  0.15859055585E+03  0.26543050778E+03  0.17399803175E+03 0.  0.
         24    2    5    5    0    0  0.20356234643E+01  0.10595675470E+02  0.11801799207E+03  0.14523729357E+03  0.83959590819E+02 0.  0.
          2    1    6    6  501    0 -0.40814836915E+02  0.24204406561E+01  0.61278792364E+02  0.73666816403E+02  0.00000000000E+00 0. -1.
         -1    1    6    6    0  501  0.42850460379E+02  0.81752348144E+01  0.56739199702E+02  0.71570477166E+02  0.00000000000E+00 0.  1.
          5    1    5    5  502    0  0.72543580986E+02  0.86692644831E+02  0.40572563783E+02  0.12019321421E+03  0.47000000000E+01 0. -1.
         13    1    4    4    0    0 -0.42528891279E+02  0.67610981016E+01 -0.14397121724E+02  0.45405904406E+02  0.00000000000E+00 0. -1.
        -14    1    4    4    0    0 -0.73142118714E+02 -0.10312407099E+03 -0.66236238420E+02  0.14272905390E+03  0.00000000000E+00 0.  1.
         -5    1    3    3    0  504  0.41091805543E+02 -0.92534741167E+00 -0.25824428581E+02  0.48768677060E+02  0.47000000000E+01 0.  1.
<mgrwt>
<rscale>  2 0.21254120E+03</rscale>
<asrwt>0</asrwt>
<pdfrwt beam="1">  1       21 0.42651301E-01 0.21284358E+03</pdfrwt>
<pdfrwt beam="2">  1       21 0.34630875E-01 0.21284358E+03</pdfrwt>
<totfact> 0.42069527E+04</totfact>
</mgrwt>
</event>
<event>
12    1  0.2742799E-001  0.3598115E+03  0.7546771E-02  0.1058752E+00
         21   -1    0    0  502  503  0.00000000000E+00  0.00000000000E+00  0.91057559725E+03  0.91057559725E+03  0.00000000000E+00 0. -1.
         21   -1    0    0  503  504 -0.00000000000E+00 -0.00000000000E+00 -0.31556451318E+03  0.31556451318E+03  0.00000000000E+00 0.  1.
         -6    2    1    2    0  504 -0.42049121598E+02  0.31086733179E+03 -0.15759388076E+03  0.39194675957E+03  0.17429803349E+03 0.  0.
        -24    2    3    3    0    0 -0.25507303201E+02  0.17809156454E+03 -0.16368209273E+03  0.25792365540E+03  0.85822821320E+02 0.  0.
          6    2    1    2  502    0  0.42049121598E+02 -0.31086733179E+03  0.75260496483E+03  0.83419335086E+03  0.17623191235E+03 0.  0.
         24    2    5    5    0    0 -0.43713977371E+02 -0.19648069972E+03  0.42735126109E+03  0.47887423719E+03  0.78586624245E+02 0.  0.
          2    1    6    6  501    0 -0.28300032676E+02 -0.19845230093E+03  0.39988929745E+03  0.44732053140E+03  0.00000000000E+00 0. -1.
         -1    1    6    6    0  501 -0.15413944695E+02  0.19716012106E+01  0.27461963637E+02  0.31553705792E+02  0.00000000000E+00 0.  1.
          5    1    5    5  502    0  0.85763098969E+02 -0.11438663207E+03  0.32525370374E+03  0.35531911366E+03  0.47000000000E+01 0. -1.
         13    1    4    4    0    0  0.21930656270E+01  0.80106352253E+02 -0.21373842924E+02  0.82937798195E+02  0.00000000000E+00 0. -1.
        -14    1    4    4    0    0 -0.27700368828E+02  0.97985212287E+02 -0.14230824980E+03  0.17498585721E+03  0.00000000000E+00 0.  1.
         -5    1    3    3    0  504 -0.16541818397E+02  0.13277576725E+03  0.60882119680E+01  0.13402310416E+03  0.47000000000E+01 0.  1.
<mgrwt>
<rscale>  2 0.35957546E+03</rscale>
<asrwt>0</asrwt>
<pdfrwt beam="1">  1       21 0.14008855E+00 0.35981150E+03</pdfrwt>
<pdfrwt beam="2">  1       21 0.48548387E-01 0.35981150E+03</pdfrwt>
<totfact> 0.12826255E+03</totfact>
</mgrwt>
</event>
<event>
12    1  0.2742799E-001  0.2234531E+03  0.7546771E-02  0.1131387E+00
         21   -1    0    0  502  503  0.00000000000E+00  0.00000000000E+00  0.13136028813E+03  0.13136028813E+03  0.00000000000E+00 0. -1.
         21   -1    0    0  503  504 -0.00000000000E+00 -0.00000000000E+00 -0.79571038819E+03  0.79571038819E+03  0.00000000000E+00 0.  1.
         -6    2    1    2    0  504  0.35731769464E+01 -0.14225077631E+03  0.31207348119E+01  0.22318957496E+03  0.17191799333E+03 0.  0.
        -24    2    3    3    0    0 -0.14892862779E+02 -0.48142054377E+02 -0.56491297185E+02  0.11017129977E+03  0.80043699784E+02 0.  0.
          6    2    1    2  502    0 -0.35731769464E+01  0.14225077631E+03 -0.66747083487E+03  0.70388110135E+03  0.17228824246E+03 0.  0.
         24    2    5    5    0    0 -0.41967783767E+01  0.11467737306E+03 -0.66030891816E+03  0.67500092655E+03  0.80311086416E+02 0.  0.
          4    1    6    6  501    0  0.36652104582E+02  0.60725494088E+02 -0.28908315138E+03  0.29765757308E+03  0.00000000000E+00 0. -1.
         -3    1    6    6    0  501 -0.40848882958E+02  0.53951878967E+02 -0.37122576679E+03  0.37734335347E+03  0.00000000000E+00 0.  1.
          5    1    5    5  502    0  0.62360143024E+00  0.27573403254E+02 -0.71619167070E+01  0.28880174803E+02  0.47000000000E+01 0. -1.
         13    1    4    4    0    0 -0.34451027720E+01 -0.65975560498E+02 -0.21892373736E+02  0.69598271127E+02  0.00000000000E+00 0. -1.
        -14    1    4    4    0    0 -0.11447760007E+02  0.17833506121E+02 -0.34598923449E+02  0.40573028647E+02  0.00000000000E+00 0.  1.
         -5    1    3    3    0  504  0.18466039726E+02 -0.94108721932E+02  0.59612031997E+02  0.11301827518E+03  0.47000000000E+01 0.  1.
<mgrwt>
<rscale>  2 0.22338173E+03</rscale>
<asrwt>0</asrwt>
<pdfrwt beam="1">  1       21 0.20209275E-01 0.22345310E+03</pdfrwt>
<pdfrwt beam="2">  1       21 0.12241698E+00 0.22345310E+03</pdfrwt>
<totfact> 0.11140300E+04</totfact>
</mgrwt>
</event>
<event>
12    1  0.2742799E-001  0.2780618E+03  0.7546771E-02  0.1096782E+00
         21   -1    0    0  502  503  0.00000000000E+00  0.00000000000E+00  0.24050439160E+03  0.24050439160E+03  0.00000000000E+00 0.  1.
         21   -1    0    0  503  504 -0.00000000000E+00 -0.00000000000E+00 -0.11772313716E+04  0.11772313716E+04  0.00000000000E+00 0.  1.
         -6    2    1    2    0  504  0.12664227453E+02 -0.21728074509E+03 -0.10727773700E+04  0.11081746401E+04  0.17270912682E+03 0.  0.
        -24    2    3    3    0    0 -0.39908770742E+02 -0.99700200978E+02 -0.71739927555E+03  0.73014714834E+03  0.83188326215E+02 0.  0.
          6    2    1    2  502    0 -0.12664227453E+02  0.21728074509E+03  0.13605039004E+03  0.30956112309E+03  0.17305223331E+03 0.  0.
         24    2    5    5    0    0  0.48961392589E+02  0.91786449885E+02  0.39305185442E+02  0.13947802637E+03  0.84185817640E+02 0.  0.
          2    1    6    6  501    0  0.50409519851E+02  0.46528126878E+02 -0.13500647283E+02  0.69916047939E+02  0.00000000000E+00 0. -1.
         -1    1    6    6    0  501 -0.14481272623E+01  0.45258323007E+02  0.52805832724E+02  0.69561978434E+02  0.00000000000E+00 0.  1.
          5    1    5    5  502    0 -0.61625620041E+02  0.12549429521E+03  0.96745204598E+02  0.17008309671E+03  0.47000000000E+01 0. -1.
         13    1    4    4    0    0  0.20206894557E+02 -0.13099304613E+02 -0.65658323960E+02  0.69935154781E+02  0.00000000000E+00 0. -1.
        -14    1    4    4    0    0 -0.60115665299E+02 -0.86600896365E+02 -0.65174095159E+03  0.66021199356E+03  0.00000000000E+00 0.  1.
         -5    1    3    3    0  504  0.52572998194E+02 -0.11758054411E+03 -0.35537809448E+03  0.37802749177E+03  0.47000000000E+01 0.  1.
<mgrwt>
<rscale>  2 0.27800846E+03</rscale>
<asrwt>0</asrwt>
<pdfrwt beam="1">  1       21 0.37000676E-01 0.27806183E+03</pdfrwt>
<pdfrwt beam="2">  1       21 0.18111252E+00 0.27806183E+03</pdfrwt>
<totfact> 0.11665006E+03</totfact>
</mgrwt>
</event>
<event>
12    1  0.2742799E-001  0.2536444E+03  0.7546771E-02  0.1111217E+00
         21   -1    0    0  502  503  0.00000000000E+00  0.00000000000E+00  0.65410146960E+03  0.65410146960E+03  0.00000000000E+00 0. -1.
         21   -1    0    0  503  504 -0.00000000000E+00 -0.00000000000E+00 -0.98010004618E+02  0.98010004618E+02  0.00000000000E+00 0.  1.
         -6    2    1    2    0  504 -0.18153818199E+03 -0.33884121367E+02  0.26338716219E+03  0.36479855828E+03  0.17204925375E+03 0.  0.
        -24    2    3    3    0    0 -0.15772188964E+03 -0.84298603271E+02  0.20228761257E+03  0.28194881036E+03  0.81193623392E+02 0.  0.
          6    2    1    2  502    0  0.18153818199E+03  0.33884121367E+02  0.29270430280E+03  0.38731291594E+03  0.17387133398E+03 0.  0.
         24    2    5    5    0    0  0.17463363854E+03  0.42995125407E+02  0.30956690888E+03  0.36640548667E+03  0.77947553295E+02 0.  0.
          4    1    6    6  501    0  0.64151086596E+02  0.47549970865E+01  0.18360540945E+03  0.19454798454E+03  0.00000000000E+00 0. -1.
         -3    1    6    6    0  501  0.11048255194E+03  0.38240128321E+02  0.12596149943E+03  0.17185750213E+03  0.00000000000E+00 0.  1.
          5    1    5    5  502    0  0.69045434486E+01 -0.91110040406E+01 -0.16862606089E+02  0.20907429277E+02  0.47000000000E+01 0. -1.
         13    1    4    4    0    0 -0.64098511294E+02 -0.53171577489E+02  0.14673578989E+03  0.16872233947E+03  0.00000000000E+00 0. -1.
        -14    1    4    4    0    0 -0.93623378342E+02 -0.31127025782E+02  0.55551822683E+02  0.11322647089E+03  0.00000000000E+00 0.  1.
         -5    1    3    3    0  504 -0.23816292350E+02  0.50414481904E+02  0.61099549619E+02  0.82849747921E+02  0.47000000000E+01 0.  1.
<mgrwt>
<rscale>  2 0.25333245E+03</rscale>
<asrwt>0</asrwt>
<pdfrwt beam="1">  1       21 0.10063099E+00 0.25364441E+03</pdfrwt>
<pdfrwt beam="2">  1       21 0.15078463E-01 0.25364441E+03</pdfrwt>
<totfact> 0.30453367E+04</totfact>
</mgrwt>
</event>
<event>
12    1  0.2742799E-001  0.1836007E+03  0.7546771E-02  0.1164380E+00
         21   -1    0    0  502  503  0.00000000000E+00  0.00000000000E+00  0.46072365865E+03  0.46072365865E+03  0.00000000000E+00 0. -1.
         21   -1    0    0  503  504 -0.00000000000E+00 -0.00000000000E+00 -0.10078929860E+03  0.10078929860E+03  0.00000000000E+00 0. -1.
         -6    2    1    2    0  504 -0.20609592900E+01 -0.62251111754E+02  0.32699996631E+03  0.37498172959E+03  0.17263508071E+03 0.  0.
        -24    2    3    3    0    0 -0.56803584944E+02 -0.29807360045E+02  0.27122395249E+03  0.29023265405E+03  0.80977991412E+02 0.  0.
          6    2    1    2  502    0  0.20609592900E+01  0.62251111754E+02  0.32934393748E+02  0.18653122767E+03  0.17271298775E+03 0.  0.
         24    2    5    5    0    0  0.17661010988E+02 -0.25174396147E+02 -0.16969024989E+02  0.84555631340E+02  0.76915833557E+02 0.  0.
          4    1    6    6  501    0 -0.25040728146E+02  0.17846692391E+01 -0.22554329529E+02  0.33747902022E+02  0.00000000000E+00 0. -1.
         -3    1    6    6    0  501  0.42701739134E+02 -0.26959065386E+02  0.55853045403E+01  0.50807729317E+02  0.00000000000E+00 0.  1.
          5    1    5    5  502    0 -0.15600051698E+02  0.87425507902E+02  0.49903418737E+02  0.10197559633E+03  0.47000000000E+01 0. -1.
         11    1    4    4    0    0 -0.46561664933E+02 -0.57189242455E+02  0.18345348277E+03  0.19772146680E+03  0.00000000000E+00 0. -1.
        -12    1    4    4    0    0 -0.10241920011E+02  0.27381882410E+02  0.87770469724E+02  0.92511187245E+02  0.00000000000E+00 0.  1.
         -5    1    3    3    0  504  0.54742625654E+02 -0.32443751709E+02  0.55776013812E+02  0.84749075542E+02  0.47000000000E+01 0.  1.
<mgrwt>
<rscale>  2 0.18358240E+03</rscale>
<asrwt>0</asrwt>
<pdfrwt beam="1">  1       21 0.70880561E-01 0.18360072E+03</pdfrwt>
<pdfrwt beam="2">  1       21 0.15506046E-01 0.18360072E+03</pdfrwt>
<totfact> 0.66822256E+04</totfact>
</mgrwt>
</event>
<event>
12    1  0.2742799E-001  0.1793932E+03  0.7546771E-02  0.1170102E+00
         21   -1    0    0  502  503  0.00000000000E+00  0.00000000000E+00  0.11140018299E+03  0.11140018299E+03  0.00000000000E+00 0.  1.
         21   -1    0    0  503  504 -0.00000000000E+00 -0.00000000000E+00 -0.82737124128E+03  0.82737124128E+03  0.00000000000E+00 0.  1.
         -6    2    1    2    0  504  0.17695821885E+02 -0.49726718120E+01 -0.74283767367E+03  0.76419221894E+03  0.17844906412E+03 0.  0.
        -24    2    3    3    0    0 -0.11453024830E+02  0.40610317547E+00 -0.15015787806E+03  0.17075307580E+03  0.80485326950E+02 0.  0.
          6    2    1    2  502    0 -0.17695821885E+02  0.49726718120E+01  0.26866615376E+02  0.17457920533E+03  0.17151738785E+03 0.  0.
         24    2    5    5    0    0  0.42422929531E+02 -0.57401337965E+01  0.58074232920E+02  0.10584032355E+03  0.77439676358E+02 0.  0.
          2    1    6    6  501    0  0.32862922777E+02  0.29913816556E+01  0.76503930844E+02  0.83317294077E+02  0.00000000000E+00 0. -1.
         -1    1    6    6    0  501  0.95600067535E+01 -0.87315154521E+01 -0.18429697923E+02  0.22523029476E+02  0.00000000000E+00 0.  1.
          5    1    5    5  502    0 -0.60118751415E+02  0.10712805608E+02 -0.31207617544E+02  0.68738881781E+02  0.47000000000E+01 0. -1.
         13    1    4    4    0    0  0.85379622464E+01  0.34873160116E+02 -0.10265244075E+03  0.10874997787E+03  0.00000000000E+00 0. -1.
        -14    1    4    4    0    0 -0.19990987076E+02 -0.34467056941E+02 -0.47505437316E+02  0.62003097931E+02  0.00000000000E+00 0.  1.
         -5    1    3    3    0  504  0.29148846714E+02 -0.53787749874E+01 -0.59267979561E+03  0.59343914314E+03  0.47000000000E+01 0.  1.
<mgrwt>
<rscale>  2 0.17764441E+03</rscale>
<asrwt>0</asrwt>
<pdfrwt beam="1">  1       21 0.17138489E-01 0.17939325E+03</pdfrwt>
<pdfrwt beam="2">  1       21 0.12728789E+00 0.17939325E+03</pdfrwt>
<totfact> 0.14138644E+04</totfact>
</mgrwt>
</event>
<event>
12    1  0.2742799E-001  0.1805354E+03  0.7546771E-02  0.1167420E+00
         21   -1    0    0  502  503  0.00000000000E+00  0.00000000000E+00  0.11499749658E+04  0.11499749658E+04  0.00000000000E+00 0.  1.
         21   -1    0    0  503  504 -0.00000000000E+00 -0.00000000000E+00 -0.39890242895E+02  0.39890242895E+02  0.00000000000E+00 0.  1.
         -6    2    1    2    0  504 -0.23736156650E+01  0.49182532915E+02  0.23313460508E+03  0.29452474926E+03  0.17311420578E+03 0.  0.
        -24    2    3    3    0    0 -0.44421983235E+02  0.82807127017E+02  0.18330788749E+03  0.22101644816E+03  0.80100910504E+02 0.  0.
          6    2    1    2  502    0  0.23736156650E+01 -0.49182532915E+02  0.87695011788E+03  0.89534045949E+03  0.17369074115E+03 0.  0.
         24    2    5    5    0    0 -0.14863770986E+02 -0.77420115582E+02  0.40947353739E+03  0.42667113910E+03  0.90359709669E+02 0.  0.
          4    1    6    6  501    0 -0.43832938206E+02 -0.16736726572E+02  0.10736444611E+03  0.11716897531E+03  0.00000000000E+00 0. -1.
         -3    1    6    6    0  501  0.28969167220E+02 -0.60683389009E+02  0.30210909128E+03  0.30950216379E+03  0.00000000000E+00 0.  1.
          5    1    5    5  502    0  0.17237386651E+02  0.28237582667E+02  0.46747658048E+03  0.46866932039E+03  0.47000000000E+01 0. -1.
         13    1    4    4    0    0 -0.11470199460E+02  0.29984872508E+02  0.14366608412E+03  0.14720938075E+03  0.00000000000E+00 0. -1.
        -14    1    4    4    0    0 -0.32951783775E+02  0.52822254510E+02  0.39641803367E+02  0.73807067410E+02  0.00000000000E+00 0.  1.
         -5    1    3    3    0  504  0.42048367570E+02 -0.33624594102E+02  0.49826717592E+02  0.73508301095E+02  0.47000000000E+01 0.  1.
<mgrwt>
<rscale>  2 0.18039658E+03</rscale>
<asrwt>0</asrwt>
<pdfrwt beam="1">  1       21 0.17691920E+00 0.18053540E+03</pdfrwt>
<pdfrwt beam="2">  1       21 0.61369613E-02 0.18053540E+03</pdfrwt>
<totfact> 0.36520870E+04</totfact>
</mgrwt>
</event>
<event>
12    1  0.2742799E-001  0.2209760E+03  0.7546771E-02  0.1133218E+00
         21   -1    0    0  502  503  0.00000000000E+00  0.00000000000E+00  0.38778644172E+03  0.38778644172E+03  0.00000000000E+00 0. -1.
         21   -1    0    0  503  504 -0.00000000000E+00 -0.00000000000E+00 -0.15396669675E+03  0.15396669675E+03  0.00000000000E+00 0. -1.
         -6    2    1    2    0  504 -0.13029207460E+03 -0.47506728882E+02  0.84456159302E+00  0.22064906433E+03  0.17161696395E+03 0.  0.
        -24    2    3    3    0    0 -0.14639562057E+03 -0.76336947194E+01 -0.25873324370E+02  0.16980500395E+03  0.81696752907E+02 0.  0.
          6    2    1    2  502    0  0.13029207460E+03  0.47506728882E+02  0.23297518338E+03  0.32110407413E+03  0.17203917101E+03 0.  0.
         24    2    5    5    0    0  0.70041562686E+02  0.62689545549E+02  0.57836993827E+02  0.13521131594E+03  0.78110066444E+02 0.  0.
          4    1    6    6  501    0  0.68186135889E+02  0.77765798834E+02  0.60453343384E+02  0.11979764322E+03  0.00000000000E+00 0. -1.
         -3    1    6    6    0  501  0.18554267967E+01 -0.15076253285E+02 -0.26163495575E+01  0.15413672720E+02  0.00000000000E+00 0.  1.
          5    1    5    5  502    0  0.60250511913E+02 -0.15182816667E+02  0.17513818955E+03  0.18589275819E+03  0.47000000000E+01 0. -1.
         11    1    4    4    0    0 -0.94480282739E+02  0.22892175775E+02 -0.44289132435E+02  0.10682744399E+03  0.00000000000E+00 0. -1.
        -12    1    4    4    0    0 -0.51915337828E+02 -0.30525870495E+02  0.18415808065E+02  0.62977559956E+02  0.00000000000E+00 0.  1.
         -5    1    3    3    0  504  0.16103545969E+02 -0.39873034162E+02  0.26717885963E+02  0.50844060385E+02  0.47000000000E+01 0.  1.
<mgrwt>
<rscale>  2 0.22089381E+03</rscale>
<asrwt>0</asrwt>
<pdfrwt beam="1">  1       21 0.59659452E-01 0.22097599E+03</pdfrwt>
<pdfrwt beam="2">  1       21 0.23687184E-01 0.22097599E+03</pdfrwt>
<totfact> 0.43418330E+04</totfact>
</mgrwt>
</event>
<event>
12    1  0.2742799E-001  0.2175241E+03  0.7546771E-02  0.1136146E+00
         21   -1    0    0  502  503  0.00000000000E+00  0.00000000000E+00  0.12085422310E+04  0.12085422310E+04  0.00000000000E+00 0. -1.
         21   -1    0    0  503  504 -0.00000000000E+00 -0.00000000000E+00 -0.39633250688E+02  0.39633250688E+02  0.00000000000E+00 0. -1.
         -6    2    1    2    0  504 -0.53343598584E+02  0.12235979503E+03  0.49519396819E+03  0.54086393095E+03  0.17175350570E+03 0.  0.
        -24    2    3    3    0    0 -0.70083926211E+02  0.13809136766E+03  0.32357812290E+03  0.36765362727E+03  0.80532015309E+02 0.  0.
          6    2    1    2  502    0  0.53343598584E+02 -0.12235979503E+03  0.67371501209E+03  0.70731155070E+03  0.16905695283E+03 0.  0.
         24    2    5    5    0    0  0.69653480403E+02 -0.13558576130E+03  0.65977844638E+03  0.68167454050E+03  0.78342037626E+02 0.  0.
          2    1    6    6  501    0  0.30998150140E+02 -0.11150554629E+03  0.35182350969E+03  0.37037029327E+03  0.00000000000E+00 0. -1.
         -1    1    6    6    0  501  0.38655330262E+02 -0.24080215007E+02  0.30795493669E+03  0.31130424723E+03  0.00000000000E+00 0.  1.
          5    1    5    5  502    0 -0.16309881819E+02  0.13225966266E+02  0.13936565708E+02  0.25637010207E+02  0.47000000000E+01 0. -1.
         13    1    4    4    0    0 -0.50354689964E+02  0.27653312631E+02  0.71362422691E+02  0.91612749512E+02  0.00000000000E+00 0. -1.
        -14    1    4    4    0    0 -0.19729236247E+02  0.11043805502E+03  0.25221570021E+03  0.27604087776E+03  0.00000000000E+00 0.  1.
         -5    1    3    3    0  504  0.16740327627E+02 -0.15731572626E+02  0.17161584529E+03  0.17321030368E+03  0.47000000000E+01 0.  1.
<mgrwt>
<rscale>  2 0.21699143E+03</rscale>
<asrwt>0</asrwt>
<pdfrwt beam="1">  1       21 0.18592955E+00 0.21752408E+03</pdfrwt>
<pdfrwt beam="2">  1       21 0.60974241E-02 0.21752408E+03</pdfrwt>
<totfact> 0.31314997E+04</totfact>
</mgrwt>
</event>
<event>
12    1  0.2742799E-001  0.1810237E+03  0.7546771E-02  0.1166993E+00
         21   -1    0    0  502  503  0.00000000000E+00  0.00000000000E+00  0.58935424469E+03  0.58935424469E+03  0.00000000000E+00 0.  1.
         21   -1    0    0  503  504 -0.00000000000E+00 -0.00000000000E+00 -0.55376958991E+02  0.55376958991E+02  0.00000000000E+00 0.  1.
         -6    2    1    2    0  504  0.44230259984E+02  0.27403572244E+02  0.26791605859E+03  0.32333972649E+03  0.17338481076E+03 0.  0.
        -24    2    3    3    0    0 -0.31624131092E+01 -0.42686782346E+02  0.98185243138E+02  0.13363109995E+03  0.79904734899E+02 0.  0.
          6    2    1    2  502    0 -0.44230259984E+02 -0.27403572244E+02  0.26606122711E+03  0.32139147720E+03  0.17261701357E+03 0.  0.
         24    2    5    5    0    0 -0.62452567884E+02 -0.59468988044E+02  0.10970984588E+03  0.16068028341E+03  0.79655630178E+02 0.  0.
          4    1    6    6  501    0 -0.19424053234E+02 -0.66180581219E+02  0.43872498247E+02  0.81743252180E+02  0.00000000000E+00 0. -1.
         -3    1    6    6    0  501 -0.43028514650E+02  0.67115931748E+01  0.65837347633E+02  0.78937031229E+02  0.00000000000E+00 0.  1.
          5    1    5    5  502    0  0.18222307900E+02  0.32065415799E+02  0.15635138123E+03  0.16071119379E+03  0.47000000000E+01 0. -1.
         13    1    4    4    0    0 -0.39690399149E+02 -0.84848826683E+01  0.45350603693E+02  0.60860482037E+02  0.00000000000E+00 0. -1.
        -14    1    4    4    0    0  0.36527986040E+02 -0.34201899678E+02  0.52834639445E+02  0.72770617910E+02  0.00000000000E+00 0.  1.
         -5    1    3    3    0  504  0.47392673094E+02  0.70090354591E+02  0.16973081545E+03  0.18970862654E+03  0.47000000000E+01 0.  1.
<mgrwt>
<rscale>  2 0.18083956E+03</rscale>
<asrwt>0</asrwt>
<pdfrwt beam="1">  1       21 0.90669879E-01 0.18102366E+03</pdfrwt>
<pdfrwt beam="2">  1       21 0.85195326E-02 0.18102366E+03</pdfrwt>
<totfact> 0.11154799E+05</totfact>
</mgrwt>
</event>
<event>
12    1  0.2742799E-001  0.1826419E+03  0.7546771E-02  0.1165348E+00
         21   -1    0    0  502  503  0.00000000000E+00  0.00000000000E+00  0.47032890427E+03  0.47032890427E+03  0.00000000000E+00 0.  1.
         21   -1    0    0  503  504 -0.00000000000E+00 -0.00000000000E+00 -0.36603288719E+03  0.36603288719E+03  0.00000000000E+00 0.  1.
         -6    2    1    2    0  504  0.22559537831E+02 -0.54454525830E+02 -0.32341001318E+03  0.37141904339E+03  0.17286943351E+03 0.  0.
        -24    2    3    3    0    0  0.25265707189E+02  0.22375327775E+02 -0.25234649939E+03  0.26662275171E+03  0.79182856256E+02 0.  0.
          6    2    1    2  502    0 -0.22559537831E+02  0.54454525830E+02  0.42770603026E+03  0.46494274807E+03  0.17252559967E+03 0.  0.
         24    2    5    5    0    0 -0.79293393201E+02  0.43989253608E+02  0.27570216547E+03  0.30229122740E+03  0.84532866273E+02 0.  0.
          2    1    6    6  501    0 -0.69609023032E+02  0.22064115150E+02  0.94076507987E+02  0.11909085028E+03  0.00000000000E+00 0. -1.
         -1    1    6    6    0  501 -0.96843701689E+01  0.21925138458E+02  0.18162565748E+03  0.18320037712E+03  0.00000000000E+00 0.  1.
          5    1    5    5  502    0  0.56733855370E+02  0.10465272222E+02  0.15200386479E+03  0.16265152068E+03  0.47000000000E+01 0. -1.
         11    1    4    4    0    0  0.20633592075E+02  0.15601389586E+02 -0.25623809605E+03  0.25754050234E+03  0.00000000000E+00 0. -1.
        -12    1    4    4    0    0  0.46321151135E+01  0.67739381891E+01  0.38915966641E+01  0.90822493696E+01  0.00000000000E+00 0.  1.
         -5    1    3    3    0  504 -0.27061693575E+01 -0.76829853606E+02 -0.71063513789E+02  0.10479629168E+03  0.47000000000E+01 0.  1.
<mgrwt>
<rscale>  2 0.18256051E+03</rscale>
<asrwt>0</asrwt>
<pdfrwt beam="1">  1       21 0.72358293E-01 0.18264192E+03</pdfrwt>
<pdfrwt beam="2">  1       21 0.56312752E-01 0.18264192E+03</pdfrwt>
<totfact> 0.51495826E+03</totfact>
</mgrwt>
</event>
<event>
12    1  0.2742799E-001  0.2637203E+03  0.7546771E-02  0.1104937E+00
         21   -1    0    0  502  503  0.00000000000E+00  0.00000000000E+00  0.28463108815E+03  0.28463108815E+03  0.00000000000E+00 0.  1.
         21   -1    0    0  503  504 -0.00000000000E+00 -0.00000000000E+00 -0.26089077576E+03  0.26089077576E+03  0.00000000000E+00 0. -1.
         -6    2    1    2    0  504  0.68976892601E+02 -0.18660143467E+03 -0.56924552011E+02  0.26979398566E+03  0.17311985139E+03 0.  0.
        -24    2    3    3    0    0  0.95093269805E+02 -0.69180702902E+02 -0.34950247574E+02  0.14742301908E+03  0.81751618533E+02 0.  0.
          6    2    1    2  502    0 -0.68976892601E+02  0.18660143467E+03  0.80664864399E+02  0.27572787825E+03  0.17303506974E+03 0.  0.
         24    2    5    5    0    0 -0.21695819052E+01  0.12352304714E+03  0.10447814805E+03  0.18069492494E+03  0.80450744045E+02 0.  0.
          4    1    6    6  501    0 -0.20819862506E+02  0.11997754697E+03  0.67746212509E+02  0.13934714838E+03  0.00000000000E+00 0. -1.
         -3    1    6    6    0  501  0.18650280601E+02  0.35455001757E+01  0.36731935544E+02  0.41347776564E+02  0.00000000000E+00 0.  1.
          5    1    5    5  502    0 -0.66807310696E+02  0.63078387526E+02 -0.23813283654E+02  0.95032953304E+02  0.47000000000E+01 0. -1.
         11    1    4    4    0    0  0.75520407317E+02 -0.84228338888E+02 -0.43635868912E+02  0.12125111978E+03  0.00000000000E+00 0. -1.
        -12    1    4    4    0    0  0.19572862488E+02  0.15047635986E+02  0.86856213378E+01  0.26171899296E+02  0.00000000000E+00 0.  1.
         -5    1    3    3    0  504 -0.26116377204E+02 -0.11742073177E+03 -0.21974304437E+02  0.12237096658E+03  0.47000000000E+01 0.  1.
<mgrwt>
<rscale>  2 0.26370637E+03</rscale>
<asrwt>0</asrwt>
<pdfrwt beam="1">  1       21 0.43789398E-01 0.26372029E+03</pdfrwt>
<pdfrwt beam="2">  1       21 0.40137042E-01 0.26372029E+03</pdfrwt>
<totfact> 0.28951730E+04</totfact>
</mgrwt>
</event>
<event>
12    1  0.2742799E-001  0.2348803E+03  0.7546771E-02  0.1123351E+00
         21   -1    0    0  502  503  0.00000000000E+00  0.00000000000E+00  0.90402971428E+02  0.90402971428E+02  0.00000000000E+00 0.  1.
         21   -1    0    0  503  504 -0.00000000000E+00 -0.00000000000E+00 -0.89723766138E+03  0.89723766138E+03  0.00000000000E+00 0.  1.
         -6    2    1    2    0  504 -0.13675135709E+03 -0.80773404709E+02 -0.12373880988E+03  0.26548078268E+03  0.17304183404E+03 0.  0.
        -24    2    3    3    0    0 -0.73540181687E+01 -0.29379757054E+02 -0.39105934392E+02  0.10247835340E+03  0.89751251259E+02 0.  0.
          6    2    1    2  502    0  0.13675135709E+03  0.80773404709E+02 -0.68309588008E+03  0.72215985013E+03  0.17224863187E+03 0.  0.
         24    2    5    5    0    0  0.14155962371E+03  0.56902817430E+02 -0.67398344986E+03  0.69573920007E+03  0.80760671963E+02 0.  0.
          2    1    6    6  501    0  0.73105418170E+00 -0.14532982729E+02 -0.48978542232E+02  0.51094418740E+02  0.00000000000E+00 0. -1.
         -1    1    6    6    0  501  0.14082856953E+03  0.71435800160E+02 -0.62500490763E+03  0.64464478133E+03  0.00000000000E+00 0.  1.
          5    1    5    5  502    0 -0.48082666170E+01  0.23870587278E+02 -0.91124302205E+01  0.26420650056E+02  0.47000000000E+01 0. -1.
         11    1    4    4    0    0  0.19972586438E+02  0.51153969302E+01  0.20043102923E+02  0.28754086137E+02  0.00000000000E+00 0. -1.
        -12    1    4    4    0    0 -0.27326604607E+02 -0.34495153984E+02 -0.59149037315E+02  0.73724267260E+02  0.00000000000E+00 0.  1.
         -5    1    3    3    0  504 -0.12939733893E+03 -0.51393647655E+02 -0.84632875484E+02  0.16300242929E+03  0.47000000000E+01 0.  1.
<mgrwt>
<rscale>  2 0.23473422E+03</rscale>
<asrwt>0</asrwt>
<pdfrwt beam="1">  1       21 0.13908150E-01 0.23488029E+03</pdfrwt>
<pdfrwt beam="2">  1       21 0.13803656E+00 0.23488029E+03</pdfrwt>
<totfact> 0.16252837E+04</totfact>
</mgrwt>
</event>
<event>
12    1  0.2742799E-001  0.2928708E+03  0.7546771E-02  0.1090144E+00
         21   -1    0    0  502  503  0.00000000000E+00  0.00000000000E+00  0.12878608360E+03  0.12878608360E+03  0.00000000000E+00 0.  1.
         21   -1    0    0  503  504 -0.00000000000E+00 -0.00000000000E+00 -0.18493623986E+04  0.18493623986E+04  0.00000000000E+00 0. -1.
         -6    2    1    2    0  504  0.34346774848E+02 -0.21816789374E+03 -0.16536789183E+04  0.16777345025E+04  0.17709366291E+03 0.  0.
        -24    2    3    3    0    0  0.83713859940E+01 -0.18561849253E+03 -0.15799694840E+04  0.15929444380E+04  0.81511393411E+02 0.  0.
          6    2    1    2  502    0 -0.34346774848E+02  0.21816789374E+03 -0.66897396671E+02  0.30041397961E+03  0.19234439597E+03 0.  0.
         24    2    5    5    0    0 -0.53370481349E+02  0.11412653706E+03  0.27731114380E+02  0.15841697115E+03  0.91943718119E+02 0.  0.
          4    1    6    6  501    0 -0.72867340465E+02  0.70629544105E+02  0.40190525976E+02  0.10914879837E+03  0.00000000000E+00 0. -1.
         -3    1    6    6    0  501  0.19496859117E+02  0.43496992954E+02 -0.12459411596E+02  0.49268172777E+02  0.00000000000E+00 0.  1.
          5    1    5    5  502    0  0.19023706500E+02  0.10404135668E+03 -0.94628511051E+02  0.14199700847E+03  0.47000000000E+01 0. -1.
         13    1    4    4    0    0 -0.18487999035E+02 -0.83369676445E+02 -0.44928499200E+03  0.45732845210E+03  0.00000000000E+00 0. -1.
        -14    1    4    4    0    0  0.26859385030E+02 -0.10224881609E+03 -0.11306844920E+04  0.11356159859E+04  0.00000000000E+00 0.  1.
         -5    1    3    3    0  504  0.25975388854E+02 -0.32549401210E+02 -0.73709434267E+02  0.84790064543E+02  0.47000000000E+01 0.  1.
<mgrwt>
<rscale>  2 0.29039397E+03</rscale>
<asrwt>0</asrwt>
<pdfrwt beam="1">  1       21 0.19813243E-01 0.29287079E+03</pdfrwt>
<pdfrwt beam="2">  1       21 0.28451730E+00 0.29287079E+03</pdfrwt>
<totfact> 0.88460642E+02</totfact>
</mgrwt>
</event>
<event>
12    1  0.2742799E-001  0.2016330E+03  0.7546771E-02  0.1148639E+00
         21   -1    0    0  502  503  0.00000000000E+00  0.00000000000E+00  0.12353078361E+03  0.12353078361E+03  0.00000000000E+00 0.  1.
         21   -1    0    0  503  504 -0.00000000000E+00 -0.00000000000E+00 -0.32706747487E+03  0.32706747487E+03  0.00000000000E+00 0. -1.
         -6    2    1    2    0  504 -0.97680761452E+02 -0.25922104111E+02 -0.10431326551E+03  0.22587362892E+03  0.17298598857E+03 0.  0.
        -24    2    3    3    0    0 -0.28386532646E+02 -0.71119947232E+02 -0.87572104884E+02  0.14133433848E+03  0.80266303948E+02 0.  0.
          6    2    1    2  502    0  0.97680761452E+02  0.25922104111E+02 -0.99223425756E+02  0.22472462957E+03  0.17447746065E+03 0.  0.
         24    2    5    5    0    0  0.53558054522E+02  0.50058506946E+01  0.17611224736E+02  0.98009482565E+02  0.80013621906E+02 0.  0.
          2    1    6    6  501    0 -0.13707980977E+02  0.21755296472E+02  0.12249335304E+02  0.28482413564E+02  0.00000000000E+00 0. -1.
         -1    1    6    6    0  501  0.67266035499E+02 -0.16749445778E+02  0.53618894324E+01  0.69527069001E+02  0.00000000000E+00 0.  1.
          5    1    5    5  502    0  0.44122706930E+02  0.20916253417E+02 -0.11683465049E+03  0.12671514700E+03  0.47000000000E+01 0. -1.
         13    1    4    4    0    0  0.18951235985E+02 -0.51477452420E+02 -0.65757380876E+02  0.85633583323E+02  0.00000000000E+00 0. -1.
        -14    1    4    4    0    0 -0.47337768631E+02 -0.19642494812E+02 -0.21814724008E+02  0.55700755156E+02  0.00000000000E+00 0.  1.
         -5    1    3    3    0  504 -0.69294228806E+02  0.45197843121E+02 -0.16741160621E+02  0.84539290437E+02  0.47000000000E+01 0.  1.
<mgrwt>
<rscale>  2 0.20130993E+03</rscale>
<asrwt>0</asrwt>
<pdfrwt beam="1">  1       21 0.19004736E-01 0.20163301E+03</pdfrwt>
<pdfrwt beam="2">  1       21 0.50318073E-01 0.20163301E+03</pdfrwt>
<totfact> 0.95109998E+04</totfact>
</mgrwt>
</event>
<event>
12    1  0.2742799E-001  0.2028581E+03  0.7546771E-02  0.1147409E+00
         21   -1    0    0  502  503  0.00000000000E+00  0.00000000000E+00  0.45040438231E+03  0.45040438231E+03  0.00000000000E+00 0. -1.
         21   -1    0    0  503  504 -0.00000000000E+00 -0.00000000000E+00 -0.98586640020E+02  0.98586640020E+02  0.00000000000E+00 0. -1.
         -6    2    1    2    0  504  0.30586633078E+02  0.10131900348E+03  0.10107194780E+03  0.22664276638E+03  0.17306161427E+03 0.  0.
        -24    2    3    3    0    0  0.44564094992E+02  0.13229481108E+03  0.10447442719E+03  0.19216760193E+03  0.80781221154E+02 0.  0.
          6    2    1    2  502    0 -0.30586633078E+02 -0.10131900348E+03  0.25074579449E+03  0.32234825595E+03  0.17272481602E+03 0.  0.
         24    2    5    5    0    0 -0.33710099425E+02  0.10125612828E+02  0.88547670746E+02  0.12547271178E+03  0.81632178511E+02 0.  0.
          4    1    6    6  501    0 -0.17203066129E+02  0.31265074242E+02  0.91765096873E+02  0.98459551876E+02  0.00000000000E+00 0. -1.
         -3    1    6    6    0  501 -0.16507033296E+02 -0.21139461414E+02 -0.32174261267E+01  0.27013159904E+02  0.00000000000E+00 0.  1.
          5    1    5    5  502    0  0.31234663471E+01 -0.11144461631E+03  0.16219812374E+03  0.19687554417E+03  0.47000000000E+01 0. -1.
         11    1    4    4    0    0 -0.21628448442E+02  0.29148640475E+02  0.10674639134E+02  0.37833595444E+02  0.00000000000E+00 0. -1.
        -12    1    4    4    0    0  0.66192543434E+02  0.10314617061E+03  0.93799788053E+02  0.15433400648E+03  0.00000000000E+00 0.  1.
         -5    1    3    3    0  504 -0.13977461914E+02 -0.30975807607E+02 -0.34024793849E+01  0.34475164458E+02  0.47000000000E+01 0.  1.
<mgrwt>
<rscale>  2 0.20278624E+03</rscale>
<asrwt>0</asrwt>
<pdfrwt beam="1">  1       21 0.69292981E-01 0.20285809E+03</pdfrwt>
<pdfrwt beam="2">  1       21 0.15167176E-01 0.20285809E+03</pdfrwt>
<totfact> 0.72510245E+04</totfact>
</mgrwt>
</event>
<event>
12    1  0.2742799E-001  0.2802866E+03  0.7546771E-02  0.1095543E+00
         21   -1    0    0  502  503  0.00000000000E+00  0.00000000000E+00  0.13592010848E+03  0.13592010848E+03  0.00000000000E+00 0.  1.
         21   -1    0    0  503  504 -0.00000000000E+00 -0.00000000000E+00 -0.64558402886E+03  0.64558402886E+03  0.00000000000E+00 0.  1.
         -6    2    1    2    0  504 -0.19898864969E+03  0.95689356636E+02 -0.12827227081E+03  0.30824399181E+03  0.17264891354E+03 0.  0.
        -24    2    3    3    0    0 -0.11863383703E+03  0.93544395048E+02 -0.14726905959E+03  0.22551271138E+03  0.79644622837E+02 0.  0.
          6    2    1    2  502    0  0.19898864969E+03 -0.95689356636E+02 -0.38139164957E+03  0.47326014554E+03  0.17251851877E+03 0.  0.
         24    2    5    5    0    0  0.21642501110E+03 -0.71756553513E+02 -0.29304562714E+03  0.37996536839E+03  0.80679323186E+02 0.  0.
          4    1    6    6  501    0  0.80357909432E+02  0.73412629612E+01 -0.69041510610E+02  0.10619801287E+03  0.00000000000E+00 0. -1.
         -3    1    6    6    0  501  0.13606710166E+03 -0.79097816474E+02 -0.22400411653E+03  0.27376735552E+03  0.00000000000E+00 0.  1.
          5    1    5    5  502    0 -0.17436361411E+02 -0.23932803123E+02 -0.88346022428E+02  0.93294777150E+02  0.47000000000E+01 0. -1.
         13    1    4    4    0    0 -0.18203147737E+02  0.41062811220E+02 -0.74334895240E+01  0.45527637972E+02  0.00000000000E+00 0. -1.
        -14    1    4    4    0    0 -0.10043068929E+03  0.52481583828E+02 -0.13983557007E+03  0.17998507340E+03  0.00000000000E+00 0.  1.
         -5    1    3    3    0  504 -0.80354812659E+02  0.21449615882E+01  0.18996788777E+02  0.82731280430E+02  0.47000000000E+01 0.  1.
<mgrwt>
<rscale>  2 0.28026653E+03</rscale>
<asrwt>0</asrwt>
<pdfrwt beam="1">  1       21 0.20910787E-01 0.28028661E+03</pdfrwt>
<pdfrwt beam="2">  1       21 0.99320617E-01 0.28028661E+03</pdfrwt>
<totfact> 0.16889751E+04</totfact>
</mgrwt>
</event>
<event>
12    1  0.2742799E-001  0.1799699E+03  0.7546771E-02  0.1168205E+00
         21   -1    0    0  502  503  0.00000000000E+00  0.00000000000E+00  0.49628332555E+02  0.49628332555E+02  0.00000000000E+00 0. -1.
         21   -1    0    0  503  504 -0.00000000000E+00 -0.00000000000E+00 -0.13058234970E+04  0.13058234970E+04  0.00000000000E+00 0.  1.
         -6    2    1    2    0  504  0.38542292006E+01 -0.46034714120E+02 -0.11107833903E+04  0.11252683636E+04  0.17393993246E+03 0.  0.
        -24    2    3    3    0    0  0.72106350579E+02 -0.22273987170E+02 -0.66227852515E+03  0.67095390397E+03  0.76621407484E+02 0.  0.
          6    2    1    2  502    0 -0.38542292006E+01  0.46034714120E+02 -0.14541177415E+03  0.23018346589E+03  0.17235368846E+03 0.  0.
         24    2    5    5    0    0 -0.13510625089E+02  0.26070020157E+02 -0.17338708693E+03  0.19417592347E+03  0.82334831022E+02 0.  0.
          2    1    6    6  501    0  0.61364816432E+01  0.42129337853E+02 -0.15983609251E+03  0.16540892957E+03  0.00000000000E+00 0. -1.
         -1    1    6    6    0  501 -0.19647106732E+02 -0.16059317695E+02 -0.13550994419E+02  0.28766993891E+02  0.00000000000E+00 0.  1.
          5    1    5    5  502    0  0.96563958884E+01  0.19964693962E+02  0.27975312781E+02  0.36007542429E+02  0.47000000000E+01 0. -1.
         11    1    4    4    0    0  0.19272379987E+02 -0.44505789733E+02 -0.36408191000E+03  0.36729800863E+03  0.00000000000E+00 0. -1.
        -12    1    4    4    0    0  0.52833970592E+02  0.22231802563E+02 -0.29819661514E+03  0.30365589534E+03  0.00000000000E+00 0.  1.
         -5    1    3    3    0  504 -0.68252121378E+02 -0.23760726949E+02 -0.44850486512E+03  0.45431445966E+03  0.47000000000E+01 0.  1.
<mgrwt>
<rscale>  2 0.17958547E+03</rscale>
<asrwt>0</asrwt>
<pdfrwt beam="1">  1       21 0.76351272E-02 0.17996986E+03</pdfrwt>
<pdfrwt beam="2">  1       21 0.20089595E+00 0.17996986E+03</pdfrwt>
<totfact> 0.17419019E+04</totfact>
</mgrwt>
</event>
<event>
12    1  0.2742799E-001  0.2302020E+03  0.7546771E-02  0.1126553E+00
         21   -1    0    0  502  503  0.00000000000E+00  0.00000000000E+00  0.86360098649E+02  0.86360098649E+02  0.00000000000E+00 0. -1.
         21   -1    0    0  503  504 -0.00000000000E+00 -0.00000000000E+00 -0.89114329535E+03  0.89114329535E+03  0.00000000000E+00 0. -1.
         -6    2    1    2    0  504 -0.15990758345E+02 -0.15011499538E+03 -0.12904117806E+03  0.26362649635E+03  0.17336980057E+03 0.  0.
        -24    2    3    3    0    0  0.15992158332E+02 -0.15794109817E+03 -0.61468822365E+02  0.18831203493E+03  0.80510041336E+02 0.  0.
          6    2    1    2  502    0  0.15990758345E+02  0.15011499538E+03 -0.67574201864E+03  0.71387689765E+03  0.17378933527E+03 0.  0.
         24    2    5    5    0    0  0.29850480115E+02  0.17154670457E+03 -0.47770643108E+03  0.51414809656E+03  0.76325014826E+02 0.  0.
          4    1    6    6  501    0 -0.23683151649E+02  0.28146057395E+02 -0.10372652089E+03  0.11005581927E+03  0.00000000000E+00 0. -1.
         -3    1    6    6    0  501  0.53533631764E+02  0.14340064717E+03 -0.37397991018E+03  0.40409227729E+03  0.00000000000E+00 0.  1.
          5    1    5    5  502    0 -0.13859721770E+02 -0.21431709185E+02 -0.19803558756E+03  0.19972880109E+03  0.47000000000E+01 0. -1.
         11    1    4    4    0    0  0.65277057093E+01 -0.27136470052E+02  0.19624135340E+02  0.34118992314E+02  0.00000000000E+00 0. -1.
        -12    1    4    4    0    0  0.94644526224E+01 -0.13080462812E+03 -0.81092957705E+02  0.15419304262E+03  0.00000000000E+00 0.  1.
         -5    1    3    3    0  504 -0.31982916677E+02  0.78261027900E+01 -0.67572355698E+02  0.75314461417E+02  0.47000000000E+01 0.  1.
<mgrwt>
<rscale>  2 0.23012279E+03</rscale>
<asrwt>0</asrwt>
<pdfrwt beam="1">  1       21 0.13286168E-01 0.23020197E+03</pdfrwt>
<pdfrwt beam="2">  1       21 0.13709897E+00 0.23020197E+03</pdfrwt>
<totfact> 0.18023594E+04</totfact>
</mgrwt>
</event>
<event>
12    1  0.2742799E-001  0.2129057E+03  0.7546771E-02  0.1139459E+00
         21   -1    0    0  502  503  0.00000000000E+00  0.00000000000E+00  0.53532905925E+03  0.53532905925E+03  0.00000000000E+00 0. -1.
         21   -1    0    0  503  504 -0.00000000000E+00 -0.00000000000E+00 -0.19663106052E+03  0.19663106052E+03  0.00000000000E+00 0. -1.
         -6    2    1    2    0  504 -0.89276597423E+02 -0.85785932015E+02 -0.10739595881E+03  0.23766401592E+03  0.17210681427E+03 0.  0.
        -24    2    3    3    0    0 -0.11054741900E+03 -0.16112620035E+02 -0.81663882267E+02  0.16026215538E+03  0.80836998997E+02 0.  0.
          6    2    1    2  502    0  0.89276597423E+02  0.85785932015E+02  0.44609395754E+03  0.49429610385E+03  0.17320300907E+03 0.  0.
         24    2    5    5    0    0 -0.20939129979E+02  0.61729667894E+02  0.15251338428E+03  0.17975222232E+03  0.69293073130E+02 0.  0.
          4    1    6    6  501    0 -0.75800425193E+01 -0.14896065600E+02  0.35609284232E+02  0.39336636085E+02  0.00000000000E+00 0. -1.
         -3    1    6    6    0  501 -0.13359087459E+02  0.76625733494E+02  0.11690410005E+03  0.14041558624E+03  0.00000000000E+00 0.  1.
          5    1    5    5  502    0  0.11021572740E+03  0.24056264121E+02  0.29358057326E+03  0.31454388153E+03  0.47000000000E+01 0. -1.
         11    1    4    4    0    0 -0.49199579116E+02 -0.43211198836E+02 -0.62477227703E+02  0.90505305212E+02  0.00000000000E+00 0. -1.
        -12    1    4    4    0    0 -0.61347839886E+02  0.27098578800E+02 -0.19186654564E+02  0.69756850166E+02  0.00000000000E+00 0.  1.
         -5    1    3    3    0  504  0.21270821579E+02 -0.69673311980E+02 -0.25732076544E+02  0.77401860547E+02  0.47000000000E+01 0.  1.
<mgrwt>
<rscale>  2 0.21268260E+03</rscale>
<asrwt>0</asrwt>
<pdfrwt beam="1">  1       21 0.82358316E-01 0.21290566E+03</pdfrwt>
<pdfrwt beam="2">  1       21 0.30250933E-01 0.21290566E+03</pdfrwt>
<totfact> 0.13324886E+04</totfact>
</mgrwt>
</event>
<event>
12    1  0.2742799E-001  0.1799466E+03  0.7546771E-02  0.1168112E+00
         21   -1    0    0  502  503  0.00000000000E+00  0.00000000000E+00  0.13934146205E+04  0.13934146205E+04  0.00000000000E+00 0.  1.
         21   -1    0    0  503  504 -0.00000000000E+00 -0.00000000000E+00 -0.23313247619E+02  0.23313247619E+02  0.00000000000E+00 0.  1.
         -6    2    1    2    0  504  0.41784263841E+02 -0.17977967534E+02  0.61957134147E+03  0.64517393627E+03  0.17410235167E+03 0.  0.
        -24    2    3    3    0    0  0.79304454384E+02 -0.47954420004E+02  0.36106347083E+03  0.38220100690E+03  0.84391686948E+02 0.  0.
          6    2    1    2  502    0 -0.41784263841E+02  0.17977967534E+02  0.75053003138E+03  0.77155393182E+03  0.17300580819E+03 0.  0.
         24    2    5    5    0    0  0.14492782668E+02  0.65661673602E+02  0.40884624940E+03  0.42196740653E+03  0.79873277120E+02 0.  0.
          4    1    6    6  501    0  0.24219788789E+02  0.44964652144E+02  0.38695115253E+03  0.39030707469E+03  0.00000000000E+00 0. -1.
         -3    1    6    6    0  501 -0.97270061209E+01  0.20697021458E+02  0.21895096873E+02  0.31660331842E+02  0.00000000000E+00 0.  1.
          5    1    5    5  502    0 -0.56277046509E+02 -0.47683706068E+02  0.34168378199E+03  0.34958652528E+03  0.47000000000E+01 0. -1.
         13    1    4    4    0    0  0.72863870621E+02 -0.27394833458E+01  0.15724357945E+03  0.17332683488E+03  0.00000000000E+00 0. -1.
        -14    1    4    4    0    0  0.64405837626E+01 -0.45214936658E+02  0.20381989138E+03  0.20887417202E+03  0.00000000000E+00 0.  1.
         -5    1    3    3    0  504 -0.37520190543E+02  0.29976452470E+02  0.25850787064E+03  0.26297292937E+03  0.47000000000E+01 0.  1.
<mgrwt>
<rscale>  2 0.17968078E+03</rscale>
<asrwt>0</asrwt>
<pdfrwt beam="1">  1       21 0.21437141E+00 0.17994655E+03</pdfrwt>
<pdfrwt beam="2">  1       21 0.35866546E-02 0.17994655E+03</pdfrwt>
<totfact> 0.51698500E+04</totfact>
</mgrwt>
</event>
<event>
12    1  0.2742799E-001  0.2353404E+03  0.7546771E-02  0.1123083E+00
         21   -1    0    0  502  503  0.00000000000E+00  0.00000000000E+00  0.10608518518E+03  0.10608518518E+03  0.00000000000E+00 0.  1.
         21   -1    0    0  503  504 -0.00000000000E+00 -0.00000000000E+00 -0.52030148379E+03  0.52030148379E+03  0.00000000000E+00 0. -1.
         -6    2    1    2    0  504 -0.11191705660E+03  0.11267663661E+03 -0.20281835350E+03  0.31067732181E+03  0.17367688900E+03 0.  0.
        -24    2    3    3    0    0 -0.55826333150E+02  0.14107378924E+03 -0.15140335532E+03  0.22932525010E+03  0.81539566137E+02 0.  0.
          6    2    1    2  502    0  0.11191705660E+03 -0.11267663661E+03 -0.21139794511E+03  0.31570934716E+03  0.17251622732E+03 0.  0.
         24    2    5    5    0    0  0.10920533518E+03 -0.14914076751E+03 -0.16838349193E+03  0.25905849140E+03  0.67746054122E+02 0.  0.
          4    1    6    6  501    0  0.40377006835E+02 -0.88167360842E+02 -0.12267024486E+03  0.15637063399E+03  0.00000000000E+00 0. -1.
         -3    1    6    6    0  501  0.68828328348E+02 -0.60973406665E+02 -0.45713247068E+02  0.10268785742E+03  0.00000000000E+00 0.  1.
          5    1    5    5  502    0  0.27117214214E+01  0.36464130896E+02 -0.43014453181E+02  0.56650855753E+02  0.47000000000E+01 0. -1.
         11    1    4    4    0    0 -0.58498484606E+02  0.14165818797E+03 -0.15924752558E+03  0.22101784843E+03  0.00000000000E+00 0. -1.
        -12    1    4    4    0    0  0.26721514563E+01 -0.58439873716E+00  0.78441702615E+01  0.83074016624E+01  0.00000000000E+00 0.  1.
         -5    1    3    3    0  504 -0.56090723455E+02 -0.28397152625E+02 -0.51414998179E+02  0.81352071717E+02  0.47000000000E+01 0.  1.
<mgrwt>
<rscale>  2 0.23512632E+03</rscale>
<asrwt>0</asrwt>
<pdfrwt beam="1">  1       21 0.16320797E-01 0.23534042E+03</pdfrwt>
<pdfrwt beam="2">  1       21 0.80046384E-01 0.23534042E+03</pdfrwt>
<totfact> 0.45244161E+04</totfact>
</mgrwt>
</event>
<event>
12    1  0.2742799E-001  0.1785328E+03  0.7546771E-02  0.1170031E+00
         21   -1    0    0  502  503  0.00000000000E+00  0.00000000000E+00  0.46178559555E+03  0.46178559555E+03  0.00000000000E+00 0. -1.
         21   -1    0    0  503  504 -0.00000000000E+00 -0.00000000000E+00 -0.34792479343E+03  0.34792479343E+03  0.00000000000E+00 0. -1.
         -6    2    1    2    0  504  0.29182204687E+02 -0.16820766103E+01 -0.30645670498E+03  0.35304776282E+03  0.17283686051E+03 0.  0.
        -24    2    3    3    0    0  0.63322869885E+02 -0.14786633980E+02 -0.29723485886E+03  0.31504188314E+03  0.81696979248E+02 0.  0.
          6    2    1    2  502    0 -0.29182204687E+02  0.16820766103E+01  0.42031750709E+03  0.45666262616E+03  0.17612358421E+03 0.  0.
         24    2    5    5    0    0  0.62855218404E+01  0.36713102326E+02  0.38497595237E+03  0.39537439011E+03  0.82018685613E+02 0.  0.
          4    1    6    6  501    0  0.19290886340E+02  0.25496369965E+02  0.37316200720E+03  0.37452915346E+03  0.00000000000E+00 0. -1.
         -3    1    6    6    0  501 -0.13005364500E+02  0.11216732361E+02  0.11813945171E+02  0.20845236653E+02  0.00000000000E+00 0.  1.
          5    1    5    5  502    0 -0.35467726527E+02 -0.35031025716E+02  0.35341554728E+02  0.61288236051E+02  0.47000000000E+01 0. -1.
         13    1    4    4    0    0  0.46381274804E+02 -0.35657240478E+02 -0.99011066598E+02  0.11500370759E+03  0.00000000000E+00 0. -1.
        -14    1    4    4    0    0  0.16941595080E+02  0.20870606497E+02 -0.19822379226E+03  0.20003817555E+03  0.00000000000E+00 0.  1.
         -5    1    3    3    0  504 -0.34140665198E+02  0.13104557370E+02 -0.92218461206E+01  0.38005879676E+02  0.47000000000E+01 0.  1.
<mgrwt>
<rscale>  2 0.17771680E+03</rscale>
<asrwt>0</asrwt>
<pdfrwt beam="1">  1       21 0.71043938E-01 0.17853276E+03</pdfrwt>
<pdfrwt beam="2">  1       21 0.53526891E-01 0.17853276E+03</pdfrwt>
<totfact> 0.59884611E+03</totfact>
</mgrwt>
</event>
<event>
12    1  0.2742799E-001  0.1776812E+03  0.7546771E-02  0.1170968E+00
         21   -1    0    0  502  503  0.00000000000E+00  0.00000000000E+00  0.97833920158E+02  0.97833920158E+02  0.00000000000E+00 0. -1.
         21   -1    0    0  503  504 -0.00000000000E+00 -0.00000000000E+00 -0.38080358683E+03  0.38080358683E+03  0.00000000000E+00 0. -1.
         -6    2    1    2    0  504  0.10790755344E+02 -0.34886559943E+02 -0.41668552607E+02  0.17897629329E+03  0.17018440827E+03 0.  0.
        -24    2    3    3    0    0  0.29959571700E+02  0.12370513454E+02 -0.76205216029E+02  0.11720619027E+03  0.82942453231E+02 0.  0.
          6    2    1    2  502    0 -0.10790755344E+02  0.34886559943E+02 -0.24130111406E+03  0.29966121370E+03  0.17388819075E+03 0.  0.
         24    2    5    5    0    0  0.48853979894E+01  0.75423270774E+02 -0.90466715109E+02  0.14261958668E+03  0.80271932049E+02 0.  0.
          4    1    6    6  501    0  0.42625358206E+02  0.41233722383E+02 -0.50201676262E+02  0.77700381745E+02  0.00000000000E+00 0. -1.
         -3    1    6    6    0  501 -0.37739960217E+02  0.34189548391E+02 -0.40265038846E+02  0.64919204937E+02  0.00000000000E+00 0.  1.
          5    1    5    5  502    0 -0.15676153334E+02 -0.40536710831E+02 -0.15083439895E+03  0.15704162702E+03  0.47000000000E+01 0. -1.
         13    1    4    4    0    0 -0.18406741137E+02  0.18663920872E+02  0.60293590149E+00  0.26220480417E+02  0.00000000000E+00 0. -1.
        -14    1    4    4    0    0  0.48366312838E+02 -0.62934074177E+01 -0.76808151930E+02  0.90985709853E+02  0.00000000000E+00 0.  1.
         -5    1    3    3    0  504 -0.19168816356E+02 -0.47257073397E+02  0.34536663422E+02  0.61770103018E+02  0.47000000000E+01 0.  1.
<mgrwt>
<rscale>  2 0.17676845E+03</rscale>
<asrwt>0</asrwt>
<pdfrwt beam="1">  1       21 0.15051372E-01 0.17768122E+03</pdfrwt>
<pdfrwt beam="2">  1       21 0.58585167E-01 0.17768122E+03</pdfrwt>
<totfact> 0.10691634E+05</totfact>
</mgrwt>
</event>
<event>
12    1  0.2742799E-001  0.1938663E+03  0.7546771E-02  0.1155115E+00
         21   -1    0    0  502  503  0.00000000000E+00  0.00000000000E+00  0.25883756140E+03  0.25883756140E+03  0.00000000000E+00 0.  1.
         21   -1    0    0  503  504 -0.00000000000E+00 -0.00000000000E+00 -0.33973114289E+03  0.33973114289E+03  0.00000000000E+00 0.  1.
         -6    2    1    2    0  504 -0.54436970534E+02 -0.68859069007E+02 -0.26712311740E+03  0.33005895876E+03  0.17285601309E+03 0.  0.
        -24    2    3    3    0    0  0.32736796777E+02 -0.41376370145E+02 -0.90401167434E+02  0.13104312511E+03  0.78843057365E+02 0.  0.
          6    2    1    2  502    0  0.54436970534E+02  0.68859069007E+02  0.18622953591E+03  0.26850974553E+03  0.17236904669E+03 0.  0.
         24    2    5    5    0    0 -0.18766033897E+02  0.18144232785E+01  0.13100690683E+03  0.15482028630E+03  0.80318461469E+02 0.  0.
          2    1    6    6  501    0 -0.30765106522E+02 -0.11780283410E+02  0.12979464889E+02  0.35408097454E+02  0.00000000000E+00 0. -1.
         -1    1    6    6    0  501  0.11999072625E+02  0.13594706688E+02  0.11802744194E+03  0.11941218884E+03  0.00000000000E+00 0.  1.
          5    1    5    5  502    0  0.73203004431E+02  0.67044645729E+02  0.55222629080E+02  0.11368945923E+03  0.47000000000E+01 0. -1.
         11    1    4    4    0    0  0.27913444499E+01 -0.59519962054E+02 -0.52108680743E+02  0.79156377478E+02  0.00000000000E+00 0. -1.
        -12    1    4    4    0    0  0.29945452327E+02  0.18143591909E+02 -0.38292486691E+02  0.51886747628E+02  0.00000000000E+00 0.  1.
         -5    1    3    3    0  504 -0.87173767310E+02 -0.27482698862E+02 -0.17672194997E+03  0.19901583365E+03  0.47000000000E+01 0.  1.
<mgrwt>
<rscale>  2 0.19375773E+03</rscale>
<asrwt>0</asrwt>
<pdfrwt beam="1">  1       21 0.39821163E-01 0.19386634E+03</pdfrwt>
<pdfrwt beam="2">  1       21 0.52266330E-01 0.19386634E+03</pdfrwt>
<totfact> 0.21095597E+04</totfact>
</mgrwt>
</event>
<event>
12    1  0.2742799E-001  0.2044344E+03  0.7546771E-02  0.1146348E+00
         21   -1    0    0  502  503  0.00000000000E+00  0.00000000000E+00  0.67852227713E+02  0.67852227713E+02  0.00000000000E+00 0.  1.
         21   -1    0    0  503  504 -0.00000000000E+00 -0.00000000000E+00 -0.61654719238E+03  0.61654719238E+03  0.00000000000E+00 0.  1.
         -6    2    1    2    0  504  0.14341344074E+02 -0.10621980801E+03 -0.24273365609E+03  0.31642422394E+03  0.17238427984E+03 0.  0.
        -24    2    3    3    0    0 -0.47006189547E+02 -0.58325166590E+02 -0.84906206901E+02  0.14038726681E+03  0.82994661270E+02 0.  0.
          6    2    1    2  502    0 -0.14341344074E+02  0.10621980801E+03 -0.30596130858E+03  0.36797519615E+03  0.17408360311E+03 0.  0.
         24    2    5    5    0    0 -0.46239161142E+02  0.12650750443E+03 -0.18762993369E+03  0.24366322712E+03  0.77618087683E+02 0.  0.
          4    1    6    6  501    0 -0.46322658666E+02  0.65427637634E+02 -0.53776269796E+02  0.96532127633E+02  0.00000000000E+00 0. -1.
         -3    1    6    6    0  501  0.83497524042E-01  0.61079866800E+02 -0.13385366389E+03  0.14713109949E+03  0.00000000000E+00 0.  1.
          5    1    5    5  502    0  0.31897817068E+02 -0.20287696424E+02 -0.11833137490E+03  0.12431196903E+03  0.47000000000E+01 0. -1.
         13    1    4    4    0    0  0.23856539006E+02 -0.11399592376E+02 -0.15434976880E+02  0.30615742208E+02  0.00000000000E+00 0. -1.
        -14    1    4    4    0    0 -0.70862728553E+02 -0.46925574214E+02 -0.69471230020E+02  0.10977152460E+03  0.00000000000E+00 0.  1.
         -5    1    3    3    0  504  0.61347533621E+02 -0.47894641421E+02 -0.15782744919E+03  0.17603695713E+03  0.47000000000E+01 0.  1.
<mgrwt>
<rscale>  2 0.20407216E+03</rscale>
<asrwt>0</asrwt>
<pdfrwt beam="1">  1       21 0.10438804E-01 0.20443440E+03</pdfrwt>
<pdfrwt beam="2">  1       21 0.94853419E-01 0.20443440E+03</pdfrwt>
<totfact> 0.69534845E+04</totfact>
</mgrwt>
</event>
<event>
12    1  0.2742799E-001  0.1951889E+03  0.7546771E-02  0.1154406E+00
         21   -1    0    0  502  503  0.00000000000E+00  0.00000000000E+00  0.53838522584E+02  0.53838522584E+02  0.00000000000E+00 0.  1.
         21   -1    0    0  503  504 -0.00000000000E+00 -0.00000000000E+00 -0.69905581173E+03  0.69905581173E+03  0.00000000000E+00 0.  1.
         -6    2    1    2    0  504 -0.76902732013E+02  0.42147216393E+02 -0.31610810932E+03  0.37151451968E+03  0.17437971073E+03 0.  0.
        -24    2    3    3    0    0 -0.45207828720E+02 -0.32727938301E+02 -0.24340143077E+03  0.26233939984E+03  0.80391781215E+02 0.  0.
          6    2    1    2  502    0  0.76902732013E+02 -0.42147216393E+02 -0.32910917983E+03  0.38137981463E+03  0.17160213496E+03 0.  0.
         24    2    5    5    0    0  0.78073628177E+02 -0.88211216475E+02 -0.22215538131E+03  0.26482738816E+03  0.83089240838E+02 0.  0.
          4    1    6    6  501    0  0.58174807501E+01 -0.43522112374E+02 -0.13968482358E+03  0.14642358856E+03  0.00000000000E+00 0. -1.
         -3    1    6    6    0  501  0.72256147427E+02 -0.44689104101E+02 -0.82470557729E+02  0.11840379959E+03  0.00000000000E+00 0.  1.
          5    1    5    5  502    0 -0.11708961644E+01  0.46064000082E+02 -0.10695379851E+03  0.11655242648E+03  0.47000000000E+01 0. -1.
         13    1    4    4    0    0  0.37943074942E+01  0.20852010328E+02 -0.92242677157E+02  0.94646260323E+02  0.00000000000E+00 0. -1.
        -14    1    4    4    0    0 -0.49002136214E+02 -0.53579948629E+02 -0.15115875361E+03  0.16769313952E+03  0.00000000000E+00 0.  1.
         -5    1    3    3    0  504 -0.31694903293E+02  0.74875154694E+02 -0.72706678549E+02  0.10917511983E+03  0.47000000000E+01 0.  1.
<mgrwt>
<rscale>  2 0.19456656E+03</rscale>
<asrwt>0</asrwt>
<pdfrwt beam="1">  1       21 0.82828501E-02 0.19518889E+03</pdfrwt>
<pdfrwt beam="2">  1       21 0.10754704E+00 0.19518889E+03</pdfrwt>
<totfact> 0.77809766E+04</totfact>
</mgrwt>
</event>
<event>
12    1  0.2742799E-001  0.1988775E+03  0.7546771E-02  0.1151830E+00
         21   -1    0    0  502  503  0.00000000000E+00  0.00000000000E+00  0.28995256847E+03  0.28995256847E+03  0.00000000000E+00 0.  1.
         21   -1    0    0  503  504 -0.00000000000E+00 -0.00000000000E+00 -0.15401698933E+03  0.15401698933E+03  0.00000000000E+00 0.  1.
         -6    2    1    2    0  504  0.42333775149E+02  0.73571519509E+02 -0.15200850946E+02  0.19418065978E+03  0.17398317666E+03 0.  0.
        -24    2    3    3    0    0 -0.30894558079E+01  0.23191998644E+02  0.51362826567E+02  0.99027208991E+02  0.81368511289E+02 0.  0.
          6    2    1    2  502    0 -0.42333775149E+02 -0.73571519509E+02  0.15113643008E+03  0.24978889802E+03  0.17985370743E+03 0.  0.
         24    2    5    5    0    0  0.42403730064E+01  0.88787075090E+01  0.67502214038E+01  0.77055987238E+02  0.76126522776E+02 0.  0.
          4    1    6    6  501    0 -0.30308209248E+02  0.23660725079E+02 -0.18927993879E+01  0.38496755040E+02  0.00000000000E+00 0. -1.
         -3    1    6    6    0  501  0.34548582255E+02 -0.14782017570E+02  0.86430207917E+01  0.38559232197E+02  0.00000000000E+00 0.  1.
          5    1    5    5  502    0 -0.46574148155E+02 -0.82450227018E+02  0.14438620868E+03  0.17273291079E+03  0.47000000000E+01 0. -1.
         11    1    4    4    0    0  0.24261645761E+02  0.54478033779E+01 -0.12119725589E+02  0.27662135945E+02  0.00000000000E+00 0. -1.
        -12    1    4    4    0    0 -0.27351101569E+02  0.17744195267E+02  0.63482552155E+02  0.71365073046E+02  0.00000000000E+00 0.  1.
         -5    1    3    3    0  504  0.45423230957E+02  0.50379520865E+02 -0.66563677513E+02  0.95153450789E+02  0.47000000000E+01 0.  1.
<mgrwt>
<rscale>  2 0.19754093E+03</rscale>
<asrwt>0</asrwt>
<pdfrwt beam="1">  1       21 0.44608087E-01 0.19887753E+03</pdfrwt>
<pdfrwt beam="2">  1       21 0.23694921E-01 0.19887753E+03</pdfrwt>
<totfact> 0.80713084E+04</totfact>
</mgrwt>
</event>
<event>
12    1  0.2742799E-001  0.3550385E+03  0.7546771E-02  0.1060578E+00
         21   -1    0    0  502  503  0.00000000000E+00  0.00000000000E+00  0.11855541182E+03  0.11855541182E+03  0.00000000000E+00 0.  1.
         21   -1    0    0  503  504 -0.00000000000E+00 -0.00000000000E+00 -0.11441988596E+04  0.11441988596E+04  0.00000000000E+00 0. -1.
         -6    2    1    2    0  504 -0.26158199666E+03 -0.16621181274E+03 -0.34440215871E+03  0.49454722664E+03  0.17295260849E+03 0.  0.
        -24    2    3    3    0    0 -0.26575420231E+03 -0.11258151207E+03 -0.27771231960E+03  0.40873789678E+03  0.81502410413E+02 0.  0.
          6    2    1    2  502    0  0.26158199666E+03  0.16621181274E+03 -0.68124128903E+03  0.76820704474E+03  0.17320756923E+03 0.  0.
         24    2    5    5    0    0  0.20441540765E+03  0.16222281575E+03 -0.42230163197E+03  0.50296042931E+03  0.80799902613E+02 0.  0.
          4    1    6    6  501    0  0.16877307396E+03  0.16394950225E+03 -0.38596601390E+03  0.45203269093E+03  0.00000000000E+00 0. -1.
         -3    1    6    6    0  501  0.35642333681E+02 -0.17266865066E+01 -0.36335618068E+02  0.50927738384E+02  0.00000000000E+00 0.  1.
          5    1    5    5  502    0  0.57166589018E+02  0.39889969996E+01 -0.25893965706E+03  0.26524661543E+03  0.47000000000E+01 0. -1.
         11    1    4    4    0    0 -0.55009087767E+02 -0.45037790503E+02 -0.11037457517E+03  0.13128956224E+03  0.00000000000E+00 0. -1.
        -12    1    4    4    0    0 -0.21074511455E+03 -0.67543721564E+02 -0.16733774443E+03  0.27744833454E+03  0.00000000000E+00 0.  1.
         -5    1    3    3    0  504  0.41722056485E+01 -0.53630300678E+02 -0.66689839107E+02  0.85809329859E+02  0.47000000000E+01 0.  1.
<mgrwt>
<rscale>  2 0.35500746E+03</rscale>
<asrwt>0</asrwt>
<pdfrwt beam="1">  1       21 0.18239293E-01 0.35503855E+03</pdfrwt>
<pdfrwt beam="2">  1       21 0.17603060E+00 0.35503855E+03</pdfrwt>
<totfact> 0.47756873E+03</totfact>
</mgrwt>
</event>
<event>
12    1  0.2742799E-001  0.5154718E+03  0.7546771E-02  0.1010012E+00
         21   -1    0    0  502  503  0.00000000000E+00  0.00000000000E+00  0.73752018569E+03  0.73752018569E+03  0.00000000000E+00 0.  1.
         21   -1    0    0  503  504 -0.00000000000E+00 -0.00000000000E+00 -0.36247945422E+03  0.36247945422E+03  0.00000000000E+00 0. -1.
         -6    2    1    2    0  504 -0.47333584542E+03 -0.10818713956E+03  0.24833657255E+03  0.57217321205E+03  0.17308914351E+03 0.  0.
        -24    2    3    3    0    0 -0.33944101874E+03 -0.56432149427E+02  0.96719596997E+02  0.36332829138E+03  0.65176484887E+02 0.  0.
          6    2    1    2  502    0  0.47333584542E+03  0.10818713956E+03  0.12670415893E+03  0.52782642786E+03  0.16369335458E+03 0.  0.
         24    2    5    5    0    0  0.21339463047E+03  0.83010759789E+02  0.97270299124E+01  0.24162890160E+03  0.76562761326E+02 0.  0.
          2    1    6    6  501    0  0.20941489777E+03  0.79126699150E+02 -0.70276300955E+01  0.22397549310E+03  0.00000000000E+00 0. -1.
         -1    1    6    6    0  501  0.39797326985E+01  0.38840606395E+01  0.16754660008E+02  0.17653408492E+02  0.00000000000E+00 0.  1.
          5    1    5    5  502    0  0.25994121495E+03  0.25176379771E+02  0.11697712902E+03  0.28619752626E+03  0.47000000000E+01 0. -1.
         11    1    4    4    0    0 -0.25535721713E+03 -0.70028352785E+02  0.67170838786E+02  0.27317247321E+03  0.00000000000E+00 0. -1.
        -12    1    4    4    0    0 -0.84083801611E+02  0.13596203359E+02  0.29548758211E+02  0.90155818176E+02  0.00000000000E+00 0.  1.
         -5    1    3    3    0  504 -0.13389482667E+03 -0.51754990134E+02  0.15161697555E+03  0.20884492067E+03  0.47000000000E+01 0.  1.
<mgrwt>
<rscale>  2 0.51470039E+03</rscale>
<asrwt>0</asrwt>
<pdfrwt beam="1">  1       21 0.11346464E+00 0.51547176E+03</pdfrwt>
<pdfrwt beam="2">  1       21 0.55766070E-01 0.51547176E+03</pdfrwt>
<totfact> 0.15355989E+03</totfact>
</mgrwt>
</event>
<event>
12    1  0.2742799E-001  0.3047599E+03  0.7546771E-02  0.1083150E+00
         21   -1    0    0  502  503  0.00000000000E+00  0.00000000000E+00  0.33314206681E+03  0.33314206681E+03  0.00000000000E+00 0.  1.
         21   -1    0    0  503  504 -0.00000000000E+00 -0.00000000000E+00 -0.36982523178E+03  0.36982523178E+03  0.00000000000E+00 0.  1.
         -6    2    1    2    0  504  0.22196963830E+03  0.11380937996E+03 -0.19464792568E+03  0.36161638485E+03  0.17508711982E+03 0.  0.
        -24    2    3    3    0    0  0.51712874238E+02  0.18616049263E+02 -0.19320855440E+02  0.99298243127E+02  0.80411858460E+02 0.  0.
          6    2    1    2  502    0 -0.22196963830E+03 -0.11380937996E+03  0.15796476071E+03  0.34135091373E+03  0.17130232160E+03 0.  0.
         24    2    5    5    0    0 -0.14291196227E+03 -0.45590250464E+02  0.16444803605E+03  0.23662227091E+03  0.80278531578E+02 0.  0.
          2    1    6    6  501    0 -0.10207679776E+02 -0.20059703257E+02  0.65140976321E+02  0.68919773775E+02  0.00000000000E+00 0. -1.
         -1    1    6    6    0  501 -0.13270428249E+03 -0.25530547207E+02  0.99307059725E+02  0.16770249713E+03  0.00000000000E+00 0.  1.
          5    1    5    5  502    0 -0.79057676034E+02 -0.68219129500E+02 -0.64832753338E+01  0.10472864283E+03  0.47000000000E+01 0. -1.
         13    1    4    4    0    0  0.44932316330E+02  0.48750297219E+02 -0.10099438443E+02  0.67063426595E+02  0.00000000000E+00 0. -1.
        -14    1    4    4    0    0  0.67805579075E+01 -0.30134247956E+02 -0.92214169977E+01  0.32234816532E+02  0.00000000000E+00 0.  1.
         -5    1    3    3    0  504  0.17025676407E+03  0.95193330700E+02 -0.17532707024E+03  0.26231814173E+03  0.47000000000E+01 0.  1.
<mgrwt>
<rscale>  2 0.30421882E+03</rscale>
<asrwt>0</asrwt>
<pdfrwt beam="1">  1       21 0.51252625E-01 0.30475990E+03</pdfrwt>
<pdfrwt beam="2">  1       21 0.56896190E-01 0.30475990E+03</pdfrwt>
<totfact> 0.98665453E+03</totfact>
</mgrwt>
</event>
<event>
12    1  0.2742799E-001  0.1971945E+03  0.7546771E-02  0.1152132E+00
         21   -1    0    0  502  503  0.00000000000E+00  0.00000000000E+00  0.10850770148E+04  0.10850770148E+04  0.00000000000E+00 0. -1.
         21   -1    0    0  503  504 -0.00000000000E+00 -0.00000000000E+00 -0.67484126488E+02  0.67484126488E+02  0.00000000000E+00 0. -1.
         -6    2    1    2    0  504 -0.75239384850E+01 -0.97457114662E+02  0.11412088131E+03  0.22781936823E+03  0.17124132137E+03 0.  0.
        -24    2    3    3    0    0  0.38358758039E+01 -0.11351181011E+03  0.31358672993E+02  0.14262270309E+03  0.80363076639E+02 0.  0.
          6    2    1    2  502    0  0.75239384850E+01  0.97457114662E+02  0.90347200703E+03  0.92474177308E+03  0.17126348281E+03 0.  0.
         24    2    5    5    0    0 -0.54482308192E+02  0.94853156648E+02  0.59974612752E+03  0.61470458965E+03  0.78745614683E+02 0.  0.
          2    1    6    6  501    0 -0.89008361068E+01  0.77077562118E+02  0.25617110463E+03  0.26766361410E+03  0.00000000000E+00 0. -1.
         -1    1    6    6    0  501 -0.45581472085E+02  0.17775594530E+02  0.34357502289E+03  0.34704097556E+03  0.00000000000E+00 0.  1.
          5    1    5    5  502    0  0.62006246677E+02  0.26039580137E+01  0.30372587951E+03  0.31003718343E+03  0.47000000000E+01 0. -1.
         13    1    4    4    0    0  0.19010523805E+02 -0.54003711712E+01 -0.14191173042E+02  0.24330092816E+02  0.00000000000E+00 0. -1.
        -14    1    4    4    0    0 -0.15174648001E+02 -0.10811143894E+03  0.45549846035E+02  0.11829261027E+03  0.00000000000E+00 0.  1.
         -5    1    3    3    0  504 -0.11359814289E+02  0.16054695447E+02  0.82762208316E+02  0.85196665146E+02  0.47000000000E+01 0.  1.
<mgrwt>
<rscale>  2 0.19718971E+03</rscale>
<asrwt>0</asrwt>
<pdfrwt beam="1">  1       21 0.16693491E+00 0.19719452E+03</pdfrwt>
<pdfrwt beam="2">  1       21 0.10382174E-01 0.19719452E+03</pdfrwt>
<totfact> 0.16976927E+04</totfact>
</mgrwt>
</event>
<event>
12    1  0.2742799E-001  0.3559434E+03  0.7546771E-02  0.1060207E+00
         21   -1    0    0  502  503  0.00000000000E+00  0.00000000000E+00  0.17295049068E+03  0.17295049068E+03  0.00000000000E+00 0. -1.
         21   -1    0    0  503  504 -0.00000000000E+00 -0.00000000000E+00 -0.20288419642E+04  0.20288419642E+04  0.00000000000E+00 0.  1.
         -6    2    1    2    0  504  0.30757304578E+03  0.45868626372E+02 -0.18079390017E+04  0.18426335538E+04  0.17306030824E+03 0.  0.
        -24    2    3    3    0    0  0.19491221179E+03 -0.23014164293E+02 -0.86914387814E+03  0.89458520249E+03  0.79694300616E+02 0.  0.
          6    2    1    2  502    0 -0.30757304578E+03 -0.45868626372E+02 -0.47952471808E+02  0.35915890108E+03  0.17317784873E+03 0.  0.
         24    2    5    5    0    0 -0.49725549722E+02  0.47570904025E+01 -0.30938793236E+02  0.95796318916E+02  0.75660198167E+02 0.  0.
          2    1    6    6  501    0 -0.59186766230E+02  0.27100456180E+02 -0.15113116198E+02  0.66827496610E+02  0.00000000000E+00 0. -1.
         -1    1    6    6    0  501  0.94612165076E+01 -0.22343365778E+02 -0.15825677039E+02  0.28968822306E+02  0.00000000000E+00 0.  1.
          5    1    5    5  502    0 -0.25784749606E+03 -0.50625716775E+02 -0.17013678572E+02  0.26336258216E+03  0.47000000000E+01 0. -1.
         11    1    4    4    0    0  0.12110532144E+03  0.17787257232E+02 -0.41491383218E+03  0.43259261845E+03  0.00000000000E+00 0. -1.
        -12    1    4    4    0    0  0.73806890348E+02 -0.40801421525E+02 -0.45423004595E+03  0.46199258404E+03  0.00000000000E+00 0.  1.
         -5    1    3    3    0  504  0.11266083400E+03  0.68882790665E+02 -0.93879512355E+03  0.94804835129E+03  0.47000000000E+01 0.  1.
<mgrwt>
<rscale>  2 0.35592907E+03</rscale>
<asrwt>0</asrwt>
<pdfrwt beam="1">  1       21 0.26607768E-01 0.35594336E+03</pdfrwt>
<pdfrwt beam="2">  1       21 0.31212952E+00 0.35594336E+03</pdfrwt>
<totfact> 0.32774058E+02</totfact>
</mgrwt>
</event>
<event>
12    1  0.2742799E-001  0.1838747E+03  0.7546771E-02  0.1164430E+00
         21   -1    0    0  502  503  0.00000000000E+00  0.00000000000E+00  0.11134172344E+03  0.11134172344E+03  0.00000000000E+00 0.  1.
         21   -1    0    0  503  504 -0.00000000000E+00 -0.00000000000E+00 -0.90013142742E+03  0.90013142742E+03  0.00000000000E+00 0.  1.
         -6    2    1    2    0  504 -0.44847080659E+02  0.35635710806E+02 -0.80636659364E+03  0.82676021915E+03  0.17327496098E+03 0.  0.
        -24    2    3    3    0    0 -0.23313650854E+02  0.63071389564E+02 -0.76335674328E+03  0.77118736340E+03  0.86573122064E+02 0.  0.
          6    2    1    2  502    0  0.44847080659E+02 -0.35635710806E+02  0.17576889658E+02  0.18471293170E+03  0.17472479950E+03 0.  0.
         24    2    5    5    0    0  0.87237405698E+02 -0.59748208467E+02  0.24904595816E+02  0.13517367981E+03  0.80445456387E+02 0.  0.
          2    1    6    6  501    0  0.59708689552E+02 -0.66226988372E+02 -0.10583619492E+02  0.89795070011E+02  0.00000000000E+00 0. -1.
         -1    1    6    6    0  501  0.27528716146E+02  0.64787799052E+01  0.35488215308E+02  0.45378609801E+02  0.00000000000E+00 0.  1.
          5    1    5    5  502    0 -0.42390325039E+02  0.24112497661E+02 -0.73277061587E+01  0.49539251891E+02  0.47000000000E+01 0. -1.
         11    1    4    4    0    0  0.25587179327E+02  0.11223216122E+02 -0.94494430587E+02  0.98538630689E+02  0.00000000000E+00 0. -1.
        -12    1    4    4    0    0 -0.48900830180E+02  0.51848173442E+02 -0.66886231269E+03  0.67264873271E+03  0.00000000000E+00 0.  1.
         -5    1    3    3    0  504 -0.21533429805E+02 -0.27435678758E+02 -0.43009850368E+02  0.55572855755E+02  0.47000000000E+01 0.  1.
<mgrwt>
<rscale>  2 0.18352949E+03</rscale>
<asrwt>0</asrwt>
<pdfrwt beam="1">  1       21 0.17129495E-01 0.18387474E+03</pdfrwt>
<pdfrwt beam="2">  1       21 0.13848176E+00 0.18387474E+03</pdfrwt>
<totfact> 0.11395267E+04</totfact>
</mgrwt>
</event>
<event>
12    1  0.2742799E-001  0.2092495E+03  0.7546771E-02  0.1142523E+00
         21   -1    0    0  502  503  0.00000000000E+00  0.00000000000E+00  0.38184667822E+02  0.38184667822E+02  0.00000000000E+00 0.  1.
         21   -1    0    0  503  504 -0.00000000000E+00 -0.00000000000E+00 -0.11427440109E+04  0.11427440109E+04  0.00000000000E+00 0.  1.
         -6    2    1    2    0  504 -0.11473222205E+03 -0.29276209798E+02 -0.51206163943E+03  0.55316586719E+03  0.17252470784E+03 0.  0.
        -24    2    3    3    0    0  0.91519288923E+01 -0.12327454229E+01 -0.23379524362E+03  0.24724431551E+03  0.79901552847E+02 0.  0.
          6    2    1    2  502    0  0.11473222205E+03  0.29276209798E+02 -0.59249770369E+03  0.62776281157E+03  0.17032920911E+03 0.  0.
         24    2    5    5    0    0  0.13688550923E+03  0.14709134011E+02 -0.57261613521E+03  0.59429141191E+03  0.79618105414E+02 0.  0.
          4    1    6    6  501    0  0.61126546352E+02 -0.21810626852E+02 -0.35704281256E+03  0.36289354928E+03  0.00000000000E+00 0. -1.
         -3    1    6    6    0  501  0.75758962879E+02  0.36519760863E+02 -0.21557332265E+03  0.23139786263E+03  0.00000000000E+00 0.  1.
          5    1    5    5  502    0 -0.22153287184E+02  0.14567075787E+02 -0.19881568487E+02  0.33471399665E+02  0.47000000000E+01 0. -1.
         11    1    4    4    0    0  0.23249239645E+02 -0.30717300398E+02 -0.67071961679E+02  0.77348094555E+02  0.00000000000E+00 0. -1.
        -12    1    4    4    0    0 -0.14097310753E+02  0.29484554975E+02 -0.16672328194E+03  0.16989622095E+03  0.00000000000E+00 0.  1.
         -5    1    3    3    0  504 -0.12388415094E+03 -0.28043464375E+02 -0.27826639580E+03  0.30592155168E+03  0.47000000000E+01 0.  1.
<mgrwt>
<rscale>  2 0.20879642E+03</rscale>
<asrwt>0</asrwt>
<pdfrwt beam="1">  1       21 0.58745652E-02 0.20924950E+03</pdfrwt>
<pdfrwt beam="2">  1       21 0.17580674E+00 0.20924950E+03</pdfrwt>
<totfact> 0.39331127E+04</totfact>
</mgrwt>
</event>
<event>
12    1  0.2742799E-001  0.1760780E+03  0.7546771E-02  0.1171816E+00
         21   -1    0    0  502  503  0.00000000000E+00  0.00000000000E+00  0.12418611749E+03  0.12418611749E+03  0.00000000000E+00 0. -1.
         21   -1    0    0  503  504 -0.00000000000E+00 -0.00000000000E+00 -0.46170261554E+03  0.46170261554E+03  0.00000000000E+00 0. -1.
         -6    2    1    2    0  504  0.19048393715E+02 -0.27402062774E+02 -0.36754885020E+03  0.40726792670E+03  0.17222454090E+03 0.  0.
        -24    2    3    3    0    0 -0.15013693240E+02  0.40473523829E+02 -0.26192486923E+03  0.27709175230E+03  0.79446113547E+02 0.  0.
          6    2    1    2  502    0 -0.19048393715E+02  0.27402062774E+02  0.30032352155E+02  0.17862080632E+03  0.17288648278E+03 0.  0.
         24    2    5    5    0    0 -0.49276173756E+02  0.11090961648E+02 -0.37264664166E+02  0.10291909490E+03  0.81563068665E+02 0.  0.
          4    1    6    6  501    0 -0.40306360120E+02 -0.29764266300E+02 -0.55187445990E+01  0.50408042577E+02  0.00000000000E+00 0. -1.
         -3    1    6    6    0  501 -0.89698136365E+01  0.40855227948E+02 -0.31745919567E+02  0.52511052327E+02  0.00000000000E+00 0.  1.
          5    1    5    5  502    0  0.30227780041E+02  0.16311101126E+02  0.67297016321E+02  0.75701711420E+02  0.47000000000E+01 0. -1.
         11    1    4    4    0    0 -0.40372920146E+02  0.39948219879E+01 -0.17291212610E+03  0.17760781131E+03  0.00000000000E+00 0. -1.
        -12    1    4    4    0    0  0.25359226906E+02  0.36478701841E+02 -0.89012743125E+02  0.99483940995E+02  0.00000000000E+00 0.  1.
         -5    1    3    3    0  504  0.34062086955E+02 -0.67875586603E+02 -0.10562398098E+03  0.13017617440E+03  0.47000000000E+01 0.  1.
<mgrwt>
<rscale>  2 0.17591527E+03</rscale>
<asrwt>0</asrwt>
<pdfrwt beam="1">  1       21 0.19105556E-01 0.17607797E+03</pdfrwt>
<pdfrwt beam="2">  1       21 0.71031172E-01 0.17607797E+03</pdfrwt>
<totfact> 0.45470697E+04</totfact>
</mgrwt>
</event>
<event>
12    1  0.2742799E-001  0.1737754E+03  0.7546771E-02  0.1174068E+00
         21   -1    0    0  502  503  0.00000000000E+00  0.00000000000E+00  0.86144236859E+02  0.86144236859E+02  0.00000000000E+00 0. -1.
         21   -1    0    0  503  504 -0.00000000000E+00 -0.00000000000E+00 -0.39400581256E+03  0.39400581256E+03  0.00000000000E+00 0. -1.
         -6    2    1    2    0  504 -0.19324657545E+02  0.14766984475E+02 -0.23423526694E+03  0.29142084182E+03  0.17166374267E+03 0.  0.
        -24    2    3    3    0    0 -0.62536094085E+02  0.34906369822E+02 -0.12256268399E+03  0.16990673205E+03  0.93367383874E+02 0.  0.
          6    2    1    2  502    0  0.19324657545E+02 -0.14766984475E+02 -0.73626308752E+02  0.18872920759E+03  0.17206502910E+03 0.  0.
         24    2    5    5    0    0  0.65423438976E+02 -0.45410645292E+02 -0.68601478476E+02  0.13294865079E+03  0.81405330445E+02 0.  0.
          4    1    6    6  501    0  0.84458990020E+02 -0.42155500731E+02 -0.59654142665E+02  0.11166478395E+03  0.00000000000E+00 0. -1.
         -3    1    6    6    0  501 -0.19035551044E+02 -0.32551445610E+01 -0.89473358112E+01  0.21283866843E+02  0.00000000000E+00 0.  1.
          5    1    5    5  502    0 -0.46098781431E+02  0.30643660818E+02 -0.50248302762E+01  0.55780556801E+02  0.47000000000E+01 0. -1.
         13    1    4    4    0    0 -0.64751586883E+02 -0.14831901990E+02 -0.56652548079E+02  0.87305581290E+02  0.00000000000E+00 0. -1.
        -14    1    4    4    0    0  0.22154927980E+01  0.49738271812E+02 -0.65910135909E+02  0.82601150759E+02  0.00000000000E+00 0.  1.
         -5    1    3    3    0  504  0.43211436539E+02 -0.20139385347E+02 -0.11167258296E+03  0.12151410977E+03  0.47000000000E+01 0.  1.
<mgrwt>
<rscale>  2 0.17367596E+03</rscale>
<asrwt>0</asrwt>
<pdfrwt beam="1">  1       21 0.13252959E-01 0.17377537E+03</pdfrwt>
<pdfrwt beam="2">  1       21 0.60616279E-01 0.17377537E+03</pdfrwt>
<totfact> 0.12529837E+05</totfact>
</mgrwt>
</event>
<event>
12    1  0.2742799E-001  0.3135991E+03  0.7546771E-02  0.1078716E+00
         21   -1    0    0  502  503  0.00000000000E+00  0.00000000000E+00  0.14322111509E+04  0.14322111509E+04  0.00000000000E+00 0.  1.
         21   -1    0    0  503  504 -0.00000000000E+00 -0.00000000000E+00 -0.83967450064E+02  0.83967450064E+02  0.00000000000E+00 0. -1.
         -6    2    1    2    0  504 -0.40662385739E+02 -0.25694713836E+03  0.99874140120E+03  0.10466082875E+04  0.17386563610E+03 0.  0.
        -24    2    3    3    0    0  0.31973299790E+01 -0.37736949577E+02  0.31622300340E+03  0.32839506366E+03  0.80075150166E+02 0.  0.
          6    2    1    2  502    0  0.40662385739E+02  0.25694713836E+03  0.34950229963E+03  0.46957031348E+03  0.17512612692E+03 0.  0.
         24    2    5    5    0    0 -0.39966989122E+02  0.14282434276E+03  0.15025498782E+03  0.22616388416E+03  0.81101097611E+02 0.  0.
          4    1    6    6  501    0 -0.18619167584E+02 -0.18394754362E+01  0.35819733012E+01  0.19049609028E+02  0.00000000000E+00 0. -1.
         -3    1    6    6    0  501 -0.21347821538E+02  0.14466381819E+03  0.14667301451E+03  0.20711427514E+03  0.00000000000E+00 0.  1.
          5    1    5    5  502    0  0.80629374861E+02  0.11412279561E+03  0.19924731181E+03  0.24340642932E+03  0.47000000000E+01 0. -1.
         11    1    4    4    0    0 -0.23616584277E+02 -0.25565507147E+02  0.52224615931E+02  0.62759451222E+02  0.00000000000E+00 0. -1.
        -12    1    4    4    0    0  0.26813914256E+02 -0.12171442430E+02  0.26399838747E+03  0.26563561244E+03  0.00000000000E+00 0.  1.
         -5    1    3    3    0  504 -0.43859715718E+02 -0.21921018878E+03  0.68251839779E+03  0.71821322381E+03  0.47000000000E+01 0.  1.
<mgrwt>
<rscale>  2 0.31342345E+03</rscale>
<asrwt>0</asrwt>
<pdfrwt beam="1">  1       21 0.22034016E+00 0.31359914E+03</pdfrwt>
<pdfrwt beam="2">  1       21 0.12918070E-01 0.31359914E+03</pdfrwt>
<totfact> 0.46925554E+03</totfact>
</mgrwt>
</event>
<event>
12    1  0.2742799E-001  0.2270010E+03  0.7546771E-02  0.1129055E+00
         21   -1    0    0  502  503  0.00000000000E+00  0.00000000000E+00  0.34942206169E+02  0.34942206169E+02  0.00000000000E+00 0.  1.
         21   -1    0    0  503  504 -0.00000000000E+00 -0.00000000000E+00 -0.14719771084E+04  0.14719771084E+04  0.00000000000E+00 0. -1.
         -6    2    1    2    0  504 -0.72363062174E+02  0.12815418283E+03 -0.66684786197E+03  0.70442565543E+03  0.17282802337E+03 0.  0.
        -24    2    3    3    0    0 -0.61037359059E+02  0.31628254825E+01 -0.32153720840E+03  0.33698498207E+03  0.80231783556E+02 0.  0.
          6    2    1    2  502    0  0.72363062174E+02 -0.12815418283E+03 -0.77018704024E+03  0.80249365912E+03  0.17072811319E+03 0.  0.
         24    2    5    5    0    0  0.37555994597E+02 -0.25492222037E+02 -0.18425259753E+03  0.20659746740E+03  0.81689581512E+02 0.  0.
          2    1    6    6  501    0  0.17841639509E+02  0.29606070093E+02 -0.59759051294E+02  0.69036133280E+02  0.00000000000E+00 0. -1.
         -1    1    6    6    0  501  0.19714355088E+02 -0.55098292130E+02 -0.12449354623E+03  0.13756133412E+03  0.00000000000E+00 0.  1.
          5    1    5    5  502    0  0.34807067577E+02 -0.10266196079E+03 -0.58593444271E+03  0.59589619172E+03  0.47000000000E+01 0. -1.
         13    1    4    4    0    0 -0.38633421820E+02  0.13398680420E+02 -0.30402533712E+03  0.30676289138E+03  0.00000000000E+00 0. -1.
        -14    1    4    4    0    0 -0.22403937239E+02 -0.10235854937E+02 -0.17511871280E+02  0.30222090692E+02  0.00000000000E+00 0.  1.
         -5    1    3    3    0  504 -0.11325703115E+02  0.12499135735E+03 -0.34531065357E+03  0.36744067335E+03  0.47000000000E+01 0.  1.
<mgrwt>
<rscale>  2 0.22660123E+03</rscale>
<asrwt>0</asrwt>
<pdfrwt beam="1">  1       21 0.53757261E-02 0.22700095E+03</pdfrwt>
<pdfrwt beam="2">  1       21 0.22645793E+00 0.22700095E+03</pdfrwt>
<totfact> 0.21282238E+04</totfact>
</mgrwt>
</event>
<event>
12    1  0.2742799E-001  0.2108560E+03  0.7546771E-02  0.1143788E+00
         21   -1    0    0  502  503  0.00000000000E+00  0.00000000000E+00  0.18034826275E+03  0.18034826275E+03  0.00000000000E+00 0. -1.
         21   -1    0    0  503  504 -0.00000000000E+00 -0.00000000000E+00 -0.63731364496E+03  0.63731364496E+03  0.00000000000E+00 0. -1.
         -6    2    1    2    0  504  0.11886729842E+03  0.14705640264E+02 -0.55803115792E+03  0.59653920309E+03  0.17353546358E+03 0.  0.
        -24    2    3    3    0    0  0.21955003365E+02  0.35353959146E+02 -0.40239784500E+03  0.41197982485E+03  0.77919354593E+02 0.  0.
          6    2    1    2  502    0 -0.11886729842E+03 -0.14705640264E+02  0.10106577571E+03  0.22112270462E+03  0.15599765700E+03 0.  0.
         24    2    5    5    0    0 -0.22938199735E+02  0.82863606491E+01  0.10189903783E+02  0.86915632606E+02  0.82798962991E+02 0.  0.
          4    1    6    6  501    0  0.29702411410E+02  0.13745607448E+02  0.91447767078E+01  0.33982376443E+02  0.00000000000E+00 0. -1.
         -3    1    6    6    0  501 -0.52640611146E+02 -0.54592467992E+01  0.10451270755E+01  0.52933256163E+02  0.00000000000E+00 0.  1.
          5    1    5    5  502    0 -0.95929098684E+02 -0.22992000913E+02  0.90875871931E+02  0.13420707202E+03  0.47000000000E+01 0. -1.
         11    1    4    4    0    0 -0.93502695099E+00  0.15165832436E+02 -0.95465462906E+01  0.17944728890E+02  0.00000000000E+00 0. -1.
        -12    1    4    4    0    0  0.22890030316E+02  0.20188126710E+02 -0.39285129871E+03  0.39403509596E+03  0.00000000000E+00 0.  1.
         -5    1    3    3    0  504  0.96912295055E+02 -0.20648318882E+02 -0.15563331292E+03  0.18455937824E+03  0.47000000000E+01 0.  1.
<mgrwt>
<rscale>  2 0.20721759E+03</rscale>
<asrwt>0</asrwt>
<pdfrwt beam="1">  1       21 0.27745887E-01 0.21085599E+03</pdfrwt>
<pdfrwt beam="2">  1       21 0.98048252E-01 0.21085599E+03</pdfrwt>
<totfact> 0.10532711E+04</totfact>
</mgrwt>
</event>
<event>
12    1  0.2742799E-001  0.1999719E+03  0.7546771E-02  0.1150426E+00
         21   -1    0    0  502  503  0.00000000000E+00  0.00000000000E+00  0.26694994815E+02  0.26694994815E+02  0.00000000000E+00 0.  1.
         21   -1    0    0  503  504 -0.00000000000E+00 -0.00000000000E+00 -0.15039087773E+04  0.15039087773E+04  0.00000000000E+00 0. -1.
         -6    2    1    2    0  504 -0.33937543868E+02  0.91478471891E+02 -0.85090680413E+03  0.87408875327E+03  0.17455283320E+03 0.  0.
        -24    2    3    3    0    0 -0.85845217919E+02  0.37946059968E+02 -0.60656389804E+03  0.61857814389E+03  0.76875566884E+02 0.  0.
          6    2    1    2  502    0  0.33937543868E+02 -0.91478471891E+02 -0.62630697832E+03  0.65651501881E+03  0.17097213552E+03 0.  0.
         24    2    5    5    0    0  0.14733103230E+02 -0.12654770911E+03 -0.41757760895E+03  0.44393867587E+03  0.80492865684E+02 0.  0.
          2    1    6    6  501    0  0.10011418011E+02 -0.13653122137E+03 -0.40321655402E+03  0.42582225439E+03  0.00000000000E+00 0. -1.
         -1    1    6    6    0  501  0.47216852198E+01  0.99835122652E+01 -0.14361054930E+02  0.18116421478E+02  0.00000000000E+00 0.  1.
          5    1    5    5  502    0  0.19204440638E+02  0.35069237216E+02 -0.20872936937E+03  0.21257634294E+03  0.47000000000E+01 0. -1.
         11    1    4    4    0    0 -0.24940248501E+02 -0.23376590336E+02 -0.14326787418E+03  0.14728939114E+03  0.00000000000E+00 0. -1.
        -12    1    4    4    0    0 -0.60904969418E+02  0.61322650304E+02 -0.46329602386E+03  0.47128875275E+03  0.00000000000E+00 0.  1.
         -5    1    3    3    0  504  0.51907674051E+02  0.53532411923E+02 -0.24434290609E+03  0.25551060938E+03  0.47000000000E+01 0.  1.
<mgrwt>
<rscale>  2 0.19918785E+03</rscale>
<asrwt>0</asrwt>
<pdfrwt beam="1">  1       21 0.41069204E-02 0.19997190E+03</pdfrwt>
<pdfrwt beam="2">  1       21 0.23137069E+00 0.19997190E+03</pdfrwt>
<totfact> 0.31986361E+04</totfact>
</mgrwt>
</event>
<event>
12    1  0.2742799E-001  0.1915106E+03  0.7546771E-02  0.1161267E+00
         21   -1    0    0  502  503  0.00000000000E+00  0.00000000000E+00  0.19767838628E+04  0.19767838628E+04  0.00000000000E+00 0. -1.
         21   -1    0    0  503  504 -0.00000000000E+00 -0.00000000000E+00 -0.16964690931E+02  0.16964690931E+02  0.00000000000E+00 0. -1.
         -6    2    1    2    0  504 -0.97022708623E+01  0.67447502090E+01  0.10038819926E+04  0.10188166568E+04  0.17340328501E+03 0.  0.
        -24    2    3    3    0    0  0.39649019923E+02  0.35188154689E+02  0.36279650156E+03  0.37518844574E+03  0.79591565269E+02 0.  0.
          6    2    1    2  502    0  0.97022708623E+01 -0.67447502090E+01  0.95593717921E+03  0.97493189694E+03  0.19114572285E+03 0.  0.
         24    2    5    5    0    0  0.36029798294E+02 -0.28221049121E+02  0.15995729050E+03  0.17821334980E+03  0.63867748411E+02 0.  0.
          2    1    6    6  501    0  0.67471567389E+01 -0.39159021833E+02  0.12573196295E+03  0.13186159268E+03  0.00000000000E+00 0. -1.
         -1    1    6    6    0  501  0.29282641555E+02  0.10937972712E+02  0.34225327542E+02  0.46351757128E+02  0.00000000000E+00 0.  1.
          5    1    5    5  502    0 -0.26327527431E+02  0.21476298912E+02  0.79597988871E+03  0.79671854714E+03  0.47000000000E+01 0. -1.
         11    1    4    4    0    0  0.12367250582E+02 -0.22774658169E+02  0.17157645188E+03  0.17352265784E+03  0.00000000000E+00 0. -1.
        -12    1    4    4    0    0  0.27281769341E+02  0.57962812858E+02  0.19122004968E+03  0.20166578790E+03  0.00000000000E+00 0.  1.
         -5    1    3    3    0  504 -0.49351290785E+02 -0.28443404480E+02  0.64108549106E+03  0.64362821101E+03  0.47000000000E+01 0.  1.
<mgrwt>
<rscale>  2 0.18692202E+03</rscale>
<asrwt>0</asrwt>
<pdfrwt beam="1">  1       21 0.30412041E+00 0.19151061E+03</pdfrwt>
<pdfrwt beam="2">  1       21 0.26099540E-02 0.19151061E+03</pdfrwt>
<totfact> 0.25762921E+04</totfact>
</mgrwt>
</event>
<event>
12    1  0.2742799E-001  0.2179978E+03  0.7546771E-02  0.1135542E+00
         21   -1    0    0  502  503  0.00000000000E+00  0.00000000000E+00  0.26867608979E+03  0.26867608979E+03  0.00000000000E+00 0.  1.
         21   -1    0    0  503  504 -0.00000000000E+00 -0.00000000000E+00 -0.23560812175E+03  0.23560812175E+03  0.00000000000E+00 0.  1.
         -6    2    1    2    0  504 -0.23991924798E+02 -0.12962023437E+03 -0.11009597047E+03  0.24347980974E+03  0.17258121979E+03 0.  0.
        -24    2    3    3    0    0 -0.72850492830E+02 -0.10203733823E+03 -0.11298218655E+03  0.18710254417E+03  0.80768650235E+02 0.  0.
          6    2    1    2  502    0  0.23991924798E+02  0.12962023437E+03  0.14316393850E+03  0.26080440180E+03  0.17362604959E+03 0.  0.
         24    2    5    5    0    0  0.72726834980E+02  0.12624940526E+03  0.12531378288E+03  0.20858206927E+03  0.81085329033E+02 0.  0.
          2    1    6    6  501    0  0.77199424591E+02  0.12961881172E+03  0.96185019248E+02  0.17891994142E+03  0.00000000000E+00 0. -1.
         -1    1    6    6    0  501 -0.44725896115E+01 -0.33694064578E+01  0.29128763636E+02  0.29662127852E+02  0.00000000000E+00 0.  1.
          5    1    5    5  502    0 -0.48734910182E+02  0.33708291093E+01  0.17850155618E+02  0.52222332531E+02  0.47000000000E+01 0. -1.
         13    1    4    4    0    0 -0.11448847822E+02  0.13531874919E+02 -0.19000166669E+02  0.25984497085E+02  0.00000000000E+00 0. -1.
        -14    1    4    4    0    0 -0.61401645008E+02 -0.11556921315E+03 -0.93982019876E+02  0.16111804709E+03  0.00000000000E+00 0.  1.
         -5    1    3    3    0  504  0.48858568033E+02 -0.27582896143E+02  0.28862160793E+01  0.56377265570E+02  0.47000000000E+01 0.  1.
<mgrwt>
<rscale>  2 0.21778965E+03</rscale>
<asrwt>0</asrwt>
<pdfrwt beam="1">  1       21 0.41334783E-01 0.21799776E+03</pdfrwt>
<pdfrwt beam="2">  1       21 0.36247403E-01 0.21799776E+03</pdfrwt>
<totfact> 0.40848493E+04</totfact>
</mgrwt>
</event>
<event>
12    1  0.2742799E-001  0.1866304E+03  0.7546771E-02  0.1161942E+00
         21   -1    0    0  502  503  0.00000000000E+00  0.00000000000E+00  0.23482793158E+03  0.23482793158E+03  0.00000000000E+00 0. -1.
         21   -1    0    0  503  504 -0.00000000000E+00 -0.00000000000E+00 -0.14701241455E+03  0.14701241455E+03  0.00000000000E+00 0. -1.
         -6    2    1    2    0  504  0.13883275170E+02  0.69447630451E+02  0.48028033195E+02  0.19101595575E+03  0.17077670999E+03 0.  0.
        -24    2    3    3    0    0  0.85642772146E+01  0.56048721471E+02 -0.35853578560E+02  0.10577490173E+03  0.81780466596E+02 0.  0.
          6    2    1    2  502    0 -0.13883275170E+02 -0.69447630451E+02  0.39787483830E+02  0.19082439038E+03  0.17267074272E+03 0.  0.
         24    2    5    5    0    0  0.52149742985E+02 -0.20884132532E+02 -0.34738488027E+01  0.98021342383E+02  0.80251936126E+02 0.  0.
          4    1    6    6  501    0  0.63690101065E+02  0.99992706770E+01 -0.70694992484E+01  0.64856705185E+02  0.00000000000E+00 0. -1.
         -3    1    6    6    0  501 -0.11540358080E+02 -0.30883403209E+02  0.35956504457E+01  0.33164637198E+02  0.00000000000E+00 0.  1.
          5    1    5    5  502    0 -0.66033018155E+02 -0.48563497919E+02  0.43261332633E+02  0.92803047999E+02  0.47000000000E+01 0. -1.
         13    1    4    4    0    0  0.12784200297E+02 -0.14471709971E+02 -0.28940254410E+02  0.34790867940E+02  0.00000000000E+00 0. -1.
        -14    1    4    4    0    0 -0.42199230824E+01  0.70520431442E+02 -0.69133241497E+01  0.70984033785E+02  0.00000000000E+00 0.  1.
         -5    1    3    3    0  504  0.53189979553E+01  0.13398908979E+02  0.83881611755E+02  0.85241054027E+02  0.47000000000E+01 0.  1.
<mgrwt>
<rscale>  2 0.18619110E+03</rscale>
<asrwt>0</asrwt>
<pdfrwt beam="1">  1       21 0.36127374E-01 0.18663039E+03</pdfrwt>
<pdfrwt beam="2">  1       21 0.22617295E-01 0.18663039E+03</pdfrwt>
<totfact> 0.13563704E+05</totfact>
</mgrwt>
</event>
<event>
12    1  0.2742799E-001  0.2983977E+03  0.7546771E-02  0.1086090E+00
         21   -1    0    0  502  503  0.00000000000E+00  0.00000000000E+00  0.10346731298E+03  0.10346731298E+03  0.00000000000E+00 0. -1.
         21   -1    0    0  503  504 -0.00000000000E+00 -0.00000000000E+00 -0.89937390449E+03  0.89937390449E+03  0.00000000000E+00 0. -1.
         -6    2    1    2    0  504  0.19279638481E+03 -0.14777503469E+03 -0.29264030637E+03  0.41794677858E+03  0.17330105002E+03 0.  0.
        -24    2    3    3    0    0  0.84836616341E+02 -0.16562752438E+01 -0.97365788728E+02  0.15118802856E+03  0.78598526995E+02 0.  0.
          6    2    1    2  502    0 -0.19279638481E+03  0.14777503469E+03 -0.50326628514E+03  0.58489443889E+03  0.17267496640E+03 0.  0.
         24    2    5    5    0    0 -0.16535577950E+03  0.16038176155E+03 -0.49619052504E+03  0.55352450483E+03  0.84377112122E+02 0.  0.
          4    1    6    6  501    0 -0.17008073806E+03  0.13032505018E+03 -0.44664521977E+03  0.49538270913E+03  0.00000000000E+00 0. -1.
         -3    1    6    6    0  501  0.47249585668E+01  0.30056711371E+02 -0.49545305275E+02  0.58141795695E+02  0.00000000000E+00 0.  1.
          5    1    5    5  502    0 -0.27440605314E+02 -0.12606726867E+02 -0.70757600919E+01  0.31369934064E+02  0.47000000000E+01 0. -1.
         13    1    4    4    0    0  0.94665592507E+02 -0.39854995354E+01 -0.10272819157E+03  0.13975170824E+03  0.00000000000E+00 0. -1.
        -14    1    4    4    0    0 -0.98289761658E+01  0.23292242916E+01  0.53624028462E+01  0.11436320324E+02  0.00000000000E+00 0.  1.
         -5    1    3    3    0  504  0.10795976847E+03 -0.14611875944E+03 -0.19527451765E+03  0.26675875002E+03  0.47000000000E+01 0.  1.
<mgrwt>
<rscale>  2 0.29830682E+03</rscale>
<asrwt>0</asrwt>
<pdfrwt beam="1">  1       21 0.15918048E-01 0.29839766E+03</pdfrwt>
<pdfrwt beam="2">  1       21 0.13836522E+00 0.29839766E+03</pdfrwt>
<totfact> 0.12199306E+04</totfact>
</mgrwt>
</event>
<event>
12    1  0.2742799E-001  0.1996082E+03  0.7546771E-02  0.1150152E+00
         21   -1    0    0  502  503  0.00000000000E+00  0.00000000000E+00  0.45510455251E+03  0.45510455251E+03  0.00000000000E+00 0.  1.
         21   -1    0    0  503  504 -0.00000000000E+00 -0.00000000000E+00 -0.87532595573E+02  0.87532595573E+02  0.00000000000E+00 0.  1.
         -6    2    1    2    0  504 -0.99656874635E+02 -0.14182166760E+01  0.17257483921E+03  0.26386649462E+03  0.17294492723E+03 0.  0.
        -24    2    3    3    0    0 -0.33951113330E+02  0.40228040177E+02  0.28595490001E+02  0.10014783113E+03  0.80255297134E+02 0.  0.
          6    2    1    2  502    0  0.99656874635E+02  0.14182166760E+01  0.19499711773E+03  0.27877065346E+03  0.17249839799E+03 0.  0.
         24    2    5    5    0    0  0.11653179077E+03 -0.40214498627E+02  0.17699288264E+03  0.23014670608E+03  0.80275535837E+02 0.  0.
          2    1    6    6  501    0 -0.71397096431E+01 -0.53685887381E+01  0.45245346251E+02  0.46118744087E+02  0.00000000000E+00 0. -1.
         -1    1    6    6    0  501  0.12367150041E+03 -0.34845909888E+02  0.13174753639E+03  0.18402796199E+03  0.00000000000E+00 0.  1.
          5    1    5    5  502    0 -0.16874916132E+02  0.41632715303E+02  0.18004235086E+02  0.48623947381E+02  0.47000000000E+01 0. -1.
         11    1    4    4    0    0 -0.30302771707E+02 -0.16210276039E+02 -0.44375559383E+01  0.34651449105E+02  0.00000000000E+00 0. -1.
        -12    1    4    4    0    0 -0.36483416229E+01  0.56438316216E+02  0.33033045939E+02  0.65496382021E+02  0.00000000000E+00 0.  1.
         -5    1    3    3    0  504 -0.65705761305E+02 -0.41646256853E+02  0.14397934921E+03  0.16371866349E+03  0.47000000000E+01 0.  1.
<mgrwt>
<rscale>  2 0.19951149E+03</rscale>
<asrwt>0</asrwt>
<pdfrwt beam="1">  1       21 0.70016084E-01 0.19960825E+03</pdfrwt>
<pdfrwt beam="2">  1       21 0.13466553E-01 0.19960825E+03</pdfrwt>
<totfact> 0.88076515E+04</totfact>
</mgrwt>
</event>
<event>
12    1  0.2742799E-001  0.2007638E+03  0.7546771E-02  0.1149340E+00
         21   -1    0    0  502  503  0.00000000000E+00  0.00000000000E+00  0.28414807089E+03  0.28414807089E+03  0.00000000000E+00 0. -1.
         21   -1    0    0  503  504 -0.00000000000E+00 -0.00000000000E+00 -0.14154596790E+03  0.14154596790E+03  0.00000000000E+00 0.  1.
         -6    2    1    2    0  504 -0.17635846683E+02 -0.97289840640E+02  0.58671173577E+02  0.20916117578E+03  0.17472765856E+03 0.  0.
        -24    2    3    3    0    0  0.20557161492E+01 -0.10730968396E+03 -0.93342534717E+01  0.13750237999E+03  0.85441102368E+02 0.  0.
          6    2    1    2  502    0  0.17635846683E+02  0.97289840640E+02  0.83930929408E+02  0.21653286300E+03  0.17339476252E+03 0.  0.
         24    2    5    5    0    0  0.50323335220E+02  0.11880480190E+03  0.92922652310E+02  0.17610630557E+03  0.75708602722E+02 0.  0.
          2    1    6    6  501    0  0.34561428971E+02  0.90685152805E+01  0.84187490046E+01  0.36709749069E+02  0.00000000000E+00 0. -1.
         -1    1    6    6    0  501  0.15761906249E+02  0.10973628662E+03  0.84503903305E+02  0.13939655650E+03  0.00000000000E+00 0.  1.
          5    1    5    5  502    0 -0.32687488537E+02 -0.21514961264E+02 -0.89917229015E+01  0.40426557432E+02  0.47000000000E+01 0. -1.
         13    1    4    4    0    0 -0.79251968976E+01  0.69280332545E+01  0.16859558932E+02  0.19875892886E+02  0.00000000000E+00 0. -1.
        -14    1    4    4    0    0  0.99809130469E+01 -0.11423771722E+03 -0.26193812403E+02  0.11762648710E+03  0.00000000000E+00 0.  1.
         -5    1    3    3    0  504 -0.19691562832E+02  0.10019843321E+02  0.68005427049E+02  0.71658795796E+02  0.47000000000E+01 0.  1.
<mgrwt>
<rscale>  2 0.20047340E+03</rscale>
<asrwt>0</asrwt>
<pdfrwt beam="1">  1       21 0.43715088E-01 0.20076377E+03</pdfrwt>
<pdfrwt beam="2">  1       21 0.21776303E-01 0.20076377E+03</pdfrwt>
<totfact> 0.98628030E+04</totfact>
</mgrwt>
</event>
<event>
12    1  0.2742799E-001  0.2041174E+03  0.7546771E-02  0.1147266E+00
         21   -1    0    0  502  503  0.00000000000E+00  0.00000000000E+00  0.17770228487E+03  0.17770228487E+03  0.00000000000E+00 0.  1.
         21   -1    0    0  503  504 -0.00000000000E+00 -0.00000000000E+00 -0.36126592817E+03  0.36126592817E+03  0.00000000000E+00 0.  1.
         -6    2    1    2    0  504  0.39676481757E+02  0.92966295816E+02 -0.25536660583E+03  0.32691896854E+03  0.17733288826E+03 0.  0.
        -24    2    3    3    0    0  0.33039784929E+02  0.76062909401E+02 -0.58156789873E+02  0.12881906514E+03  0.79592372506E+02 0.  0.
          6    2    1    2  502    0 -0.39676481757E+02 -0.92966295816E+02  0.71802962528E+02  0.21204924450E+03  0.17202401374E+03 0.  0.
         24    2    5    5    0    0 -0.55501719493E+00  0.16871741564E+02  0.27945094344E+02  0.87387758680E+02  0.81060029372E+02 0.  0.
          2    1    6    6  501    0  0.31897468525E+02  0.77962995892E+01 -0.12150483701E+02  0.35012355530E+02  0.00000000000E+00 0. -1.
         -1    1    6    6    0  501 -0.32452485720E+02  0.90754419753E+01  0.40095578045E+02  0.52375403150E+02  0.00000000000E+00 0.  1.
          5    1    5    5  502    0 -0.39121464562E+02 -0.10983803738E+03  0.43857868184E+02  0.12466148582E+03  0.47000000000E+01 0. -1.
         13    1    4    4    0    0  0.52491621585E+02  0.79117656253E+02 -0.44512365362E+02  0.10486336127E+03  0.00000000000E+00 0. -1.
        -14    1    4    4    0    0 -0.19451836656E+02 -0.30547468518E+01 -0.13644424511E+02  0.23955703869E+02  0.00000000000E+00 0.  1.
         -5    1    3    3    0  504  0.66366968278E+01  0.16903386415E+02 -0.19720981595E+03  0.19809990340E+03  0.47000000000E+01 0.  1.
<mgrwt>
<rscale>  2 0.20295883E+03</rscale>
<asrwt>0</asrwt>
<pdfrwt beam="1">  1       21 0.27338813E-01 0.20411739E+03</pdfrwt>
<pdfrwt beam="2">  1       21 0.55579373E-01 0.20411739E+03</pdfrwt>
<totfact> 0.38692792E+04</totfact>
</mgrwt>
</event>
<event>
12    1  0.2742799E-001  0.1844060E+03  0.7546771E-02  0.1164449E+00
         21   -1    0    0  502  503  0.00000000000E+00  0.00000000000E+00  0.83141792638E+02  0.83141792638E+02  0.00000000000E+00 0. -1.
         21   -1    0    0  503  504 -0.00000000000E+00 -0.00000000000E+00 -0.66858659804E+03  0.66858659804E+03  0.00000000000E+00 0. -1.
         -6    2    1    2    0  504  0.49197545864E+02 -0.13160094259E+02 -0.53214383268E+03  0.56318969315E+03  0.17723426647E+03 0.  0.
        -24    2    3    3    0    0  0.18418657377E+02 -0.69716006309E+02 -0.40793986603E+03  0.42320888555E+03  0.86552053917E+02 0.  0.
          6    2    1    2  502    0 -0.49197545864E+02  0.13160094259E+02 -0.53300972723E+02  0.18853869753E+03  0.17352884536E+03 0.  0.
         24    2    5    5    0    0 -0.30747415525E+02  0.15232336609E+02 -0.10350689569E+03  0.13480392109E+03  0.79252710017E+02 0.  0.
          2    1    6    6  501    0  0.17883662669E+02  0.25895355749E+02 -0.19114996297E+02  0.36820889767E+02  0.00000000000E+00 0. -1.
         -1    1    6    6    0  501 -0.48631078193E+02 -0.10663019140E+02 -0.84391899395E+02  0.97983031321E+02  0.00000000000E+00 0.  1.
          5    1    5    5  502    0 -0.18450130340E+02 -0.20722423497E+01  0.50205922969E+02  0.53734776440E+02  0.47000000000E+01 0. -1.
         13    1    4    4    0    0 -0.16553658965E+02  0.74897038523E+01 -0.16319711735E+03  0.16420541526E+03  0.00000000000E+00 0. -1.
        -14    1    4    4    0    0  0.34972316342E+02 -0.77205710161E+02 -0.24474274868E+03  0.25900347029E+03  0.00000000000E+00 0.  1.
         -5    1    3    3    0  504  0.30778888487E+02  0.56555912050E+02 -0.12420396664E+03  0.13998080759E+03  0.47000000000E+01 0.  1.
<mgrwt>
<rscale>  2 0.18350988E+03</rscale>
<asrwt>0</asrwt>
<pdfrwt beam="1">  1       21 0.12791045E-01 0.18440600E+03</pdfrwt>
<pdfrwt beam="2">  1       21 0.10285948E+00 0.18440600E+03</pdfrwt>
<totfact> 0.40345689E+04</totfact>
</mgrwt>
</event>
<event>
12    1  0.2742799E-001  0.2338009E+03  0.7546771E-02  0.1124114E+00
         21   -1    0    0  502  503  0.00000000000E+00  0.00000000000E+00  0.89729980536E+03  0.89729980536E+03  0.00000000000E+00 0.  1.
         21   -1    0    0  503  504 -0.00000000000E+00 -0.00000000000E+00 -0.83581443099E+02  0.83581443099E+02  0.00000000000E+00 0. -1.
         -6    2    1    2    0  504 -0.13118375395E+03  0.85820149501E+02  0.15089884846E+03  0.27826843995E+03  0.17346062045E+03 0.  0.
        -24    2    3    3    0    0 -0.33595242587E+02  0.82082979287E+01  0.11539818629E+02  0.91211907721E+02  0.83608780739E+02 0.  0.
          6    2    1    2  502    0  0.13118375395E+03 -0.85820149501E+02  0.66281951380E+03  0.70261280851E+03  0.17251311673E+03 0.  0.
         24    2    5    5    0    0  0.59676040809E+02 -0.10480773655E+03  0.32030235071E+03  0.35216455482E+03  0.82948094101E+02 0.  0.
          4    1    6    6  501    0  0.80014870287E+02 -0.78310575428E+02  0.26296696792E+03  0.28580859313E+03  0.00000000000E+00 0. -1.
         -3    1    6    6    0  501 -0.20338829479E+02 -0.26497161122E+02  0.57335382790E+02  0.66355961690E+02  0.00000000000E+00 0.  1.
          5    1    5    5  502    0  0.71507713142E+02  0.18987587049E+02  0.34251716309E+03  0.35044825368E+03  0.47000000000E+01 0. -1.
         11    1    4    4    0    0 -0.51340230687E+02 -0.15225178416E+02  0.24741190142E+02  0.58989421378E+02  0.00000000000E+00 0. -1.
        -12    1    4    4    0    0  0.17744988100E+02  0.23433476345E+02 -0.13201371513E+02  0.32222486343E+02  0.00000000000E+00 0.  1.
         -5    1    3    3    0  504 -0.97588511363E+02  0.77611851572E+02  0.13935902983E+03  0.18705653223E+03  0.47000000000E+01 0.  1.
<mgrwt>
<rscale>  2 0.23362518E+03</rscale>
<asrwt>0</asrwt>
<pdfrwt beam="1">  1       21 0.13804612E+00 0.23380090E+03</pdfrwt>
<pdfrwt beam="2">  1       21 0.12858684E-01 0.23380090E+03</pdfrwt>
<totfact> 0.18744920E+04</totfact>
</mgrwt>
</event>
<event>
12    1  0.2742799E-001  0.1991955E+03  0.7546771E-02  0.1150480E+00
         21   -1    0    0  502  503  0.00000000000E+00  0.00000000000E+00  0.17423627453E+03  0.17423627453E+03  0.00000000000E+00 0. -1.
         21   -1    0    0  503  504 -0.00000000000E+00 -0.00000000000E+00 -0.25260224688E+03  0.25260224688E+03  0.00000000000E+00 0.  1.
         -6    2    1    2    0  504  0.98091713658E+02 -0.13711557807E+02 -0.10656022175E+03  0.22565756190E+03  0.17250003848E+03 0.  0.
        -24    2    3    3    0    0  0.12493956401E+03  0.22524499736E+02 -0.99993727389E+02  0.17984197740E+03  0.78912252379E+02 0.  0.
          6    2    1    2  502    0 -0.98091713658E+02  0.13711557807E+02  0.28194249399E+02  0.20118095952E+03  0.17282613132E+03 0.  0.
         24    2    5    5    0    0 -0.10777076138E+03  0.43710489086E+02  0.65062518559E+02  0.15244720209E+03  0.74039680155E+02 0.  0.
          4    1    6    6  501    0 -0.22584626903E+02  0.14188156506E+02  0.55761492585E+02  0.61811918048E+02  0.00000000000E+00 0. -1.
         -3    1    6    6    0  501 -0.85186134480E+02  0.29522332580E+02  0.93010259739E+01  0.90635284039E+02  0.00000000000E+00 0.  1.
          5    1    5    5  502    0  0.96790477252E+01 -0.29998931278E+02 -0.36868269160E+02  0.48733757433E+02  0.47000000000E+01 0. -1.
         11    1    4    4    0    0  0.50053189680E+02  0.48517946535E+02 -0.54160203547E+02  0.88275934327E+02  0.00000000000E+00 0. -1.
        -12    1    4    4    0    0  0.74886374326E+02 -0.25993446798E+02 -0.45833523842E+02  0.91566043072E+02  0.00000000000E+00 0.  1.
         -5    1    3    3    0  504 -0.26847850348E+02 -0.36236057543E+02 -0.65664943567E+01  0.45815584496E+02  0.47000000000E+01 0.  1.
<mgrwt>
<rscale>  2 0.19912479E+03</rscale>
<asrwt>0</asrwt>
<pdfrwt beam="1">  1       21 0.26805581E-01 0.19919554E+03</pdfrwt>
<pdfrwt beam="2">  1       21 0.38861884E-01 0.19919554E+03</pdfrwt>
<totfact> 0.84374684E+04</totfact>
</mgrwt>
</event>
<event>
12    1  0.2742799E-001  0.2389658E+03  0.7546771E-02  0.1120652E+00
         21   -1    0    0  502  503  0.00000000000E+00  0.00000000000E+00  0.81144846287E+02  0.81144846287E+02  0.00000000000E+00 0.  1.
         21   -1    0    0  503  504 -0.00000000000E+00 -0.00000000000E+00 -0.85213723768E+03  0.85213723768E+03  0.00000000000E+00 0. -1.
         -6    2    1    2    0  504  0.15677954233E+03  0.49277138706E+02 -0.18950075021E+03  0.30498391484E+03  0.17348369575E+03 0.  0.
        -24    2    3    3    0    0  0.13396215589E+03  0.53221028636E+01 -0.61784333027E+02  0.16792096757E+03  0.80037263506E+02 0.  0.
          6    2    1    2  502    0 -0.15677954233E+03 -0.49277138706E+02 -0.58149164119E+03  0.62829816912E+03  0.17209880668E+03 0.  0.
         24    2    5    5    0    0 -0.35954499975E+02 -0.12805871115E+02 -0.17507823546E+03  0.20271293609E+03  0.94780955488E+02 0.  0.
          4    1    6    6  501    0 -0.91764071295E+01  0.40876055189E+02 -0.64524173560E+02  0.76931315530E+02  0.00000000000E+00 0. -1.
         -3    1    6    6    0  501 -0.26778092845E+02 -0.53681926304E+02 -0.11055406190E+03  0.12578162056E+03  0.00000000000E+00 0.  1.
          5    1    5    5  502    0 -0.12082504236E+03 -0.36471267591E+02 -0.40641340572E+03  0.42558523303E+03  0.47000000000E+01 0. -1.
         13    1    4    4    0    0  0.26476295712E+02 -0.32203538721E+02 -0.23209953482E+02  0.47715449086E+02  0.00000000000E+00 0. -1.
        -14    1    4    4    0    0  0.10748586018E+03  0.37525641585E+02 -0.38574379545E+02  0.12020551848E+03  0.00000000000E+00 0.  1.
         -5    1    3    3    0  504  0.22817386437E+02  0.43955035842E+02 -0.12771641718E+03  0.13706294728E+03  0.47000000000E+01 0.  1.
<mgrwt>
<rscale>  2 0.23871453E+03</rscale>
<asrwt>0</asrwt>
<pdfrwt beam="1">  1       21 0.12483823E-01 0.23896580E+03</pdfrwt>
<pdfrwt beam="2">  1       21 0.13109803E+00 0.23896580E+03</pdfrwt>
<totfact> 0.22508771E+04</totfact>
</mgrwt>
</event>
<event>
12    1  0.2742799E-001  0.2190539E+03  0.7546771E-02  0.1134685E+00
         21   -1    0    0  502  503  0.00000000000E+00  0.00000000000E+00  0.56116339992E+03  0.56116339992E+03  0.00000000000E+00 0.  1.
         21   -1    0    0  503  504 -0.00000000000E+00 -0.00000000000E+00 -0.96718970071E+02  0.96718970071E+02  0.00000000000E+00 0.  1.
         -6    2    1    2    0  504 -0.31249631230E+02 -0.13127011623E+03  0.34542179921E+03  0.40902425597E+03  0.17255793152E+03 0.  0.
        -24    2    3    3    0    0  0.59964506069E+02 -0.71132305176E+02  0.15650734915E+03  0.19074156173E+03  0.56852846936E+02 0.  0.
          6    2    1    2  502    0  0.31249631230E+02  0.13127011623E+03  0.11902263064E+03  0.24885811403E+03  0.17191739716E+03 0.  0.
         24    2    5    5    0    0  0.54383629146E+02  0.12287272911E+02  0.48404240569E+02  0.10849734359E+03  0.79499351352E+02 0.  0.
          4    1    6    6  501    0  0.63009843410E+02  0.20780541291E+02  0.61638569401E+02  0.90561495685E+02  0.00000000000E+00 0. -1.
         -3    1    6    6    0  501 -0.86262142632E+01 -0.84932683799E+01 -0.13234328832E+02  0.17935847901E+02  0.00000000000E+00 0.  1.
          5    1    5    5  502    0 -0.23133997916E+02  0.11898284331E+03  0.70618390068E+02  0.14036077044E+03  0.47000000000E+01 0. -1.
         11    1    4    4    0    0  0.16454954159E+02  0.36978386541E+01  0.54018942412E+02  0.56590508625E+02  0.00000000000E+00 0. -1.
        -12    1    4    4    0    0  0.43509551911E+02 -0.74830143830E+02  0.10248840674E+03  0.13415105310E+03  0.00000000000E+00 0.  1.
         -5    1    3    3    0  504 -0.91214137300E+02 -0.60137811050E+02  0.18891445006E+03  0.21828269424E+03  0.47000000000E+01 0.  1.
<mgrwt>
<rscale>  2 0.21892776E+03</rscale>
<asrwt>0</asrwt>
<pdfrwt beam="1">  1       21 0.86332828E-01 0.21905393E+03</pdfrwt>
<pdfrwt beam="2">  1       21 0.14879842E-01 0.21905393E+03</pdfrwt>
<totfact> 0.45423739E+04</totfact>
</mgrwt>
</event>
<event>
12    1  0.2742799E-001  0.2226349E+03  0.7546771E-02  0.1131949E+00
         21   -1    0    0  502  503  0.00000000000E+00  0.00000000000E+00  0.35536067245E+03  0.35536067245E+03  0.00000000000E+00 0.  1.
         21   -1    0    0  503  504 -0.00000000000E+00 -0.00000000000E+00 -0.26927163061E+03  0.26927163061E+03  0.00000000000E+00 0. -1.
         -6    2    1    2    0  504  0.10288602163E+03  0.93006994383E+02 -0.17383331476E+03  0.28239566078E+03  0.17405014639E+03 0.  0.
        -24    2    3    3    0    0  0.51525522942E+02  0.12496716986E+03 -0.99598007099E+02  0.18651904974E+03  0.81227580553E+02 0.  0.
          6    2    1    2  502    0 -0.10288602163E+03 -0.93006994383E+02  0.25992235660E+03  0.34223664228E+03  0.17415640501E+03 0.  0.
         24    2    5    5    0    0 -0.59526417245E+02 -0.47457077896E+02  0.25532056631E+03  0.27900597995E+03  0.82826183519E+02 0.  0.
          4    1    6    6  501    0 -0.78389185130E+02 -0.24295901123E+02  0.17429108452E+03  0.19264614530E+03  0.00000000000E+00 0. -1.
         -3    1    6    6    0  501  0.18862767885E+02 -0.23161176773E+02  0.81029481789E+02  0.86359834650E+02  0.00000000000E+00 0.  1.
          5    1    5    5  502    0 -0.43359604381E+02 -0.45549916488E+02  0.46017902903E+01  0.63230662324E+02  0.47000000000E+01 0. -1.
         13    1    4    4    0    0  0.49876410035E+02  0.21657079441E+02 -0.33863911634E+02  0.64058175739E+02  0.00000000000E+00 0. -1.
        -14    1    4    4    0    0  0.16491129066E+01  0.10331009042E+03 -0.65734095465E+02  0.12246087400E+03  0.00000000000E+00 0.  1.
         -5    1    3    3    0  504  0.51360498684E+02 -0.31960175473E+02 -0.74235307661E+02  0.95876611041E+02  0.47000000000E+01 0.  1.
<mgrwt>
<rscale>  2 0.22261409E+03</rscale>
<asrwt>0</asrwt>
<pdfrwt beam="1">  1       21 0.54670873E-01 0.22263488E+03</pdfrwt>
<pdfrwt beam="2">  1       21 0.41426405E-01 0.22263488E+03</pdfrwt>
<totfact> 0.17410932E+04</totfact>
</mgrwt>
</event>
<event>
12    1  0.2742799E-001  0.1802067E+03  0.7546771E-02  0.1167840E+00
         21   -1    0    0  502  503  0.00000000000E+00  0.00000000000E+00  0.31432778384E+02  0.31432778384E+02  0.00000000000E+00 0. -1.
         21   -1    0    0  503  504 -0.00000000000E+00 -0.00000000000E+00 -0.12726746200E+04  0.12726746200E+04  0.00000000000E+00 0. -1.
         -6    2    1    2    0  504 -0.48367224637E+02 -0.34605291649E+01 -0.90542664136E+03  0.92299547138E+03  0.17254527991E+03 0.  0.
        -24    2    3    3    0    0  0.18192002778E+02 -0.86827773321E+00 -0.21136561056E+03  0.22572962897E+03  0.77115116506E+02 0.  0.
          6    2    1    2  502    0  0.48367224637E+02  0.34605291649E+01 -0.33581520024E+03  0.38111192699E+03  0.17356004293E+03 0.  0.
         24    2    5    5    0    0 -0.20926405497E+02  0.41605407501E+02 -0.12829003919E+03  0.15897363360E+03  0.81519063075E+02 0.  0.
          4    1    6    6  501    0  0.29515832613E+02  0.25735569327E+02 -0.39444392699E+02  0.55582047631E+02  0.00000000000E+00 0. -1.
         -3    1    6    6    0  501 -0.50442238110E+02  0.15869838173E+02 -0.88845646486E+02  0.10339158597E+03  0.00000000000E+00 0.  1.
          5    1    5    5  502    0  0.69293630134E+02 -0.38144878336E+02 -0.20752516106E+03  0.22213829339E+03  0.47000000000E+01 0. -1.
         13    1    4    4    0    0 -0.15542687849E+02 -0.13224709615E+02 -0.16880010311E+03  0.17002924131E+03  0.00000000000E+00 0. -1.
        -14    1    4    4    0    0  0.33734690627E+02  0.12356431882E+02 -0.42565507452E+02  0.55700387657E+02  0.00000000000E+00 0.  1.
         -5    1    3    3    0  504 -0.66559227415E+02 -0.25922514317E+01 -0.69406103080E+03  0.69726584241E+03  0.47000000000E+01 0.  1.
<mgrwt>
<rscale>  2 0.17996191E+03</rscale>
<asrwt>0</asrwt>
<pdfrwt beam="1">  1       21 0.48358126E-02 0.18020669E+03</pdfrwt>
<pdfrwt beam="2">  1       21 0.19579607E+00 0.18020669E+03</pdfrwt>
<totfact> 0.41026183E+04</totfact>
</mgrwt>
</event>
<event>
12    1  0.2742799E-001  0.1904215E+03  0.7546771E-02  0.1158367E+00
         21   -1    0    0  502  503  0.00000000000E+00  0.00000000000E+00  0.11048300455E+04  0.11048300455E+04  0.00000000000E+00 0.  1.
         21   -1    0    0  503  504 -0.00000000000E+00 -0.00000000000E+00 -0.14337312356E+03  0.14337312356E+03  0.00000000000E+00 0.  1.
         -6    2    1    2    0  504  0.76917826697E+02  0.15601642112E+02 -0.67479591212E+02  0.20202435894E+03  0.17349519612E+03 0.  0.
        -24    2    3    3    0    0  0.12421449120E+02  0.34808387472E+02 -0.81571198517E+02  0.13310886588E+03  0.98479406535E+02 0.  0.
          6    2    1    2  502    0 -0.76917826697E+02 -0.15601642112E+02  0.10289365131E+04  0.10461788101E+04  0.17210459416E+03 0.  0.
         24    2    5    5    0    0  0.89100529321E+01 -0.20599193468E+02  0.28155005255E+03  0.29384908723E+03  0.81074892296E+02 0.  0.
          4    1    6    6  501    0 -0.31597559248E+02  0.81620495641E+01  0.83183425496E+02  0.89356069076E+02  0.00000000000E+00 0. -1.
         -3    1    6    6    0  501  0.40507612180E+02 -0.28761243032E+02  0.19836662706E+03  0.20449301816E+03  0.00000000000E+00 0.  1.
          5    1    5    5  502    0 -0.85827879629E+02  0.49975513556E+01  0.74738646059E+03  0.75232972287E+03  0.47000000000E+01 0. -1.
         13    1    4    4    0    0  0.20631060886E+00 -0.22486062995E+02 -0.69830450853E+02  0.73361825627E+02  0.00000000000E+00 0. -1.
        -14    1    4    4    0    0  0.12215138511E+02  0.57294450467E+02 -0.11740747665E+02  0.59747040253E+02  0.00000000000E+00 0.  1.
         -5    1    3    3    0  504  0.64496377577E+02 -0.19206745360E+02  0.14091607305E+02  0.68915493064E+02  0.47000000000E+01 0.  1.
<mgrwt>
<rscale>  2 0.19010417E+03</rscale>
<asrwt>0</asrwt>
<pdfrwt beam="1">  1       21 0.16997385E+00 0.19042150E+03</pdfrwt>
<pdfrwt beam="2">  1       21 0.22057404E-01 0.19042150E+03</pdfrwt>
<totfact> 0.41088070E+03</totfact>
</mgrwt>
</event>
<event>
12    1  0.2742799E-001  0.2592182E+03  0.7546771E-02  0.1108826E+00
         21   -1    0    0  502  503  0.00000000000E+00  0.00000000000E+00  0.64031251149E+02  0.64031251149E+02  0.00000000000E+00 0. -1.
         21   -1    0    0  503  504 -0.00000000000E+00 -0.00000000000E+00 -0.14187379378E+04  0.14187379378E+04  0.00000000000E+00 0.  1.
         -6    2    1    2    0  504  0.16932399720E+03  0.69806486629E+02 -0.10640025374E+04  0.10932785158E+04  0.17208414220E+03 0.  0.
        -24    2    3    3    0    0  0.10850711419E+03  0.72982180904E+02 -0.95899310504E+03  0.97179662756E+03  0.87296719733E+02 0.  0.
          6    2    1    2  502    0 -0.16932399720E+03 -0.69806486629E+02 -0.29070414924E+03  0.38949067310E+03  0.18344078184E+03 0.  0.
         24    2    5    5    0    0 -0.19363625276E+03 -0.34825543166E+02 -0.26709710359E+03  0.34056077651E+03  0.77025728907E+02 0.  0.
          4    1    6    6  501    0 -0.90919483079E+02  0.22479811061E+02 -0.11717209838E+03  0.15000331645E+03  0.00000000000E+00 0. -1.
         -3    1    6    6    0  501 -0.10271676968E+03 -0.57305354227E+02 -0.14992500521E+03  0.19055746006E+03  0.00000000000E+00 0.  1.
          5    1    5    5  502    0  0.24312255556E+02 -0.34980943463E+02 -0.23607045652E+02  0.48929896589E+02  0.47000000000E+01 0. -1.
         13    1    4    4    0    0  0.22645309458E+02  0.57700274505E+02 -0.25515843337E+03  0.26257943148E+03  0.00000000000E+00 0. -1.
        -14    1    4    4    0    0  0.85861804729E+02  0.15281906399E+02 -0.70383467167E+03  0.70921719608E+03  0.00000000000E+00 0.  1.
         -5    1    3    3    0  504  0.60816883013E+02 -0.31756942753E+01 -0.10500943236E+03  0.12148188827E+03  0.47000000000E+01 0.  1.
<mgrwt>
<rscale>  2 0.25721803E+03</rscale>
<asrwt>0</asrwt>
<pdfrwt beam="1">  1       21 0.98509625E-02 0.25921821E+03</pdfrwt>
<pdfrwt beam="2">  1       21 0.21826736E+00 0.25921821E+03</pdfrwt>
<totfact> 0.81483561E+03</totfact>
</mgrwt>
</event>
<event>
12    1  0.2742799E-001  0.1813264E+03  0.7546771E-02  0.1166820E+00
         21   -1    0    0  502  503  0.00000000000E+00  0.00000000000E+00  0.18083572230E+03  0.18083572230E+03  0.00000000000E+00 0.  1.
         21   -1    0    0  503  504 -0.00000000000E+00 -0.00000000000E+00 -0.39069559719E+03  0.39069559719E+03  0.00000000000E+00 0.  1.
         -6    2    1    2    0  504 -0.89399853772E+00  0.51577273642E+02 -0.31465300980E+03  0.36316082776E+03  0.17383398936E+03 0.  0.
        -24    2    3    3    0    0 -0.53957159805E+02  0.72017129347E+02 -0.23663247909E+03  0.26650277069E+03  0.83252354998E+02 0.  0.
          6    2    1    2  502    0  0.89399853772E+00 -0.51577273642E+02  0.10479313491E+03  0.20837049172E+03  0.17255621202E+03 0.  0.
         24    2    5    5    0    0  0.46668756327E+02 -0.28048916798E+00  0.10138553800E+03  0.13937491024E+03  0.83476264869E+02 0.  0.
          4    1    6    6  501    0  0.67318838980E+02  0.69364521823E+01  0.51949033427E+02  0.85314960731E+02  0.00000000000E+00 0. -1.
         -3    1    6    6    0  501 -0.20650082653E+02 -0.72169413503E+01  0.49436504576E+02  0.54059949507E+02  0.00000000000E+00 0.  1.
          5    1    5    5  502    0 -0.45774757789E+02 -0.51296784474E+02  0.34075969086E+01  0.68995581487E+02  0.47000000000E+01 0. -1.
         11    1    4    4    0    0 -0.32792564281E+02 -0.10432142951E+02 -0.43669047098E+02  0.55598269335E+02  0.00000000000E+00 0. -1.
        -12    1    4    4    0    0 -0.21164595524E+02  0.82449272298E+02 -0.19296343199E+03  0.21090450136E+03  0.00000000000E+00 0.  1.
         -5    1    3    3    0  504  0.53063161267E+02 -0.20439855704E+02 -0.78020530708E+02  0.96658057071E+02  0.47000000000E+01 0.  1.
<mgrwt>
<rscale>  2 0.18101949E+03</rscale>
<asrwt>0</asrwt>
<pdfrwt beam="1">  1       21 0.27820881E-01 0.18132642E+03</pdfrwt>
<pdfrwt beam="2">  1       21 0.60107014E-01 0.18132642E+03</pdfrwt>
<totfact> 0.32034641E+04</totfact>
</mgrwt>
</event>
<event>
12    1  0.2742799E-001  0.1864418E+03  0.7546771E-02  0.1161755E+00
         21   -1    0    0  502  503  0.00000000000E+00  0.00000000000E+00  0.12653128640E+03  0.12653128640E+03  0.00000000000E+00 0.  1.
         21   -1    0    0  503  504 -0.00000000000E+00 -0.00000000000E+00 -0.35072518901E+03  0.35072518901E+03  0.00000000000E+00 0. -1.
         -6    2    1    2    0  504  0.63447699323E+02  0.28275458278E+02 -0.22343629829E+03  0.29100572796E+03  0.17301861815E+03 0.  0.
        -24    2    3    3    0    0  0.33628641324E+02 -0.14985807625E+02 -0.22392807421E+03  0.23825115289E+03  0.72555974853E+02 0.  0.
          6    2    1    2  502    0 -0.63447699323E+02 -0.28275458278E+02 -0.75760432350E+00  0.18625074744E+03  0.17281103803E+03 0.  0.
         24    2    5    5    0    0 -0.10283644257E+03 -0.39731501179E+02 -0.25257888940E+02  0.13823962414E+03  0.79487776556E+02 0.  0.
          2    1    6    6  501    0 -0.73534298074E+02 -0.55603752585E+02 -0.41578666022E+02  0.10113286193E+03  0.00000000000E+00 0. -1.
         -1    1    6    6    0  501 -0.29302144499E+02  0.15872251406E+02  0.16320777082E+02  0.37106762207E+02  0.00000000000E+00 0.  1.
          5    1    5    5  502    0  0.39388743251E+02  0.11456042900E+02  0.24500284617E+02  0.48011123296E+02  0.47000000000E+01 0. -1.
         13    1    4    4    0    0  0.55820105608E+02 -0.26638637528E+01 -0.14852930039E+03  0.15869446567E+03  0.00000000000E+00 0. -1.
        -14    1    4    4    0    0 -0.22191464284E+02 -0.12321943872E+02 -0.75398773823E+02  0.79556687222E+02  0.00000000000E+00 0.  1.
         -5    1    3    3    0  504  0.29819057999E+02  0.43261265903E+02  0.49177592479E+00  0.52754575072E+02  0.47000000000E+01 0.  1.
<mgrwt>
<rscale>  2 0.18639365E+03</rscale>
<asrwt>0</asrwt>
<pdfrwt beam="1">  1       21 0.19466352E-01 0.18644183E+03</pdfrwt>
<pdfrwt beam="2">  1       21 0.53957721E-01 0.18644183E+03</pdfrwt>
<totfact> 0.79050207E+04</totfact>
</mgrwt>
</event>
<event>
12    1  0.2742799E-001  0.3558964E+03  0.7546771E-02  0.1062118E+00
         21   -1    0    0  502  503  0.00000000000E+00  0.00000000000E+00  0.33923034476E+03  0.33923034476E+03  0.00000000000E+00 0. -1.
         21   -1    0    0  503  504 -0.00000000000E+00 -0.00000000000E+00 -0.62849847761E+03  0.62849847761E+03  0.00000000000E+00 0.  1.
         -6    2    1    2    0  504 -0.12605826232E+03 -0.27230645343E+03 -0.46197403200E+03  0.57214119553E+03  0.15454465794E+03 0.  0.
        -24    2    3    3    0    0 -0.92092242079E+02 -0.11392435242E+03 -0.16686977349E+03  0.23547044562E+03  0.78364981535E+02 0.  0.
          6    2    1    2  502    0  0.12605826232E+03  0.27230645343E+03  0.17270589915E+03  0.39558762684E+03  0.19136549539E+03 0.  0.
         24    2    5    5    0    0  0.70215977740E+02  0.12749728477E+03  0.39463574826E+01  0.16626268493E+03  0.80261232922E+02 0.  0.
          4    1    6    6  501    0  0.87502668879E+02  0.11044629970E+03 -0.32243073356E+01  0.14094501884E+03  0.00000000000E+00 0. -1.
         -3    1    6    6    0  501 -0.17286691139E+02  0.17050985066E+02  0.71706648182E+01  0.25317666089E+02  0.00000000000E+00 0.  1.
          5    1    5    5  502    0  0.55842284583E+02  0.14480916866E+03  0.16875954167E+03  0.22932494191E+03  0.47000000000E+01 0. -1.
         11    1    4    4    0    0 -0.62906878740E+02 -0.10778746194E+03 -0.92500248839E+02  0.15534383921E+03  0.00000000000E+00 0. -1.
        -12    1    4    4    0    0 -0.29185363339E+02 -0.61368904721E+01 -0.74369524651E+02  0.80126606409E+02  0.00000000000E+00 0.  1.
         -5    1    3    3    0  504 -0.33966020244E+02 -0.15838210101E+03 -0.29510425851E+03  0.33667074991E+03  0.47000000000E+01 0.  1.
<mgrwt>
<rscale>  2 0.35121279E+03</rscale>
<asrwt>0</asrwt>
<pdfrwt beam="1">  1       21 0.52189284E-01 0.35589639E+03</pdfrwt>
<pdfrwt beam="2">  1       21 0.96692072E-01 0.35589639E+03</pdfrwt>
<totfact> 0.27925814E+03</totfact>
</mgrwt>
</event>
<event>
12    1  0.2742799E-001  0.2014815E+03  0.7546771E-02  0.1148655E+00
         21   -1    0    0  502  503  0.00000000000E+00  0.00000000000E+00  0.78839265803E+03  0.78839265803E+03  0.00000000000E+00 0.  1.
         21   -1    0    0  503  504 -0.00000000000E+00 -0.00000000000E+00 -0.10556580634E+03  0.10556580634E+03  0.00000000000E+00 0.  1.
         -6    2    1    2    0  504  0.88232506781E+02 -0.53266777741E+02  0.21243901136E+02  0.20259833033E+03  0.17312554766E+03 0.  0.
        -24    2    3    3    0    0  0.38177026354E+02 -0.96884249047E+02 -0.10100347770E+02  0.12902804514E+03  0.75512756223E+02 0.  0.
          6    2    1    2  502    0 -0.88232506781E+02  0.53266777741E+02  0.66158295055E+03  0.69136013404E+03  0.17223388059E+03 0.  0.
         24    2    5    5    0    0 -0.44813654927E+02  0.30738944274E+02  0.14970634933E+03  0.17713018076E+03  0.77523954642E+02 0.  0.
          4    1    6    6  501    0 -0.44797394891E+02 -0.68358635031E+01  0.37565614291E+02  0.58861795724E+02  0.00000000000E+00 0. -1.
         -3    1    6    6    0  501 -0.16260036105E-01  0.37574807777E+02  0.11214073504E+03  0.11826838504E+03  0.00000000000E+00 0.  1.
          5    1    5    5  502    0 -0.43418851854E+02  0.22527833468E+02  0.51187660122E+03  0.51422995328E+03  0.47000000000E+01 0. -1.
         13    1    4    4    0    0  0.26124829086E+02 -0.66661469031E+02  0.29792318747E+02  0.77548954890E+02  0.00000000000E+00 0. -1.
        -14    1    4    4    0    0  0.12052197269E+02 -0.30222780015E+02 -0.39892666518E+02  0.51479090248E+02  0.00000000000E+00 0.  1.
         -5    1    3    3    0  504  0.50055480427E+02  0.43617471305E+02  0.31344248906E+02  0.73570285193E+02  0.47000000000E+01 0.  1.
<mgrwt>
<rscale>  2 0.20128978E+03</rscale>
<asrwt>0</asrwt>
<pdfrwt beam="1">  1       21 0.12129117E+00 0.20148146E+03</pdfrwt>
<pdfrwt beam="2">  1       21 0.16240894E-01 0.20148146E+03</pdfrwt>
<totfact> 0.17345753E+04</totfact>
</mgrwt>
</event>
<event>
12    1  0.2742799E-001  0.1870119E+03  0.7546771E-02  0.1161363E+00
         21   -1    0    0  502  503  0.00000000000E+00  0.00000000000E+00  0.41053261690E+03  0.41053261690E+03  0.00000000000E+00 0.  1.
         21   -1    0    0  503  504 -0.00000000000E+00 -0.00000000000E+00 -0.14142261916E+03  0.14142261916E+03  0.00000000000E+00 0.  1.
         -6    2    1    2    0  504 -0.67081709303E+02 -0.13675825424E+02 -0.40178699853E+02  0.19052341214E+03  0.17319889932E+03 0.  0.
        -24    2    3    3    0    0 -0.14688602649E+02  0.40622179257E+02 -0.64949478999E+02  0.11096844726E+03  0.78928100004E+02 0.  0.
          6    2    1    2  502    0  0.67081709303E+02  0.13675825424E+02  0.30928869759E+03  0.36143182391E+03  0.17403011508E+03 0.  0.
         24    2    5    5    0    0  0.93107177669E+02  0.51038506392E+02  0.27155913506E+03  0.30211146635E+03  0.79076536318E+02 0.  0.
          2    1    6    6  501    0  0.40671676216E+00  0.35942900985E+02  0.10383626859E+03  0.10988188305E+03  0.00000000000E+00 0. -1.
         -1    1    6    6    0  501  0.92700460907E+02  0.15095605408E+02  0.16772286648E+03  0.19222958330E+03  0.00000000000E+00 0.  1.
          5    1    5    5  502    0 -0.26025468366E+02 -0.37362680969E+02  0.37729562528E+02  0.59320357563E+02  0.47000000000E+01 0. -1.
         11    1    4    4    0    0  0.92190685814E+01  0.73377684782E+01  0.16215520779E+02  0.20044380407E+02  0.00000000000E+00 0. -1.
        -12    1    4    4    0    0 -0.23907671231E+02  0.33284410778E+02 -0.81164999778E+02  0.90924066856E+02  0.00000000000E+00 0.  1.
         -5    1    3    3    0  504 -0.52393106653E+02 -0.54298004680E+02  0.24770779147E+02  0.79554964877E+02  0.47000000000E+01 0.  1.
<mgrwt>
<rscale>  2 0.18681832E+03</rscale>
<asrwt>0</asrwt>
<pdfrwt beam="1">  1       21 0.63158864E-01 0.18701194E+03</pdfrwt>
<pdfrwt beam="2">  1       21 0.21757326E-01 0.18701194E+03</pdfrwt>
<totfact> 0.45849829E+04</totfact>
</mgrwt>
</event>
<event>
12    1  0.2742799E-001  0.1797336E+03  0.7546771E-02  0.1168648E+00
         21   -1    0    0  502  503  0.00000000000E+00  0.00000000000E+00  0.78859213914E+03  0.78859213914E+03  0.00000000000E+00 0.  1.
         21   -1    0    0  503  504 -0.00000000000E+00 -0.00000000000E+00 -0.90855473025E+02  0.90855473025E+02  0.00000000000E+00 0.  1.
         -6    2    1    2    0  504 -0.14129201639E+02  0.45622006509E+02  0.22289184119E+02  0.18111035497E+03  0.17327189943E+03 0.  0.
        -24    2    3    3    0    0 -0.38503169662E+02  0.82225672264E+02  0.48293256700E+02  0.12980518511E+03  0.79206011039E+02 0.  0.
          6    2    1    2  502    0  0.14129201639E+02 -0.45622006509E+02  0.67544748200E+03  0.69833725719E+03  0.17077652659E+03 0.  0.
         24    2    5    5    0    0 -0.52518053663E+02 -0.33349004186E+02  0.24486304234E+03  0.26242725168E+03  0.70991907176E+02 0.  0.
          4    1    6    6  501    0 -0.29663462520E+02 -0.32877534129E+02  0.52370969664E+02  0.68582590521E+02  0.00000000000E+00 0. -1.
         -3    1    6    6    0  501 -0.22854591143E+02 -0.47147005674E+00  0.19249207267E+03  0.19384466116E+03  0.00000000000E+00 0.  1.
          5    1    5    5  502    0  0.66647255302E+02 -0.12273002323E+02  0.43058443966E+03  0.43591000551E+03  0.47000000000E+01 0. -1.
         11    1    4    4    0    0  0.82777737358E+01  0.44350936857E+02  0.52794336250E+02  0.69446159564E+02  0.00000000000E+00 0. -1.
        -12    1    4    4    0    0 -0.46780943398E+02  0.37874735407E+02 -0.45010795504E+01  0.60359025543E+02  0.00000000000E+00 0.  1.
         -5    1    3    3    0  504  0.24373968023E+02 -0.36603665756E+02 -0.26004072581E+02  0.51305169863E+02  0.47000000000E+01 0.  1.
<mgrwt>
<rscale>  2 0.17912942E+03</rscale>
<asrwt>0</asrwt>
<pdfrwt beam="1">  1       21 0.12132186E+00 0.17973356E+03</pdfrwt>
<pdfrwt beam="2">  1       21 0.13977766E-01 0.17973356E+03</pdfrwt>
<totfact> 0.23101707E+04</totfact>
</mgrwt>
</event>
<event>
12    1  0.2742799E-001  0.1797895E+03  0.7546771E-02  0.1168472E+00
         21   -1    0    0  502  503  0.00000000000E+00  0.00000000000E+00  0.26838224232E+03  0.26838224232E+03  0.00000000000E+00 0. -1.
         21   -1    0    0  503  504 -0.00000000000E+00 -0.00000000000E+00 -0.22864100472E+03  0.22864100472E+03  0.00000000000E+00 0.  1.
         -6    2    1    2    0  504  0.30606383880E+02  0.42618156395E+02 -0.15214246974E+03  0.23407149119E+03  0.16996786137E+03 0.  0.
        -24    2    3    3    0    0 -0.41144088339E+02  0.63542366124E+02 -0.84080896192E+02  0.13287652782E+03  0.69685767876E+02 0.  0.
          6    2    1    2  502    0 -0.30606383880E+02 -0.42618156395E+02  0.19188370733E+03  0.26295175585E+03  0.17196281801E+03 0.  0.
         24    2    5    5    0    0 -0.42810677126E+02  0.23331935811E+02  0.16587183217E+03  0.19086106932E+03  0.80853879112E+02 0.  0.
          2    1    6    6  501    0 -0.53283975735E+02  0.12814945337E+02  0.50450438129E+02  0.74489271721E+02  0.00000000000E+00 0. -1.
         -1    1    6    6    0  501  0.10473298609E+02  0.10516990474E+02  0.11542139405E+03  0.11637179760E+03  0.00000000000E+00 0.  1.
          5    1    5    5  502    0  0.12204293246E+02 -0.65950092206E+02  0.26011875159E+02  0.72090686534E+02  0.47000000000E+01 0. -1.
         13    1    4    4    0    0 -0.64813700486E+01  0.48615704064E+02 -0.10464220832E+02  0.50149723399E+02  0.00000000000E+00 0. -1.
        -14    1    4    4    0    0 -0.34662718290E+02  0.14926662060E+02 -0.73616675359E+02  0.82726804426E+02  0.00000000000E+00 0.  1.
         -5    1    3    3    0  504  0.71750472219E+02 -0.20924209729E+02 -0.68061573547E+02  0.10119496336E+03  0.47000000000E+01 0.  1.
<mgrwt>
<rscale>  2 0.17931081E+03</rscale>
<asrwt>0</asrwt>
<pdfrwt beam="1">  1       21 0.41289576E-01 0.17978951E+03</pdfrwt>
<pdfrwt beam="2">  1       21 0.35175539E-01 0.17978951E+03</pdfrwt>
<totfact> 0.44288440E+04</totfact>
</mgrwt>
</event>
<event>
12    1  0.2742799E-001  0.2149331E+03  0.7546771E-02  0.1137783E+00
         21   -1    0    0  502  503  0.00000000000E+00  0.00000000000E+00  0.14421157557E+04  0.14421157557E+04  0.00000000000E+00 0. -1.
         21   -1    0    0  503  504 -0.00000000000E+00 -0.00000000000E+00 -0.38978255276E+02  0.38978255276E+02  0.00000000000E+00 0. -1.
         -6    2    1    2    0  504 -0.12560679723E+03  0.18710858542E+02  0.38830883607E+03  0.44382426316E+03  0.17340432711E+03 0.  0.
        -24    2    3    3    0    0 -0.10114394186E+01  0.13814980184E+02  0.95867890481E+02  0.12587494413E+03  0.80386394665E+02 0.  0.
          6    2    1    2  502    0  0.12560679723E+03 -0.18710858542E+02  0.10148286643E+04  0.10372697478E+04  0.17298597633E+03 0.  0.
         24    2    5    5    0    0  0.47792937992E+02  0.36966899637E+02  0.72233938446E+03  0.72949210357E+03  0.82059894210E+02 0.  0.
          2    1    6    6  501    0  0.65034688696E+02  0.32342737846E+02  0.39209841957E+03  0.39876902343E+03  0.00000000000E+00 0. -1.
         -1    1    6    6    0  501 -0.17241750704E+02  0.46241617904E+01  0.33024096489E+03  0.33072308013E+03  0.00000000000E+00 0.  1.
          5    1    5    5  502    0  0.77813859240E+02 -0.55677758179E+02  0.29248927986E+03  0.30777764422E+03  0.47000000000E+01 0. -1.
         13    1    4    4    0    0 -0.27582614305E+02 -0.22618334248E+02  0.33678652813E+02  0.49057530628E+02  0.00000000000E+00 0. -1.
        -14    1    4    4    0    0  0.26571174886E+02  0.36433314432E+02  0.62189237667E+02  0.76817413501E+02  0.00000000000E+00 0.  1.
         -5    1    3    3    0  504 -0.12459535781E+03  0.48958783579E+01  0.29244094559E+03  0.31794931903E+03  0.47000000000E+01 0.  1.
<mgrwt>
<rscale>  2 0.21484868E+03</rscale>
<asrwt>0</asrwt>
<pdfrwt beam="1">  1       21 0.22186392E+00 0.21493307E+03</pdfrwt>
<pdfrwt beam="2">  1       21 0.59966558E-02 0.21493307E+03</pdfrwt>
<totfact> 0.19002392E+04</totfact>
</mgrwt>
</event>
<event>
12    1  0.2742799E-001  0.1983662E+03  0.7546771E-02  0.1151935E+00
         21   -1    0    0  502  503  0.00000000000E+00  0.00000000000E+00  0.82646179099E+02  0.82646179099E+02  0.00000000000E+00 0. -1.
         21   -1    0    0  503  504 -0.00000000000E+00 -0.00000000000E+00 -0.13628152798E+04  0.13628152798E+04  0.00000000000E+00 0. -1.
         -6    2    1    2    0  504 -0.72744864566E+01 -0.91868444081E+02 -0.12238915540E+04  0.12392666301E+04  0.17140162022E+03 0.  0.
        -24    2    3    3    0    0 -0.28656891657E+02 -0.84376630096E+02 -0.12000169547E+04  0.12060187577E+04  0.80622076602E+02 0.  0.
          6    2    1    2  502    0  0.72744864566E+01  0.91868444081E+02 -0.56277546689E+02  0.20619482876E+03  0.17565994414E+03 0.  0.
         24    2    5    5    0    0 -0.27353287688E+02 -0.13702181484E+02 -0.15115948233E+02  0.87617398736E+02  0.80699222707E+02 0.  0.
          4    1    6    6  501    0  0.25402627100E+02 -0.21033683447E+02 -0.41917104184E+01  0.33245747686E+02  0.00000000000E+00 0. -1.
         -3    1    6    6    0  501 -0.52755914788E+02  0.73315019631E+01 -0.10924237815E+02  0.54371651051E+02  0.00000000000E+00 0.  1.
          5    1    5    5  502    0  0.34627774145E+02  0.10557062557E+03 -0.41161598456E+02  0.11857743003E+03  0.47000000000E+01 0. -1.
         13    1    4    4    0    0  0.20440688253E+02 -0.59473937728E+02 -0.75375315892E+03  0.75637212772E+03  0.00000000000E+00 0. -1.
        -14    1    4    4    0    0 -0.49097579911E+02 -0.24902692368E+02 -0.44626379575E+03  0.44964662996E+03  0.00000000000E+00 0.  1.
         -5    1    3    3    0  504  0.21382405201E+02 -0.74918139855E+01 -0.23874599336E+02  0.33247872450E+02  0.47000000000E+01 0.  1.
<mgrwt>
<rscale>  2 0.19741922E+03</rscale>
<asrwt>0</asrwt>
<pdfrwt beam="1">  1       21 0.12714797E-01 0.19836619E+03</pdfrwt>
<pdfrwt beam="2">  1       21 0.20966388E+00 0.19836619E+03</pdfrwt>
<totfact> 0.61361011E+03</totfact>
</mgrwt>
</event>
<event>
12    1  0.2742799E-001  0.3603002E+03  0.7546771E-02  0.1058490E+00
         21   -1    0    0  502  503  0.00000000000E+00  0.00000000000E+00  0.24614986272E+03  0.24614986272E+03  0.00000000000E+00 0. -1.
         21   -1    0    0  503  504 -0.00000000000E+00 -0.00000000000E+00 -0.99749878984E+03  0.99749878984E+03  0.00000000000E+00 0.  1.
         -6    2    1    2    0  504 -0.29225935767E+03  0.11923885466E+03 -0.80266037970E+03  0.87971309148E+03  0.17319931169E+03 0.  0.
        -24    2    3    3    0    0 -0.12884118544E+03  0.51559357264E+02 -0.53944253583E+03  0.56255108759E+03  0.78784886193E+02 0.  0.
          6    2    1    2  502    0  0.29225935767E+03 -0.11923885466E+03  0.51311452585E+02  0.36393556108E+03  0.17373195114E+03 0.  0.
         24    2    5    5    0    0  0.16121774020E+03 -0.11127234814E+03 -0.22624409488E+02  0.21319083502E+03  0.81029457699E+02 0.  0.
          4    1    6    6  501    0  0.65706745652E+02 -0.89703458475E+02  0.54563567211E+01  0.11132770866E+03  0.00000000000E+00 0. -1.
         -3    1    6    6    0  501  0.95510994549E+02 -0.21568889670E+02 -0.28080766209E+02  0.10186312636E+03  0.00000000000E+00 0.  1.
          5    1    5    5  502    0  0.13104161746E+03 -0.79665065151E+01  0.73935862073E+02  0.15074472606E+03  0.47000000000E+01 0. -1.
         11    1    4    4    0    0  0.75506399273E+00  0.22528408586E+02 -0.13479128717E+03  0.13666305430E+03  0.00000000000E+00 0. -1.
        -12    1    4    4    0    0 -0.12959624944E+03  0.29030948678E+02 -0.40465124866E+03  0.42588803328E+03  0.00000000000E+00 0.  1.
         -5    1    3    3    0  504 -0.16341817222E+03  0.67679497396E+02 -0.26321784387E+03  0.31716200389E+03  0.47000000000E+01 0.  1.
<mgrwt>
<rscale>  2 0.36023604E+03</rscale>
<asrwt>0</asrwt>
<pdfrwt beam="1">  1       21 0.37869210E-01 0.36030019E+03</pdfrwt>
<pdfrwt beam="2">  1       21 0.15346135E+00 0.36030019E+03</pdfrwt>
<totfact> 0.16802360E+03</totfact>
</mgrwt>
</event>
<event>
12    1  0.2742799E-001  0.2258635E+03  0.7546771E-02  0.1129631E+00
         21   -1    0    0  502  503  0.00000000000E+00  0.00000000000E+00  0.27255061932E+03  0.27255061932E+03  0.00000000000E+00 0.  1.
         21   -1    0    0  503  504 -0.00000000000E+00 -0.00000000000E+00 -0.19232477058E+03  0.19232477058E+03  0.00000000000E+00 0. -1.
         -6    2    1    2    0  504  0.76563669459E+02 -0.12324178917E+03  0.12835356856E+01  0.22561361964E+03  0.17276956857E+03 0.  0.
        -24    2    3    3    0    0  0.76283575646E+02 -0.10953913716E+03 -0.56555429497E+02  0.16598747589E+03  0.80841320280E+02 0.  0.
          6    2    1    2  502    0 -0.76563669459E+02  0.12324178917E+03  0.78942313050E+02  0.23926177026E+03  0.17310046748E+03 0.  0.
         24    2    5    5    0    0 -0.98017507888E+02  0.33187430983E+02  0.61326386680E+02  0.14490889286E+03  0.80801139225E+02 0.  0.
          2    1    6    6  501    0 -0.29171919231E+02 -0.26846626380E+02  0.23136265935E+02  0.45902385788E+02  0.00000000000E+00 0. -1.
         -1    1    6    6    0  501 -0.68845588657E+02  0.60034057363E+02  0.38190120744E+02  0.99006507076E+02  0.00000000000E+00 0.  1.
          5    1    5    5  502    0  0.21453838429E+02  0.90054358187E+02  0.17615926371E+02  0.94352877400E+02  0.47000000000E+01 0. -1.
         13    1    4    4    0    0  0.46378207363E+02 -0.57618046221E+02  0.12006946654E+02  0.74932930922E+02  0.00000000000E+00 0. -1.
        -14    1    4    4    0    0  0.29905368283E+02 -0.51921090940E+02 -0.68562376151E+02  0.91054544972E+02  0.00000000000E+00 0.  1.
         -5    1    3    3    0  504  0.28009381306E+00 -0.13702652009E+02  0.57838965182E+02  0.59626143746E+02  0.47000000000E+01 0.  1.
<mgrwt>
<rscale>  2 0.22580007E+03</rscale>
<asrwt>0</asrwt>
<pdfrwt beam="1">  1       21 0.41930864E-01 0.22586347E+03</pdfrwt>
<pdfrwt beam="2">  1       21 0.29588426E-01 0.22586347E+03</pdfrwt>
<totfact> 0.59043123E+04</totfact>
</mgrwt>
</event>
<event>
12    1  0.2742799E-001  0.1793939E+03  0.7546771E-02  0.1168625E+00
         21   -1    0    0  502  503  0.00000000000E+00  0.00000000000E+00  0.12942264579E+03  0.12942264579E+03  0.00000000000E+00 0. -1.
         21   -1    0    0  503  504 -0.00000000000E+00 -0.00000000000E+00 -0.32411288247E+03  0.32411288247E+03  0.00000000000E+00 0. -1.
         -6    2    1    2    0  504  0.33358061277E+02 -0.29633822997E+02 -0.20751931479E+03  0.27368347630E+03  0.17276416142E+03 0.  0.
        -24    2    3    3    0    0  0.53426886827E+01 -0.78624866166E+02 -0.90637655263E+02  0.14380508801E+03  0.79084163286E+02 0.  0.
          6    2    1    2  502    0 -0.33358061277E+02  0.29633822997E+02  0.12829078108E+02  0.17985205196E+03  0.17375629955E+03 0.  0.
         24    2    5    5    0    0  0.18449985881E+02  0.69680366157E+02  0.86665648153E+01  0.11407047486E+03  0.87984137672E+02 0.  0.
          2    1    6    6  501    0  0.34335484576E+02  0.81050026613E+02  0.21609667402E+02  0.90636692572E+02  0.00000000000E+00 0. -1.
         -1    1    6    6    0  501 -0.15885498696E+02 -0.11369660456E+02 -0.12943102587E+02  0.23433782287E+02  0.00000000000E+00 0.  1.
          5    1    5    5  502    0 -0.51808047158E+02 -0.40046543160E+02  0.41625132929E+01  0.65781577104E+02  0.47000000000E+01 0. -1.
         11    1    4    4    0    0  0.17371997326E+02 -0.86096370018E+02 -0.94613064773E+02  0.12909687543E+03  0.00000000000E+00 0. -1.
        -12    1    4    4    0    0 -0.12029308644E+02  0.74715038521E+01  0.39754095095E+01  0.14708212571E+02  0.00000000000E+00 0.  1.
         -5    1    3    3    0  504  0.28015372594E+02  0.48991043168E+02 -0.11688165953E+03  0.12987838830E+03  0.47000000000E+01 0.  1.
<mgrwt>
<rscale>  2 0.17915323E+03</rscale>
<asrwt>0</asrwt>
<pdfrwt beam="1">  1       21 0.19911176E-01 0.17939391E+03</pdfrwt>
<pdfrwt beam="2">  1       21 0.49863520E-01 0.17939391E+03</pdfrwt>
<totfact> 0.89664113E+04</totfact>
</mgrwt>
</event>
<event>
12    1  0.2742799E-001  0.1921401E+03  0.7546771E-02  0.1157622E+00
         21   -1    0    0  502  503  0.00000000000E+00  0.00000000000E+00  0.26137841409E+02  0.26137841409E+02  0.00000000000E+00 0.  1.
         21   -1    0    0  503  504 -0.00000000000E+00 -0.00000000000E+00 -0.14940653216E+04  0.14940653216E+04  0.00000000000E+00 0.  1.
         -6    2    1    2    0  504  0.76447033761E+02 -0.30589393864E+02 -0.93773917761E+03  0.95627281646E+03  0.16829460566E+03 0.  0.
        -24    2    3    3    0    0  0.46134499204E+02 -0.56530222566E+02 -0.32576801220E+03  0.34298448815E+03  0.78673396157E+02 0.  0.
          6    2    1    2  502    0 -0.76447033761E+02  0.30589393864E+02 -0.53018830255E+03  0.56393034651E+03  0.17360282132E+03 0.  0.
         24    2    5    5    0    0  0.23236265110E+01 -0.33655550944E+02 -0.20223301634E+03  0.22055156207E+03  0.81281629436E+02 0.  0.
          2    1    6    6  501    0  0.22101075272E+02 -0.52437502577E+01 -0.17510147219E+03  0.17656862690E+03  0.00000000000E+00 0. -1.
         -1    1    6    6    0  501 -0.19777448761E+02 -0.28411800687E+02 -0.27131544159E+02  0.43982935170E+02  0.00000000000E+00 0.  1.
          5    1    5    5  502    0 -0.78770660272E+02  0.64244944808E+02 -0.32795528620E+03  0.34337878444E+03  0.47000000000E+01 0. -1.
         13    1    4    4    0    0  0.11441950245E+02 -0.69359946254E+02 -0.21070946475E+03  0.22212653805E+03  0.00000000000E+00 0. -1.
        -14    1    4    4    0    0  0.34692548959E+02  0.12829723688E+02 -0.11505854745E+03  0.12085795011E+03  0.00000000000E+00 0.  1.
         -5    1    3    3    0  504  0.30312534557E+02  0.25940828702E+02 -0.61197116541E+03  0.61328832830E+03  0.47000000000E+01 0.  1.
<mgrwt>
<rscale>  2 0.19093316E+03</rscale>
<asrwt>0</asrwt>
<pdfrwt beam="1">  1       21 0.40212059E-02 0.19214005E+03</pdfrwt>
<pdfrwt beam="2">  1       21 0.22985623E+00 0.19214005E+03</pdfrwt>
<totfact> 0.34048394E+04</totfact>
</mgrwt>
</event>
<event>
12    1  0.2742799E-001  0.1914486E+03  0.7546771E-02  0.1157657E+00
         21   -1    0    0  502  503  0.00000000000E+00  0.00000000000E+00  0.18437267700E+02  0.18437267700E+02  0.00000000000E+00 0. -1.
         21   -1    0    0  503  504 -0.00000000000E+00 -0.00000000000E+00 -0.20908775250E+04  0.20908775250E+04  0.00000000000E+00 0. -1.
         -6    2    1    2    0  504 -0.78382055895E+02 -0.10448985627E+02 -0.12892251981E+04  0.13030404114E+04  0.17192956234E+03 0.  0.
        -24    2    3    3    0    0 -0.10655091095E+03  0.15612054833E+02 -0.71945284040E+03  0.73195785013E+03  0.80951046421E+02 0.  0.
          6    2    1    2  502    0  0.78382055895E+02  0.10448985627E+02 -0.78321505917E+03  0.80627438125E+03  0.17435487074E+03 0.  0.
         24    2    5    5    0    0 -0.88252873272E+01  0.15123590378E+02 -0.56710301959E+03  0.57313606116E+03  0.81070963281E+02 0.  0.
          4    1    6    6  501    0 -0.18669111492E+01  0.47982550946E+02 -0.38250161404E+03  0.38550394978E+03  0.00000000000E+00 0. -1.
         -3    1    6    6    0  501 -0.69583761780E+01 -0.32858960568E+02 -0.18460140555E+03  0.18763211138E+03  0.00000000000E+00 0.  1.
          5    1    5    5  502    0  0.87207343223E+02 -0.46746047513E+01 -0.21611203958E+03  0.23313832009E+03  0.47000000000E+01 0. -1.
         11    1    4    4    0    0 -0.17881641201E+02  0.40127252327E+01 -0.39448768935E+03  0.39491314501E+03  0.00000000000E+00 0. -1.
        -12    1    4    4    0    0 -0.88669269753E+02  0.11599329600E+02 -0.32496515105E+03  0.33704470511E+03  0.00000000000E+00 0.  1.
         -5    1    3    3    0  504  0.28168855058E+02 -0.26061040459E+02 -0.56977235771E+03  0.57108256131E+03  0.47000000000E+01 0.  1.
<mgrwt>
<rscale>  2 0.19089463E+03</rscale>
<asrwt>0</asrwt>
<pdfrwt beam="1">  1       21 0.28365045E-02 0.19144855E+03</pdfrwt>
<pdfrwt beam="2">  1       21 0.32167326E+00 0.19144855E+03</pdfrwt>
<totfact> 0.17789690E+04</totfact>
</mgrwt>
</event>
<event>
12    1  0.2742799E-001  0.1824390E+03  0.7546771E-02  0.1166326E+00
         21   -1    0    0  502  503  0.00000000000E+00  0.00000000000E+00  0.19381517115E+04  0.19381517115E+04  0.00000000000E+00 0. -1.
         21   -1    0    0  503  504 -0.00000000000E+00 -0.00000000000E+00 -0.10238522401E+04  0.10238522401E+04  0.00000000000E+00 0.  1.
         -6    2    1    2    0  504  0.38798238195E+01  0.53932039542E+02 -0.10116980948E+04  0.10273849705E+04  0.17047910316E+03 0.  0.
        -24    2    3    3    0    0 -0.10459073312E+02  0.56591094992E+02 -0.30212399994E+03  0.31764546852E+03  0.79421584481E+02 0.  0.
          6    2    1    2  502    0 -0.38798238195E+01 -0.53932039542E+02  0.19259975662E+04  0.19346189811E+04  0.17424195545E+03 0.  0.
         24    2    5    5    0    0  0.49395728094E+02  0.15964056992E+02  0.10768935571E+04  0.10809659737E+04  0.78057119520E+02 0.  0.
          4    1    6    6  501    0  0.98902456571E+01  0.31120098038E+02  0.81685093320E+03  0.81750334833E+03  0.00000000000E+00 0. -1.
         -3    1    6    6    0  501  0.39505482437E+02 -0.15156041045E+02  0.26004262385E+03  0.26346262533E+03  0.00000000000E+00 0.  1.
          5    1    5    5  502    0 -0.53275551914E+02 -0.69896096534E+02  0.84910400917E+03  0.85365300745E+03  0.47000000000E+01 0. -1.
         11    1    4    4    0    0 -0.20461909081E+02  0.54700172823E+02 -0.30186451450E+03  0.30746216636E+03  0.00000000000E+00 0. -1.
        -12    1    4    4    0    0  0.10002835769E+02  0.18909221688E+01 -0.25948544174E+00  0.10183302154E+02  0.00000000000E+00 0.  1.
         -5    1    3    3    0  504  0.14338897132E+02 -0.26590554500E+01 -0.70957409485E+03  0.70973950195E+03  0.47000000000E+01 0.  1.
<mgrwt>
<rscale>  2 0.18153469E+03</rscale>
<asrwt>0</asrwt>
<pdfrwt beam="1">  1       21 0.29817718E+00 0.18243897E+03</pdfrwt>
<pdfrwt beam="2">  1       21 0.15751573E+00 0.18243897E+03</pdfrwt>
<totfact> 0.93801953E+00</totfact>
</mgrwt>
</event>
<event>
12    1  0.2742799E-001  0.2278284E+03  0.7546771E-02  0.1131190E+00
         21   -1    0    0  502  503  0.00000000000E+00  0.00000000000E+00  0.58850897437E+02  0.58850897437E+02  0.00000000000E+00 0.  1.
         21   -1    0    0  503  504 -0.00000000000E+00 -0.00000000000E+00 -0.18665804499E+04  0.18665804499E+04  0.00000000000E+00 0.  1.
         -6    2    1    2    0  504  0.11289486892E+03 -0.52821832092E+02 -0.16391571681E+04  0.16549144966E+04  0.19071017769E+03 0.  0.
        -24    2    3    3    0    0  0.65911674088E+02 -0.10866767631E+03 -0.95332228911E+03  0.96519154484E+03  0.81353049498E+02 0.  0.
          6    2    1    2  502    0 -0.11289486892E+03  0.52821832092E+02 -0.16857238436E+03  0.27051685076E+03  0.17095999649E+03 0.  0.
         24    2    5    5    0    0 -0.12311005775E+03  0.89933644284E+02 -0.13109800264E+03  0.21659045673E+03  0.80502130162E+02 0.  0.
          2    1    6    6  501    0  0.37059048155E+00  0.27378609624E+02 -0.22374445583E+01  0.27472381775E+02  0.00000000000E+00 0. -1.
         -1    1    6    6    0  501 -0.12348064823E+03  0.62555034660E+02 -0.12886055808E+03  0.18911807496E+03  0.00000000000E+00 0.  1.
          5    1    5    5  502    0  0.10215188825E+02 -0.37111812192E+02 -0.37474381722E+02  0.53926394023E+02  0.47000000000E+01 0. -1.
         13    1    4    4    0    0  0.11640393426E+02 -0.64171493155E+02 -0.67554434618E+03  0.67868523113E+03  0.00000000000E+00 0. -1.
        -14    1    4    4    0    0  0.54271280662E+02 -0.44496183152E+02 -0.27777794293E+03  0.28650631371E+03  0.00000000000E+00 0.  1.
         -5    1    3    3    0  504  0.46983194832E+02  0.55845844215E+02 -0.68583487901E+03  0.68972295176E+03  0.47000000000E+01 0.  1.
<mgrwt>
<rscale>  2 0.22365078E+03</rscale>
<asrwt>0</asrwt>
<pdfrwt beam="1">  1       21 0.90539838E-02 0.22782838E+03</pdfrwt>
<pdfrwt beam="2">  1       21 0.28716624E+00 0.22782838E+03</pdfrwt>
<totfact> 0.37651953E+03</totfact>
</mgrwt>
</event>
<event>
12    1  0.2742799E-001  0.2585369E+03  0.7546771E-02  0.1109256E+00
         21   -1    0    0  502  503  0.00000000000E+00  0.00000000000E+00  0.72887283244E+03  0.72887283244E+03  0.00000000000E+00 0.  1.
         21   -1    0    0  503  504 -0.00000000000E+00 -0.00000000000E+00 -0.91261080733E+02  0.91261080733E+02  0.00000000000E+00 0.  1.
         -6    2    1    2    0  504  0.52141983637E+02 -0.17521621326E+03  0.38975615574E+03  0.46770844013E+03  0.18281634551E+03 0.  0.
        -24    2    3    3    0    0  0.56695039942E+02 -0.58245316364E+02  0.84435412990E+02  0.14068280353E+03  0.77816886403E+02 0.  0.
          6    2    1    2  502    0 -0.52141983637E+02  0.17521621326E+03  0.24785559597E+03  0.35242547304E+03  0.17132369874E+03 0.  0.
         24    2    5    5    0    0 -0.63690413245E+01  0.13533244930E+03  0.85198075048E+02  0.17874347632E+03  0.79593227171E+02 0.  0.
          4    1    6    6  501    0  0.59402792110E+01  0.13777238520E+03  0.90686275968E+02  0.16504701661E+03  0.00000000000E+00 0. -1.
         -3    1    6    6    0  501 -0.12309320535E+02 -0.24399358992E+01 -0.54882009196E+01  0.13696459709E+02  0.00000000000E+00 0.  1.
          5    1    5    5  502    0 -0.45772942313E+02  0.39883763955E+02  0.16265752092E+03  0.17368199672E+03  0.47000000000E+01 0. -1.
         11    1    4    4    0    0  0.74217070460E+02 -0.48603031579E+02  0.81500142683E+02  0.12046867428E+03  0.00000000000E+00 0. -1.
        -12    1    4    4    0    0 -0.17522030518E+02 -0.96422847847E+01  0.29352703076E+01  0.20214129245E+02  0.00000000000E+00 0.  1.
         -5    1    3    3    0  504 -0.45530563048E+01 -0.11697089690E+03  0.30532074275E+03  0.32702563660E+03  0.47000000000E+01 0.  1.
<mgrwt>
<rscale>  2 0.25651458E+03</rscale>
<asrwt>0</asrwt>
<pdfrwt beam="1">  1       21 0.11213428E+00 0.25853689E+03</pdfrwt>
<pdfrwt beam="2">  1       21 0.14040167E-01 0.25853689E+03</pdfrwt>
<totfact> 0.26623066E+04</totfact>
</mgrwt>
</event>
<event>
12    1  0.2742799E-001  0.2138407E+03  0.7546771E-02  0.1138803E+00
         21   -1    0    0  502  503  0.00000000000E+00  0.00000000000E+00  0.37430031639E+02  0.37430031639E+02  0.00000000000E+00 0. -1.
         21   -1    0    0  503  504 -0.00000000000E+00 -0.00000000000E+00 -0.13563788766E+04  0.13563788766E+04  0.00000000000E+00 0. -1.
         -6    2    1    2    0  504 -0.76461151982E+02  0.99557051807E+02 -0.43239324387E+03  0.48182827594E+03  0.17157113924E+03 0.  0.
        -24    2    3    3    0    0 -0.10844700609E+03  0.66326465820E+02 -0.23713875449E+03  0.28114501223E+03  0.81533893709E+02 0.  0.
          6    2    1    2  502    0  0.76461151982E+02 -0.99557051807E+02 -0.88655560113E+03  0.91198063234E+03  0.17311824152E+03 0.  0.
         24    2    5    5    0    0  0.66569387989E+02 -0.81177570701E+02 -0.87959932590E+03  0.88948325281E+03  0.80400258137E+02 0.  0.
          4    1    6    6  501    0  0.32801662519E+02 -0.79165291333E+02 -0.77074234468E+03  0.77549136314E+03  0.00000000000E+00 0. -1.
         -3    1    6    6    0  501  0.33767725470E+02 -0.20122793680E+01 -0.10885698121E+03  0.11399188967E+03  0.00000000000E+00 0.  1.
          5    1    5    5  502    0  0.98917639929E+01 -0.18379481105E+02 -0.69562752292E+01  0.22497379529E+02  0.47000000000E+01 0. -1.
         11    1    4    4    0    0 -0.11581345864E+02 -0.18603697562E+02 -0.28719433593E+02  0.36125212814E+02  0.00000000000E+00 0. -1.
        -12    1    4    4    0    0 -0.96865660226E+02  0.84930163382E+02 -0.20841932090E+03  0.24501979942E+03  0.00000000000E+00 0.  1.
         -5    1    3    3    0  504  0.31985854108E+02  0.33230585987E+02 -0.19525448938E+03  0.20068326370E+03  0.47000000000E+01 0.  1.
<mgrwt>
<rscale>  2 0.21352736E+03</rscale>
<asrwt>0</asrwt>
<pdfrwt beam="1">  1       21 0.57584675E-02 0.21384069E+03</pdfrwt>
<pdfrwt beam="2">  1       21 0.20867363E+00 0.21384069E+03</pdfrwt>
<totfact> 0.24633460E+04</totfact>
</mgrwt>
</event>
<event>
12    1  0.2742799E-001  0.1817045E+03  0.7546771E-02  0.1166278E+00
         21   -1    0    0  502  503  0.00000000000E+00  0.00000000000E+00  0.10371898917E+04  0.10371898917E+04  0.00000000000E+00 0.  1.
         21   -1    0    0  503  504 -0.00000000000E+00 -0.00000000000E+00 -0.38955501858E+02  0.38955501858E+02  0.00000000000E+00 0.  1.
         -6    2    1    2    0  504 -0.29076583334E+02  0.42425279120E+02  0.26714887228E+03  0.32281773366E+03  0.17377404063E+03 0.  0.
        -24    2    3    3    0    0 -0.16680796064E+02  0.83381321373E+02  0.25075036352E+03  0.27675197600E+03  0.80530849388E+02 0.  0.
          6    2    1    2  502    0  0.29076583334E+02 -0.42425279120E+02  0.73108551759E+03  0.75332765993E+03  0.17427328302E+03 0.  0.
         24    2    5    5    0    0  0.30977454341E+02 -0.37418595057E+02  0.19974794081E+03  0.22194230946E+03  0.83662386622E+02 0.  0.
          4    1    6    6  501    0  0.14075790613E+02  0.22484832368E+01 -0.30789457410E+01  0.14582985467E+02  0.00000000000E+00 0. -1.
         -3    1    6    6    0  501  0.16901663728E+02 -0.39667078294E+02  0.20282688655E+03  0.20735932399E+03  0.00000000000E+00 0.  1.
          5    1    5    5  502    0 -0.19008710071E+01 -0.50066840632E+01  0.53133757678E+03  0.53138535047E+03  0.47000000000E+01 0. -1.
         13    1    4    4    0    0 -0.59606674341E+01  0.72105217957E+01  0.14852149984E+03  0.14881584961E+03  0.00000000000E+00 0. -1.
        -14    1    4    4    0    0 -0.10720128630E+02  0.76170799577E+02  0.10222886368E+03  0.12793612639E+03  0.00000000000E+00 0.  1.
         -5    1    3    3    0  504 -0.12395787269E+02 -0.40956042252E+02  0.16398508755E+02  0.46065757655E+02  0.47000000000E+01 0.  1.
<mgrwt>
<rscale>  2 0.18158470E+03</rscale>
<asrwt>0</asrwt>
<pdfrwt beam="1">  1       21 0.15956766E+00 0.18170451E+03</pdfrwt>
<pdfrwt beam="2">  1       21 0.59931549E-02 0.18170451E+03</pdfrwt>
<totfact> 0.50406735E+04</totfact>
</mgrwt>
</event>
<event>
12    1  0.2742799E-001  0.1928312E+03  0.7546771E-02  0.1156236E+00
         21   -1    0    0  502  503  0.00000000000E+00  0.00000000000E+00  0.60962422990E+02  0.60962422990E+02  0.00000000000E+00 0.  1.
         21   -1    0    0  503  504 -0.00000000000E+00 -0.00000000000E+00 -0.14639516515E+04  0.14639516515E+04  0.00000000000E+00 0.  1.
         -6    2    1    2    0  504  0.61385442419E+02  0.55146076675E+02 -0.12842779076E+04  0.12984714829E+04  0.17276916834E+03 0.  0.
        -24    2    3    3    0    0  0.41908253116E+01 -0.14201250749E+01 -0.27936339884E+03  0.29033150283E+03  0.78923337191E+02 0.  0.
          6    2    1    2  502    0 -0.61385442419E+02 -0.55146076675E+02 -0.11871132090E+03  0.22644259162E+03  0.17428312390E+03 0.  0.
         24    2    5    5    0    0 -0.46031235621E+02 -0.10028411696E+03 -0.56346418648E+02  0.14779994810E+03  0.80586146445E+02 0.  0.
          4    1    6    6  501    0 -0.24181534220E+02 -0.21193204696E+02  0.18193234346E+02  0.36944448819E+02  0.00000000000E+00 0. -1.
         -3    1    6    6    0  501 -0.21849701400E+02 -0.79090912259E+02 -0.74539652994E+02  0.11085549928E+03  0.00000000000E+00 0.  1.
          5    1    5    5  502    0 -0.15354206798E+02  0.45138040280E+02 -0.62364902248E+02  0.78642643516E+02  0.47000000000E+01 0. -1.
         13    1    4    4    0    0  0.20059626968E+02 -0.21405608071E+02 -0.39961346750E+02  0.49573157304E+02  0.00000000000E+00 0. -1.
        -14    1    4    4    0    0 -0.15868801657E+02  0.19985482997E+02 -0.23940205209E+03  0.24075834552E+03  0.00000000000E+00 0.  1.
         -5    1    3    3    0  504  0.57194617107E+02  0.56566201750E+02 -0.10049145088E+04  0.10081399800E+04  0.47000000000E+01 0.  1.
<mgrwt>
<rscale>  2 0.19248847E+03</rscale>
<asrwt>0</asrwt>
<pdfrwt beam="1">  1       21 0.93788344E-02 0.19283119E+03</pdfrwt>
<pdfrwt beam="2">  1       21 0.22522333E+00 0.19283119E+03</pdfrwt>
<totfact> 0.84916493E+03</totfact>
</mgrwt>
</event>
<event>
12    1  0.2742799E-001  0.2324618E+03  0.7546771E-02  0.1125375E+00
         21   -1    0    0  502  503  0.00000000000E+00  0.00000000000E+00  0.93969891728E+02  0.93969891728E+02  0.00000000000E+00 0. -1.
         21   -1    0    0  503  504 -0.00000000000E+00 -0.00000000000E+00 -0.97494463425E+03  0.97494463425E+03  0.00000000000E+00 0. -1.
         -6    2    1    2    0  504 -0.63624325528E+02 -0.14024403224E+03 -0.78406608962E+03  0.81706187590E+03  0.17062834691E+03 0.  0.
        -24    2    3    3    0    0 -0.16877540515E+02 -0.88786141426E+01 -0.43558830200E+03  0.44169406502E+03  0.70659727322E+02 0.  0.
          6    2    1    2  502    0  0.63624325528E+02  0.14024403224E+03 -0.96908652899E+02  0.25185265008E+03  0.17413221117E+03 0.  0.
         24    2    5    5    0    0  0.82435294308E+02  0.14422006643E+03 -0.12080633797E+03  0.22082281370E+03  0.81077360877E+02 0.  0.
          4    1    6    6  501    0  0.96394384582E+02  0.13296040608E+03 -0.96047748285E+02  0.19025119425E+03  0.00000000000E+00 0. -1.
         -3    1    6    6    0  501 -0.13959090274E+02  0.11259660356E+02 -0.24758589681E+02  0.30571619447E+02  0.00000000000E+00 0.  1.
          5    1    5    5  502    0 -0.18810968780E+02 -0.39760341904E+01  0.23897685067E+02  0.31029836382E+02  0.47000000000E+01 0. -1.
         11    1    4    4    0    0  0.21220817690E+02 -0.19521489687E+02 -0.26576462981E+03  0.26732424156E+03  0.00000000000E+00 0. -1.
        -12    1    4    4    0    0 -0.38098358205E+02  0.10642875544E+02 -0.16982367219E+03  0.17436982346E+03  0.00000000000E+00 0.  1.
         -5    1    3    3    0  504 -0.46746785013E+02 -0.13136541810E+03 -0.34847778762E+03  0.37536781088E+03  0.47000000000E+01 0.  1.
<mgrwt>
<rscale>  2 0.23180575E+03</rscale>
<asrwt>0</asrwt>
<pdfrwt beam="1">  1       21 0.14456907E-01 0.23246176E+03</pdfrwt>
<pdfrwt beam="2">  1       21 0.14999148E+00 0.23246176E+03</pdfrwt>
<totfact> 0.12200145E+04</totfact>
</mgrwt>
</event>
<event>
12    1  0.2742799E-001  0.1767907E+03  0.7546771E-02  0.1171544E+00
         21   -1    0    0  502  503  0.00000000000E+00  0.00000000000E+00  0.32283508467E+03  0.32283508467E+03  0.00000000000E+00 0. -1.
         21   -1    0    0  503  504 -0.00000000000E+00 -0.00000000000E+00 -0.25836535712E+03  0.25836535712E+03  0.00000000000E+00 0. -1.
         -6    2    1    2    0  504  0.11085359930E+02 -0.16625041686E+02 -0.19856428889E+03  0.26427484622E+03  0.17324589550E+03 0.  0.
        -24    2    3    3    0    0 -0.57029115629E+02  0.11830611004E+02 -0.95252437401E+02  0.13721291404E+03  0.79762607552E+02 0.  0.
          6    2    1    2  502    0 -0.11085359930E+02  0.16625041686E+02  0.26303401644E+03  0.31692559556E+03  0.17565779830E+03 0.  0.
         24    2    5    5    0    0 -0.48297222228E+02 -0.26348709665E+02  0.23019676573E+03  0.25110887250E+03  0.83894211474E+02 0.  0.
          4    1    6    6  501    0 -0.72435873610E+02 -0.16807259555E+02  0.16916499514E+03  0.18478699993E+03  0.00000000000E+00 0. -1.
         -3    1    6    6    0  501  0.24138651382E+02 -0.95414501098E+01  0.61031770586E+02  0.66321872573E+02  0.00000000000E+00 0.  1.
          5    1    5    5  502    0  0.37211862298E+02  0.42973751350E+02  0.32837250712E+02  0.65816723066E+02  0.47000000000E+01 0. -1.
         13    1    4    4    0    0  0.37194204018E+00  0.79383876176E+01 -0.76191365067E+02  0.76604702530E+02  0.00000000000E+00 0. -1.
        -14    1    4    4    0    0 -0.57401057669E+02  0.38922233859E+01 -0.19061072334E+02  0.60608211514E+02  0.00000000000E+00 0.  1.
         -5    1    3    3    0  504  0.68114475559E+02 -0.28455652689E+02 -0.10331185149E+03  0.12706193218E+03  0.47000000000E+01 0.  1.
<mgrwt>
<rscale>  2 0.17618854E+03</rscale>
<asrwt>0</asrwt>
<pdfrwt beam="1">  1       21 0.49666936E-01 0.17679067E+03</pdfrwt>
<pdfrwt beam="2">  1       21 0.39748516E-01 0.17679067E+03</pdfrwt>
<totfact> 0.23788926E+04</totfact>
</mgrwt>
</event>
<event>
12    1  0.2742799E-001  0.1839170E+03  0.7546771E-02  0.1164372E+00
         21   -1    0    0  502  503  0.00000000000E+00  0.00000000000E+00  0.16881016628E+03  0.16881016628E+03  0.00000000000E+00 0. -1.
         21   -1    0    0  503  504 -0.00000000000E+00 -0.00000000000E+00 -0.33721299704E+03  0.33721299704E+03  0.00000000000E+00 0.  1.
         -6    2    1    2    0  504  0.60175458680E+02 -0.16362952348E+02 -0.24602767339E+03  0.30639582770E+03  0.17163902565E+03 0.  0.
        -24    2    3    3    0    0 -0.33856335086E+02 -0.12543810540E+02 -0.12450064165E+03  0.15261847721E+03  0.80550550620E+02 0.  0.
          6    2    1    2  502    0 -0.60175458680E+02  0.16362952348E+02  0.77624842624E+02  0.19962733561E+03  0.17302203586E+03 0.  0.
         24    2    5    5    0    0 -0.91209638752E+02  0.23339178748E+02  0.11450981433E+02  0.12605520792E+03  0.83035384041E+02 0.  0.
          4    1    6    6  501    0 -0.18398866937E+02 -0.28689625575E+02 -0.67218240196E+01  0.34738967146E+02  0.00000000000E+00 0. -1.
         -3    1    6    6    0  501 -0.72810771815E+02  0.52028804324E+02  0.18172805453E+02  0.91316240777E+02  0.00000000000E+00 0.  1.
          5    1    5    5  502    0  0.31034180072E+02 -0.69762264008E+01  0.66173861191E+02  0.73572127687E+02  0.47000000000E+01 0. -1.
         11    1    4    4    0    0 -0.22592121102E+02  0.12266734077E+02 -0.55540287653E+00  0.25713521213E+02  0.00000000000E+00 0. -1.
        -12    1    4    4    0    0 -0.11264213984E+02 -0.24810544617E+02 -0.12394523878E+03  0.12690495600E+03  0.00000000000E+00 0.  1.
         -5    1    3    3    0  504  0.94031793766E+02 -0.38191418072E+01 -0.12152703173E+03  0.15377735049E+03  0.47000000000E+01 0.  1.
<mgrwt>
<rscale>  2 0.18359100E+03</rscale>
<asrwt>0</asrwt>
<pdfrwt beam="1">  1       21 0.25970795E-01 0.18391698E+03</pdfrwt>
<pdfrwt beam="2">  1       21 0.51878922E-01 0.18391698E+03</pdfrwt>
<totfact> 0.49879992E+04</totfact>
</mgrwt>
</event>
<event>
12    1  0.2742799E-001  0.1971633E+03  0.7546771E-02  0.1156405E+00
         21   -1    0    0  502  503  0.00000000000E+00  0.00000000000E+00  0.57325535440E+02  0.57325535440E+02  0.00000000000E+00 0.  1.
         21   -1    0    0  503  504 -0.00000000000E+00 -0.00000000000E+00 -0.62056189590E+03  0.62056189590E+03  0.00000000000E+00 0.  1.
         -6    2    1    2    0  504 -0.23910431481E+02  0.32345756262E+02 -0.29928897279E+03  0.34843091653E+03  0.17381673590E+03 0.  0.
        -24    2    3    3    0    0 -0.81275414142E+02  0.33698392871E+02 -0.17050025183E+03  0.20735931944E+03  0.78652888413E+02 0.  0.
          6    2    1    2  502    0  0.23910431481E+02 -0.32345756262E+02 -0.26394738767E+03  0.32945651481E+03  0.19301661848E+03 0.  0.
         24    2    5    5    0    0 -0.55053872794E+02 -0.39268773468E+02 -0.97670454535E+02  0.14519203638E+03  0.83476010088E+02 0.  0.
          4    1    6    6  501    0 -0.25759303181E+02 -0.31269375996E+02  0.24307860101E+01  0.40586011089E+02  0.00000000000E+00 0. -1.
         -3    1    6    6    0  501 -0.29294569613E+02 -0.79993974723E+01 -0.10010124054E+03  0.10460602529E+03  0.00000000000E+00 0.  1.
          5    1    5    5  502    0  0.78964304275E+02  0.69230172061E+01 -0.16627693314E+03  0.18426447843E+03  0.47000000000E+01 0. -1.
         11    1    4    4    0    0 -0.71234868031E+02  0.35964337299E+02 -0.69455927681E+02  0.10579208794E+03  0.00000000000E+00 0. -1.
        -12    1    4    4    0    0 -0.10040546111E+02 -0.22659444281E+01 -0.10104432415E+03  0.10156723149E+03  0.00000000000E+00 0.  1.
         -5    1    3    3    0  504  0.57364982661E+02 -0.13526366092E+01 -0.12878872096E+03  0.14107159710E+03  0.47000000000E+01 0.  1.
<mgrwt>
<rscale>  2 0.19229789E+03</rscale>
<asrwt>0</asrwt>
<pdfrwt beam="1">  1       21 0.88193130E-02 0.19716331E+03</pdfrwt>
<pdfrwt beam="2">  1       21 0.95471062E-01 0.19716331E+03</pdfrwt>
<totfact> 0.92501001E+04</totfact>
</mgrwt>
</event>
<event>
12    1  0.2742799E-001  0.1789770E+03  0.7546771E-02  0.1169169E+00
         21   -1    0    0  502  503  0.00000000000E+00  0.00000000000E+00  0.18468000497E+03  0.18468000497E+03  0.00000000000E+00 0.  1.
         21   -1    0    0  503  504 -0.00000000000E+00 -0.00000000000E+00 -0.76342673827E+03  0.76342673827E+03  0.00000000000E+00 0. -1.
         -6    2    1    2    0  504 -0.23764769295E+02  0.37068428869E+02 -0.70690566460E+03  0.72921080480E+03  0.17347606902E+03 0.  0.
        -24    2    3    3    0    0 -0.20932084227E+01  0.86146965066E+02 -0.56751893323E+03  0.57978152338E+03  0.81505792214E+02 0.  0.
          6    2    1    2  502    0  0.23764769295E+02 -0.37068428869E+02  0.12815893130E+03  0.21889593844E+03  0.17190662441E+03 0.  0.
         24    2    5    5    0    0  0.82041340992E+02 -0.26941421404E+02  0.95986433021E+02  0.15139871824E+03  0.79066773943E+02 0.  0.
          2    1    6    6  501    0  0.84313425557E+02 -0.20768691721E+02  0.41011045774E+02  0.96031235338E+02  0.00000000000E+00 0. -1.
         -1    1    6    6    0  501 -0.22720845653E+01 -0.61727296835E+01  0.54975387247E+02  0.55367482903E+02  0.00000000000E+00 0.  1.
          5    1    5    5  502    0 -0.58276571697E+02 -0.10127007464E+02  0.32172498278E+02  0.67497220198E+02  0.47000000000E+01 0. -1.
         11    1    4    4    0    0 -0.32049648070E+02  0.62211768170E+02 -0.23908017908E+03  0.24911205525E+03  0.00000000000E+00 0. -1.
        -12    1    4    4    0    0  0.29956439647E+02  0.23935196896E+02 -0.32843875415E+03  0.33066946813E+03  0.00000000000E+00 0.  1.
         -5    1    3    3    0  504 -0.21671560872E+02 -0.49078536198E+02 -0.13938673137E+03  0.14942928143E+03  0.47000000000E+01 0.  1.
<mgrwt>
<rscale>  2 0.17859562E+03</rscale>
<asrwt>0</asrwt>
<pdfrwt beam="1">  1       21 0.28412308E-01 0.17897704E+03</pdfrwt>
<pdfrwt beam="2">  1       21 0.11745027E+00 0.17897704E+03</pdfrwt>
<totfact> 0.66659320E+03</totfact>
</mgrwt>
</event>
<event>
12    1  0.2742799E-001  0.2066709E+03  0.7546771E-02  0.1144810E+00
         21   -1    0    0  502  503  0.00000000000E+00  0.00000000000E+00  0.16260757787E+03  0.16260757787E+03  0.00000000000E+00 0.  1.
         21   -1    0    0  503  504 -0.00000000000E+00 -0.00000000000E+00 -0.69923609221E+03  0.69923609221E+03  0.00000000000E+00 0.  1.
         -6    2    1    2    0  504  0.72994608403E+02 -0.88634678766E+02  0.74271051519E+02  0.21693193196E+03  0.16840117243E+03 0.  0.
        -24    2    3    3    0    0  0.11540254149E+02 -0.10328020445E+03  0.79177918058E+02  0.15339220881E+03  0.80374429498E+02 0.  0.
          6    2    1    2  502    0 -0.72994608403E+02  0.88634678766E+02 -0.61089956585E+03  0.64491173812E+03  0.17183873623E+03 0.  0.
         24    2    5    5    0    0 -0.54927149670E+02  0.10799810554E+03 -0.59774689979E+03  0.61497082988E+03  0.78785676512E+02 0.  0.
          2    1    6    6  501    0 -0.64873975673E+02  0.49312068548E+02 -0.27657391547E+03  0.28832870745E+03  0.00000000000E+00 0. -1.
         -1    1    6    6    0  501  0.99468260031E+01  0.58686036997E+02 -0.32117298432E+03  0.32664212243E+03  0.00000000000E+00 0.  1.
          5    1    5    5  502    0 -0.18067458733E+02 -0.19363426779E+02 -0.13152666066E+02  0.29940908242E+02  0.47000000000E+01 0. -1.
         13    1    4    4    0    0 -0.91100220823E+01 -0.88616390533E+02  0.23357416967E+02  0.92094658373E+02  0.00000000000E+00 0. -1.
        -14    1    4    4    0    0  0.20650276232E+02 -0.14663813917E+02  0.55820501090E+02  0.61297550432E+02  0.00000000000E+00 0.  1.
         -5    1    3    3    0  504  0.61454354253E+02  0.14645525685E+02 -0.49068665383E+01  0.63539723154E+02  0.47000000000E+01 0.  1.
<mgrwt>
<rscale>  2 0.20595490E+03</rscale>
<asrwt>0</asrwt>
<pdfrwt beam="1">  1       21 0.25016550E-01 0.20667092E+03</pdfrwt>
<pdfrwt beam="2">  1       21 0.10757478E+00 0.20667092E+03</pdfrwt>
<totfact> 0.10324391E+04</totfact>
</mgrwt>
</event>
<event>
12    1  0.2742799E-001  0.1778025E+03  0.7546771E-02  0.1170876E+00
         21   -1    0    0  502  503  0.00000000000E+00  0.00000000000E+00  0.45879476864E+03  0.45879476864E+03  0.00000000000E+00 0.  1.
         21   -1    0    0  503  504 -0.00000000000E+00 -0.00000000000E+00 -0.10901425073E+03  0.10901425073E+03  0.00000000000E+00 0.  1.
         -6    2    1    2    0  504  0.17768478904E+02 -0.36229549482E+02  0.77506638406E+00  0.17780422546E+03  0.17316305254E+03 0.  0.
        -24    2    3    3    0    0 -0.48890792456E+02 -0.15386700547E+02 -0.42529514567E+02  0.95492260707E+02  0.68432098499E+02 0.  0.
          6    2    1    2  502    0 -0.17768478904E+02  0.36229549482E+02  0.34900545152E+03  0.39000479391E+03  0.16932405316E+03 0.  0.
         24    2    5    5    0    0 -0.23180023953E+02 -0.34490343153E+02  0.26470797221E+03  0.27973810332E+03  0.80350473661E+02 0.  0.
          2    1    6    6  501    0 -0.44378216067E+02 -0.39830496308E+02  0.23731161858E+03  0.24468898383E+03  0.00000000000E+00 0. -1.
         -1    1    6    6    0  501  0.21198192114E+02  0.53401531558E+01  0.27396353634E+02  0.35049119490E+02  0.00000000000E+00 0.  1.
          5    1    5    5  502    0  0.54115450486E+01  0.70719892635E+02  0.84297479313E+02  0.11026669059E+03  0.47000000000E+01 0. -1.
         11    1    4    4    0    0 -0.39818442472E+02  0.14364655622E+02  0.57879005225E+00  0.42334225988E+02  0.00000000000E+00 0. -1.
        -12    1    4    4    0    0 -0.90723499837E+01 -0.29751356169E+02 -0.43108304619E+02  0.53158034720E+02  0.00000000000E+00 0.  1.
         -5    1    3    3    0  504  0.66659271360E+02 -0.20842848935E+02  0.43304580951E+02  0.82311964752E+02  0.47000000000E+01 0.  1.
<mgrwt>
<rscale>  2 0.17686092E+03</rscale>
<asrwt>0</asrwt>
<pdfrwt beam="1">  1       21 0.70583810E-01 0.17780254E+03</pdfrwt>
<pdfrwt beam="2">  1       21 0.16771423E-01 0.17780254E+03</pdfrwt>
<totfact> 0.58584771E+04</totfact>
</mgrwt>
</event>
<event>
12    1  0.2742799E-001  0.1898630E+03  0.7546771E-02  0.1159601E+00
         21   -1    0    0  502  503  0.00000000000E+00  0.00000000000E+00  0.71348418254E+03  0.71348418254E+03  0.00000000000E+00 0.  1.
         21   -1    0    0  503  504 -0.00000000000E+00 -0.00000000000E+00 -0.50175165404E+02  0.50175165404E+02  0.00000000000E+00 0. -1.
         -6    2    1    2    0  504  0.30800421415E+02  0.64836885727E+02  0.38454801290E+03  0.42886493987E+03  0.17577108611E+03 0.  0.
        -24    2    3    3    0    0 -0.66917201013E+01  0.92199316869E+02  0.17340127949E+03  0.21262572894E+03  0.81217016249E+02 0.  0.
          6    2    1    2  502    0 -0.30800421415E+02 -0.64836885727E+02  0.27876100424E+03  0.33479440808E+03  0.17095938257E+03 0.  0.
         24    2    5    5    0    0 -0.28205849236E+02  0.14442536895E+02  0.68747382113E+02  0.11025093760E+03  0.80155535626E+02 0.  0.
          4    1    6    6  501    0 -0.22564892730E+02 -0.31427680338E+02  0.40870704553E+02  0.56278663506E+02  0.00000000000E+00 0. -1.
         -3    1    6    6    0  501 -0.56409565064E+01  0.45870217233E+02  0.27876677560E+02  0.53972274096E+02  0.00000000000E+00 0.  1.
          5    1    5    5  502    0 -0.25945721791E+01 -0.79279422622E+02  0.21001362212E+03  0.22454347048E+03  0.47000000000E+01 0. -1.
         13    1    4    4    0    0  0.14317188586E+02  0.64116214571E+02  0.16346685048E+03  0.17617401075E+03  0.00000000000E+00 0. -1.
        -14    1    4    4    0    0 -0.21008908687E+02  0.28083102297E+02  0.99344290154E+01  0.36451718186E+02  0.00000000000E+00 0.  1.
         -5    1    3    3    0  504  0.37492141517E+02 -0.27362431141E+02  0.21114673341E+03  0.21623921093E+03  0.47000000000E+01 0.  1.
<mgrwt>
<rscale>  2 0.18874170E+03</rscale>
<asrwt>0</asrwt>
<pdfrwt beam="1">  1       21 0.10976679E+00 0.18986301E+03</pdfrwt>
<pdfrwt beam="2">  1       21 0.77192567E-02 0.18986301E+03</pdfrwt>
<totfact> 0.83931115E+04</totfact>
</mgrwt>
</event>
<event>
12    1  0.2742799E-001  0.1884450E+03  0.7546771E-02  0.1160061E+00
         21   -1    0    0  502  503  0.00000000000E+00  0.00000000000E+00  0.53911433210E+03  0.53911433210E+03  0.00000000000E+00 0. -1.
         21   -1    0    0  503  504 -0.00000000000E+00 -0.00000000000E+00 -0.86470176225E+02  0.86470176225E+02  0.00000000000E+00 0. -1.
         -6    2    1    2    0  504  0.18409704550E+02  0.71359311784E+02  0.72201903928E+02  0.20102846591E+03  0.17253480975E+03 0.  0.
        -24    2    3    3    0    0 -0.32917599410E+02  0.68890917128E+02  0.93475170616E+02  0.14521424747E+03  0.80746785283E+02 0.  0.
          6    2    1    2  502    0 -0.18409704550E+02 -0.71359311784E+02  0.38044225195E+03  0.42455604242E+03  0.17343718600E+03 0.  0.
         24    2    5    5    0    0 -0.15939350407E+02  0.28725198533E+02  0.14939665503E+03  0.17270852961E+03  0.80185258881E+02 0.  0.
          4    1    6    6  501    0 -0.41128063687E+01  0.20046134374E+02  0.15548495878E+03  0.15682581129E+03  0.00000000000E+00 0. -1.
         -3    1    6    6    0  501 -0.11826544039E+02  0.86790641592E+01 -0.60883037489E+01  0.15882718316E+02  0.00000000000E+00 0.  1.
          5    1    5    5  502    0 -0.24703541430E+01 -0.10008451032E+03  0.23104559692E+03  0.25184751281E+03  0.47000000000E+01 0. -1.
         11    1    4    4    0    0  0.11697059424E+02  0.21114199741E+02 -0.71909582391E+01  0.25186117411E+02  0.00000000000E+00 0. -1.
        -12    1    4    4    0    0 -0.44614658834E+02  0.47776717388E+02  0.10066612886E+03  0.12002813006E+03  0.00000000000E+00 0.  1.
         -5    1    3    3    0  504  0.51327303960E+02  0.24683946560E+01 -0.21273266688E+02  0.55814218436E+02  0.47000000000E+01 0.  1.
<mgrwt>
<rscale>  2 0.18823713E+03</rscale>
<asrwt>0</asrwt>
<pdfrwt beam="1">  1       21 0.82940664E-01 0.18844502E+03</pdfrwt>
<pdfrwt beam="2">  1       21 0.13303104E-01 0.18844502E+03</pdfrwt>
<totfact> 0.61912925E+04</totfact>
</mgrwt>
</event>
<event>
12    1  0.2742799E-001  0.1894567E+03  0.7546771E-02  0.1159120E+00
         21   -1    0    0  502  503  0.00000000000E+00  0.00000000000E+00  0.63173662114E+03  0.63173662114E+03  0.00000000000E+00 0.  1.
         21   -1    0    0  503  504 -0.00000000000E+00 -0.00000000000E+00 -0.13876231604E+03  0.13876231604E+03  0.00000000000E+00 0.  1.
         -6    2    1    2    0  504 -0.16815562569E+02  0.73539808264E+02 -0.50159977486E+02  0.19526967657E+03  0.17298368912E+03 0.  0.
        -24    2    3    3    0    0 -0.47257050075E+02  0.16539765911E+02 -0.80076501562E+02  0.12390597849E+03  0.80210054021E+02 0.  0.
          6    2    1    2  502    0  0.16815562569E+02 -0.73539808264E+02  0.54313428259E+03  0.57522926061E+03  0.17379006532E+03 0.  0.
         24    2    5    5    0    0 -0.37297611541E+02 -0.40967095139E+01  0.37724828633E+03  0.38737071455E+03  0.79573275006E+02 0.  0.
          2    1    6    6  501    0  0.12851877693E+02  0.15577520112E+02  0.22440242056E+03  0.22530929019E+03  0.00000000000E+00 0. -1.
         -1    1    6    6    0  501 -0.50149489234E+02 -0.19674229626E+02  0.15284586577E+03  0.16206142436E+03  0.00000000000E+00 0.  1.
          5    1    5    5  502    0  0.54113174110E+02 -0.69443098750E+02  0.16588599626E+03  0.18785854607E+03  0.47000000000E+01 0. -1.
         13    1    4    4    0    0 -0.26480604367E+02  0.48847596264E+02 -0.53986871881E+02  0.77471881376E+02  0.00000000000E+00 0. -1.
        -14    1    4    4    0    0 -0.20776445707E+02 -0.32307830353E+02 -0.26089629682E+02  0.46434097119E+02  0.00000000000E+00 0.  1.
         -5    1    3    3    0  504  0.30441487505E+02  0.57000042352E+02  0.29916524076E+02  0.71363698072E+02  0.47000000000E+01 0.  1.
<mgrwt>
<rscale>  2 0.18927161E+03</rscale>
<asrwt>0</asrwt>
<pdfrwt beam="1">  1       21 0.97190248E-01 0.18945673E+03</pdfrwt>
<pdfrwt beam="2">  1       21 0.21348049E-01 0.18945673E+03</pdfrwt>
<totfact> 0.17973523E+04</totfact>
</mgrwt>
</event>
<event>
12    1  0.2742799E-001  0.1873889E+03  0.7546771E-02  0.1160852E+00
         21   -1    0    0  502  503  0.00000000000E+00  0.00000000000E+00  0.17613808764E+03  0.17613808764E+03  0.00000000000E+00 0. -1.
         21   -1    0    0  503  504 -0.00000000000E+00 -0.00000000000E+00 -0.79221450018E+03  0.79221450018E+03  0.00000000000E+00 0. -1.
         -6    2    1    2    0  504  0.70368590139E+02  0.13609590687E+02 -0.72692273010E+03  0.75068718322E+03  0.17314049808E+03 0.  0.
        -24    2    3    3    0    0  0.74004868277E+02  0.13777639844E+02 -0.73354083614E+03  0.74179111179E+03  0.80655758384E+02 0.  0.
          6    2    1    2  502    0 -0.70368590139E+02 -0.13609590687E+02  0.11084631756E+03  0.21766540460E+03  0.17307328738E+03 0.  0.
         24    2    5    5    0    0  0.24449094167E+02  0.18477913832E+02  0.37759985155E+02  0.93634347246E+02  0.80014892365E+02 0.  0.
          2    1    6    6  501    0  0.53628576829E+02  0.81821983310E+01  0.19168849749E+02  0.57536227048E+02  0.00000000000E+00 0. -1.
         -1    1    6    6    0  501 -0.29179482663E+02  0.10295715501E+02  0.18591135406E+02  0.36098120198E+02  0.00000000000E+00 0.  1.
          5    1    5    5  502    0 -0.94817684306E+02 -0.32087504520E+02  0.73086332402E+02  0.12403105735E+03  0.47000000000E+01 0. -1.
         13    1    4    4    0    0  0.49132686518E+02  0.32715735058E+02 -0.64859488808E+03  0.65127541720E+03  0.00000000000E+00 0. -1.
        -14    1    4    4    0    0  0.24872181759E+02 -0.18938095214E+02 -0.84945948060E+02  0.90515694593E+02  0.00000000000E+00 0.  1.
         -5    1    3    3    0  504 -0.36362781379E+01 -0.16804915654E+00  0.66181060416E+01  0.88960714247E+01  0.47000000000E+01 0.  1.
<mgrwt>
<rscale>  2 0.18737335E+03</rscale>
<asrwt>0</asrwt>
<pdfrwt beam="1">  1       21 0.27098167E-01 0.18738888E+03</pdfrwt>
<pdfrwt beam="2">  1       21 0.12187916E+00 0.18738888E+03</pdfrwt>
<totfact> 0.66213187E+03</totfact>
</mgrwt>
</event>
<event>
12    1  0.2742799E-001  0.1826685E+03  0.7546771E-02  0.1165447E+00
         21   -1    0    0  502  503  0.00000000000E+00  0.00000000000E+00  0.39174249597E+03  0.39174249597E+03  0.00000000000E+00 0.  1.
         21   -1    0    0  503  504 -0.00000000000E+00 -0.00000000000E+00 -0.35234411819E+03  0.35234411819E+03  0.00000000000E+00 0.  1.
         -6    2    1    2    0  504  0.56273378021E+02 -0.86952742984E+00 -0.30449626246E+03  0.35508554569E+03  0.17378239772E+03 0.  0.
        -24    2    3    3    0    0 -0.11110308714E+01  0.54365683268E+02 -0.21474028207E+03  0.23499339399E+03  0.78432420399E+02 0.  0.
          6    2    1    2  502    0 -0.56273378021E+02  0.86952742984E+00  0.34389464024E+03  0.38900106847E+03  0.17288972940E+03 0.  0.
         24    2    5    5    0    0 -0.96055247227E+02 -0.32363991123E+02  0.24026172524E+03  0.27303152529E+03  0.80910312986E+02 0.  0.
          4    1    6    6  501    0 -0.44265429563E+02  0.25245281314E+02  0.11446895276E+03  0.12529921640E+03  0.00000000000E+00 0. -1.
         -3    1    6    6    0  501 -0.51789817664E+02 -0.57609272437E+02  0.12579277247E+03  0.14773230889E+03  0.00000000000E+00 0.  1.
          5    1    5    5  502    0  0.39781869206E+02  0.33233518553E+02  0.10363291500E+03  0.11596954318E+03  0.47000000000E+01 0. -1.
         11    1    4    4    0    0  0.20358939093E+01  0.41819433350E+02 -0.34395731170E+02  0.54185571811E+02  0.00000000000E+00 0. -1.
        -12    1    4    4    0    0 -0.31469247807E+01  0.12546249918E+02 -0.18034455090E+03  0.18080782218E+03  0.00000000000E+00 0.  1.
         -5    1    3    3    0  504  0.57384408893E+02 -0.55235210698E+02 -0.89755980386E+02  0.12009215170E+03  0.47000000000E+01 0.  1.
<mgrwt>
<rscale>  2 0.18245584E+03</rscale>
<asrwt>0</asrwt>
<pdfrwt beam="1">  1       21 0.60268076E-01 0.18266847E+03</pdfrwt>
<pdfrwt beam="2">  1       21 0.54206788E-01 0.18266847E+03</pdfrwt>
<totfact> 0.83141756E+03</totfact>
</mgrwt>
</event>
<event>
12    1  0.2742799E-001  0.1771463E+03  0.7546771E-02  0.1170644E+00
         21   -1    0    0  502  503  0.00000000000E+00  0.00000000000E+00  0.50072118496E+03  0.50072118496E+03  0.00000000000E+00 0. -1.
         21   -1    0    0  503  504 -0.00000000000E+00 -0.00000000000E+00 -0.17621330798E+03  0.17621330798E+03  0.00000000000E+00 0. -1.
         -6    2    1    2    0  504 -0.40125940990E+01  0.37559913193E+02 -0.10955573019E+03  0.20811467254E+03  0.17286529703E+03 0.  0.
        -24    2    3    3    0    0 -0.58438792041E+02 -0.14692090595E+02 -0.86287399304E+02  0.12901986775E+03  0.74630161829E+02 0.  0.
          6    2    1    2  502    0  0.40125940990E+01 -0.37559913193E+02  0.43406360717E+03  0.46881982041E+03  0.17307212644E+03 0.  0.
         24    2    5    5    0    0 -0.23023005506E+02 -0.86893209180E+02  0.30527309502E+03  0.32820053383E+03  0.80271036358E+02 0.  0.
          4    1    6    6  501    0 -0.30134271813E+02 -0.96131280545E+02  0.29773557635E+03  0.31431794550E+03  0.00000000000E+00 0. -1.
         -3    1    6    6    0  501  0.71112663071E+01  0.92380713651E+01  0.75375186663E+01  0.13882588328E+02  0.00000000000E+00 0.  1.
          5    1    5    5  502    0  0.27035599605E+02  0.49333295987E+02  0.12879051215E+03  0.14061928658E+03  0.47000000000E+01 0. -1.
         11    1    4    4    0    0 -0.21841263426E+02  0.21960094191E+02 -0.32360852123E+01  0.31140950089E+02  0.00000000000E+00 0. -1.
        -12    1    4    4    0    0 -0.36597528614E+02 -0.36652184787E+02 -0.83051314091E+02  0.97878917662E+02  0.00000000000E+00 0.  1.
         -5    1    3    3    0  504  0.54426197942E+02  0.52252003788E+02 -0.23268330885E+02  0.79094804788E+02  0.47000000000E+01 0.  1.
<mgrwt>
<rscale>  2 0.17709575E+03</rscale>
<asrwt>0</asrwt>
<pdfrwt beam="1">  1       21 0.77034028E-01 0.17714629E+03</pdfrwt>
<pdfrwt beam="2">  1       21 0.27109740E-01 0.17714629E+03</pdfrwt>
<totfact> 0.19603569E+04</totfact>
</mgrwt>
</event>
<event>
12    1  0.2742799E-001  0.2136900E+03  0.7546771E-02  0.1138827E+00
         21   -1    0    0  502  503  0.00000000000E+00  0.00000000000E+00  0.10032025612E+03  0.10032025612E+03  0.00000000000E+00 0. -1.
         21   -1    0    0  503  504 -0.00000000000E+00 -0.00000000000E+00 -0.88162823405E+03  0.88162823405E+03  0.00000000000E+00 0.  1.
         -6    2    1    2    0  504 -0.11421335378E+03 -0.50218039349E+02 -0.73314555263E+03  0.76365294306E+03  0.17348450780E+03 0.  0.
        -24    2    3    3    0    0 -0.69932817448E+02 -0.12710237660E+02 -0.19887669623E+03  0.22622117808E+03  0.81067453479E+02 0.  0.
          6    2    1    2  502    0  0.11421335378E+03  0.50218039349E+02 -0.48162425301E+02  0.21829554711E+03  0.17253053359E+03 0.  0.
         24    2    5    5    0    0  0.60391378086E+02  0.89134879602E+02 -0.65529517442E+02  0.14948398258E+03  0.80369136389E+02 0.  0.
          2    1    6    6  501    0  0.78971822300E+02  0.83481058077E+02 -0.56907917768E+02  0.12823473352E+03  0.00000000000E+00 0. -1.
         -1    1    6    6    0  501 -0.18580444214E+02  0.56538215257E+01 -0.86215996741E+01  0.21249249068E+02  0.00000000000E+00 0.  1.
          5    1    5    5  502    0  0.53821975698E+02 -0.38916840254E+02  0.17367092142E+02  0.68811564528E+02  0.47000000000E+01 0. -1.
         11    1    4    4    0    0 -0.19438254888E+02 -0.38803875521E+02 -0.46587207143E+02  0.63670671254E+02  0.00000000000E+00 0. -1.
        -12    1    4    4    0    0 -0.50494562560E+02  0.26093637861E+02 -0.15228948908E+03  0.16255050683E+03  0.00000000000E+00 0.  1.
         -5    1    3    3    0  504 -0.44280536336E+02 -0.37507801689E+02 -0.53426885640E+03  0.53743176498E+03  0.47000000000E+01 0.  1.
<mgrwt>
<rscale>  2 0.21349630E+03</rscale>
<asrwt>0</asrwt>
<pdfrwt beam="1">  1       21 0.15433886E-01 0.21369000E+03</pdfrwt>
<pdfrwt beam="2">  1       21 0.13563511E+00 0.21369000E+03</pdfrwt>
<totfact> 0.14250069E+04</totfact>
</mgrwt>
</event>
<event>
12    1  0.2742799E-001  0.1934384E+03  0.7546771E-02  0.1155798E+00
         21   -1    0    0  502  503  0.00000000000E+00  0.00000000000E+00  0.45397829448E+02  0.45397829448E+02  0.00000000000E+00 0.  1.
         21   -1    0    0  503  504 -0.00000000000E+00 -0.00000000000E+00 -0.11766715383E+04  0.11766715383E+04  0.00000000000E+00 0.  1.
         -6    2    1    2    0  504 -0.21565796227E+02 -0.79905312305E+02 -0.90183698882E+03  0.92197004083E+03  0.17282609548E+03 0.  0.
        -24    2    3    3    0    0 -0.25724154576E+02 -0.67155468398E+02 -0.90107158362E+03  0.90773886699E+03  0.82995558760E+02 0.  0.
          6    2    1    2  502    0  0.21565796227E+02  0.79905312305E+02 -0.22943672002E+03  0.30009932691E+03  0.17483836826E+03 0.  0.
         24    2    5    5    0    0  0.31177317629E+01  0.82762318881E+02 -0.59808462646E+02  0.12938222387E+03  0.79393866086E+02 0.  0.
          4    1    6    6  501    0 -0.19055408270E+01  0.16261223205E+02  0.19694758946E+02  0.25611364585E+02  0.00000000000E+00 0. -1.
         -3    1    6    6    0  501  0.50232725899E+01  0.66501095676E+02 -0.79503221592E+02  0.10377085929E+03  0.00000000000E+00 0.  1.
          5    1    5    5  502    0  0.18448064465E+02 -0.28570065766E+01 -0.16962825738E+03  0.17071710304E+03  0.47000000000E+01 0. -1.
         13    1    4    4    0    0  0.25656432546E+02 -0.10905804490E+02 -0.13252093895E+03  0.13542152105E+03  0.00000000000E+00 0. -1.
        -14    1    4    4    0    0 -0.51380587122E+02 -0.56249663908E+02 -0.76855064466E+03  0.77231734594E+03  0.00000000000E+00 0.  1.
         -5    1    3    3    0  504  0.41583583486E+01 -0.12749843907E+02 -0.76540520592E+00  0.14231173843E+02  0.47000000000E+01 0.  1.
<mgrwt>
<rscale>  2 0.19298253E+03</rscale>
<asrwt>0</asrwt>
<pdfrwt beam="1">  1       21 0.69842806E-02 0.19343836E+03</pdfrwt>
<pdfrwt beam="2">  1       21 0.18102641E+00 0.19343836E+03</pdfrwt>
<totfact> 0.27177627E+04</totfact>
</mgrwt>
</event>
<event>
12    1  0.2742799E-001  0.2537592E+03  0.7546771E-02  0.1113180E+00
         21   -1    0    0  502  503  0.00000000000E+00  0.00000000000E+00  0.24687418579E+03  0.24687418579E+03  0.00000000000E+00 0. -1.
         21   -1    0    0  503  504 -0.00000000000E+00 -0.00000000000E+00 -0.13011250302E+04  0.13011250302E+04  0.00000000000E+00 0. -1.
         -6    2    1    2    0  504 -0.41732634691E+02 -0.18079199991E+03 -0.12210194438E+04  0.12443456424E+04  0.15192180718E+03 0.  0.
        -24    2    3    3    0    0  0.22707327237E+02 -0.85193244531E+02 -0.41077184037E+03  0.42592344106E+03  0.70026860401E+02 0.  0.
          6    2    1    2  502    0  0.41732634691E+02  0.18079199991E+03  0.16676859945E+03  0.30365357358E+03  0.17310796329E+03 0.  0.
         24    2    5    5    0    0  0.12077833672E+02  0.25416944571E+02  0.10118642435E+03  0.13235288258E+03  0.80540039218E+02 0.  0.
          2    1    6    6  501    0  0.37049778219E+02  0.27672917579E+02  0.96271529613E+02  0.10680207792E+03  0.00000000000E+00 0. -1.
         -1    1    6    6    0  501 -0.24971944547E+02 -0.22559730079E+01  0.49148947365E+01  0.25550804663E+02  0.00000000000E+00 0.  1.
          5    1    5    5  502    0  0.29654801019E+02  0.15537505534E+03  0.65582175098E+02  0.17130069100E+03  0.47000000000E+01 0. -1.
         13    1    4    4    0    0  0.25204150049E+02 -0.14366409788E+02 -0.22889993849E+03  0.23073106585E+03  0.00000000000E+00 0. -1.
        -14    1    4    4    0    0 -0.24968228120E+01 -0.70826834743E+02 -0.18187190188E+03  0.19519237520E+03  0.00000000000E+00 0.  1.
         -5    1    3    3    0  504 -0.64439961927E+02 -0.95598755379E+02 -0.81024760344E+03  0.81842220131E+03  0.47000000000E+01 0.  1.
<mgrwt>
<rscale>  2 0.25019694E+03</rscale>
<asrwt>0</asrwt>
<pdfrwt beam="1">  1       21 0.37980644E-01 0.25375919E+03</pdfrwt>
<pdfrwt beam="2">  1       21 0.20017308E+00 0.25375919E+03</pdfrwt>
<totfact> 0.84171300E+02</totfact>
</mgrwt>
</event>
<event>
12    1  0.2742799E-001  0.2163512E+03  0.7546771E-02  0.1136723E+00
         21   -1    0    0  502  503  0.00000000000E+00  0.00000000000E+00  0.24038026563E+02  0.24038026563E+02  0.00000000000E+00 0. -1.
         21   -1    0    0  503  504 -0.00000000000E+00 -0.00000000000E+00 -0.33941238930E+04  0.33941238930E+04  0.00000000000E+00 0. -1.
         -6    2    1    2    0  504  0.11995632961E+03  0.46918456433E+02 -0.28036103940E+04  0.28119457856E+04  0.17383036998E+03 0.  0.
        -24    2    3    3    0    0  0.10629871889E+03  0.89387107206E+02 -0.17174137281E+04  0.17248232518E+04  0.78840749966E+02 0.  0.
          6    2    1    2  502    0 -0.11995632961E+03 -0.46918456433E+02 -0.56647547248E+03  0.60621613395E+03  0.17324167391E+03 0.  0.
         24    2    5    5    0    0 -0.10328729875E+03 -0.63161043030E+02 -0.56384211653E+03  0.58232674776E+03  0.80801765720E+02 0.  0.
          2    1    6    6  501    0 -0.84173264205E+02 -0.82472869075E+02 -0.43725488434E+03  0.45285620943E+03  0.00000000000E+00 0. -1.
         -1    1    6    6    0  501 -0.19114034547E+02  0.19311826045E+02 -0.12658723218E+03  0.12947053832E+03  0.00000000000E+00 0.  1.
          5    1    5    5  502    0 -0.16669030860E+02  0.16242586597E+02 -0.26333559483E+01  0.23889386194E+02  0.47000000000E+01 0. -1.
         11    1    4    4    0    0  0.10330956161E+03  0.42732599738E+02 -0.11113761476E+04  0.11169851754E+04  0.00000000000E+00 0. -1.
        -12    1    4    4    0    0  0.29891572809E+01  0.46654507469E+02 -0.60603758047E+03  0.60783807636E+03  0.00000000000E+00 0.  1.
         -5    1    3    3    0  504  0.13657610718E+02 -0.42468650773E+02 -0.10861966659E+04  0.10871225339E+04  0.47000000000E+01 0.  1.
<mgrwt>
<rscale>  2 0.21623297E+03</rscale>
<asrwt>0</asrwt>
<pdfrwt beam="1">  1       21 0.36981582E-02 0.21635124E+03</pdfrwt>
<pdfrwt beam="2">  1       21 0.52217286E+00 0.21635124E+03</pdfrwt>
<totfact> 0.56630369E+02</totfact>
</mgrwt>
</event>
<event>
12    1  0.2742799E-001  0.2119677E+03  0.7546771E-02  0.1140653E+00
         21   -1    0    0  502  503  0.00000000000E+00  0.00000000000E+00  0.31338242100E+03  0.31338242100E+03  0.00000000000E+00 0. -1.
         21   -1    0    0  503  504 -0.00000000000E+00 -0.00000000000E+00 -0.14904723587E+03  0.14904723587E+03  0.00000000000E+00 0.  1.
         -6    2    1    2    0  504  0.78804506835E+02  0.87121981347E+02  0.29708745102E+02  0.21403953471E+03  0.17643673923E+03 0.  0.
        -24    2    3    3    0    0  0.42084834526E+02  0.76021051020E+02  0.88315257744E+02  0.14383712512E+03  0.73069831779E+02 0.  0.
          6    2    1    2  502    0 -0.78804506835E+02 -0.87121981347E+02  0.13462644003E+03  0.24839012217E+03  0.17254849899E+03 0.  0.
         24    2    5    5    0    0 -0.45665657978E+01  0.12537794799E+02  0.37646186463E+02  0.90685960993E+02  0.81416572910E+02 0.  0.
          4    1    6    6  501    0 -0.23307408663E+02  0.56985267413E+01  0.57644260011E+02  0.62438523508E+02  0.00000000000E+00 0. -1.
         -3    1    6    6    0  501  0.18740842865E+02  0.68392680574E+01 -0.19998073548E+02  0.28247437485E+02  0.00000000000E+00 0.  1.
          5    1    5    5  502    0 -0.74237941037E+02 -0.99659776146E+02  0.96980253563E+02  0.15770416118E+03  0.47000000000E+01 0. -1.
         13    1    4    4    0    0 -0.64098366340E+01  0.56130914144E+02  0.65976955454E+02  0.86860371742E+02  0.00000000000E+00 0. -1.
        -14    1    4    4    0    0  0.48494671160E+02  0.19890136876E+02  0.22338302290E+02  0.56976753374E+02  0.00000000000E+00 0.  1.
         -5    1    3    3    0  504  0.36719672309E+02  0.11100930328E+02 -0.58606512641E+02  0.70202409593E+02  0.47000000000E+01 0.  1.
<mgrwt>
<rscale>  2 0.21115674E+03</rscale>
<asrwt>0</asrwt>
<pdfrwt beam="1">  1       21 0.48212680E-01 0.21196772E+03</pdfrwt>
<pdfrwt beam="2">  1       21 0.22930344E-01 0.21196772E+03</pdfrwt>
<totfact> 0.72749790E+04</totfact>
</mgrwt>
</event>
<event>
12    1  0.2742799E-001  0.2008159E+03  0.7546771E-02  0.1149251E+00
         21   -1    0    0  502  503  0.00000000000E+00  0.00000000000E+00  0.60714726997E+02  0.60714726997E+02  0.00000000000E+00 0.  1.
         21   -1    0    0  503  504 -0.00000000000E+00 -0.00000000000E+00 -0.67038362984E+03  0.67038362984E+03  0.00000000000E+00 0.  1.
         -6    2    1    2    0  504 -0.56590739651E+02  0.84675452245E+02 -0.34717422283E+03  0.40059799133E+03  0.17197780564E+03 0.  0.
        -24    2    3    3    0    0 -0.70169280517E+02 -0.25985396682E+01 -0.23262599678E+03  0.25587580047E+03  0.80169137152E+02 0.  0.
          6    2    1    2  502    0  0.56590739651E+02 -0.84675452245E+02 -0.26249468001E+03  0.33050036550E+03  0.17307394529E+03 0.  0.
         24    2    5    5    0    0  0.43393212825E+02  0.21389635757E+02 -0.10046096248E+03  0.13633292945E+03  0.78446002020E+02 0.  0.
          4    1    6    6  501    0  0.54315401902E+02  0.26194995216E+02 -0.10692868246E+03  0.12276026959E+03  0.00000000000E+00 0. -1.
         -3    1    6    6    0  501 -0.10922189077E+02 -0.48053594590E+01  0.64677199817E+01  0.13572659855E+02  0.00000000000E+00 0.  1.
          5    1    5    5  502    0  0.13197526826E+02 -0.10606508800E+03 -0.16203371753E+03  0.19416743605E+03  0.47000000000E+01 0. -1.
         11    1    4    4    0    0  0.91043022282E+01 -0.22893391323E+02 -0.49175888750E+02  0.55002397399E+02  0.00000000000E+00 0. -1.
        -12    1    4    4    0    0 -0.79273582745E+02  0.20294851655E+02 -0.18345010803E+03  0.20087340307E+03  0.00000000000E+00 0.  1.
         -5    1    3    3    0  504  0.13578540866E+02  0.87273991913E+02 -0.11454822605E+03  0.14472219086E+03  0.47000000000E+01 0.  1.
<mgrwt>
<rscale>  2 0.20057952E+03</rscale>
<asrwt>0</asrwt>
<pdfrwt beam="1">  1       21 0.93407269E-02 0.20081592E+03</pdfrwt>
<pdfrwt beam="2">  1       21 0.10313595E+00 0.20081592E+03</pdfrwt>
<totfact> 0.69519791E+04</totfact>
</mgrwt>
</event>
<event>
12    1  0.2742799E-001  0.2454050E+03  0.7546771E-02  0.1116964E+00
         21   -1    0    0  502  503  0.00000000000E+00  0.00000000000E+00  0.79288657389E+03  0.79288657389E+03  0.00000000000E+00 0.  1.
         21   -1    0    0  503  504 -0.00000000000E+00 -0.00000000000E+00 -0.14904394633E+03  0.14904394633E+03  0.00000000000E+00 0. -1.
         -6    2    1    2    0  504 -0.11530499503E+03 -0.13066273178E+03 -0.12391246172E+02  0.24131185167E+03  0.16646283495E+03 0.  0.
        -24    2    3    3    0    0 -0.69004280103E+02 -0.61571799102E+01 -0.13166568559E+01  0.10793222363E+03  0.82753427570E+02 0.  0.
          6    2    1    2  502    0  0.11530499503E+03  0.13066273178E+03  0.65623387373E+03  0.70061866856E+03  0.17278781885E+03 0.  0.
         24    2    5    5    0    0  0.13221953804E+03  0.76920641684E+02  0.36878650297E+03  0.40766407315E+03  0.82387622898E+02 0.  0.
          4    1    6    6  501    0  0.89282127173E+02  0.11951913879E+02  0.14486462354E+03  0.17058694449E+03  0.00000000000E+00 0. -1.
         -3    1    6    6    0  501  0.42937410871E+02  0.64968727805E+02  0.22392187943E+03  0.23707712866E+03  0.00000000000E+00 0.  1.
          5    1    5    5  502    0 -0.16914543010E+02  0.53742090092E+02  0.28744737076E+03  0.29295459541E+03  0.47000000000E+01 0. -1.
         13    1    4    4    0    0  0.14299197594E+02 -0.17835280874E+02 -0.61592363515E+01  0.23674891513E+02  0.00000000000E+00 0. -1.
        -14    1    4    4    0    0 -0.83303477698E+02  0.11678100964E+02  0.48425794956E+01  0.84257332113E+02  0.00000000000E+00 0.  1.
         -5    1    3    3    0  504 -0.46300714931E+02 -0.12450555187E+03 -0.11074589316E+02  0.13337962804E+03  0.47000000000E+01 0.  1.
<mgrwt>
<rscale>  2 0.24429462E+03</rscale>
<asrwt>0</asrwt>
<pdfrwt beam="1">  1       21 0.12198255E+00 0.24540502E+03</pdfrwt>
<pdfrwt beam="2">  1       21 0.22929838E-01 0.24540502E+03</pdfrwt>
<totfact> 0.87342212E+03</totfact>
</mgrwt>
</event>
<event>
12    1  0.2742799E-001  0.2623240E+03  0.7546771E-02  0.1106035E+00
         21   -1    0    0  502  503  0.00000000000E+00  0.00000000000E+00  0.14662609680E+04  0.14662609680E+04  0.00000000000E+00 0. -1.
         21   -1    0    0  503  504 -0.00000000000E+00 -0.00000000000E+00 -0.19654449524E+03  0.19654449524E+03  0.00000000000E+00 0. -1.
         -6    2    1    2    0  504 -0.81250247904E+02 -0.17973206268E+03 -0.91874897683E+02  0.27617467328E+03  0.17007714778E+03 0.  0.
        -24    2    3    3    0    0 -0.85313802212E+02 -0.85388400678E+02 -0.94517425183E+00  0.14499714610E+03  0.80334645105E+02 0.  0.
          6    2    1    2  502    0  0.81250247904E+02  0.17973206268E+03  0.13615913704E+04  0.13866307899E+04  0.17294123408E+03 0.  0.
         24    2    5    5    0    0  0.10559367612E+03  0.15500479980E+03  0.85529306714E+03  0.87912305410E+03  0.78451266092E+02 0.  0.
          4    1    6    6  501    0  0.77360280252E+02  0.56810471250E+02  0.51319991727E+03  0.52209788133E+03  0.00000000000E+00 0. -1.
         -3    1    6    6    0  501  0.28233395869E+02  0.98194328549E+02  0.34209314987E+03  0.35702517277E+03  0.00000000000E+00 0.  1.
          5    1    5    5  502    0 -0.24343428216E+02  0.24727262882E+02  0.50629830329E+03  0.50750773585E+03  0.47000000000E+01 0. -1.
         13    1    4    4    0    0 -0.22972168265E+02 -0.56929726112E+02 -0.32600640382E+02  0.69509107197E+02  0.00000000000E+00 0. -1.
        -14    1    4    4    0    0 -0.62341633947E+02 -0.28458674566E+02  0.31655466131E+02  0.75488038901E+02  0.00000000000E+00 0.  1.
         -5    1    3    3    0  504  0.40635543080E+01 -0.94343662003E+02 -0.90929723431E+02  0.13117752718E+03  0.47000000000E+01 0.  1.
<mgrwt>
<rscale>  2 0.26185292E+03</rscale>
<asrwt>0</asrwt>
<pdfrwt beam="1">  1       21 0.22557860E+00 0.26232401E+03</pdfrwt>
<pdfrwt beam="2">  1       21 0.30237616E-01 0.26232401E+03</pdfrwt>
<totfact> 0.90866814E+02</totfact>
</mgrwt>
</event>
<event>
12    1  0.2742799E-001  0.1871653E+03  0.7546771E-02  0.1161412E+00
         21   -1    0    0  502  503  0.00000000000E+00  0.00000000000E+00  0.84879934730E+03  0.84879934730E+03  0.00000000000E+00 0.  1.
         21   -1    0    0  503  504 -0.00000000000E+00 -0.00000000000E+00 -0.12515239159E+03  0.12515239159E+03  0.00000000000E+00 0.  1.
         -6    2    1    2    0  504  0.35588724792E+02 -0.62991465977E+02 -0.37179395993E+02  0.19082235453E+03  0.17261628366E+03 0.  0.
        -24    2    3    3    0    0 -0.84397520596E+01  0.30026878041E+02 -0.12773147597E+02  0.84951328948E+02  0.77979049563E+02 0.  0.
          6    2    1    2  502    0 -0.35588724792E+02  0.62991465977E+02  0.76082635170E+03  0.78312938436E+03  0.17088128362E+03 0.  0.
         24    2    5    5    0    0 -0.16891680967E+02  0.79330394599E+01  0.17187258990E+03  0.19129356818E+03  0.81882721415E+02 0.  0.
          2    1    6    6  501    0 -0.51494280406E+01  0.12132708869E+02 -0.49148692478E+01  0.14066811059E+02  0.00000000000E+00 0. -1.
         -1    1    6    6    0  501 -0.11742252927E+02 -0.41996694095E+01  0.17678745914E+03  0.17722675712E+03  0.00000000000E+00 0.  1.
          5    1    5    5  502    0 -0.18697043824E+02  0.55058426517E+02  0.58895376180E+03  0.59183581618E+03  0.47000000000E+01 0. -1.
         13    1    4    4    0    0 -0.26148085189E+02  0.88223300838E+01  0.25617443922E+02  0.37653808575E+02  0.00000000000E+00 0. -1.
        -14    1    4    4    0    0  0.17708333129E+02  0.21204547957E+02 -0.38390591518E+02  0.47297520373E+02  0.00000000000E+00 0.  1.
         -5    1    3    3    0  504  0.44028476851E+02 -0.93018344018E+02 -0.24406248396E+02  0.10587102558E+03  0.47000000000E+01 0.  1.
<mgrwt>
<rscale>  2 0.18676432E+03</rscale>
<asrwt>0</asrwt>
<pdfrwt beam="1">  1       21 0.13058451E+00 0.18716534E+03</pdfrwt>
<pdfrwt beam="2">  1       21 0.19254215E-01 0.18716534E+03</pdfrwt>
<totfact> 0.10632046E+04</totfact>
</mgrwt>
</event>
<event>
12    1  0.2742799E-001  0.1776425E+03  0.7546771E-02  0.1170582E+00
         21   -1    0    0  502  503  0.00000000000E+00  0.00000000000E+00  0.91327383558E+02  0.91327383558E+02  0.00000000000E+00 0. -1.
         21   -1    0    0  503  504 -0.00000000000E+00 -0.00000000000E+00 -0.44541288767E+03  0.44541288767E+03  0.00000000000E+00 0. -1.
         -6    2    1    2    0  504  0.12495647927E+02 -0.37061885101E+02 -0.30722159225E+03  0.35488303675E+03  0.17328340511E+03 0.  0.
        -24    2    3    3    0    0 -0.19386344635E+02  0.12445062855E+01 -0.29207823911E+03  0.30258339799E+03  0.76613548550E+02 0.  0.
          6    2    1    2  502    0 -0.12495647927E+02  0.37061885101E+02 -0.46863911864E+02  0.18185723447E+03  0.17130704291E+03 0.  0.
         24    2    5    5    0    0  0.11575876036E+01  0.60651980256E+02 -0.86630726057E+02  0.13341765416E+03  0.81335017223E+02 0.  0.
          4    1    6    6  501    0 -0.32500115798E+02  0.24841087617E+02 -0.70831697508E+02  0.81795272068E+02  0.00000000000E+00 0. -1.
         -3    1    6    6    0  501  0.33657703401E+02  0.35810892639E+02 -0.15799028549E+02  0.51622382093E+02  0.00000000000E+00 0.  1.
          5    1    5    5  502    0 -0.13653235530E+02 -0.23590095155E+02  0.39766814193E+02  0.48439580314E+02  0.47000000000E+01 0. -1.
         11    1    4    4    0    0 -0.46307905651E+02  0.76815832818E+01 -0.13127334884E+03  0.13941348917E+03  0.00000000000E+00 0. -1.
        -12    1    4    4    0    0  0.26921561016E+02 -0.64370769963E+01 -0.16080489027E+03  0.16316990881E+03  0.00000000000E+00 0.  1.
         -5    1    3    3    0  504  0.31881992562E+02 -0.38306391386E+02 -0.15143353138E+02  0.52299638766E+02  0.47000000000E+01 0.  1.
<mgrwt>
<rscale>  2 0.17715871E+03</rscale>
<asrwt>0</asrwt>
<pdfrwt beam="1">  1       21 0.14050367E-01 0.17764251E+03</pdfrwt>
<pdfrwt beam="2">  1       21 0.68525060E-01 0.17764251E+03</pdfrwt>
<totfact> 0.86308292E+04</totfact>
</mgrwt>
</event>
<event>
12    1  0.2742799E-001  0.3090091E+03  0.7546771E-02  0.1080854E+00
         21   -1    0    0  502  503  0.00000000000E+00  0.00000000000E+00  0.61594745540E+02  0.61594745540E+02  0.00000000000E+00 0.  1.
         21   -1    0    0  503  504 -0.00000000000E+00 -0.00000000000E+00 -0.16569875599E+04  0.16569875599E+04  0.00000000000E+00 0. -1.
         -6    2    1    2    0  504 -0.18892896892E+03 -0.17425204346E+03 -0.57855920835E+03  0.65590958958E+03  0.17154795887E+03 0.  0.
        -24    2    3    3    0    0 -0.56510891659E+02 -0.15237957521E+02 -0.16455742925E+03  0.19304936251E+03  0.82238875336E+02 0.  0.
          6    2    1    2  502    0  0.18892896892E+03  0.17425204346E+03 -0.10168336060E+04  0.10626727159E+04  0.17106954366E+03 0.  0.
         24    2    5    5    0    0  0.18354463363E+03  0.18220118986E+03 -0.10165574909E+04  0.10519794360E+04  0.79910546423E+02 0.  0.
          4    1    6    6  501    0  0.16184675979E+03  0.18739434542E+03 -0.90821726378E+03  0.94136582293E+03  0.00000000000E+00 0. -1.
         -3    1    6    6    0  501  0.21697873835E+02 -0.51931555587E+01 -0.10834022708E+03  0.11061361307E+03  0.00000000000E+00 0.  1.
          5    1    5    5  502    0  0.53843352958E+01 -0.79491463976E+01 -0.27611517813E+00  0.10693279881E+02  0.47000000000E+01 0. -1.
         13    1    4    4    0    0 -0.36969769436E+02 -0.45996865357E+01 -0.12385762256E+02  0.39259751337E+02  0.00000000000E+00 0. -1.
        -14    1    4    4    0    0 -0.19541122223E+02 -0.10638270985E+02 -0.15217166700E+03  0.15378961117E+03  0.00000000000E+00 0.  1.
         -5    1    3    3    0  504 -0.13241807727E+03 -0.15901408594E+03 -0.41400177910E+03  0.46286022708E+03  0.47000000000E+01 0.  1.
<mgrwt>
<rscale>  2 0.30894276E+03</rscale>
<asrwt>0</asrwt>
<pdfrwt beam="1">  1       21 0.94761145E-02 0.30900911E+03</pdfrwt>
<pdfrwt beam="2">  1       21 0.25492117E+00 0.30900911E+03</pdfrwt>
<totfact> 0.50439384E+03</totfact>
</mgrwt>
</event>
<event>
12    1  0.2742799E-001  0.1787314E+03  0.7546771E-02  0.1169387E+00
         21   -1    0    0  502  503  0.00000000000E+00  0.00000000000E+00  0.12326709576E+04  0.12326709576E+04  0.00000000000E+00 0. -1.
         21   -1    0    0  503  504 -0.00000000000E+00 -0.00000000000E+00 -0.24277706851E+03  0.24277706851E+03  0.00000000000E+00 0. -1.
         -6    2    1    2    0  504 -0.34834121802E+02 -0.27773362484E+02 -0.20283481157E+03  0.26940215128E+03  0.17161230324E+03 0.  0.
        -24    2    3    3    0    0 -0.16989721782E+02  0.27102626427E+02 -0.36539461430E+02  0.93316858734E+02  0.79685010366E+02 0.  0.
          6    2    1    2  502    0  0.34834121802E+02  0.27773362484E+02  0.11927287006E+04  0.12060458748E+04  0.17308992786E+03 0.  0.
         24    2    5    5    0    0 -0.32072376074E+02 -0.28924046692E+02  0.69124669313E+03  0.69693157575E+03  0.77629844261E+02 0.  0.
          4    1    6    6  501    0 -0.25382220132E+01 -0.50241262647E+02  0.47284675744E+03  0.47551517648E+03  0.00000000000E+00 0. -1.
         -3    1    6    6    0  501 -0.29534154061E+02  0.21317215955E+02  0.21839993569E+03  0.22141639926E+03  0.00000000000E+00 0.  1.
          5    1    5    5  502    0  0.66906497876E+02  0.56697409176E+02  0.50148200749E+03  0.50911429906E+03  0.47000000000E+01 0. -1.
         13    1    4    4    0    0  0.21473831587E+02 -0.16741387719E+02 -0.79703661052E+01  0.28371222069E+02  0.00000000000E+00 0. -1.
        -14    1    4    4    0    0 -0.38463553369E+02  0.43844014146E+02 -0.28569095325E+02  0.64945636666E+02  0.00000000000E+00 0.  1.
         -5    1    3    3    0  504 -0.17844400020E+02 -0.54875988911E+02 -0.16629535014E+03  0.17608529254E+03  0.47000000000E+01 0.  1.
<mgrwt>
<rscale>  2 0.17837263E+03</rscale>
<asrwt>0</asrwt>
<pdfrwt beam="1">  1       21 0.18964168E+00 0.17873136E+03</pdfrwt>
<pdfrwt beam="2">  1       21 0.37350319E-01 0.17873136E+03</pdfrwt>
<totfact> 0.11014170E+03</totfact>
</mgrwt>
</event>
<event>
12    1  0.2742799E-001  0.2859635E+03  0.7546771E-02  0.1092606E+00
         21   -1    0    0  502  503  0.00000000000E+00  0.00000000000E+00  0.10897514912E+04  0.10897514912E+04  0.00000000000E+00 0. -1.
         21   -1    0    0  503  504 -0.00000000000E+00 -0.00000000000E+00 -0.74837522324E+02  0.74837522324E+02  0.00000000000E+00 0. -1.
         -6    2    1    2    0  504  0.20222935875E+03  0.10263472936E+03  0.49278299065E+03  0.56974570791E+03  0.17419671237E+03 0.  0.
        -24    2    3    3    0    0  0.71841217579E+02  0.14778477530E+02  0.13163683926E+03  0.17583147739E+03  0.90602908615E+02 0.  0.
          6    2    1    2  502    0 -0.20222935875E+03 -0.10263472936E+03  0.52213097822E+03  0.59484330561E+03  0.17258968277E+03 0.  0.
         24    2    5    5    0    0 -0.11182551347E+03 -0.12002797356E+03  0.26537387761E+03  0.32203993521E+03  0.79842125813E+02 0.  0.
          4    1    6    6  501    0 -0.93837563411E+02 -0.11757663205E+03  0.17918295570E+03  0.23395786869E+03  0.00000000000E+00 0. -1.
         -3    1    6    6    0  501 -0.17987950057E+02 -0.24513415148E+01  0.86190921911E+02  0.88082066519E+02  0.00000000000E+00 0.  1.
          5    1    5    5  502    0 -0.90403845278E+02  0.17393244205E+02  0.25675710061E+03  0.27280337039E+03  0.47000000000E+01 0. -1.
         13    1    4    4    0    0  0.76117755508E+02 -0.16352369719E+02  0.11846829662E+03  0.14176053754E+03  0.00000000000E+00 0. -1.
        -14    1    4    4    0    0 -0.42765379284E+01  0.31130847249E+02  0.13168542637E+02  0.34070939850E+02  0.00000000000E+00 0.  1.
         -5    1    3    3    0  504  0.13038814117E+03  0.87856251826E+02  0.36114615139E+03  0.39391423052E+03  0.47000000000E+01 0.  1.
<mgrwt>
<rscale>  2 0.28571912E+03</rscale>
<asrwt>0</asrwt>
<pdfrwt beam="1">  1       21 0.16765406E+00 0.28596345E+03</pdfrwt>
<pdfrwt beam="2">  1       21 0.11513466E-01 0.28596345E+03</pdfrwt>
<totfact> 0.13207313E+04</totfact>
</mgrwt>
</event>
<event>
12    1  0.2742799E-001  0.2518663E+03  0.7546771E-02  0.1113245E+00
         21   -1    0    0  502  503  0.00000000000E+00  0.00000000000E+00  0.86481001041E+02  0.86481001041E+02  0.00000000000E+00 0. -1.
         21   -1    0    0  503  504 -0.00000000000E+00 -0.00000000000E+00 -0.88521690097E+03  0.88521690097E+03  0.00000000000E+00 0. -1.
         -6    2    1    2    0  504  0.12879363226E+03 -0.11627921546E+03 -0.60894605245E+03  0.65633013906E+03  0.17275792601E+03 0.  0.
        -24    2    3    3    0    0  0.10744609215E+03 -0.72015355529E+02 -0.24123522244E+03  0.28532023183E+03  0.80512905770E+02 0.  0.
          6    2    1    2  502    0 -0.12879363226E+03  0.11627921546E+03 -0.18978984749E+03  0.31536776295E+03  0.18255953560E+03 0.  0.
         24    2    5    5    0    0 -0.14546403276E+03  0.91574873245E+02 -0.20723395379E+03  0.28051674256E+03  0.78727307950E+02 0.  0.
          2    1    6    6  501    0 -0.12991377242E+03  0.96909547829E+02 -0.14953554250E+03  0.22052194266E+03  0.00000000000E+00 0. -1.
         -1    1    6    6    0  501 -0.15550260343E+02 -0.53346745841E+01 -0.57698411292E+02  0.59994799902E+02  0.00000000000E+00 0.  1.
          5    1    5    5  502    0  0.16670400500E+02  0.24704342215E+02  0.17444106306E+02  0.34851020386E+02  0.47000000000E+01 0. -1.
         13    1    4    4    0    0  0.96588013270E+02 -0.42126191090E+02 -0.22742398228E+03  0.25065021045E+03  0.00000000000E+00 0. -1.
        -14    1    4    4    0    0  0.10858078875E+02 -0.29889164439E+02 -0.13811240166E+02  0.34670021382E+02  0.00000000000E+00 0.  1.
         -5    1    3    3    0  504  0.21347540115E+02 -0.44263859931E+02 -0.36771083000E+03  0.37100990724E+03  0.47000000000E+01 0.  1.
<mgrwt>
<rscale>  2 0.25009488E+03</rscale>
<asrwt>0</asrwt>
<pdfrwt beam="1">  1       21 0.13304770E-01 0.25186631E+03</pdfrwt>
<pdfrwt beam="2">  1       21 0.13618721E+00 0.25186631E+03</pdfrwt>
<totfact> 0.18072154E+04</totfact>
</mgrwt>
</event>
<event>
12    1  0.2742799E-001  0.1845382E+03  0.7546771E-02  0.1163834E+00
         21   -1    0    0  502  503  0.00000000000E+00  0.00000000000E+00  0.29846057674E+03  0.29846057674E+03  0.00000000000E+00 0.  1.
         21   -1    0    0  503  504 -0.00000000000E+00 -0.00000000000E+00 -0.11480982221E+03  0.11480982221E+03  0.00000000000E+00 0.  1.
         -6    2    1    2    0  504  0.21143640160E+02 -0.55298002279E+02  0.66802903460E+02  0.19484929684E+03  0.17320132215E+03 0.  0.
        -24    2    3    3    0    0  0.29344001823E+02 -0.88803251534E+02  0.90027397302E+02  0.15300058392E+03  0.80976283503E+02 0.  0.
          6    2    1    2  502    0 -0.21143640160E+02  0.55298002279E+02  0.11684785107E+03  0.21842110210E+03  0.17478396656E+03 0.  0.
         24    2    5    5    0    0  0.11908595137E+02 -0.25900417967E+01  0.12657091422E+03  0.15089256100E+03  0.81239434295E+02 0.  0.
          2    1    6    6  501    0  0.44166613385E+02 -0.60150000400E+00  0.44558050317E+02  0.62741305280E+02  0.00000000000E+00 0. -1.
         -1    1    6    6    0  501 -0.32258018248E+02 -0.19885417927E+01  0.82012863905E+02  0.88151255724E+02  0.00000000000E+00 0.  1.
          5    1    5    5  502    0 -0.33052235298E+02  0.57888044076E+02 -0.97230631536E+01  0.67528541093E+02  0.47000000000E+01 0. -1.
         11    1    4    4    0    0  0.51671932650E+02 -0.86769752504E+02  0.69420310088E+02  0.12254859455E+03  0.00000000000E+00 0. -1.
        -12    1    4    4    0    0 -0.22327930827E+02 -0.20334990291E+01  0.20607087213E+02  0.30451989373E+02  0.00000000000E+00 0.  1.
         -5    1    3    3    0  504 -0.82003616624E+01  0.33505249255E+02 -0.23224493841E+02  0.41848712922E+02  0.47000000000E+01 0.  1.
<mgrwt>
<rscale>  2 0.18416251E+03</rscale>
<asrwt>0</asrwt>
<pdfrwt beam="1">  1       21 0.45917012E-01 0.18453823E+03</pdfrwt>
<pdfrwt beam="2">  1       21 0.17663050E-01 0.18453823E+03</pdfrwt>
<totfact> 0.13253281E+05</totfact>
</mgrwt>
</event>
<event>
12    1  0.2742799E-001  0.1737736E+03  0.7546771E-02  0.1174031E+00
         21   -1    0    0  502  503  0.00000000000E+00  0.00000000000E+00  0.15690262018E+03  0.15690262018E+03  0.00000000000E+00 0.  1.
         21   -1    0    0  503  504 -0.00000000000E+00 -0.00000000000E+00 -0.27050777648E+03  0.27050777648E+03  0.00000000000E+00 0.  1.
         -6    2    1    2    0  504  0.73311257040E+01  0.12545966359E+02 -0.17182296358E+03  0.24437755899E+03  0.17316499026E+03 0.  0.
        -24    2    3    3    0    0 -0.27180187608E+02  0.65135810078E+02 -0.84658663793E+02  0.13678375078E+03  0.81001659050E+02 0.  0.
          6    2    1    2  502    0 -0.73311257040E+01 -0.12545966359E+02  0.58217807284E+02  0.18303283767E+03  0.17291778365E+03 0.  0.
         24    2    5    5    0    0 -0.47971294859E-01 -0.67784975393E+02  0.54952998047E+01  0.10618138841E+03  0.81544366668E+02 0.  0.
          4    1    6    6  501    0 -0.26155753672E+02 -0.48743096958E+02 -0.25941733528E+02  0.61098170919E+02  0.00000000000E+00 0. -1.
         -3    1    6    6    0  501  0.26107782377E+02 -0.19041878435E+02  0.31437033332E+02  0.45083217495E+02  0.00000000000E+00 0.  1.
          5    1    5    5  502    0 -0.72831544091E+01  0.55239009034E+02  0.52722507479E+02  0.76851449252E+02  0.47000000000E+01 0. -1.
         11    1    4    4    0    0 -0.39262778394E+02  0.50560180965E+02 -0.16587753772E+02  0.66129049907E+02  0.00000000000E+00 0. -1.
        -12    1    4    4    0    0  0.12082590786E+02  0.14575629114E+02 -0.68070910021E+02  0.70654700872E+02  0.00000000000E+00 0.  1.
         -5    1    3    3    0  504  0.34511313312E+02 -0.52589843719E+02 -0.87164299783E+02  0.10759380821E+03  0.47000000000E+01 0.  1.
<mgrwt>
<rscale>  2 0.17371197E+03</rscale>
<asrwt>0</asrwt>
<pdfrwt beam="1">  1       21 0.24138865E-01 0.17377359E+03</pdfrwt>
<pdfrwt beam="2">  1       21 0.41616581E-01 0.17377359E+03</pdfrwt>
<totfact> 0.90689173E+04</totfact>
</mgrwt>
</event>
<event>
12    1  0.2742799E-001  0.1851552E+03  0.7546771E-02  0.1164111E+00
         21   -1    0    0  502  503  0.00000000000E+00  0.00000000000E+00  0.21338070954E+02  0.21338070954E+02  0.00000000000E+00 0.  1.
         21   -1    0    0  503  504 -0.00000000000E+00 -0.00000000000E+00 -0.15728832686E+04  0.15728832686E+04  0.00000000000E+00 0.  1.
         -6    2    1    2    0  504 -0.46407399668E+02 -0.12955684539E+02 -0.72249783036E+03  0.74584552717E+03  0.17877622612E+03 0.  0.
        -24    2    3    3    0    0 -0.10042354768E+03 -0.46191738760E+01 -0.48575709786E+03  0.50283214054E+03  0.82304178204E+02 0.  0.
          6    2    1    2  502    0  0.46407399668E+02  0.12955684539E+02 -0.82904736732E+03  0.84837581241E+03  0.17349491440E+03 0.  0.
         24    2    5    5    0    0  0.12570402681E+02  0.85105851172E+01 -0.17648984762E+03  0.19490958698E+03  0.81305815896E+02 0.  0.
          4    1    6    6  501    0  0.40257785407E+02 -0.31119308090E+01 -0.14838650018E+03  0.15378207579E+03  0.00000000000E+00 0. -1.
         -3    1    6    6    0  501 -0.27687382726E+02  0.11622515926E+02 -0.28103347444E+02  0.41127511184E+02  0.00000000000E+00 0.  1.
          5    1    5    5  502    0  0.33836996987E+02  0.44450994213E+01 -0.65255751970E+03  0.65346622544E+03  0.47000000000E+01 0. -1.
         11    1    4    4    0    0 -0.39503525920E+02 -0.27976272080E+02 -0.94542236691E+02  0.10621409924E+03  0.00000000000E+00 0. -1.
        -12    1    4    4    0    0 -0.60920021756E+02  0.23357098204E+02 -0.39121486117E+03  0.39661804130E+03  0.00000000000E+00 0.  1.
         -5    1    3    3    0  504  0.54016148008E+02 -0.83365106625E+01 -0.23674073250E+03  0.24301338663E+03  0.47000000000E+01 0.  1.
<mgrwt>
<rscale>  2 0.18386828E+03</rscale>
<asrwt>0</asrwt>
<pdfrwt beam="1">  1       21 0.32827798E-02 0.18515517E+03</pdfrwt>
<pdfrwt beam="2">  1       21 0.24198206E+00 0.18515517E+03</pdfrwt>
<totfact> 0.40645224E+04</totfact>
</mgrwt>
</event>
<event>
12    1  0.2742799E-001  0.2103666E+03  0.7546771E-02  0.1141770E+00
         21   -1    0    0  502  503  0.00000000000E+00  0.00000000000E+00  0.83901159344E+02  0.83901159344E+02  0.00000000000E+00 0. -1.
         21   -1    0    0  503  504 -0.00000000000E+00 -0.00000000000E+00 -0.52887422453E+03  0.52887422453E+03  0.00000000000E+00 0. -1.
         -6    2    1    2    0  504  0.79640549690E+02  0.85583619145E+02 -0.26060501285E+03  0.33491650048E+03  0.17489115630E+03 0.  0.
        -24    2    3    3    0    0  0.11199111415E+03  0.94426906997E+02 -0.24719765411E+03  0.29849384230E+03  0.80829717800E+02 0.  0.
          6    2    1    2  502    0 -0.79640549690E+02 -0.85583619145E+02 -0.18436805234E+03  0.27785888339E+03  0.17189184779E+03 0.  0.
         24    2    5    5    0    0 -0.45405343704E+01  0.19304019451E+02 -0.71952728238E+02  0.10668434053E+03  0.76230517477E+02 0.  0.
          2    1    6    6  501    0 -0.18716799364E+02  0.27516655611E+01 -0.80932050238E+02  0.83113699217E+02  0.00000000000E+00 0. -1.
         -1    1    6    6    0  501  0.14176264994E+02  0.16552353890E+02  0.89793220003E+01  0.23570641316E+02  0.00000000000E+00 0.  1.
          5    1    5    5  502    0 -0.75100015320E+02 -0.10488763860E+03 -0.11241532410E+03  0.17117454286E+03  0.47000000000E+01 0. -1.
         13    1    4    4    0    0  0.12270593855E+02  0.47815647902E+02 -0.12300026487E+03  0.13253666971E+03  0.00000000000E+00 0. -1.
        -14    1    4    4    0    0  0.99720520290E+02  0.46611259095E+02 -0.12419738924E+03  0.16595717259E+03  0.00000000000E+00 0.  1.
         -5    1    3    3    0  504 -0.32350564455E+02 -0.88432878520E+01 -0.13407358736E+02  0.36422658180E+02  0.47000000000E+01 0.  1.
<mgrwt>
<rscale>  2 0.20974208E+03</rscale>
<asrwt>0</asrwt>
<pdfrwt beam="1">  1       21 0.12907871E-01 0.21036656E+03</pdfrwt>
<pdfrwt beam="2">  1       21 0.81365265E-01 0.21036656E+03</pdfrwt>
<totfact> 0.67596559E+04</totfact>
</mgrwt>
</event>
<event>
12    1  0.2742799E-001  0.1863913E+03  0.7546771E-02  0.1163165E+00
         21   -1    0    0  502  503  0.00000000000E+00  0.00000000000E+00  0.24779087647E+03  0.24779087647E+03  0.00000000000E+00 0.  1.
         21   -1    0    0  503  504 -0.00000000000E+00 -0.00000000000E+00 -0.13729292890E+03  0.13729292890E+03  0.00000000000E+00 0.  1.
         -6    2    1    2    0  504 -0.48165219314E+02  0.80486484034E+00  0.35658414932E+02  0.18977157175E+03  0.18005885352E+03 0.  0.
        -24    2    3    3    0    0 -0.78190747948E+02 -0.46363363883E+02 -0.29348855577E+01  0.12166939107E+03  0.80817526539E+02 0.  0.
          6    2    1    2  502    0  0.48165219314E+02 -0.80486484034E+00  0.74839532637E+02  0.19531223361E+03  0.17385447016E+03 0.  0.
         24    2    5    5    0    0  0.51860342513E+02  0.49462863097E+02  0.35395414145E+01  0.10786923986E+03  0.80542998475E+02 0.  0.
          4    1    6    6  501    0 -0.10545609016E+02  0.15866537274E+02 -0.25027775984E+02  0.31453878065E+02  0.00000000000E+00 0. -1.
         -3    1    6    6    0  501  0.62405951529E+02  0.33596325822E+02  0.28567317399E+02  0.76415361796E+02  0.00000000000E+00 0.  1.
          5    1    5    5  502    0 -0.36951231983E+01 -0.50267727937E+02  0.71299991223E+02  0.87442993749E+02  0.47000000000E+01 0. -1.
         13    1    4    4    0    0  0.81788391848E+01 -0.14954063488E+01  0.20013661171E+02  0.21672016150E+02  0.00000000000E+00 0. -1.
        -14    1    4    4    0    0 -0.86369587133E+02 -0.44867957534E+02 -0.22948546728E+02  0.99997374924E+02  0.00000000000E+00 0.  1.
         -5    1    3    3    0  504  0.30025528634E+02  0.47168228723E+02  0.38593300490E+02  0.68102180680E+02  0.47000000000E+01 0.  1.
<mgrwt>
<rscale>  2 0.18487634E+03</rscale>
<asrwt>0</asrwt>
<pdfrwt beam="1">  1       21 0.38121673E-01 0.18639133E+03</pdfrwt>
<pdfrwt beam="2">  1       21 0.21121989E-01 0.18639133E+03</pdfrwt>
<totfact> 0.13858125E+05</totfact>
</mgrwt>
</event>
<event>
12    1  0.2742799E-001  0.2476722E+03  0.7546771E-02  0.1114910E+00
         21   -1    0    0  502  503  0.00000000000E+00  0.00000000000E+00  0.24166901261E+03  0.24166901261E+03  0.00000000000E+00 0. -1.
         21   -1    0    0  503  504 -0.00000000000E+00 -0.00000000000E+00 -0.35420518175E+03  0.35420518175E+03  0.00000000000E+00 0. -1.
         -6    2    1    2    0  504 -0.20220381919E+02 -0.17623893548E+03 -0.21544051800E+03  0.32767498411E+03  0.17171852605E+03 0.  0.
        -24    2    3    3    0    0  0.22122187661E+02 -0.31601805870E+02 -0.11812241827E+03  0.14821553187E+03  0.80789064045E+02 0.  0.
          6    2    1    2  502    0  0.20220381919E+02  0.17623893548E+03  0.10290434886E+03  0.26819921025E+03  0.17283658508E+03 0.  0.
         24    2    5    5    0    0 -0.49111819878E+02  0.60163189806E+02  0.53676043386E+02  0.12423376648E+03  0.80754757392E+02 0.  0.
          2    1    6    6  501    0 -0.23220667531E+02  0.59993719541E+02  0.68846813950E+02  0.94224888304E+02  0.00000000000E+00 0. -1.
         -1    1    6    6    0  501 -0.25891152347E+02  0.16947026515E+00 -0.15170770563E+02  0.30008878178E+02  0.00000000000E+00 0.  1.
          5    1    5    5  502    0  0.69332201797E+02  0.11607574567E+03  0.49228305478E+02  0.14396544377E+03  0.47000000000E+01 0. -1.
         13    1    4    4    0    0  0.20889267085E+02 -0.56471857883E+02 -0.10232711849E+03  0.11872771955E+03  0.00000000000E+00 0. -1.
        -14    1    4    4    0    0  0.12329205755E+01  0.24870052013E+02 -0.15795299785E+02  0.29487812323E+02  0.00000000000E+00 0.  1.
         -5    1    3    3    0  504 -0.42342569580E+02 -0.14463712961E+03 -0.97318099733E+02  0.17945945223E+03  0.47000000000E+01 0.  1.
<mgrwt>
<rscale>  2 0.24747722E+03</rscale>
<asrwt>0</asrwt>
<pdfrwt beam="1">  1       21 0.37179848E-01 0.24767219E+03</pdfrwt>
<pdfrwt beam="2">  1       21 0.54493105E-01 0.24767219E+03</pdfrwt>
<totfact> 0.21542916E+04</totfact>
</mgrwt>
</event>
<event>
12    1  0.2742799E-001  0.1994471E+03  0.7546771E-02  0.1150251E+00
         21   -1    0    0  502  503  0.00000000000E+00  0.00000000000E+00  0.36560399975E+03  0.36560399975E+03  0.00000000000E+00 0. -1.
         21   -1    0    0  503  504 -0.00000000000E+00 -0.00000000000E+00 -0.15654321032E+03  0.15654321032E+03  0.00000000000E+00 0. -1.
         -6    2    1    2    0  504  0.96586455185E+02  0.20151542336E+02 -0.39778489824E+02  0.20337524219E+03  0.17333243465E+03 0.  0.
        -24    2    3    3    0    0  0.10737430355E+03 -0.36164940864E+02 -0.10063845277E+02  0.13862206426E+03  0.79231633239E+02 0.  0.
          6    2    1    2  502    0 -0.96586455185E+02 -0.20151542336E+02  0.24883927926E+03  0.31877196788E+03  0.17308827984E+03 0.  0.
         24    2    5    5    0    0  0.44258449255E+01 -0.48160662115E+02  0.13231445705E+03  0.16196597387E+03  0.79917605504E+02 0.  0.
          4    1    6    6  501    0 -0.44940082030E+01 -0.27174579955E+02  0.13609272670E+03  0.13885202255E+03  0.00000000000E+00 0. -1.
         -3    1    6    6    0  501  0.89198531285E+01 -0.20986082161E+02 -0.37782696492E+01  0.23113951324E+02  0.00000000000E+00 0.  1.
          5    1    5    5  502    0 -0.10101230011E+03  0.28009119779E+02  0.11652482221E+03  0.15680599401E+03  0.47000000000E+01 0. -1.
         13    1    4    4    0    0  0.53550212341E+02  0.22153137368E+02  0.37324106604E+01  0.58071659407E+02  0.00000000000E+00 0. -1.
        -14    1    4    4    0    0  0.53824091213E+02 -0.58318078232E+02 -0.13796255938E+02  0.80550404850E+02  0.00000000000E+00 0.  1.
         -5    1    3    3    0  504 -0.10787848369E+02  0.56316483200E+02 -0.29714644547E+02  0.64753177937E+02  0.47000000000E+01 0.  1.
<mgrwt>
<rscale>  2 0.19939408E+03</rscale>
<asrwt>0</asrwt>
<pdfrwt beam="1">  1       21 0.56246769E-01 0.19944714E+03</pdfrwt>
<pdfrwt beam="2">  1       21 0.24083571E-01 0.19944714E+03</pdfrwt>
<totfact> 0.48214106E+04</totfact>
</mgrwt>
</event>
<event>
12    1  0.2742799E-001  0.1981017E+03  0.7546771E-02  0.1151480E+00
         21   -1    0    0  502  503  0.00000000000E+00  0.00000000000E+00  0.44744574970E+02  0.44744574970E+02  0.00000000000E+00 0.  1.
         21   -1    0    0  503  504 -0.00000000000E+00 -0.00000000000E+00 -0.89082763715E+03  0.89082763715E+03  0.00000000000E+00 0.  1.
         -6    2    1    2    0  504  0.96008307120E+02 -0.16282364583E+02 -0.48594328846E+03  0.52454307413E+03  0.17181922646E+03 0.  0.
        -24    2    3    3    0    0  0.13438135267E+03 -0.12120998850E+02 -0.41640200548E+03  0.44486944218E+03  0.79453910272E+02 0.  0.
          6    2    1    2  502    0 -0.96008307120E+02  0.16282364583E+02 -0.36013977372E+03  0.41102913799E+03  0.17251546375E+03 0.  0.
         24    2    5    5    0    0 -0.63195799063E+02  0.71653469806E+02 -0.29183313998E+03  0.31705836492E+03  0.78939827865E+02 0.  0.
          2    1    6    6  501    0  0.47440409257E+01 -0.12171326550E+02 -0.59141258212E+02  0.60566785759E+02  0.00000000000E+00 0. -1.
         -1    1    6    6    0  501 -0.67939839989E+02  0.83824796357E+02 -0.23269188176E+03  0.25649157916E+03  0.00000000000E+00 0.  1.
          5    1    5    5  502    0 -0.32812508057E+02 -0.55371105223E+02 -0.68306633744E+02  0.93970773073E+02  0.47000000000E+01 0. -1.
         11    1    4    4    0    0  0.16376290758E+02  0.23033128516E+02 -0.41051695871E+02  0.49839237977E+02  0.00000000000E+00 0. -1.
        -12    1    4    4    0    0  0.11800506191E+03 -0.35154127366E+02 -0.37535030961E+03  0.39503020420E+03  0.00000000000E+00 0.  1.
         -5    1    3    3    0  504 -0.38373045549E+02 -0.41613657337E+01 -0.69541282982E+02  0.79673631951E+02  0.47000000000E+01 0.  1.
<mgrwt>
<rscale>  2 0.19795005E+03</rscale>
<asrwt>0</asrwt>
<pdfrwt beam="1">  1       21 0.68837811E-02 0.19810173E+03</pdfrwt>
<pdfrwt beam="2">  1       21 0.13705040E+00 0.19810173E+03</pdfrwt>
<totfact> 0.58687010E+04</totfact>
</mgrwt>
</event>
<event>
12    1  0.2742799E-001  0.1793498E+03  0.7546771E-02  0.1168547E+00
         21   -1    0    0  502  503  0.00000000000E+00  0.00000000000E+00  0.85761943615E+03  0.85761943615E+03  0.00000000000E+00 0.  1.
         21   -1    0    0  503  504 -0.00000000000E+00 -0.00000000000E+00 -0.41796796645E+02  0.41796796645E+02  0.00000000000E+00 0.  1.
         -6    2    1    2    0  504  0.45790530308E+02 -0.88107540748E+01  0.26174150885E+03  0.31703125335E+03  0.17270146523E+03 0.  0.
        -24    2    3    3    0    0  0.40776058389E+02 -0.92952410939E+01  0.64764743943E+02  0.11993402970E+03  0.91872797812E+02 0.  0.
          6    2    1    2  502    0 -0.45790530308E+02  0.88107540748E+01  0.55408113065E+03  0.58238497944E+03  0.17318187805E+03 0.  0.
         24    2    5    5    0    0 -0.48670947253E+02 -0.57291619983E+02  0.39365899586E+03  0.40879012932E+03  0.80565339829E+02 0.  0.
          4    1    6    6  501    0 -0.69677496343E+02 -0.37210893036E+02  0.32001410006E+03  0.32961891374E+03  0.00000000000E+00 0. -1.
         -3    1    6    6    0  501  0.21006549089E+02 -0.20080726947E+02  0.73644895801E+02  0.79171215583E+02  0.00000000000E+00 0.  1.
          5    1    5    5  502    0  0.28804169452E+01  0.66102374058E+02  0.16042213479E+03  0.17359485012E+03  0.47000000000E+01 0. -1.
         11    1    4    4    0    0 -0.21254572512E+02  0.16649971836E+02  0.40043188474E+02  0.48295293332E+02  0.00000000000E+00 0. -1.
        -12    1    4    4    0    0  0.62030630901E+02 -0.25945212930E+02  0.24721555469E+02  0.71638736370E+02  0.00000000000E+00 0.  1.
         -5    1    3    3    0  504  0.50144719193E+01  0.48448701908E+00  0.19697676491E+03  0.19709722365E+03  0.47000000000E+01 0.  1.
<mgrwt>
<rscale>  2 0.17923377E+03</rscale>
<asrwt>0</asrwt>
<pdfrwt beam="1">  1       21 0.13194144E+00 0.17934984E+03</pdfrwt>
<pdfrwt beam="2">  1       21 0.64302770E-02 0.17934984E+03</pdfrwt>
<totfact> 0.73375534E+04</totfact>
</mgrwt>
</event>
<event>
12    1  0.2742799E-001  0.2126224E+03  0.7546771E-02  0.1139853E+00
         21   -1    0    0  502  503  0.00000000000E+00  0.00000000000E+00  0.22910157574E+04  0.22910157574E+04  0.00000000000E+00 0.  1.
         21   -1    0    0  503  504 -0.00000000000E+00 -0.00000000000E+00 -0.21860111132E+02  0.21860111132E+02  0.00000000000E+00 0.  1.
         -6    2    1    2    0  504  0.37025295985E+02 -0.11591561504E+03  0.15047316441E+04  0.15194325277E+04  0.17219344740E+03 0.  0.
        -24    2    3    3    0    0  0.77575512841E+02 -0.69237700218E+02  0.12664849908E+04  0.12732482358E+04  0.79781066889E+02 0.  0.
          6    2    1    2  502    0 -0.37025295985E+02  0.11591561504E+03  0.76442400219E+03  0.79344334078E+03  0.17435876107E+03 0.  0.
         24    2    5    5    0    0 -0.23138859975E+02  0.13700953156E+03  0.48550771641E+03  0.51334662375E+03  0.92195416617E+02 0.  0.
          2    1    6    6  501    0 -0.57700390619E+02  0.73060165929E+02  0.24491208778E+03  0.26200964422E+03  0.00000000000E+00 0. -1.
         -1    1    6    6    0  501  0.34561530644E+02  0.63949365634E+02  0.24059562863E+03  0.25133697953E+03  0.00000000000E+00 0.  1.
          5    1    5    5  502    0 -0.13886436010E+02 -0.21093916525E+02  0.27891628578E+03  0.28009671703E+03  0.47000000000E+01 0. -1.
         11    1    4    4    0    0  0.73063136956E+01  0.15841722698E+02  0.95903430549E+02  0.97477230105E+02  0.00000000000E+00 0. -1.
        -12    1    4    4    0    0  0.70269199145E+02 -0.85079422916E+02  0.11705815603E+04  0.11757710057E+04  0.00000000000E+00 0.  1.
         -5    1    3    3    0  504 -0.40550216856E+02 -0.46677914820E+02  0.23824665323E+03  0.24618429194E+03  0.47000000000E+01 0.  1.
<mgrwt>
<rscale>  2 0.21217800E+03</rscale>
<asrwt>0</asrwt>
<pdfrwt beam="1">  1       21 0.35246377E+00 0.21262239E+03</pdfrwt>
<pdfrwt beam="2">  1       21 0.33630958E-02 0.21262239E+03</pdfrwt>
<totfact> 0.86495339E+03</totfact>
</mgrwt>
</event>
<event>
12    1  0.2742799E-001  0.2228910E+03  0.7546771E-02  0.1131801E+00
         21   -1    0    0  502  503  0.00000000000E+00  0.00000000000E+00  0.23908955839E+03  0.23908955839E+03  0.00000000000E+00 0. -1.
         21   -1    0    0  503  504 -0.00000000000E+00 -0.00000000000E+00 -0.54033117527E+03  0.54033117527E+03  0.00000000000E+00 0. -1.
         -6    2    1    2    0  504  0.10594687820E+03  0.92413571264E+02 -0.45643885132E+03  0.50782067310E+03  0.17256999127E+03 0.  0.
        -24    2    3    3    0    0  0.10653001464E+03  0.63072050869E+02 -0.45485306322E+03  0.47805711164E+03  0.79501982649E+02 0.  0.
          6    2    1    2  502    0 -0.10594687820E+03 -0.92413571264E+02  0.15519723444E+03  0.27160006055E+03  0.17296069542E+03 0.  0.
         24    2    5    5    0    0 -0.10427921412E+03 -0.12967792645E+03  0.11758498170E+03  0.21841937960E+03  0.78678322031E+02 0.  0.
          4    1    6    6  501    0 -0.11294640802E+03 -0.98161648418E+02  0.84229629956E+02  0.17171846397E+03  0.00000000000E+00 0. -1.
         -3    1    6    6    0  501  0.86671938968E+01 -0.31516278027E+02  0.33355351749E+02  0.46700915634E+02  0.00000000000E+00 0.  1.
          5    1    5    5  502    0 -0.16676640716E+01  0.37264355181E+02  0.37612252731E+02  0.53180680948E+02  0.47000000000E+01 0. -1.
         13    1    4    4    0    0  0.39551127560E+02  0.12204971285E+02 -0.29050376510E+03  0.29343771154E+03  0.00000000000E+00 0. -1.
        -14    1    4    4    0    0  0.66978887082E+02  0.50867079585E+02 -0.16434929812E+03  0.18461940010E+03  0.00000000000E+00 0.  1.
         -5    1    3    3    0  504 -0.58313644548E+00  0.29341520395E+02 -0.15857880939E+01  0.29763561465E+02  0.47000000000E+01 0.  1.
<mgrwt>
<rscale>  2 0.22281523E+03</rscale>
<asrwt>0</asrwt>
<pdfrwt beam="1">  1       21 0.36783010E-01 0.22289103E+03</pdfrwt>
<pdfrwt beam="2">  1       21 0.83127872E-01 0.22289103E+03</pdfrwt>
<totfact> 0.88028927E+03</totfact>
</mgrwt>
</event>
<event>
12    1  0.2742799E-001  0.1830691E+03  0.7546771E-02  0.1164984E+00
         21   -1    0    0  502  503  0.00000000000E+00  0.00000000000E+00  0.29041678267E+02  0.29041678267E+02  0.00000000000E+00 0.  1.
         21   -1    0    0  503  504 -0.00000000000E+00 -0.00000000000E+00 -0.13790117850E+04  0.13790117850E+04  0.00000000000E+00 0.  1.
         -6    2    1    2    0  504 -0.45936802736E+02  0.40922832091E+02 -0.96212348964E+03  0.97938548102E+03  0.17242228128E+03 0.  0.
        -24    2    3    3    0    0 -0.29587849342E+02 -0.11097551773E+02 -0.23262059633E+03  0.24783235925E+03  0.79435130596E+02 0.  0.
          6    2    1    2  502    0  0.45936802736E+02 -0.40922832091E+02 -0.38784661709E+03  0.42866798224E+03  0.17189058317E+03 0.  0.
         24    2    5    5    0    0  0.22781291396E+02 -0.53819467765E+02 -0.38962115811E+03  0.40169132728E+03  0.78331048843E+02 0.  0.
          4    1    6    6  501    0  0.17759062031E+02 -0.74336744185E+02 -0.31486906491E+03  0.32401213535E+03  0.00000000000E+00 0. -1.
         -3    1    6    6    0  501  0.50222293653E+01  0.20517276421E+02 -0.74752093205E+02  0.77679191925E+02  0.00000000000E+00 0.  1.
          5    1    5    5  502    0  0.23155511340E+02  0.12896635674E+02  0.17745410271E+01  0.26976654963E+02  0.47000000000E+01 0. -1.
         11    1    4    4    0    0 -0.16226324013E+02  0.34050266786E+02 -0.88081749998E+02  0.95818103414E+02  0.00000000000E+00 0. -1.
        -12    1    4    4    0    0 -0.13361525329E+02 -0.45147818559E+02 -0.14453884633E+03  0.15201425584E+03  0.00000000000E+00 0.  1.
         -5    1    3    3    0  504 -0.16348953394E+02  0.52020383864E+02 -0.72950289332E+03  0.73155312177E+03  0.47000000000E+01 0.  1.
<mgrwt>
<rscale>  2 0.18294384E+03</rscale>
<asrwt>0</asrwt>
<pdfrwt beam="1">  1       21 0.44679497E-02 0.18306914E+03</pdfrwt>
<pdfrwt beam="2">  1       21 0.21215570E+00 0.18306914E+03</pdfrwt>
<totfact> 0.36853026E+04</totfact>
</mgrwt>
</event>
<event>
12    1  0.2742799E-001  0.3696836E+03  0.7546771E-02  0.1054828E+00
         21   -1    0    0  502  503  0.00000000000E+00  0.00000000000E+00  0.13070823575E+03  0.13070823575E+03  0.00000000000E+00 0. -1.
         21   -1    0    0  503  504 -0.00000000000E+00 -0.00000000000E+00 -0.10621086238E+04  0.10621086238E+04  0.00000000000E+00 0.  1.
         -6    2    1    2    0  504  0.14471673189E+03  0.29276999391E+03 -0.54092588466E+03  0.65510290214E+03  0.17292136327E+03 0.  0.
        -24    2    3    3    0    0  0.66588275958E+02  0.11751969906E+03 -0.14173476473E+03  0.21216683259E+03  0.81738260066E+02 0.  0.
          6    2    1    2  502    0 -0.14471673189E+03 -0.29276999391E+03 -0.39047450342E+03  0.53771395743E+03  0.17323036792E+03 0.  0.
         24    2    5    5    0    0 -0.15876644546E+03 -0.28545437527E+03 -0.31824200080E+03  0.46361579846E+03  0.83490436271E+02 0.  0.
          2    1    6    6  501    0 -0.61895751734E+02 -0.44299506703E+02 -0.56722357432E+02  0.94926056536E+02  0.00000000000E+00 0. -1.
         -1    1    6    6    0  501 -0.96870693725E+02 -0.24115486857E+03 -0.26151964337E+03  0.36868974193E+03  0.00000000000E+00 0.  1.
          5    1    5    5  502    0  0.14049713568E+02 -0.73156186422E+01 -0.72232502617E+02  0.74098158963E+02  0.47000000000E+01 0. -1.
         13    1    4    4    0    0  0.57293740650E+02  0.22777218779E+02 -0.67714901693E+02  0.91578831202E+02  0.00000000000E+00 0. -1.
        -14    1    4    4    0    0  0.92945353078E+01  0.94742480278E+02 -0.74019863032E+02  0.12058800139E+03  0.00000000000E+00 0.  1.
         -5    1    3    3    0  504  0.78128455933E+02  0.17525029485E+03 -0.39919111993E+03  0.44293606955E+03  0.47000000000E+01 0.  1.
<mgrwt>
<rscale>  2 0.36964742E+03</rscale>
<asrwt>0</asrwt>
<pdfrwt beam="1">  1       21 0.20108960E-01 0.36968360E+03</pdfrwt>
<pdfrwt beam="2">  1       21 0.16340132E+00 0.36968360E+03</pdfrwt>
<totfact> 0.48688789E+03</totfact>
</mgrwt>
</event>
<event>
12    1  0.2742799E-001  0.1835996E+03  0.7546771E-02  0.1164745E+00
         21   -1    0    0  502  503  0.00000000000E+00  0.00000000000E+00  0.12845957064E+03  0.12845957064E+03  0.00000000000E+00 0. -1.
         21   -1    0    0  503  504 -0.00000000000E+00 -0.00000000000E+00 -0.28693334440E+03  0.28693334440E+03  0.00000000000E+00 0. -1.
         -6    2    1    2    0  504 -0.47924978271E+01  0.60629240603E+02 -0.14304954383E+03  0.23274872965E+03  0.17323373318E+03 0.  0.
        -24    2    3    3    0    0  0.31386510230E+02  0.54413121557E+02 -0.16242410691E+03  0.19097523980E+03  0.78383996389E+02 0.  0.
          6    2    1    2  502    0  0.47924978271E+01 -0.60629240603E+02 -0.15424229921E+02  0.18264418539E+03  0.17152876942E+03 0.  0.
         24    2    5    5    0    0 -0.26080094191E+02 -0.20890175457E+02 -0.67703901051E+02  0.10992854574E+03  0.79899287901E+02 0.  0.
          2    1    6    6  501    0 -0.18548709759E+02 -0.48667375494E+02 -0.23400312254E+02  0.57097659188E+02  0.00000000000E+00 0. -1.
         -1    1    6    6    0  501 -0.75313844322E+01  0.27777200037E+02 -0.44303588798E+02  0.52830886551E+02  0.00000000000E+00 0.  1.
          5    1    5    5  502    0  0.30872592018E+02 -0.39739065146E+02  0.52279671131E+02  0.72715639653E+02  0.47000000000E+01 0. -1.
         13    1    4    4    0    0  0.12234761194E+02  0.72668901822E+02 -0.12577701715E+03  0.14577488370E+03  0.00000000000E+00 0. -1.
        -14    1    4    4    0    0  0.19151749036E+02 -0.18255780265E+02 -0.36647089755E+02  0.45200356101E+02  0.00000000000E+00 0.  1.
         -5    1    3    3    0  504 -0.36179008057E+02  0.62161190453E+01  0.19374563074E+02  0.41773489850E+02  0.47000000000E+01 0.  1.
<mgrwt>
<rscale>  2 0.18319628E+03</rscale>
<asrwt>0</asrwt>
<pdfrwt beam="1">  1       21 0.19763011E-01 0.18359956E+03</pdfrwt>
<pdfrwt beam="2">  1       21 0.44143591E-01 0.18359956E+03</pdfrwt>
<totfact> 0.11671412E+05</totfact>
</mgrwt>
</event>
<event>
12    1  0.2742799E-001  0.2361255E+03  0.7546771E-02  0.1122463E+00
         21   -1    0    0  502  503  0.00000000000E+00  0.00000000000E+00  0.12992713795E+03  0.12992713795E+03  0.00000000000E+00 0. -1.
         21   -1    0    0  503  504 -0.00000000000E+00 -0.00000000000E+00 -0.49382502395E+03  0.49382502395E+03  0.00000000000E+00 0.  1.
         -6    2    1    2    0  504  0.65040874198E+02  0.14723825454E+03 -0.29553388589E+03  0.37827969708E+03  0.17275946456E+03 0.  0.
        -24    2    3    3    0    0  0.98896473336E+02  0.15366330824E+03 -0.23547448666E+03  0.30887721626E+03  0.81018369008E+02 0.  0.
          6    2    1    2  502    0 -0.65040874198E+02 -0.14723825454E+03 -0.68364000109E+02  0.24547246483E+03  0.17226048752E+03 0.  0.
         24    2    5    5    0    0 -0.97670821134E+01 -0.20330219829E+02  0.10334147482E+02  0.86172967652E+02  0.82524372269E+02 0.  0.
          2    1    6    6  501    0 -0.20813082686E+02 -0.49149377593E+02 -0.74880256059E+00  0.53379831715E+02  0.00000000000E+00 0. -1.
         -1    1    6    6    0  501  0.11046000573E+02  0.28819157765E+02  0.11082950042E+02  0.32793135936E+02  0.00000000000E+00 0.  1.
          5    1    5    5  502    0 -0.55273792085E+02 -0.12690803471E+03 -0.78698147591E+02  0.15929949717E+03  0.47000000000E+01 0. -1.
         11    1    4    4    0    0  0.81207722002E+02  0.55551486828E+02 -0.13770210845E+03  0.16924104843E+03  0.00000000000E+00 0. -1.
        -12    1    4    4    0    0  0.17688751334E+02  0.98111821415E+02 -0.97772378211E+02  0.13963616783E+03  0.00000000000E+00 0.  1.
         -5    1    3    3    0  504 -0.33855599138E+02 -0.64250537023E+01 -0.60059399226E+02  0.69402480816E+02  0.47000000000E+01 0.  1.
<mgrwt>
<rscale>  2 0.23603424E+03</rscale>
<asrwt>0</asrwt>
<pdfrwt beam="1">  1       21 0.19988790E-01 0.23612550E+03</pdfrwt>
<pdfrwt beam="2">  1       21 0.75973081E-01 0.23612550E+03</pdfrwt>
<totfact> 0.34917525E+04</totfact>
</mgrwt>
</event>
<event>
12    1  0.2742799E-001  0.1907155E+03  0.7546771E-02  0.1158076E+00
         21   -1    0    0  502  503  0.00000000000E+00  0.00000000000E+00  0.24201562000E+03  0.24201562000E+03  0.00000000000E+00 0. -1.
         21   -1    0    0  503  504 -0.00000000000E+00 -0.00000000000E+00 -0.36665425985E+03  0.36665425985E+03  0.00000000000E+00 0. -1.
         -6    2    1    2    0  504  0.52369663652E+02  0.58139024761E+02 -0.29651462034E+03  0.35193311751E+03  0.17266519990E+03 0.  0.
        -24    2    3    3    0    0  0.74212655370E+01  0.85985812304E+02 -0.22989954151E+03  0.26675412481E+03  0.10418890929E+03 0.  0.
          6    2    1    2  502    0 -0.52369663652E+02 -0.58139024761E+02  0.17187598049E+03  0.25673676234E+03  0.17392436458E+03 0.  0.
         24    2    5    5    0    0  0.37417997695E+02 -0.48182629865E+02  0.92988583450E+02  0.13671065959E+03  0.79506323148E+02 0.  0.
          2    1    6    6  501    0  0.48271491105E+02 -0.57672389391E+02  0.96030796196E+02  0.12197604342E+03  0.00000000000E+00 0. -1.
         -1    1    6    6    0  501 -0.10853493410E+02  0.94897595259E+01 -0.30422127458E+01  0.14734616162E+02  0.00000000000E+00 0.  1.
          5    1    5    5  502    0 -0.89787661347E+02 -0.99563948954E+01  0.78887397038E+02  0.12002610275E+03  0.47000000000E+01 0. -1.
         13    1    4    4    0    0  0.30360408638E+02  0.75253494824E+02 -0.77315760987E+02  0.11208287020E+03  0.00000000000E+00 0. -1.
        -14    1    4    4    0    0 -0.22939143101E+02  0.10732317480E+02 -0.15258378052E+03  0.15467125461E+03  0.00000000000E+00 0.  1.
         -5    1    3    3    0  504  0.44948398115E+02 -0.27846787544E+02 -0.66615078834E+02  0.85178992702E+02  0.47000000000E+01 0.  1.
<mgrwt>
<rscale>  2 0.19042798E+03</rscale>
<asrwt>0</asrwt>
<pdfrwt beam="1">  1       21 0.37233173E-01 0.19071553E+03</pdfrwt>
<pdfrwt beam="2">  1       21 0.56408347E-01 0.19071553E+03</pdfrwt>
<totfact> 0.20591611E+04</totfact>
</mgrwt>
</event>
<event>
12    1  0.2742799E-001  0.2058030E+03  0.7546771E-02  0.1145158E+00
         21   -1    0    0  502  503  0.00000000000E+00  0.00000000000E+00  0.11708269799E+04  0.11708269799E+04  0.00000000000E+00 0.  1.
         21   -1    0    0  503  504 -0.00000000000E+00 -0.00000000000E+00 -0.90617398161E+02  0.90617398161E+02  0.00000000000E+00 0. -1.
         -6    2    1    2    0  504  0.18502957158E+02 -0.10795036747E+03  0.50935781970E+02  0.21201254921E+03  0.17423899069E+03 0.  0.
        -24    2    3    3    0    0  0.28367228699E+02 -0.10442851597E+03 -0.23277241864E+02  0.13691680900E+03  0.80587641651E+02 0.  0.
          6    2    1    2  502    0 -0.18502957158E+02  0.10795036747E+03  0.10292737998E+04  0.10494318289E+04  0.17293630981E+03 0.  0.
         24    2    5    5    0    0 -0.31841418272E+02  0.13007186683E+03  0.98923680836E+03  0.10015535879E+04  0.81163784429E+02 0.  0.
          4    1    6    6  501    0  0.12987861126E+02  0.25302122909E+02  0.42347637538E+03  0.42443035055E+03  0.00000000000E+00 0. -1.
         -3    1    6    6    0  501 -0.44829279398E+02  0.10476974392E+03  0.56576043298E+03  0.57712323732E+03  0.00000000000E+00 0.  1.
          5    1    5    5  502    0  0.13338461114E+02 -0.22121499358E+02  0.40036991445E+02  0.47878241015E+02  0.47000000000E+01 0. -1.
         11    1    4    4    0    0  0.36353051995E+02 -0.31551267906E+02  0.19614251762E+02  0.51978320173E+02  0.00000000000E+00 0. -1.
        -12    1    4    4    0    0 -0.79858232958E+01 -0.72877248064E+02 -0.42891493627E+02  0.84938488829E+02  0.00000000000E+00 0.  1.
         -5    1    3    3    0  504 -0.98642715407E+01 -0.35218515028E+01  0.74213023834E+02  0.75095740210E+02  0.47000000000E+01 0.  1.
<mgrwt>
<rscale>  2 0.20552700E+03</rscale>
<asrwt>0</asrwt>
<pdfrwt beam="1">  1       21 0.18012722E+00 0.20580298E+03</pdfrwt>
<pdfrwt beam="2">  1       21 0.13941139E-01 0.20580298E+03</pdfrwt>
<totfact> 0.80489267E+03</totfact>
</mgrwt>
</event>
<event>
12    1  0.2742799E-001  0.1893131E+03  0.7546771E-02  0.1162054E+00
         21   -1    0    0  502  503  0.00000000000E+00  0.00000000000E+00  0.29685780118E+03  0.29685780118E+03  0.00000000000E+00 0. -1.
         21   -1    0    0  503  504 -0.00000000000E+00 -0.00000000000E+00 -0.23045067759E+03  0.23045067759E+03  0.00000000000E+00 0. -1.
         -6    2    1    2    0  504  0.40196684375E+02 -0.36213147589E+02 -0.15456158575E+03  0.24439462185E+03  0.18141742449E+03 0.  0.
        -24    2    3    3    0    0  0.91589791579E+02 -0.82402593809E+01 -0.68243202108E+02  0.14000742294E+03  0.80550307554E+02 0.  0.
          6    2    1    2  502    0 -0.40196684375E+02  0.36213147589E+02  0.22096870934E+03  0.28291385692E+03  0.16818416820E+03 0.  0.
         24    2    5    5    0    0 -0.67438173059E+01  0.83124604650E+02  0.13234862583E+03  0.17710559486E+03  0.83036461869E+02 0.  0.
          4    1    6    6  501    0 -0.18441845562E+02  0.96622190840E+02  0.12102044790E+03  0.15595479550E+03  0.00000000000E+00 0. -1.
         -3    1    6    6    0  501  0.11698028256E+02 -0.13497586190E+02  0.11328177933E+02  0.21150799354E+02  0.00000000000E+00 0.  1.
          5    1    5    5  502    0 -0.33452867069E+02 -0.46911457061E+02  0.88620083511E+02  0.10580826206E+03  0.47000000000E+01 0. -1.
         13    1    4    4    0    0  0.14012357609E+02 -0.28213089658E+02 -0.47946459383E+02  0.57368872756E+02  0.00000000000E+00 0. -1.
        -14    1    4    4    0    0  0.77577433970E+02  0.19972830277E+02 -0.20296742724E+02  0.82638550180E+02  0.00000000000E+00 0.  1.
         -5    1    3    3    0  504 -0.51393107204E+02 -0.27972888208E+02 -0.86318383641E+02  0.10438719891E+03  0.47000000000E+01 0.  1.
<mgrwt>
<rscale>  2 0.18607052E+03</rscale>
<asrwt>0</asrwt>
<pdfrwt beam="1">  1       21 0.45670431E-01 0.18931309E+03</pdfrwt>
<pdfrwt beam="2">  1       21 0.35453951E-01 0.18931309E+03</pdfrwt>
<totfact> 0.35320627E+04</totfact>
</mgrwt>
</event>
<event>
12    1  0.2742799E-001  0.1941581E+03  0.7546771E-02  0.1157894E+00
         21   -1    0    0  502  503  0.00000000000E+00  0.00000000000E+00  0.96023135705E+02  0.96023135705E+02  0.00000000000E+00 0.  1.
         21   -1    0    0  503  504 -0.00000000000E+00 -0.00000000000E+00 -0.10454532781E+04  0.10454532781E+04  0.00000000000E+00 0.  1.
         -6    2    1    2    0  504 -0.24971966399E+02  0.43887745772E+02 -0.94103148412E+03  0.96085254207E+03  0.18747698569E+03 0.  0.
        -24    2    3    3    0    0  0.84910072123E+01  0.81051542547E+02 -0.84349630851E+03  0.85114329508E+03  0.79482303301E+02 0.  0.
          6    2    1    2  502    0  0.24971966399E+02 -0.43887745772E+02 -0.83986582309E+01  0.18062387169E+03  0.17321868326E+03 0.  0.
         24    2    5    5    0    0 -0.50894109959E+02 -0.34711996875E+01 -0.11438582276E+02  0.94481606353E+02  0.78699892750E+02 0.  0.
          2    1    6    6  501    0 -0.22737981571E+02  0.22443855354E+02 -0.36677232425E+02  0.48641153640E+02  0.00000000000E+00 0. -1.
         -1    1    6    6    0  501 -0.28156128388E+02 -0.25915055042E+02  0.25238650149E+02  0.45840452713E+02  0.00000000000E+00 0.  1.
          5    1    5    5  502    0  0.75866076358E+02 -0.40416546085E+02  0.30399240452E+01  0.86142265338E+02  0.47000000000E+01 0. -1.
         13    1    4    4    0    0 -0.11993687021E+02  0.12637842314E+02 -0.31375047328E+02  0.35888120340E+02  0.00000000000E+00 0. -1.
        -14    1    4    4    0    0  0.20484694233E+02  0.68413700232E+02 -0.81212126118E+03  0.81525517474E+03  0.00000000000E+00 0.  1.
         -5    1    3    3    0  504 -0.33462973611E+02 -0.37163796775E+02 -0.97535175606E+02  0.10970924699E+03  0.47000000000E+01 0.  1.
<mgrwt>
<rscale>  2 0.19063071E+03</rscale>
<asrwt>0</asrwt>
<pdfrwt beam="1">  1       21 0.14772791E-01 0.19415806E+03</pdfrwt>
<pdfrwt beam="2">  1       21 0.16083896E+00 0.19415806E+03</pdfrwt>
<totfact> 0.99980125E+03</totfact>
</mgrwt>
</event>
<event>
12    1  0.2742799E-001  0.2443748E+03  0.7546771E-02  0.1116967E+00
         21   -1    0    0  502  503  0.00000000000E+00  0.00000000000E+00  0.48005798759E+02  0.48005798759E+02  0.00000000000E+00 0.  1.
         21   -1    0    0  503  504 -0.00000000000E+00 -0.00000000000E+00 -0.12468119205E+04  0.12468119205E+04  0.00000000000E+00 0. -1.
         -6    2    1    2    0  504 -0.10948733596E+03 -0.13305410491E+03 -0.56083991361E+03  0.61176831736E+03  0.17328645032E+03 0.  0.
        -24    2    3    3    0    0 -0.13705345208E+02 -0.37210548776E+01 -0.15903040391E+03  0.17890090155E+03  0.80704277914E+02 0.  0.
          6    2    1    2  502    0  0.10948733596E+03  0.13305410491E+03 -0.63796620809E+03  0.68304940185E+03  0.17281415202E+03 0.  0.
         24    2    5    5    0    0  0.12381940691E+03  0.45611973866E+02 -0.37343989318E+03  0.40403722324E+03  0.79856284982E+02 0.  0.
          2    1    6    6  501    0  0.13109172042E+03  0.39747746465E+02 -0.36916970975E+03  0.39376540873E+03  0.00000000000E+00 0. -1.
         -1    1    6    6    0  501 -0.72723135085E+01  0.58642274011E+01 -0.42701834336E+01  0.10271814510E+02  0.00000000000E+00 0.  1.
          5    1    5    5  502    0 -0.14332070949E+02  0.87442131043E+02 -0.26452631490E+03  0.27901217861E+03  0.47000000000E+01 0. -1.
         11    1    4    4    0    0 -0.22027913916E+02  0.86165291013E+01 -0.16200642083E+03  0.16372401765E+03  0.00000000000E+00 0. -1.
        -12    1    4    4    0    0  0.83225687079E+01 -0.12337583979E+02  0.29760169231E+01  0.15176883905E+02  0.00000000000E+00 0.  1.
         -5    1    3    3    0  504 -0.95781990752E+02 -0.12933305003E+03 -0.40180950970E+03  0.43286741581E+03  0.47000000000E+01 0.  1.
<mgrwt>
<rscale>  2 0.24429113E+03</rscale>
<asrwt>0</asrwt>
<pdfrwt beam="1">  1       21 0.73855087E-02 0.24437485E+03</pdfrwt>
<pdfrwt beam="2">  1       21 0.19181719E+00 0.24437485E+03</pdfrwt>
<totfact> 0.20197508E+04</totfact>
</mgrwt>
</event>
<event>
12    1  0.2742799E-001  0.1893942E+03  0.7546771E-02  0.1159363E+00
         21   -1    0    0  502  503  0.00000000000E+00  0.00000000000E+00  0.61941502259E+02  0.61941502259E+02  0.00000000000E+00 0. -1.
         21   -1    0    0  503  504 -0.00000000000E+00 -0.00000000000E+00 -0.69761900722E+03  0.69761900722E+03  0.00000000000E+00 0. -1.
         -6    2    1    2    0  504 -0.60704384567E+02  0.47530031180E+02 -0.47640198814E+03  0.51209564471E+03  0.17128621909E+03 0.  0.
        -24    2    3    3    0    0 -0.14605754790E+02  0.69540606778E+02 -0.42887598362E+03  0.44216453424E+03  0.80781445557E+02 0.  0.
          6    2    1    2  502    0  0.60704384567E+02 -0.47530031180E+02 -0.15927551682E+03  0.24746486477E+03  0.17299145317E+03 0.  0.
         24    2    5    5    0    0  0.24612227376E+02  0.19611347731E+02 -0.14654657563E+03  0.17003925844E+03  0.80293735027E+02 0.  0.
          2    1    6    6  501    0  0.13007245268E+02  0.49508353674E+02 -0.11056680815E+03  0.12184122692E+03  0.00000000000E+00 0. -1.
         -1    1    6    6    0  501  0.11604982108E+02 -0.29897005943E+02 -0.35979767477E+02  0.48198031513E+02  0.00000000000E+00 0.  1.
          5    1    5    5  502    0  0.36092157191E+02 -0.67141378911E+02 -0.12728941187E+02  0.77425606336E+02  0.47000000000E+01 0. -1.
         13    1    4    4    0    0 -0.43403763693E+02  0.16661965485E+02 -0.21534610002E+03  0.22030762717E+03  0.00000000000E+00 0. -1.
        -14    1    4    4    0    0  0.28798008902E+02  0.52878641293E+02 -0.21352988360E+03  0.22185690707E+03  0.00000000000E+00 0.  1.
         -5    1    3    3    0  504 -0.46098629776E+02 -0.22010575598E+02 -0.47526004519E+02  0.69931110466E+02  0.47000000000E+01 0.  1.
<mgrwt>
<rscale>  2 0.18900394E+03</rscale>
<asrwt>0</asrwt>
<pdfrwt beam="1">  1       21 0.95294614E-02 0.18939422E+03</pdfrwt>
<pdfrwt beam="2">  1       21 0.10732601E+00 0.18939422E+03</pdfrwt>
<totfact> 0.61327934E+04</totfact>
</mgrwt>
</event>
<event>
12    1  0.2742799E-001  0.1935583E+03  0.7546771E-02  0.1155564E+00
         21   -1    0    0  502  503  0.00000000000E+00  0.00000000000E+00  0.37545677512E+03  0.37545677512E+03  0.00000000000E+00 0. -1.
         21   -1    0    0  503  504 -0.00000000000E+00 -0.00000000000E+00 -0.18412713839E+03  0.18412713839E+03  0.00000000000E+00 0. -1.
         -6    2    1    2    0  504 -0.84750141973E+02  0.16379009823E+02 -0.94249244866E+02  0.21528523910E+03  0.17324536210E+03 0.  0.
        -24    2    3    3    0    0 -0.10931354368E+02  0.47099338019E+02 -0.28088341968E+01  0.93727060964E+02  0.80243568324E+02 0.  0.
          6    2    1    2  502    0  0.84750141973E+02 -0.16379009823E+02  0.28557888160E+03  0.34429867441E+03  0.17185872412E+03 0.  0.
         24    2    5    5    0    0  0.24489376897E+02 -0.71993316032E+02  0.16620070985E+03  0.19939336480E+03  0.79701134474E+02 0.  0.
          2    1    6    6  501    0 -0.22333808252E+02 -0.62398202931E+00  0.53804634842E+02  0.58259137267E+02  0.00000000000E+00 0. -1.
         -1    1    6    6    0  501  0.46823185148E+02 -0.71369334003E+02  0.11239607501E+03  0.14113422753E+03  0.00000000000E+00 0.  1.
          5    1    5    5  502    0  0.60260765076E+02  0.55614306210E+02  0.11937817175E+03  0.14490530961E+03  0.47000000000E+01 0. -1.
         13    1    4    4    0    0  0.20007906566E+02 -0.13064385328E+02  0.80358546307E+01  0.25210502748E+02  0.00000000000E+00 0. -1.
        -14    1    4    4    0    0 -0.30939260934E+02  0.60163723346E+02 -0.10844688827E+02  0.68516558216E+02  0.00000000000E+00 0.  1.
         -5    1    3    3    0  504 -0.73818787605E+02 -0.30720328196E+02 -0.91440410669E+02  0.12155817813E+03  0.47000000000E+01 0.  1.
<mgrwt>
<rscale>  2 0.19324752E+03</rscale>
<asrwt>0</asrwt>
<pdfrwt beam="1">  1       21 0.57762580E-01 0.19355830E+03</pdfrwt>
<pdfrwt beam="2">  1       21 0.28327252E-01 0.19355830E+03</pdfrwt>
<totfact> 0.33469966E+04</totfact>
</mgrwt>
</event>
<event>
12    1  0.2742799E-001  0.2258820E+03  0.7546771E-02  0.1129644E+00
         21   -1    0    0  502  503  0.00000000000E+00  0.00000000000E+00  0.16259141770E+04  0.16259141770E+04  0.00000000000E+00 0.  1.
         21   -1    0    0  503  504 -0.00000000000E+00 -0.00000000000E+00 -0.34578454243E+02  0.34578454243E+02  0.00000000000E+00 0.  1.
         -6    2    1    2    0  504  0.77668597510E+02 -0.12404467640E+03  0.54038948925E+03  0.58554580573E+03  0.17153308058E+03 0.  0.
        -24    2    3    3    0    0 -0.20740595275E+02 -0.55683068859E+02  0.17480120059E+03  0.20079320286E+03  0.78940953486E+02 0.  0.
          6    2    1    2  502    0 -0.77668597510E+02  0.12404467640E+03  0.10509462335E+04  0.10749468255E+04  0.17205580251E+03 0.  0.
         24    2    5    5    0    0 -0.11199383623E+03  0.68987665291E+02  0.84339695955E+03  0.85744214141E+03  0.81158346330E+02 0.  0.
          4    1    6    6  501    0 -0.71695570885E+02  0.57409947477E+02  0.74280014096E+03  0.74845721746E+03  0.00000000000E+00 0. -1.
         -3    1    6    6    0  501 -0.40298265343E+02  0.11577717814E+02  0.10059681859E+03  0.10898492396E+03  0.00000000000E+00 0.  1.
          5    1    5    5  502    0  0.34325238719E+02  0.55057011111E+02  0.20754927399E+03  0.21750468413E+03  0.47000000000E+01 0. -1.
         13    1    4    4    0    0 -0.14961670036E+02 -0.24427360208E+02  0.63124336791E+01  0.29332478858E+02  0.00000000000E+00 0. -1.
        -14    1    4    4    0    0 -0.57789252385E+01 -0.31255708651E+02  0.16848876691E+03  0.17146072400E+03  0.00000000000E+00 0.  1.
         -5    1    3    3    0  504  0.98409192785E+02 -0.68361607543E+02  0.36558828866E+03  0.38475260287E+03  0.47000000000E+01 0.  1.
<mgrwt>
<rscale>  2 0.22578249E+03</rscale>
<asrwt>0</asrwt>
<pdfrwt beam="1">  1       21 0.25014058E+00 0.22588203E+03</pdfrwt>
<pdfrwt beam="2">  1       21 0.53197635E-02 0.22588203E+03</pdfrwt>
<totfact> 0.15618730E+04</totfact>
</mgrwt>
</event>
<event>
12    1  0.2742799E-001  0.2181681E+03  0.7546771E-02  0.1136564E+00
         21   -1    0    0  502  503  0.00000000000E+00  0.00000000000E+00  0.21012416942E+03  0.21012416942E+03  0.00000000000E+00 0. -1.
         21   -1    0    0  503  504 -0.00000000000E+00 -0.00000000000E+00 -0.22522490827E+03  0.22522490827E+03  0.00000000000E+00 0. -1.
         -6    2    1    2    0  504 -0.33024999296E+02 -0.12858293307E+03  0.27294701607E+02  0.21309994226E+03  0.16444562445E+03 0.  0.
        -24    2    3    3    0    0  0.30490969175E+02 -0.90544427740E+02  0.52220530099E+02  0.13484016291E+03  0.79541769989E+02 0.  0.
          6    2    1    2  502    0  0.33024999296E+02  0.12858293307E+03 -0.42395440464E+02  0.22224913543E+03  0.17312736229E+03 0.  0.
         24    2    5    5    0    0 -0.17787846616E+02  0.25242362863E+02 -0.59405736498E+02  0.10574738037E+03  0.81852810317E+02 0.  0.
          2    1    6    6  501    0  0.15301260087E+02 -0.15298621862E+02  0.55467554304E+01  0.22337029501E+02  0.00000000000E+00 0. -1.
         -1    1    6    6    0  501 -0.33089106704E+02  0.40540984725E+02 -0.64952491929E+02  0.83410350872E+02  0.00000000000E+00 0.  1.
          5    1    5    5  502    0  0.50812845913E+02  0.10334057020E+03  0.17010296034E+02  0.11650175506E+03  0.47000000000E+01 0. -1.
         11    1    4    4    0    0  0.51986497104E+02 -0.55033198051E+02  0.11286356674E+02  0.76541692011E+02  0.00000000000E+00 0. -1.
        -12    1    4    4    0    0 -0.21495527929E+02 -0.35511229689E+02  0.40934173424E+02  0.58298470897E+02  0.00000000000E+00 0.  1.
         -5    1    3    3    0  504 -0.63515968471E+02 -0.38038505326E+02 -0.24925828492E+02  0.78259779353E+02  0.47000000000E+01 0.  1.
<mgrwt>
<rscale>  2 0.21644185E+03</rscale>
<asrwt>0</asrwt>
<pdfrwt beam="1">  1       21 0.32326795E-01 0.21816807E+03</pdfrwt>
<pdfrwt beam="2">  1       21 0.34649986E-01 0.21816807E+03</pdfrwt>
<totfact> 0.73103331E+04</totfact>
</mgrwt>
</event>
<event>
12    1  0.2742799E-001  0.2108731E+03  0.7546771E-02  0.1141005E+00
         21   -1    0    0  502  503  0.00000000000E+00  0.00000000000E+00  0.13706928046E+03  0.13706928046E+03  0.00000000000E+00 0. -1.
         21   -1    0    0  503  504 -0.00000000000E+00 -0.00000000000E+00 -0.32536868120E+03  0.32536868120E+03  0.00000000000E+00 0.  1.
         -6    2    1    2    0  504  0.44300754624E+02 -0.11115141367E+03 -0.76077052727E+02  0.22356283026E+03  0.17284509684E+03 0.  0.
        -24    2    3    3    0    0 -0.29085812135E+02 -0.74991390883E+02 -0.23438155220E+01  0.11332755597E+03  0.79799425417E+02 0.  0.
          6    2    1    2  502    0 -0.44300754624E+02  0.11115141367E+03 -0.11222234801E+03  0.23887513139E+03  0.17363835804E+03 0.  0.
         24    2    5    5    0    0 -0.54161256418E+02  0.16214585185E+01 -0.27700717682E+02  0.10009459758E+03  0.79470295588E+02 0.  0.
          2    1    6    6  501    0 -0.41456222701E+02 -0.36370552982E+02 -0.23024303433E+02  0.59762480483E+02  0.00000000000E+00 0. -1.
         -1    1    6    6    0  501 -0.12705033717E+02  0.37992011501E+02 -0.46764142490E+01  0.40332117101E+02  0.00000000000E+00 0.  1.
          5    1    5    5  502    0  0.98605017942E+01  0.10952995515E+03 -0.84521630331E+02  0.13878053381E+03  0.47000000000E+01 0. -1.
         13    1    4    4    0    0 -0.46991984966E+02 -0.45303366071E+02 -0.27152301970E+02  0.70695750442E+02  0.00000000000E+00 0. -1.
        -14    1    4    4    0    0  0.17906172831E+02 -0.29688024813E+02  0.24808486448E+02  0.42631805528E+02  0.00000000000E+00 0.  1.
         -5    1    3    3    0  504  0.73386566759E+02 -0.36160022785E+02 -0.73733237205E+02  0.11023527429E+03  0.47000000000E+01 0.  1.
<mgrwt>
<rscale>  2 0.21070975E+03</rscale>
<asrwt>0</asrwt>
<pdfrwt beam="1">  1       21 0.21087581E-01 0.21087312E+03</pdfrwt>
<pdfrwt beam="2">  1       21 0.50056720E-01 0.21087312E+03</pdfrwt>
<totfact> 0.78846047E+04</totfact>
</mgrwt>
</event>
<event>
12    1  0.2742799E-001  0.2595460E+03  0.7546771E-02  0.1107502E+00
         21   -1    0    0  502  503  0.00000000000E+00  0.00000000000E+00  0.73449340553E+03  0.73449340553E+03  0.00000000000E+00 0. -1.
         21   -1    0    0  503  504 -0.00000000000E+00 -0.00000000000E+00 -0.91521290173E+02  0.91521290173E+02  0.00000000000E+00 0.  1.
         -6    2    1    2    0  504 -0.52053116351E+02  0.18595334996E+03  0.31815982142E+03  0.41059685025E+03  0.17342412228E+03 0.  0.
        -24    2    3    3    0    0 -0.70903194894E+02  0.20458571310E+03  0.27209036166E+03  0.35723979318E+03  0.81881181405E+02 0.  0.
          6    2    1    2  502    0  0.52053116351E+02 -0.18595334996E+03  0.32481229394E+03  0.41541784545E+03  0.17257110054E+03 0.  0.
         24    2    5    5    0    0 -0.57717009526E+01 -0.22876876295E+02  0.10372754474E+03  0.13463643209E+03  0.82528184933E+02 0.  0.
          4    1    6    6  501    0 -0.31540056156E+02  0.79646190895E+01  0.83563611789E+02  0.89672111131E+02  0.00000000000E+00 0. -1.
         -3    1    6    6    0  501  0.25768355203E+02 -0.30841495385E+02  0.20163932947E+02  0.44964320959E+02  0.00000000000E+00 0.  1.
          5    1    5    5  502    0  0.57824817304E+02 -0.16307647366E+03  0.22108474920E+03  0.28078141336E+03  0.47000000000E+01 0. -1.
         13    1    4    4    0    0 -0.67852875836E+02  0.15535606089E+03  0.25257914026E+03  0.30419687788E+03  0.00000000000E+00 0. -1.
        -14    1    4    4    0    0 -0.30503190579E+01  0.49229652212E+02  0.19511221405E+02  0.53042915305E+02  0.00000000000E+00 0.  1.
         -5    1    3    3    0  504  0.18850078542E+02 -0.18632363144E+02  0.46069459756E+02  0.53357057074E+02  0.47000000000E+01 0.  1.
<mgrwt>
<rscale>  2 0.25940354E+03</rscale>
<asrwt>0</asrwt>
<pdfrwt beam="1">  1       21 0.11299898E+00 0.25954595E+03</pdfrwt>
<pdfrwt beam="2">  1       21 0.14080199E-01 0.25954595E+03</pdfrwt>
<totfact> 0.25978863E+04</totfact>
</mgrwt>
</event>
<event>
12    1  0.2742799E-001  0.2025415E+03  0.7546771E-02  0.1147839E+00
         21   -1    0    0  502  503  0.00000000000E+00  0.00000000000E+00  0.72595661478E+02  0.72595661478E+02  0.00000000000E+00 0.  1.
         21   -1    0    0  503  504 -0.00000000000E+00 -0.00000000000E+00 -0.56995247101E+03  0.56995247101E+03  0.00000000000E+00 0. -1.
         -6    2    1    2    0  504 -0.10010227981E+03  0.33898309801E+02 -0.21151089730E+03  0.29284796497E+03  0.17278168039E+03 0.  0.
        -24    2    3    3    0    0 -0.11434608497E+03  0.23265346596E+02 -0.22763733344E+03  0.26839192615E+03  0.81235256792E+02 0.  0.
          6    2    1    2  502    0  0.10010227981E+03 -0.33898309801E+02 -0.28584591223E+03  0.34970016752E+03  0.17150148628E+03 0.  0.
         24    2    5    5    0    0  0.13544137929E+03 -0.29403770595E+02 -0.26160416317E+03  0.30635498056E+03  0.78788875974E+02 0.  0.
          2    1    6    6  501    0  0.72457673722E+02 -0.32065866321E+02 -0.21141589494E+03  0.22577647109E+03  0.00000000000E+00 0. -1.
         -1    1    6    6    0  501  0.62983705568E+02  0.26620957255E+01 -0.50188268228E+02  0.80578509470E+02  0.00000000000E+00 0.  1.
          5    1    5    5  502    0 -0.35339099485E+02 -0.44945392053E+01 -0.24241749062E+02  0.43345186961E+02  0.47000000000E+01 0. -1.
         11    1    4    4    0    0 -0.63425059311E+02  0.43418635120E+02 -0.80075009208E+02  0.11099514910E+03  0.00000000000E+00 0. -1.
        -12    1    4    4    0    0 -0.50921025660E+02 -0.20153288523E+02 -0.14756232423E+03  0.15739677705E+03  0.00000000000E+00 0.  1.
         -5    1    3    3    0  504  0.14243805166E+02  0.10632963205E+02  0.16126436139E+02  0.24456038818E+02  0.47000000000E+01 0.  1.
<mgrwt>
<rscale>  2 0.20226823E+03</rscale>
<asrwt>0</asrwt>
<pdfrwt beam="1">  1       21 0.11168563E-01 0.20254153E+03</pdfrwt>
<pdfrwt beam="2">  1       21 0.87685001E-01 0.20254153E+03</pdfrwt>
<totfact> 0.74085992E+04</totfact>
</mgrwt>
</event>
<event>
12    1  0.2742799E-001  0.3088882E+03  0.7546771E-02  0.1080988E+00
         21   -1    0    0  502  503  0.00000000000E+00  0.00000000000E+00  0.42492300020E+03  0.42492300020E+03  0.00000000000E+00 0.  1.
         21   -1    0    0  503  504 -0.00000000000E+00 -0.00000000000E+00 -0.28300383945E+03  0.28300383945E+03  0.00000000000E+00 0. -1.
         -6    2    1    2    0  504  0.24514306193E+03  0.67280068880E+02 -0.90892954361E+02  0.32112794619E+03  0.17389623397E+03 0.  0.
        -24    2    3    3    0    0  0.20864490611E+03  0.10209567707E+03 -0.10672572295E+03  0.26805244795E+03  0.80656746706E+02 0.  0.
          6    2    1    2  502    0 -0.24514306193E+03 -0.67280068880E+02  0.23281211512E+03  0.38679889346E+03  0.17547129269E+03 0.  0.
         24    2    5    5    0    0 -0.39110469369E+02 -0.31420681752E+02  0.49926491114E+02  0.10894179654E+03  0.82817706219E+02 0.  0.
          4    1    6    6  501    0  0.28081645020E+01 -0.15547636614E+02 -0.20242507197E+02  0.25678276612E+02  0.00000000000E+00 0. -1.
         -3    1    6    6    0  501 -0.41918633871E+02 -0.15873045138E+02  0.70168998310E+02  0.83263519932E+02  0.00000000000E+00 0.  1.
          5    1    5    5  502    0 -0.20603259256E+03 -0.35859387128E+02  0.18288562400E+03  0.27785709692E+03  0.47000000000E+01 0. -1.
         13    1    4    4    0    0  0.72659911238E+02 -0.48163191981E+01 -0.28317445957E+02  0.78131538941E+02  0.00000000000E+00 0. -1.
        -14    1    4    4    0    0  0.13598499487E+03  0.10691199627E+03 -0.78408276995E+02  0.18992090901E+03  0.00000000000E+00 0.  1.
         -5    1    3    3    0  504  0.36498155820E+02 -0.34815608194E+02  0.15832768592E+02  0.53075498240E+02  0.47000000000E+01 0.  1.
<mgrwt>
<rscale>  2 0.30866492E+03</rscale>
<asrwt>0</asrwt>
<pdfrwt beam="1">  1       21 0.65372769E-01 0.30888817E+03</pdfrwt>
<pdfrwt beam="2">  1       21 0.43539052E-01 0.30888817E+03</pdfrwt>
<totfact> 0.10236347E+04</totfact>
</mgrwt>
</event>
<event>
12    1  0.2742799E-001  0.1999292E+03  0.7546771E-02  0.1149919E+00
         21   -1    0    0  502  503  0.00000000000E+00  0.00000000000E+00  0.66783055500E+03  0.66783055500E+03  0.00000000000E+00 0. -1.
         21   -1    0    0  503  504 -0.00000000000E+00 -0.00000000000E+00 -0.73113266670E+02  0.73113266670E+02  0.00000000000E+00 0. -1.
         -6    2    1    2    0  504 -0.90839313667E+02  0.42522003850E+02  0.13822709677E+03  0.24259157028E+03  0.17229056263E+03 0.  0.
        -24    2    3    3    0    0 -0.12898560175E+03  0.45733748586E+02  0.12164168614E+03  0.20060799678E+03  0.81963451275E+02 0.  0.
          6    2    1    2  502    0  0.90839313667E+02 -0.42522003850E+02  0.45649019156E+03  0.49835225139E+03  0.17295019444E+03 0.  0.
         24    2    5    5    0    0 -0.17634239603E+02  0.19482029742E+01  0.19661984206E+03  0.21322280780E+03  0.80559552954E+02 0.  0.
          2    1    6    6  501    0  0.71203761619E+01  0.57377486950E+01  0.18566252144E+03  0.18588758265E+03  0.00000000000E+00 0. -1.
         -1    1    6    6    0  501 -0.24754615765E+02 -0.37895457207E+01  0.10957320615E+02  0.27335225141E+02  0.00000000000E+00 0.  1.
          5    1    5    5  502    0  0.10847355327E+03 -0.44470206824E+02  0.25987034950E+03  0.28512944359E+03  0.47000000000E+01 0. -1.
         11    1    4    4    0    0 -0.14011708760E+02 -0.28421014036E+01  0.59473970452E+02  0.61168281683E+02  0.00000000000E+00 0. -1.
        -12    1    4    4    0    0 -0.11497389299E+03  0.48575849989E+02  0.62167715692E+02  0.13943971509E+03  0.00000000000E+00 0.  1.
         -5    1    3    3    0  504  0.38146288082E+02 -0.32117447363E+01  0.16585410629E+02  0.41983573507E+02  0.47000000000E+01 0.  1.
<mgrwt>
<rscale>  2 0.19978643E+03</rscale>
<asrwt>0</asrwt>
<pdfrwt beam="1">  1       21 0.10274316E+00 0.19992917E+03</pdfrwt>
<pdfrwt beam="2">  1       21 0.11248195E-01 0.19992917E+03</pdfrwt>
<totfact> 0.50504396E+04</totfact>
</mgrwt>
</event>
<event>
12    1  0.2742799E-001  0.2058807E+03  0.7546771E-02  0.1145244E+00
         21   -1    0    0  502  503  0.00000000000E+00  0.00000000000E+00  0.49180570022E+03  0.49180570022E+03  0.00000000000E+00 0. -1.
         21   -1    0    0  503  504 -0.00000000000E+00 -0.00000000000E+00 -0.90244118021E+02  0.90244118021E+02  0.00000000000E+00 0. -1.
         -6    2    1    2    0  504  0.25302038145E+02 -0.10708372677E+03  0.13435236956E+03  0.24584024739E+03  0.17401077656E+03 0.  0.
        -24    2    3    3    0    0 -0.88284121656E+01 -0.12755022393E+03  0.13913473224E+03  0.20548276807E+03  0.80732235035E+02 0.  0.
          6    2    1    2  502    0 -0.25302038145E+02  0.10708372677E+03  0.26720921264E+03  0.33620957085E+03  0.17184002601E+03 0.  0.
         24    2    5    5    0    0 -0.15395960114E+02  0.36755168085E+02  0.24618602293E+03  0.26199164139E+03  0.80275054024E+02 0.  0.
          2    1    6    6  501    0 -0.49614599093E+01  0.62046333008E+02  0.17343291270E+03  0.18426431758E+03  0.00000000000E+00 0. -1.
         -1    1    6    6    0  501 -0.10434500204E+02 -0.25291164923E+02  0.72753110234E+02  0.77727323808E+02  0.00000000000E+00 0.  1.
          5    1    5    5  502    0 -0.99060780310E+01  0.70328558682E+02  0.21023189703E+02  0.74217929461E+02  0.47000000000E+01 0. -1.
         11    1    4    4    0    0 -0.21563513597E+02 -0.30173977631E+02  0.86378923173E+02  0.94004108491E+02  0.00000000000E+00 0. -1.
        -12    1    4    4    0    0  0.12735101431E+02 -0.97376246299E+02  0.52755809062E+02  0.11147865958E+03  0.00000000000E+00 0.  1.
         -5    1    3    3    0  504  0.34130450310E+02  0.20466497164E+02 -0.47823626750E+01  0.40357479323E+02  0.47000000000E+01 0.  1.
<mgrwt>
<rscale>  2 0.20542132E+03</rscale>
<asrwt>0</asrwt>
<pdfrwt beam="1">  1       21 0.75662414E-01 0.20588071E+03</pdfrwt>
<pdfrwt beam="2">  1       21 0.13883711E-01 0.20588071E+03</pdfrwt>
<totfact> 0.69949941E+04</totfact>
</mgrwt>
</event>
<event>
12    1  0.2742799E-001  0.1890063E+03  0.7546771E-02  0.1159606E+00
         21   -1    0    0  502  503  0.00000000000E+00  0.00000000000E+00  0.10557408265E+03  0.10557408265E+03  0.00000000000E+00 0.  1.
         21   -1    0    0  503  504 -0.00000000000E+00 -0.00000000000E+00 -0.69846540136E+03  0.69846540136E+03  0.00000000000E+00 0.  1.
         -6    2    1    2    0  504  0.70933491605E+02  0.17268902465E+02 -0.58628084439E+03  0.61599401511E+03  0.17433766926E+03 0.  0.
        -24    2    3    3    0    0  0.65018011450E+01 -0.52478308874E+02 -0.22828419143E+03  0.24558908836E+03  0.73512461152E+02 0.  0.
          6    2    1    2  502    0 -0.70933491605E+02 -0.17268902465E+02 -0.66104743228E+01  0.18804546890E+03  0.17316935289E+03 0.  0.
         24    2    5    5    0    0  0.11864270295E+02 -0.51137220432E+02 -0.16586030961E+02  0.97911490472E+02  0.80967816571E+02 0.  0.
          4    1    6    6  501    0  0.41631874337E+02 -0.38214832056E+02 -0.28563365861E+02  0.63320235464E+02  0.00000000000E+00 0. -1.
         -3    1    6    6    0  501 -0.29767604042E+02 -0.12922388376E+02  0.11977334900E+02  0.34591255008E+02  0.00000000000E+00 0.  1.
          5    1    5    5  502    0 -0.82797761901E+02  0.33868317967E+02  0.99755566381E+01  0.90133978432E+02  0.47000000000E+01 0. -1.
         13    1    4    4    0    0  0.26337166496E+02 -0.23175485695E+02 -0.36722679418E+02  0.50786855188E+02  0.00000000000E+00 0. -1.
        -14    1    4    4    0    0 -0.19835365351E+02 -0.29302823180E+02 -0.19156151201E+03  0.19480223317E+03  0.00000000000E+00 0.  1.
         -5    1    3    3    0  504  0.64431690460E+02  0.69747211339E+02 -0.35799665297E+03  0.37040492675E+03  0.47000000000E+01 0.  1.
<mgrwt>
<rscale>  2 0.18873649E+03</rscale>
<asrwt>0</asrwt>
<pdfrwt beam="1">  1       21 0.16242166E-01 0.18900634E+03</pdfrwt>
<pdfrwt beam="2">  1       21 0.10745622E+00 0.18900634E+03</pdfrwt>
<totfact> 0.23494150E+04</totfact>
</mgrwt>
</event>
<event>
12    1  0.2742799E-001  0.2210327E+03  0.7546771E-02  0.1135679E+00
         21   -1    0    0  502  503  0.00000000000E+00  0.00000000000E+00  0.30005349571E+03  0.30005349571E+03  0.00000000000E+00 0.  1.
         21   -1    0    0  503  504 -0.00000000000E+00 -0.00000000000E+00 -0.54125256557E+03  0.54125256557E+03  0.00000000000E+00 0. -1.
         -6    2    1    2    0  504 -0.33523291286E+02 -0.11014619463E+03 -0.47783500003E+03  0.52648051665E+03  0.18867817018E+03 0.  0.
        -24    2    3    3    0    0  0.51995212422E+02 -0.92195521608E+02 -0.29932499176E+03  0.32767519933E+03  0.81068299892E+02 0.  0.
          6    2    1    2  502    0  0.33523291286E+02  0.11014619463E+03  0.23663593016E+03  0.31482554463E+03  0.17280788425E+03 0.  0.
         24    2    5    5    0    0  0.35558333117E+02  0.13533921703E+03  0.23944003443E+03  0.28896470989E+03  0.81166340020E+02 0.  0.
          2    1    6    6  501    0  0.53973507419E+02  0.64539703492E+02  0.16130717405E+03  0.18192997892E+03  0.00000000000E+00 0. -1.
         -1    1    6    6    0  501 -0.18415174302E+02  0.70799513542E+02  0.78132860374E+02  0.10703473096E+03  0.00000000000E+00 0.  1.
          5    1    5    5  502    0 -0.20350418309E+01 -0.25193022401E+02 -0.28041042639E+01  0.25860834745E+02  0.47000000000E+01 0. -1.
         13    1    4    4    0    0 -0.20250319144E+02 -0.65679757045E+01 -0.48584851532E+02  0.53044335500E+02  0.00000000000E+00 0. -1.
        -14    1    4    4    0    0  0.72245531566E+02 -0.85627545904E+02 -0.25074014023E+03  0.27463086383E+03  0.00000000000E+00 0.  1.
         -5    1    3    3    0  504 -0.85518503708E+02 -0.17950673024E+02 -0.17851000828E+03  0.19880531732E+03  0.47000000000E+01 0.  1.
<mgrwt>
<rscale>  2 0.21760827E+03</rscale>
<asrwt>0</asrwt>
<pdfrwt beam="1">  1       21 0.46162076E-01 0.22103268E+03</pdfrwt>
<pdfrwt beam="2">  1       21 0.83269625E-01 0.22103268E+03</pdfrwt>
<totfact> 0.55293393E+03</totfact>
</mgrwt>
</event>
<event>
12    1  0.2742799E-001  0.1943655E+03  0.7546771E-02  0.1154812E+00
         21   -1    0    0  502  503  0.00000000000E+00  0.00000000000E+00  0.14539323755E+02  0.14539323755E+02  0.00000000000E+00 0.  1.
         21   -1    0    0  503  504 -0.00000000000E+00 -0.00000000000E+00 -0.38728159978E+04  0.38728159978E+04  0.00000000000E+00 0.  1.
         -6    2    1    2    0  504 -0.80327695204E+02  0.33824566561E+02 -0.30537349131E+04  0.30599141954E+04  0.17372772944E+03 0.  0.
        -24    2    3    3    0    0  0.13319183588E+02 -0.16871520874E+02 -0.18557811031E+04  0.18572275147E+04  0.70060614770E+02 0.  0.
          6    2    1    2  502    0  0.80327695204E+02 -0.33824566561E+02 -0.80454176097E+03  0.82744112616E+03  0.17255356323E+03 0.  0.
         24    2    5    5    0    0  0.91613520223E+02 -0.78664774569E+02 -0.65722466214E+03  0.67296643014E+03  0.79739423900E+02 0.  0.
          4    1    6    6  501    0  0.41460906942E+02  0.28893529389E+01 -0.31038408438E+03  0.31315433096E+03  0.00000000000E+00 0. -1.
         -3    1    6    6    0  501  0.50152613281E+02 -0.81554127508E+02 -0.34684057777E+03  0.35981209918E+03  0.00000000000E+00 0.  1.
          5    1    5    5  502    0 -0.11285825019E+02  0.44840208008E+02 -0.14731709883E+03  0.15447469602E+03  0.47000000000E+01 0. -1.
         11    1    4    4    0    0  0.75279031204E+01 -0.21620047377E+02 -0.18258016252E+03  0.18400981365E+03  0.00000000000E+00 0. -1.
        -12    1    4    4    0    0  0.57912804680E+01  0.47485265025E+01 -0.16732009406E+04  0.16732177010E+04  0.00000000000E+00 0.  1.
         -5    1    3    3    0  504 -0.93646878792E+02  0.50696087435E+02 -0.11979538099E+04  0.12026866807E+04  0.47000000000E+01 0.  1.
<mgrwt>
<rscale>  2 0.19410282E+03</rscale>
<asrwt>0</asrwt>
<pdfrwt beam="1">  1       21 0.22368174E-02 0.19436554E+03</pdfrwt>
<pdfrwt beam="2">  1       21 0.59581828E+00 0.19436554E+03</pdfrwt>
<totfact> 0.37596092E+02</totfact>
</mgrwt>
</event>
<event>
12    1  0.2742799E-001  0.1756171E+03  0.7546771E-02  0.1172145E+00
         21   -1    0    0  502  503  0.00000000000E+00  0.00000000000E+00  0.26157817297E+03  0.26157817297E+03  0.00000000000E+00 0. -1.
         21   -1    0    0  503  504 -0.00000000000E+00 -0.00000000000E+00 -0.13753464627E+03  0.13753464627E+03  0.00000000000E+00 0. -1.
         -6    2    1    2    0  504  0.25944660985E+02 -0.14508317391E+02  0.13759307832E+03  0.22309911190E+03  0.17308304892E+03 0.  0.
        -24    2    3    3    0    0  0.32710126564E+02  0.53495436450E+02  0.54997313327E+02  0.11579378838E+03  0.80322990819E+02 0.  0.
          6    2    1    2  502    0 -0.25944660985E+02  0.14508317391E+02 -0.13549551616E+02  0.17601370733E+03  0.17295553796E+03 0.  0.
         24    2    5    5    0    0 -0.23882450579E+01  0.17164166841E+02  0.57337650174E+02  0.10112015858E+03  0.81470043606E+02 0.  0.
          2    1    6    6  501    0 -0.20539189142E+02 -0.20838100376E+02  0.50627917070E+02  0.58474530394E+02  0.00000000000E+00 0. -1.
         -1    1    6    6    0  501  0.18150944084E+02  0.38002267216E+02  0.67097331038E+01  0.42645628182E+02  0.00000000000E+00 0.  1.
          5    1    5    5  502    0 -0.23556415927E+02 -0.26558494492E+01 -0.70887201790E+02  0.74893548756E+02  0.47000000000E+01 0. -1.
         11    1    4    4    0    0  0.39465638399E+02  0.52381601748E+01 -0.31411648568E+01  0.39935471112E+02  0.00000000000E+00 0. -1.
        -12    1    4    4    0    0 -0.67555118353E+01  0.48257276275E+02  0.58138478184E+02  0.75858317271E+02  0.00000000000E+00 0.  1.
         -5    1    3    3    0  504 -0.67654655790E+01 -0.68003753842E+02  0.82595764991E+02  0.10730532352E+03  0.47000000000E+01 0.  1.
<mgrwt>
<rscale>  2 0.17558565E+03</rscale>
<asrwt>0</asrwt>
<pdfrwt beam="1">  1       21 0.40242796E-01 0.17561708E+03</pdfrwt>
<pdfrwt beam="2">  1       21 0.21159176E-01 0.17561708E+03</pdfrwt>
<totfact> 0.12433552E+05</totfact>
</mgrwt>
</event>
<event>
12    1  0.2742799E-001  0.1788703E+03  0.7546771E-02  0.1169000E+00
         21   -1    0    0  502  503  0.00000000000E+00  0.00000000000E+00  0.97494221207E+02  0.97494221207E+02  0.00000000000E+00 0.  1.
         21   -1    0    0  503  504 -0.00000000000E+00 -0.00000000000E+00 -0.33869993751E+03  0.33869993751E+03  0.00000000000E+00 0.  1.
         -6    2    1    2    0  504  0.10653637661E+02  0.45798706905E+02 -0.80682083785E+02  0.19585599792E+03  0.17215966929E+03 0.  0.
        -24    2    3    3    0    0  0.36650413101E+02 -0.21488295686E+02 -0.81280247240E+02  0.12356615873E+03  0.82807713168E+02 0.  0.
          6    2    1    2  502    0 -0.10653637661E+02 -0.45798706905E+02 -0.16052363252E+03  0.24033816079E+03  0.17257918005E+03 0.  0.
         24    2    5    5    0    0 -0.11727181225E+02 -0.54524361523E+02 -0.27835583552E+02  0.10727615313E+03  0.87309338219E+02 0.  0.
          2    1    6    6  501    0 -0.18140129096E+02  0.13484015187E+02  0.14553409884E+02  0.26882795399E+02  0.00000000000E+00 0. -1.
         -1    1    6    6    0  501  0.64129478706E+01 -0.68008376710E+02 -0.42388993437E+02  0.80393357734E+02  0.00000000000E+00 0.  1.
          5    1    5    5  502    0  0.10735435647E+01  0.87256546172E+01 -0.13268804897E+03  0.13306200766E+03  0.47000000000E+01 0. -1.
         11    1    4    4    0    0  0.32896066849E+02 -0.29400948851E+01  0.65925019186E+01  0.33678724050E+02  0.00000000000E+00 0. -1.
        -12    1    4    4    0    0  0.37543462516E+01 -0.18548200801E+02 -0.87872749159E+02  0.89887434681E+02  0.00000000000E+00 0.  1.
         -5    1    3    3    0  504 -0.25996775440E+02  0.67287002592E+02  0.59816345543E+00  0.72289839193E+02  0.47000000000E+01 0.  1.
<mgrwt>
<rscale>  2 0.17876906E+03</rscale>
<asrwt>0</asrwt>
<pdfrwt beam="1">  1       21 0.14999111E-01 0.17887033E+03</pdfrwt>
<pdfrwt beam="2">  1       21 0.52107683E-01 0.17887033E+03</pdfrwt>
<totfact> 0.13776485E+05</totfact>
</mgrwt>
</event>
<event>
12    1  0.2742799E-001  0.3747198E+03  0.7546771E-02  0.1052924E+00
         21   -1    0    0  502  503  0.00000000000E+00  0.00000000000E+00  0.55809330354E+03  0.55809330354E+03  0.00000000000E+00 0. -1.
         21   -1    0    0  503  504 -0.00000000000E+00 -0.00000000000E+00 -0.39189804914E+03  0.39189804914E+03  0.00000000000E+00 0. -1.
         -6    2    1    2    0  504  0.33203614989E+03  0.16248088321E+02 -0.20127978797E+03  0.42515533406E+03  0.17242824545E+03 0.  0.
        -24    2    3    3    0    0  0.25228976767E+03 -0.45200474604E+02 -0.11635448760E+03  0.29336076662E+03  0.82637538894E+02 0.  0.
          6    2    1    2  502    0 -0.33203614989E+03 -0.16248088321E+02  0.36747504237E+03  0.52483601862E+03  0.17292464967E+03 0.  0.
         24    2    5    5    0    0 -0.19129269335E+03 -0.76042020778E+02  0.20734579054E+03  0.30336931184E+03  0.81641772759E+02 0.  0.
          2    1    6    6  501    0 -0.13110352651E+03 -0.71330638529E+02  0.98265966897E+02  0.17869637631E+03  0.00000000000E+00 0. -1.
         -1    1    6    6    0  501 -0.60189166836E+02 -0.47113822493E+01  0.10907982364E+03  0.12467293553E+03  0.00000000000E+00 0.  1.
          5    1    5    5  502    0 -0.14074345654E+03  0.59793932457E+02  0.16012925183E+03  0.22146670677E+03  0.47000000000E+01 0. -1.
         13    1    4    4    0    0  0.24812337880E+03 -0.40710828557E+02 -0.12653113952E+03  0.28148305799E+03  0.00000000000E+00 0. -1.
        -14    1    4    4    0    0  0.41663888741E+01 -0.44896460465E+01  0.10176651928E+02  0.11877708632E+02  0.00000000000E+00 0.  1.
         -5    1    3    3    0  504  0.79746382216E+02  0.61448562925E+02 -0.84925300374E+02  0.13179456744E+03  0.47000000000E+01 0.  1.
<mgrwt>
<rscale>  2 0.37466260E+03</rscale>
<asrwt>0</asrwt>
<pdfrwt beam="1">  1       21 0.85860508E-01 0.37471981E+03</pdfrwt>
<pdfrwt beam="2">  1       21 0.60292008E-01 0.37471981E+03</pdfrwt>
<totfact> 0.26856736E+03</totfact>
</mgrwt>
</event>
<event>
12    1  0.2742799E-001  0.1917245E+03  0.7546771E-02  0.1157131E+00
         21   -1    0    0  502  503  0.00000000000E+00  0.00000000000E+00  0.28786196396E+03  0.28786196396E+03  0.00000000000E+00 0. -1.
         21   -1    0    0  503  504 -0.00000000000E+00 -0.00000000000E+00 -0.15509262026E+03  0.15509262026E+03  0.00000000000E+00 0. -1.
         -6    2    1    2    0  504 -0.17181353352E+02  0.81028450392E+02  0.16069544638E+03  0.25016257354E+03  0.17290887206E+03 0.  0.
        -24    2    3    3    0    0 -0.18356518376E+02  0.73494893652E+02  0.18811685912E+03  0.22131540095E+03  0.88623320022E+02 0.  0.
          6    2    1    2  502    0  0.17181353352E+02 -0.81028450392E+02 -0.27926102681E+02  0.19279201068E+03  0.17183737514E+03 0.  0.
         24    2    5    5    0    0  0.77800908703E+01 -0.29063294879E+02 -0.82039277132E+02  0.11703525010E+03  0.77856289736E+02 0.  0.
          2    1    6    6  501    0 -0.21160071864E+02 -0.31381452597E+02 -0.96777000793E+01  0.39066636497E+02  0.00000000000E+00 0. -1.
         -1    1    6    6    0  501  0.28940162735E+02  0.23181577172E+01 -0.72361577052E+02  0.77968613607E+02  0.00000000000E+00 0.  1.
          5    1    5    5  502    0  0.94012624814E+01 -0.51965155512E+02  0.54113174451E+02  0.75756760575E+02  0.47000000000E+01 0. -1.
         11    1    4    4    0    0  0.29736833241E+02  0.33219566783E+02  0.12330283607E+03  0.13111601066E+03  0.00000000000E+00 0. -1.
        -12    1    4    4    0    0 -0.48093351618E+02  0.40275326869E+02  0.64814023046E+02  0.90199390284E+02  0.00000000000E+00 0.  1.
         -5    1    3    3    0  504  0.11751650246E+01  0.75335567403E+01 -0.27421412740E+02  0.28847172593E+02  0.47000000000E+01 0.  1.
<mgrwt>
<rscale>  2 0.19148260E+03</rscale>
<asrwt>0</asrwt>
<pdfrwt beam="1">  1       21 0.44286456E-01 0.19172451E+03</pdfrwt>
<pdfrwt beam="2">  1       21 0.23860403E-01 0.19172451E+03</pdfrwt>
<totfact> 0.81094041E+04</totfact>
</mgrwt>
</event>
<event>
12    1  0.2742799E-001  0.1997643E+03  0.7546771E-02  0.1150171E+00
         21   -1    0    0  502  503  0.00000000000E+00  0.00000000000E+00  0.40930031933E+03  0.40930031933E+03  0.00000000000E+00 0. -1.
         21   -1    0    0  503  504 -0.00000000000E+00 -0.00000000000E+00 -0.30413781898E+03  0.30413781898E+03  0.00000000000E+00 0. -1.
         -6    2    1    2    0  504  0.41751189104E+01  0.96006747831E+02 -0.24178747651E+03  0.31363506253E+03  0.17513149747E+03 0.  0.
        -24    2    3    3    0    0  0.29463453692E+01  0.12161786658E+03 -0.24661018483E+03  0.28712491724E+03  0.82610825019E+02 0.  0.
          6    2    1    2  502    0 -0.41751189104E+01 -0.96006747831E+02  0.34694997685E+03  0.39980307578E+03  0.17387778960E+03 0.  0.
         24    2    5    5    0    0 -0.50547102517E+02 -0.14910281420E+02  0.23242890419E+03  0.25193771874E+03  0.81682877989E+02 0.  0.
          4    1    6    6  501    0 -0.28815577042E+02 -0.46856459334E+02  0.16837963885E+03  0.17713714472E+03  0.00000000000E+00 0. -1.
         -3    1    6    6    0  501 -0.21731525474E+02  0.31946177914E+02  0.64049265338E+02  0.74800574016E+02  0.00000000000E+00 0.  1.
          5    1    5    5  502    0  0.46371983606E+02 -0.81096466411E+02  0.11452107266E+03  0.14786535704E+03  0.47000000000E+01 0. -1.
         13    1    4    4    0    0 -0.16306151811E+02  0.84172532464E+02 -0.87364397481E+02  0.12240687789E+03  0.00000000000E+00 0. -1.
        -14    1    4    4    0    0  0.19252497181E+02  0.37445334117E+02 -0.15924578735E+03  0.16471803934E+03  0.00000000000E+00 0.  1.
         -5    1    3    3    0  504  0.12287735412E+01 -0.25611118750E+02  0.48227083248E+01  0.26510145296E+02  0.47000000000E+01 0.  1.
<mgrwt>
<rscale>  2 0.19948917E+03</rscale>
<asrwt>0</asrwt>
<pdfrwt beam="1">  1       21 0.62969280E-01 0.19976428E+03</pdfrwt>
<pdfrwt beam="2">  1       21 0.46790433E-01 0.19976428E+03</pdfrwt>
<totfact> 0.10160344E+04</totfact>
</mgrwt>
</event>
<event>
12    1  0.2742799E-001  0.1920184E+03  0.7546771E-02  0.1157270E+00
         21   -1    0    0  502  503  0.00000000000E+00  0.00000000000E+00  0.85090441581E+03  0.85090441581E+03  0.00000000000E+00 0. -1.
         21   -1    0    0  503  504 -0.00000000000E+00 -0.00000000000E+00 -0.64146487116E+02  0.64146487116E+02  0.00000000000E+00 0. -1.
         -6    2    1    2    0  504  0.44334436602E+02 -0.62689145242E+02  0.13080276710E+03  0.23233685713E+03  0.17599880709E+03 0.  0.
        -24    2    3    3    0    0 -0.19451143313E+02 -0.77509099267E+02  0.33761465716E+02  0.11517314510E+03  0.75756249501E+02 0.  0.
          6    2    1    2  502    0 -0.44334436602E+02  0.62689145242E+02  0.65595516159E+03  0.68271404580E+03  0.17299081800E+03 0.  0.
         24    2    5    5    0    0  0.10753342221E+02 -0.26210309758E+02  0.25897059010E+03  0.27215757407E+03  0.78748738917E+02 0.  0.
          2    1    6    6  501    0  0.19809689200E+02  0.24560291274E+02  0.83405848511E+02  0.89174925060E+02  0.00000000000E+00 0. -1.
         -1    1    6    6    0  501 -0.90563469791E+01 -0.50770601032E+02  0.17556474159E+03  0.18298264901E+03  0.00000000000E+00 0.  1.
          5    1    5    5  502    0 -0.55087778823E+02  0.88899455000E+02  0.39698457149E+03  0.41055647172E+03  0.47000000000E+01 0. -1.
         11    1    4    4    0    0  0.19768858138E+02  0.33019293311E+01  0.91788885904E+01  0.22044556815E+02  0.00000000000E+00 0. -1.
        -12    1    4    4    0    0 -0.39220001452E+02 -0.80811028598E+02  0.24582577126E+02  0.93128588280E+02  0.00000000000E+00 0.  1.
         -5    1    3    3    0  504  0.63785579916E+02  0.14819954025E+02  0.97041301388E+02  0.11716371203E+03  0.47000000000E+01 0.  1.
<mgrwt>
<rscale>  2 0.19132632E+03</rscale>
<asrwt>0</asrwt>
<pdfrwt beam="1">  1       21 0.13090836E+00 0.19201836E+03</pdfrwt>
<pdfrwt beam="2">  1       21 0.98686909E-02 0.19201836E+03</pdfrwt>
<totfact> 0.35291930E+04</totfact>
</mgrwt>
</event>
<event>
12    1  0.2742799E-001  0.2167902E+03  0.7546771E-02  0.1136407E+00
         21   -1    0    0  502  503  0.00000000000E+00  0.00000000000E+00  0.50606889813E+03  0.50606889813E+03  0.00000000000E+00 0. -1.
         21   -1    0    0  503  504 -0.00000000000E+00 -0.00000000000E+00 -0.94209333748E+02  0.94209333748E+02  0.00000000000E+00 0. -1.
         -6    2    1    2    0  504  0.82146845400E+02  0.10394879788E+03  0.16675872420E+03  0.27305904854E+03  0.17087807088E+03 0.  0.
        -24    2    3    3    0    0  0.21708016184E+02  0.12593970943E+03  0.11378777641E+03  0.18960568686E+03  0.81673802708E+02 0.  0.
          6    2    1    2  502    0 -0.82146845400E+02 -0.10394879788E+03  0.24510084018E+03  0.32721918333E+03  0.17159404211E+03 0.  0.
         24    2    5    5    0    0  0.16236479572E+02 -0.55859432787E+02  0.16261141517E+03  0.19003878783E+03  0.79299237320E+02 0.  0.
          4    1    6    6  501    0  0.39901985265E+02 -0.50720183036E+02  0.14872486582E+03  0.16212276555E+03  0.00000000000E+00 0. -1.
         -3    1    6    6    0  501 -0.23665505693E+02 -0.51392497504E+01  0.13886549347E+02  0.27916022290E+02  0.00000000000E+00 0.  1.
          5    1    5    5  502    0 -0.98383324972E+02 -0.48089365098E+02  0.82489425018E+02  0.13718039549E+03  0.47000000000E+01 0. -1.
         11    1    4    4    0    0  0.84251809822E+01  0.58232928815E+02  0.10458084487E+03  0.11999671156E+03  0.00000000000E+00 0. -1.
        -12    1    4    4    0    0  0.13282835201E+02  0.67706780619E+02  0.92069315422E+01  0.69608975292E+02  0.00000000000E+00 0.  1.
         -5    1    3    3    0  504  0.60438829216E+02 -0.21990911550E+02  0.52970947786E+02  0.83453361689E+02  0.47000000000E+01 0.  1.
<mgrwt>
<rscale>  2 0.21664845E+03</rscale>
<asrwt>0</asrwt>
<pdfrwt beam="1">  1       21 0.77856752E-01 0.21679016E+03</pdfrwt>
<pdfrwt beam="2">  1       21 0.14493744E-01 0.21679016E+03</pdfrwt>
<totfact> 0.60371345E+04</totfact>
</mgrwt>
</event>
<event>
12    1  0.2742799E-001  0.1988339E+03  0.7546771E-02  0.1152535E+00
         21   -1    0    0  502  503  0.00000000000E+00  0.00000000000E+00  0.21340371835E+03  0.21340371835E+03  0.00000000000E+00 0.  1.
         21   -1    0    0  503  504 -0.00000000000E+00 -0.00000000000E+00 -0.27709848782E+03  0.27709848782E+03  0.00000000000E+00 0. -1.
         -6    2    1    2    0  504 -0.20839241862E+02  0.96038798815E+02 -0.17835848187E+03  0.26097507561E+03  0.16321310351E+03 0.  0.
        -24    2    3    3    0    0 -0.64386244214E+02  0.82990349069E+02 -0.87016212623E+02  0.15883740575E+03  0.81391115745E+02 0.  0.
          6    2    1    2  502    0  0.20839241862E+02 -0.96038798815E+02  0.11466371240E+03  0.22952713057E+03  0.17285025845E+03 0.  0.
         24    2    5    5    0    0 -0.77473236937E+01 -0.12286078723E+02  0.11490049505E+03  0.14090514729E+03  0.80256887649E+02 0.  0.
          4    1    6    6  501    0 -0.43894877160E+02 -0.93802823666E+01  0.56472650543E+02  0.72138132756E+02  0.00000000000E+00 0. -1.
         -3    1    6    6    0  501  0.36147553467E+02 -0.29057963560E+01  0.58427844512E+02  0.68767014537E+02  0.00000000000E+00 0.  1.
          5    1    5    5  502    0  0.28586565556E+02 -0.83752720093E+02 -0.23678265816E+00  0.88621983273E+02  0.47000000000E+01 0. -1.
         13    1    4    4    0    0 -0.23616749335E+02  0.61948954447E+02 -0.91218445875E+02  0.11276625681E+03  0.00000000000E+00 0. -1.
        -14    1    4    4    0    0 -0.40769494879E+02  0.21041394622E+02  0.42022332518E+01  0.46071148940E+02  0.00000000000E+00 0.  1.
         -5    1    3    3    0  504  0.43547002352E+02  0.13048449747E+02 -0.91342269244E+02  0.10213766986E+03  0.47000000000E+01 0.  1.
<mgrwt>
<rscale>  2 0.19672094E+03</rscale>
<asrwt>0</asrwt>
<pdfrwt beam="1">  1       21 0.32831341E-01 0.19883394E+03</pdfrwt>
<pdfrwt beam="2">  1       21 0.42630537E-01 0.19883394E+03</pdfrwt>
<totfact> 0.47125381E+04</totfact>
</mgrwt>
</event>
<event>
12    1  0.2742799E-001  0.1925233E+03  0.7546771E-02  0.1156549E+00
         21   -1    0    0  502  503  0.00000000000E+00  0.00000000000E+00  0.30403900274E+03  0.30403900274E+03  0.00000000000E+00 0.  1.
         21   -1    0    0  503  504 -0.00000000000E+00 -0.00000000000E+00 -0.12681855401E+03  0.12681855401E+03  0.00000000000E+00 0.  1.
         -6    2    1    2    0  504  0.41540988188E+02  0.69919137363E+02  0.41855873414E+02  0.19550931475E+03  0.17279362993E+03 0.  0.
        -24    2    3    3    0    0  0.70685367311E+02 -0.88694892275E+00  0.52085083810E+02  0.11811665725E+03  0.79003043824E+02 0.  0.
          6    2    1    2  502    0 -0.41540988188E+02 -0.69919137363E+02  0.13536457532E+03  0.23534824200E+03  0.17450182605E+03 0.  0.
         24    2    5    5    0    0 -0.71777029335E+02 -0.48064422810E+00  0.11235157540E+03  0.15605378647E+03  0.81103235558E+02 0.  0.
          4    1    6    6  501    0 -0.23649301110E+02 -0.37201910213E+02  0.27985102946E+02  0.52215299993E+02  0.00000000000E+00 0. -1.
         -3    1    6    6    0  501 -0.48127728225E+02  0.36721265985E+02  0.84366472453E+02  0.10383848648E+03  0.00000000000E+00 0.  1.
          5    1    5    5  502    0  0.30236041147E+02 -0.69438493135E+02  0.23012999922E+02  0.79294455534E+02  0.47000000000E+01 0. -1.
         13    1    4    4    0    0  0.53355660084E+01  0.28285267806E+02 -0.13302882077E+01  0.28814827888E+02  0.00000000000E+00 0. -1.
        -14    1    4    4    0    0  0.65349801303E+02 -0.29172216729E+02  0.53415372018E+02  0.89301829359E+02  0.00000000000E+00 0.  1.
         -5    1    3    3    0  504 -0.29144379123E+02  0.70806086286E+02 -0.10229210396E+02  0.77392657500E+02  0.47000000000E+01 0.  1.
<mgrwt>
<rscale>  2 0.19213541E+03</rscale>
<asrwt>0</asrwt>
<pdfrwt beam="1">  1       21 0.46775231E-01 0.19252331E+03</pdfrwt>
<pdfrwt beam="2">  1       21 0.19510547E-01 0.19252331E+03</pdfrwt>
<totfact> 0.10579611E+05</totfact>
</mgrwt>
</event>
<event>
12    1  0.2742799E-001  0.2070339E+03  0.7546771E-02  0.1144654E+00
         21   -1    0    0  502  503  0.00000000000E+00  0.00000000000E+00  0.51969208837E+02  0.51969208837E+02  0.00000000000E+00 0.  1.
         21   -1    0    0  503  504 -0.00000000000E+00 -0.00000000000E+00 -0.82659589322E+03  0.82659589322E+03  0.00000000000E+00 0.  1.
         -6    2    1    2    0  504  0.71110382591E+02 -0.90461268108E+02 -0.44479471035E+03  0.48913966492E+03  0.16785514559E+03 0.  0.
        -24    2    3    3    0    0 -0.22238155142E+02 -0.28080715326E+02 -0.23380048570E+03  0.25008750388E+03  0.81228260880E+02 0.  0.
          6    2    1    2  502    0 -0.71110382591E+02  0.90461268108E+02 -0.32983197403E+03  0.38942543714E+03  0.17211366144E+03 0.  0.
         24    2    5    5    0    0 -0.92031682378E+02  0.40692417750E+02 -0.13204758747E+03  0.18435132171E+03  0.80144500971E+02 0.  0.
          2    1    6    6  501    0 -0.42807810993E+02 -0.22073714762E+02 -0.40502169585E+02  0.62929987339E+02  0.00000000000E+00 0. -1.
         -1    1    6    6    0  501 -0.49223871385E+02  0.62766132512E+02 -0.91545417887E+02  0.12142133437E+03  0.00000000000E+00 0.  1.
          5    1    5    5  502    0  0.20921299787E+02  0.49768850358E+02 -0.19778438656E+03  0.20507411543E+03  0.47000000000E+01 0. -1.
         13    1    4    4    0    0 -0.11384917844E+02  0.23847913790E+02 -0.13866202461E+03  0.14115770052E+03  0.00000000000E+00 0. -1.
        -14    1    4    4    0    0 -0.10853237298E+02 -0.51928629116E+02 -0.95138461083E+02  0.10892980335E+03  0.00000000000E+00 0.  1.
         -5    1    3    3    0  504  0.93348537733E+02 -0.62380552782E+02 -0.21099422465E+03  0.23905216104E+03  0.47000000000E+01 0.  1.
<mgrwt>
<rscale>  2 0.20614660E+03</rscale>
<asrwt>0</asrwt>
<pdfrwt beam="1">  1       21 0.79952631E-02 0.20703391E+03</pdfrwt>
<pdfrwt beam="2">  1       21 0.12716860E+00 0.20703391E+03</pdfrwt>
<totfact> 0.54470414E+04</totfact>
</mgrwt>
</event>
<event>
12    1  0.2742799E-001  0.2005780E+03  0.7546771E-02  0.1149266E+00
         21   -1    0    0  502  503  0.00000000000E+00  0.00000000000E+00  0.25735932124E+03  0.25735932124E+03  0.00000000000E+00 0.  1.
         21   -1    0    0  503  504 -0.00000000000E+00 -0.00000000000E+00 -0.40287358074E+03  0.40287358074E+03  0.00000000000E+00 0.  1.
         -6    2    1    2    0  504  0.98694599461E+02 -0.24819356480E+02 -0.33103474489E+03  0.38706014559E+03  0.17284365640E+03 0.  0.
        -24    2    3    3    0    0  0.59784506204E+02  0.48494033260E+02 -0.24702029831E+03  0.26886807433E+03  0.73110568151E+02 0.  0.
          6    2    1    2  502    0 -0.98694599461E+02  0.24819356480E+02  0.18552048538E+03  0.27317275639E+03  0.17276828390E+03 0.  0.
         24    2    5    5    0    0 -0.61303732705E+02  0.16670456145E+02  0.20569030442E+03  0.22965961937E+03  0.79993672781E+02 0.  0.
          2    1    6    6  501    0 -0.48231384192E+02  0.23487474134E+02  0.50196571051E+02  0.73468521202E+02  0.00000000000E+00 0. -1.
         -1    1    6    6    0  501 -0.13072348512E+02 -0.68170179888E+01  0.15549373337E+03  0.15619109817E+03  0.00000000000E+00 0.  1.
          5    1    5    5  502    0 -0.37390866756E+02  0.81489003355E+01 -0.20169819040E+02  0.43513137023E+02  0.47000000000E+01 0. -1.
         13    1    4    4    0    0 -0.14045072071E+02  0.23716789656E+02 -0.51564646491E+02  0.58469333234E+02  0.00000000000E+00 0. -1.
        -14    1    4    4    0    0  0.73829578275E+02  0.24777243605E+02 -0.19545565182E+03  0.21039874110E+03  0.00000000000E+00 0.  1.
         -5    1    3    3    0  504  0.38910093257E+02 -0.73313389740E+02 -0.84014446584E+02  0.11819207125E+03  0.47000000000E+01 0.  1.
<mgrwt>
<rscale>  2 0.20056181E+03</rscale>
<asrwt>0</asrwt>
<pdfrwt beam="1">  1       21 0.39593742E-01 0.20057805E+03</pdfrwt>
<pdfrwt beam="2">  1       21 0.61980551E-01 0.20057805E+03</pdfrwt>
<totfact> 0.14781863E+04</totfact>
</mgrwt>
</event>
<event>
12    1  0.2742799E-001  0.2323506E+03  0.7546771E-02  0.1125870E+00
         21   -1    0    0  502  503  0.00000000000E+00  0.00000000000E+00  0.38713000315E+03  0.38713000315E+03  0.00000000000E+00 0.  1.
         21   -1    0    0  503  504 -0.00000000000E+00 -0.00000000000E+00 -0.17585259566E+03  0.17585259566E+03  0.00000000000E+00 0.  1.
         -6    2    1    2    0  504 -0.12972948747E+03 -0.86371563171E+02 -0.28426380142E+02  0.22914922386E+03  0.16556424995E+03 0.  0.
        -24    2    3    3    0    0 -0.92024789666E+02 -0.49222727113E+02 -0.81339295346E+02  0.15415891213E+03  0.79104048217E+02 0.  0.
          6    2    1    2  502    0  0.12972948747E+03  0.86371563171E+02  0.23970378763E+03  0.33383337495E+03  0.17232826112E+03 0.  0.
         24    2    5    5    0    0  0.49219275939E+02  0.11026091129E+03  0.12050973085E+03  0.18795017411E+03  0.78883883247E+02 0.  0.
          4    1    6    6  501    0  0.54813561253E+01  0.96028418658E+02  0.66118276145E+02  0.11671816009E+03  0.00000000000E+00 0. -1.
         -3    1    6    6    0  501  0.43737919813E+02  0.14232492633E+02  0.54391454709E+02  0.71232014021E+02  0.00000000000E+00 0.  1.
          5    1    5    5  502    0  0.80510211536E+02 -0.23889348120E+02  0.11919405678E+03  0.14588320084E+03  0.47000000000E+01 0. -1.
         13    1    4    4    0    0 -0.75812097041E+01 -0.78411693227E+01  0.15643762042E+02  0.19070552372E+02  0.00000000000E+00 0. -1.
        -14    1    4    4    0    0 -0.84443579962E+02 -0.41381557790E+02 -0.96983057388E+02  0.13508835976E+03  0.00000000000E+00 0.  1.
         -5    1    3    3    0  504 -0.37704697809E+02 -0.37148836059E+02  0.52912915204E+02  0.74990311726E+02  0.47000000000E+01 0.  1.
<mgrwt>
<rscale>  2 0.23109768E+03</rscale>
<asrwt>0</asrwt>
<pdfrwt beam="1">  1       21 0.59558462E-01 0.23235063E+03</pdfrwt>
<pdfrwt beam="2">  1       21 0.27054245E-01 0.23235063E+03</pdfrwt>
<totfact> 0.33587223E+04</totfact>
</mgrwt>
</event>
<event>
12    1  0.2742799E-001  0.3688815E+03  0.7546771E-02  0.1055898E+00
         21   -1    0    0  502  503  0.00000000000E+00  0.00000000000E+00  0.56123342883E+03  0.56123342883E+03  0.00000000000E+00 0. -1.
         21   -1    0    0  503  504 -0.00000000000E+00 -0.00000000000E+00 -0.26090728579E+03  0.26090728579E+03  0.00000000000E+00 0.  1.
         -6    2    1    2    0  504 -0.37729329514E+02  0.32350923959E+03  0.24833134618E+02  0.36173878357E+03  0.15542371942E+03 0.  0.
        -24    2    3    3    0    0 -0.19287553927E+02  0.11559364639E+03  0.52202869010E+02  0.15116769025E+03  0.79953925608E+02 0.  0.
          6    2    1    2  502    0  0.37729329514E+02 -0.32350923959E+03  0.27549300843E+03  0.46040193104E+03  0.17318143668E+03 0.  0.
         24    2    5    5    0    0 -0.26669940688E+02 -0.24447869984E+03  0.14400849367E+03  0.29395866793E+03  0.72056448614E+02 0.  0.
          2    1    6    6  501    0 -0.23143389967E+02 -0.16966769967E+02  0.14672264519E+02  0.32229848408E+02  0.00000000000E+00 0. -1.
         -1    1    6    6    0  501 -0.35265507217E+01 -0.22751192988E+03  0.12933622915E+03  0.26172881952E+03  0.00000000000E+00 0.  1.
          5    1    5    5  502    0  0.64399270202E+02 -0.79030539748E+02  0.13148451476E+03  0.16644326312E+03  0.47000000000E+01 0. -1.
         11    1    4    4    0    0 -0.43888859414E+02  0.84110234100E+02  0.14022317313E+02  0.95903017908E+02  0.00000000000E+00 0. -1.
        -12    1    4    4    0    0  0.24601305487E+02  0.31483412291E+02  0.38180551698E+02  0.55264672342E+02  0.00000000000E+00 0.  1.
         -5    1    3    3    0  504 -0.18441775587E+02  0.20791559320E+03 -0.27369734392E+02  0.21057109332E+03  0.47000000000E+01 0.  1.
<mgrwt>
<rscale>  2 0.36686599E+03</rscale>
<asrwt>0</asrwt>
<pdfrwt beam="1">  1       21 0.86343604E-01 0.36888147E+03</pdfrwt>
<pdfrwt beam="2">  1       21 0.40139583E-01 0.36888147E+03</pdfrwt>
<totfact> 0.62818522E+03</totfact>
</mgrwt>
</event>
<event>
12    1  0.2742799E-001  0.1771503E+03  0.7546771E-02  0.1170718E+00
         21   -1    0    0  502  503  0.00000000000E+00  0.00000000000E+00  0.93336391553E+02  0.93336391553E+02  0.00000000000E+00 0.  1.
         21   -1    0    0  503  504 -0.00000000000E+00 -0.00000000000E+00 -0.33591628956E+03  0.33591628956E+03  0.00000000000E+00 0.  1.
         -6    2    1    2    0  504 -0.27644395123E+02 -0.25919791682E+02 -0.13070451142E+03  0.21973342541E+03  0.17251974020E+03 0.  0.
        -24    2    3    3    0    0 -0.59252593379E+02  0.29525653152E+02 -0.11164095302E+03  0.15295929263E+03  0.80933360216E+02 0.  0.
          6    2    1    2  502    0  0.27644395123E+02  0.25919791682E+02 -0.11187538659E+03  0.20951925569E+03  0.17304961196E+03 0.  0.
         24    2    5    5    0    0  0.62082633568E+02  0.61599273177E+02 -0.10634353142E+03  0.15940230159E+03  0.80320752181E+02 0.  0.
          4    1    6    6  501    0 -0.13202360534E+02  0.10961520483E+02 -0.49369398029E+02  0.52266573608E+02  0.00000000000E+00 0. -1.
         -3    1    6    6    0  501  0.75284994102E+02  0.50637752694E+02 -0.56974133393E+02  0.10713572798E+03  0.00000000000E+00 0.  1.
          5    1    5    5  502    0 -0.34438238445E+02 -0.35679481495E+02 -0.55318551645E+01  0.50116954102E+02  0.47000000000E+01 0. -1.
         13    1    4    4    0    0 -0.31986267972E+02  0.32236550965E+02 -0.84497700662E+01  0.46192154865E+02  0.00000000000E+00 0. -1.
        -14    1    4    4    0    0 -0.27266325407E+02 -0.27108978132E+01 -0.10319118295E+03  0.10676713777E+03  0.00000000000E+00 0.  1.
         -5    1    3    3    0  504  0.31608198256E+02 -0.55445444834E+02 -0.19063558397E+02  0.66774132780E+02  0.47000000000E+01 0.  1.
<mgrwt>
<rscale>  2 0.17702073E+03</rscale>
<asrwt>0</asrwt>
<pdfrwt beam="1">  1       21 0.14359445E-01 0.17715026E+03</pdfrwt>
<pdfrwt beam="2">  1       21 0.51679429E-01 0.17715026E+03</pdfrwt>
<totfact> 0.15178598E+05</totfact>
</mgrwt>
</event>
<event>
12    1  0.2742799E-001  0.1799819E+03  0.7546771E-02  0.1167943E+00
         21   -1    0    0  502  503  0.00000000000E+00  0.00000000000E+00  0.11481230256E+04  0.11481230256E+04  0.00000000000E+00 0. -1.
         21   -1    0    0  503  504 -0.00000000000E+00 -0.00000000000E+00 -0.30093446043E+02  0.30093446043E+02  0.00000000000E+00 0. -1.
         -6    2    1    2    0  504 -0.42630086408E+02 -0.26253158737E+02  0.40800618988E+03  0.44573665593E+03  0.17235301812E+03 0.  0.
        -24    2    3    3    0    0 -0.82708762381E+02 -0.38942261512E+02  0.24556624647E+03  0.27787916038E+03  0.92503012197E+02 0.  0.
          6    2    1    2  502    0  0.42630086408E+02  0.26253158737E+02  0.71002338964E+03  0.73247981567E+03  0.17287832113E+03 0.  0.
         24    2    5    5    0    0  0.33061049880E+01  0.56225047492E+01  0.14628865674E+03  0.16697920694E+03  0.80244261908E+02 0.  0.
          2    1    6    6  501    0  0.11789557214E+02  0.15282495256E+02 -0.81125687632E+00  0.19318552178E+02  0.00000000000E+00 0. -1.
         -1    1    6    6    0  501 -0.84834522263E+01 -0.96599905064E+01  0.14709991362E+03  0.14766065476E+03  0.00000000000E+00 0.  1.
          5    1    5    5  502    0  0.39323981420E+02  0.20630653987E+02  0.56373473290E+03  0.56550060873E+03  0.47000000000E+01 0. -1.
         13    1    4    4    0    0 -0.63945964343E+02 -0.57834812469E+02  0.11021201697E+03  0.13993084211E+03  0.00000000000E+00 0. -1.
        -14    1    4    4    0    0 -0.18762798038E+02  0.18892550957E+02  0.13535422950E+03  0.13794831827E+03  0.00000000000E+00 0.  1.
         -5    1    3    3    0  504  0.40078675973E+02  0.12689102775E+02  0.16243994341E+03  0.16785749555E+03  0.47000000000E+01 0.  1.
<mgrwt>
<rscale>  2 0.17985559E+03</rscale>
<asrwt>0</asrwt>
<pdfrwt beam="1">  1       21 0.17663428E+00 0.17998185E+03</pdfrwt>
<pdfrwt beam="2">  1       21 0.46297618E-02 0.17998185E+03</pdfrwt>
<totfact> 0.59228772E+04</totfact>
</mgrwt>
</event>
<event>
12    1  0.2742799E-001  0.2371138E+03  0.7546771E-02  0.1122025E+00
         21   -1    0    0  502  503  0.00000000000E+00  0.00000000000E+00  0.32606683846E+03  0.32606683846E+03  0.00000000000E+00 0.  1.
         21   -1    0    0  503  504 -0.00000000000E+00 -0.00000000000E+00 -0.17556258481E+03  0.17556258481E+03  0.00000000000E+00 0.  1.
         -6    2    1    2    0  504  0.49026165716E+02  0.15787763687E+03  0.11465040085E+03  0.26182025312E+03  0.16755959352E+03 0.  0.
        -24    2    3    3    0    0 -0.20827855401E+02  0.74130207400E+02  0.10349372470E+03  0.15209433261E+03  0.80576967858E+02 0.  0.
          6    2    1    2  502    0 -0.49026165716E+02 -0.15787763687E+03  0.35853852807E+02  0.23980917015E+03  0.16998242903E+03 0.  0.
         24    2    5    5    0    0 -0.67360405543E+02 -0.11523672003E+03 -0.30361520167E+02  0.15880943091E+03  0.80508928457E+02 0.  0.
          4    1    6    6  501    0 -0.11956387817E+02 -0.89988874061E+01 -0.35869657392E+02  0.38866019935E+02  0.00000000000E+00 0. -1.
         -3    1    6    6    0  501 -0.55404017726E+02 -0.10623783263E+03  0.55081372250E+01  0.11994341098E+03  0.00000000000E+00 0.  1.
          5    1    5    5  502    0  0.18334239826E+02 -0.42640916838E+02  0.66215372974E+02  0.80999739240E+02  0.47000000000E+01 0. -1.
         13    1    4    4    0    0 -0.14443604647E+02 -0.10236655185E+02  0.47354525842E+02  0.50555493691E+02  0.00000000000E+00 0. -1.
        -14    1    4    4    0    0 -0.63842507545E+01  0.84366862585E+02  0.56139198861E+02  0.10153883892E+03  0.00000000000E+00 0.  1.
         -5    1    3    3    0  504  0.69854021117E+02  0.83747429469E+02  0.11156676145E+02  0.10972592051E+03  0.47000000000E+01 0.  1.
<mgrwt>
<rscale>  2 0.23667987E+03</rscale>
<asrwt>0</asrwt>
<pdfrwt beam="1">  1       21 0.50164129E-01 0.23711377E+03</pdfrwt>
<pdfrwt beam="2">  1       21 0.27009628E-01 0.23711377E+03</pdfrwt>
<totfact> 0.48423379E+04</totfact>
</mgrwt>
</event>
<event>
12    1  0.2742799E-001  0.1829227E+03  0.7546771E-02  0.1165028E+00
         21   -1    0    0  502  503  0.00000000000E+00  0.00000000000E+00  0.21387607915E+03  0.21387607915E+03  0.00000000000E+00 0. -1.
         21   -1    0    0  503  504 -0.00000000000E+00 -0.00000000000E+00 -0.19229081526E+03  0.19229081526E+03  0.00000000000E+00 0. -1.
         -6    2    1    2    0  504 -0.22897737799E+02 -0.53756398357E+02 -0.76991917409E+02  0.19837326723E+03  0.17323435296E+03 0.  0.
        -24    2    3    3    0    0  0.29934522033E+02 -0.15585746320E+02 -0.95182514503E+02  0.13054086953E+03  0.82717691286E+02 0.  0.
          6    2    1    2  502    0  0.22897737799E+02  0.53756398357E+02  0.98577181303E+02  0.20779362718E+03  0.17333976480E+03 0.  0.
         24    2    5    5    0    0 -0.54314512235E+02  0.32529548118E+02  0.46678936705E+02  0.11225395731E+03  0.80086141494E+02 0.  0.
          4    1    6    6  501    0  0.89473082317E+00 -0.22472303622E+02  0.23891954946E+01  0.22616658207E+02  0.00000000000E+00 0. -1.
         -3    1    6    6    0  501 -0.55209243058E+02  0.55001851740E+02  0.44289741211E+02  0.89637299102E+02  0.00000000000E+00 0.  1.
          5    1    5    5  502    0  0.77212250033E+02  0.21226850239E+02  0.51898244598E+02  0.95539669868E+02  0.47000000000E+01 0. -1.
         11    1    4    4    0    0  0.96917082191E+01  0.33454358637E+02 -0.26560187112E+02  0.43801448143E+02  0.00000000000E+00 0. -1.
        -12    1    4    4    0    0  0.20242813814E+02 -0.49040104957E+02 -0.68622327391E+02  0.86739421383E+02  0.00000000000E+00 0.  1.
         -5    1    3    3    0  504 -0.52832259832E+02 -0.38170652037E+02  0.18190597094E+02  0.67832397705E+02  0.47000000000E+01 0.  1.
<mgrwt>
<rscale>  2 0.18289777E+03</rscale>
<asrwt>0</asrwt>
<pdfrwt beam="1">  1       21 0.32904012E-01 0.18292275E+03</pdfrwt>
<pdfrwt beam="2">  1       21 0.29583202E-01 0.18292275E+03</pdfrwt>
<totfact> 0.97724235E+04</totfact>
</mgrwt>
</event>
<event>
12    1  0.2742799E-001  0.2853812E+03  0.7546771E-02  0.1092822E+00
         21   -1    0    0  502  503  0.00000000000E+00  0.00000000000E+00  0.17290176535E+04  0.17290176535E+04  0.00000000000E+00 0.  1.
         21   -1    0    0  503  504 -0.00000000000E+00 -0.00000000000E+00 -0.49633498369E+02  0.49633498369E+02  0.00000000000E+00 0.  1.
         -6    2    1    2    0  504  0.15031411260E+03 -0.17006548735E+03  0.63676440807E+03  0.69768011230E+03  0.17254571937E+03 0.  0.
        -24    2    3    3    0    0  0.91065072933E+02 -0.54261366462E+02  0.19153815540E+03  0.23381639397E+03  0.82134631634E+02 0.  0.
          6    2    1    2  502    0 -0.15031411260E+03  0.17006548735E+03  0.10426197470E+04  0.10809710395E+04  0.17299089283E+03 0.  0.
         24    2    5    5    0    0 -0.13809451870E+03  0.81576926711E+02  0.84808428283E+03  0.86685499467E+03  0.80409824896E+02 0.  0.
          4    1    6    6  501    0 -0.25181167776E+02 -0.13283986415E+00  0.30970922603E+03  0.31073125615E+03  0.00000000000E+00 0. -1.
         -3    1    6    6    0  501 -0.11291335092E+03  0.81709766575E+02  0.53837505679E+03  0.55612373852E+03  0.00000000000E+00 0.  1.
          5    1    5    5  502    0 -0.12219593898E+02  0.88488560641E+02  0.19453546419E+03  0.21411604486E+03  0.47000000000E+01 0. -1.
         11    1    4    4    0    0  0.22628318008E+01  0.18451557727E+02  0.18921769385E+02  0.26525718595E+02  0.00000000000E+00 0. -1.
        -12    1    4    4    0    0  0.88802241132E+02 -0.72712924189E+02  0.17261638602E+03  0.20729067537E+03  0.00000000000E+00 0.  1.
         -5    1    3    3    0  504  0.59249039665E+02 -0.11580412089E+03  0.44522625267E+03  0.46386371833E+03  0.47000000000E+01 0.  1.
<mgrwt>
<rscale>  2 0.28531381E+03</rscale>
<asrwt>0</asrwt>
<pdfrwt beam="1">  1       21 0.26600267E+00 0.28538124E+03</pdfrwt>
<pdfrwt beam="2">  1       21 0.76359241E-02 0.28538124E+03</pdfrwt>
<totfact> 0.64412812E+03</totfact>
</mgrwt>
</event>
<event>
12    1  0.2742799E-001  0.1784481E+03  0.7546771E-02  0.1169654E+00
         21   -1    0    0  502  503  0.00000000000E+00  0.00000000000E+00  0.78573534465E+02  0.78573534465E+02  0.00000000000E+00 0.  1.
         21   -1    0    0  503  504 -0.00000000000E+00 -0.00000000000E+00 -0.61103697295E+03  0.61103697295E+03  0.00000000000E+00 0.  1.
         -6    2    1    2    0  504  0.42627881298E+02 -0.87373501551E+01 -0.46716003151E+03  0.49958878863E+03  0.17163037357E+03 0.  0.
        -24    2    3    3    0    0  0.78101213627E+02 -0.44499441861E+01 -0.19348912324E+03  0.22355510374E+03  0.80120172397E+02 0.  0.
          6    2    1    2  502    0 -0.42627881298E+02  0.87373501551E+01 -0.65303406968E+02  0.19002171878E+03  0.17306137956E+03 0.  0.
         24    2    5    5    0    0 -0.12340726643E+02  0.70217635433E+02 -0.24620695892E+02  0.11018244151E+03  0.80319249812E+02 0.  0.
          2    1    6    6  501    0 -0.95398750282E+00  0.85572194211E+02 -0.10089058541E+02  0.86170178232E+02  0.00000000000E+00 0. -1.
         -1    1    6    6    0  501 -0.11386739140E+02 -0.15354558778E+02 -0.14531637351E+02  0.24012263275E+02  0.00000000000E+00 0.  1.
          5    1    5    5  502    0 -0.30287154656E+02 -0.61480285278E+02 -0.40682711077E+02  0.79839277273E+02  0.47000000000E+01 0. -1.
         13    1    4    4    0    0  0.39267916627E+02 -0.71546713046E+01 -0.17973513058E+02  0.43774487654E+02  0.00000000000E+00 0. -1.
        -14    1    4    4    0    0  0.38833297000E+02  0.27047271185E+01 -0.17551561018E+03  0.17978061609E+03  0.00000000000E+00 0.  1.
         -5    1    3    3    0  504 -0.35473332328E+02 -0.42874059690E+01 -0.27367090828E+03  0.27603368489E+03  0.47000000000E+01 0.  1.
<mgrwt>
<rscale>  2 0.17810020E+03</rscale>
<asrwt>0</asrwt>
<pdfrwt beam="1">  1       21 0.12088236E-01 0.17844808E+03</pdfrwt>
<pdfrwt beam="2">  1       21 0.94005688E-01 0.17844808E+03</pdfrwt>
<totfact> 0.55366557E+04</totfact>
</mgrwt>
</event>
<event>
12    1  0.2742799E-001  0.1786775E+03  0.7546771E-02  0.1169615E+00
         21   -1    0    0  502  503  0.00000000000E+00  0.00000000000E+00  0.12159797267E+03  0.12159797267E+03  0.00000000000E+00 0. -1.
         21   -1    0    0  503  504 -0.00000000000E+00 -0.00000000000E+00 -0.38097796822E+03  0.38097796822E+03  0.00000000000E+00 0. -1.
         -6    2    1    2    0  504 -0.36013933913E+02  0.54986543357E+01 -0.27216363531E+03  0.32557442284E+03  0.17492404577E+03 0.  0.
        -24    2    3    3    0    0  0.32076934564E+02  0.33547551088E+02 -0.20033712928E+03  0.22259751306E+03  0.85207508702E+02 0.  0.
          6    2    1    2  502    0  0.36013933913E+02 -0.54986543357E+01  0.12783639755E+02  0.17700151805E+03  0.17273933342E+03 0.  0.
         24    2    5    5    0    0 -0.35056350602E+02  0.16011889835E+02  0.29842561570E+02  0.10066813305E+03  0.88080452982E+02 0.  0.
          4    1    6    6  501    0  0.70894102752E+00  0.14555553697E+02 -0.28620731655E+02  0.32117176421E+02  0.00000000000E+00 0. -1.
         -3    1    6    6    0  501 -0.35765291630E+02  0.14563361383E+01  0.58463293225E+02  0.68550956631E+02  0.00000000000E+00 0.  1.
          5    1    5    5  502    0  0.71070284515E+02 -0.21510544171E+02 -0.17058921815E+02  0.76333384997E+02  0.47000000000E+01 0. -1.
         11    1    4    4    0    0  0.29518613824E+02 -0.14174476316E+02 -0.14860159183E+03  0.15216667649E+03  0.00000000000E+00 0. -1.
        -12    1    4    4    0    0  0.25583207396E+01  0.47722027405E+02 -0.51735537447E+02  0.70430836567E+02  0.00000000000E+00 0.  1.
         -5    1    3    3    0  504 -0.68090868477E+02 -0.28048896752E+02 -0.71826506035E+02  0.10297690978E+03  0.47000000000E+01 0.  1.
<mgrwt>
<rscale>  2 0.17814055E+03</rscale>
<asrwt>0</asrwt>
<pdfrwt beam="1">  1       21 0.18707380E-01 0.17867753E+03</pdfrwt>
<pdfrwt beam="2">  1       21 0.58611995E-01 0.17867753E+03</pdfrwt>
<totfact> 0.71647888E+04</totfact>
</mgrwt>
</event>
<event>
12    1  0.2742799E-001  0.2017851E+03  0.7546771E-02  0.1148459E+00
         21   -1    0    0  502  503  0.00000000000E+00  0.00000000000E+00  0.22908001097E+03  0.22908001097E+03  0.00000000000E+00 0.  1.
         21   -1    0    0  503  504 -0.00000000000E+00 -0.00000000000E+00 -0.35140313677E+03  0.35140313677E+03  0.00000000000E+00 0. -1.
         -6    2    1    2    0  504  0.97193892283E+02 -0.30008762180E+02 -0.26565447981E+03  0.33297330781E+03  0.17306571749E+03 0.  0.
        -24    2    3    3    0    0  0.59754480389E+02 -0.67710722889E+02 -0.84364541242E+02  0.14399902589E+03  0.73912135111E+02 0.  0.
          6    2    1    2  502    0 -0.97193892283E+02  0.30008762180E+02  0.14333135400E+03  0.24750983992E+03  0.17427009300E+03 0.  0.
         24    2    5    5    0    0 -0.91576679007E+02 -0.42585254100E+02  0.10248971214E+03  0.16389420745E+03  0.78468962879E+02 0.  0.
          2    1    6    6  501    0 -0.96996832023E+02 -0.41759517938E+02  0.60821262304E+02  0.12186660211E+03  0.00000000000E+00 0. -1.
         -1    1    6    6    0  501  0.54201530154E+01 -0.82573616250E+00  0.41668449835E+02  0.42027605339E+02  0.00000000000E+00 0.  1.
          5    1    5    5  502    0 -0.56172132758E+01  0.72594016281E+02  0.40841641862E+02  0.83615632478E+02  0.47000000000E+01 0. -1.
         11    1    4    4    0    0  0.48196492009E+02 -0.35638527233E+02 -0.91291204132E+02  0.10921121928E+03  0.00000000000E+00 0. -1.
        -12    1    4    4    0    0  0.11557988380E+02 -0.32072195655E+02  0.69266628896E+01  0.34787806604E+02  0.00000000000E+00 0.  1.
         -5    1    3    3    0  504  0.37439411894E+02  0.37701960708E+02 -0.18128993857E+03  0.18897428193E+03  0.47000000000E+01 0.  1.
<mgrwt>
<rscale>  2 0.20152483E+03</rscale>
<asrwt>0</asrwt>
<pdfrwt beam="1">  1       21 0.35243079E-01 0.20178514E+03</pdfrwt>
<pdfrwt beam="2">  1       21 0.54062021E-01 0.20178514E+03</pdfrwt>
<totfact> 0.24975620E+04</totfact>
</mgrwt>
</event>
<event>
12    1  0.2742799E-001  0.1940729E+03  0.7546771E-02  0.1155081E+00
         21   -1    0    0  502  503  0.00000000000E+00  0.00000000000E+00  0.46095342732E+03  0.46095342732E+03  0.00000000000E+00 0.  1.
         21   -1    0    0  503  504 -0.00000000000E+00 -0.00000000000E+00 -0.26803323906E+03  0.26803323906E+03  0.00000000000E+00 0.  1.
         -6    2    1    2    0  504  0.24854051807E+02 -0.84062825876E+02 -0.20773269677E+03  0.28428356350E+03  0.17314730314E+03 0.  0.
        -24    2    3    3    0    0  0.63519661818E+02 -0.19378475322E+02 -0.64878475776E+02  0.12270227418E+03  0.80226920210E+02 0.  0.
          6    2    1    2  502    0 -0.24854051807E+02  0.84062825876E+02  0.40065288503E+03  0.44470310288E+03  0.17191228239E+03 0.  0.
         24    2    5    5    0    0 -0.16770675172E+02 -0.23422515523E+02  0.18969586829E+03  0.20775713328E+03  0.79678317027E+02 0.  0.
          4    1    6    6  501    0 -0.30435501149E+02 -0.43519183487E+02  0.84591432072E+02  0.99879674818E+02  0.00000000000E+00 0. -1.
         -3    1    6    6    0  501  0.13664825977E+02  0.20096667964E+02  0.10510443621E+03  0.10787745846E+03  0.00000000000E+00 0.  1.
          5    1    5    5  502    0 -0.80833766349E+01  0.10748534140E+03  0.21095701675E+03  0.23694596960E+03  0.47000000000E+01 0. -1.
         13    1    4    4    0    0  0.16915108749E+02  0.10680365019E+02 -0.64195975319E+02  0.67240719420E+02  0.00000000000E+00 0. -1.
        -14    1    4    4    0    0  0.46604553069E+02 -0.30058840341E+02 -0.68250045707E+00  0.55461554759E+02  0.00000000000E+00 0.  1.
         -5    1    3    3    0  504 -0.38665610011E+02 -0.64684350554E+02 -0.14285422099E+03  0.16158128932E+03  0.47000000000E+01 0.  1.
<mgrwt>
<rscale>  2 0.19379700E+03</rscale>
<asrwt>0</asrwt>
<pdfrwt beam="1">  1       21 0.70915912E-01 0.19407285E+03</pdfrwt>
<pdfrwt beam="2">  1       21 0.41235883E-01 0.19407285E+03</pdfrwt>
<totfact> 0.10187834E+04</totfact>
</mgrwt>
</event>
<event>
12    1  0.2742799E-001  0.3941055E+03  0.7546771E-02  0.1045867E+00
         21   -1    0    0  502  503  0.00000000000E+00  0.00000000000E+00  0.42254072197E+03  0.42254072197E+03  0.00000000000E+00 0.  1.
         21   -1    0    0  503  504 -0.00000000000E+00 -0.00000000000E+00 -0.61648201669E+03  0.61648201669E+03  0.00000000000E+00 0. -1.
         -6    2    1    2    0  504  0.12364948379E+03  0.33180189635E+03 -0.42723718640E+03  0.58104229035E+03  0.17232770085E+03 0.  0.
        -24    2    3    3    0    0  0.11980946625E+03  0.14186427887E+03 -0.19174126092E+03  0.27843451587E+03  0.79254568704E+02 0.  0.
          6    2    1    2  502    0 -0.12364948379E+03 -0.33180189635E+03  0.23329589167E+03  0.45798044831E+03  0.17302434713E+03 0.  0.
         24    2    5    5    0    0 -0.48088817356E+02 -0.58954404822E+02  0.57318592123E+02  0.12459588373E+03  0.80315359903E+02 0.  0.
          4    1    6    6  501    0 -0.25680684748E+02  0.14456667020E+02  0.11651822854E+01  0.29493227023E+02  0.00000000000E+00 0. -1.
         -3    1    6    6    0  501 -0.22408132608E+02 -0.73411071842E+02  0.56153409837E+02  0.95102656705E+02  0.00000000000E+00 0.  1.
          5    1    5    5  502    0 -0.75560666432E+02 -0.27284749153E+03  0.17597729955E+03  0.33338456458E+03  0.47000000000E+01 0. -1.
         11    1    4    4    0    0  0.14489160348E+02  0.46065163491E+02 -0.94191745718E+02  0.10584904353E+03  0.00000000000E+00 0. -1.
        -12    1    4    4    0    0  0.10532030591E+03  0.95799115382E+02 -0.97549515206E+02  0.17258547233E+03  0.00000000000E+00 0.  1.
         -5    1    3    3    0  504  0.38400175346E+01  0.18993761747E+03 -0.23549592547E+03  0.30260777449E+03  0.47000000000E+01 0.  1.
<mgrwt>
<rscale>  2 0.39402911E+03</rscale>
<asrwt>0</asrwt>
<pdfrwt beam="1">  1       21 0.65006265E-01 0.39410547E+03</pdfrwt>
<pdfrwt beam="2">  1       21 0.94843386E-01 0.39410547E+03</pdfrwt>
<totfact> 0.17840077E+03</totfact>
</mgrwt>
</event>
<event>
12    1  0.2742799E-001  0.2103705E+03  0.7546771E-02  0.1142408E+00
         21   -1    0    0  502  503  0.00000000000E+00  0.00000000000E+00  0.13680181951E+02  0.13680181951E+02  0.00000000000E+00 0.  1.
         21   -1    0    0  503  504 -0.00000000000E+00 -0.00000000000E+00 -0.34444467504E+04  0.34444467504E+04  0.00000000000E+00 0.  1.
         -6    2    1    2    0  504  0.10277232978E+03  0.60688636161E+02 -0.22007362248E+04  0.22102365560E+04  0.16631428030E+03 0.  0.
        -24    2    3    3    0    0  0.12473184551E+03  0.65653433001E+02 -0.14101185149E+04  0.14192843939E+04  0.77881692436E+02 0.  0.
          6    2    1    2  502    0 -0.10277232978E+03 -0.60688636161E+02 -0.12300303437E+04  0.12478903764E+04  0.17323533954E+03 0.  0.
         24    2    5    5    0    0 -0.48107062908E+02 -0.25180130779E+02 -0.29673856933E+03  0.31231313673E+03  0.80854117766E+02 0.  0.
          2    1    6    6  501    0 -0.25602079379E+02  0.28344549280E+02 -0.14173513457E+03  0.14679144496E+03  0.00000000000E+00 0. -1.
         -1    1    6    6    0  501 -0.22504983529E+02 -0.53524680059E+02 -0.15500343476E+03  0.16552169177E+03  0.00000000000E+00 0.  1.
          5    1    5    5  502    0 -0.54665266873E+02 -0.35508505382E+02 -0.93329177435E+03  0.93557723969E+03  0.47000000000E+01 0. -1.
         13    1    4    4    0    0 -0.56972698340E+01  0.22554243421E+02 -0.24257635763E+03  0.24368923255E+03  0.00000000000E+00 0. -1.
        -14    1    4    4    0    0  0.13042911534E+03  0.43099189580E+02 -0.11675421573E+04  0.11755951613E+04  0.00000000000E+00 0.  1.
         -5    1    3    3    0  504 -0.21959515728E+02 -0.49647968394E+01 -0.79061770987E+03  0.79095216208E+03  0.47000000000E+01 0.  1.
<mgrwt>
<rscale>  2 0.20894056E+03</rscale>
<asrwt>0</asrwt>
<pdfrwt beam="1">  1       21 0.21046432E-02 0.21037050E+03</pdfrwt>
<pdfrwt beam="2">  1       21 0.52991493E+00 0.21037050E+03</pdfrwt>
<totfact> 0.12746169E+03</totfact>
</mgrwt>
</event>
<event>
12    1  0.2742799E-001  0.1874635E+03  0.7546771E-02  0.1160929E+00
         21   -1    0    0  502  503  0.00000000000E+00  0.00000000000E+00  0.34227036185E+03  0.34227036185E+03  0.00000000000E+00 0. -1.
         21   -1    0    0  503  504 -0.00000000000E+00 -0.00000000000E+00 -0.10883140700E+03  0.10883140700E+03  0.00000000000E+00 0. -1.
         -6    2    1    2    0  504 -0.34503031179E+02 -0.62121051302E+02  0.61233781856E+02  0.19654882121E+03  0.17272052254E+03 0.  0.
        -24    2    3    3    0    0  0.32522530285E+02 -0.62917347468E+02  0.63684400259E+02  0.12930928294E+03  0.87457876883E+02 0.  0.
          6    2    1    2  502    0  0.34503031179E+02  0.62121051302E+02  0.17220517299E+03  0.25455294763E+03  0.17347362153E+03 0.  0.
         24    2    5    5    0    0  0.16090994791E+02 -0.22911795779E+02  0.35246447045E+02  0.92228054964E+02  0.80497401163E+02 0.  0.
          4    1    6    6  501    0  0.17488266281E+02 -0.49683555616E+02  0.38473156941E+02  0.65226367070E+02  0.00000000000E+00 0. -1.
         -3    1    6    6    0  501 -0.13972714898E+01  0.26771759837E+02 -0.32267098955E+01  0.27001687894E+02  0.00000000000E+00 0.  1.
          5    1    5    5  502    0  0.18412036388E+02  0.85032847082E+02  0.13695872595E+03  0.16232489267E+03  0.47000000000E+01 0. -1.
         13    1    4    4    0    0 -0.75650944095E+01  0.19330935056E+02  0.83094642805E+01  0.22359850183E+02  0.00000000000E+00 0. -1.
        -14    1    4    4    0    0  0.40087624695E+02 -0.82248282525E+02  0.55374935979E+02  0.10694943275E+03  0.00000000000E+00 0.  1.
         -5    1    3    3    0  504 -0.67025561464E+02  0.79629616621E+00 -0.24506184034E+01  0.67239538277E+02  0.47000000000E+01 0.  1.
<mgrwt>
<rscale>  2 0.18728913E+03</rscale>
<asrwt>0</asrwt>
<pdfrwt beam="1">  1       21 0.52656978E-01 0.18746355E+03</pdfrwt>
<pdfrwt beam="2">  1       21 0.16743294E-01 0.18746355E+03</pdfrwt>
<totfact> 0.10989938E+05</totfact>
</mgrwt>
</event>
<event>
12    1  0.2742799E-001  0.2294685E+03  0.7546771E-02  0.1127434E+00
         21   -1    0    0  502  503  0.00000000000E+00  0.00000000000E+00  0.65748387104E+03  0.65748387104E+03  0.00000000000E+00 0.  1.
         21   -1    0    0  503  504 -0.00000000000E+00 -0.00000000000E+00 -0.81957463708E+02  0.81957463708E+02  0.00000000000E+00 0.  1.
         -6    2    1    2    0  504 -0.10046606472E+03 -0.11176320377E+03  0.22216992080E+03  0.31939825821E+03  0.17341086980E+03 0.  0.
        -24    2    3    3    0    0 -0.79134877094E+02 -0.12811506529E+02  0.17146521120E+03  0.20608667219E+03  0.81516466617E+02 0.  0.
          6    2    1    2  502    0  0.10046606472E+03  0.11176320377E+03  0.35335648654E+03  0.42004307654E+03  0.17026724786E+03 0.  0.
         24    2    5    5    0    0  0.11799590004E+03  0.34737544833E+02  0.24411125426E+03  0.28514734630E+03  0.81172502742E+02 0.  0.
          4    1    6    6  501    0  0.10254723370E+03  0.65914649056E+01  0.12516201351E+03  0.16194107624E+03  0.00000000000E+00 0. -1.
         -3    1    6    6    0  501  0.15448666335E+02  0.28146079928E+02  0.11894924075E+03  0.12320627006E+03  0.00000000000E+00 0.  1.
          5    1    5    5  502    0 -0.17529835317E+02  0.77025658934E+02  0.10924523228E+03  0.13489573024E+03  0.47000000000E+01 0. -1.
         13    1    4    4    0    0 -0.76346306766E+02 -0.36201035003E+02  0.15741826075E+03  0.17866108224E+03  0.00000000000E+00 0. -1.
        -14    1    4    4    0    0 -0.27885703280E+01  0.23389528474E+02  0.14046950449E+02  0.27425589941E+02  0.00000000000E+00 0.  1.
         -5    1    3    3    0  504 -0.21331187627E+02 -0.98951697238E+02  0.50704709601E+02  0.11331158603E+03  0.47000000000E+01 0.  1.
<mgrwt>
<rscale>  2 0.22887458E+03</rscale>
<asrwt>0</asrwt>
<pdfrwt beam="1">  1       21 0.10115136E+00 0.22946846E+03</pdfrwt>
<pdfrwt beam="2">  1       21 0.12608841E-01 0.22946846E+03</pdfrwt>
<totfact> 0.42105063E+04</totfact>
</mgrwt>
</event>
<event>
12    1  0.2742799E-001  0.1939000E+03  0.7546771E-02  0.1155380E+00
         21   -1    0    0  502  503  0.00000000000E+00  0.00000000000E+00  0.28142107259E+03  0.28142107259E+03  0.00000000000E+00 0. -1.
         21   -1    0    0  503  504 -0.00000000000E+00 -0.00000000000E+00 -0.18778904263E+03  0.18778904263E+03  0.00000000000E+00 0. -1.
         -6    2    1    2    0  504 -0.52719609774E+02 -0.68948224672E+02  0.17409626957E+03  0.25927749361E+03  0.17141205523E+03 0.  0.
        -24    2    3    3    0    0 -0.40679738583E+02  0.14531517737E+01  0.16419741706E+03  0.18701831022E+03  0.79737718857E+02 0.  0.
          6    2    1    2  502    0  0.52719609774E+02  0.68948224672E+02 -0.80464239608E+02  0.20993262160E+03  0.17338972523E+03 0.  0.
         24    2    5    5    0    0  0.58661689543E+02  0.79018381195E+02 -0.63439215357E-01  0.12855022137E+03  0.82704637124E+02 0.  0.
          4    1    6    6  501    0  0.78690438789E+01  0.69869087765E+02 -0.20193636677E+02  0.73153224392E+02  0.00000000000E+00 0. -1.
         -3    1    6    6    0  501  0.50792645664E+02  0.91492934302E+01  0.20130197461E+02  0.55396996974E+02  0.00000000000E+00 0.  1.
          5    1    5    5  502    0 -0.59420797698E+01 -0.10070156523E+02 -0.80400800393E+02  0.81382400236E+02  0.47000000000E+01 0. -1.
         11    1    4    4    0    0 -0.51056467818E+02  0.27868367575E+02  0.85944714289E+02  0.10377814188E+03  0.00000000000E+00 0. -1.
        -12    1    4    4    0    0  0.10376729235E+02 -0.26415215801E+02  0.78252702767E+02  0.83240168343E+02  0.00000000000E+00 0.  1.
         -5    1    3    3    0  504 -0.12039871191E+02 -0.70401376446E+02  0.98988525109E+01  0.72259183394E+02  0.47000000000E+01 0.  1.
<mgrwt>
<rscale>  2 0.19345688E+03</rscale>
<asrwt>0</asrwt>
<pdfrwt beam="1">  1       21 0.43295550E-01 0.19390000E+03</pdfrwt>
<pdfrwt beam="2">  1       21 0.28890622E-01 0.19390000E+03</pdfrwt>
<totfact> 0.58776364E+04</totfact>
</mgrwt>
</event>
<event>
12    1  0.2742799E-001  0.1859673E+03  0.7546771E-02  0.1162695E+00
         21   -1    0    0  502  503  0.00000000000E+00  0.00000000000E+00  0.47906189580E+03  0.47906189580E+03  0.00000000000E+00 0. -1.
         21   -1    0    0  503  504 -0.00000000000E+00 -0.00000000000E+00 -0.73447377319E+02  0.73447377319E+02  0.00000000000E+00 0. -1.
         -6    2    1    2    0  504 -0.72330969428E+02  0.60188697984E+01  0.15666787138E+03  0.24316383044E+03  0.17121866306E+03 0.  0.
        -24    2    3    3    0    0 -0.10690900347E+03 -0.28150882884E+02  0.12184836739E+03  0.18318299772E+03  0.80541782867E+02 0.  0.
          6    2    1    2  502    0  0.72330969428E+02 -0.60188697984E+01  0.24894664711E+03  0.30934544268E+03  0.16867772191E+03 0.  0.
         24    2    5    5    0    0  0.12887752811E+02  0.10449442243E+02  0.40854669524E+02  0.92253152541E+02  0.81032432496E+02 0.  0.
          2    1    6    6  501    0  0.47208423562E+02  0.15308983338E+01  0.22334176777E+02  0.52247433977E+02  0.00000000000E+00 0. -1.
         -1    1    6    6    0  501 -0.34320670751E+02  0.89185439092E+01  0.18520492747E+02  0.40005718564E+02  0.00000000000E+00 0.  1.
          5    1    5    5  502    0  0.59443216617E+02 -0.16468312041E+02  0.20809197759E+03  0.21709229014E+03  0.47000000000E+01 0. -1.
         11    1    4    4    0    0 -0.25077666522E+02 -0.11214915024E+02  0.89422263156E+02  0.93546805531E+02  0.00000000000E+00 0. -1.
        -12    1    4    4    0    0 -0.81831336946E+02 -0.16935967860E+02  0.32426104233E+02  0.89636192185E+02  0.00000000000E+00 0.  1.
         -5    1    3    3    0  504  0.34578034040E+02  0.34169752683E+02  0.34819503988E+02  0.59980832725E+02  0.47000000000E+01 0.  1.
<mgrwt>
<rscale>  2 0.18538031E+03</rscale>
<asrwt>0</asrwt>
<pdfrwt beam="1">  1       21 0.73701828E-01 0.18596727E+03</pdfrwt>
<pdfrwt beam="2">  1       21 0.11299597E-01 0.18596727E+03</pdfrwt>
<totfact> 0.10827031E+05</totfact>
</mgrwt>
</event>
<event>
12    1  0.2742799E-001  0.1815867E+03  0.7546771E-02  0.1166338E+00
         21   -1    0    0  502  503  0.00000000000E+00  0.00000000000E+00  0.17955335139E+03  0.17955335139E+03  0.00000000000E+00 0. -1.
         21   -1    0    0  503  504 -0.00000000000E+00 -0.00000000000E+00 -0.22218840802E+03  0.22218840802E+03  0.00000000000E+00 0. -1.
         -6    2    1    2    0  504  0.18927098896E+01  0.55906148678E+02 -0.10527938928E+03  0.20989870593E+03  0.17275600462E+03 0.  0.
        -24    2    3    3    0    0 -0.55400672942E+02  0.61255812199E+02 -0.38258843489E+02  0.12143970879E+03  0.80388772074E+02 0.  0.
          6    2    1    2  502    0 -0.18927098896E+01 -0.55906148678E+02  0.62644332649E+02  0.19184305348E+03  0.17248294102E+03 0.  0.
         24    2    5    5    0    0  0.48711855001E+01  0.23722968566E+02 -0.88188128935E+01  0.84532207033E+02  0.80507234949E+02 0.  0.
          2    1    6    6  501    0 -0.14320992815E+02  0.43729759923E+02  0.14563359469E+02  0.48264626561E+02  0.00000000000E+00 0. -1.
         -1    1    6    6    0  501  0.19192178315E+02 -0.20006791356E+02 -0.23382172362E+02  0.36267580471E+02  0.00000000000E+00 0.  1.
          5    1    5    5  502    0 -0.67638953897E+01 -0.79629117244E+02  0.71463145543E+02  0.10731084645E+03  0.47000000000E+01 0. -1.
         11    1    4    4    0    0 -0.32526344338E+02  0.45290682618E+02 -0.63015309815E+02  0.84143557562E+02  0.00000000000E+00 0. -1.
        -12    1    4    4    0    0 -0.22874328604E+02  0.15965129581E+02  0.24756466326E+02  0.37296151230E+02  0.00000000000E+00 0.  1.
         -5    1    3    3    0  504  0.57293382832E+02 -0.53496635214E+01 -0.67020545789E+02  0.88458997134E+02  0.47000000000E+01 0.  1.
<mgrwt>
<rscale>  2 0.18152169E+03</rscale>
<asrwt>0</asrwt>
<pdfrwt beam="1">  1       21 0.27623593E-01 0.18158667E+03</pdfrwt>
<pdfrwt beam="2">  1       21 0.34182832E-01 0.18158667E+03</pdfrwt>
<totfact> 0.10355826E+05</totfact>
</mgrwt>
</event>
<event>
12    1  0.2742799E-001  0.2211583E+03  0.7546771E-02  0.1133126E+00
         21   -1    0    0  502  503  0.00000000000E+00  0.00000000000E+00  0.46921023173E+02  0.46921023173E+02  0.00000000000E+00 0.  1.
         21   -1    0    0  503  504 -0.00000000000E+00 -0.00000000000E+00 -0.10493955914E+04  0.10493955914E+04  0.00000000000E+00 0. -1.
         -6    2    1    2    0  504  0.28047355374E+02 -0.13407477321E+03 -0.44813486204E+03  0.49948875798E+03  0.17292040314E+03 0.  0.
        -24    2    3    3    0    0 -0.28550095221E+02 -0.46613077167E+02 -0.31913535774E+03  0.33360994138E+03  0.80376175119E+02 0.  0.
          6    2    1    2  502    0 -0.28047355374E+02  0.13407477321E+03 -0.55433970618E+03  0.59682785658E+03  0.17363260520E+03 0.  0.
         24    2    5    5    0    0 -0.35914140473E+02  0.11173252532E+03 -0.22103435443E+03  0.26264884788E+03  0.79713541860E+02 0.  0.
          4    1    6    6  501    0  0.44369257916E+01  0.77180930910E+02 -0.17875156327E+03  0.19475293009E+03  0.00000000000E+00 0. -1.
         -3    1    6    6    0  501 -0.40351066265E+02  0.34551594412E+02 -0.42282791162E+02  0.67895917797E+02  0.00000000000E+00 0.  1.
          5    1    5    5  502    0  0.78667850986E+01  0.22342247891E+02 -0.33330535176E+03  0.33417900870E+03  0.47000000000E+01 0. -1.
         13    1    4    4    0    0  0.30192930622E+01 -0.17346804887E+01 -0.22216315109E+03  0.22219043847E+03  0.00000000000E+00 0. -1.
        -14    1    4    4    0    0 -0.31569388283E+02 -0.44878396679E+02 -0.96972206650E+02  0.11141950291E+03  0.00000000000E+00 0.  1.
         -5    1    3    3    0  504  0.56597450595E+02 -0.87461696045E+02 -0.12899950430E+03  0.16587881661E+03  0.47000000000E+01 0.  1.
<mgrwt>
<rscale>  2 0.22101846E+03</rscale>
<asrwt>0</asrwt>
<pdfrwt beam="1">  1       21 0.72186192E-02 0.22115827E+03</pdfrwt>
<pdfrwt beam="2">  1       21 0.16144547E+00 0.22115827E+03</pdfrwt>
<totfact> 0.34630439E+04</totfact>
</mgrwt>
</event>
<event>
12    1  0.2742799E-001  0.1933801E+03  0.7546771E-02  0.1155484E+00
         21   -1    0    0  502  503  0.00000000000E+00  0.00000000000E+00  0.70737435939E+03  0.70737435939E+03  0.00000000000E+00 0.  1.
         21   -1    0    0  503  504 -0.00000000000E+00 -0.00000000000E+00 -0.52382936386E+03  0.52382936386E+03  0.00000000000E+00 0.  1.
         -6    2    1    2    0  504  0.68234601426E+02 -0.53100625909E+02 -0.49196334419E+03  0.52860552372E+03  0.17297465240E+03 0.  0.
        -24    2    3    3    0    0 -0.14201771588E+02 -0.50031502034E+02 -0.15759209557E+03  0.18417643520E+03  0.79880217715E+02 0.  0.
          6    2    1    2  502    0 -0.68234601426E+02  0.53100625909E+02  0.67550833972E+03  0.70259819953E+03  0.17279200114E+03 0.  0.
         24    2    5    5    0    0 -0.81188184826E+02  0.95022576967E+02  0.54121122001E+03  0.56123677741E+03  0.80351254892E+02 0.  0.
          4    1    6    6  501    0 -0.88566766381E+02  0.74604535266E+02  0.34692964276E+03  0.36574593068E+03  0.00000000000E+00 0. -1.
         -3    1    6    6    0  501  0.73785815554E+01  0.20418041702E+02  0.19428157725E+03  0.19549084672E+03  0.00000000000E+00 0.  1.
          5    1    5    5  502    0  0.12953583400E+02 -0.41921951059E+02  0.13429711971E+03  0.14136142212E+03  0.47000000000E+01 0. -1.
         11    1    4    4    0    0 -0.19204797304E+02  0.14698273667E+02 -0.17750332008E+02  0.29998962893E+02  0.00000000000E+00 0. -1.
        -12    1    4    4    0    0  0.50030257156E+01 -0.64729775701E+02 -0.13984176356E+03  0.15417747230E+03  0.00000000000E+00 0.  1.
         -5    1    3    3    0  504  0.82436373014E+02 -0.30691238743E+01 -0.33437124862E+03  0.34442908852E+03  0.47000000000E+01 0.  1.
<mgrwt>
<rscale>  2 0.19333926E+03</rscale>
<asrwt>0</asrwt>
<pdfrwt beam="1">  1       21 0.10882682E+00 0.19338011E+03</pdfrwt>
<pdfrwt beam="2">  1       21 0.80589133E-01 0.19338011E+03</pdfrwt>
<totfact> 0.90604602E+02</totfact>
</mgrwt>
</event>
<event>
12    1  0.2742799E-001  0.2484810E+03  0.7546771E-02  0.1114736E+00
         21   -1    0    0  502  503  0.00000000000E+00  0.00000000000E+00  0.26465953285E+03  0.26465953285E+03  0.00000000000E+00 0. -1.
         21   -1    0    0  503  504 -0.00000000000E+00 -0.00000000000E+00 -0.23483779517E+03  0.23483779517E+03  0.00000000000E+00 0.  1.
         -6    2    1    2    0  504  0.15141750992E+03 -0.93282635848E+02 -0.18708135969E+02  0.24918426815E+03  0.17353354915E+03 0.  0.
        -24    2    3    3    0    0  0.55044916764E+02  0.11137193882E+02  0.22630606467E+02  0.10112293228E+03  0.80992117732E+02 0.  0.
          6    2    1    2  502    0 -0.15141750992E+03  0.93282635848E+02  0.48529873648E+02  0.25031305987E+03  0.16932975771E+03 0.  0.
         24    2    5    5    0    0 -0.12324555343E+03  0.47100338276E+02 -0.26868949047E+02  0.15739623575E+03  0.81509056548E+02 0.  0.
          2    1    6    6  501    0 -0.79483629825E+02 -0.81508871864E+01 -0.33423328767E+02  0.86609487229E+02  0.00000000000E+00 0. -1.
         -1    1    6    6    0  501 -0.43761923606E+02  0.55251225463E+02  0.65543797201E+01  0.70786748522E+02  0.00000000000E+00 0.  1.
          5    1    5    5  502    0 -0.28171956488E+02  0.46182297572E+02  0.75398822695E+02  0.92916824123E+02  0.47000000000E+01 0. -1.
         13    1    4    4    0    0  0.50503109277E+02 -0.22254809567E+02  0.34855751617E+02  0.65274528082E+02  0.00000000000E+00 0. -1.
        -14    1    4    4    0    0  0.45418074870E+01  0.33392003450E+02 -0.12225145150E+02  0.35848404198E+02  0.00000000000E+00 0.  1.
         -5    1    3    3    0  504  0.96372593155E+02 -0.10441982973E+03 -0.41338742436E+02  0.14806133587E+03  0.47000000000E+01 0.  1.
<mgrwt>
<rscale>  2 0.24774841E+03</rscale>
<asrwt>0</asrwt>
<pdfrwt beam="1">  1       21 0.40716851E-01 0.24848100E+03</pdfrwt>
<pdfrwt beam="2">  1       21 0.36128892E-01 0.24848100E+03</pdfrwt>
<totfact> 0.41831345E+04</totfact>
</mgrwt>
</event>
<event>
12    1  0.2742799E-001  0.2234255E+03  0.7546771E-02  0.1131406E+00
         21   -1    0    0  502  503  0.00000000000E+00  0.00000000000E+00  0.11610697196E+04  0.11610697196E+04  0.00000000000E+00 0. -1.
         21   -1    0    0  503  504 -0.00000000000E+00 -0.00000000000E+00 -0.43241531481E+02  0.43241531481E+02  0.00000000000E+00 0. -1.
         -6    2    1    2    0  504 -0.41725192726E+02  0.13415742278E+03  0.50899392300E+03  0.55587208544E+03  0.17372321642E+03 0.  0.
        -24    2    3    3    0    0  0.20218644521E+02  0.58641659262E+02  0.12884416266E+03  0.16334743678E+03  0.78955234566E+02 0.  0.
          6    2    1    2  502    0  0.41725192726E+02 -0.13415742278E+03  0.60883426509E+03  0.64843916562E+03  0.17336373139E+03 0.  0.
         24    2    5    5    0    0  0.14330562065E+02 -0.10161592084E+03  0.21166237568E+03  0.24896824693E+03  0.81566330820E+02 0.  0.
          2    1    6    6  501    0  0.13837998932E+02 -0.81641906590E+02  0.77793464617E+02  0.11361652284E+03  0.00000000000E+00 0. -1.
         -1    1    6    6    0  501  0.49256313357E+00 -0.19974014249E+02  0.13386891106E+03  0.13535172408E+03  0.00000000000E+00 0.  1.
          5    1    5    5  502    0  0.27394630660E+02 -0.32541501945E+02  0.39717188941E+03  0.39947091869E+03  0.47000000000E+01 0. -1.
         11    1    4    4    0    0 -0.19271263242E+02  0.56255806379E+02  0.90243367770E+02  0.10807387642E+03  0.00000000000E+00 0. -1.
        -12    1    4    4    0    0  0.39489907763E+02  0.23858528834E+01  0.38600794889E+02  0.55273560363E+02  0.00000000000E+00 0.  1.
         -5    1    3    3    0  504 -0.61943837247E+02  0.75515763521E+02  0.38014976034E+03  0.39252464866E+03  0.47000000000E+01 0.  1.
<mgrwt>
<rscale>  2 0.22335563E+03</rscale>
<asrwt>0</asrwt>
<pdfrwt beam="1">  1       21 0.17862609E+00 0.22342552E+03</pdfrwt>
<pdfrwt beam="2">  1       21 0.66525442E-02 0.22342552E+03</pdfrwt>
<totfact> 0.30100691E+04</totfact>
</mgrwt>
</event>
<event>
12    1  0.2742799E-001  0.2067868E+03  0.7546771E-02  0.1144240E+00
         21   -1    0    0  502  503  0.00000000000E+00  0.00000000000E+00  0.20825675542E+03  0.20825675542E+03  0.00000000000E+00 0. -1.
         21   -1    0    0  503  504 -0.00000000000E+00 -0.00000000000E+00 -0.63384077435E+03  0.63384077435E+03  0.00000000000E+00 0. -1.
         -6    2    1    2    0  504  0.93862264062E+02 -0.60816791636E+02 -0.55911015681E+03  0.59594711805E+03  0.17332049303E+03 0.  0.
        -24    2    3    3    0    0  0.22454082095E+02 -0.92578632949E+02 -0.39251595384E+03  0.41187196634E+03  0.80590033832E+02 0.  0.
          6    2    1    2  502    0 -0.93862264062E+02  0.60816791636E+02  0.13352613789E+03  0.24615041172E+03  0.17393098898E+03 0.  0.
         24    2    5    5    0    0  0.16256510456E+02  0.41948737905E+02  0.42162627573E+02  0.10174982664E+03  0.80940529486E+02 0.  0.
          2    1    6    6  501    0  0.28711545349E+02  0.41955388316E+02  0.60849685000E+02  0.79292443585E+02  0.00000000000E+00 0. -1.
         -1    1    6    6    0  501 -0.12455034893E+02 -0.66504107264E-02 -0.18687057427E+02  0.22457383056E+02  0.00000000000E+00 0.  1.
          5    1    5    5  502    0 -0.11011877452E+03  0.18868053731E+02  0.91363510316E+02  0.14440058508E+03  0.47000000000E+01 0. -1.
         13    1    4    4    0    0  0.39459897026E+02 -0.59452750674E+02 -0.34053213006E+03  0.34792793023E+03  0.00000000000E+00 0. -1.
        -14    1    4    4    0    0 -0.17005814930E+02 -0.33125882274E+02 -0.51983823786E+02  0.63944036105E+02  0.00000000000E+00 0.  1.
         -5    1    3    3    0  504  0.71408181966E+02  0.31761841313E+02 -0.16659420297E+03  0.18407515171E+03  0.47000000000E+01 0.  1.
<mgrwt>
<rscale>  2 0.20665841E+03</rscale>
<asrwt>0</asrwt>
<pdfrwt beam="1">  1       21 0.32039502E-01 0.20678684E+03</pdfrwt>
<pdfrwt beam="2">  1       21 0.97513962E-01 0.20678684E+03</pdfrwt>
<totfact> 0.80800129E+03</totfact>
</mgrwt>
</event>
<event>
12    1  0.2742799E-001  0.2252439E+03  0.7546771E-02  0.1130949E+00
         21   -1    0    0  502  503  0.00000000000E+00  0.00000000000E+00  0.10085285885E+04  0.10085285885E+04  0.00000000000E+00 0. -1.
         21   -1    0    0  503  504 -0.00000000000E+00 -0.00000000000E+00 -0.51132218131E+03  0.51132218131E+03  0.00000000000E+00 0. -1.
         -6    2    1    2    0  504  0.37876887015E+00 -0.13544426921E+03 -0.47356864703E+03  0.52440640323E+03  0.17997088312E+03 0.  0.
        -24    2    3    3    0    0  0.60342794121E+02 -0.12161265239E+03 -0.27522775410E+03  0.31668496053E+03  0.78154702848E+02 0.  0.
          6    2    1    2  502    0 -0.37876887015E+00  0.13544426921E+03  0.97077505420E+03  0.99544436657E+03  0.17366631091E+03 0.  0.
         24    2    5    5    0    0 -0.43666037782E+02  0.16750793299E+02  0.46749644601E+03  0.47652878930E+03  0.79620650989E+02 0.  0.
          4    1    6    6  501    0  0.21179917281E+02  0.16544639981E+02  0.11318350760E+03  0.11633065117E+03  0.00000000000E+00 0. -1.
         -3    1    6    6    0  501 -0.64845955063E+02  0.20615331787E+00  0.35431293841E+03  0.36019813813E+03  0.00000000000E+00 0.  1.
          5    1    5    5  502    0  0.43287268912E+02  0.11869347591E+03  0.50327860819E+03  0.51891557727E+03  0.47000000000E+01 0. -1.
         11    1    4    4    0    0  0.56363138766E+02 -0.66500600002E+02 -0.22764560884E+03  0.24376557681E+03  0.00000000000E+00 0. -1.
        -12    1    4    4    0    0  0.39796553546E+01 -0.55112052388E+02 -0.47582145256E+02  0.72919383722E+02  0.00000000000E+00 0.  1.
         -5    1    3    3    0  504 -0.59964025250E+02 -0.13831616822E+02 -0.19834089293E+03  0.20772144270E+03  0.47000000000E+01 0.  1.
<mgrwt>
<rscale>  2 0.22398215E+03</rscale>
<asrwt>0</asrwt>
<pdfrwt beam="1">  1       21 0.15515824E+00 0.22524390E+03</pdfrwt>
<pdfrwt beam="2">  1       21 0.78664951E-01 0.22524390E+03</pdfrwt>
<totfact> 0.37652079E+02</totfact>
</mgrwt>
</event>
<event>
12    1  0.2742799E-001  0.2153139E+03  0.7546771E-02  0.1137439E+00
         21   -1    0    0  502  503  0.00000000000E+00  0.00000000000E+00  0.29251528770E+03  0.29251528770E+03  0.00000000000E+00 0.  1.
         21   -1    0    0  503  504 -0.00000000000E+00 -0.00000000000E+00 -0.20428969859E+03  0.20428969859E+03  0.00000000000E+00 0.  1.
         -6    2    1    2    0  504 -0.28645044578E+02  0.12379992070E+03 -0.73576241981E+02  0.22747265734E+03  0.17373366832E+03 0.  0.
        -24    2    3    3    0    0 -0.84473830472E+02  0.63320570383E+02 -0.49475419178E+02  0.14158002198E+03  0.80322866307E+02 0.  0.
          6    2    1    2  502    0  0.28645044578E+02 -0.12379992070E+03  0.16180183109E+03  0.26933232895E+03  0.17381919322E+03 0.  0.
         24    2    5    5    0    0 -0.19361787665E+02 -0.14289225015E+03  0.13361292626E+03  0.21029101002E+03  0.74678114988E+02 0.  0.
          2    1    6    6  501    0 -0.37077739143E+02 -0.12548562139E+03  0.85972396354E+02  0.15656517125E+03  0.00000000000E+00 0. -1.
         -1    1    6    6    0  501  0.17715951479E+02 -0.17406628762E+02  0.47640529906E+02  0.53725838769E+02  0.00000000000E+00 0.  1.
          5    1    5    5  502    0  0.48006832243E+02  0.19092329449E+02  0.28188904828E+02  0.59041318932E+02  0.47000000000E+01 0. -1.
         13    1    4    4    0    0 -0.93486519264E+02  0.57774398875E+02 -0.21920690531E+02  0.11206304977E+03  0.00000000000E+00 0. -1.
        -14    1    4    4    0    0  0.90126887924E+01  0.55461715086E+01 -0.27554728647E+02  0.29516972211E+02  0.00000000000E+00 0.  1.
         -5    1    3    3    0  504  0.55828785894E+02  0.60479350317E+02 -0.24100822803E+02  0.85892635359E+02  0.47000000000E+01 0.  1.
<mgrwt>
<rscale>  2 0.21529663E+03</rscale>
<asrwt>0</asrwt>
<pdfrwt beam="1">  1       21 0.45002352E-01 0.21531389E+03</pdfrwt>
<pdfrwt beam="2">  1       21 0.31429184E-01 0.21531389E+03</pdfrwt>
<totfact> 0.45593040E+04</totfact>
</mgrwt>
</event>
<event>
12    1  0.2742799E-001  0.2462627E+03  0.7546771E-02  0.1115710E+00
         21   -1    0    0  502  503  0.00000000000E+00  0.00000000000E+00  0.20798714133E+03  0.20798714133E+03  0.00000000000E+00 0.  1.
         21   -1    0    0  503  504 -0.00000000000E+00 -0.00000000000E+00 -0.62700727586E+03  0.62700727586E+03  0.00000000000E+00 0.  1.
         -6    2    1    2    0  504  0.15666153268E+03  0.78818904661E+02 -0.51496286312E+03  0.57081702738E+03  0.17288745706E+03 0.  0.
        -24    2    3    3    0    0  0.14126946238E+03  0.10154601473E+03 -0.32648373797E+03  0.38029168005E+03  0.88099243170E+02 0.  0.
          6    2    1    2  502    0 -0.15666153268E+03 -0.78818904661E+02  0.95942728597E+02  0.26417738980E+03  0.17271198731E+03 0.  0.
         24    2    5    5    0    0 -0.44737263596E+02 -0.71342824121E+02 -0.29281360207E+01  0.11457634816E+03  0.77639836876E+02 0.  0.
          4    1    6    6  501    0  0.22187964718E+02 -0.18000008012E+02 -0.48077504545E+01  0.28972754981E+02  0.00000000000E+00 0. -1.
         -3    1    6    6    0  501 -0.66925228313E+02 -0.53342816109E+02  0.18796144339E+01  0.85603593182E+02  0.00000000000E+00 0.  1.
          5    1    5    5  502    0 -0.11192426908E+03 -0.74760805397E+01  0.98870864618E+02  0.14960104164E+03  0.47000000000E+01 0. -1.
         11    1    4    4    0    0 -0.10353100157E+02  0.20701393136E+02 -0.41237493358E+02  0.47289165980E+02  0.00000000000E+00 0. -1.
        -12    1    4    4    0    0  0.15162256254E+03  0.80844621592E+02 -0.28524624461E+03  0.33300251407E+03  0.00000000000E+00 0.  1.
         -5    1    3    3    0  504  0.15392070294E+02 -0.22727110067E+02 -0.18847912515E+03  0.19052534734E+03  0.47000000000E+01 0.  1.
<mgrwt>
<rscale>  2 0.24623193E+03</rscale>
<asrwt>0</asrwt>
<pdfrwt beam="1">  1       21 0.31998022E-01 0.24626272E+03</pdfrwt>
<pdfrwt beam="2">  1       21 0.96462657E-01 0.24626272E+03</pdfrwt>
<totfact> 0.81016352E+03</totfact>
</mgrwt>
</event>
<event>
12    1  0.2742799E-001  0.2091733E+03  0.7546771E-02  0.1142243E+00
         21   -1    0    0  502  503  0.00000000000E+00  0.00000000000E+00  0.11194836341E+03  0.11194836341E+03  0.00000000000E+00 0.  1.
         21   -1    0    0  503  504 -0.00000000000E+00 -0.00000000000E+00 -0.39176812517E+03  0.39176812517E+03  0.00000000000E+00 0.  1.
         -6    2    1    2    0  504 -0.46951510432E+02  0.10721723145E+03 -0.12635454006E+03  0.24428435021E+03  0.17323219941E+03 0.  0.
        -24    2    3    3    0    0  0.21488586133E+02  0.82322290588E+02 -0.24527464152E+02  0.11900606683E+03  0.79511814107E+02 0.  0.
          6    2    1    2  502    0  0.46951510432E+02 -0.10721723145E+03 -0.15346522170E+03  0.25943213838E+03  0.17335939865E+03 0.  0.
         24    2    5    5    0    0  0.65409577423E+02 -0.14116306827E+03 -0.14333482914E+03  0.21921106271E+03  0.57473403470E+02 0.  0.
          4    1    6    6  501    0  0.55848437762E+02 -0.53011662713E+02 -0.71821912481E+02  0.10529801279E+03  0.00000000000E+00 0. -1.
         -3    1    6    6    0  501  0.95611396601E+01 -0.88151405559E+02 -0.71512916654E+02  0.11391304992E+03  0.00000000000E+00 0.  1.
          5    1    5    5  502    0 -0.18458066991E+02  0.33945836824E+02 -0.10130392566E+02  0.40221075672E+02  0.47000000000E+01 0. -1.
         11    1    4    4    0    0 -0.92806768598E+01  0.45662738393E+01  0.21278874234E+02  0.23659507781E+02  0.00000000000E+00 0. -1.
        -12    1    4    4    0    0  0.30769262993E+02  0.77756016749E+02 -0.45806338387E+02  0.95346559048E+02  0.00000000000E+00 0.  1.
         -5    1    3    3    0  504 -0.68440096565E+02  0.24894940861E+02 -0.10182707591E+03  0.12527828338E+03  0.47000000000E+01 0.  1.
<mgrwt>
<rscale>  2 0.20914692E+03</rscale>
<asrwt>0</asrwt>
<pdfrwt beam="1">  1       21 0.17222825E-01 0.20917328E+03</pdfrwt>
<pdfrwt beam="2">  1       21 0.60272018E-01 0.20917328E+03</pdfrwt>
<totfact> 0.77599432E+04</totfact>
</mgrwt>
</event>
<event>
12    1  0.2742799E-001  0.1837091E+03  0.7546771E-02  0.1164474E+00
         21   -1    0    0  502  503  0.00000000000E+00  0.00000000000E+00  0.58651415098E+03  0.58651415098E+03  0.00000000000E+00 0.  1.
         21   -1    0    0  503  504 -0.00000000000E+00 -0.00000000000E+00 -0.15205105979E+03  0.15205105979E+03  0.00000000000E+00 0.  1.
         -6    2    1    2    0  504 -0.38112623145E+02 -0.49528691532E+02 -0.74141406135E+02  0.19810599308E+03  0.17275234604E+03 0.  0.
        -24    2    3    3    0    0 -0.59237574598E+02 -0.61400347553E+02  0.32686651960E+01  0.11685570733E+03  0.79783953520E+02 0.  0.
          6    2    1    2  502    0  0.38112623145E+02  0.49528691532E+02  0.50860449733E+03  0.54045921770E+03  0.17179047693E+03 0.  0.
         24    2    5    5    0    0  0.38137806124E+02  0.79156216385E+02  0.49220175301E+03  0.50626958646E+03  0.79536970393E+02 0.  0.
          4    1    6    6  501    0  0.17177405970E+01  0.58316254526E+02  0.40843509375E+03  0.41258085508E+03  0.00000000000E+00 0. -1.
         -3    1    6    6    0  501  0.36420065527E+02  0.20839961859E+02  0.83766659260E+02  0.93688731376E+02  0.00000000000E+00 0.  1.
          5    1    5    5  502    0 -0.25182979408E-01 -0.29627524853E+02  0.16402744322E+02  0.34189631241E+02  0.47000000000E+01 0. -1.
         13    1    4    4    0    0  0.14445174889E+02 -0.24085997567E+02 -0.15611507560E+02  0.32132810718E+02  0.00000000000E+00 0. -1.
        -14    1    4    4    0    0 -0.73682749487E+02 -0.37314349986E+02  0.18880172755E+02  0.84722896611E+02  0.00000000000E+00 0.  1.
         -5    1    3    3    0  504  0.21124951454E+02  0.11871656021E+02 -0.77410071331E+02  0.81250285748E+02  0.47000000000E+01 0.  1.
<mgrwt>
<rscale>  2 0.18348264E+03</rscale>
<asrwt>0</asrwt>
<pdfrwt beam="1">  1       21 0.90232945E-01 0.18370911E+03</pdfrwt>
<pdfrwt beam="2">  1       21 0.23392471E-01 0.18370911E+03</pdfrwt>
<totfact> 0.18050281E+04</totfact>
</mgrwt>
</event>
<event>
12    1  0.2742799E-001  0.2740736E+03  0.7546771E-02  0.1099076E+00
         21   -1    0    0  502  503  0.00000000000E+00  0.00000000000E+00  0.11548292923E+03  0.11548292923E+03  0.00000000000E+00 0. -1.
         21   -1    0    0  503  504 -0.00000000000E+00 -0.00000000000E+00 -0.84772164519E+03  0.84772164519E+03  0.00000000000E+00 0. -1.
         -6    2    1    2    0  504  0.94719148676E+02  0.18892434468E+03 -0.13313840757E+03  0.30470017604E+03  0.17450569209E+03 0.  0.
        -24    2    3    3    0    0 -0.73073818077E+01  0.39764057294E+02 -0.15266066966E+02  0.88889650499E+02  0.77677146471E+02 0.  0.
          6    2    1    2  502    0 -0.94719148676E+02 -0.18892434468E+03 -0.59910030839E+03  0.65850439837E+03  0.17332841089E+03 0.  0.
         24    2    5    5    0    0 -0.65488665177E+00 -0.59757835707E+02 -0.33589752552E+03  0.35055981351E+03  0.80582922495E+02 0.  0.
          2    1    6    6  501    0 -0.19107804881E+01 -0.46223410459E+02 -0.33357800827E+03  0.33677075639E+03  0.00000000000E+00 0. -1.
         -1    1    6    6    0  501  0.12558938364E+01 -0.13534425248E+02 -0.23195172442E+01  0.13789057124E+02  0.00000000000E+00 0.  1.
          5    1    5    5  502    0 -0.94064262025E+02 -0.12916650897E+03 -0.26320278287E+03  0.30794458486E+03  0.47000000000E+01 0. -1.
         11    1    4    4    0    0  0.17346582793E+02  0.14247789763E+01  0.23368017658E+02  0.29137573320E+02  0.00000000000E+00 0. -1.
        -12    1    4    4    0    0 -0.24653964600E+02  0.38339278318E+02 -0.38634084624E+02  0.59752077179E+02  0.00000000000E+00 0.  1.
         -5    1    3    3    0  504  0.10202653048E+03  0.14916028739E+03 -0.11787234061E+03  0.21581052554E+03  0.47000000000E+01 0.  1.
<mgrwt>
<rscale>  2 0.27388643E+03</rscale>
<asrwt>0</asrwt>
<pdfrwt beam="1">  1       21 0.17766605E-01 0.27407364E+03</pdfrwt>
<pdfrwt beam="2">  1       21 0.13041871E+00 0.27407364E+03</pdfrwt>
<totfact> 0.11730487E+04</totfact>
</mgrwt>
</event>
<event>
12    1  0.2742799E-001  0.1890849E+03  0.7546771E-02  0.1159294E+00
         21   -1    0    0  502  503  0.00000000000E+00  0.00000000000E+00  0.66145275621E+03  0.66145275621E+03  0.00000000000E+00 0. -1.
         21   -1    0    0  503  504 -0.00000000000E+00 -0.00000000000E+00 -0.74542157542E+02  0.74542157542E+02  0.00000000000E+00 0. -1.
         -6    2    1    2    0  504 -0.72708124560E+02  0.23192687097E+02  0.10050342787E+03  0.21413556733E+03  0.17299921985E+03 0.  0.
        -24    2    3    3    0    0 -0.60488238889E+02 -0.49695295736E+02  0.27171159902E+02  0.10991611054E+03  0.72213779601E+02 0.  0.
          6    2    1    2  502    0  0.72708124560E+02 -0.23192687097E+02  0.48640717080E+03  0.52185934642E+03  0.17297649994E+03 0.  0.
         24    2    5    5    0    0  0.29730199929E+02 -0.24472892622E+02  0.45390920865E+02  0.78727127286E+02  0.51524922248E+02 0.  0.
          4    1    6    6  501    0 -0.13275819327E+02 -0.23853647996E+01  0.17578695413E+01  0.13602479530E+02  0.00000000000E+00 0. -1.
         -3    1    6    6    0  501  0.43006019256E+02 -0.22087527823E+02  0.43633051324E+02  0.65124647757E+02  0.00000000000E+00 0.  1.
          5    1    5    5  502    0  0.42977924631E+02  0.12802055252E+01  0.44101624993E+03  0.44313221914E+03  0.47000000000E+01 0. -1.
         11    1    4    4    0    0  0.15594902960E+02 -0.18685538040E+02  0.56934075708E+01  0.24995303958E+02  0.00000000000E+00 0. -1.
        -12    1    4    4    0    0 -0.76083141849E+02 -0.31009757696E+02  0.21477752331E+02  0.84920806586E+02  0.00000000000E+00 0.  1.
         -5    1    3    3    0  504 -0.12219885671E+02  0.72887982834E+02  0.73332267963E+02  0.10421945678E+03  0.47000000000E+01 0.  1.
<mgrwt>
<rscale>  2 0.18907971E+03</rscale>
<asrwt>0</asrwt>
<pdfrwt beam="1">  1       21 0.10176196E+00 0.18908491E+03</pdfrwt>
<pdfrwt beam="2">  1       21 0.11468025E-01 0.18908491E+03</pdfrwt>
<totfact> 0.50200732E+04</totfact>
</mgrwt>
</event>
<event>
12    1  0.2742799E-001  0.2702429E+03  0.7546771E-02  0.1102462E+00
         21   -1    0    0  502  503  0.00000000000E+00  0.00000000000E+00  0.43185224556E+02  0.43185224556E+02  0.00000000000E+00 0. -1.
         21   -1    0    0  503  504 -0.00000000000E+00 -0.00000000000E+00 -0.16348017022E+04  0.16348017022E+04  0.00000000000E+00 0. -1.
         -6    2    1    2    0  504  0.11295305496E+03 -0.16017337024E+03 -0.80968533361E+03  0.85359333194E+03  0.18605734522E+03 0.  0.
        -24    2    3    3    0    0  0.84610885155E+02 -0.18969729832E+03 -0.60235682763E+03  0.64221182775E+03  0.80363032800E+02 0.  0.
          6    2    1    2  502    0 -0.11295305496E+03  0.16017337024E+03 -0.78193114401E+03  0.82439359479E+03  0.17261107729E+03 0.  0.
         24    2    5    5    0    0 -0.73475571036E+02  0.89192454431E+02 -0.24570628280E+03  0.28203213421E+03  0.76266597228E+02 0.  0.
          2    1    6    6  501    0 -0.19110758775E+01 -0.97692630961E+01 -0.52705460803E+02  0.53637266065E+02  0.00000000000E+00 0. -1.
         -1    1    6    6    0  501 -0.71564495159E+02  0.98961717527E+02 -0.19300082200E+03  0.22839486815E+03  0.00000000000E+00 0.  1.
          5    1    5    5  502    0 -0.39477483927E+02  0.70980915808E+02 -0.53622486121E+03  0.54236146058E+03  0.47000000000E+01 0. -1.
         13    1    4    4    0    0  0.24878677571E+02 -0.59172133801E+02 -0.92900772615E+02  0.11291963323E+03  0.00000000000E+00 0. -1.
        -14    1    4    4    0    0  0.59732207584E+02 -0.13052516452E+03 -0.50945605501E+03  0.52929219453E+03  0.00000000000E+00 0.  1.
         -5    1    3    3    0  504  0.28342169808E+02  0.29523928084E+02 -0.20732850598E+03  0.21138150418E+03  0.47000000000E+01 0.  1.
<mgrwt>
<rscale>  2 0.26794493E+03</rscale>
<asrwt>0</asrwt>
<pdfrwt beam="1">  1       21 0.66438802E-02 0.27024292E+03</pdfrwt>
<pdfrwt beam="2">  1       21 0.25150797E+00 0.27024292E+03</pdfrwt>
<totfact> 0.10121077E+04</totfact>
</mgrwt>
</event>
<event>
12    1  0.2742799E-001  0.2448430E+03  0.7546771E-02  0.1116748E+00
         21   -1    0    0  502  503  0.00000000000E+00  0.00000000000E+00  0.10615528468E+04  0.10615528468E+04  0.00000000000E+00 0.  1.
         21   -1    0    0  503  504 -0.00000000000E+00 -0.00000000000E+00 -0.10766737850E+03  0.10766737850E+03  0.00000000000E+00 0.  1.
         -6    2    1    2    0  504 -0.62143834590E+02 -0.16103541586E+03  0.72595730998E+02  0.25455105312E+03  0.17242922359E+03 0.  0.
        -24    2    3    3    0    0 -0.78954641084E+02 -0.15682137599E+03  0.10387832349E+03  0.21848095554E+03  0.78207688414E+02 0.  0.
          6    2    1    2  502    0  0.62143834590E+02  0.16103541586E+03  0.88128973734E+03  0.91466917220E+03  0.17364858796E+03 0.  0.
         24    2    5    5    0    0  0.22988502941E+02  0.14991181361E+02  0.44315335511E+03  0.45115257287E+03  0.80003381630E+02 0.  0.
          4    1    6    6  501    0  0.34320645869E+02 -0.11254474194E+02  0.91978819852E+02  0.98816361113E+02  0.00000000000E+00 0. -1.
         -3    1    6    6    0  501 -0.11332142927E+02  0.26245655555E+02  0.35117453526E+03  0.35233621176E+03  0.00000000000E+00 0.  1.
          5    1    5    5  502    0  0.39155331649E+02  0.14604423450E+03  0.43813638223E+03  0.46351659933E+03  0.47000000000E+01 0. -1.
         11    1    4    4    0    0 -0.76969890880E+01 -0.67494244790E+02  0.73833281594E+02  0.10032980710E+03  0.00000000000E+00 0. -1.
        -12    1    4    4    0    0 -0.71257651996E+02 -0.89327131199E+02  0.30045041892E+02  0.11815114844E+03  0.00000000000E+00 0.  1.
         -5    1    3    3    0  504  0.16810806495E+02 -0.42140398761E+01 -0.31282592488E+02  0.36070097586E+02  0.47000000000E+01 0.  1.
<mgrwt>
<rscale>  2 0.24462689E+03</rscale>
<asrwt>0</asrwt>
<pdfrwt beam="1">  1       21 0.16331582E+00 0.24484300E+03</pdfrwt>
<pdfrwt beam="2">  1       21 0.16564213E-01 0.24484300E+03</pdfrwt>
<totfact> 0.74962441E+03</totfact>
</mgrwt>
</event>
<event>
12    1  0.2742799E-001  0.1795838E+03  0.7546771E-02  0.1168440E+00
         21   -1    0    0  502  503  0.00000000000E+00  0.00000000000E+00  0.12194874316E+04  0.12194874316E+04  0.00000000000E+00 0.  1.
         21   -1    0    0  503  504 -0.00000000000E+00 -0.00000000000E+00 -0.27106860472E+02  0.27106860472E+02  0.00000000000E+00 0.  1.
         -6    2    1    2    0  504 -0.24819464360E+02 -0.35725910806E+02  0.70185444368E+03  0.72422831292E+03  0.17324734520E+03 0.  0.
        -24    2    3    3    0    0  0.10770143544E+02  0.40655682804E+02  0.26587241057E+03  0.28015265358E+03  0.77643351728E+02 0.  0.
          6    2    1    2  502    0  0.24819464360E+02  0.35725910806E+02  0.49052612750E+03  0.52236597919E+03  0.17423543827E+03 0.  0.
         24    2    5    5    0    0  0.51850992252E+02 -0.34608567236E+02  0.33200970145E+03  0.34678924489E+03  0.78396812380E+02 0.  0.
          4    1    6    6  501    0  0.45727125432E+02 -0.24884284319E+01  0.28979888690E+03  0.29339488258E+03  0.00000000000E+00 0. -1.
         -3    1    6    6    0  501  0.61238668197E+01 -0.32120138804E+02  0.42210814557E+02  0.53394362317E+02  0.00000000000E+00 0.  1.
          5    1    5    5  502    0 -0.27031527891E+02  0.70334478042E+02  0.15851642604E+03  0.17557673430E+03  0.47000000000E+01 0. -1.
         11    1    4    4    0    0  0.43042715388E+02  0.18389311102E+02  0.11251713771E+03  0.12186446730E+03  0.00000000000E+00 0. -1.
        -12    1    4    4    0    0 -0.32272571844E+02  0.22266371702E+02  0.15335527285E+03  0.15828818628E+03  0.00000000000E+00 0.  1.
         -5    1    3    3    0  504 -0.35589607905E+02 -0.76381593610E+02  0.43598203311E+03  0.44407565935E+03  0.47000000000E+01 0.  1.
<mgrwt>
<rscale>  2 0.17934367E+03</rscale>
<asrwt>0</asrwt>
<pdfrwt beam="1">  1       21 0.18761341E+00 0.17958378E+03</pdfrwt>
<pdfrwt beam="2">  1       21 0.41702872E-02 0.17958378E+03</pdfrwt>
<totfact> 0.59570722E+04</totfact>
</mgrwt>
</event>
<event>
12    1  0.2742799E-001  0.1831586E+03  0.7546771E-02  0.1164871E+00
         21   -1    0    0  502  503  0.00000000000E+00  0.00000000000E+00  0.72835316866E+02  0.72835316866E+02  0.00000000000E+00 0.  1.
         21   -1    0    0  503  504 -0.00000000000E+00 -0.00000000000E+00 -0.55382054147E+03  0.55382054147E+03  0.00000000000E+00 0.  1.
         -6    2    1    2    0  504  0.47779120137E+02  0.32875398605E+02 -0.36991865473E+03  0.41277948128E+03  0.17373385650E+03 0.  0.
        -24    2    3    3    0    0 -0.24653592635E+02  0.62027321862E+02 -0.19182836643E+03  0.21826836773E+03  0.79923525295E+02 0.  0.
          6    2    1    2  502    0 -0.47779120137E+02 -0.32875398605E+02 -0.11106656988E+03  0.21387637706E+03  0.17333114424E+03 0.  0.
         24    2    5    5    0    0  0.15297148987E+02 -0.13673453776E+02  0.22342857718E+01  0.82702811496E+02  0.80086184146E+02 0.  0.
          2    1    6    6  501    0  0.76803588495E+01 -0.45881495538E+02  0.12283668823E+02  0.48114322864E+02  0.00000000000E+00 0. -1.
         -1    1    6    6    0  501  0.76167901372E+01  0.32208041762E+02 -0.10049383052E+02  0.34588488632E+02  0.00000000000E+00 0.  1.
          5    1    5    5  502    0 -0.63076269124E+02 -0.19201944828E+02 -0.11330085565E+03  0.13117356556E+03  0.47000000000E+01 0. -1.
         11    1    4    4    0    0  0.28519024084E+02  0.32716934590E+02 -0.81573793868E+02  0.92401387379E+02  0.00000000000E+00 0. -1.
        -12    1    4    4    0    0 -0.53172616719E+02  0.29310387271E+02 -0.11025457256E+03  0.12586698035E+03  0.00000000000E+00 0.  1.
         -5    1    3    3    0  504  0.72432712772E+02 -0.29151923257E+02 -0.17809028830E+03  0.19451111355E+03  0.47000000000E+01 0.  1.
<mgrwt>
<rscale>  2 0.18306308E+03</rscale>
<asrwt>0</asrwt>
<pdfrwt beam="1">  1       21 0.11205433E-01 0.18315864E+03</pdfrwt>
<pdfrwt beam="2">  1       21 0.85203159E-01 0.18315864E+03</pdfrwt>
<totfact> 0.79348029E+04</totfact>
</mgrwt>
</event>
<event>
12    1  0.2742799E-001  0.2554974E+03  0.7546771E-02  0.1110087E+00
         21   -1    0    0  502  503  0.00000000000E+00  0.00000000000E+00  0.10435235830E+04  0.10435235830E+04  0.00000000000E+00 0. -1.
         21   -1    0    0  503  504 -0.00000000000E+00 -0.00000000000E+00 -0.65918016308E+02  0.65918016308E+02  0.00000000000E+00 0.  1.
         -6    2    1    2    0  504  0.15810700896E+03 -0.10104007970E+03  0.35873649178E+03  0.44042114824E+03  0.17341278296E+03 0.  0.
        -24    2    3    3    0    0  0.53072764410E+02 -0.11194990094E+02  0.73326380844E+02  0.12326920661E+03  0.82924622671E+02 0.  0.
          6    2    1    2  502    0 -0.15810700896E+03  0.10104007970E+03  0.61886907487E+03  0.66902045103E+03  0.17141326693E+03 0.  0.
         24    2    5    5    0    0 -0.44927676793E+02  0.98587246745E+02  0.40787410117E+03  0.42952818279E+03  0.79970219750E+02 0.  0.
          4    1    6    6  501    0  0.12835211370E+02  0.34567697376E+01  0.10725180414E+02  0.17079853713E+02  0.00000000000E+00 0. -1.
         -3    1    6    6    0  501 -0.57762888164E+02  0.95130477008E+02  0.39714892076E+03  0.41244832908E+03  0.00000000000E+00 0.  1.
          5    1    5    5  502    0 -0.11317933216E+03  0.24528329501E+01  0.21099497370E+03  0.23949226824E+03  0.47000000000E+01 0. -1.
         13    1    4    4    0    0  0.44071968693E+02 -0.21252882772E+02  0.22199138325E+00  0.48929262521E+02  0.00000000000E+00 0. -1.
        -14    1    4    4    0    0  0.90007957171E+01  0.10057892678E+02  0.73104389461E+02  0.74339944089E+02  0.00000000000E+00 0.  1.
         -5    1    3    3    0  504  0.10503424454E+03 -0.89845089601E+02  0.28541011094E+03  0.31715194163E+03  0.47000000000E+01 0.  1.
<mgrwt>
<rscale>  2 0.25515850E+03</rscale>
<asrwt>0</asrwt>
<pdfrwt beam="1">  1       21 0.16054208E+00 0.25549739E+03</pdfrwt>
<pdfrwt beam="2">  1       21 0.10141234E-01 0.25549739E+03</pdfrwt>
<totfact> 0.18984845E+04</totfact>
</mgrwt>
</event>
<event>
12    1  0.2742799E-001  0.2206090E+03  0.7546771E-02  0.1133636E+00
         21   -1    0    0  502  503  0.00000000000E+00  0.00000000000E+00  0.38347466888E+02  0.38347466888E+02  0.00000000000E+00 0. -1.
         21   -1    0    0  503  504 -0.00000000000E+00 -0.00000000000E+00 -0.15910897717E+04  0.15910897717E+04  0.00000000000E+00 0.  1.
         -6    2    1    2    0  504 -0.50534120025E+01 -0.13443932811E+03 -0.11480081746E+04  0.11690128662E+04  0.17483947626E+03 0.  0.
        -24    2    3    3    0    0 -0.38192287945E+02 -0.10164046254E+02 -0.39917478589E+03  0.40919968861E+03  0.80882116526E+02 0.  0.
          6    2    1    2  502    0  0.50534120025E+01  0.13443932811E+03 -0.40473413021E+03  0.46042437239E+03  0.17343995105E+03 0.  0.
         24    2    5    5    0    0 -0.59624759126E+02  0.11456660934E+03 -0.27989630902E+03  0.31835128426E+03  0.79529720934E+02 0.  0.
          2    1    6    6  501    0 -0.63771023193E+02  0.41711100742E+02 -0.11409221878E+03  0.13719910244E+03  0.00000000000E+00 0. -1.
         -1    1    6    6    0  501  0.41462640663E+01  0.72855508594E+02 -0.16580409024E+03  0.18115218182E+03  0.00000000000E+00 0.  1.
          5    1    5    5  502    0  0.64678171129E+02  0.19872718774E+02 -0.12483782118E+03  0.14207308813E+03  0.47000000000E+01 0. -1.
         13    1    4    4    0    0  0.89083933603E+01  0.15427578330E+02 -0.22349911985E+02  0.28581256290E+02  0.00000000000E+00 0. -1.
        -14    1    4    4    0    0 -0.47100681306E+02 -0.25591624584E+02 -0.37682487390E+03  0.38061843232E+03  0.00000000000E+00 0.  1.
         -5    1    3    3    0  504  0.33138875943E+02 -0.12427528186E+03 -0.74883338873E+03  0.75981317760E+03  0.47000000000E+01 0.  1.
<mgrwt>
<rscale>  2 0.22033156E+03</rscale>
<asrwt>0</asrwt>
<pdfrwt beam="1">  1       21 0.58996076E-02 0.22060896E+03</pdfrwt>
<pdfrwt beam="2">  1       21 0.24478315E+00 0.22060896E+03</pdfrwt>
<totfact> 0.14140938E+04</totfact>
</mgrwt>
</event>
<event>
12    1  0.2742799E-001  0.1854747E+03  0.7546771E-02  0.1162874E+00
         21   -1    0    0  502  503  0.00000000000E+00  0.00000000000E+00  0.30015221122E+03  0.30015221122E+03  0.00000000000E+00 0.  1.
         21   -1    0    0  503  504 -0.00000000000E+00 -0.00000000000E+00 -0.12055150233E+03  0.12055150233E+03  0.00000000000E+00 0.  1.
         -6    2    1    2    0  504 -0.65278583516E+02 -0.11784062429E+02  0.13892192068E+03  0.23082048539E+03  0.17198441452E+03 0.  0.
        -24    2    3    3    0    0 -0.58799045054E+02 -0.40723877166E+02  0.16077106103E+03  0.19368597005E+03  0.80939230648E+02 0.  0.
          6    2    1    2  502    0  0.65278583516E+02  0.11784062429E+02  0.40678788206E+02  0.18988322815E+03  0.17320715612E+03 0.  0.
         24    2    5    5    0    0 -0.17943502616E+02 -0.25877689879E+02  0.47464627736E+02  0.98163760069E+02  0.79947537706E+02 0.  0.
          2    1    6    6  501    0 -0.18030387527E+02 -0.48230506079E+02  0.54258152226E+02  0.74801227757E+02  0.00000000000E+00 0. -1.
         -1    1    6    6    0  501  0.86884911060E-01  0.22352816200E+02 -0.67935244902E+01  0.23362532312E+02  0.00000000000E+00 0.  1.
          5    1    5    5  502    0  0.83222086132E+02  0.37661752309E+02 -0.67858395302E+01  0.91719468082E+02  0.47000000000E+01 0. -1.
         11    1    4    4    0    0  0.14573209932E+02 -0.41990278473E+01  0.23882967283E+01  0.15352988108E+02  0.00000000000E+00 0. -1.
        -12    1    4    4    0    0 -0.73372254987E+02 -0.36524849319E+02  0.15838276430E+03  0.17833298194E+03  0.00000000000E+00 0.  1.
         -5    1    3    3    0  504 -0.64795384613E+01  0.28939814737E+02 -0.21849140349E+02  0.37134515342E+02  0.47000000000E+01 0.  1.
<mgrwt>
<rscale>  2 0.18518873E+03</rscale>
<asrwt>0</asrwt>
<pdfrwt beam="1">  1       21 0.46177263E-01 0.18547473E+03</pdfrwt>
<pdfrwt beam="2">  1       21 0.18546385E-01 0.18547473E+03</pdfrwt>
<totfact> 0.11966489E+05</totfact>
</mgrwt>
</event>
<event>
12    1  0.2742799E-001  0.1936181E+03  0.7546771E-02  0.1155888E+00
         21   -1    0    0  502  503  0.00000000000E+00  0.00000000000E+00  0.77982005164E+03  0.77982005164E+03  0.00000000000E+00 0. -1.
         21   -1    0    0  503  504 -0.00000000000E+00 -0.00000000000E+00 -0.76035681421E+02  0.76035681421E+02  0.00000000000E+00 0. -1.
         -6    2    1    2    0  504 -0.29728172295E+01  0.79275735196E+02  0.87370744569E+02  0.20974914012E+03  0.17340004309E+03 0.  0.
        -24    2    3    3    0    0  0.37237528608E+02  0.45763295516E+02  0.11338990403E+03  0.15110579281E+03  0.80590182601E+02 0.  0.
          6    2    1    2  502    0  0.29728172295E+01 -0.79275735196E+02  0.61641362565E+03  0.64610659294E+03  0.17661962438E+03 0.  0.
         24    2    5    5    0    0  0.39045937859E+02 -0.43746576542E+02  0.56534754361E+03  0.57404116516E+03  0.80418070122E+02 0.  0.
          4    1    6    6  501    0  0.26908741132E+02 -0.64233944252E+02  0.49252073984E+03  0.49742010325E+03  0.00000000000E+00 0. -1.
         -3    1    6    6    0  501  0.12137196727E+02  0.20487367709E+02  0.72826803777E+02  0.76621061911E+02  0.00000000000E+00 0.  1.
          5    1    5    5  502    0 -0.36073120629E+02 -0.35529158654E+02  0.51066082040E+02  0.72065427783E+02  0.47000000000E+01 0. -1.
         13    1    4    4    0    0 -0.23602189170E+01  0.34906049749E+01 -0.12143544398E+02  0.12853817603E+02  0.00000000000E+00 0. -1.
        -14    1    4    4    0    0  0.39597747525E+02  0.42272690541E+02  0.12553344842E+03  0.13825197520E+03  0.00000000000E+00 0.  1.
         -5    1    3    3    0  504 -0.40210345837E+02  0.33512439680E+02 -0.26019159458E+02  0.58643347317E+02  0.47000000000E+01 0.  1.
<mgrwt>
<rscale>  2 0.19288082E+03</rscale>
<asrwt>0</asrwt>
<pdfrwt beam="1">  1       21 0.11997231E+00 0.19361811E+03</pdfrwt>
<pdfrwt beam="2">  1       21 0.11697798E-01 0.19361811E+03</pdfrwt>
<totfact> 0.32437565E+04</totfact>
</mgrwt>
</event>
<event>
12    1  0.2742799E-001  0.1755011E+03  0.7546771E-02  0.1172305E+00
         21   -1    0    0  502  503  0.00000000000E+00  0.00000000000E+00  0.43794477420E+03  0.43794477420E+03  0.00000000000E+00 0.  1.
         21   -1    0    0  503  504 -0.00000000000E+00 -0.00000000000E+00 -0.15007522906E+03  0.15007522906E+03  0.00000000000E+00 0. -1.
         -6    2    1    2    0  504  0.26643106177E+02  0.19690359320E+02 -0.70488936654E+02  0.18912781561E+03  0.17234580091E+03 0.  0.
        -24    2    3    3    0    0  0.24862503121E+02 -0.58117962961E+01 -0.11213995259E+03  0.14003170969E+03  0.79884852837E+02 0.  0.
          6    2    1    2  502    0 -0.26643106177E+02 -0.19690359320E+02  0.35835848180E+03  0.39889218765E+03  0.17203665464E+03 0.  0.
         24    2    5    5    0    0  0.27423280773E+02 -0.24085376674E+02  0.32205191545E+03  0.33344948649E+03  0.78351656643E+02 0.  0.
          2    1    6    6  501    0 -0.48524159071E+01  0.25964207555E+02  0.11562153088E+03  0.11860027157E+03  0.00000000000E+00 0. -1.
         -1    1    6    6    0  501  0.32275696680E+02 -0.50049584229E+02  0.20643038457E+03  0.21484921492E+03  0.00000000000E+00 0.  1.
          5    1    5    5  502    0 -0.54066386950E+02  0.43950173540E+01  0.36306566345E+02  0.65442701160E+02  0.47000000000E+01 0. -1.
         13    1    4    4    0    0 -0.20007806639E+02 -0.84964470205E+01 -0.84527158663E+02  0.87277388195E+02  0.00000000000E+00 0. -1.
        -14    1    4    4    0    0  0.44870309760E+02  0.26846507245E+01 -0.27612793930E+02  0.52754321492E+02  0.00000000000E+00 0.  1.
         -5    1    3    3    0  504  0.17806030561E+01  0.25502155616E+02  0.41651015939E+02  0.49096105926E+02  0.47000000000E+01 0.  1.
<mgrwt>
<rscale>  2 0.17542517E+03</rscale>
<asrwt>0</asrwt>
<pdfrwt beam="1">  1       21 0.67376119E-01 0.17550111E+03</pdfrwt>
<pdfrwt beam="2">  1       21 0.23088497E-01 0.17550111E+03</pdfrwt>
<totfact> 0.35829452E+04</totfact>
</mgrwt>
</event>
<event>
12    1  0.2742799E-001  0.1914126E+03  0.7546771E-02  0.1158002E+00
         21   -1    0    0  502  503  0.00000000000E+00  0.00000000000E+00  0.49610185885E+02  0.49610185885E+02  0.00000000000E+00 0.  1.
         21   -1    0    0  503  504 -0.00000000000E+00 -0.00000000000E+00 -0.75810917319E+03  0.75810917319E+03  0.00000000000E+00 0.  1.
         -6    2    1    2    0  504 -0.57392018966E+02  0.51885681698E+02 -0.26635959391E+03  0.32592478743E+03  0.17115363270E+03 0.  0.
        -24    2    3    3    0    0  0.16678929504E+02 -0.11832965569E+02 -0.16690000401E+03  0.18642256006E+03  0.80495675652E+02 0.  0.
          6    2    1    2  502    0  0.57392018966E+02 -0.51885681698E+02 -0.44213939340E+03  0.48179457165E+03  0.17507940561E+03 0.  0.
         24    2    5    5    0    0 -0.63031475887E+00 -0.33723215523E+02 -0.94707913382E+02  0.12905218733E+03  0.80914928384E+02 0.  0.
          4    1    6    6  501    0 -0.38166841349E+02 -0.50466421148E+01 -0.29348453195E+02  0.48409793226E+02  0.00000000000E+00 0. -1.
         -3    1    6    6    0  501  0.37536526590E+02 -0.28676573408E+02 -0.65359460186E+02  0.80642394104E+02  0.00000000000E+00 0.  1.
          5    1    5    5  502    0  0.58022333725E+02 -0.18162466175E+02 -0.34743148002E+03  0.35274238432E+03  0.47000000000E+01 0. -1.
         11    1    4    4    0    0  0.22661907655E+02 -0.37179421055E+02 -0.14792483361E+03  0.15419996046E+03  0.00000000000E+00 0. -1.
        -12    1    4    4    0    0 -0.59829781509E+01  0.25346455486E+02 -0.18975170399E+02  0.32222599599E+02  0.00000000000E+00 0.  1.
         -5    1    3    3    0  504 -0.74070948470E+02  0.63718647267E+02 -0.99459589898E+02  0.13950222736E+03  0.47000000000E+01 0.  1.
<mgrwt>
<rscale>  2 0.19051017E+03</rscale>
<asrwt>0</asrwt>
<pdfrwt beam="1">  1       21 0.76323369E-02 0.19141255E+03</pdfrwt>
<pdfrwt beam="2">  1       21 0.11663217E+00 0.19141255E+03</pdfrwt>
<totfact> 0.73811017E+04</totfact>
</mgrwt>
</event>
<event>
12    1  0.2742799E-001  0.2837078E+03  0.7546771E-02  0.1093838E+00
         21   -1    0    0  502  503  0.00000000000E+00  0.00000000000E+00  0.18959071689E+03  0.18959071689E+03  0.00000000000E+00 0. -1.
         21   -1    0    0  503  504 -0.00000000000E+00 -0.00000000000E+00 -0.12293723205E+04  0.12293723205E+04  0.00000000000E+00 0.  1.
         -6    2    1    2    0  504 -0.22344388601E+03 -0.10186552323E+02 -0.10941938345E+04  0.11300844983E+04  0.17262644526E+03 0.  0.
        -24    2    3    3    0    0 -0.26900291809E+02 -0.14773722498E+02 -0.36987123523E+03  0.37954086567E+03  0.79401822907E+02 0.  0.
          6    2    1    2  502    0  0.22344388601E+03  0.10186552323E+02  0.54412230898E+02  0.28887853918E+03  0.17452559549E+03 0.  0.
         24    2    5    5    0    0  0.17466891610E+03 -0.25844314447E+01 -0.27253775077E+02  0.19278732080E+03  0.76865293013E+02 0.  0.
          4    1    6    6  501    0  0.11867252052E+03 -0.37979597528E+02 -0.17179863510E+02  0.12578062118E+03  0.00000000000E+00 0. -1.
         -3    1    6    6    0  501  0.55996395575E+02  0.35395166083E+02 -0.10073911566E+02  0.67006699618E+02  0.00000000000E+00 0.  1.
          5    1    5    5  502    0  0.48774969918E+02  0.12770983768E+02  0.81666005974E+02  0.96091218375E+02  0.47000000000E+01 0. -1.
         13    1    4    4    0    0 -0.83368000426E+01  0.30105193767E+02 -0.84980893451E+02  0.90540472599E+02  0.00000000000E+00 0. -1.
        -14    1    4    4    0    0 -0.18563491766E+02 -0.44878916265E+02 -0.28489034178E+03  0.28900039307E+03  0.00000000000E+00 0.  1.
         -5    1    3    3    0  504 -0.19654359420E+03  0.45871701746E+01 -0.72432259931E+03  0.75054363260E+03  0.47000000000E+01 0.  1.
<mgrwt>
<rscale>  2 0.28341628E+03</rscale>
<asrwt>0</asrwt>
<pdfrwt beam="1">  1       21 0.29167802E-01 0.28370781E+03</pdfrwt>
<pdfrwt beam="2">  1       21 0.18913420E+00 0.28370781E+03</pdfrwt>
<totfact> 0.16438905E+03</totfact>
</mgrwt>
</event>
<event>
12    1  0.2742799E-001  0.1789675E+03  0.7546771E-02  0.1168832E+00
         21   -1    0    0  502  503  0.00000000000E+00  0.00000000000E+00  0.53208206974E+02  0.53208206974E+02  0.00000000000E+00 0. -1.
         21   -1    0    0  503  504 -0.00000000000E+00 -0.00000000000E+00 -0.61046478554E+03  0.61046478554E+03  0.00000000000E+00 0. -1.
         -6    2    1    2    0  504  0.42540883969E+02  0.22083114965E+01 -0.31852886007E+03  0.36531032332E+03  0.17371354058E+03 0.  0.
        -24    2    3    3    0    0  0.23689695319E+02  0.56812050019E+02 -0.27299146193E+03  0.29160360583E+03  0.81972641500E+02 0.  0.
          6    2    1    2  502    0 -0.42540883969E+02 -0.22083114965E+01 -0.23872771849E+03  0.29836266919E+03  0.17382392051E+03 0.  0.
         24    2    5    5    0    0  0.42063654519E+02 -0.13360937227E+02 -0.14578653293E+03  0.17209920271E+03  0.80103412625E+02 0.  0.
          2    1    6    6  501    0  0.35290223043E+02 -0.33366081513E+01 -0.15363953590E+03  0.15767574255E+03  0.00000000000E+00 0. -1.
         -1    1    6    6    0  501  0.67734314764E+01 -0.10024329076E+02  0.78530029694E+01  0.14423460161E+02  0.00000000000E+00 0.  1.
          5    1    5    5  502    0 -0.84604538488E+02  0.11152625731E+02 -0.92941185557E+02  0.12626346648E+03  0.47000000000E+01 0. -1.
         13    1    4    4    0    0 -0.65133422258E+01  0.17655860827E+01  0.38240248574E+01  0.77565512489E+01  0.00000000000E+00 0. -1.
        -14    1    4    4    0    0  0.30203037545E+02  0.55046463936E+02 -0.27681548679E+03  0.28384705458E+03  0.00000000000E+00 0.  1.
         -5    1    3    3    0  504  0.18851188650E+02 -0.54603738522E+02 -0.45537398140E+02  0.73706717492E+02  0.47000000000E+01 0.  1.
<mgrwt>
<rscale>  2 0.17894067E+03</rscale>
<asrwt>0</asrwt>
<pdfrwt beam="1">  1       21 0.81858779E-02 0.17896748E+03</pdfrwt>
<pdfrwt beam="2">  1       21 0.93917660E-01 0.17896748E+03</pdfrwt>
<totfact> 0.11029680E+05</totfact>
</mgrwt>
</event>
<event>
12    1  0.2742799E-001  0.2059401E+03  0.7546771E-02  0.1145593E+00
         21   -1    0    0  502  503  0.00000000000E+00  0.00000000000E+00  0.43349296690E+03  0.43349296690E+03  0.00000000000E+00 0.  1.
         21   -1    0    0  503  504 -0.00000000000E+00 -0.00000000000E+00 -0.14926888010E+03  0.14926888010E+03  0.00000000000E+00 0.  1.
         -6    2    1    2    0  504 -0.10491370621E+03 -0.11083208899E+02  0.31692168291E+03  0.37795590203E+03  0.17686601570E+03 0.  0.
        -24    2    3    3    0    0 -0.53818351234E+02  0.63895715974E+02  0.18920525703E+03  0.22121997789E+03  0.78489310621E+02 0.  0.
          6    2    1    2  502    0  0.10491370621E+03  0.11083208899E+02 -0.32697596110E+02  0.20480594498E+03  0.17247208190E+03 0.  0.
         24    2    5    5    0    0  0.25872334497E+02 -0.23667008486E+02 -0.68778343990E+02  0.11110948603E+03  0.79908399442E+02 0.  0.
          2    1    6    6  501    0 -0.10911311039E+02 -0.43793092736E+02 -0.39419426819E+02  0.59923141529E+02  0.00000000000E+00 0. -1.
         -1    1    6    6    0  501  0.36783645537E+02  0.20126084249E+02 -0.29358917171E+02  0.51186344504E+02  0.00000000000E+00 0.  1.
          5    1    5    5  502    0  0.79041371717E+02  0.34750217386E+02  0.36080747880E+02  0.93696458945E+02  0.47000000000E+01 0. -1.
         11    1    4    4    0    0 -0.19762995863E+02  0.41574684120E+02  0.17014326812E+03  0.17626049487E+03  0.00000000000E+00 0. -1.
        -12    1    4    4    0    0 -0.34055355371E+02  0.22321031854E+02  0.19061988908E+02  0.44959483022E+02  0.00000000000E+00 0.  1.
         -5    1    3    3    0  504 -0.51095354981E+02 -0.74978924874E+02  0.12771642588E+03  0.15673592414E+03  0.47000000000E+01 0.  1.
<mgrwt>
<rscale>  2 0.20499329E+03</rscale>
<asrwt>0</asrwt>
<pdfrwt beam="1">  1       21 0.66691225E-01 0.20594007E+03</pdfrwt>
<pdfrwt beam="2">  1       21 0.22964443E-01 0.20594007E+03</pdfrwt>
<totfact> 0.36424886E+04</totfact>
</mgrwt>
</event>
<event>
12    1  0.2742799E-001  0.1987404E+03  0.7546771E-02  0.1150876E+00
         21   -1    0    0  502  503  0.00000000000E+00  0.00000000000E+00  0.14460015422E+03  0.14460015422E+03  0.00000000000E+00 0.  1.
         21   -1    0    0  503  504 -0.00000000000E+00 -0.00000000000E+00 -0.65432701809E+03  0.65432701809E+03  0.00000000000E+00 0.  1.
         -6    2    1    2    0  504 -0.87774806360E+02 -0.43174928993E+02 -0.56002012009E+03  0.59423924707E+03  0.17300074199E+03 0.  0.
        -24    2    3    3    0    0 -0.53915231016E+02 -0.45479818308E+02 -0.15759895810E+03  0.19036220517E+03  0.80156544050E+02 0.  0.
          6    2    1    2  502    0  0.87774806360E+02  0.43174928993E+02  0.50293256216E+02  0.20468792524E+03  0.17262457529E+03 0.  0.
         24    2    5    5    0    0  0.48343371305E+02  0.65485083865E+02  0.88930744484E+02  0.14495915009E+03  0.80492857595E+02 0.  0.
          2    1    6    6  501    0 -0.20999701956E+02  0.14543398540E+02  0.78265608973E+01  0.26716155764E+02  0.00000000000E+00 0. -1.
         -1    1    6    6    0  501  0.69343073261E+02  0.50941685325E+02  0.81104183587E+02  0.11824299433E+03  0.00000000000E+00 0.  1.
          5    1    5    5  502    0  0.39431435056E+02 -0.22310154872E+02 -0.38637488269E+02  0.59728775148E+02  0.47000000000E+01 0. -1.
         13    1    4    4    0    0 -0.38152594490E+01 -0.49684387567E+02 -0.11159419263E+03  0.12221439523E+03  0.00000000000E+00 0. -1.
        -14    1    4    4    0    0 -0.50099971567E+02  0.42045692592E+01 -0.46004765468E+02  0.68147809938E+02  0.00000000000E+00 0.  1.
         -5    1    3    3    0  504 -0.33859575345E+02  0.23048893153E+01 -0.40242116199E+03  0.40387704190E+03  0.47000000000E+01 0.  1.
<mgrwt>
<rscale>  2 0.19865851E+03</rscale>
<asrwt>0</asrwt>
<pdfrwt beam="1">  1       21 0.22246177E-01 0.19874040E+03</pdfrwt>
<pdfrwt beam="2">  1       21 0.10066570E+00 0.19874040E+03</pdfrwt>
<totfact> 0.15214210E+04</totfact>
</mgrwt>
</event>
<event>
12    1  0.2742799E-001  0.1742192E+03  0.7546771E-02  0.1175781E+00
         21   -1    0    0  502  503  0.00000000000E+00  0.00000000000E+00  0.29057492585E+03  0.29057492585E+03  0.00000000000E+00 0. -1.
         21   -1    0    0  503  504 -0.00000000000E+00 -0.00000000000E+00 -0.14264742977E+03  0.14264742977E+03  0.00000000000E+00 0. -1.
         -6    2    1    2    0  504  0.12425647241E+02 -0.15999801966E+02 -0.46745060879E+02  0.17197584245E+03  0.16425650458E+03 0.  0.
        -24    2    3    3    0    0 -0.17362540707E+02 -0.37243405392E+02 -0.80854844969E+02  0.12173448301E+03  0.81198825934E+02 0.  0.
          6    2    1    2  502    0 -0.12425647241E+02  0.15999801966E+02  0.19467255695E+03  0.26124651317E+03  0.17303741168E+03 0.  0.
         24    2    5    5    0    0 -0.59578602785E+02  0.46021314460E+02  0.15199494173E+03  0.19076132842E+03  0.87291756845E+02 0.  0.
          4    1    6    6  501    0 -0.57224680515E+01  0.57381901447E+02  0.97686951967E+02  0.11343795590E+03  0.00000000000E+00 0. -1.
         -3    1    6    6    0  501 -0.53856134733E+02 -0.11360586987E+02  0.54307989763E+02  0.77323372515E+02  0.00000000000E+00 0.  1.
          5    1    5    5  502    0  0.47152955543E+02 -0.30021512494E+02  0.42677615225E+02  0.70485184757E+02  0.47000000000E+01 0. -1.
         11    1    4    4    0    0 -0.33384421059E+02  0.13045673028E+02 -0.46693023051E+02  0.58863805142E+02  0.00000000000E+00 0. -1.
        -12    1    4    4    0    0  0.16021880352E+02 -0.50289078420E+02 -0.34161821918E+02  0.62870677865E+02  0.00000000000E+00 0.  1.
         -5    1    3    3    0  504  0.29788187949E+02  0.21243603426E+02  0.34109784090E+02  0.50241359441E+02  0.47000000000E+01 0.  1.
<mgrwt>
<rscale>  2 0.17199753E+03</rscale>
<asrwt>0</asrwt>
<pdfrwt beam="1">  1       21 0.44703835E-01 0.17421922E+03</pdfrwt>
<pdfrwt beam="2">  1       21 0.21945758E-01 0.17421922E+03</pdfrwt>
<totfact> 0.93824204E+04</totfact>
</mgrwt>
</event>
<event>
12    1  0.2742799E-001  0.1925626E+03  0.7546771E-02  0.1156201E+00
         21   -1    0    0  502  503  0.00000000000E+00  0.00000000000E+00  0.56204756742E+03  0.56204756742E+03  0.00000000000E+00 0.  1.
         21   -1    0    0  503  504 -0.00000000000E+00 -0.00000000000E+00 -0.11421606036E+03  0.11421606036E+03  0.00000000000E+00 0.  1.
         -6    2    1    2    0  504  0.61642479474E+02 -0.57499572215E+02  0.40075881680E+01  0.19246610733E+03  0.17297729801E+03 0.  0.
        -24    2    3    3    0    0  0.10027370025E+03 -0.57076054375E+02  0.33183779750E+02  0.14382568442E+03  0.79197053706E+02 0.  0.
          6    2    1    2  502    0 -0.61642479474E+02  0.57499572215E+02  0.44382391890E+03  0.48379752045E+03  0.17313108827E+03 0.  0.
         24    2    5    5    0    0 -0.52980776355E+02  0.25305760783E+02  0.43855339579E+03  0.44971915474E+03  0.80441860924E+02 0.  0.
          4    1    6    6  501    0 -0.65242252638E+02 -0.51786873747E+01  0.25608425547E+03  0.26431518351E+03  0.00000000000E+00 0. -1.
         -3    1    6    6    0  501  0.12261476283E+02  0.30484448157E+02  0.18246914032E+03  0.18540397123E+03  0.00000000000E+00 0.  1.
          5    1    5    5  502    0 -0.86617031188E+01  0.32193811432E+02  0.52705231071E+01  0.34078365707E+02  0.47000000000E+01 0. -1.
         13    1    4    4    0    0  0.16815462313E+02  0.16629876606E+01  0.38070659033E+02  0.41652135359E+02  0.00000000000E+00 0. -1.
        -14    1    4    4    0    0  0.83458237934E+02 -0.58739042036E+02 -0.48868792831E+01  0.10217354906E+03  0.00000000000E+00 0.  1.
         -5    1    3    3    0  504 -0.38631220773E+02 -0.42351783980E+00 -0.29176191582E+02  0.48640422912E+02  0.47000000000E+01 0.  1.
<mgrwt>
<rscale>  2 0.19252806E+03</rscale>
<asrwt>0</asrwt>
<pdfrwt beam="1">  1       21 0.86468855E-01 0.19256264E+03</pdfrwt>
<pdfrwt beam="2">  1       21 0.17571702E-01 0.19256264E+03</pdfrwt>
<totfact> 0.33821391E+04</totfact>
</mgrwt>
</event>
<event>
12    1  0.2742799E-001  0.2841974E+03  0.7546771E-02  0.1093880E+00
         21   -1    0    0  502  503  0.00000000000E+00  0.00000000000E+00  0.37103207001E+03  0.37103207001E+03  0.00000000000E+00 0. -1.
         21   -1    0    0  503  504 -0.00000000000E+00 -0.00000000000E+00 -0.84014266956E+03  0.84014266956E+03  0.00000000000E+00 0. -1.
         -6    2    1    2    0  504 -0.18645115658E+03  0.12563792328E+03 -0.75727064326E+03  0.80884299129E+03  0.17383680816E+03 0.  0.
        -24    2    3    3    0    0 -0.16828864387E+03  0.78617851578E+02 -0.40925028090E+03  0.45715985745E+03  0.83710863167E+02 0.  0.
          6    2    1    2  502    0  0.18645115658E+03 -0.12563792328E+03  0.28816004371E+03  0.40233174828E+03  0.16818354059E+03 0.  0.
         24    2    5    5    0    0  0.17042316639E+03 -0.15406169772E+03  0.27456521795E+03  0.36667061102E+03  0.79260429766E+02 0.  0.
          2    1    6    6  501    0  0.16700555862E+03 -0.12510627505E+03  0.21108746932E+03  0.29681704192E+03  0.00000000000E+00 0. -1.
         -1    1    6    6    0  501  0.34176077703E+01 -0.28955422671E+02  0.63477748631E+02  0.69853569101E+02  0.00000000000E+00 0.  1.
          5    1    5    5  502    0  0.16027990191E+02  0.28423774447E+02  0.13594825759E+02  0.35661137261E+02  0.47000000000E+01 0. -1.
         11    1    4    4    0    0 -0.58754936329E+02  0.51628133033E+02 -0.93720980356E+02  0.12207058951E+03  0.00000000000E+00 0. -1.
        -12    1    4    4    0    0 -0.10953370754E+03  0.26989718545E+02 -0.31552930054E+03  0.33508926795E+03  0.00000000000E+00 0.  1.
         -5    1    3    3    0  504 -0.18162512714E+02  0.47020071700E+02 -0.34802036236E+03  0.35168313384E+03  0.47000000000E+01 0.  1.
<mgrwt>
<rscale>  2 0.28333791E+03</rscale>
<asrwt>0</asrwt>
<pdfrwt beam="1">  1       21 0.57081857E-01 0.28419739E+03</pdfrwt>
<pdfrwt beam="2">  1       21 0.12925272E+00 0.28419739E+03</pdfrwt>
<totfact> 0.11714851E+03</totfact>
</mgrwt>
</event>
<event>
12    1  0.2742799E-001  0.1737279E+03  0.7546771E-02  0.1174643E+00
         21   -1    0    0  502  503  0.00000000000E+00  0.00000000000E+00  0.29018607472E+03  0.29018607472E+03  0.00000000000E+00 0. -1.
         21   -1    0    0  503  504 -0.00000000000E+00 -0.00000000000E+00 -0.10369260069E+03  0.10369260069E+03  0.00000000000E+00 0. -1.
         -6    2    1    2    0  504 -0.95291848689E+00 -0.26818101665E+02  0.11336092778E+03  0.20538525625E+03  0.16915166244E+03 0.  0.
        -24    2    3    3    0    0  0.43362991248E+02  0.24831786028E+02  0.33663091433E+02  0.10047841246E+03  0.80409831730E+02 0.  0.
          6    2    1    2  502    0  0.95291848689E+00  0.26818101665E+02  0.73132546244E+02  0.18849341917E+03  0.17164288834E+03 0.  0.
         24    2    5    5    0    0  0.36962712921E+02  0.14233328781E+02 -0.15577788856E+02  0.91815110549E+02  0.81354269862E+02 0.  0.
          4    1    6    6  501    0  0.13645244577E+02  0.41368852557E+02 -0.30367149234E+02  0.53101209158E+02  0.00000000000E+00 0. -1.
         -3    1    6    6    0  501  0.23317468345E+02 -0.27135523775E+02  0.14789360378E+02  0.38713901392E+02  0.00000000000E+00 0.  1.
          5    1    5    5  502    0 -0.36009794434E+02  0.12584772883E+02  0.88710335101E+02  0.96678308619E+02  0.47000000000E+01 0. -1.
         13    1    4    4    0    0  0.16756533261E+01 -0.25748283535E+02 -0.19621302285E+01  0.25877246262E+02  0.00000000000E+00 0. -1.
        -14    1    4    4    0    0  0.41687337922E+02  0.50580069563E+02  0.35625221662E+02  0.74601166201E+02  0.00000000000E+00 0.  1.
         -5    1    3    3    0  504 -0.44315909735E+02 -0.51649887693E+02  0.79697836347E+02  0.10490684378E+03  0.47000000000E+01 0.  1.
<mgrwt>
<rscale>  2 0.17310943E+03</rscale>
<asrwt>0</asrwt>
<pdfrwt beam="1">  1       21 0.44644011E-01 0.17372795E+03</pdfrwt>
<pdfrwt beam="2">  1       21 0.15952708E-01 0.17372795E+03</pdfrwt>
<totfact> 0.16985276E+05</totfact>
</mgrwt>
</event>
<event>
12    1  0.2742799E-001  0.2072379E+03  0.7546771E-02  0.1146362E+00
         21   -1    0    0  502  503  0.00000000000E+00  0.00000000000E+00  0.18602570597E+03  0.18602570597E+03  0.00000000000E+00 0. -1.
         21   -1    0    0  503  504 -0.00000000000E+00 -0.00000000000E+00 -0.27993988295E+03  0.27993988295E+03  0.00000000000E+00 0. -1.
         -6    2    1    2    0  504  0.10829810749E+03  0.33240975643E+02 -0.15832636093E+03  0.26079641725E+03  0.17353412384E+03 0.  0.
        -24    2    3    3    0    0  0.22629478572E+02 -0.14379867002E+02 -0.13709006452E+02  0.86030494224E+02  0.80588058688E+02 0.  0.
          6    2    1    2  502    0 -0.10829810749E+03 -0.33240975643E+02  0.64412183944E+02  0.20516917167E+03  0.15846771600E+03 0.  0.
         24    2    5    5    0    0 -0.81710081861E+01 -0.11217324123E+02 -0.56368708766E+01  0.80913639302E+02  0.79515086471E+02 0.  0.
          4    1    6    6  501    0 -0.62791176823E+01 -0.25952724299E+02 -0.37338521909E+02  0.45903555808E+02  0.00000000000E+00 0. -1.
         -3    1    6    6    0  501 -0.18918905038E+01  0.14735400176E+02  0.31701651033E+02  0.35010083494E+02  0.00000000000E+00 0.  1.
          5    1    5    5  502    0 -0.10012709931E+03 -0.22023651520E+02  0.70049054820E+02  0.12425553236E+03  0.47000000000E+01 0. -1.
         11    1    4    4    0    0  0.29652820922E+02 -0.21001810624E+02 -0.42352561515E+02  0.55804169244E+02  0.00000000000E+00 0. -1.
        -12    1    4    4    0    0 -0.70233423503E+01  0.66219436219E+01  0.28643555064E+02  0.30226324980E+02  0.00000000000E+00 0.  1.
         -5    1    3    3    0  504  0.85668628921E+02  0.47620842646E+02 -0.14461735448E+03  0.17476592303E+03  0.47000000000E+01 0.  1.
<mgrwt>
<rscale>  2 0.20405480E+03</rscale>
<asrwt>0</asrwt>
<pdfrwt beam="1">  1       21 0.28619339E-01 0.20723787E+03</pdfrwt>
<pdfrwt beam="2">  1       21 0.43067675E-01 0.20723787E+03</pdfrwt>
<totfact> 0.60134335E+04</totfact>
</mgrwt>
</event>
<event>
12    1  0.2742799E-001  0.1962807E+03  0.7546771E-02  0.1153998E+00
         21   -1    0    0  502  503  0.00000000000E+00  0.00000000000E+00  0.97739578862E+03  0.97739578862E+03  0.00000000000E+00 0.  1.
         21   -1    0    0  503  504 -0.00000000000E+00 -0.00000000000E+00 -0.39565795063E+02  0.39565795063E+02  0.00000000000E+00 0.  1.
         -6    2    1    2    0  504  0.13455904399E+02 -0.87255030927E+02  0.37699979038E+03  0.42277590864E+03  0.16975313013E+03 0.  0.
        -24    2    3    3    0    0  0.52886916839E+02 -0.78065369202E+02  0.35622600539E+03  0.37702774181E+03  0.79760412096E+02 0.  0.
          6    2    1    2  502    0 -0.13455904399E+02  0.87255030927E+02  0.56083020317E+03  0.59418567505E+03  0.17530430073E+03 0.  0.
         24    2    5    5    0    0  0.34165868796E+02  0.92247390397E+01  0.40166095944E+03  0.41057331739E+03  0.77372606342E+02 0.  0.
          4    1    6    6  501    0 -0.10440013204E+02 -0.25679539944E+02  0.15824929437E+03  0.16065886784E+03  0.00000000000E+00 0. -1.
         -3    1    6    6    0  501  0.44605882001E+02  0.34904278983E+02  0.24341166508E+03  0.24991444955E+03  0.00000000000E+00 0.  1.
          5    1    5    5  502    0 -0.47621773196E+02  0.78030291887E+02  0.15916924373E+03  0.18361235766E+03  0.47000000000E+01 0. -1.
         11    1    4    4    0    0  0.71830350249E+02 -0.59342992915E+02  0.23264140996E+03  0.25060569757E+03  0.00000000000E+00 0. -1.
        -12    1    4    4    0    0 -0.18943433410E+02 -0.18722376287E+02  0.12358459543E+03  0.12642204425E+03  0.00000000000E+00 0.  1.
         -5    1    3    3    0  504 -0.39431012440E+02 -0.91896617246E+01  0.20773784991E+02  0.45748166821E+02  0.47000000000E+01 0.  1.
<mgrwt>
<rscale>  2 0.19503342E+03</rscale>
<asrwt>0</asrwt>
<pdfrwt beam="1">  1       21 0.15036856E+00 0.19628067E+03</pdfrwt>
<pdfrwt beam="2">  1       21 0.60870461E-02 0.19628067E+03</pdfrwt>
<totfact> 0.57016766E+04</totfact>
</mgrwt>
</event>
<event>
12    1  0.2742799E-001  0.1926733E+03  0.7546771E-02  0.1156096E+00
         21   -1    0    0  502  503  0.00000000000E+00  0.00000000000E+00  0.31682958187E+03  0.31682958187E+03  0.00000000000E+00 0.  1.
         21   -1    0    0  503  504 -0.00000000000E+00 -0.00000000000E+00 -0.13484835020E+03  0.13484835020E+03  0.00000000000E+00 0.  1.
         -6    2    1    2    0  504 -0.80924813332E+02 -0.22469398976E+02  0.90915777713E+01  0.19288771331E+03  0.17340505718E+03 0.  0.
        -24    2    3    3    0    0 -0.14041094475E+02 -0.56209583168E+02 -0.38115245658E+02  0.10421750379E+03  0.77793615231E+02 0.  0.
          6    2    1    2  502    0  0.80924813332E+02  0.22469398976E+02  0.17288965390E+03  0.25879021877E+03  0.17328544544E+03 0.  0.
         24    2    5    5    0    0 -0.33933703108E+01  0.33303282999E+02  0.29417197660E+02  0.91956874272E+02  0.80436755200E+02 0.  0.
          4    1    6    6  501    0 -0.86116024858E+01 -0.12680328051E+02 -0.19376982912E+02  0.24706636429E+02  0.00000000000E+00 0. -1.
         -3    1    6    6    0  501  0.52182321750E+01  0.45983611050E+02  0.48794180573E+02  0.67250237843E+02  0.00000000000E+00 0.  1.
          5    1    5    5  502    0  0.84318183643E+02 -0.10833884023E+02  0.14347245624E+03  0.16683334449E+03  0.47000000000E+01 0. -1.
         13    1    4    4    0    0 -0.15683181252E+02 -0.59477183665E+01 -0.49834365646E+02  0.52581380043E+02  0.00000000000E+00 0. -1.
        -14    1    4    4    0    0  0.16420867768E+01 -0.50261864802E+02  0.11719119987E+02  0.51636123747E+02  0.00000000000E+00 0.  1.
         -5    1    3    3    0  504 -0.66883718857E+02  0.33740184192E+02  0.47206823430E+02  0.88670209517E+02  0.47000000000E+01 0.  1.
<mgrwt>
<rscale>  2 0.19264642E+03</rscale>
<asrwt>0</asrwt>
<pdfrwt beam="1">  1       21 0.48743012E-01 0.19267333E+03</pdfrwt>
<pdfrwt beam="2">  1       21 0.20745900E-01 0.19267333E+03</pdfrwt>
<totfact> 0.86606361E+04</totfact>
</mgrwt>
</event>
<event>
12    1  0.2742799E-001  0.2388668E+03  0.7546771E-02  0.1120611E+00
         21   -1    0    0  502  503  0.00000000000E+00  0.00000000000E+00  0.12959498278E+04  0.12959498278E+04  0.00000000000E+00 0.  1.
         21   -1    0    0  503  504 -0.00000000000E+00 -0.00000000000E+00 -0.60771884181E+02  0.60771884181E+02  0.00000000000E+00 0.  1.
         -6    2    1    2    0  504  0.53155673980E+02 -0.15579535236E+03  0.26045385406E+03  0.35315587272E+03  0.17258372707E+03 0.  0.
        -24    2    3    3    0    0 -0.40279974305E+01 -0.11845369462E+02  0.11316385251E+03  0.13936156876E+03  0.80368226243E+02 0.  0.
          6    2    1    2  502    0 -0.53155673980E+02  0.15579535236E+03  0.97472408951E+03  0.10035658392E+04  0.17308849025E+03 0.  0.
         24    2    5    5    0    0  0.12559086312E+02  0.98552229540E+02  0.45142397492E+03  0.47303751313E+03  0.10055153458E+03 0.  0.
          2    1    6    6  501    0  0.68103005791E+01  0.21502346849E+02  0.96074989652E+01  0.24516018241E+02  0.00000000000E+00 0. -1.
         -1    1    6    6    0  501  0.57487857326E+01  0.77049882690E+02  0.44181647595E+03  0.44852149489E+03  0.00000000000E+00 0.  1.
          5    1    5    5  502    0 -0.65714760292E+02  0.57243122824E+02  0.52330011460E+03  0.53052832608E+03  0.47000000000E+01 0. -1.
         11    1    4    4    0    0  0.78813549263E+01 -0.11353925672E+00 -0.11301422322E+02  0.13778635388E+02  0.00000000000E+00 0. -1.
        -12    1    4    4    0    0 -0.11909352357E+02 -0.11731830205E+02  0.12446527484E+03  0.12558293337E+03  0.00000000000E+00 0.  1.
         -5    1    3    3    0  504  0.57183671411E+02 -0.14394998290E+03  0.14729000154E+03  0.21379430397E+03  0.47000000000E+01 0.  1.
<mgrwt>
<rscale>  2 0.23877536E+03</rscale>
<asrwt>0</asrwt>
<pdfrwt beam="1">  1       21 0.19937688E+00 0.23886679E+03</pdfrwt>
<pdfrwt beam="2">  1       21 0.93495216E-02 0.23886679E+03</pdfrwt>
<totfact> 0.11954544E+04</totfact>
</mgrwt>
</event>
<event>
12    1  0.2742799E-001  0.2854604E+03  0.7546771E-02  0.1092769E+00
         21   -1    0    0  502  503  0.00000000000E+00  0.00000000000E+00  0.80930308477E+03  0.80930308477E+03  0.00000000000E+00 0.  1.
         21   -1    0    0  503  504 -0.00000000000E+00 -0.00000000000E+00 -0.11038772484E+03  0.11038772484E+03  0.00000000000E+00 0.  1.
         -6    2    1    2    0  504 -0.28432513793E+02  0.22569708337E+03  0.21278336763E+03  0.35603989872E+03  0.17245308538E+03 0.  0.
        -24    2    3    3    0    0  0.32475191629E+02  0.17852568617E+03  0.19247782010E+03  0.27623203849E+03  0.79563617089E+02 0.  0.
          6    2    1    2  502    0  0.28432513793E+02 -0.22569708337E+03  0.48613199231E+03  0.56365091090E+03  0.17213498810E+03 0.  0.
         24    2    5    5    0    0  0.88356695222E+01 -0.23424215079E+03  0.48102659316E+03  0.54117404316E+03  0.80841248130E+02 0.  0.
          4    1    6    6  501    0 -0.35567001510E+02 -0.11838456692E+03  0.25269645877E+03  0.28131018033E+03  0.00000000000E+00 0. -1.
         -3    1    6    6    0  501  0.44402671032E+02 -0.11585758387E+03  0.22833013440E+03  0.25986386284E+03  0.00000000000E+00 0.  1.
          5    1    5    5  502    0  0.19596844271E+02  0.85450674217E+01  0.51053991419E+01  0.22476867731E+02  0.47000000000E+01 0. -1.
         11    1    4    4    0    0 -0.18044590468E+02  0.29153048651E+02  0.11424816802E+02  0.36139091435E+02  0.00000000000E+00 0. -1.
        -12    1    4    4    0    0  0.50519782097E+02  0.14937263752E+03  0.18105300330E+03  0.24009294705E+03  0.00000000000E+00 0.  1.
         -5    1    3    3    0  504 -0.60907705422E+02  0.47171397205E+02  0.20305547531E+02  0.79807860230E+02  0.47000000000E+01 0.  1.
<mgrwt>
<rscale>  2 0.28541239E+03</rscale>
<asrwt>0</asrwt>
<pdfrwt beam="1">  1       21 0.12450816E+00 0.28546041E+03</pdfrwt>
<pdfrwt beam="2">  1       21 0.16982727E-01 0.28546041E+03</pdfrwt>
<totfact> 0.14274082E+04</totfact>
</mgrwt>
</event>
<event>
12    1  0.2742799E-001  0.2107688E+03  0.7546771E-02  0.1141029E+00
         21   -1    0    0  502  503  0.00000000000E+00  0.00000000000E+00  0.91810872667E+03  0.91810872667E+03  0.00000000000E+00 0. -1.
         21   -1    0    0  503  504 -0.00000000000E+00 -0.00000000000E+00 -0.10606999162E+03  0.10606999162E+03  0.00000000000E+00 0. -1.
         -6    2    1    2    0  504  0.26403673287E+02  0.11477169744E+03  0.27952969252E+02  0.21225877911E+03  0.17436377009E+03 0.  0.
        -24    2    3    3    0    0  0.12050639750E+02  0.40838373106E+02 -0.48208568681E+02  0.10504489997E+03  0.83050432145E+02 0.  0.
          6    2    1    2  502    0 -0.26403673287E+02 -0.11477169744E+03  0.78408576580E+03  0.81191993918E+03  0.17479646164E+03 0.  0.
         24    2    5    5    0    0 -0.79876793492E+02 -0.10865650149E+03  0.63508337300E+03  0.65342522865E+03  0.73804480304E+02 0.  0.
          4    1    6    6  501    0 -0.86171067106E+02 -0.11492036846E+03  0.61341205420E+03  0.63000515246E+03  0.00000000000E+00 0. -1.
         -3    1    6    6    0  501  0.62942736143E+01  0.62638669707E+01  0.21671318804E+02  0.23420076184E+02  0.00000000000E+00 0.  1.
          5    1    5    5  502    0  0.53473120205E+02 -0.61151959522E+01  0.14900239280E+03  0.15849471053E+03  0.47000000000E+01 0. -1.
         11    1    4    4    0    0 -0.17124209513E+02  0.57289446705E+02 -0.32404421039E+02  0.68010041598E+02  0.00000000000E+00 0. -1.
        -12    1    4    4    0    0  0.29174849263E+02 -0.16451073599E+02 -0.15804147642E+02  0.37034858374E+02  0.00000000000E+00 0.  1.
         -5    1    3    3    0  504  0.14353033537E+02  0.73933324337E+02  0.76161537933E+02  0.10721387914E+03  0.47000000000E+01 0.  1.
<mgrwt>
<rscale>  2 0.21067910E+03</rscale>
<asrwt>0</asrwt>
<pdfrwt beam="1">  1       21 0.14124749E+00 0.21076883E+03</pdfrwt>
<pdfrwt beam="2">  1       21 0.16318461E-01 0.21076883E+03</pdfrwt>
<totfact> 0.11609700E+04</totfact>
</mgrwt>
</event>
<event>
12    1  0.2742799E-001  0.2279193E+03  0.7546771E-02  0.1128273E+00
         21   -1    0    0  502  503  0.00000000000E+00  0.00000000000E+00  0.68499675011E+03  0.68499675011E+03  0.00000000000E+00 0. -1.
         21   -1    0    0  503  504 -0.00000000000E+00 -0.00000000000E+00 -0.75842148052E+02  0.75842148052E+02  0.00000000000E+00 0. -1.
         -6    2    1    2    0  504 -0.35903241090E+02 -0.14377394822E+03  0.32930918652E+03  0.40048936585E+03  0.17316812908E+03 0.  0.
        -24    2    3    3    0    0 -0.29623398311E+02 -0.16374455209E+03  0.21033395469E+03  0.27959496056E+03  0.79013577361E+02 0.  0.
          6    2    1    2  502    0  0.35903241090E+02  0.14377394822E+03  0.27984541554E+03  0.36034953231E+03  0.17198353970E+03 0.  0.
         24    2    5    5    0    0  0.26554046134E+02  0.26005072679E+02  0.51189357163E+02  0.10293430641E+03  0.81201847131E+02 0.  0.
          2    1    6    6  501    0 -0.15457155751E+02  0.13546839179E+02  0.55228534655E+02  0.58929038307E+02  0.00000000000E+00 0. -1.
         -1    1    6    6    0  501  0.42011201885E+02  0.12458233500E+02 -0.40391774914E+01  0.44005268100E+02  0.00000000000E+00 0.  1.
          5    1    5    5  502    0  0.93491949563E+01  0.11776887554E+03  0.22865605838E+03  0.25741522590E+03  0.47000000000E+01 0. -1.
         11    1    4    4    0    0 -0.53173030268E+02 -0.72106556239E+02  0.10285526685E+03  0.13640356491E+03  0.00000000000E+00 0. -1.
        -12    1    4    4    0    0  0.23549631956E+02 -0.91637995848E+02  0.10747868784E+03  0.14319139565E+03  0.00000000000E+00 0.  1.
         -5    1    3    3    0  504 -0.62798427791E+01  0.19970603866E+02  0.11897523182E+03  0.12089440530E+03  0.47000000000E+01 0.  1.
<mgrwt>
<rscale>  2 0.22769425E+03</rscale>
<asrwt>0</asrwt>
<pdfrwt beam="1">  1       21 0.10538411E+00 0.22791927E+03</pdfrwt>
<pdfrwt beam="2">  1       21 0.11668023E-01 0.22791927E+03</pdfrwt>
<totfact> 0.43888957E+04</totfact>
</mgrwt>
</event>
<event>
12    1  0.2742799E-001  0.2209787E+03  0.7546771E-02  0.1133865E+00
         21   -1    0    0  502  503  0.00000000000E+00  0.00000000000E+00  0.56261307295E+02  0.56261307295E+02  0.00000000000E+00 0. -1.
         21   -1    0    0  503  504 -0.00000000000E+00 -0.00000000000E+00 -0.95676891178E+03  0.95676891178E+03  0.00000000000E+00 0. -1.
         -6    2    1    2    0  504 -0.10900636764E+03  0.86572976454E+02 -0.62044242380E+03  0.65862004888E+03  0.17162254834E+03 0.  0.
        -24    2    3    3    0    0 -0.40898665048E+02  0.60748472700E+02 -0.53686845482E+03  0.54765941425E+03  0.79624233105E+02 0.  0.
          6    2    1    2  502    0  0.10900636764E+03 -0.86572976454E+02 -0.28006518069E+03  0.35441017020E+03  0.16671171185E+03 0.  0.
         24    2    5    5    0    0  0.42450952917E+02 -0.65875070839E+01 -0.20861407325E+03  0.22809845541E+03  0.81630846788E+02 0.  0.
          4    1    6    6  501    0 -0.49222337284E+01 -0.29471596304E+02 -0.13079005011E+03  0.13415975768E+03  0.00000000000E+00 0. -1.
         -3    1    6    6    0  501  0.47373186645E+02  0.22884089220E+02 -0.77824023147E+02  0.93938697730E+02  0.00000000000E+00 0.  1.
          5    1    5    5  502    0  0.66555414722E+02 -0.79985469370E+02 -0.71451107433E+02  0.12631171479E+03  0.47000000000E+01 0. -1.
         11    1    4    4    0    0 -0.51958688463E+02  0.74189027703E+02 -0.46192401343E+03  0.47072020493E+03  0.00000000000E+00 0. -1.
        -12    1    4    4    0    0  0.11060023415E+02 -0.13440555004E+02 -0.74944441390E+02  0.76939209327E+02  0.00000000000E+00 0.  1.
         -5    1    3    3    0  504 -0.68107702590E+02  0.25824503754E+02 -0.83573968974E+02  0.11096063462E+03  0.47000000000E+01 0.  1.
<mgrwt>
<rscale>  2 0.22002451E+03</rscale>
<asrwt>0</asrwt>
<pdfrwt beam="1">  1       21 0.86555853E-02 0.22097866E+03</pdfrwt>
<pdfrwt beam="2">  1       21 0.14719522E+00 0.22097866E+03</pdfrwt>
<totfact> 0.32302106E+04</totfact>
</mgrwt>
</event>
<event>
12    1  0.2742799E-001  0.1781014E+03  0.7546771E-02  0.1171126E+00
         21   -1    0    0  502  503  0.00000000000E+00  0.00000000000E+00  0.20010114128E+03  0.20010114128E+03  0.00000000000E+00 0.  1.
         21   -1    0    0  503  504 -0.00000000000E+00 -0.00000000000E+00 -0.22748179912E+03  0.22748179912E+03  0.00000000000E+00 0.  1.
         -6    2    1    2    0  504 -0.14682387291E+02 -0.40518945650E+02 -0.13590790219E+03  0.22403364714E+03  0.17280844806E+03 0.  0.
        -24    2    3    3    0    0 -0.17770196171E+02  0.28294969469E+02 -0.29924101123E+02  0.97544337059E+02  0.86620209507E+02 0.  0.
          6    2    1    2  502    0  0.14682387291E+02  0.40518945650E+02  0.10852724434E+03  0.20354929326E+03  0.16672370728E+03 0.  0.
         24    2    5    5    0    0 -0.19007826262E+02  0.42295358743E+02  0.12963630461E+03  0.16347600342E+03  0.88139874014E+02 0.  0.
          4    1    6    6  501    0 -0.47509282333E+02  0.44507266180E+02  0.61374269508E+02  0.89469713357E+02  0.00000000000E+00 0. -1.
         -3    1    6    6    0  501  0.28501456071E+02 -0.22119074365E+01  0.68262035107E+02  0.74006290068E+02  0.00000000000E+00 0.  1.
          5    1    5    5  502    0  0.33690213553E+02 -0.17764130936E+01 -0.21109060270E+02  0.40073289835E+02  0.47000000000E+01 0. -1.
         13    1    4    4    0    0 -0.16680644344E+02 -0.30105749631E+02 -0.10336217003E+02  0.35936575220E+02  0.00000000000E+00 0. -1.
        -14    1    4    4    0    0 -0.10895518265E+01  0.58400719100E+02 -0.19587884120E+02  0.61607761839E+02  0.00000000000E+00 0.  1.
         -5    1    3    3    0  504  0.30878088792E+01 -0.68813915119E+02 -0.10598380107E+03  0.12648931009E+03  0.47000000000E+01 0.  1.
<mgrwt>
<rscale>  2 0.17660835E+03</rscale>
<asrwt>0</asrwt>
<pdfrwt beam="1">  1       21 0.30784791E-01 0.17810142E+03</pdfrwt>
<pdfrwt beam="2">  1       21 0.34997200E-01 0.17810142E+03</pdfrwt>
<totfact> 0.80221768E+04</totfact>
</mgrwt>
</event>
<event>
12    1  0.2742799E-001  0.1740615E+03  0.7546771E-02  0.1173858E+00
         21   -1    0    0  502  503  0.00000000000E+00  0.00000000000E+00  0.14504358103E+03  0.14504358103E+03  0.00000000000E+00 0. -1.
         21   -1    0    0  503  504 -0.00000000000E+00 -0.00000000000E+00 -0.28689635538E+03  0.28689635538E+03  0.00000000000E+00 0. -1.
         -6    2    1    2    0  504  0.59122207147E+01  0.12647161213E+02 -0.18426760975E+03  0.25347967256E+03  0.17350068402E+03 0.  0.
        -24    2    3    3    0    0  0.62265182596E+02  0.40267591091E+02 -0.12228828056E+03  0.16515033595E+03  0.82594055748E+02 0.  0.
          6    2    1    2  502    0 -0.59122207147E+01 -0.12647161213E+02  0.42414835402E+02  0.17846026386E+03  0.17278351331E+03 0.  0.
         24    2    5    5    0    0 -0.64851990929E+02  0.80839375200E+01  0.49510211771E+02  0.11540386582E+03  0.81213671281E+02 0.  0.
          4    1    6    6  501    0 -0.83278155795E+02 -0.94481278120E+00  0.43830498623E+02  0.94112998642E+02  0.00000000000E+00 0. -1.
         -3    1    6    6    0  501  0.18426164866E+02  0.90287503012E+01  0.56797131473E+01  0.21290867176E+02  0.00000000000E+00 0.  1.
          5    1    5    5  502    0  0.58939770214E+02 -0.20731098733E+02 -0.70953763689E+01  0.63056398037E+02  0.47000000000E+01 0. -1.
         11    1    4    4    0    0  0.13734445769E+01  0.81173743278E+01 -0.87714100707E+02  0.88099611683E+02  0.00000000000E+00 0. -1.
        -12    1    4    4    0    0  0.60891738019E+02  0.32150216763E+02 -0.34574179852E+02  0.77050724262E+02  0.00000000000E+00 0.  1.
         -5    1    3    3    0  504 -0.56352961881E+02 -0.27620429878E+02 -0.61979329192E+02  0.88329336613E+02  0.47000000000E+01 0.  1.
<mgrwt>
<rscale>  2 0.17388247E+03</rscale>
<asrwt>0</asrwt>
<pdfrwt beam="1">  1       21 0.22314397E-01 0.17406146E+03</pdfrwt>
<pdfrwt beam="2">  1       21 0.44137901E-01 0.17406146E+03</pdfrwt>
<totfact> 0.93335203E+04</totfact>
</mgrwt>
</event>
<event>
12    1  0.2742799E-001  0.1793919E+03  0.7546771E-02  0.1168423E+00
         21   -1    0    0  502  503  0.00000000000E+00  0.00000000000E+00  0.24304000623E+03  0.24304000623E+03  0.00000000000E+00 0.  1.
         21   -1    0    0  503  504 -0.00000000000E+00 -0.00000000000E+00 -0.16171777882E+03  0.16171777882E+03  0.00000000000E+00 0.  1.
         -6    2    1    2    0  504 -0.16865217287E+02  0.43642613691E+02 -0.45614689486E+02  0.18510039077E+03  0.17318297111E+03 0.  0.
        -24    2    3    3    0    0  0.49926850636E+02  0.58623968647E+02 -0.33550552492E+02  0.11543508567E+03  0.79184337570E+02 0.  0.
          6    2    1    2  502    0  0.16865217287E+02 -0.43642613691E+02  0.12693691689E+03  0.21965739428E+03  0.17305281479E+03 0.  0.
         24    2    5    5    0    0 -0.31784073399E+02 -0.60598227007E+02  0.28967916337E+02  0.10886812866E+03  0.79566053200E+02 0.  0.
          4    1    6    6  501    0 -0.40491368681E+02 -0.18903307287E+02 -0.15493471867E+02  0.47296232773E+02  0.00000000000E+00 0. -1.
         -3    1    6    6    0  501  0.87072952818E+01 -0.41694919720E+02  0.44461388204E+02  0.61571895883E+02  0.00000000000E+00 0.  1.
          5    1    5    5  502    0  0.48649290686E+02  0.16955613316E+02  0.97969000554E+02  0.11078926562E+03  0.47000000000E+01 0. -1.
         11    1    4    4    0    0  0.23737693665E+02 -0.16677249973E+02 -0.18953414765E+00  0.29011113222E+02  0.00000000000E+00 0. -1.
        -12    1    4    4    0    0  0.26189156971E+02  0.75301218620E+02 -0.33361018344E+02  0.86423972446E+02  0.00000000000E+00 0.  1.
         -5    1    3    3    0  504 -0.66792067922E+02 -0.14981354956E+02 -0.12064136994E+02  0.69665305103E+02  0.47000000000E+01 0.  1.
<mgrwt>
<rscale>  2 0.17936048E+03</rscale>
<asrwt>0</asrwt>
<pdfrwt beam="1">  1       21 0.37390770E-01 0.17939190E+03</pdfrwt>
<pdfrwt beam="2">  1       21 0.24879658E-01 0.17939190E+03</pdfrwt>
<totfact> 0.10597131E+05</totfact>
</mgrwt>
</event>
<event>
12    1  0.2742799E-001  0.2339633E+03  0.7546771E-02  0.1123958E+00
         21   -1    0    0  502  503  0.00000000000E+00  0.00000000000E+00  0.37782282120E+03  0.37782282120E+03  0.00000000000E+00 0. -1.
         21   -1    0    0  503  504 -0.00000000000E+00 -0.00000000000E+00 -0.35882102827E+03  0.35882102827E+03  0.00000000000E+00 0. -1.
         -6    2    1    2    0  504 -0.13858565577E+03  0.74246305869E+02 -0.27509014453E+03  0.36083951475E+03  0.17266172090E+03 0.  0.
        -24    2    3    3    0    0 -0.96337411616E+02  0.67294324206E+02 -0.82785044280E+02  0.16376951255E+03  0.78470801819E+02 0.  0.
          6    2    1    2  502    0  0.13858565577E+03 -0.74246305869E+02  0.29409193747E+03  0.37580433472E+03  0.17326376538E+03 0.  0.
         24    2    5    5    0    0  0.57114299955E+02  0.31791891863E+02  0.11289498848E+03  0.15055756889E+03  0.75163391877E+02 0.  0.
          4    1    6    6  501    0  0.20205210610E+02  0.25730057076E+02  0.10798641689E+03  0.11283329564E+03  0.00000000000E+00 0. -1.
         -3    1    6    6    0  501  0.36909089345E+02  0.60618347870E+01  0.49085715956E+01  0.37724273251E+02  0.00000000000E+00 0.  1.
          5    1    5    5  502    0  0.81471355817E+02 -0.10603819773E+03  0.18119694899E+03  0.22524676583E+03  0.47000000000E+01 0. -1.
         11    1    4    4    0    0 -0.66570882833E+02  0.35314123098E+02 -0.92198813269E+02  0.11907724762E+03  0.00000000000E+00 0. -1.
        -12    1    4    4    0    0 -0.29766528783E+02  0.31980201107E+02  0.94137689892E+01  0.44692264937E+02  0.00000000000E+00 0.  1.
         -5    1    3    3    0  504 -0.42248244156E+02  0.69519816634E+01 -0.19230510025E+03  0.19707000219E+03  0.47000000000E+01 0.  1.
<mgrwt>
<rscale>  2 0.23385186E+03</rscale>
<asrwt>0</asrwt>
<pdfrwt beam="1">  1       21 0.58126588E-01 0.23396331E+03</pdfrwt>
<pdfrwt beam="2">  1       21 0.55203235E-01 0.23396331E+03</pdfrwt>
<totfact> 0.83497559E+03</totfact>
</mgrwt>
</event>
<event>
12    1  0.2742799E-001  0.2445826E+03  0.7546771E-02  0.1118041E+00
         21   -1    0    0  502  503  0.00000000000E+00  0.00000000000E+00  0.10581544293E+03  0.10581544293E+03  0.00000000000E+00 0. -1.
         21   -1    0    0  503  504 -0.00000000000E+00 -0.00000000000E+00 -0.54789909869E+03  0.54789909869E+03  0.00000000000E+00 0. -1.
         -6    2    1    2    0  504  0.10659576921E+03 -0.12221381067E+03 -0.21303255559E+03  0.31862493057E+03  0.17274288150E+03 0.  0.
        -24    2    3    3    0    0  0.61554583550E+02 -0.98604924788E+02 -0.22534479959E+03  0.26609142459E+03  0.80699873539E+02 0.  0.
          6    2    1    2  502    0 -0.10659576921E+03  0.12221381067E+03 -0.22905110017E+03  0.33508961105E+03  0.18308950657E+03 0.  0.
         24    2    5    5    0    0 -0.83925459476E+02  0.69888904960E+01 -0.71179721016E+02  0.13827450104E+03  0.83432353535E+02 0.  0.
          2    1    6    6  501    0 -0.10074432404E+03  0.12362470820E+01 -0.59608716862E+02  0.11706470971E+03  0.00000000000E+00 0. -1.
         -1    1    6    6    0  501  0.16818864562E+02  0.57526434140E+01 -0.11571004154E+02  0.21209791337E+02  0.00000000000E+00 0.  1.
          5    1    5    5  502    0 -0.22670309730E+02  0.11522492017E+03 -0.15787137916E+03  0.19681511001E+03  0.47000000000E+01 0. -1.
         11    1    4    4    0    0  0.61847932886E+02 -0.94816436631E+02 -0.13724062634E+03  0.17790534837E+03  0.00000000000E+00 0. -1.
        -12    1    4    4    0    0 -0.29334933657E+00 -0.37884881576E+01 -0.88104173249E+02  0.88186076227E+02  0.00000000000E+00 0.  1.
         -5    1    3    3    0  504  0.45041185657E+02 -0.23608885881E+02  0.12312244005E+02  0.52533505978E+02  0.47000000000E+01 0.  1.
<mgrwt>
<rscale>  2 0.24264828E+03</rscale>
<asrwt>0</asrwt>
<pdfrwt beam="1">  1       21 0.16279299E-01 0.24458259E+03</pdfrwt>
<pdfrwt beam="2">  1       21 0.84292168E-01 0.24458259E+03</pdfrwt>
<totfact> 0.40230146E+04</totfact>
</mgrwt>
</event>
<event>
12    1  0.2742799E-001  0.2144209E+03  0.7546771E-02  0.1138216E+00
         21   -1    0    0  502  503  0.00000000000E+00  0.00000000000E+00  0.19946701886E+03  0.19946701886E+03  0.00000000000E+00 0.  1.
         21   -1    0    0  503  504 -0.00000000000E+00 -0.00000000000E+00 -0.26386862748E+03  0.26386862748E+03  0.00000000000E+00 0.  1.
         -6    2    1    2    0  504 -0.11229821724E+03 -0.57153618005E+02 -0.11526647830E+03  0.24296426498E+03  0.17282316798E+03 0.  0.
        -24    2    3    3    0    0 -0.55045546703E+02 -0.69501375006E+02 -0.75998714461E+01  0.12030814561E+03  0.80968132713E+02 0.  0.
          6    2    1    2  502    0  0.11229821724E+03  0.57153618005E+02  0.50864869684E+02  0.22037138136E+03  0.17349030264E+03 0.  0.
         24    2    5    5    0    0  0.14162563302E+03  0.51393750684E+02  0.16061872634E+02  0.17425617788E+03  0.86070286629E+02 0.  0.
          4    1    6    6  501    0  0.64603107254E+02 -0.19288404143E+02  0.17694116145E+02  0.69704273524E+02  0.00000000000E+00 0. -1.
         -3    1    6    6    0  501  0.77022525765E+02  0.70682154828E+02 -0.16322435111E+01  0.10455190436E+03  0.00000000000E+00 0.  1.
          5    1    5    5  502    0 -0.29327415783E+02  0.57598673209E+01  0.34802997050E+02  0.46115203477E+02  0.47000000000E+01 0. -1.
         13    1    4    4    0    0  0.18341617630E+02 -0.19272966691E+00  0.37744571703E+01  0.18726948735E+02  0.00000000000E+00 0. -1.
        -14    1    4    4    0    0 -0.73387164332E+02 -0.69308645339E+02 -0.11374328616E+02  0.10158119688E+03  0.00000000000E+00 0.  1.
         -5    1    3    3    0  504 -0.57252670533E+02  0.12347757000E+02 -0.10766660686E+03  0.12265611937E+03  0.47000000000E+01 0.  1.
<mgrwt>
<rscale>  2 0.21428589E+03</rscale>
<asrwt>0</asrwt>
<pdfrwt beam="1">  1       21 0.30687234E-01 0.21442087E+03</pdfrwt>
<pdfrwt beam="2">  1       21 0.40595174E-01 0.21442087E+03</pdfrwt>
<totfact> 0.59012658E+04</totfact>
</mgrwt>
</event>
<event>
12    1  0.2742799E-001  0.1896941E+03  0.7546771E-02  0.1159673E+00
         21   -1    0    0  502  503  0.00000000000E+00  0.00000000000E+00  0.10403636830E+03  0.10403636830E+03  0.00000000000E+00 0.  1.
         21   -1    0    0  503  504 -0.00000000000E+00 -0.00000000000E+00 -0.56879200129E+03  0.56879200129E+03  0.00000000000E+00 0.  1.
         -6    2    1    2    0  504  0.57845966217E+02  0.48596202488E+02 -0.44494331116E+03  0.48210244193E+03  0.16953013794E+03 0.  0.
        -24    2    3    3    0    0  0.33322421795E+02 -0.20819392723E+02 -0.35237421353E+03  0.36373413146E+03  0.81185596738E+02 0.  0.
          6    2    1    2  502    0 -0.57845966217E+02 -0.48596202488E+02 -0.19812321833E+02  0.19072592765E+03  0.17400030080E+03 0.  0.
         24    2    5    5    0    0  0.65158231501E+01 -0.84055463873E+02 -0.18454903572E+02  0.11707993840E+03  0.79116063802E+02 0.  0.
          4    1    6    6  501    0  0.36553576462E+02 -0.14811266016E+02 -0.26849625325E+00  0.39441217569E+02  0.00000000000E+00 0. -1.
         -3    1    6    6    0  501 -0.30037753312E+02 -0.69244197857E+02 -0.18186407319E+02  0.77638720830E+02  0.00000000000E+00 0.  1.
          5    1    5    5  502    0 -0.64361789367E+02  0.35459261385E+02 -0.13574182617E+01  0.73645989251E+02  0.47000000000E+01 0. -1.
         13    1    4    4    0    0  0.17576008342E+01 -0.46989328564E+02 -0.22722121298E+03  0.23203569938E+03  0.00000000000E+00 0. -1.
        -14    1    4    4    0    0  0.31564820961E+02  0.26169935841E+02 -0.12515300055E+03  0.13169843208E+03  0.00000000000E+00 0.  1.
         -5    1    3    3    0  504  0.24523544422E+02  0.69415595211E+02 -0.92569097627E+02  0.11836831048E+03  0.47000000000E+01 0.  1.
<mgrwt>
<rscale>  2 0.18866277E+03</rscale>
<asrwt>0</asrwt>
<pdfrwt beam="1">  1       21 0.16005595E-01 0.18969410E+03</pdfrwt>
<pdfrwt beam="2">  1       21 0.87506462E-01 0.18969410E+03</pdfrwt>
<totfact> 0.39121514E+04</totfact>
</mgrwt>
</event>
<event>
12    1  0.2742799E-001  0.2254393E+03  0.7546771E-02  0.1130267E+00
         21   -1    0    0  502  503  0.00000000000E+00  0.00000000000E+00  0.23713019428E+03  0.23713019428E+03  0.00000000000E+00 0.  1.
         21   -1    0    0  503  504 -0.00000000000E+00 -0.00000000000E+00 -0.26790246589E+03  0.26790246589E+03  0.00000000000E+00 0.  1.
         -6    2    1    2    0  504  0.86869202177E+02  0.11375033929E+03 -0.13041621008E+03  0.26044435008E+03  0.17417655888E+03 0.  0.
        -24    2    3    3    0    0  0.27514464534E+02  0.27219800055E+02 -0.12727009607E+03  0.15536101585E+03  0.80258361662E+02 0.  0.
          6    2    1    2  502    0 -0.86869202177E+02 -0.11375033929E+03  0.99643938467E+02  0.24458831009E+03  0.17149090058E+03 0.  0.
         24    2    5    5    0    0 -0.39417907551E+02 -0.35250002708E+02 -0.15803804997E+02  0.97061364494E+02  0.79842432944E+02 0.  0.
          2    1    6    6  501    0 -0.37074893191E+01  0.18997304554E+02 -0.24838729356E+02  0.31489768710E+02  0.00000000000E+00 0. -1.
         -1    1    6    6    0  501 -0.35710418232E+02 -0.54247307262E+02  0.90349243596E+01  0.65571595784E+02  0.00000000000E+00 0.  1.
          5    1    5    5  502    0 -0.47451294626E+02 -0.78500336585E+02  0.11544774346E+03  0.14752694559E+03  0.47000000000E+01 0. -1.
         13    1    4    4    0    0 -0.20149204233E+01 -0.25798182671E+02 -0.56433606159E+02  0.62083476365E+02  0.00000000000E+00 0. -1.
        -14    1    4    4    0    0  0.29529384957E+02  0.53017982726E+02 -0.70836489913E+02  0.93277539480E+02  0.00000000000E+00 0.  1.
         -5    1    3    3    0  504  0.59354737643E+02  0.86530539239E+02 -0.31461140030E+01  0.10508333424E+03  0.47000000000E+01 0.  1.
<mgrwt>
<rscale>  2 0.22492038E+03</rscale>
<asrwt>0</asrwt>
<pdfrwt beam="1">  1       21 0.36481569E-01 0.22543929E+03</pdfrwt>
<pdfrwt beam="2">  1       21 0.41215764E-01 0.22543929E+03</pdfrwt>
<totfact> 0.40422200E+04</totfact>
</mgrwt>
</event>
<event>
12    1  0.2742799E-001  0.2244221E+03  0.7546771E-02  0.1130677E+00
         21   -1    0    0  502  503  0.00000000000E+00  0.00000000000E+00  0.20816591349E+03  0.20816591349E+03  0.00000000000E+00 0.  1.
         21   -1    0    0  503  504 -0.00000000000E+00 -0.00000000000E+00 -0.36289232345E+03  0.36289232345E+03  0.00000000000E+00 0. -1.
         -6    2    1    2    0  504  0.10426015895E+03 -0.97872025230E+02 -0.24242889678E+03  0.33035894429E+03  0.17296285154E+03 0.  0.
        -24    2    3    3    0    0  0.10197008194E+03 -0.40646661275E+02 -0.77264947824E+02  0.15548411258E+03  0.78456283481E+02 0.  0.
          6    2    1    2  502    0 -0.10426015895E+03  0.97872025230E+02  0.87702486826E+02  0.24069929264E+03  0.17261317799E+03 0.  0.
         24    2    5    5    0    0 -0.10690283989E+03  0.12755769250E+03  0.47701500296E+02  0.19059548513E+03  0.79699584243E+02 0.  0.
          2    1    6    6  501    0 -0.70776696406E+02  0.95075946468E+02 -0.53658588272E+01  0.11864893085E+03  0.00000000000E+00 0. -1.
         -1    1    6    6    0  501 -0.36126143487E+02  0.32481746032E+02  0.53067359123E+02  0.71946554280E+02  0.00000000000E+00 0.  1.
          5    1    5    5  502    0  0.26426809391E+01 -0.29685667269E+02  0.40000986530E+02  0.50103807512E+02  0.47000000000E+01 0. -1.
         13    1    4    4    0    0  0.14522477946E+02  0.22320119429E+02 -0.99430775718E+01  0.28424547289E+02  0.00000000000E+00 0. -1.
        -14    1    4    4    0    0  0.87447603997E+02 -0.62966780704E+02 -0.67321870252E+02  0.12705956529E+03  0.00000000000E+00 0.  1.
         -5    1    3    3    0  504  0.22900770107E+01 -0.57225363954E+02 -0.16516394896E+03  0.17487483172E+03  0.47000000000E+01 0.  1.
<mgrwt>
<rscale>  2 0.22435469E+03</rscale>
<asrwt>0</asrwt>
<pdfrwt beam="1">  1       21 0.32025526E-01 0.22442206E+03</pdfrwt>
<pdfrwt beam="2">  1       21 0.55829588E-01 0.22442206E+03</pdfrwt>
<totfact> 0.27856394E+04</totfact>
</mgrwt>
</event>
<event>
12    1  0.2742799E-001  0.2007735E+03  0.7546771E-02  0.1150877E+00
         21   -1    0    0  502  503  0.00000000000E+00  0.00000000000E+00  0.23155607052E+02  0.23155607052E+02  0.00000000000E+00 0. -1.
         21   -1    0    0  503  504 -0.00000000000E+00 -0.00000000000E+00 -0.19751343283E+04  0.19751343283E+04  0.00000000000E+00 0.  1.
         -6    2    1    2    0  504  0.61071439116E+02 -0.80792599091E+02 -0.13865318046E+04  0.14009926674E+04  0.17335756157E+03 0.  0.
        -24    2    3    3    0    0  0.61560664511E+02 -0.30409463614E+02 -0.41353711265E+03  0.42668293211E+03  0.79567142248E+02 0.  0.
          6    2    1    2  502    0 -0.61071439116E+02  0.80792599091E+02 -0.56544691666E+03  0.59729726797E+03  0.16363571135E+03 0.  0.
         24    2    5    5    0    0 -0.16914862542E+02  0.39335064613E+02 -0.49826567663E+03  0.50672166733E+03  0.81638249347E+02 0.  0.
          4    1    6    6  501    0 -0.43936440367E+02 -0.37456870800E+00 -0.22077972569E+03  0.22510939200E+03  0.00000000000E+00 0. -1.
         -3    1    6    6    0  501  0.27021577825E+02  0.39709633321E+02 -0.27748595094E+03  0.28161227533E+03  0.00000000000E+00 0.  1.
          5    1    5    5  502    0 -0.44156576574E+02  0.41457534478E+02 -0.67181240027E+02  0.90575600641E+02  0.47000000000E+01 0. -1.
         11    1    4    4    0    0 -0.81688278187E+00 -0.28849786118E+02 -0.49193269260E+02  0.57034684158E+02  0.00000000000E+00 0. -1.
        -12    1    4    4    0    0  0.62377547293E+02 -0.15596774961E+01 -0.36434384339E+03  0.36964824796E+03  0.00000000000E+00 0.  1.
         -5    1    3    3    0  504 -0.48922539491E+00 -0.50383135477E+02 -0.97299469193E+03  0.97430973525E+03  0.47000000000E+01 0.  1.
<mgrwt>
<rscale>  2 0.19865735E+03</rscale>
<asrwt>0</asrwt>
<pdfrwt beam="1">  1       21 0.35624014E-02 0.20077353E+03</pdfrwt>
<pdfrwt beam="2">  1       21 0.30386680E+00 0.20077353E+03</pdfrwt>
<totfact> 0.15296710E+04</totfact>
</mgrwt>
</event>
<event>
12    1  0.2742799E-001  0.1846383E+03  0.7546771E-02  0.1163811E+00
         21   -1    0    0  502  503  0.00000000000E+00  0.00000000000E+00  0.18053696742E+02  0.18053696742E+02  0.00000000000E+00 0. -1.
         21   -1    0    0  503  504 -0.00000000000E+00 -0.00000000000E+00 -0.19493407561E+04  0.19493407561E+04  0.00000000000E+00 0.  1.
         -6    2    1    2    0  504  0.32864629460E+02  0.51754320587E+02 -0.11686132018E+04  0.11831095119E+04  0.17416287850E+03 0.  0.
        -24    2    3    3    0    0 -0.44648339062E+02  0.40396648141E+01 -0.66826978297E+03  0.67453250161E+03  0.79998748914E+02 0.  0.
          6    2    1    2  502    0 -0.32864629460E+02 -0.51754320587E+02 -0.76267385764E+03  0.78428494098E+03  0.17225812597E+03 0.  0.
         24    2    5    5    0    0 -0.48580970087E+02  0.28537152950E+02 -0.48199110503E+03  0.49188346749E+03  0.80370644623E+02 0.  0.
          4    1    6    6  501    0 -0.66677913673E+02  0.17360577597E+02 -0.43337559365E+03  0.43881857184E+03  0.00000000000E+00 0. -1.
         -3    1    6    6    0  501  0.18096943585E+02  0.11176575353E+02 -0.48615511378E+02  0.53064895650E+02  0.00000000000E+00 0.  1.
          5    1    5    5  502    0  0.15716340627E+02 -0.80291473537E+02 -0.28068275261E+03  0.29240147349E+03  0.47000000000E+01 0. -1.
         13    1    4    4    0    0 -0.29596100032E+02 -0.66012438505E+01 -0.73932846458E+02  0.79909770009E+02  0.00000000000E+00 0. -1.
        -14    1    4    4    0    0 -0.15052239030E+02  0.10640908665E+02 -0.59433693651E+03  0.59462273160E+03  0.00000000000E+00 0.  1.
         -5    1    3    3    0  504  0.77512968522E+02  0.47714655772E+02 -0.50034341880E+03  0.50857701030E+03  0.47000000000E+01 0.  1.
<mgrwt>
<rscale>  2 0.18418776E+03</rscale>
<asrwt>0</asrwt>
<pdfrwt beam="1">  1       21 0.27774917E-02 0.18463830E+03</pdfrwt>
<pdfrwt beam="2">  1       21 0.29989859E+00 0.18463830E+03</pdfrwt>
<totfact> 0.24761536E+04</totfact>
</mgrwt>
</event>
<event>
12    1  0.2742799E-001  0.2461947E+03  0.7546771E-02  0.1115745E+00
         21   -1    0    0  502  503  0.00000000000E+00  0.00000000000E+00  0.77524134368E+03  0.77524134368E+03  0.00000000000E+00 0.  1.
         21   -1    0    0  503  504 -0.00000000000E+00 -0.00000000000E+00 -0.11250893501E+03  0.11250893501E+03  0.00000000000E+00 0. -1.
         -6    2    1    2    0  504 -0.10450975682E+03  0.13943034096E+03  0.86149301550E+02  0.26083237037E+03  0.17392157435E+03 0.  0.
        -24    2    3    3    0    0  0.14456653245E+01  0.57817880902E+02 -0.86028109893E+01  0.96859208086E+02  0.77218524552E+02 0.  0.
          6    2    1    2  502    0  0.10450975682E+03 -0.13943034096E+03  0.57658310712E+03  0.62691790832E+03  0.17382426499E+03 0.  0.
         24    2    5    5    0    0  0.14254855949E+03 -0.12629974950E+03  0.48325843488E+03  0.52517830251E+03  0.77471388327E+02 0.  0.
          2    1    6    6  501    0  0.32366996288E+02 -0.74398782065E+02  0.15306515521E+03  0.17323897645E+03  0.00000000000E+00 0. -1.
         -1    1    6    6    0  501  0.11018156320E+03 -0.51900967434E+02  0.33019327967E+03  0.35193932606E+03  0.00000000000E+00 0.  1.
          5    1    5    5  502    0 -0.38038802668E+02 -0.13130591462E+02  0.93324672240E+02  0.10173960580E+03  0.47000000000E+01 0. -1.
         13    1    4    4    0    0  0.36826023958E+02  0.37315899579E+02  0.74019137347E+01  0.52947339205E+02  0.00000000000E+00 0. -1.
        -14    1    4    4    0    0 -0.35380358633E+02  0.20501981322E+02 -0.16004724724E+02  0.43911868881E+02  0.00000000000E+00 0.  1.
         -5    1    3    3    0  504 -0.10595542215E+03  0.81612460060E+02  0.94752112540E+02  0.16397316229E+03  0.47000000000E+01 0.  1.
<mgrwt>
<rscale>  2 0.24617750E+03</rscale>
<asrwt>0</asrwt>
<pdfrwt beam="1">  1       21 0.11926790E+00 0.24619469E+03</pdfrwt>
<pdfrwt beam="2">  1       21 0.17309067E-01 0.24619469E+03</pdfrwt>
<totfact> 0.15661798E+04</totfact>
</mgrwt>
</event>
<event>
12    1  0.2742799E-001  0.2085978E+03  0.7546771E-02  0.1142706E+00
         21   -1    0    0  502  503  0.00000000000E+00  0.00000000000E+00  0.71048311991E+03  0.71048311991E+03  0.00000000000E+00 0. -1.
         21   -1    0    0  503  504 -0.00000000000E+00 -0.00000000000E+00 -0.61213762407E+02  0.61213762407E+02  0.00000000000E+00 0. -1.
         -6    2    1    2    0  504  0.18880719655E+02 -0.11344845048E+03  0.32870661740E+03  0.38930848207E+03  0.17402879472E+03 0.  0.
        -24    2    3    3    0    0  0.13259528188E+02 -0.39787312674E+02  0.57444386804E+02  0.10812731490E+03  0.81442085650E+02 0.  0.
          6    2    1    2  502    0 -0.18880719655E+02  0.11344845048E+03  0.32056274010E+03  0.38238840025E+03  0.17387750233E+03 0.  0.
         24    2    5    5    0    0 -0.53877187640E+02  0.43748141415E+02  0.92312329455E+02  0.14113495299E+03  0.81122484932E+02 0.  0.
          2    1    6    6  501    0  0.73061191094E+01  0.43332432359E+02  0.26691916113E+02  0.51415342617E+02  0.00000000000E+00 0. -1.
         -1    1    6    6    0  501 -0.61183306750E+02  0.41570905584E+00  0.65620413342E+02  0.89719610376E+02  0.00000000000E+00 0.  1.
          5    1    5    5  502    0  0.34996467985E+02  0.69700309068E+02  0.22825041065E+03  0.24125344726E+03  0.47000000000E+01 0. -1.
         13    1    4    4    0    0 -0.62176781783E+00 -0.62700870550E+02  0.29105513271E+02  0.69129708995E+02  0.00000000000E+00 0. -1.
        -14    1    4    4    0    0  0.13881296006E+02  0.22913557876E+02  0.28338873533E+02  0.38997605906E+02  0.00000000000E+00 0.  1.
         -5    1    3    3    0  504  0.56211914670E+01 -0.73661137808E+02  0.27126223060E+03  0.28118116716E+03  0.47000000000E+01 0.  1.
<mgrwt>
<rscale>  2 0.20856627E+03</rscale>
<asrwt>0</asrwt>
<pdfrwt beam="1">  1       21 0.10930509E+00 0.20859783E+03</pdfrwt>
<pdfrwt beam="2">  1       21 0.94175024E-02 0.20859783E+03</pdfrwt>
<totfact> 0.59348347E+04</totfact>
</mgrwt>
</event>
<event>
12    1  0.2742799E-001  0.4180235E+03  0.7546771E-02  0.1037890E+00
         21   -1    0    0  502  503  0.00000000000E+00  0.00000000000E+00  0.91650820323E+03  0.91650820323E+03  0.00000000000E+00 0.  1.
         21   -1    0    0  503  504 -0.00000000000E+00 -0.00000000000E+00 -0.11736910069E+04  0.11736910069E+04  0.00000000000E+00 0. -1.
         -6    2    1    2    0  504  0.21053941272E+03 -0.31432761153E+03 -0.10854714819E+04  0.11624030277E+04  0.17263768183E+03 0.  0.
        -24    2    3    3    0    0  0.19309132950E+03 -0.32324318926E+03 -0.94117328633E+03  0.10167047698E+04  0.78172968484E+02 0.  0.
          6    2    1    2  502    0 -0.21053941272E+03  0.31432761153E+03  0.82828867823E+03  0.92779618239E+03  0.17780587701E+03 0.  0.
         24    2    5    5    0    0 -0.11799008052E+03  0.83755251879E+02  0.26881558868E+03  0.31561874091E+03  0.80104728827E+02 0.  0.
          2    1    6    6  501    0 -0.46266921223E+02 -0.30536229042E+01  0.42782241205E+02  0.63089403031E+02  0.00000000000E+00 0. -1.
         -1    1    6    6    0  501 -0.71723159293E+02  0.86808874783E+02  0.22603334748E+03  0.25252933788E+03  0.00000000000E+00 0.  1.
          5    1    5    5  502    0 -0.92549332203E+02  0.23057235965E+03  0.55947308955E+03  0.61217744148E+03  0.47000000000E+01 0. -1.
         13    1    4    4    0    0  0.11005605195E+03 -0.24002512748E+03 -0.59046734789E+03  0.64681997906E+03  0.00000000000E+00 0. -1.
        -14    1    4    4    0    0  0.83035277551E+02 -0.83218061783E+02 -0.35070593844E+03  0.36988479069E+03  0.00000000000E+00 0.  1.
         -5    1    3    3    0  504  0.17448083222E+02  0.89155777346E+01 -0.14429819557E+03  0.14569825798E+03  0.47000000000E+01 0.  1.
<mgrwt>
<rscale>  2 0.41747941E+03</rscale>
<asrwt>0</asrwt>
<pdfrwt beam="1">  1       21 0.14100126E+00 0.41802347E+03</pdfrwt>
<pdfrwt beam="2">  1       21 0.18056785E+00 0.41802347E+03</pdfrwt>
<totfact> 0.50708793E+01</totfact>
</mgrwt>
</event>
<event>
12    1  0.2742799E-001  0.2348521E+03  0.7546771E-02  0.1126385E+00
         21   -1    0    0  502  503  0.00000000000E+00  0.00000000000E+00  0.11537862674E+04  0.11537862674E+04  0.00000000000E+00 0.  1.
         21   -1    0    0  503  504 -0.00000000000E+00 -0.00000000000E+00 -0.54751145541E+02  0.54751145541E+02  0.00000000000E+00 0.  1.
         -6    2    1    2    0  504  0.49563064052E+02 -0.12245509487E+03  0.83030297432E+03  0.86287806370E+03  0.19417460200E+03 0.  0.
        -24    2    3    3    0    0  0.76555978264E+02 -0.55393247690E+01  0.47188772859E+03  0.48488137973E+03  0.80872876100E+02 0.  0.
          6    2    1    2  502    0 -0.49563064052E+02  0.12245509487E+03  0.26873214751E+03  0.34565934922E+03  0.17266056590E+03 0.  0.
         24    2    5    5    0    0  0.42477254510E+01  0.10989860696E+03  0.25504152218E+03  0.28853851521E+03  0.78182796968E+02 0.  0.
          2    1    6    6  501    0  0.19916856952E+00  0.10209007735E+03  0.25936770220E+03  0.27873648578E+03  0.00000000000E+00 0. -1.
         -1    1    6    6    0  501  0.40485568814E+01  0.78085296057E+01 -0.43261800176E+01  0.98020294312E+01  0.00000000000E+00 0.  1.
          5    1    5    5  502    0 -0.53810789503E+02  0.12556487911E+02  0.13690625330E+02  0.57120834006E+02  0.47000000000E+01 0. -1.
         11    1    4    4    0    0  0.51359402237E+02  0.33688389298E+02  0.20694864723E+03  0.21587134679E+03  0.00000000000E+00 0. -1.
        -12    1    4    4    0    0  0.25196576027E+02 -0.39227714067E+02  0.26493908136E+03  0.26901003295E+03  0.00000000000E+00 0.  1.
         -5    1    3    3    0  504 -0.26992914212E+02 -0.11691577010E+03  0.35841524573E+03  0.37799668396E+03  0.47000000000E+01 0.  1.
<mgrwt>
<rscale>  2 0.23036236E+03</rscale>
<asrwt>0</asrwt>
<pdfrwt beam="1">  1       21 0.17750556E+00 0.23485213E+03</pdfrwt>
<pdfrwt beam="2">  1       21 0.84232540E-02 0.23485213E+03</pdfrwt>
<totfact> 0.20176702E+04</totfact>
</mgrwt>
</event>
<event>
12    1  0.2742799E-001  0.3244330E+03  0.7546771E-02  0.1073659E+00
         21   -1    0    0  502  503  0.00000000000E+00  0.00000000000E+00  0.98525991260E+02  0.98525991260E+02  0.00000000000E+00 0. -1.
         21   -1    0    0  503  504 -0.00000000000E+00 -0.00000000000E+00 -0.11995874780E+04  0.11995874780E+04  0.00000000000E+00 0. -1.
         -6    2    1    2    0  504  0.13786873712E+03 -0.23840306800E+03 -0.33484303045E+03  0.46603924334E+03  0.17096464482E+03 0.  0.
        -24    2    3    3    0    0  0.10920164299E+03 -0.74478818425E+02 -0.18963076383E+03  0.24512827878E+03  0.81584025641E+02 0.  0.
          6    2    1    2  502    0 -0.13786873712E+03  0.23840306800E+03 -0.76621845628E+03  0.83207422591E+03  0.17150213753E+03 0.  0.
         24    2    5    5    0    0 -0.12326029710E+03  0.15254452668E+03 -0.37087355874E+03  0.42722268072E+03  0.80678924663E+02 0.  0.
          4    1    6    6  501    0 -0.80379878152E+02  0.14078283285E+03 -0.32582231260E+03  0.36392431937E+03  0.00000000000E+00 0. -1.
         -3    1    6    6    0  501 -0.42880418949E+02  0.11761693826E+02 -0.45051246141E+02  0.63298361351E+02  0.00000000000E+00 0.  1.
          5    1    5    5  502    0 -0.14608440020E+02  0.85858541326E+02 -0.39534489754E+03  0.40485154520E+03  0.47000000000E+01 0. -1.
         13    1    4    4    0    0  0.80866382467E+02 -0.90302164950E+02 -0.16308286045E+03  0.20319909493E+03  0.00000000000E+00 0. -1.
        -14    1    4    4    0    0  0.28335260522E+02  0.15823346525E+02 -0.26547903376E+02  0.41929183843E+02  0.00000000000E+00 0.  1.
         -5    1    3    3    0  504  0.28667094132E+02 -0.16392424958E+03 -0.14521226662E+03  0.22091096456E+03  0.47000000000E+01 0.  1.
<mgrwt>
<rscale>  2 0.32436206E+03</rscale>
<asrwt>0</asrwt>
<pdfrwt beam="1">  1       21 0.15157845E-01 0.32443304E+03</pdfrwt>
<pdfrwt beam="2">  1       21 0.18455192E+00 0.32443304E+03</pdfrwt>
<totfact> 0.59677862E+03</totfact>
</mgrwt>
</event>
<event>
12    1  0.2742799E-001  0.1942715E+03  0.7546771E-02  0.1155069E+00
         21   -1    0    0  502  503  0.00000000000E+00  0.00000000000E+00  0.72198704889E+02  0.72198704889E+02  0.00000000000E+00 0.  1.
         21   -1    0    0  503  504 -0.00000000000E+00 -0.00000000000E+00 -0.57024566876E+03  0.57024566876E+03  0.00000000000E+00 0.  1.
         -6    2    1    2    0  504 -0.24018531928E+02  0.83185847740E+02 -0.34535753353E+03  0.39535033363E+03  0.17185251000E+03 0.  0.
        -24    2    3    3    0    0 -0.37999045027E+02  0.61311064614E+02 -0.35202143364E+03  0.36813896747E+03  0.80026467884E+02 0.  0.
          6    2    1    2  502    0  0.24018531928E+02 -0.83185847740E+02 -0.15268943034E+03  0.24709404002E+03  0.17390982530E+03 0.  0.
         24    2    5    5    0    0  0.56705398816E+02 -0.29170286084E+02 -0.15295929988E+03  0.18378310102E+03  0.79456107080E+02 0.  0.
          4    1    6    6  501    0  0.62237987986E+02 -0.39152671517E+02 -0.75138645558E+02  0.10512999045E+03  0.00000000000E+00 0. -1.
         -3    1    6    6    0  501 -0.55325891699E+01  0.99823854337E+01 -0.77820654327E+02  0.78653110566E+02  0.00000000000E+00 0.  1.
          5    1    5    5  502    0 -0.32686866888E+02 -0.54015561657E+02  0.26986954340E+00  0.63310939004E+02  0.47000000000E+01 0. -1.
         11    1    4    4    0    0 -0.59439087810E+02  0.25477292933E+02 -0.24094388081E+03  0.24947154410E+03  0.00000000000E+00 0. -1.
        -12    1    4    4    0    0  0.21440042783E+02  0.35833771681E+02 -0.11107755283E+03  0.11866742337E+03  0.00000000000E+00 0.  1.
         -5    1    3    3    0  504  0.13980513099E+02  0.21874783126E+02  0.66639001126E+01  0.27211366155E+02  0.47000000000E+01 0.  1.
<mgrwt>
<rscale>  2 0.19380995E+03</rscale>
<asrwt>0</asrwt>
<pdfrwt beam="1">  1       21 0.11107493E-01 0.19427147E+03</pdfrwt>
<pdfrwt beam="2">  1       21 0.87730103E-01 0.19427147E+03</pdfrwt>
<totfact> 0.75012036E+04</totfact>
</mgrwt>
</event>
<event>
12    1  0.2742799E-001  0.2760938E+03  0.7546771E-02  0.1097974E+00
         21   -1    0    0  502  503  0.00000000000E+00  0.00000000000E+00  0.60766265947E+03  0.60766265947E+03  0.00000000000E+00 0.  1.
         21   -1    0    0  503  504 -0.00000000000E+00 -0.00000000000E+00 -0.14765770309E+03  0.14765770309E+03  0.00000000000E+00 0. -1.
         -6    2    1    2    0  504 -0.20902496379E+03  0.47801517451E+02  0.81767195650E+02  0.28703455038E+03  0.17241385753E+03 0.  0.
        -24    2    3    3    0    0 -0.16295000210E+03  0.62242310935E+02  0.12037082339E+03  0.22503641584E+03  0.75666669519E+02 0.  0.
          6    2    1    2  502    0  0.20902496379E+03 -0.47801517451E+02  0.37823776073E+03  0.46828581218E+03  0.17392923186E+03 0.  0.
         24    2    5    5    0    0  0.93774725927E+02 -0.29941202092E+02  0.30546872283E+03  0.33073934342E+03  0.79919946561E+02 0.  0.
          2    1    6    6  501    0  0.95365920719E+02 -0.26513029780E+02  0.18169063514E+03  0.20690356807E+03  0.00000000000E+00 0. -1.
         -1    1    6    6    0  501 -0.15911947915E+01 -0.34281723114E+01  0.12377808769E+03  0.12383577536E+03  0.00000000000E+00 0.  1.
          5    1    5    5  502    0  0.11525023786E+03 -0.17860315359E+02  0.72769037903E+02  0.13754646876E+03  0.47000000000E+01 0. -1.
         13    1    4    4    0    0 -0.44780635595E+02 -0.16317432149E+02  0.22841747274E+02  0.52851767566E+02  0.00000000000E+00 0. -1.
        -14    1    4    4    0    0 -0.11816936650E+03  0.78559743085E+02  0.97529076118E+02  0.17218464827E+03  0.00000000000E+00 0.  1.
         -5    1    3    3    0  504 -0.46074961690E+02 -0.14440793484E+02 -0.38603627742E+02  0.61998134536E+02  0.47000000000E+01 0.  1.
<mgrwt>
<rscale>  2 0.27585548E+03</rscale>
<asrwt>0</asrwt>
<pdfrwt beam="1">  1       21 0.93486561E-01 0.27609382E+03</pdfrwt>
<pdfrwt beam="2">  1       21 0.22716570E-01 0.27609382E+03</pdfrwt>
<totfact> 0.16693132E+04</totfact>
</mgrwt>
</event>
<event>
12    1  0.2742799E-001  0.2070573E+03  0.7546771E-02  0.1143935E+00
         21   -1    0    0  502  503  0.00000000000E+00  0.00000000000E+00  0.71275196078E+02  0.71275196078E+02  0.00000000000E+00 0. -1.
         21   -1    0    0  503  504 -0.00000000000E+00 -0.00000000000E+00 -0.81923724030E+03  0.81923724030E+03  0.00000000000E+00 0. -1.
         -6    2    1    2    0  504  0.50710659569E+02 -0.10145516206E+03 -0.60371002298E+03  0.63823077950E+03  0.17322821698E+03 0.  0.
        -24    2    3    3    0    0  0.61726488722E+02 -0.22041829718E+02 -0.18740149369E+03  0.21424645502E+03  0.80537084536E+02 0.  0.
          6    2    1    2  502    0 -0.50710659569E+02  0.10145516206E+03 -0.14425202124E+03  0.25228165687E+03  0.17312616169E+03 0.  0.
         24    2    5    5    0    0 -0.71126466874E+01  0.15126534928E+01 -0.11136920919E+03  0.13829630223E+03  0.81669385886E+02 0.  0.
          4    1    6    6  501    0 -0.17022863789E+01  0.40688953610E+02 -0.42379956941E+02  0.58775415567E+02  0.00000000000E+00 0. -1.
         -3    1    6    6    0  501 -0.54103603085E+01 -0.39176300117E+02 -0.68989252250E+02  0.79520886662E+02  0.00000000000E+00 0.  1.
          5    1    5    5  502    0 -0.43598012882E+02  0.99942508564E+02 -0.32882812052E+02  0.11398535465E+03  0.47000000000E+01 0. -1.
         13    1    4    4    0    0  0.62673330181E+02 -0.47324789648E+02 -0.14241731093E+03  0.16263539739E+03  0.00000000000E+00 0. -1.
        -14    1    4    4    0    0 -0.94684145865E+00  0.25282959930E+02 -0.44984182762E+02  0.51611057636E+02  0.00000000000E+00 0.  1.
         -5    1    3    3    0  504 -0.11015829152E+02 -0.79413332339E+02 -0.41630852929E+03  0.42398432448E+03  0.47000000000E+01 0.  1.
<mgrwt>
<rscale>  2 0.20703598E+03</rscale>
<asrwt>0</asrwt>
<pdfrwt beam="1">  1       21 0.10965414E-01 0.20705733E+03</pdfrwt>
<pdfrwt beam="2">  1       21 0.12603651E+00 0.20705733E+03</pdfrwt>
<totfact> 0.31931747E+04</totfact>
</mgrwt>
</event>
<event>
12    1  0.2742799E-001  0.1924864E+03  0.7546771E-02  0.1157185E+00
         21   -1    0    0  502  503  0.00000000000E+00  0.00000000000E+00  0.74322138088E+02  0.74322138088E+02  0.00000000000E+00 0.  1.
         21   -1    0    0  503  504 -0.00000000000E+00 -0.00000000000E+00 -0.49740659982E+03  0.49740659982E+03  0.00000000000E+00 0. -1.
         -6    2    1    2    0  504 -0.74427431589E+02 -0.12507434863E+02 -0.24929326461E+03  0.31239418973E+03  0.17247353275E+03 0.  0.
        -24    2    3    3    0    0 -0.58442525906E+02 -0.54644439843E+02 -0.85438867956E+02  0.14239007890E+03  0.81077683556E+02 0.  0.
          6    2    1    2  502    0  0.74427431589E+02  0.12507434863E+02 -0.17379119713E+03  0.25933454818E+03  0.17707385234E+03 0.  0.
         24    2    5    5    0    0  0.70250908913E+02  0.11007401015E+02 -0.20315518255E+03  0.22926750505E+03  0.78963330698E+02 0.  0.
          2    1    6    6  501    0  0.19491200159E+02  0.32789379776E+02 -0.14121411863E+03  0.14627534861E+03  0.00000000000E+00 0. -1.
         -1    1    6    6    0  501  0.50759708754E+02 -0.21781978760E+02 -0.61941063918E+02  0.82992156441E+02  0.00000000000E+00 0.  1.
          5    1    5    5  502    0  0.41765226760E+01  0.15000338477E+01  0.29363985418E+02  0.30067043134E+02  0.47000000000E+01 0. -1.
         13    1    4    4    0    0  0.93544132987E+01 -0.18296393716E+02 -0.56636042035E+02  0.60248687359E+02  0.00000000000E+00 0. -1.
        -14    1    4    4    0    0 -0.67796939205E+02 -0.36348046127E+02 -0.28802825921E+02  0.82141391539E+02  0.00000000000E+00 0.  1.
         -5    1    3    3    0  504 -0.15984905682E+02  0.42137004980E+02 -0.16385439665E+03  0.17000411083E+03  0.47000000000E+01 0.  1.
<mgrwt>
<rscale>  2 0.19142180E+03</rscale>
<asrwt>0</asrwt>
<pdfrwt beam="1">  1       21 0.11434175E-01 0.19248644E+03</pdfrwt>
<pdfrwt beam="2">  1       21 0.76524091E-01 0.19248644E+03</pdfrwt>
<totfact> 0.97241822E+04</totfact>
</mgrwt>
</event>
<event>
12    1  0.2742799E-001  0.2170858E+03  0.7546771E-02  0.1136320E+00
         21   -1    0    0  502  503  0.00000000000E+00  0.00000000000E+00  0.52512407566E+02  0.52512407566E+02  0.00000000000E+00 0.  1.
         21   -1    0    0  503  504 -0.00000000000E+00 -0.00000000000E+00 -0.95915473028E+03  0.95915473028E+03  0.00000000000E+00 0. -1.
         -6    2    1    2    0  504  0.12965622013E+03  0.15741296494E+02 -0.58579800423E+03  0.62428192146E+03  0.17178501643E+03 0.  0.
        -24    2    3    3    0    0  0.64861869065E+02  0.36993192625E+01 -0.52329021830E+03  0.53332791964E+03  0.79907886197E+02 0.  0.
          6    2    1    2  502    0 -0.12965622013E+03 -0.15741296494E+02 -0.32084431848E+03  0.38738521638E+03  0.17340041908E+03 0.  0.
         24    2    5    5    0    0 -0.12883250907E+03  0.41679346322E+02 -0.25508547616E+03  0.29995453490E+03  0.81050228599E+02 0.  0.
          2    1    6    6  501    0 -0.11924389791E+02  0.18840636692E+02 -0.48565796356E+01  0.22819882309E+02  0.00000000000E+00 0. -1.
         -1    1    6    6    0  501 -0.11690811928E+03  0.22838709631E+02 -0.25022889652E+03  0.27713465259E+03  0.00000000000E+00 0.  1.
          5    1    5    5  502    0 -0.82371106135E+00 -0.57420642816E+02 -0.65758842327E+02  0.87430681488E+02  0.47000000000E+01 0. -1.
         13    1    4    4    0    0  0.24533335757E+02  0.21734652096E+02 -0.63874109834E+02  0.71792628954E+02  0.00000000000E+00 0. -1.
        -14    1    4    4    0    0  0.40328533308E+02 -0.18035332834E+02 -0.45941610847E+03  0.46153529069E+03  0.00000000000E+00 0.  1.
         -5    1    3    3    0  504  0.64794351065E+02  0.12041977232E+02 -0.62507785931E+02  0.90954001823E+02  0.47000000000E+01 0.  1.
<mgrwt>
<rscale>  2 0.21676301E+03</rscale>
<asrwt>0</asrwt>
<pdfrwt beam="1">  1       21 0.80788330E-02 0.21708576E+03</pdfrwt>
<pdfrwt beam="2">  1       21 0.14756225E+00 0.21708576E+03</pdfrwt>
<totfact> 0.36287790E+04</totfact>
</mgrwt>
</event>
<event>
12    1  0.2742799E-001  0.2066292E+03  0.7546771E-02  0.1144330E+00
         21   -1    0    0  502  503  0.00000000000E+00  0.00000000000E+00  0.39962426623E+03  0.39962426623E+03  0.00000000000E+00 0. -1.
         21   -1    0    0  503  504 -0.00000000000E+00 -0.00000000000E+00 -0.50785146881E+03  0.50785146881E+03  0.00000000000E+00 0. -1.
         -6    2    1    2    0  504  0.66639133201E+02 -0.89968081012E+02 -0.45738490051E+03  0.50175820637E+03  0.17327816011E+03 0.  0.
        -24    2    3    3    0    0 -0.28588495868E+02 -0.60877681419E+02 -0.27310427489E+03  0.29224450356E+03  0.79356856708E+02 0.  0.
          6    2    1    2  502    0 -0.66639133201E+02  0.89968081012E+02  0.34915769793E+03  0.40571752866E+03  0.17366803208E+03 0.  0.
         24    2    5    5    0    0 -0.11368439921E+02  0.10704391334E+02  0.26512199817E+03  0.27757046131E+03  0.80696106825E+02 0.  0.
          4    1    6    6  501    0 -0.33696938291E+01 -0.65239532508E+00  0.26357090307E+03  0.26359324992E+03  0.00000000000E+00 0. -1.
         -3    1    6    6    0  501 -0.79987460919E+01  0.11356786659E+02  0.15510950996E+01  0.13977211391E+02  0.00000000000E+00 0.  1.
          5    1    5    5  502    0 -0.55270693280E+02  0.79263689679E+02  0.84035699757E+02  0.12814706735E+03  0.47000000000E+01 0. -1.
         13    1    4    4    0    0 -0.15557950902E+02 -0.70599532144E+02 -0.13456858102E+03  0.15275813161E+03  0.00000000000E+00 0. -1.
        -14    1    4    4    0    0 -0.13030544967E+02  0.97218507245E+01 -0.13853569387E+03  0.13948637195E+03  0.00000000000E+00 0.  1.
         -5    1    3    3    0  504  0.95227629070E+02 -0.29090399593E+02 -0.18428062562E+03  0.20951370281E+03  0.47000000000E+01 0.  1.
<mgrwt>
<rscale>  2 0.20654723E+03</rscale>
<asrwt>0</asrwt>
<pdfrwt beam="1">  1       21 0.61480657E-01 0.20662917E+03</pdfrwt>
<pdfrwt beam="2">  1       21 0.78130995E-01 0.20662917E+03</pdfrwt>
<totfact> 0.35262781E+03</totfact>
</mgrwt>
</event>
<event>
12    1  0.2742799E-001  0.1769484E+03  0.7546771E-02  0.1171073E+00
         21   -1    0    0  502  503  0.00000000000E+00  0.00000000000E+00  0.21521547324E+03  0.21521547324E+03  0.00000000000E+00 0. -1.
         21   -1    0    0  503  504 -0.00000000000E+00 -0.00000000000E+00 -0.42926783599E+03  0.42926783599E+03  0.00000000000E+00 0. -1.
         -6    2    1    2    0  504  0.82039876638E+01  0.27749230407E+02 -0.36934709679E+03  0.40905348712E+03  0.17340747452E+03 0.  0.
        -24    2    3    3    0    0  0.63957485598E+00  0.48886423626E+02 -0.37422001069E+03  0.38560489296E+03  0.79121587476E+02 0.  0.
          6    2    1    2  502    0 -0.82039876638E+01 -0.27749230407E+02  0.15529473404E+03  0.23542982210E+03  0.17456638140E+03 0.  0.
         24    2    5    5    0    0  0.69125126058E+01  0.45822353411E+02  0.45544657794E+02  0.10235670024E+03  0.79089236489E+02 0.  0.
          4    1    6    6  501    0  0.41382782840E+02  0.21368316034E+02  0.36410695471E+02  0.59117496483E+02  0.00000000000E+00 0. -1.
         -3    1    6    6    0  501 -0.34470270235E+02  0.24454037377E+02  0.91339623228E+01  0.43239203760E+02  0.00000000000E+00 0.  1.
          5    1    5    5  502    0 -0.15116500270E+02 -0.73571583818E+02  0.10975007624E+03  0.13307312186E+03  0.47000000000E+01 0. -1.
         11    1    4    4    0    0 -0.29599297065E+02  0.14541191213E+02 -0.63691869622E+02  0.71723210223E+02  0.00000000000E+00 0. -1.
        -12    1    4    4    0    0  0.30238871921E+02  0.34345232413E+02 -0.31052814107E+03  0.31388168274E+03  0.00000000000E+00 0.  1.
         -5    1    3    3    0  504  0.75644128078E+01 -0.21137193218E+02  0.48729139000E+01  0.23448594162E+02  0.47000000000E+01 0.  1.
<mgrwt>
<rscale>  2 0.17666193E+03</rscale>
<asrwt>0</asrwt>
<pdfrwt beam="1">  1       21 0.33110073E-01 0.17694843E+03</pdfrwt>
<pdfrwt beam="2">  1       21 0.66041206E-01 0.17694843E+03</pdfrwt>
<totfact> 0.18669217E+04</totfact>
</mgrwt>
</event>
<event>
12    1  0.2742799E-001  0.2094435E+03  0.7546771E-02  0.1142338E+00
         21   -1    0    0  502  503  0.00000000000E+00  0.00000000000E+00  0.17896514260E+04  0.17896514260E+04  0.00000000000E+00 0. -1.
         21   -1    0    0  503  504 -0.00000000000E+00 -0.00000000000E+00 -0.24772203783E+02  0.24772203783E+02  0.00000000000E+00 0.  1.
         -6    2    1    2    0  504 -0.10300435792E+03 -0.53756205680E+02  0.75614998160E+03  0.78418033711E+03  0.17226833440E+03 0.  0.
        -24    2    3    3    0    0 -0.12462832996E+03 -0.88614416998E+01  0.64975319557E+03  0.66659844192E+03  0.81015565394E+02 0.  0.
          6    2    1    2  502    0  0.10300435792E+03  0.53756205680E+02  0.10087292406E+04  0.10302432927E+04  0.17426110817E+03 0.  0.
         24    2    5    5    0    0  0.86933127690E+02 -0.85553395626E+01  0.36915423464E+03  0.38742194005E+03  0.78678765607E+02 0.  0.
          2    1    6    6  501    0  0.63973377864E+01 -0.24993759947E+02  0.17039598871E+03  0.17233806003E+03  0.00000000000E+00 0. -1.
         -1    1    6    6    0  501  0.80535789904E+02  0.16438420385E+02  0.19875824593E+03  0.21508388002E+03  0.00000000000E+00 0.  1.
          5    1    5    5  502    0  0.16071230229E+02  0.62311545243E+02  0.63957500596E+03  0.64282135260E+03  0.47000000000E+01 0. -1.
         11    1    4    4    0    0 -0.60497598724E+02 -0.22701360804E+02  0.48463489590E+03  0.48892360708E+03  0.00000000000E+00 0. -1.
        -12    1    4    4    0    0 -0.64130731235E+02  0.13839919104E+02  0.16511829967E+03  0.17767483484E+03  0.00000000000E+00 0.  1.
         -5    1    3    3    0  504  0.21623972040E+02 -0.44894763980E+02  0.10639678603E+03  0.11758189519E+03  0.47000000000E+01 0.  1.
<mgrwt>
<rscale>  2 0.20902845E+03</rscale>
<asrwt>0</asrwt>
<pdfrwt beam="1">  1       21 0.27533089E+00 0.20944346E+03</pdfrwt>
<pdfrwt beam="2">  1       21 0.38111097E-02 0.20944346E+03</pdfrwt>
<totfact> 0.19814148E+04</totfact>
</mgrwt>
</event>
<event>
12    1  0.2742799E-001  0.2102437E+03  0.7546771E-02  0.1143989E+00
         21   -1    0    0  502  503  0.00000000000E+00  0.00000000000E+00  0.16403504402E+03  0.16403504402E+03  0.00000000000E+00 0. -1.
         21   -1    0    0  503  504 -0.00000000000E+00 -0.00000000000E+00 -0.29714525951E+03  0.29714525951E+03  0.00000000000E+00 0.  1.
         -6    2    1    2    0  504  0.11706410343E+03 -0.11163801752E+02  0.23745416878E+02  0.19887112772E+03  0.15861035854E+03 0.  0.
        -24    2    3    3    0    0  0.12553411220E+03 -0.39269930323E+02  0.47289658997E+02  0.16094861661E+03  0.79794765406E+02 0.  0.
          6    2    1    2  502    0 -0.11706410343E+03  0.11163801752E+02 -0.15685563237E+03  0.26230917581E+03  0.17428074916E+03 0.  0.
         24    2    5    5    0    0 -0.86069283382E+02  0.12794883929E+02 -0.18518200059E+03  0.22002664472E+03  0.80917985943E+02 0.  0.
          4    1    6    6  501    0 -0.45708217694E+00 -0.23012125773E+02 -0.59506104078E+02  0.63802376752E+02  0.00000000000E+00 0. -1.
         -3    1    6    6    0  501 -0.85612201205E+02  0.35807009702E+02 -0.12567589651E+03  0.15622426797E+03  0.00000000000E+00 0.  1.
          5    1    5    5  502    0 -0.30994820044E+02 -0.16310821773E+01  0.28326368221E+02  0.42282531088E+02  0.47000000000E+01 0. -1.
         11    1    4    4    0    0  0.33965870047E+02  0.24780585375E+02  0.11041538923E+02  0.43470372915E+02  0.00000000000E+00 0. -1.
        -12    1    4    4    0    0  0.91568242156E+02 -0.64050515697E+02  0.36248120074E+02  0.11747824369E+03  0.00000000000E+00 0.  1.
         -5    1    3    3    0  504 -0.84700087772E+01  0.28106128571E+02 -0.23544242120E+02  0.37922511110E+02  0.47000000000E+01 0.  1.
<mgrwt>
<rscale>  2 0.20696917E+03</rscale>
<asrwt>0</asrwt>
<pdfrwt beam="1">  1       21 0.25236161E-01 0.21024370E+03</pdfrwt>
<pdfrwt beam="2">  1       21 0.45714655E-01 0.21024370E+03</pdfrwt>
<totfact> 0.67716217E+04</totfact>
</mgrwt>
</event>
<event>
12    1  0.2742799E-001  0.2171171E+03  0.7546771E-02  0.1136087E+00
         21   -1    0    0  502  503  0.00000000000E+00  0.00000000000E+00  0.91893339790E+03  0.91893339790E+03  0.00000000000E+00 0.  1.
         21   -1    0    0  503  504 -0.00000000000E+00 -0.00000000000E+00 -0.58786292487E+02  0.58786292487E+02  0.00000000000E+00 0.  1.
         -6    2    1    2    0  504  0.13114197971E+03 -0.29310987178E+01  0.25524082792E+03  0.33509362177E+03  0.17301169017E+03 0.  0.
        -24    2    3    3    0    0  0.47829327880E+02 -0.13530289047E+02  0.22899927512E+03  0.24697977562E+03  0.78023254443E+02 0.  0.
          6    2    1    2  502    0 -0.13114197971E+03  0.29310987178E+01  0.60490627750E+03  0.64262606862E+03  0.17277108938E+03 0.  0.
         24    2    5    5    0    0 -0.11961938803E+03  0.84107016130E+01  0.25639200972E+03  0.29384665264E+03  0.78926894796E+02 0.  0.
          2    1    6    6  501    0 -0.11058727037E+03  0.13701999482E+01  0.14751722975E+03  0.18437124203E+03  0.00000000000E+00 0. -1.
         -1    1    6    6    0  501 -0.90321176641E+01  0.70405016648E+01  0.10887477997E+03  0.10947541061E+03  0.00000000000E+00 0.  1.
          5    1    5    5  502    0 -0.11522591678E+02 -0.54796028953E+01  0.34851426778E+03  0.34877941598E+03  0.47000000000E+01 0. -1.
         11    1    4    4    0    0  0.59904965642E+02 -0.29949258669E+02  0.13383619403E+03  0.14965857756E+03  0.00000000000E+00 0. -1.
        -12    1    4    4    0    0 -0.12075637763E+02  0.16418969621E+02  0.95163081082E+02  0.97321198060E+02  0.00000000000E+00 0.  1.
         -5    1    3    3    0  504  0.83312651831E+02  0.10599190330E+02  0.26241552800E+02  0.88113846155E+02  0.47000000000E+01 0.  1.
<mgrwt>
<rscale>  2 0.21706921E+03</rscale>
<asrwt>0</asrwt>
<pdfrwt beam="1">  1       21 0.14137436E+00 0.21711715E+03</pdfrwt>
<pdfrwt beam="2">  1       21 0.90440457E-02 0.21711715E+03</pdfrwt>
<totfact> 0.33307499E+04</totfact>
</mgrwt>
</event>
<event>
12    1  0.2742799E-001  0.1931309E+03  0.7546771E-02  0.1158883E+00
         21   -1    0    0  502  503  0.00000000000E+00  0.00000000000E+00  0.27408304086E+03  0.27408304086E+03  0.00000000000E+00 0.  1.
         21   -1    0    0  503  504 -0.00000000000E+00 -0.00000000000E+00 -0.13742307922E+03  0.13742307922E+03  0.00000000000E+00 0.  1.
         -6    2    1    2    0  504  0.20073980114E+02  0.37474033850E+02  0.12473034176E+02  0.19353328128E+03  0.18839396617E+03 0.  0.
        -24    2    3    3    0    0 -0.44322644005E+02  0.65732605652E+02  0.32099049313E+02  0.12037084181E+03  0.84696625518E+02 0.  0.
          6    2    1    2  502    0 -0.20073980114E+02 -0.37474033850E+02  0.12418692747E+03  0.21797283881E+03  0.17401867030E+03 0.  0.
         24    2    5    5    0    0 -0.77510594700E+01 -0.82780662796E+02  0.12537416521E+03  0.17077067219E+03  0.80815989279E+02 0.  0.
          2    1    6    6  501    0  0.30309780313E+01  0.16133642982E+02  0.19177336894E+02  0.25243841111E+02  0.00000000000E+00 0. -1.
         -1    1    6    6    0  501 -0.10782037501E+02 -0.98914305778E+02  0.10619682832E+03  0.14552683108E+03  0.00000000000E+00 0.  1.
          5    1    5    5  502    0 -0.12322920644E+02  0.45306628947E+02 -0.11872377429E+01  0.47202166615E+02  0.47000000000E+01 0. -1.
         13    1    4    4    0    0  0.24653051202E+02  0.83303787805E+01  0.39347617947E+01  0.26318254019E+02  0.00000000000E+00 0. -1.
        -14    1    4    4    0    0 -0.68975695207E+02  0.57402226872E+02  0.28164287518E+02  0.94052587793E+02  0.00000000000E+00 0.  1.
         -5    1    3    3    0  504  0.64396624119E+02 -0.28258571802E+02 -0.19626015137E+02  0.73162439464E+02  0.47000000000E+01 0.  1.
<mgrwt>
<rscale>  2 0.18953293E+03</rscale>
<asrwt>0</asrwt>
<pdfrwt beam="1">  1       21 0.42166622E-01 0.19313093E+03</pdfrwt>
<pdfrwt beam="2">  1       21 0.21142012E-01 0.19313093E+03</pdfrwt>
<totfact> 0.11258445E+05</totfact>
</mgrwt>
</event>
<event>
12    1  0.2742799E-001  0.1917857E+03  0.7546771E-02  0.1156887E+00
         21   -1    0    0  502  503  0.00000000000E+00  0.00000000000E+00  0.11987811946E+04  0.11987811946E+04  0.00000000000E+00 0. -1.
         21   -1    0    0  503  504 -0.00000000000E+00 -0.00000000000E+00 -0.43035602914E+02  0.43035602914E+02  0.00000000000E+00 0.  1.
         -6    2    1    2    0  504 -0.32372471258E+02 -0.74902229785E+02  0.91091337974E+03  0.93088394658E+03  0.17356098550E+03 0.  0.
        -24    2    3    3    0    0 -0.15982231478E+02  0.21388544402E+02  0.53411275398E+03  0.54160081732E+03  0.85686112074E+02 0.  0.
          6    2    1    2  502    0  0.32372471258E+02  0.74902229785E+02  0.24483221194E+03  0.31093285092E+03  0.17343040351E+03 0.  0.
         24    2    5    5    0    0  0.46950388860E+02  0.11574398775E+03  0.18689424240E+03  0.23841069438E+03  0.79430420130E+02 0.  0.
          2    1    6    6  501    0  0.60396239192E+02  0.54792877680E+02  0.77708232494E+02  0.11264339550E+03  0.00000000000E+00 0. -1.
         -1    1    6    6    0  501 -0.13445850332E+02  0.60951110066E+02  0.10918600990E+03  0.12576729888E+03  0.00000000000E+00 0.  1.
          5    1    5    5  502    0 -0.14577917602E+02 -0.40841757961E+02  0.57937969540E+02  0.72522156541E+02  0.47000000000E+01 0. -1.
         13    1    4    4    0    0  0.20870452032E+02 -0.58655841072E+01  0.38482286434E+03  0.38543302631E+03  0.00000000000E+00 0. -1.
        -14    1    4    4    0    0 -0.36852683510E+02  0.27254128509E+02  0.14928988963E+03  0.15616779101E+03  0.00000000000E+00 0.  1.
         -5    1    3    3    0  504 -0.16390239779E+02 -0.96290774187E+02  0.37680062576E+03  0.38928312926E+03  0.47000000000E+01 0.  1.
<mgrwt>
<rscale>  2 0.19175610E+03</rscale>
<asrwt>0</asrwt>
<pdfrwt beam="1">  1       21 0.18442785E+00 0.19178565E+03</pdfrwt>
<pdfrwt beam="2">  1       21 0.66208629E-02 0.19178565E+03</pdfrwt>
<totfact> 0.28299637E+04</totfact>
</mgrwt>
</event>
<event>
12    1  0.2742799E-001  0.1943338E+03  0.7546771E-02  0.1154778E+00
         21   -1    0    0  502  503  0.00000000000E+00  0.00000000000E+00  0.28654804441E+03  0.28654804441E+03  0.00000000000E+00 0. -1.
         21   -1    0    0  503  504 -0.00000000000E+00 -0.00000000000E+00 -0.27135200696E+03  0.27135200696E+03  0.00000000000E+00 0. -1.
         -6    2    1    2    0  504 -0.50273806162E+02  0.70526756208E+02 -0.19282993896E+03  0.27322400575E+03  0.17310832744E+03 0.  0.
        -24    2    3    3    0    0 -0.99312105100E+01  0.91035008623E+01 -0.18157922722E+03  0.19873232946E+03  0.79636802706E+02 0.  0.
          6    2    1    2  502    0  0.50273806162E+02 -0.70526756208E+02  0.20802597642E+03  0.28467604562E+03  0.17396598852E+03 0.  0.
         24    2    5    5    0    0  0.77636174078E+02 -0.45190164586E+02  0.93604154844E+02  0.16423898611E+03  0.10071335687E+03 0.  0.
          2    1    6    6  501    0  0.21362859449E+02  0.19721027933E+02 -0.89850097784E+01  0.30430594922E+02  0.00000000000E+00 0. -1.
         -1    1    6    6    0  501  0.56273314628E+02 -0.64911192519E+02  0.10258916462E+03  0.13380839118E+03  0.00000000000E+00 0.  1.
          5    1    5    5  502    0 -0.27362367915E+02 -0.25336591622E+02  0.11442182157E+03  0.12043705952E+03  0.47000000000E+01 0. -1.
         11    1    4    4    0    0  0.26068565996E+02  0.28309744642E+02 -0.69293119046E+02  0.79262526593E+02  0.00000000000E+00 0. -1.
        -12    1    4    4    0    0 -0.35999776506E+02 -0.19206243780E+02 -0.11228610817E+03  0.11946980287E+03  0.00000000000E+00 0.  1.
         -5    1    3    3    0  504 -0.40342595652E+02  0.61423255346E+02 -0.11250711742E+02  0.74491676286E+02  0.47000000000E+01 0.  1.
<mgrwt>
<rscale>  2 0.19414171E+03</rscale>
<asrwt>0</asrwt>
<pdfrwt beam="1">  1       21 0.44084314E-01 0.19433385E+03</pdfrwt>
<pdfrwt beam="2">  1       21 0.41746463E-01 0.19433385E+03</pdfrwt>
<totfact> 0.27278227E+04</totfact>
</mgrwt>
</event>
<event>
12    1  0.2742799E-001  0.2080363E+03  0.7546771E-02  0.1143649E+00
         21   -1    0    0  502  503  0.00000000000E+00  0.00000000000E+00  0.13537412126E+04  0.13537412126E+04  0.00000000000E+00 0. -1.
         21   -1    0    0  503  504 -0.00000000000E+00 -0.00000000000E+00 -0.63569889746E+02  0.63569889746E+02  0.00000000000E+00 0.  1.
         -6    2    1    2    0  504  0.97144254568E+02  0.61216692675E+02  0.14035750348E+03  0.24882879218E+03  0.17038500337E+03 0.  0.
        -24    2    3    3    0    0  0.13606557096E+03  0.37497356729E+02  0.10703659634E+03  0.19217326623E+03  0.74524089612E+02 0.  0.
          6    2    1    2  502    0 -0.97144254568E+02 -0.61216692675E+02  0.11498138194E+04  0.11684823102E+04  0.17347795337E+03 0.  0.
         24    2    5    5    0    0 -0.33104097061E+02 -0.48568981556E+02  0.29944894710E+03  0.31560271001E+03  0.80501996479E+02 0.  0.
          4    1    6    6  501    0 -0.29551116027E+02 -0.71014265558E+02  0.23457193437E+03  0.24686086520E+03  0.00000000000E+00 0. -1.
         -3    1    6    6    0  501 -0.35529810335E+01  0.22445284002E+02  0.64877012724E+02  0.68741844812E+02  0.00000000000E+00 0.  1.
          5    1    5    5  502    0 -0.64040157507E+02 -0.12647711119E+02  0.85036487226E+03  0.85287960014E+03  0.47000000000E+01 0. -1.
         11    1    4    4    0    0 -0.81603844192E+01  0.40669318025E+01 -0.59070476508E+00  0.91367795352E+01  0.00000000000E+00 0. -1.
        -12    1    4    4    0    0  0.14422595538E+03  0.33430424927E+02  0.10762730111E+03  0.18303648669E+03  0.00000000000E+00 0.  1.
         -5    1    3    3    0  504 -0.38921316397E+02  0.23719335946E+02  0.33320907141E+02  0.56655525948E+02  0.47000000000E+01 0.  1.
<mgrwt>
<rscale>  2 0.20739025E+03</rscale>
<asrwt>0</asrwt>
<pdfrwt beam="1">  1       21 0.20826786E+00 0.20803627E+03</pdfrwt>
<pdfrwt beam="2">  1       21 0.97799841E-02 0.20803627E+03</pdfrwt>
<totfact> 0.99116367E+03</totfact>
</mgrwt>
</event>
<event>
12    1  0.2742799E-001  0.1887040E+03  0.7546771E-02  0.1160488E+00
         21   -1    0    0  502  503  0.00000000000E+00  0.00000000000E+00  0.54868153612E+03  0.54868153612E+03  0.00000000000E+00 0. -1.
         21   -1    0    0  503  504 -0.00000000000E+00 -0.00000000000E+00 -0.68807726170E+02  0.68807726170E+02  0.00000000000E+00 0.  1.
         -6    2    1    2    0  504 -0.57679302846E+02  0.43958755535E+02  0.15745817799E+03  0.24576877035E+03  0.17421233164E+03 0.  0.
        -24    2    3    3    0    0 -0.65274887408E+02 -0.29774175121E+02  0.12610140545E+03  0.16514882770E+03  0.78900306742E+02 0.  0.
          6    2    1    2  502    0  0.57679302846E+02 -0.43958755535E+02  0.32241563196E+03  0.37172049195E+03  0.17019109917E+03 0.  0.
         24    2    5    5    0    0  0.26505048983E+02  0.24653369356E+02  0.81496264565E+02  0.11924536570E+03  0.79167606139E+02 0.  0.
          4    1    6    6  501    0 -0.18556634919E+02  0.12628933789E+02 -0.30855648895E+01  0.22657435399E+02  0.00000000000E+00 0. -1.
         -3    1    6    6    0  501  0.45061683902E+02  0.12024435566E+02  0.84581829455E+02  0.96587930305E+02  0.00000000000E+00 0.  1.
          5    1    5    5  502    0  0.31174253863E+02 -0.68612124891E+02  0.24091936739E+03  0.25247512624E+03  0.47000000000E+01 0. -1.
         11    1    4    4    0    0 -0.59473554375E+02  0.12979254575E+02  0.55323787796E+02  0.82257438663E+02  0.00000000000E+00 0. -1.
        -12    1    4    4    0    0 -0.58013330327E+01 -0.42753429696E+02  0.70777617651E+02  0.82891389035E+02  0.00000000000E+00 0.  1.
         -5    1    3    3    0  504  0.75955845615E+01  0.73732930656E+02  0.31356772547E+02  0.80619942648E+02  0.47000000000E+01 0.  1.
<mgrwt>
<rscale>  2 0.18777064E+03</rscale>
<asrwt>0</asrwt>
<pdfrwt beam="1">  1       21 0.84412541E-01 0.18870403E+03</pdfrwt>
<pdfrwt beam="2">  1       21 0.10585804E-01 0.18870403E+03</pdfrwt>
<totfact> 0.89463030E+04</totfact>
</mgrwt>
</event>
<event>
12    1  0.2742799E-001  0.2117829E+03  0.7546771E-02  0.1140268E+00
         21   -1    0    0  502  503  0.00000000000E+00  0.00000000000E+00  0.18188719601E+02  0.18188719601E+02  0.00000000000E+00 0. -1.
         21   -1    0    0  503  504 -0.00000000000E+00 -0.00000000000E+00 -0.25371358806E+04  0.25371358806E+04  0.00000000000E+00 0. -1.
         -6    2    1    2    0  504 -0.39944950825E+02 -0.11701631337E+03 -0.14812217117E+04  0.14962088838E+04  0.17127418944E+03 0.  0.
        -24    2    3    3    0    0 -0.61379121364E+02 -0.11320334529E+03 -0.14510224947E+04  0.14586849568E+04  0.75585242990E+02 0.  0.
          6    2    1    2  502    0  0.39944950825E+02  0.11701631337E+03 -0.10377254493E+04  0.10591157164E+04  0.17194061760E+03 0.  0.
         24    2    5    5    0    0  0.36995273101E+02 -0.11295143085E+02 -0.54630600488E+03  0.55119082945E+03  0.62167909898E+02 0.  0.
          4    1    6    6  501    0  0.32893737373E+02 -0.34708897529E+02 -0.30626158717E+03  0.30997236216E+03  0.00000000000E+00 0. -1.
         -3    1    6    6    0  501  0.41015357279E+01  0.23413754445E+02 -0.24004441771E+03  0.24121846730E+03  0.00000000000E+00 0.  1.
          5    1    5    5  502    0  0.29496777236E+01  0.12831145645E+03 -0.49141944442E+03  0.50792488697E+03  0.47000000000E+01 0. -1.
         11    1    4    4    0    0  0.63803292904E+01 -0.56018551615E+02 -0.74223690126E+03  0.74437517713E+03  0.00000000000E+00 0. -1.
        -12    1    4    4    0    0 -0.67759450654E+02 -0.57184793677E+02 -0.70878559348E+03  0.71430977965E+03  0.00000000000E+00 0.  1.
         -5    1    3    3    0  504  0.21434170539E+02 -0.38129680761E+01 -0.30199216979E+02  0.37523927012E+02  0.47000000000E+01 0.  1.
<mgrwt>
<rscale>  2 0.21164759E+03</rscale>
<asrwt>0</asrwt>
<pdfrwt beam="1">  1       21 0.27982646E-02 0.21178289E+03</pdfrwt>
<pdfrwt beam="2">  1       21 0.39032859E+00 0.21178289E+03</pdfrwt>
<totfact> 0.69304468E+03</totfact>
</mgrwt>
</event>
<event>
12    1  0.2742799E-001  0.1940268E+03  0.7546771E-02  0.1155001E+00
         21   -1    0    0  502  503  0.00000000000E+00  0.00000000000E+00  0.16359785363E+03  0.16359785363E+03  0.00000000000E+00 0. -1.
         21   -1    0    0  503  504 -0.00000000000E+00 -0.00000000000E+00 -0.27894828661E+03  0.27894828661E+03  0.00000000000E+00 0. -1.
         -6    2    1    2    0  504 -0.82103552686E+02  0.23791090133E+02 -0.15094757587E+03  0.24582836272E+03  0.17418209989E+03 0.  0.
        -24    2    3    3    0    0 -0.89493939279E+02  0.71031045019E+02 -0.81026304328E+02  0.16099142875E+03  0.79362482403E+02 0.  0.
          6    2    1    2  502    0  0.82103552686E+02 -0.23791090133E+02  0.35597142891E+02  0.19671777751E+03  0.17356185662E+03 0.  0.
         24    2    5    5    0    0  0.30005061606E+02  0.50076803240E+02 -0.18660969213E+01  0.98757056906E+02  0.79633435354E+02 0.  0.
          4    1    6    6  501    0  0.36411406885E+02 -0.19570841396E+01 -0.22011966085E+02  0.42592809025E+02  0.00000000000E+00 0. -1.
         -3    1    6    6    0  501 -0.64063452792E+01  0.52033887380E+02  0.20145869164E+02  0.56164247881E+02  0.00000000000E+00 0.  1.
          5    1    5    5  502    0  0.52098491080E+02 -0.73867893373E+02  0.37463239813E+02  0.97960720605E+02  0.47000000000E+01 0. -1.
         11    1    4    4    0    0 -0.74028684203E+02  0.51012016024E+02 -0.16128858659E+02  0.91337899830E+02  0.00000000000E+00 0. -1.
        -12    1    4    4    0    0 -0.15465255077E+02  0.20019028995E+02 -0.64897445669E+02  0.69653528919E+02  0.00000000000E+00 0.  1.
         -5    1    3    3    0  504  0.73903865938E+01 -0.47239954886E+02 -0.69921271545E+02  0.84836933974E+02  0.47000000000E+01 0.  1.
<mgrwt>
<rscale>  2 0.19388753E+03</rscale>
<asrwt>0</asrwt>
<pdfrwt beam="1">  1       21 0.25168901E-01 0.19402684E+03</pdfrwt>
<pdfrwt beam="2">  1       21 0.42915120E-01 0.19402684E+03</pdfrwt>
<totfact> 0.78041966E+04</totfact>
</mgrwt>
</event>
<event>
12    1  0.2742799E-001  0.1822540E+03  0.7546771E-02  0.1165675E+00
         21   -1    0    0  502  503  0.00000000000E+00  0.00000000000E+00  0.13707933566E+03  0.13707933566E+03  0.00000000000E+00 0. -1.
         21   -1    0    0  503  504 -0.00000000000E+00 -0.00000000000E+00 -0.26525817092E+03  0.26525817092E+03  0.00000000000E+00 0. -1.
         -6    2    1    2    0  504 -0.43250332349E+02 -0.34461744072E+02 -0.12348318537E+03  0.22002304794E+03  0.17350458640E+03 0.  0.
        -24    2    3    3    0    0 -0.39174575605E+02 -0.33373857999E+02 -0.11348264477E+02  0.10771042276E+03  0.93937693680E+02 0.  0.
          6    2    1    2  502    0  0.43250332349E+02  0.34461744072E+02 -0.46956498834E+01  0.18231445864E+03  0.17366148004E+03 0.  0.
         24    2    5    5    0    0  0.46025809705E+01 -0.46000746697E+02 -0.14286428213E+02  0.92414880579E+02  0.78734717076E+02 0.  0.
          2    1    6    6  501    0 -0.74173410614E+01 -0.62235366108E+02  0.70047359292E+01  0.63066029433E+02  0.00000000000E+00 0. -1.
         -1    1    6    6    0  501  0.12019922032E+02  0.16234619411E+02 -0.21291164142E+02  0.29348851146E+02  0.00000000000E+00 0.  1.
          5    1    5    5  502    0  0.38647751378E+02  0.80462490769E+02  0.95907783296E+01  0.89899578066E+02  0.47000000000E+01 0. -1.
         13    1    4    4    0    0 -0.51651692163E+02 -0.40234915616E+02 -0.39284554454E+02  0.76354580456E+02  0.00000000000E+00 0. -1.
        -14    1    4    4    0    0  0.12477116559E+02  0.68610576167E+01  0.27936289977E+02  0.31355842309E+02  0.00000000000E+00 0.  1.
         -5    1    3    3    0  504 -0.40757567441E+01 -0.10878860730E+01 -0.11213492090E+03  0.11231262518E+03  0.47000000000E+01 0.  1.
<mgrwt>
<rscale>  2 0.18221659E+03</rscale>
<asrwt>0</asrwt>
<pdfrwt beam="1">  1       21 0.21089129E-01 0.18225398E+03</pdfrwt>
<pdfrwt beam="2">  1       21 0.40808949E-01 0.18225398E+03</pdfrwt>
<totfact> 0.12134059E+05</totfact>
</mgrwt>
</event>
<event>
12    1  0.2742799E-001  0.2134633E+03  0.7546771E-02  0.1139030E+00
         21   -1    0    0  502  503  0.00000000000E+00  0.00000000000E+00  0.84483618295E+03  0.84483618295E+03  0.00000000000E+00 0.  1.
         21   -1    0    0  503  504 -0.00000000000E+00 -0.00000000000E+00 -0.61337490558E+02  0.61337490558E+02  0.00000000000E+00 0.  1.
         -6    2    1    2    0  504  0.12388753362E+03 -0.20823819386E+01  0.23118956024E+03  0.31404871263E+03  0.17270067702E+03 0.  0.
        -24    2    3    3    0    0  0.91264807062E+02 -0.66996007809E+02  0.14302289794E+03  0.19970943044E+03  0.81305456157E+02 0.  0.
          6    2    1    2  502    0 -0.12388753362E+03  0.20823819386E+01  0.55230913215E+03  0.59212496087E+03  0.17382213476E+03 0.  0.
         24    2    5    5    0    0 -0.11180217166E+03  0.55867869499E+02  0.33497845560E+03  0.36786250835E+03  0.86552382391E+02 0.  0.
          4    1    6    6  501    0 -0.11829279525E+03  0.31563941486E+02  0.23761716835E+03  0.26730392161E+03  0.00000000000E+00 0. -1.
         -3    1    6    6    0  501  0.64906235955E+01  0.24303928012E+02  0.97361287251E+02  0.10055858674E+03  0.00000000000E+00 0.  1.
          5    1    5    5  502    0 -0.12085361962E+02 -0.53785487560E+02  0.21733067655E+03  0.22426245253E+03  0.47000000000E+01 0. -1.
         11    1    4    4    0    0  0.37703091529E+02  0.15219537773E+02  0.50608149574E+02  0.64917965496E+02  0.00000000000E+00 0. -1.
        -12    1    4    4    0    0  0.53561715534E+02 -0.82215545581E+02  0.92414748365E+02  0.13479146494E+03  0.00000000000E+00 0.  1.
         -5    1    3    3    0  504  0.32622726555E+02  0.64913625870E+02  0.88166662301E+02  0.11433928219E+03  0.47000000000E+01 0.  1.
<mgrwt>
<rscale>  2 0.21323491E+03</rscale>
<asrwt>0</asrwt>
<pdfrwt beam="1">  1       21 0.12997479E+00 0.21346333E+03</pdfrwt>
<pdfrwt beam="2">  1       21 0.94365376E-02 0.21346333E+03</pdfrwt>
<totfact> 0.38417997E+04</totfact>
</mgrwt>
</event>
<event>
12    1  0.2742799E-001  0.1776773E+03  0.7546771E-02  0.1170347E+00
         21   -1    0    0  502  503  0.00000000000E+00  0.00000000000E+00  0.65294626979E+02  0.65294626979E+02  0.00000000000E+00 0.  1.
         21   -1    0    0  503  504 -0.00000000000E+00 -0.00000000000E+00 -0.97817794685E+03  0.97817794685E+03  0.00000000000E+00 0.  1.
         -6    2    1    2    0  504 -0.22844738749E+02  0.27441305960E+02 -0.82932032808E+03  0.84813999226E+03  0.17405267173E+03 0.  0.
        -24    2    3    3    0    0 -0.70317243583E+01 -0.48547863701E+02 -0.56139553821E+03  0.56915936863E+03  0.79819147852E+02 0.  0.
          6    2    1    2  502    0  0.22844738749E+02 -0.27441305960E+02 -0.83562991788E+02  0.19533258157E+03  0.17290788434E+03 0.  0.
         24    2    5    5    0    0 -0.46912714110E+02  0.61158943418E+01 -0.28062042351E+02  0.99966794678E+02  0.83472599746E+02 0.  0.
          4    1    6    6  501    0 -0.53724270540E+02  0.36179179773E+02 -0.22974405072E+02  0.68724475862E+02  0.00000000000E+00 0. -1.
         -3    1    6    6    0  501  0.68115564297E+01 -0.30063285431E+02 -0.50876372793E+01  0.31242318816E+02  0.00000000000E+00 0.  1.
          5    1    5    5  502    0  0.69757452859E+02 -0.33557200302E+02 -0.55500949437E+02  0.95365786893E+02  0.47000000000E+01 0. -1.
         13    1    4    4    0    0 -0.41223754758E+02 -0.37587145086E+02 -0.28190942102E+03  0.28737625701E+03  0.00000000000E+00 0. -1.
        -14    1    4    4    0    0  0.34192030400E+02 -0.10960718615E+02 -0.27948611719E+03  0.28178311162E+03  0.00000000000E+00 0.  1.
         -5    1    3    3    0  504 -0.15813014390E+02  0.75989169660E+02 -0.26792478987E+03  0.27898062362E+03  0.47000000000E+01 0.  1.
<mgrwt>
<rscale>  2 0.17739636E+03</rscale>
<asrwt>0</asrwt>
<pdfrwt beam="1">  1       21 0.10045328E-01 0.17767735E+03</pdfrwt>
<pdfrwt beam="2">  1       21 0.15048891E+00 0.17767735E+03</pdfrwt>
<totfact> 0.24092326E+04</totfact>
</mgrwt>
</event>
<event>
12    1  0.2742799E-001  0.1811249E+03  0.7546771E-02  0.1166750E+00
         21   -1    0    0  502  503  0.00000000000E+00  0.00000000000E+00  0.50453971954E+03  0.50453971954E+03  0.00000000000E+00 0.  1.
         21   -1    0    0  503  504 -0.00000000000E+00 -0.00000000000E+00 -0.10346606957E+03  0.10346606957E+03  0.00000000000E+00 0.  1.
         -6    2    1    2    0  504  0.43490815235E+02 -0.33444682704E+02  0.15069978720E+02  0.18161975618E+03  0.17247792254E+03 0.  0.
        -24    2    3    3    0    0  0.85585889218E+02 -0.15320427108E+02  0.50972373569E+02  0.12321123068E+03  0.70874287153E+02 0.  0.
          6    2    1    2  502    0 -0.43490815235E+02  0.33444682704E+02  0.38600367125E+03  0.42638603294E+03  0.17261580767E+03 0.  0.
         24    2    5    5    0    0  0.22704354177E+02  0.13023951526E+01  0.30596500015E+03  0.31755953813E+03  0.81928596995E+02 0.  0.
          2    1    6    6  501    0  0.28222569569E+02 -0.20851454127E+02  0.52981306637E+02  0.63547741307E+02  0.00000000000E+00 0. -1.
         -1    1    6    6    0  501 -0.55182153922E+01  0.22153849279E+02  0.25298369352E+03  0.25401179682E+03  0.00000000000E+00 0.  1.
          5    1    5    5  502    0 -0.66195169411E+02  0.32142287552E+02  0.80038671097E+02  0.10882649481E+03  0.47000000000E+01 0. -1.
         11    1    4    4    0    0  0.35287083351E+02 -0.40319195519E+02  0.12174625164E+02  0.54945766685E+02  0.00000000000E+00 0. -1.
        -12    1    4    4    0    0  0.50298805867E+02  0.24998768412E+02  0.38797748404E+02  0.68265463999E+02  0.00000000000E+00 0.  1.
         -5    1    3    3    0  504 -0.42095073983E+02 -0.18124255596E+02 -0.35902394848E+02  0.58408525494E+02  0.47000000000E+01 0.  1.
<mgrwt>
<rscale>  2 0.18109200E+03</rscale>
<asrwt>0</asrwt>
<pdfrwt beam="1">  1       21 0.77621494E-01 0.18112486E+03</pdfrwt>
<pdfrwt beam="2">  1       21 0.15917857E-01 0.18112486E+03</pdfrwt>
<totfact> 0.52102634E+04</totfact>
</mgrwt>
</event>
<event>
12    1  0.2742799E-001  0.3032051E+03  0.7546771E-02  0.1083738E+00
         21   -1    0    0  502  503  0.00000000000E+00  0.00000000000E+00  0.64396637981E+03  0.64396637981E+03  0.00000000000E+00 0.  1.
         21   -1    0    0  503  504 -0.00000000000E+00 -0.00000000000E+00 -0.14365769794E+03  0.14365769794E+03  0.00000000000E+00 0. -1.
         -6    2    1    2    0  504 -0.74258281858E+02 -0.23732787690E+03  0.28696467632E+03  0.41747102026E+03  0.17347770383E+03 0.  0.
        -24    2    3    3    0    0 -0.19024233922E+02 -0.21944895617E+03  0.17316868798E+03  0.28963490322E+03  0.73356777651E+02 0.  0.
          6    2    1    2  502    0  0.74258281858E+02  0.23732787690E+03  0.21334400555E+03  0.37015305749E+03  0.17221732692E+03 0.  0.
         24    2    5    5    0    0  0.19957700156E+02  0.34025195223E+02  0.77597585325E+02  0.11969405056E+03  0.82153860445E+02 0.  0.
          2    1    6    6  501    0 -0.13539898207E+02 -0.87879246026E+01 -0.82152702466E+01  0.18112071320E+02  0.00000000000E+00 0. -1.
         -1    1    6    6    0  501  0.33497598363E+02  0.42813119825E+02  0.85812855572E+02  0.10158197924E+03  0.00000000000E+00 0.  1.
          5    1    5    5  502    0  0.54300581702E+02  0.20330268168E+03  0.13574642022E+03  0.25045900693E+03  0.47000000000E+01 0. -1.
         11    1    4    4    0    0  0.13057123331E+02 -0.79742801937E+01  0.15043899371E+01  0.15373379699E+02  0.00000000000E+00 0. -1.
        -12    1    4    4    0    0 -0.32081357254E+02 -0.21147467598E+03  0.17166429805E+03  0.27426152352E+03  0.00000000000E+00 0.  1.
         -5    1    3    3    0  504 -0.55234047936E+02 -0.17878920728E+02  0.11379598834E+03  0.12783611704E+03  0.47000000000E+01 0.  1.
<mgrwt>
<rscale>  2 0.30302509E+03</rscale>
<asrwt>0</asrwt>
<pdfrwt beam="1">  1       21 0.99071749E-01 0.30320509E+03</pdfrwt>
<pdfrwt beam="2">  1       21 0.22101185E-01 0.30320509E+03</pdfrwt>
<totfact> 0.15142936E+04</totfact>
</mgrwt>
</event>
<event>
12    1  0.2742799E-001  0.2070415E+03  0.7546771E-02  0.1144367E+00
         21   -1    0    0  502  503  0.00000000000E+00  0.00000000000E+00  0.22315317083E+03  0.22315317083E+03  0.00000000000E+00 0.  1.
         21   -1    0    0  503  504 -0.00000000000E+00 -0.00000000000E+00 -0.21222754874E+03  0.21222754874E+03  0.00000000000E+00 0.  1.
         -6    2    1    2    0  504 -0.11388332109E+03  0.13535542058E+02 -0.64799194176E+02  0.21694499955E+03  0.17237626154E+03 0.  0.
        -24    2    3    3    0    0 -0.93226357736E+01 -0.33481927046E+01 -0.74885106243E+02  0.11044705104E+03  0.80576981916E+02 0.  0.
          6    2    1    2  502    0  0.11388332109E+03 -0.13535542058E+02  0.75724816268E+02  0.21843572002E+03  0.16978602493E+03 0.  0.
         24    2    5    5    0    0  0.24268738175E+02 -0.62764573920E+02  0.52558531545E+02  0.11349269835E+03  0.74765165342E+02 0.  0.
          2    1    6    6  501    0  0.45061785724E+02 -0.65367817193E+02  0.38327269920E+02  0.88161758585E+02  0.00000000000E+00 0. -1.
         -1    1    6    6    0  501 -0.20793047549E+02  0.26032432734E+01  0.14231261625E+02  0.25330939765E+02  0.00000000000E+00 0.  1.
          5    1    5    5  502    0  0.89614582918E+02  0.49229031862E+02  0.23166284724E+02  0.10494302167E+03  0.47000000000E+01 0. -1.
         11    1    4    4    0    0  0.22582673683E+02 -0.18238543327E+01  0.60389205254E+01  0.23447220655E+02  0.00000000000E+00 0. -1.
        -12    1    4    4    0    0 -0.31905309457E+02 -0.15243383719E+01 -0.80924026768E+02  0.86999830387E+02  0.00000000000E+00 0.  1.
         -5    1    3    3    0  504 -0.10456068532E+03  0.16883734762E+02  0.10085912067E+02  0.10649794851E+03  0.47000000000E+01 0.  1.
<mgrwt>
<rscale>  2 0.20650154E+03</rscale>
<asrwt>0</asrwt>
<pdfrwt beam="1">  1       21 0.34331257E-01 0.20704154E+03</pdfrwt>
<pdfrwt beam="2">  1       21 0.32650392E-01 0.20704154E+03</pdfrwt>
<totfact> 0.73350552E+04</totfact>
</mgrwt>
</event>
<event>
12    1  0.2742799E-001  0.2222023E+03  0.7546771E-02  0.1132292E+00
         21   -1    0    0  502  503  0.00000000000E+00  0.00000000000E+00  0.24979097540E+03  0.24979097540E+03  0.00000000000E+00 0.  1.
         21   -1    0    0  503  504 -0.00000000000E+00 -0.00000000000E+00 -0.40793543014E+03  0.40793543014E+03  0.00000000000E+00 0. -1.
         -6    2    1    2    0  504 -0.23995827646E+02  0.13740584380E+03 -0.31530827856E+03  0.38573718444E+03  0.17296733587E+03 0.  0.
        -24    2    3    3    0    0 -0.64602662527E+02  0.13867060121E+03 -0.22172113518E+03  0.28360414348E+03  0.88701796872E+02 0.  0.
          6    2    1    2  502    0  0.23995827646E+02 -0.13740584380E+03  0.15716382382E+03  0.27198922109E+03  0.17268903618E+03 0.  0.
         24    2    5    5    0    0  0.75671916643E+02 -0.12995838879E+03  0.12944633348E+03  0.21269139625E+03  0.76588869963E+02 0.  0.
          2    1    6    6  501    0  0.79239536395E+02 -0.11261996452E+03  0.77944702456E+02  0.15823254146E+03  0.00000000000E+00 0. -1.
         -1    1    6    6    0  501 -0.35676197518E+01 -0.17338424271E+02  0.51501631021E+02  0.54458854787E+02  0.00000000000E+00 0.  1.
          5    1    5    5  502    0 -0.51676088997E+02 -0.74474550089E+01  0.27717490344E+02  0.59297824843E+02  0.47000000000E+01 0. -1.
         11    1    4    4    0    0  0.48831025681E+01  0.88639233913E+02 -0.13627416722E+03  0.16263888566E+03  0.00000000000E+00 0. -1.
        -12    1    4    4    0    0 -0.69485765096E+02  0.50031367293E+02 -0.85446967963E+02  0.12096525781E+03  0.00000000000E+00 0.  1.
         -5    1    3    3    0  504  0.40606834882E+02 -0.12647574043E+01 -0.93587143382E+02  0.10213304096E+03  0.47000000000E+01 0.  1.
<mgrwt>
<rscale>  2 0.22214815E+03</rscale>
<asrwt>0</asrwt>
<pdfrwt beam="1">  1       21 0.38429381E-01 0.22220231E+03</pdfrwt>
<pdfrwt beam="2">  1       21 0.62759296E-01 0.22220231E+03</pdfrwt>
<totfact> 0.15080527E+04</totfact>
</mgrwt>
</event>
<event>
12    1  0.2742799E-001  0.1896770E+03  0.7546771E-02  0.1159258E+00
         21   -1    0    0  502  503  0.00000000000E+00  0.00000000000E+00  0.22654587348E+03  0.22654587348E+03  0.00000000000E+00 0. -1.
         21   -1    0    0  503  504 -0.00000000000E+00 -0.00000000000E+00 -0.15801372627E+03  0.15801372627E+03  0.00000000000E+00 0. -1.
         -6    2    1    2    0  504  0.64505814676E+02 -0.30992154992E+02  0.49811561544E+02  0.19396096603E+03  0.17325746991E+03 0.  0.
        -24    2    3    3    0    0 -0.83863437639E+01  0.36101730473E+02  0.20405284887E+02  0.90512063976E+02  0.80014950909E+02 0.  0.
          6    2    1    2  502    0 -0.64505814676E+02  0.30992154992E+02  0.18720585667E+02  0.19059863373E+03  0.17565837598E+03 0.  0.
         24    2    5    5    0    0 -0.36633994944E+02 -0.11345056279E+02 -0.53083740125E+02  0.10258028907E+03  0.78956141956E+02 0.  0.
          2    1    6    6  501    0  0.37336413423E+01 -0.37783927274E+02 -0.33028755673E+02  0.50323592273E+02  0.00000000000E+00 0. -1.
         -1    1    6    6    0  501 -0.40367636287E+02  0.26438870995E+02 -0.20054984452E+02  0.52256696798E+02  0.00000000000E+00 0.  1.
          5    1    5    5  502    0 -0.27871819731E+02  0.42337211271E+02  0.71804325792E+02  0.88018344655E+02  0.47000000000E+01 0. -1.
         13    1    4    4    0    0 -0.31051482083E+02  0.14370084799E+02 -0.19774035043E+02  0.39518430366E+02  0.00000000000E+00 0. -1.
        -14    1    4    4    0    0  0.22665138319E+02  0.21731645673E+02  0.40179319930E+02  0.50993633610E+02  0.00000000000E+00 0.  1.
         -5    1    3    3    0  504  0.72892158440E+02 -0.67093885465E+02  0.29406276657E+02  0.10344890205E+03  0.47000000000E+01 0.  1.
<mgrwt>
<rscale>  2 0.18911927E+03</rscale>
<asrwt>0</asrwt>
<pdfrwt beam="1">  1       21 0.34853211E-01 0.18967704E+03</pdfrwt>
<pdfrwt beam="2">  1       21 0.24309804E-01 0.18967704E+03</pdfrwt>
<totfact> 0.12691569E+05</totfact>
</mgrwt>
</event>
<event>
12    1  0.2742799E-001  0.1748809E+03  0.7546771E-02  0.1172871E+00
         21   -1    0    0  502  503  0.00000000000E+00  0.00000000000E+00  0.95166073287E+02  0.95166073287E+02  0.00000000000E+00 0. -1.
         21   -1    0    0  503  504 -0.00000000000E+00 -0.00000000000E+00 -0.93210440580E+03  0.93210440580E+03  0.00000000000E+00 0. -1.
         -6    2    1    2    0  504 -0.21562345541E+02  0.16156061547E+02 -0.83431485495E+03  0.85244624921E+03  0.17279287465E+03 0.  0.
        -24    2    3    3    0    0 -0.27062355048E+02  0.80297687900E+01 -0.83667009031E+03  0.84131413925E+03  0.83640855073E+02 0.  0.
          6    2    1    2  502    0  0.21562345541E+02 -0.16156061547E+02 -0.26234775651E+01  0.17482422988E+03  0.17271559179E+03 0.  0.
         24    2    5    5    0    0 -0.39277246365E+02  0.26067434404E+02 -0.12968200005E+02  0.99901717671E+02  0.87120409571E+02 0.  0.
          4    1    6    6  501    0 -0.28179098121E+01  0.52034864749E+02 -0.17356714308E+02  0.54925616034E+02  0.00000000000E+00 0. -1.
         -3    1    6    6    0  501 -0.36459336553E+02 -0.25967430345E+02  0.43885143030E+01  0.44976101636E+02  0.00000000000E+00 0.  1.
          5    1    5    5  502    0  0.60839591905E+02 -0.42223495951E+02  0.10344722440E+02  0.74922512210E+02  0.47000000000E+01 0. -1.
         13    1    4    4    0    0 -0.26703305766E+02  0.44364118107E+02 -0.46653885542E+03  0.46940360579E+03  0.00000000000E+00 0. -1.
        -14    1    4    4    0    0 -0.35904928245E+00 -0.36334349317E+02 -0.37013123489E+03  0.37191053346E+03  0.00000000000E+00 0.  1.
         -5    1    3    3    0  504  0.55000095075E+01  0.81262927566E+01  0.23552353584E+01  0.11132109959E+02  0.47000000000E+01 0.  1.
<mgrwt>
<rscale>  2 0.17486181E+03</rscale>
<asrwt>0</asrwt>
<pdfrwt beam="1">  1       21 0.14640935E-01 0.17488090E+03</pdfrwt>
<pdfrwt beam="2">  1       21 0.14340068E+00 0.17488090E+03</pdfrwt>
<totfact> 0.13962787E+04</totfact>
</mgrwt>
</event>
<event>
12    1  0.2742799E-001  0.2415593E+03  0.7546771E-02  0.1119662E+00
         21   -1    0    0  502  503  0.00000000000E+00  0.00000000000E+00  0.14552996005E+03  0.14552996005E+03  0.00000000000E+00 0.  1.
         21   -1    0    0  503  504 -0.00000000000E+00 -0.00000000000E+00 -0.10039530474E+04  0.10039530474E+04  0.00000000000E+00 0.  1.
         -6    2    1    2    0  504 -0.29364674933E+02 -0.16253191419E+03 -0.87601207062E+03  0.90728421897E+03  0.16878565950E+03 0.  0.
        -24    2    3    3    0    0  0.47542363014E+02 -0.91660750681E+02 -0.48652442174E+03  0.50397276000E+03  0.81366826033E+02 0.  0.
          6    2    1    2  502    0  0.29364674933E+02  0.16253191419E+03  0.17588983297E+02  0.24219878846E+03  0.17627244121E+03 0.  0.
         24    2    5    5    0    0  0.16180318389E+02  0.10301149292E+02  0.32199986925E+02  0.88629245686E+02  0.80314305406E+02 0.  0.
          4    1    6    6  501    0  0.93188441191E+01 -0.29762170308E+02 -0.72147218658E+01  0.32010620874E+02  0.00000000000E+00 0. -1.
         -3    1    6    6    0  501  0.68614742697E+01  0.40063319599E+02  0.39414708791E+02  0.56618624812E+02  0.00000000000E+00 0.  1.
          5    1    5    5  502    0  0.13184356545E+02  0.15223076490E+03 -0.14611003628E+02  0.15356954277E+03  0.47000000000E+01 0. -1.
         13    1    4    4    0    0  0.48118390749E+02 -0.10378860567E+03 -0.46832385462E+03  0.48209406447E+03  0.00000000000E+00 0. -1.
        -14    1    4    4    0    0 -0.57602773513E+00  0.12127854987E+02 -0.18200567117E+02  0.21878695526E+02  0.00000000000E+00 0.  1.
         -5    1    3    3    0  504 -0.76907037947E+02 -0.70871163512E+02 -0.38948764888E+03  0.40331145897E+03  0.47000000000E+01 0.  1.
<mgrwt>
<rscale>  2 0.24019581E+03</rscale>
<asrwt>0</asrwt>
<pdfrwt beam="1">  1       21 0.22389224E-01 0.24155927E+03</pdfrwt>
<pdfrwt beam="2">  1       21 0.15445432E+00 0.24155927E+03</pdfrwt>
<totfact> 0.49735856E+03</totfact>
</mgrwt>
</event>
<event>
12    1  0.2742799E-001  0.2599920E+03  0.7546771E-02  0.1107226E+00
         21   -1    0    0  502  503  0.00000000000E+00  0.00000000000E+00  0.15982613496E+03  0.15982613496E+03  0.00000000000E+00 0. -1.
         21   -1    0    0  503  504 -0.00000000000E+00 -0.00000000000E+00 -0.72862035802E+03  0.72862035802E+03  0.00000000000E+00 0.  1.
         -6    2    1    2    0  504 -0.14161644804E+02 -0.19586552039E+03 -0.57269333065E+03  0.62894634471E+03  0.17038779089E+03 0.  0.
        -24    2    3    3    0    0 -0.60731895817E+02 -0.11970609166E+03 -0.25828225633E+03  0.30207410587E+03  0.80753513566E+02 0.  0.
          6    2    1    2  502    0  0.14161644804E+02  0.19586552039E+03  0.38991075915E+01  0.25950014828E+03  0.16959147873E+03 0.  0.
         24    2    5    5    0    0  0.50278344435E+02  0.47157313712E+02 -0.64466928411E+01  0.10604763995E+03  0.80329433805E+02 0.  0.
          2    1    6    6  501    0  0.35871862899E+02  0.43865497055E+02  0.31846917627E+02  0.65001527229E+02  0.00000000000E+00 0. -1.
         -1    1    6    6    0  501  0.14406481536E+02  0.32918166578E+01 -0.38293610468E+02  0.41046112725E+02  0.00000000000E+00 0.  1.
          5    1    5    5  502    0 -0.36116699631E+02  0.14870820667E+03  0.10345800433E+02  0.15345250832E+03  0.47000000000E+01 0. -1.
         11    1    4    4    0    0 -0.96648700812E+01  0.95063350591E+01 -0.78034789113E+01  0.15642071572E+02  0.00000000000E+00 0. -1.
        -12    1    4    4    0    0 -0.51067025735E+02 -0.12921242671E+03 -0.25047877742E+03  0.28643203429E+03  0.00000000000E+00 0.  1.
         -5    1    3    3    0  504  0.46570251012E+02 -0.76159428730E+02 -0.31441107433E+03  0.32687223884E+03  0.47000000000E+01 0.  1.
<mgrwt>
<rscale>  2 0.25986163E+03</rscale>
<asrwt>0</asrwt>
<pdfrwt beam="1">  1       21 0.24588637E-01 0.25999203E+03</pdfrwt>
<pdfrwt beam="2">  1       21 0.11209544E+00 0.25999203E+03</pdfrwt>
<totfact> 0.93427833E+03</totfact>
</mgrwt>
</event>
<event>
12    1  0.2742799E-001  0.2561693E+03  0.7546771E-02  0.1109708E+00
         21   -1    0    0  502  503  0.00000000000E+00  0.00000000000E+00  0.40060329805E+03  0.40060329805E+03  0.00000000000E+00 0.  1.
         21   -1    0    0  503  504 -0.00000000000E+00 -0.00000000000E+00 -0.17043940238E+03  0.17043940238E+03  0.00000000000E+00 0. -1.
         -6    2    1    2    0  504  0.12042345450E+03  0.14285792305E+03  0.17584340180E+03  0.31071464663E+03  0.17524980771E+03 0.  0.
        -24    2    3    3    0    0 -0.51268338582E+00  0.21337182122E+02  0.75318286350E+02  0.11191769304E+03  0.79982420386E+02 0.  0.
          6    2    1    2  502    0 -0.12042345450E+03 -0.14285792305E+03  0.54320493879E+02  0.26032805380E+03  0.17294445630E+03 0.  0.
         24    2    5    5    0    0 -0.15456215236E+03 -0.13041367985E+03  0.43542274783E+02  0.22213682591E+03  0.80942281265E+02 0.  0.
          4    1    6    6  501    0 -0.12640542592E+03 -0.56672644771E+02  0.21532545624E+02  0.14019190736E+03  0.00000000000E+00 0. -1.
         -3    1    6    6    0  501 -0.28156726439E+02 -0.73741035077E+02  0.22009729158E+02  0.81944918547E+02  0.00000000000E+00 0.  1.
          5    1    5    5  502    0  0.34138697865E+02 -0.12444243205E+02  0.10778219096E+02  0.38191227890E+02  0.47000000000E+01 0. -1.
         11    1    4    4    0    0 -0.24481996702E+02  0.16175515120E+02 -0.33344084208E+01  0.29531910393E+02  0.00000000000E+00 0. -1.
        -12    1    4    4    0    0  0.23969313316E+02  0.51616670015E+01  0.78652694770E+02  0.82385782643E+02  0.00000000000E+00 0.  1.
         -5    1    3    3    0  504  0.12093613788E+03  0.12152074093E+03  0.10052511545E+03  0.19879695360E+03  0.47000000000E+01 0.  1.
<mgrwt>
<rscale>  2 0.25577546E+03</rscale>
<asrwt>0</asrwt>
<pdfrwt beam="1">  1       21 0.61631276E-01 0.25616926E+03</pdfrwt>
<pdfrwt beam="2">  1       21 0.26221447E-01 0.25616926E+03</pdfrwt>
<totfact> 0.32785073E+04</totfact>
</mgrwt>
</event>
<event>
12    1  0.2742799E-001  0.2424014E+03  0.7546771E-02  0.1118591E+00
         21   -1    0    0  502  503  0.00000000000E+00  0.00000000000E+00  0.86604397812E+02  0.86604397812E+02  0.00000000000E+00 0.  1.
         21   -1    0    0  503  504 -0.00000000000E+00 -0.00000000000E+00 -0.72134104676E+03  0.72134104676E+03  0.00000000000E+00 0.  1.
         -6    2    1    2    0  504 -0.37227254404E+02 -0.16440838774E+03 -0.42166489253E+03  0.48521023077E+03  0.17091430606E+03 0.  0.
        -24    2    3    3    0    0 -0.80181064188E+02 -0.11627770292E+03 -0.31474545365E+03  0.36024844058E+03  0.10375322210E+03 0.  0.
          6    2    1    2  502    0  0.37227254404E+02  0.16440838774E+03 -0.21307175642E+03  0.32273521381E+03  0.17419086778E+03 0.  0.
         24    2    5    5    0    0  0.47312843130E+02  0.15999727914E+03 -0.23375023617E+03  0.29884240100E+03  0.82643652304E+02 0.  0.
          4    1    6    6  501    0  0.22721815257E+02  0.10401653243E+03 -0.79379856943E+02  0.13280392161E+03  0.00000000000E+00 0. -1.
         -3    1    6    6    0  501  0.24591027873E+02  0.55980746718E+02 -0.15437037923E+03  0.16603847939E+03  0.00000000000E+00 0.  1.
          5    1    5    5  502    0 -0.10085588726E+02  0.44111085994E+01  0.20678479752E+02  0.23892812808E+02  0.47000000000E+01 0. -1.
         13    1    4    4    0    0 -0.54287655970E+02  0.46354778978E+00 -0.12019657401E+03  0.13188851682E+03  0.00000000000E+00 0. -1.
        -14    1    4    4    0    0 -0.25893408218E+02 -0.11674125071E+03 -0.19454887964E+03  0.22835992375E+03  0.00000000000E+00 0.  1.
         -5    1    3    3    0  504  0.42953809784E+02 -0.48130684823E+02 -0.10691943888E+03  0.12496179019E+03  0.47000000000E+01 0.  1.
<mgrwt>
<rscale>  2 0.24181334E+03</rscale>
<asrwt>0</asrwt>
<pdfrwt beam="1">  1       21 0.13323753E-01 0.24240141E+03</pdfrwt>
<pdfrwt beam="2">  1       21 0.11097555E+00 0.24240141E+03</pdfrwt>
<totfact> 0.30266302E+04</totfact>
</mgrwt>
</event>
<event>
12    1  0.2742799E-001  0.2474906E+03  0.7546771E-02  0.1115137E+00
         21   -1    0    0  502  503  0.00000000000E+00  0.00000000000E+00  0.18662403725E+04  0.18662403725E+04  0.00000000000E+00 0. -1.
         21   -1    0    0  503  504 -0.00000000000E+00 -0.00000000000E+00 -0.54786055620E+02  0.54786055620E+02  0.00000000000E+00 0.  1.
         -6    2    1    2    0  504  0.15245747281E+03 -0.89660807686E+02  0.29325055600E+03  0.38278254565E+03  0.17100949451E+03 0.  0.
        -24    2    3    3    0    0  0.14859462177E+03 -0.60737872384E+02  0.14260596264E+03  0.22926596246E+03  0.80355274886E+02 0.  0.
          6    2    1    2  502    0 -0.15245747281E+03  0.89660807686E+02  0.15182037609E+04  0.15382438825E+04  0.17311626428E+03 0.  0.
         24    2    5    5    0    0 -0.14452082455E+02  0.43868068697E+02  0.39967996245E+03  0.41029883046E+03  0.80422557477E+02 0.  0.
          4    1    6    6  501    0  0.22639293184E+02  0.50096411888E+02  0.24890523432E+03  0.25490391082E+03  0.00000000000E+00 0. -1.
         -3    1    6    6    0  501 -0.37091375639E+02 -0.62283431910E+01  0.15077472813E+03  0.15539491964E+03  0.00000000000E+00 0.  1.
          5    1    5    5  502    0 -0.13800539035E+03  0.45792738988E+02  0.11185237984E+04  0.11279450520E+04  0.47000000000E+01 0. -1.
         11    1    4    4    0    0  0.15127899147E+02 -0.23305236123E+02 -0.33381104179E+01  0.27984466129E+02  0.00000000000E+00 0. -1.
        -12    1    4    4    0    0  0.13346672262E+03 -0.37432636261E+02  0.14594407305E+03  0.20128149633E+03  0.00000000000E+00 0.  1.
         -5    1    3    3    0  504  0.38628510357E+01 -0.28922935302E+02  0.15064459337E+03  0.15351658319E+03  0.47000000000E+01 0.  1.
<mgrwt>
<rscale>  2 0.24712249E+03</rscale>
<asrwt>0</asrwt>
<pdfrwt beam="1">  1       21 0.28711385E+00 0.24749057E+03</pdfrwt>
<pdfrwt beam="2">  1       21 0.84286254E-02 0.24749057E+03</pdfrwt>
<totfact> 0.41952112E+03</totfact>
</mgrwt>
</event>
<event>
12    1  0.2742799E-001  0.1864232E+03  0.7546771E-02  0.1161774E+00
         21   -1    0    0  502  503  0.00000000000E+00  0.00000000000E+00  0.34449027286E+03  0.34449027286E+03  0.00000000000E+00 0. -1.
         21   -1    0    0  503  504 -0.00000000000E+00 -0.00000000000E+00 -0.10078518742E+03  0.10078518742E+03  0.00000000000E+00 0. -1.
         -6    2    1    2    0  504  0.64842056921E+02 -0.20471618768E+02  0.12393655124E+03  0.22369455538E+03  0.17336494990E+03 0.  0.
        -24    2    3    3    0    0 -0.84502128900E+01 -0.99888502817E+01  0.12613877574E+03  0.14947471274E+03  0.79123421147E+02 0.  0.
          6    2    1    2  502    0 -0.64842056921E+02  0.20471618768E+02  0.11976853420E+03  0.22158090490E+03  0.17357999917E+03 0.  0.
         24    2    5    5    0    0 -0.10229580033E+03  0.21099660571E+02  0.12698190535E+03  0.18314524365E+03  0.80673102986E+02 0.  0.
          2    1    6    6  501    0 -0.87304204747E+02  0.47646736040E+02  0.10979935738E+03  0.14814902802E+03  0.00000000000E+00 0. -1.
         -1    1    6    6    0  501 -0.14991595586E+02 -0.26547075469E+02  0.17182547968E+02  0.34996215636E+02  0.00000000000E+00 0.  1.
          5    1    5    5  502    0  0.37453743412E+02 -0.62804180258E+00 -0.72133711489E+01  0.38435661246E+02  0.47000000000E+01 0. -1.
         13    1    4    4    0    0  0.78442715257E+01 -0.19925426989E+02 -0.48630536350E+00  0.21419424114E+02  0.00000000000E+00 0. -1.
        -14    1    4    4    0    0 -0.16294484416E+02  0.99365767074E+01  0.12662508111E+03  0.12805528862E+03  0.00000000000E+00 0.  1.
         -5    1    3    3    0  504  0.73292269811E+02 -0.10482768486E+02 -0.22022245016E+01  0.74219842643E+02  0.47000000000E+01 0.  1.
<mgrwt>
<rscale>  2 0.18637309E+03</rscale>
<asrwt>0</asrwt>
<pdfrwt beam="1">  1       21 0.52998503E-01 0.18642316E+03</pdfrwt>
<pdfrwt beam="2">  1       21 0.15505414E-01 0.18642316E+03</pdfrwt>
<totfact> 0.12482659E+05</totfact>
</mgrwt>
</event>
<event>
12    1  0.2742799E-001  0.1768697E+03  0.7546771E-02  0.1171087E+00
         21   -1    0    0  502  503  0.00000000000E+00  0.00000000000E+00  0.85400905353E+02  0.85400905353E+02  0.00000000000E+00 0. -1.
         21   -1    0    0  503  504 -0.00000000000E+00 -0.00000000000E+00 -0.42930954670E+03  0.42930954670E+03  0.00000000000E+00 0. -1.
         -6    2    1    2    0  504  0.10250130247E+02  0.33033789943E+02 -0.71575292614E+02  0.18998233602E+03  0.17255135189E+03 0.  0.
        -24    2    3    3    0    0  0.71111297491E+02  0.34026636661E+02 -0.33805219332E+02  0.11819281130E+03  0.81314938090E+02 0.  0.
          6    2    1    2  502    0 -0.10250130247E+02 -0.33033789943E+02 -0.27233334874E+03  0.32472811604E+03  0.17345489346E+03 0.  0.
         24    2    5    5    0    0 -0.31270495573E+02  0.44026243983E+02 -0.13593750622E+03  0.16659519586E+03  0.79742081961E+02 0.  0.
          4    1    6    6  501    0 -0.99580691421E+01 -0.75202458977E+01 -0.98798669701E+02  0.99583604947E+02  0.00000000000E+00 0. -1.
         -3    1    6    6    0  501 -0.21312426431E+02  0.51546489880E+02 -0.37138836515E+02  0.67011590916E+02  0.00000000000E+00 0.  1.
          5    1    5    5  502    0  0.21020365325E+02 -0.77060033926E+02 -0.13639584252E+03  0.15813292018E+03  0.47000000000E+01 0. -1.
         11    1    4    4    0    0  0.58461200326E+02  0.23701013519E+02  0.16581864459E+02  0.65225824751E+02  0.00000000000E+00 0. -1.
        -12    1    4    4    0    0  0.12650097164E+02  0.10325623142E+02 -0.50387083791E+02  0.52966986553E+02  0.00000000000E+00 0.  1.
         -5    1    3    3    0  504 -0.60861167243E+02 -0.99284671781E+00 -0.37770073282E+02  0.71789524714E+02  0.47000000000E+01 0.  1.
<mgrwt>
<rscale>  2 0.17664780E+03</rscale>
<asrwt>0</asrwt>
<pdfrwt beam="1">  1       21 0.13138601E-01 0.17686972E+03</pdfrwt>
<pdfrwt beam="2">  1       21 0.66047624E-01 0.17686972E+03</pdfrwt>
<totfact> 0.10560009E+05</totfact>
</mgrwt>
</event>
<event>
12    1  0.2742799E-001  0.2034117E+03  0.7546771E-02  0.1147026E+00
         21   -1    0    0  502  503  0.00000000000E+00  0.00000000000E+00  0.16237652526E+03  0.16237652526E+03  0.00000000000E+00 0.  1.
         21   -1    0    0  503  504 -0.00000000000E+00 -0.00000000000E+00 -0.26011079139E+03  0.26011079139E+03  0.00000000000E+00 0.  1.
         -6    2    1    2    0  504  0.10556686294E+03  0.10184286275E+02 -0.16434117117E+02  0.20343012348E+03  0.17281681832E+03 0.  0.
        -24    2    3    3    0    0  0.43677883999E+02  0.19910585036E+02  0.56174176119E+02  0.10741501608E+03  0.77963187916E+02 0.  0.
          6    2    1    2  502    0 -0.10556686294E+03 -0.10184286275E+02 -0.81300149020E+02  0.21905719317E+03  0.17357493313E+03 0.  0.
         24    2    5    5    0    0 -0.11784447534E+03  0.59202709267E+01 -0.11479519903E+03  0.17963505594E+03  0.71891902360E+02 0.  0.
          4    1    6    6  501    0 -0.65562565445E+02 -0.21459368100E+02 -0.27505429181E+02  0.74266433208E+02  0.00000000000E+00 0. -1.
         -3    1    6    6    0  501 -0.52281909896E+02  0.27379639026E+02 -0.87289769848E+02  0.10536862273E+03  0.00000000000E+00 0.  1.
          5    1    5    5  502    0  0.12277612406E+02 -0.16104557201E+02  0.33495050010E+02  0.39422137235E+02  0.47000000000E+01 0. -1.
         13    1    4    4    0    0  0.20668020789E+02  0.24130735018E+02 -0.13047876169E+02  0.34346856164E+02  0.00000000000E+00 0. -1.
        -14    1    4    4    0    0  0.23009863210E+02 -0.42201499816E+01  0.69222052288E+02  0.73068159918E+02  0.00000000000E+00 0.  1.
         -5    1    3    3    0  504  0.61888978936E+02 -0.97262987614E+01 -0.72608293236E+02  0.96015107395E+02  0.47000000000E+01 0.  1.
<mgrwt>
<rscale>  2 0.20324992E+03</rscale>
<asrwt>0</asrwt>
<pdfrwt beam="1">  1       21 0.24981004E-01 0.20341175E+03</pdfrwt>
<pdfrwt beam="2">  1       21 0.40017045E-01 0.20341175E+03</pdfrwt>
<totfact> 0.90884361E+04</totfact>
</mgrwt>
</event>
<event>
12    1  0.2742799E-001  0.2538076E+03  0.7546771E-02  0.1111681E+00
         21   -1    0    0  502  503  0.00000000000E+00  0.00000000000E+00  0.10777969618E+04  0.10777969618E+04  0.00000000000E+00 0.  1.
         21   -1    0    0  503  504 -0.00000000000E+00 -0.00000000000E+00 -0.18637206410E+03  0.18637206410E+03  0.00000000000E+00 0.  1.
         -6    2    1    2    0  504  0.29821399717E+02  0.17696387422E+03 -0.78927814714E+02  0.26117216363E+03  0.17255657176E+03 0.  0.
        -24    2    3    3    0    0 -0.28790672176E+02  0.31549617470E+02 -0.15901891605E+02  0.92130636123E+02  0.80068113435E+02 0.  0.
          6    2    1    2  502    0 -0.29821399717E+02 -0.17696387422E+03  0.97035271244E+03  0.10029968623E+04  0.17947922045E+03 0.  0.
         24    2    5    5    0    0 -0.10489254265E+02 -0.14761920042E+03  0.94401274137E+03  0.95882984062E+03  0.79329405690E+02 0.  0.
          2    1    6    6  501    0  0.36811819878E+01 -0.95468553858E+01  0.29332340072E+03  0.29350180742E+03  0.00000000000E+00 0. -1.
         -1    1    6    6    0  501 -0.14170436253E+02 -0.13807234504E+03  0.65068934064E+03  0.66532803320E+03  0.00000000000E+00 0.  1.
          5    1    5    5  502    0 -0.19332145452E+02 -0.29344673792E+02  0.26339971075E+02  0.44167021679E+02  0.47000000000E+01 0. -1.
         11    1    4    4    0    0  0.21202266069E+02 -0.62026207914E+01  0.10115559282E+02  0.24296772023E+02  0.00000000000E+00 0. -1.
        -12    1    4    4    0    0 -0.49992938245E+02  0.37752238261E+02 -0.26017450887E+02  0.67833864100E+02  0.00000000000E+00 0.  1.
         -5    1    3    3    0  504  0.58612071893E+02  0.14541425675E+03 -0.63025923110E+02  0.16904152750E+03  0.47000000000E+01 0.  1.
<mgrwt>
<rscale>  2 0.25258706E+03</rscale>
<asrwt>0</asrwt>
<pdfrwt beam="1">  1       21 0.16581491E+00 0.25380764E+03</pdfrwt>
<pdfrwt beam="2">  1       21 0.28672626E-01 0.25380764E+03</pdfrwt>
<totfact> 0.25248638E+03</totfact>
</mgrwt>
</event>
<event>
12    1  0.2742799E-001  0.2259798E+03  0.7546771E-02  0.1129565E+00
         21   -1    0    0  502  503  0.00000000000E+00  0.00000000000E+00  0.26493548333E+03  0.26493548333E+03  0.00000000000E+00 0.  1.
         21   -1    0    0  503  504 -0.00000000000E+00 -0.00000000000E+00 -0.19247175814E+03  0.19247175814E+03  0.00000000000E+00 0.  1.
         -6    2    1    2    0  504  0.12784306423E+03  0.66942081482E+02  0.34024488009E+02  0.22852691264E+03  0.17390167530E+03 0.  0.
        -24    2    3    3    0    0  0.11812169293E+03  0.24452398779E+02  0.79837728566E+02  0.16511696700E+03  0.79617182442E+02 0.  0.
          6    2    1    2  502    0 -0.12784306423E+03 -0.66942081482E+02  0.38439237185E+02  0.22888032883E+03  0.17344606834E+03 0.  0.
         24    2    5    5    0    0 -0.91374229608E+01 -0.36702032310E+01 -0.30322610930E+01  0.88038804355E+02  0.87433823974E+02 0.  0.
          2    1    6    6  501    0  0.31633090376E+02  0.23047283849E+02 -0.34688256499E+01  0.39292015104E+02  0.00000000000E+00 0. -1.
         -1    1    6    6    0  501 -0.40770513337E+02 -0.26717487080E+02  0.43656455693E+00  0.48746789251E+02  0.00000000000E+00 0.  1.
          5    1    5    5  502    0 -0.11870564127E+03 -0.63271878251E+02  0.41471498278E+02  0.14084152447E+03  0.47000000000E+01 0. -1.
         11    1    4    4    0    0  0.51781472305E+02  0.46519420665E+02  0.61384526207E+02  0.92808606448E+02  0.00000000000E+00 0. -1.
        -12    1    4    4    0    0  0.66340220630E+02 -0.22067021886E+02  0.18453202359E+02  0.72308360550E+02  0.00000000000E+00 0.  1.
         -5    1    3    3    0  504  0.97213712953E+01  0.42489682703E+02 -0.45813240558E+02  0.63409945643E+02  0.47000000000E+01 0.  1.
<mgrwt>
<rscale>  2 0.22589217E+03</rscale>
<asrwt>0</asrwt>
<pdfrwt beam="1">  1       21 0.40759305E-01 0.22597983E+03</pdfrwt>
<pdfrwt beam="2">  1       21 0.29611040E-01 0.22597983E+03</pdfrwt>
<totfact> 0.62456559E+04</totfact>
</mgrwt>
</event>
<event>
12    1  0.2742799E-001  0.2553808E+03  0.7546771E-02  0.1110045E+00
         21   -1    0    0  502  503  0.00000000000E+00  0.00000000000E+00  0.17927761948E+04  0.17927761948E+04  0.00000000000E+00 0.  1.
         21   -1    0    0  503  504 -0.00000000000E+00 -0.00000000000E+00 -0.65455950861E+02  0.65455950861E+02  0.00000000000E+00 0.  1.
         -6    2    1    2    0  504 -0.47885159465E+02 -0.18097470398E+03  0.24290799301E+03  0.35201201571E+03  0.17281011011E+03 0.  0.
        -24    2    3    3    0    0  0.39937406786E+02 -0.81863050934E+02  0.12943948708E+03  0.17756112075E+03  0.80478663128E+02 0.  0.
          6    2    1    2  502    0  0.47885159465E+02  0.18097470398E+03  0.14844122509E+04  0.15062201299E+04  0.17370813793E+03 0.  0.
         24    2    5    5    0    0 -0.75824702306E+01  0.16438106382E+03  0.13076102099E+04  0.13201205368E+04  0.76125835305E+02 0.  0.
          4    1    6    6  501    0 -0.27251688052E+02  0.84290875323E+02  0.45590546655E+03  0.46443234233E+03  0.00000000000E+00 0. -1.
         -3    1    6    6    0  501  0.19669217821E+02  0.80090188495E+02  0.85170474330E+03  0.85568819449E+03  0.00000000000E+00 0.  1.
          5    1    5    5  502    0  0.55467629695E+02  0.16593640162E+02  0.17680204105E+03  0.18609959312E+03  0.47000000000E+01 0. -1.
         13    1    4    4    0    0  0.41716938229E+02 -0.21187646346E+02  0.99338756138E+02  0.10980622826E+03  0.00000000000E+00 0. -1.
        -14    1    4    4    0    0 -0.17795314430E+01 -0.60675404588E+02  0.30100730941E+02  0.67754892496E+02  0.00000000000E+00 0.  1.
         -5    1    3    3    0  504 -0.87822566251E+02 -0.99111653047E+02  0.11346850593E+03  0.17445089495E+03  0.47000000000E+01 0.  1.
<mgrwt>
<rscale>  2 0.25522816E+03</rscale>
<asrwt>0</asrwt>
<pdfrwt beam="1">  1       21 0.27581169E+00 0.25538079E+03</pdfrwt>
<pdfrwt beam="2">  1       21 0.10070148E-01 0.25538079E+03</pdfrwt>
<totfact> 0.35424185E+03</totfact>
</mgrwt>
</event>
<event>
12    1  0.2742799E-001  0.2157662E+03  0.7546771E-02  0.1137101E+00
         21   -1    0    0  502  503  0.00000000000E+00  0.00000000000E+00  0.19596761825E+04  0.19596761825E+04  0.00000000000E+00 0.  1.
         21   -1    0    0  503  504 -0.00000000000E+00 -0.00000000000E+00 -0.13801134489E+03  0.13801134489E+03  0.00000000000E+00 0. -1.
         -6    2    1    2    0  504 -0.12523479580E+03  0.39424868217E+02 -0.43490917089E+02  0.22010571736E+03  0.17122205649E+03 0.  0.
        -24    2    3    3    0    0 -0.26299044032E+02  0.61030197511E+02 -0.56928190094E+02  0.11784270577E+03  0.78928827123E+02 0.  0.
          6    2    1    2  502    0  0.12523479580E+03 -0.39424868217E+02  0.18651557547E+04  0.18775818101E+04  0.17108299084E+03 0.  0.
         24    2    5    5    0    0  0.44218575206E+02  0.41405962338E+02  0.80099616471E+03  0.80727579112E+03  0.80184854702E+02 0.  0.
          4    1    6    6  501    0 -0.15652485426E+02  0.36147889347E+02  0.26312921896E+03  0.26606137652E+03  0.00000000000E+00 0. -1.
         -3    1    6    6    0  501  0.59871060632E+02  0.52580729917E+01  0.53786694575E+03  0.54121441460E+03  0.00000000000E+00 0.  1.
          5    1    5    5  502    0  0.81016220598E+02 -0.80830830556E+02  0.10641595900E+04  0.10703060189E+04  0.47000000000E+01 0. -1.
         11    1    4    4    0    0 -0.83783680938E+01  0.35512353364E+02 -0.73844993496E+02  0.82367513971E+02  0.00000000000E+00 0. -1.
        -12    1    4    4    0    0 -0.17920675938E+02  0.25517844146E+02  0.16916803402E+02  0.35475191801E+02  0.00000000000E+00 0.  1.
         -5    1    3    3    0  504 -0.98935751772E+02 -0.21605329293E+02  0.13437273005E+02  0.10226301159E+03  0.47000000000E+01 0.  1.
<mgrwt>
<rscale>  2 0.21573864E+03</rscale>
<asrwt>0</asrwt>
<pdfrwt beam="1">  1       21 0.30148862E+00 0.21576623E+03</pdfrwt>
<pdfrwt beam="2">  1       21 0.21232516E-01 0.21576623E+03</pdfrwt>
<totfact> 0.66970836E+02</totfact>
</mgrwt>
</event>
<event>
12    1  0.2742799E-001  0.2022699E+03  0.7546771E-02  0.1147857E+00
         21   -1    0    0  502  503  0.00000000000E+00  0.00000000000E+00  0.19256815497E+03  0.19256815497E+03  0.00000000000E+00 0.  1.
         21   -1    0    0  503  504 -0.00000000000E+00 -0.00000000000E+00 -0.24957434863E+03  0.24957434863E+03  0.00000000000E+00 0.  1.
         -6    2    1    2    0  504 -0.56016245914E+01  0.10577841737E+03 -0.11386920028E+03  0.23211920266E+03  0.17231563392E+03 0.  0.
        -24    2    3    3    0    0  0.47096200732E+02  0.25497236220E+02 -0.91514892760E+02  0.13340783601E+03  0.80959952661E+02 0.  0.
          6    2    1    2  502    0  0.56016245914E+01 -0.10577841737E+03  0.56863006611E+02  0.21002330094E+03  0.17220898245E+03 0.  0.
         24    2    5    5    0    0  0.39481027175E+02 -0.95496452277E+02 -0.13686195558E+02  0.13094857266E+03  0.79258392799E+02 0.  0.
          4    1    6    6  501    0  0.36467759961E+02 -0.10894724508E+03 -0.18457758540E+02  0.11636188628E+03  0.00000000000E+00 0. -1.
         -3    1    6    6    0  501  0.30132672148E+01  0.13450792806E+02  0.47715629825E+01  0.14586686385E+02  0.00000000000E+00 0.  1.
          5    1    5    5  502    0 -0.33879402584E+02 -0.10281965091E+02  0.70549202168E+02  0.79074728278E+02  0.47000000000E+01 0. -1.
         13    1    4    4    0    0  0.42905043482E+02  0.53593593399E+02 -0.63808523665E+02  0.93726430113E+02  0.00000000000E+00 0. -1.
        -14    1    4    4    0    0  0.41911572503E+01 -0.28096357178E+02 -0.27706369096E+02  0.39681405901E+02  0.00000000000E+00 0.  1.
         -5    1    3    3    0  504 -0.52697825323E+02  0.80281181149E+02 -0.22354307517E+02  0.98711366645E+02  0.47000000000E+01 0.  1.
<mgrwt>
<rscale>  2 0.20224723E+03</rscale>
<asrwt>0</asrwt>
<pdfrwt beam="1">  1       21 0.29625870E-01 0.20226994E+03</pdfrwt>
<pdfrwt beam="2">  1       21 0.38396053E-01 0.20226994E+03</pdfrwt>
<totfact> 0.71122885E+04</totfact>
</mgrwt>
</event>
<event>
12    1  0.2742799E-001  0.2045260E+03  0.7546771E-02  0.1146247E+00
         21   -1    0    0  502  503  0.00000000000E+00  0.00000000000E+00  0.84949145312E+02  0.84949145312E+02  0.00000000000E+00 0.  1.
         21   -1    0    0  503  504 -0.00000000000E+00 -0.00000000000E+00 -0.55199062882E+03  0.55199062882E+03  0.00000000000E+00 0.  1.
         -6    2    1    2    0  504  0.39841679851E+02  0.98293040344E+02 -0.34155648748E+03  0.39811018700E+03  0.17487711578E+03 0.  0.
        -24    2    3    3    0    0 -0.76733171529E+01  0.81516068481E+02 -0.32446521596E+03  0.34469349216E+03  0.82656989752E+02 0.  0.
          6    2    1    2  502    0 -0.39841679851E+02 -0.98293040344E+02 -0.12548499603E+03  0.23882958714E+03  0.17333264617E+03 0.  0.
         24    2    5    5    0    0 -0.92756190050E+01 -0.12846276955E+03 -0.68728685957E+02  0.16750031285E+03  0.82121874447E+02 0.  0.
          2    1    6    6  501    0  0.32030066284E+02 -0.26476663264E+02 -0.28287850266E+02  0.50270680485E+02  0.00000000000E+00 0. -1.
         -1    1    6    6    0  501 -0.41305685289E+02 -0.10198610629E+03 -0.40440835692E+02  0.11722963237E+03  0.00000000000E+00 0.  1.
          5    1    5    5  502    0 -0.30566060846E+02  0.30169729210E+02 -0.56756310076E+02  0.71329274283E+02  0.47000000000E+01 0. -1.
         13    1    4    4    0    0 -0.12282878919E+02 -0.14623131502E+02 -0.38718807305E+02  0.43172342171E+02  0.00000000000E+00 0. -1.
        -14    1    4    4    0    0  0.46095617658E+01  0.96139199983E+02 -0.28574640865E+03  0.30152114999E+03  0.00000000000E+00 0.  1.
         -5    1    3    3    0  504  0.47514997004E+02  0.16776971863E+02 -0.17091271516E+02  0.53416694836E+02  0.47000000000E+01 0.  1.
<mgrwt>
<rscale>  2 0.20419546E+03</rscale>
<asrwt>0</asrwt>
<pdfrwt beam="1">  1       21 0.13069099E-01 0.20452601E+03</pdfrwt>
<pdfrwt beam="2">  1       21 0.84921637E-01 0.20452601E+03</pdfrwt>
<totfact> 0.60113331E+04</totfact>
</mgrwt>
</event>
<event>
12    1  0.2742799E-001  0.1789669E+03  0.7546771E-02  0.1169490E+00
         21   -1    0    0  502  503  0.00000000000E+00  0.00000000000E+00  0.10276146433E+03  0.10276146433E+03  0.00000000000E+00 0. -1.
         21   -1    0    0  503  504 -0.00000000000E+00 -0.00000000000E+00 -0.30841892023E+03  0.30841892023E+03  0.00000000000E+00 0. -1.
         -6    2    1    2    0  504 -0.43021439249E+02 -0.57363499734E+01 -0.89032737509E+02  0.19988988351E+03  0.17362427029E+03 0.  0.
        -24    2    3    3    0    0  0.28345062697E+01  0.50249670891E+02 -0.83659012976E+02  0.12717008437E+03  0.81488257165E+02 0.  0.
          6    2    1    2  502    0  0.43021439249E+02  0.57363499734E+01 -0.11662471839E+03  0.21129050106E+03  0.17075889714E+03 0.  0.
         24    2    5    5    0    0  0.87679487402E+02 -0.22323783304E+02 -0.77517676813E+02  0.14546373564E+03  0.83454564623E+02 0.  0.
          2    1    6    6  501    0  0.89180358736E+02 -0.24018223038E+02 -0.28872417744E+02  0.96765840711E+02  0.00000000000E+00 0. -1.
         -1    1    6    6    0  501 -0.15008713341E+01  0.16944397337E+01 -0.48645259069E+02  0.48697894931E+02  0.00000000000E+00 0.  1.
          5    1    5    5  502    0 -0.44658048152E+02  0.28060133277E+02 -0.39107041574E+02  0.65826765415E+02  0.47000000000E+01 0. -1.
         11    1    4    4    0    0 -0.28106360935E+02 -0.38188884351E+01 -0.86259547820E+01  0.29647234775E+02  0.00000000000E+00 0. -1.
        -12    1    4    4    0    0  0.30940867205E+02  0.54068559326E+02 -0.75033058194E+02  0.97522849594E+02  0.00000000000E+00 0.  1.
         -5    1    3    3    0  504 -0.45855945519E+02 -0.55986020864E+02 -0.53737245325E+01  0.72719799140E+02  0.47000000000E+01 0.  1.
<mgrwt>
<rscale>  2 0.17826816E+03</rscale>
<asrwt>0</asrwt>
<pdfrwt beam="1">  1       21 0.15809456E-01 0.17896686E+03</pdfrwt>
<pdfrwt beam="2">  1       21 0.47449064E-01 0.17896686E+03</pdfrwt>
<totfact> 0.15208358E+05</totfact>
</mgrwt>
</event>
<event>
12    1  0.2742799E-001  0.2364275E+03  0.7546771E-02  0.1122975E+00
         21   -1    0    0  502  503  0.00000000000E+00  0.00000000000E+00  0.11573947237E+04  0.11573947237E+04  0.00000000000E+00 0. -1.
         21   -1    0    0  503  504 -0.00000000000E+00 -0.00000000000E+00 -0.47411682206E+02  0.47411682206E+02  0.00000000000E+00 0. -1.
         -6    2    1    2    0  504 -0.64322968705E+02  0.14088830525E+03  0.54308482510E+03  0.59231670559E+03  0.17863648456E+03 0.  0.
        -24    2    3    3    0    0 -0.99875669601E+02  0.12512932657E+03  0.32726470870E+03  0.37297051211E+03  0.79826784994E+02 0.  0.
          6    2    1    2  502    0  0.64322968705E+02 -0.14088830525E+03  0.56689821638E+03  0.61248970029E+03  0.17257776907E+03 0.  0.
         24    2    5    5    0    0 -0.11419269186E+02 -0.14236090638E+02  0.16732374759E+03  0.18650904795E+03  0.80345021462E+02 0.  0.
          2    1    6    6  501    0  0.10307379107E+02 -0.13306269676E+02  0.16357874105E+03  0.16444240146E+03  0.00000000000E+00 0. -1.
         -1    1    6    6    0  501 -0.21726648292E+02 -0.92982096158E+00  0.37450065414E+01  0.22066646483E+02  0.00000000000E+00 0.  1.
          5    1    5    5  502    0  0.75742237890E+02 -0.12665221461E+03  0.39957446879E+03  0.42598065235E+03  0.47000000000E+01 0. -1.
         13    1    4    4    0    0 -0.31078875770E+02 -0.41242535268E+01  0.43053103140E+02  0.53258573735E+02  0.00000000000E+00 0. -1.
        -14    1    4    4    0    0 -0.68796793831E+02  0.12925358010E+03  0.28421160555E+03  0.31971193838E+03  0.00000000000E+00 0.  1.
         -5    1    3    3    0  504  0.35552700896E+02  0.15758978674E+02  0.21582011640E+03  0.21934619348E+03  0.47000000000E+01 0.  1.
<mgrwt>
<rscale>  2 0.23528325E+03</rscale>
<asrwt>0</asrwt>
<pdfrwt beam="1">  1       21 0.17806071E+00 0.23642748E+03</pdfrwt>
<pdfrwt beam="2">  1       21 0.72941058E-02 0.23642748E+03</pdfrwt>
<totfact> 0.25691047E+04</totfact>
</mgrwt>
</event>
<event>
12    1  0.2742799E-001  0.2049344E+03  0.7546771E-02  0.1145869E+00
         21   -1    0    0  502  503  0.00000000000E+00  0.00000000000E+00  0.10615247307E+03  0.10615247307E+03  0.00000000000E+00 0.  1.
         21   -1    0    0  503  504 -0.00000000000E+00 -0.00000000000E+00 -0.10283309707E+04  0.10283309707E+04  0.00000000000E+00 0.  1.
         -6    2    1    2    0  504  0.59463771606E+02 -0.92688224841E+02 -0.90725809871E+03  0.93011577544E+03  0.17283243586E+03 0.  0.
        -24    2    3    3    0    0  0.11181225984E+02 -0.65243804754E+02 -0.25269733660E+03  0.27318634110E+03  0.79956608015E+02 0.  0.
          6    2    1    2  502    0 -0.59463771606E+02  0.92688224841E+02 -0.14920398882E+02  0.20436766829E+03  0.17151232720E+03 0.  0.
         24    2    5    5    0    0 -0.28463732515E+02  0.15015843075E+02 -0.63861772015E+02  0.10735555916E+03  0.80070160145E+02 0.  0.
          4    1    6    6  501    0  0.63338878027E+01 -0.28862833072E+02 -0.15533404424E+02  0.33383647503E+02  0.00000000000E+00 0. -1.
         -3    1    6    6    0  501 -0.34797620318E+02  0.43878676146E+02 -0.48328367592E+02  0.73971911657E+02  0.00000000000E+00 0.  1.
          5    1    5    5  502    0 -0.31000039091E+02  0.77672381767E+02  0.48941373133E+02  0.97012109126E+02  0.47000000000E+01 0. -1.
         13    1    4    4    0    0 -0.27994384503E+02 -0.18941877003E+02 -0.41882871465E+02  0.53820583333E+02  0.00000000000E+00 0. -1.
        -14    1    4    4    0    0  0.39175610487E+02 -0.46301927752E+02 -0.21081446514E+03  0.21936575777E+03  0.00000000000E+00 0.  1.
         -5    1    3    3    0  504  0.48282545623E+02 -0.27444420087E+02 -0.65456076211E+03  0.65692943434E+03  0.47000000000E+01 0.  1.
<mgrwt>
<rscale>  2 0.20465579E+03</rscale>
<asrwt>0</asrwt>
<pdfrwt beam="1">  1       21 0.16331149E-01 0.20493437E+03</pdfrwt>
<pdfrwt beam="2">  1       21 0.15820477E+00 0.20493437E+03</pdfrwt>
<totfact> 0.86303793E+03</totfact>
</mgrwt>
</event>
<event>
12    1  0.2742799E-001  0.1971371E+03  0.7546771E-02  0.1152268E+00
         21   -1    0    0  502  503  0.00000000000E+00  0.00000000000E+00  0.98423522715E+03  0.98423522715E+03  0.00000000000E+00 0. -1.
         21   -1    0    0  503  504 -0.00000000000E+00 -0.00000000000E+00 -0.40892105008E+02  0.40892105008E+02  0.00000000000E+00 0. -1.
         -6    2    1    2    0  504 -0.80458729883E+02 -0.50379280105E+02  0.37331919968E+03  0.42197701752E+03  0.17229538411E+03 0.  0.
        -24    2    3    3    0    0 -0.94816690453E+02 -0.44418930378E+02  0.15950689596E+03  0.20754878238E+03  0.81674971966E+02 0.  0.
          6    2    1    2  502    0  0.80458729883E+02  0.50379280105E+02  0.57002392246E+03  0.60315031464E+03  0.17277543458E+03 0.  0.
         24    2    5    5    0    0  0.10915658123E+03  0.26929735662E+02  0.53388043531E+03  0.55117061216E+03  0.78232695270E+02 0.  0.
          4    1    6    6  501    0  0.11958108240E+03  0.22798779069E+02  0.43685593197E+03  0.45350030308E+03  0.00000000000E+00 0. -1.
         -3    1    6    6    0  501 -0.10424501168E+02  0.41309565931E+01  0.97024503338E+02  0.97670309076E+02  0.00000000000E+00 0.  1.
          5    1    5    5  502    0 -0.28697851352E+02  0.23449544443E+02  0.36143487149E+02  0.51979702482E+02  0.47000000000E+01 0. -1.
         13    1    4    4    0    0 -0.47392118249E+02 -0.24427518556E+02  0.14437353405E+03  0.15390397613E+03  0.00000000000E+00 0. -1.
        -14    1    4    4    0    0 -0.47424572205E+02 -0.19991411821E+02  0.15133361914E+02  0.53644806256E+02  0.00000000000E+00 0.  1.
         -5    1    3    3    0  504  0.14357960570E+02 -0.59603497273E+01  0.21381230372E+03  0.21442823514E+03  0.47000000000E+01 0.  1.
<mgrwt>
<rscale>  2 0.19703185E+03</rscale>
<asrwt>0</asrwt>
<pdfrwt beam="1">  1       21 0.15142079E+00 0.19713708E+03</pdfrwt>
<pdfrwt beam="2">  1       21 0.62910938E-02 0.19713708E+03</pdfrwt>
<totfact> 0.52872602E+04</totfact>
</mgrwt>
</event>
<event>
12    1  0.2742799E-001  0.1917758E+03  0.7546771E-02  0.1157255E+00
         21   -1    0    0  502  503  0.00000000000E+00  0.00000000000E+00  0.23310963545E+03  0.23310963545E+03  0.00000000000E+00 0.  1.
         21   -1    0    0  503  504 -0.00000000000E+00 -0.00000000000E+00 -0.40460883789E+03  0.40460883789E+03  0.00000000000E+00 0.  1.
         -6    2    1    2    0  504  0.43010059796E+02 -0.66354202372E+02 -0.33566141273E+03  0.38658316042E+03  0.17471465454E+03 0.  0.
        -24    2    3    3    0    0 -0.15066787573E+02 -0.62890528920E+02 -0.27580132047E+03  0.30297551795E+03  0.10745031126E+03 0.  0.
          6    2    1    2  502    0 -0.43010059796E+02  0.66354202372E+02  0.16416221029E+03  0.25113531291E+03  0.17282062576E+03 0.  0.
         24    2    5    5    0    0 -0.14072111016E+02  0.11057551870E+03  0.12409640765E+03  0.18465006463E+03  0.79188119894E+02 0.  0.
          4    1    6    6  501    0 -0.12279249428E+02  0.97166366948E+02  0.51211282242E+02  0.11052003556E+03  0.00000000000E+00 0. -1.
         -3    1    6    6    0  501 -0.17928615882E+01  0.13409151752E+02  0.72885125412E+02  0.74130029069E+02  0.00000000000E+00 0.  1.
          5    1    5    5  502    0 -0.28937948780E+02 -0.44221316328E+02  0.40065802641E+02  0.66485248278E+02  0.47000000000E+01 0. -1.
         13    1    4    4    0    0  0.46635513917E+01  0.29173549087E+02 -0.46444973204E+02  0.55045256052E+02  0.00000000000E+00 0. -1.
        -14    1    4    4    0    0 -0.19730338964E+02 -0.92064078007E+02 -0.22935634726E+03  0.24793026190E+03  0.00000000000E+00 0.  1.
         -5    1    3    3    0  504  0.58076847369E+02 -0.34636734514E+01 -0.59860092265E+02  0.83607642474E+02  0.47000000000E+01 0.  1.
<mgrwt>
<rscale>  2 0.19134335E+03</rscale>
<asrwt>0</asrwt>
<pdfrwt beam="1">  1       21 0.35863021E-01 0.19177580E+03</pdfrwt>
<pdfrwt beam="2">  1       21 0.62247513E-01 0.19177580E+03</pdfrwt>
<totfact> 0.17958385E+04</totfact>
</mgrwt>
</event>
<event>
12    1  0.2742799E-001  0.1887034E+03  0.7546771E-02  0.1160623E+00
         21   -1    0    0  502  503  0.00000000000E+00  0.00000000000E+00  0.37485223263E+03  0.37485223263E+03  0.00000000000E+00 0. -1.
         21   -1    0    0  503  504 -0.00000000000E+00 -0.00000000000E+00 -0.13208901414E+03  0.13208901414E+03  0.00000000000E+00 0.  1.
         -6    2    1    2    0  504  0.49329297743E+02  0.40652378478E+02 -0.15783602097E+02  0.18936231263E+03  0.17754708631E+03 0.  0.
        -24    2    3    3    0    0  0.68533849111E+02  0.70464434668E+02 -0.54594482057E+02  0.13658023337E+03  0.77533719442E+02 0.  0.
          6    2    1    2  502    0 -0.49329297743E+02 -0.40652378478E+02  0.25854682059E+03  0.31757893414E+03  0.17298533314E+03 0.  0.
         24    2    5    5    0    0 -0.64626755277E+02  0.13487554811E+02  0.85614933025E+02  0.13566501955E+03  0.81954555341E+02 0.  0.
          4    1    6    6  501    0 -0.32734906374E+02  0.32274788283E+02  0.41151572057E+01  0.46153770950E+02  0.00000000000E+00 0. -1.
         -3    1    6    6    0  501 -0.31891848903E+02 -0.18787233472E+02  0.81499775820E+02  0.89511248604E+02  0.00000000000E+00 0.  1.
          5    1    5    5  502    0  0.15297457534E+02 -0.54139933289E+02  0.17293188756E+03  0.18191391458E+03  0.47000000000E+01 0. -1.
         11    1    4    4    0    0  0.17511802419E+02  0.65937148470E+02 -0.10567042854E+02  0.69036462591E+02  0.00000000000E+00 0. -1.
        -12    1    4    4    0    0  0.51022046691E+02  0.45272861976E+01 -0.44027439203E+02  0.67543770783E+02  0.00000000000E+00 0.  1.
         -5    1    3    3    0  504 -0.19204551368E+02 -0.29812056190E+02  0.38810879960E+02  0.52782079258E+02  0.47000000000E+01 0.  1.
<mgrwt>
<rscale>  2 0.18762273E+03</rscale>
<asrwt>0</asrwt>
<pdfrwt beam="1">  1       21 0.57669574E-01 0.18870337E+03</pdfrwt>
<pdfrwt beam="2">  1       21 0.20321387E-01 0.18870337E+03</pdfrwt>
<totfact> 0.63304590E+04</totfact>
</mgrwt>
</event>
<event>
12    1  0.2742799E-001  0.2000342E+03  0.7546771E-02  0.1150013E+00
         21   -1    0    0  502  503  0.00000000000E+00  0.00000000000E+00  0.12385482904E+03  0.12385482904E+03  0.00000000000E+00 0. -1.
         21   -1    0    0  503  504 -0.00000000000E+00 -0.00000000000E+00 -0.34664458493E+03  0.34664458493E+03  0.00000000000E+00 0. -1.
         -6    2    1    2    0  504 -0.88362263535E+02  0.41872082551E+02 -0.17530356491E+03  0.26490605776E+03  0.17286618714E+03 0.  0.
        -24    2    3    3    0    0 -0.31171624172E+02  0.18544873750E+02 -0.18224179205E+03  0.20257503100E+03  0.80678311330E+02 0.  0.
          6    2    1    2  502    0  0.88362263535E+02 -0.41872082551E+02 -0.47486190988E+02  0.20559335621E+03  0.17450652959E+03 0.  0.
         24    2    5    5    0    0 -0.20445351009E+02 -0.76720654924E+01 -0.41629292035E+02  0.91290550407E+02  0.78256588678E+02 0.  0.
          2    1    6    6  501    0 -0.12103671125E+02  0.28399091847E+02 -0.44496373786E+02  0.54156574417E+02  0.00000000000E+00 0. -1.
         -1    1    6    6    0  501 -0.83416798837E+01 -0.36071157339E+02  0.28670817516E+01  0.37133975990E+02  0.00000000000E+00 0.  1.
          5    1    5    5  502    0  0.10880761454E+03 -0.34200017058E+02 -0.58568989533E+01  0.11430280580E+03  0.47000000000E+01 0. -1.
         11    1    4    4    0    0 -0.29613028319E+02  0.48960856357E+02 -0.13124777788E+03  0.14317847638E+03  0.00000000000E+00 0. -1.
        -12    1    4    4    0    0 -0.15585958530E+01 -0.30415982607E+02 -0.50994014176E+02  0.59396554621E+02  0.00000000000E+00 0.  1.
         -5    1    3    3    0  504 -0.57190639363E+02  0.23327208801E+02  0.69382271434E+01  0.62331026761E+02  0.47000000000E+01 0.  1.
<mgrwt>
<rscale>  2 0.19967591E+03</rscale>
<asrwt>0</asrwt>
<pdfrwt beam="1">  1       21 0.19054589E-01 0.20003422E+03</pdfrwt>
<pdfrwt beam="2">  1       21 0.53329936E-01 0.20003422E+03</pdfrwt>
<totfact> 0.83834499E+04</totfact>
</mgrwt>
</event>
<event>
12    1  0.2742799E-001  0.2305330E+03  0.7546771E-02  0.1126560E+00
         21   -1    0    0  502  503  0.00000000000E+00  0.00000000000E+00  0.89783514056E+02  0.89783514056E+02  0.00000000000E+00 0.  1.
         21   -1    0    0  503  504 -0.00000000000E+00 -0.00000000000E+00 -0.59891832796E+03  0.59891832796E+03  0.00000000000E+00 0. -1.
         -6    2    1    2    0  504 -0.78951317930E+02  0.13108809423E+03 -0.20638675315E+03  0.30817344386E+03  0.17017044566E+03 0.  0.
        -24    2    3    3    0    0 -0.80086767112E+01  0.81094391607E+01 -0.41775515129E+02  0.90744012487E+02  0.79745722342E+02 0.  0.
          6    2    1    2  502    0  0.78951317930E+02 -0.13108809423E+03 -0.30274806076E+03  0.38052839816E+03  0.17241831242E+03 0.  0.
         24    2    5    5    0    0 -0.19798885600E+01 -0.97436077516E+01 -0.64615904918E+02  0.10123758515E+03  0.77297966520E+02 0.  0.
          2    1    6    6  501    0 -0.13698034426E+02  0.31859981244E+02 -0.27314294628E+02  0.44144821248E+02  0.00000000000E+00 0. -1.
         -1    1    6    6    0  501  0.11718145866E+02 -0.41603588995E+02 -0.37301610291E+02  0.57092763903E+02  0.00000000000E+00 0.  1.
          5    1    5    5  502    0  0.80931206490E+02 -0.12134448648E+03 -0.23813215585E+03  0.27929081301E+03  0.47000000000E+01 0. -1.
         11    1    4    4    0    0 -0.35277706104E+02 -0.66086919844E+01 -0.47188848042E+02  0.59287256112E+02  0.00000000000E+00 0. -1.
        -12    1    4    4    0    0  0.27269029393E+02  0.14718131145E+02  0.54133329134E+01  0.31456756376E+02  0.00000000000E+00 0.  1.
         -5    1    3    3    0  504 -0.70942641219E+02  0.12297865507E+03 -0.16461123802E+03  0.21742943137E+03  0.47000000000E+01 0.  1.
<mgrwt>
<rscale>  2 0.23011279E+03</rscale>
<asrwt>0</asrwt>
<pdfrwt beam="1">  1       21 0.13812848E-01 0.23053302E+03</pdfrwt>
<pdfrwt beam="2">  1       21 0.92141285E-01 0.23053302E+03</pdfrwt>
<totfact> 0.44481379E+04</totfact>
</mgrwt>
</event>
<event>
12    1  0.2742799E-001  0.2456705E+03  0.7546771E-02  0.1116106E+00
         21   -1    0    0  502  503  0.00000000000E+00  0.00000000000E+00  0.19434748250E+04  0.19434748250E+04  0.00000000000E+00 0.  1.
         21   -1    0    0  503  504 -0.00000000000E+00 -0.00000000000E+00 -0.32587057266E+02  0.32587057266E+02  0.00000000000E+00 0. -1.
         -6    2    1    2    0  504  0.31390142510E+02  0.17201152597E+03  0.11711804823E+04  0.11966256426E+04  0.17226694488E+03 0.  0.
        -24    2    3    3    0    0  0.65687651422E+02  0.14488203898E+03  0.66285253717E+03  0.68639851869E+03  0.80397559972E+02 0.  0.
          6    2    1    2  502    0 -0.31390142510E+02 -0.17201152597E+03  0.73970728545E+03  0.77943623968E+03  0.17257078972E+03 0.  0.
         24    2    5    5    0    0  0.34896695606E+02 -0.89957592641E+02  0.53329137098E+03  0.54758194787E+03  0.78333616268E+02 0.  0.
          2    1    6    6  501    0  0.50935398189E+01 -0.76162465583E+02  0.47117738037E+03  0.47732042601E+03  0.00000000000E+00 0. -1.
         -1    1    6    6    0  501  0.29803155787E+02 -0.13795127058E+02  0.62113990605E+02  0.70261521861E+02  0.00000000000E+00 0.  1.
          5    1    5    5  502    0 -0.66286838116E+02 -0.82053933333E+02  0.20641591447E+03  0.23185429181E+03  0.47000000000E+01 0. -1.
         13    1    4    4    0    0 -0.12402114143E+02  0.13855095955E+02  0.28986716961E+02  0.34438436076E+02  0.00000000000E+00 0. -1.
        -14    1    4    4    0    0  0.78089765565E+02  0.13102694302E+03  0.63386582021E+03  0.65196008261E+03  0.00000000000E+00 0.  1.
         -5    1    3    3    0  504 -0.34297508912E+02  0.27129486996E+02  0.50832794517E+03  0.51022712395E+03  0.47000000000E+01 0.  1.
<mgrwt>
<rscale>  2 0.24561713E+03</rscale>
<asrwt>0</asrwt>
<pdfrwt beam="1">  1       21 0.29899604E+00 0.24567048E+03</pdfrwt>
<pdfrwt beam="2">  1       21 0.50133949E-02 0.24567048E+03</pdfrwt>
<totfact> 0.87968068E+03</totfact>
</mgrwt>
</event>
<event>
12    1  0.2742799E-001  0.1815461E+03  0.7546771E-02  0.1166484E+00
         21   -1    0    0  502  503  0.00000000000E+00  0.00000000000E+00  0.11849934939E+04  0.11849934939E+04  0.00000000000E+00 0.  1.
         21   -1    0    0  503  504 -0.00000000000E+00 -0.00000000000E+00 -0.31556149606E+02  0.31556149606E+02  0.00000000000E+00 0.  1.
         -6    2    1    2    0  504 -0.15420701291E+02  0.51464492163E+02  0.36325543552E+03  0.40578061301E+03  0.17267600436E+03 0.  0.
        -24    2    3    3    0    0  0.10552283045E+02  0.35770833601E+02  0.74240834283E+02  0.11513922476E+03  0.79714718782E+02 0.  0.
          6    2    1    2  502    0  0.15420701291E+02 -0.51464492163E+02  0.79018190878E+03  0.81076903050E+03  0.17341447423E+03 0.  0.
         24    2    5    5    0    0 -0.87366597123E+01 -0.56302423473E+02  0.23731742509E+03  0.25733591711E+03  0.81583833399E+02 0.  0.
          4    1    6    6  501    0 -0.35733212859E+01 -0.39896291572E+02  0.31917869401E+02  0.51217507683E+02  0.00000000000E+00 0. -1.
         -3    1    6    6    0  501 -0.51633384264E+01 -0.16406131901E+02  0.20539955569E+03  0.20611840943E+03  0.00000000000E+00 0.  1.
          5    1    5    5  502    0  0.24157361003E+02  0.48379313095E+01  0.55286448369E+03  0.55343311339E+03  0.47000000000E+01 0. -1.
         11    1    4    4    0    0 -0.22731381070E+02  0.51525564913E+01 -0.50581980345E+01  0.23850574230E+02  0.00000000000E+00 0. -1.
        -12    1    4    4    0    0  0.33283664115E+02  0.30618277110E+02  0.79299032317E+02  0.91288650535E+02  0.00000000000E+00 0.  1.
         -5    1    3    3    0  504 -0.25972984336E+02  0.15693658562E+02  0.28901460124E+03  0.29064138825E+03  0.47000000000E+01 0.  1.
<mgrwt>
<rscale>  2 0.18136949E+03</rscale>
<asrwt>0</asrwt>
<pdfrwt beam="1">  1       21 0.18230666E+00 0.18154606E+03</pdfrwt>
<pdfrwt beam="2">  1       21 0.48547932E-02 0.18154606E+03</pdfrwt>
<totfact> 0.49974831E+04</totfact>
</mgrwt>
</event>
<event>
12    1  0.2742799E-001  0.1792601E+03  0.7546771E-02  0.1168772E+00
         21   -1    0    0  502  503  0.00000000000E+00  0.00000000000E+00  0.47721700145E+03  0.47721700145E+03  0.00000000000E+00 0. -1.
         21   -1    0    0  503  504 -0.00000000000E+00 -0.00000000000E+00 -0.91286264508E+02  0.91286264508E+02  0.00000000000E+00 0. -1.
         -6    2    1    2    0  504  0.43661933025E+02 -0.11996390179E+02  0.46610051116E+02  0.18522058163E+03  0.17344707903E+03 0.  0.
        -24    2    3    3    0    0 -0.33041123515E+02  0.15608946215E+02 -0.50637816680E+01  0.88588865958E+02  0.80541853976E+02 0.  0.
          6    2    1    2  502    0 -0.43661933025E+02  0.11996390179E+02  0.33932068582E+03  0.38328268432E+03  0.17238564470E+03 0.  0.
         24    2    5    5    0    0 -0.64611667951E+02  0.63501205767E+02  0.20328131035E+03  0.23624378096E+03  0.79251259522E+02 0.  0.
          2    1    6    6  501    0 -0.58622487339E+02  0.21737857903E+02  0.17398794568E+03  0.18488086902E+03  0.00000000000E+00 0. -1.
         -1    1    6    6    0  501 -0.59891806123E+01  0.41763347864E+02  0.29293364668E+02  0.51362911938E+02  0.00000000000E+00 0.  1.
          5    1    5    5  502    0  0.20949734926E+02 -0.51504815588E+02  0.13603937548E+03  0.14703890336E+03  0.47000000000E+01 0. -1.
         11    1    4    4    0    0  0.19754256404E+02 -0.16181437962E+02  0.53429192378E+01  0.26088625233E+02  0.00000000000E+00 0. -1.
        -12    1    4    4    0    0 -0.52795379919E+02  0.31790384177E+02 -0.10406700906E+02  0.62500240725E+02  0.00000000000E+00 0.  1.
         -5    1    3    3    0  504  0.76703056540E+02 -0.27605336394E+02  0.51673832785E+02  0.96631715677E+02  0.47000000000E+01 0.  1.
<mgrwt>
<rscale>  2 0.17900280E+03</rscale>
<asrwt>0</asrwt>
<pdfrwt beam="1">  1       21 0.73417999E-01 0.17926005E+03</pdfrwt>
<pdfrwt beam="2">  1       21 0.14044041E-01 0.17926005E+03</pdfrwt>
<totfact> 0.74138472E+04</totfact>
</mgrwt>
</event>
<event>
12    1  0.2742799E-001  0.1739196E+03  0.7546771E-02  0.1174126E+00
         21   -1    0    0  502  503  0.00000000000E+00  0.00000000000E+00  0.74131185769E+02  0.74131185769E+02  0.00000000000E+00 0. -1.
         21   -1    0    0  503  504 -0.00000000000E+00 -0.00000000000E+00 -0.61201898129E+03  0.61201898129E+03  0.00000000000E+00 0. -1.
         -6    2    1    2    0  504 -0.24753939750E+02 -0.29452126110E+01 -0.46898330186E+03  0.50019331142E+03  0.17212373327E+03 0.  0.
        -24    2    3    3    0    0 -0.73050910518E+01  0.52146212820E+02 -0.39381393556E+03  0.40526148795E+03  0.79842757390E+02 0.  0.
          6    2    1    2  502    0  0.24753939750E+02  0.29452126110E+01 -0.68904493654E+02  0.18595685563E+03  0.17091135451E+03 0.  0.
         24    2    5    5    0    0  0.42354162155E+02 -0.33985056610E+02 -0.98338402866E+02  0.13534008346E+03  0.75482697285E+02 0.  0.
          2    1    6    6  501    0  0.49518178594E+02 -0.45816525476E+02 -0.10079898934E+03  0.12129155070E+03  0.00000000000E+00 0. -1.
         -1    1    6    6    0  501 -0.71640164386E+01  0.11831468866E+02  0.24605864790E+01  0.14048532766E+02  0.00000000000E+00 0.  1.
          5    1    5    5  502    0 -0.17600222406E+02  0.36930269221E+02  0.29433909211E+02  0.50616772170E+02  0.47000000000E+01 0. -1.
         13    1    4    4    0    0 -0.31738847359E+02  0.29939374870E+02 -0.33486661485E+03  0.33769715773E+03  0.00000000000E+00 0. -1.
        -14    1    4    4    0    0  0.24433756307E+02  0.22206837950E+02 -0.58947320715E+02  0.67564330223E+02  0.00000000000E+00 0.  1.
         -5    1    3    3    0  504 -0.17448848698E+02 -0.55091425431E+02 -0.75169366299E+02  0.94931823467E+02  0.47000000000E+01 0.  1.
<mgrwt>
<rscale>  2 0.17361883E+03</rscale>
<asrwt>0</asrwt>
<pdfrwt beam="1">  1       21 0.11404798E-01 0.17391955E+03</pdfrwt>
<pdfrwt beam="2">  1       21 0.94156764E-01 0.17391955E+03</pdfrwt>
<totfact> 0.61326261E+04</totfact>
</mgrwt>
</event>
<event>
12    1  0.2742799E-001  0.2298370E+03  0.7546771E-02  0.1127737E+00
         21   -1    0    0  502  503  0.00000000000E+00  0.00000000000E+00  0.10801538368E+04  0.10801538368E+04  0.00000000000E+00 0.  1.
         21   -1    0    0  503  504 -0.00000000000E+00 -0.00000000000E+00 -0.14465021708E+03  0.14465021708E+03  0.00000000000E+00 0.  1.
         -6    2    1    2    0  504  0.12197724064E+03 -0.85866191903E+02 -0.35363968010E+02  0.22710222608E+03  0.16755106897E+03 0.  0.
        -24    2    3    3    0    0  0.10679557390E+03 -0.12056426603E+03 -0.50675515226E+02  0.18598078604E+03  0.77973124122E+02 0.  0.
          6    2    1    2  502    0 -0.12197724064E+03  0.85866191903E+02  0.97086758768E+03  0.99770182775E+03  0.17485312167E+03 0.  0.
         24    2    5    5    0    0  0.18486967451E+01  0.35585606042E+02  0.25668878998E+03  0.27111085261E+03  0.79637971242E+02 0.  0.
          4    1    6    6  501    0  0.23808800933E+02  0.94513031914E+01  0.21806462532E+03  0.21956403838E+03  0.00000000000E+00 0. -1.
         -3    1    6    6    0  501 -0.21960104188E+02  0.26134302851E+02  0.38624164662E+02  0.51546814230E+02  0.00000000000E+00 0.  1.
          5    1    5    5  502    0 -0.12382593738E+03  0.50280585861E+02  0.71417879770E+03  0.72659097514E+03  0.47000000000E+01 0. -1.
         13    1    4    4    0    0  0.45208430148E+00 -0.49976549826E+02 -0.24605528325E+02  0.55707198250E+02  0.00000000000E+00 0. -1.
        -14    1    4    4    0    0  0.10634348960E+03 -0.70587716201E+02 -0.26069986901E+02  0.13027358779E+03  0.00000000000E+00 0.  1.
         -5    1    3    3    0  504  0.15181666732E+02  0.34698074123E+02  0.15311547216E+02  0.41121440038E+02  0.47000000000E+01 0.  1.
<mgrwt>
<rscale>  2 0.22844822E+03</rscale>
<asrwt>0</asrwt>
<pdfrwt beam="1">  1       21 0.16617751E+00 0.22983704E+03</pdfrwt>
<pdfrwt beam="2">  1       21 0.22253880E-01 0.22983704E+03</pdfrwt>
<totfact> 0.41585420E+03</totfact>
</mgrwt>
</event>
<event>
12    1  0.2742799E-001  0.2853638E+03  0.7546771E-02  0.1093325E+00
         21   -1    0    0  502  503  0.00000000000E+00  0.00000000000E+00  0.15563281205E+04  0.15563281205E+04  0.00000000000E+00 0. -1.
         21   -1    0    0  503  504 -0.00000000000E+00 -0.00000000000E+00 -0.61916577371E+02  0.61916577371E+02  0.00000000000E+00 0.  1.
         -6    2    1    2    0  504 -0.13515649176E+03 -0.17948118157E+03  0.42130165487E+03  0.50884927109E+03  0.17593102198E+03 0.  0.
        -24    2    3    3    0    0 -0.87515052050E+02 -0.37521334705E+02  0.24850557335E+03  0.28015104047E+03  0.87537709583E+02 0.  0.
          6    2    1    2  502    0  0.13515649176E+03  0.17948118157E+03  0.10731098882E+04  0.11093954268E+04  0.16944795327E+03 0.  0.
         24    2    5    5    0    0  0.11138179908E+03  0.16644455864E+03  0.63929005826E+03  0.67470366881E+03  0.80147151163E+02 0.  0.
          4    1    6    6  501    0  0.28653201254E+02  0.10228575782E+03  0.39263653289E+03  0.40675155704E+03  0.00000000000E+00 0. -1.
         -3    1    6    6    0  501  0.82728597826E+02  0.64158800821E+02  0.24665352538E+03  0.26795211177E+03  0.00000000000E+00 0.  1.
          5    1    5    5  502    0  0.23774692683E+02  0.13036622937E+02  0.43381982997E+03  0.43469175795E+03  0.47000000000E+01 0. -1.
         11    1    4    4    0    0 -0.71362661506E+02 -0.38857635769E+02  0.25093445548E+03  0.26376248077E+03  0.00000000000E+00 0. -1.
        -12    1    4    4    0    0 -0.16152390544E+02  0.13363010644E+01 -0.24288821287E+01  0.16388559705E+02  0.00000000000E+00 0.  1.
         -5    1    3    3    0  504 -0.47641439713E+02 -0.14195984687E+03  0.17279608152E+03  0.22869823062E+03  0.47000000000E+01 0.  1.
<mgrwt>
<rscale>  2 0.28437097E+03</rscale>
<asrwt>0</asrwt>
<pdfrwt beam="1">  1       21 0.23943507E+00 0.28536380E+03</pdfrwt>
<pdfrwt beam="2">  1       21 0.95256284E-02 0.28536380E+03</pdfrwt>
<totfact> 0.62938219E+03</totfact>
</mgrwt>
</event>
<event>
12    1  0.2742799E-001  0.4091921E+03  0.7546771E-02  0.1040935E+00
         21   -1    0    0  502  503  0.00000000000E+00  0.00000000000E+00  0.13879193441E+03  0.13879193441E+03  0.00000000000E+00 0. -1.
         21   -1    0    0  503  504 -0.00000000000E+00 -0.00000000000E+00 -0.15649697763E+04  0.15649697763E+04  0.00000000000E+00 0. -1.
         -6    2    1    2    0  504  0.28801413057E+03  0.23360598443E+03 -0.30189053958E+03  0.50850372048E+03  0.17295733719E+03 0.  0.
        -24    2    3    3    0    0  0.16745440742E+03  0.17638276640E+03 -0.11978268721E+03  0.28268409463E+03  0.80065887573E+02 0.  0.
          6    2    1    2  502    0 -0.28801413057E+03 -0.23360598443E+03 -0.11242873023E+04  0.11952579902E+04  0.16460810947E+03 0.  0.
         24    2    5    5    0    0 -0.98981551046E+02 -0.52477899318E+02 -0.49142264770E+03  0.51036350172E+03  0.80146165537E+02 0.  0.
          2    1    6    6  501    0 -0.10572631277E+03 -0.25847635379E+02 -0.35967119906E+03  0.37577855833E+03  0.00000000000E+00 0. -1.
         -1    1    6    6    0  501  0.67447617282E+01 -0.26630263940E+02 -0.13175144864E+03  0.13458494339E+03  0.00000000000E+00 0.  1.
          5    1    5    5  502    0 -0.18903257953E+03 -0.18112808511E+03 -0.63286465460E+03  0.68489448851E+03  0.47000000000E+01 0. -1.
         11    1    4    4    0    0  0.92486684661E+02  0.88942083234E+02 -0.10647892596E+03  0.16674004523E+03  0.00000000000E+00 0. -1.
        -12    1    4    4    0    0  0.74967722756E+02  0.87440683163E+02 -0.13303761257E+02  0.11594404940E+03  0.00000000000E+00 0.  1.
         -5    1    3    3    0  504  0.12055972315E+03  0.57223218030E+02 -0.18210785236E+03  0.22581962586E+03  0.47000000000E+01 0.  1.
<mgrwt>
<rscale>  2 0.40832468E+03</rscale>
<asrwt>0</asrwt>
<pdfrwt beam="1">  1       21 0.21352605E-01 0.40919205E+03</pdfrwt>
<pdfrwt beam="2">  1       21 0.24076458E+00 0.40919205E+03</pdfrwt>
<totfact> 0.13004593E+03</totfact>
</mgrwt>
</event>
<event>
12    1  0.2742799E-001  0.1757904E+03  0.7546771E-02  0.1172192E+00
         21   -1    0    0  502  503  0.00000000000E+00  0.00000000000E+00  0.10626371511E+04  0.10626371511E+04  0.00000000000E+00 0. -1.
         21   -1    0    0  503  504 -0.00000000000E+00 -0.00000000000E+00 -0.68062923911E+02  0.68062923911E+02  0.00000000000E+00 0. -1.
         -6    2    1    2    0  504 -0.53469601335E+01 -0.32385309479E+02  0.69129313098E+02  0.18889446666E+03  0.17269875319E+03 0.  0.
        -24    2    3    3    0    0 -0.60259955924E+02 -0.54404188165E+02  0.56728227334E+02  0.12826324489E+03  0.81500246843E+02 0.  0.
          6    2    1    2  502    0  0.53469601335E+01  0.32385309479E+02  0.92544491406E+03  0.94180560832E+03  0.17167444962E+03 0.  0.
         24    2    5    5    0    0  0.52422321136E+02 -0.23187079688E+01  0.74197493761E+03  0.74918219152E+03  0.89407336903E+02 0.  0.
          4    1    6    6  501    0  0.43297903273E+02 -0.17067336033E+02  0.71844824239E+03  0.71995408143E+03  0.00000000000E+00 0. -1.
         -3    1    6    6    0  501  0.91244178629E+01  0.14748628065E+02  0.23526695227E+02  0.29228110090E+02  0.00000000000E+00 0.  1.
          5    1    5    5  502    0 -0.47075361003E+02  0.34704017448E+02  0.18346997645E+03  0.19262341680E+03  0.47000000000E+01 0. -1.
         13    1    4    4    0    0  0.11277785508E+02  0.10859787041E+02 -0.71390911613E+00  0.15672686010E+02  0.00000000000E+00 0. -1.
        -14    1    4    4    0    0 -0.71537741432E+02 -0.65263975207E+02  0.57442136450E+02  0.11259055888E+03  0.00000000000E+00 0.  1.
         -5    1    3    3    0  504  0.54912995790E+02  0.22018878686E+02  0.12401085764E+02  0.60631221770E+02  0.47000000000E+01 0.  1.
<mgrwt>
<rscale>  2 0.17553829E+03</rscale>
<asrwt>0</asrwt>
<pdfrwt beam="1">  1       21 0.16348263E+00 0.17579038E+03</pdfrwt>
<pdfrwt beam="2">  1       21 0.10471220E-01 0.17579038E+03</pdfrwt>
<totfact> 0.17977095E+04</totfact>
</mgrwt>
</event>
<event>
12    1  0.2742799E-001  0.2127560E+03  0.7546771E-02  0.1139802E+00
         21   -1    0    0  502  503  0.00000000000E+00  0.00000000000E+00  0.45702263120E+03  0.45702263120E+03  0.00000000000E+00 0.  1.
         21   -1    0    0  503  504 -0.00000000000E+00 -0.00000000000E+00 -0.10499933515E+03  0.10499933515E+03  0.00000000000E+00 0.  1.
         -6    2    1    2    0  504  0.11407690332E+03  0.46332589405E+02  0.24727799092E+03  0.32487920460E+03  0.17099662007E+03 0.  0.
        -24    2    3    3    0    0  0.13211688768E+03  0.22597680096E+02  0.12891190399E+03  0.20272599142E+03  0.80709487966E+02 0.  0.
          6    2    1    2  502    0 -0.11407690332E+03 -0.46332589405E+02  0.10474530513E+03  0.23714276175E+03  0.17350752662E+03 0.  0.
         24    2    5    5    0    0 -0.12890044598E+03 -0.76247343624E+02  0.58372995036E+02  0.17980942869E+03  0.80591821619E+02 0.  0.
          4    1    6    6  501    0 -0.50004078172E+02 -0.15417365179E+02  0.60722108421E+02  0.80157828276E+02  0.00000000000E+00 0. -1.
         -3    1    6    6    0  501 -0.78896367807E+02 -0.60829978445E+02 -0.23491133847E+01  0.99651600410E+02  0.00000000000E+00 0.  1.
          5    1    5    5  502    0  0.14823542661E+02  0.29914754219E+02  0.46372310093E+02  0.57333333065E+02  0.47000000000E+01 0. -1.
         13    1    4    4    0    0  0.43021837235E+02 -0.10077516738E+02  0.19656043188E+01  0.44230062436E+02  0.00000000000E+00 0. -1.
        -14    1    4    4    0    0  0.89095050449E+02  0.32675196834E+02  0.12694629967E+03  0.15849592898E+03  0.00000000000E+00 0.  1.
         -5    1    3    3    0  504 -0.18039984366E+02  0.23734909309E+02  0.11836608693E+03  0.12215321318E+03  0.47000000000E+01 0.  1.
<mgrwt>
<rscale>  2 0.21224347E+03</rscale>
<asrwt>0</asrwt>
<pdfrwt beam="1">  1       21 0.70311173E-01 0.21275599E+03</pdfrwt>
<pdfrwt beam="2">  1       21 0.16153744E-01 0.21275599E+03</pdfrwt>
<totfact> 0.62286367E+04</totfact>
</mgrwt>
</event>
<event>
12    1  0.2742799E-001  0.2203417E+03  0.7546771E-02  0.1136748E+00
         21   -1    0    0  502  503  0.00000000000E+00  0.00000000000E+00  0.99690410759E+02  0.99690410759E+02  0.00000000000E+00 0. -1.
         21   -1    0    0  503  504 -0.00000000000E+00 -0.00000000000E+00 -0.54252091908E+03  0.54252091908E+03  0.00000000000E+00 0. -1.
         -6    2    1    2    0  504 -0.99696556155E+02  0.58590296070E+02 -0.34545240086E+03  0.40131099420E+03  0.16834763647E+03 0.  0.
        -24    2    3    3    0    0 -0.72068486179E+02  0.94659585366E+02 -0.16326644334E+03  0.21348629669E+03  0.69037406877E+02 0.  0.
          6    2    1    2  502    0  0.99696556155E+02 -0.58590296070E+02 -0.97378107463E+02  0.24090033564E+03  0.18755865695E+03 0.  0.
         24    2    5    5    0    0 -0.74765037179E+01  0.22645366243E+02 -0.23477126115E+02  0.87379188438E+02  0.80717014324E+02 0.  0.
          4    1    6    6  501    0 -0.33334498065E+02 -0.32923692787E+01 -0.35521698219E+02  0.48824374047E+02  0.00000000000E+00 0. -1.
         -3    1    6    6    0  501  0.25857994347E+02  0.25937735521E+02  0.12044572103E+02  0.38554814392E+02  0.00000000000E+00 0.  1.
          5    1    5    5  502    0  0.10717305987E+03 -0.81235662312E+02 -0.73900981347E+02  0.15352114720E+03  0.47000000000E+01 0. -1.
         11    1    4    4    0    0 -0.12201965000E+02  0.70473626873E+02 -0.70214759880E+02  0.10022740413E+03  0.00000000000E+00 0. -1.
        -12    1    4    4    0    0 -0.59866521179E+02  0.24185958492E+02 -0.93051683465E+02  0.11325889255E+03  0.00000000000E+00 0.  1.
         -5    1    3    3    0  504 -0.27628069976E+02 -0.36069289296E+02 -0.18218595751E+03  0.18782469751E+03  0.47000000000E+01 0.  1.
<mgrwt>
<rscale>  2 0.21620050E+03</rscale>
<asrwt>0</asrwt>
<pdfrwt beam="1">  1       21 0.15336986E-01 0.22034173E+03</pdfrwt>
<pdfrwt beam="2">  1       21 0.83464758E-01 0.22034173E+03</pdfrwt>
<totfact> 0.46417691E+04</totfact>
</mgrwt>
</event>
<event>
12    1  0.2742799E-001  0.2402075E+03  0.7546771E-02  0.1119934E+00
         21   -1    0    0  502  503  0.00000000000E+00  0.00000000000E+00  0.20023238088E+03  0.20023238088E+03  0.00000000000E+00 0.  1.
         21   -1    0    0  503  504 -0.00000000000E+00 -0.00000000000E+00 -0.90286470142E+03  0.90286470142E+03  0.00000000000E+00 0. -1.
         -6    2    1    2    0  504 -0.24320285883E+02  0.16338429943E+03 -0.80676407965E+03  0.84128977649E+03  0.17208806531E+03 0.  0.
        -24    2    3    3    0    0  0.44882921380E+02  0.58319674119E+02 -0.45080648343E+03  0.46372447129E+03  0.79988991452E+02 0.  0.
          6    2    1    2  502    0  0.24320285883E+02 -0.16338429943E+03  0.10413175911E+03  0.26180730580E+03  0.17439534544E+03 0.  0.
         24    2    5    5    0    0  0.34044445715E+02 -0.41221018744E+02  0.10158816216E+03  0.13914114781E+03  0.78625108274E+02 0.  0.
          2    1    6    6  501    0 -0.31232290856E+01  0.20270761917E+02  0.38050014019E+02  0.43225708964E+02  0.00000000000E+00 0. -1.
         -1    1    6    6    0  501  0.37167674801E+02 -0.61491780660E+02  0.63538148143E+02  0.95915438842E+02  0.00000000000E+00 0.  1.
          5    1    5    5  502    0 -0.97241598318E+01 -0.12216328069E+03  0.25435969477E+01  0.12266615800E+03  0.47000000000E+01 0. -1.
         11    1    4    4    0    0  0.43547980077E+02  0.13524764077E+02 -0.35543973349E+03  0.35835282887E+03  0.00000000000E+00 0. -1.
        -12    1    4    4    0    0  0.13349413028E+01  0.44794910042E+02 -0.95366749933E+02  0.10537164242E+03  0.00000000000E+00 0.  1.
         -5    1    3    3    0  504 -0.69203207264E+02  0.10506462531E+03 -0.35595759622E+03  0.37756530520E+03  0.47000000000E+01 0.  1.
<mgrwt>
<rscale>  2 0.23978894E+03</rscale>
<asrwt>0</asrwt>
<pdfrwt beam="1">  1       21 0.30804981E-01 0.24020750E+03</pdfrwt>
<pdfrwt beam="2">  1       21 0.13890226E+00 0.24020750E+03</pdfrwt>
<totfact> 0.35574852E+03</totfact>
</mgrwt>
</event>
<event>
12    1  0.2742799E-001  0.2210910E+03  0.7546771E-02  0.1133114E+00
         21   -1    0    0  502  503  0.00000000000E+00  0.00000000000E+00  0.80166436528E+02  0.80166436528E+02  0.00000000000E+00 0.  1.
         21   -1    0    0  503  504 -0.00000000000E+00 -0.00000000000E+00 -0.86304519030E+03  0.86304519030E+03  0.00000000000E+00 0.  1.
         -6    2    1    2    0  504  0.10967300115E+03  0.82820047938E+02 -0.64738290502E+03  0.68409492398E+03  0.17318750471E+03 0.  0.
        -24    2    3    3    0    0  0.10399708068E+03 -0.84567273678E+01 -0.35995305631E+03  0.38243008726E+03  0.76155497965E+02 0.  0.
          6    2    1    2  502    0 -0.10967300115E+03 -0.82820047938E+02 -0.13549584876E+03  0.25911670285E+03  0.17290174419E+03 0.  0.
         24    2    5    5    0    0 -0.10167108251E+03 -0.78653052392E+02 -0.16722298535E+03  0.22579860342E+03  0.80611232508E+02 0.  0.
          2    1    6    6  501    0 -0.98025047065E+02 -0.79464600808E+02 -0.17582488688E+03  0.21642070945E+03  0.00000000000E+00 0. -1.
         -1    1    6    6    0  501 -0.36460354447E+01  0.81154841567E+00  0.86019015296E+01  0.93778939650E+01  0.00000000000E+00 0.  1.
          5    1    5    5  502    0 -0.80019186361E+01 -0.41669955454E+01  0.31727136590E+02  0.33318099434E+02  0.47000000000E+01 0. -1.
         13    1    4    4    0    0  0.10748436153E+02 -0.88924516150E+01 -0.40680325205E+01  0.14531120537E+02  0.00000000000E+00 0. -1.
        -14    1    4    4    0    0  0.93248644530E+02  0.43572424723E+00 -0.35588502379E+03  0.36789896672E+03  0.00000000000E+00 0.  1.
         -5    1    3    3    0  504  0.56759204631E+01  0.91276775306E+02 -0.28742984871E+03  0.30166483672E+03  0.47000000000E+01 0.  1.
<mgrwt>
<rscale>  2 0.22103506E+03</rscale>
<asrwt>0</asrwt>
<pdfrwt beam="1">  1       21 0.12333298E-01 0.22109102E+03</pdfrwt>
<pdfrwt beam="2">  1       21 0.13277618E+00 0.22109102E+03</pdfrwt>
<totfact> 0.22495963E+04</totfact>
</mgrwt>
</event>
<event>
12    1  0.2742799E-001  0.1755467E+03  0.7546771E-02  0.1172197E+00
         21   -1    0    0  502  503  0.00000000000E+00  0.00000000000E+00  0.91146305353E+02  0.91146305353E+02  0.00000000000E+00 0.  1.
         21   -1    0    0  503  504 -0.00000000000E+00 -0.00000000000E+00 -0.69897929935E+03  0.69897929935E+03  0.00000000000E+00 0.  1.
         -6    2    1    2    0  504  0.10299371407E+02  0.28097476213E+02 -0.58780109182E+03  0.61343963570E+03  0.17292344516E+03 0.  0.
        -24    2    3    3    0    0  0.71250301195E+02  0.20789080144E+02 -0.31347672613E+03  0.33229131878E+03  0.81492769254E+02 0.  0.
          6    2    1    2  502    0 -0.10299371407E+02 -0.28097476213E+02 -0.20031902179E+02  0.17668596900E+03  0.17297719305E+03 0.  0.
         24    2    5    5    0    0 -0.51549119957E+02 -0.44777369739E+02  0.27348688471E+02  0.11151871516E+03  0.83822123929E+02 0.  0.
          4    1    6    6  501    0 -0.64701388079E+02 -0.52644596958E+01  0.73770905629E+01  0.65333036210E+02  0.00000000000E+00 0. -1.
         -3    1    6    6    0  501  0.13152268122E+02 -0.39512910043E+02  0.19971597908E+02  0.46185678947E+02  0.00000000000E+00 0.  1.
          5    1    5    5  502    0  0.41249748550E+02  0.16679893525E+02 -0.47380590650E+02  0.65167253846E+02  0.47000000000E+01 0. -1.
         13    1    4    4    0    0  0.17545940685E+02 -0.30064556926E+02 -0.76647681781E+02  0.84181973961E+02  0.00000000000E+00 0. -1.
        -14    1    4    4    0    0  0.53704360510E+02  0.50853637070E+02 -0.23682904435E+03  0.24810934482E+03  0.00000000000E+00 0.  1.
         -5    1    3    3    0  504 -0.60950929788E+02  0.73083960691E+01 -0.27432436569E+03  0.28114831691E+03  0.47000000000E+01 0.  1.
<mgrwt>
<rscale>  2 0.17553349E+03</rscale>
<asrwt>0</asrwt>
<pdfrwt beam="1">  1       21 0.14022508E-01 0.17554673E+03</pdfrwt>
<pdfrwt beam="2">  1       21 0.10753528E+00 0.17554673E+03</pdfrwt>
<totfact> 0.30886606E+04</totfact>
</mgrwt>
</event>
<event>
12    1  0.2742799E-001  0.3640495E+03  0.7546771E-02  0.1057019E+00
         21   -1    0    0  502  503  0.00000000000E+00  0.00000000000E+00  0.11379949993E+04  0.11379949993E+04  0.00000000000E+00 0.  1.
         21   -1    0    0  503  504 -0.00000000000E+00 -0.00000000000E+00 -0.12250848791E+03  0.12250848791E+03  0.00000000000E+00 0. -1.
         -6    2    1    2    0  504  0.15601567492E+03  0.27962330746E+03  0.64862377905E+03  0.74366667883E+03  0.17261876362E+03 0.  0.
        -24    2    3    3    0    0  0.17949520262E+03  0.21343821947E+03  0.55915073051E+03  0.62982788707E+03  0.79115274166E+02 0.  0.
          6    2    1    2  502    0 -0.15601567492E+03 -0.27962330746E+03  0.36686273237E+03  0.51683680842E+03  0.17321067299E+03 0.  0.
         24    2    5    5    0    0 -0.74823052876E+02 -0.15764432906E+03  0.29729764484E+03  0.35456387645E+03  0.82942324111E+02 0.  0.
          4    1    6    6  501    0  0.76676626037E+01 -0.40832409169E+02  0.29426647439E+02  0.50911749802E+02  0.00000000000E+00 0. -1.
         -3    1    6    6    0  501 -0.82490715480E+02 -0.11681191989E+03  0.26787099740E+03  0.30365212664E+03  0.00000000000E+00 0.  1.
          5    1    5    5  502    0 -0.81192622045E+02 -0.12197897841E+03  0.69565087533E+02  0.16227293197E+03  0.47000000000E+01 0. -1.
         11    1    4    4    0    0  0.63408864943E+02  0.10073101835E+03  0.16235536204E+03  0.20131240845E+03  0.00000000000E+00 0. -1.
        -12    1    4    4    0    0  0.11608633768E+03  0.11270720111E+03  0.39679536847E+03  0.42851547863E+03  0.00000000000E+00 0.  1.
         -5    1    3    3    0  504 -0.23479527701E+02  0.66185087996E+02  0.89473048540E+02  0.11383879176E+03  0.47000000000E+01 0.  1.
<mgrwt>
<rscale>  2 0.36397914E+03</rscale>
<asrwt>0</asrwt>
<pdfrwt beam="1">  1       21 0.17507615E+00 0.36404948E+03</pdfrwt>
<pdfrwt beam="2">  1       21 0.18847460E-01 0.36404948E+03</pdfrwt>
<totfact> 0.45413066E+03</totfact>
</mgrwt>
</event>
<event>
12    1  0.2742799E-001  0.1793421E+03  0.7546771E-02  0.1168817E+00
         21   -1    0    0  502  503  0.00000000000E+00  0.00000000000E+00  0.55139434663E+03  0.55139434663E+03  0.00000000000E+00 0.  1.
         21   -1    0    0  503  504 -0.00000000000E+00 -0.00000000000E+00 -0.74932119232E+02  0.74932119232E+02  0.00000000000E+00 0.  1.
         -6    2    1    2    0  504 -0.23707869303E+02  0.21452121724E+02  0.87840282156E+02  0.19831872885E+03  0.17490610753E+03 0.  0.
        -24    2    3    3    0    0 -0.16187845688E+02 -0.54422091996E+02  0.35978125363E+02  0.10598660893E+03  0.81944647914E+02 0.  0.
          6    2    1    2  502    0  0.23707869303E+02 -0.21452121724E+02  0.38862194524E+03  0.42800773701E+03  0.17646911918E+03 0.  0.
         24    2    5    5    0    0 -0.10021717588E+02 -0.40313132556E+02  0.37633654957E+03  0.38718563873E+03  0.80981089252E+02 0.  0.
          4    1    6    6  501    0  0.16401898497E+02 -0.33428620246E+02  0.67045220359E+02  0.76691306540E+02  0.00000000000E+00 0. -1.
         -3    1    6    6    0  501 -0.26423616085E+02 -0.68845123105E+01  0.30929132921E+03  0.31049433219E+03  0.00000000000E+00 0.  1.
          5    1    5    5  502    0  0.33729586891E+02  0.18861010832E+02  0.12285395677E+02  0.40822098285E+02  0.47000000000E+01 0. -1.
         11    1    4    4    0    0 -0.40201772224E+02 -0.62537683015E+02  0.26729536747E+02  0.79003875991E+02  0.00000000000E+00 0. -1.
        -12    1    4    4    0    0  0.24013926536E+02  0.81155910193E+01  0.92485886159E+01  0.26982732935E+02  0.00000000000E+00 0.  1.
         -5    1    3    3    0  504 -0.75200236142E+01  0.75874213720E+02  0.51862156793E+02  0.92332119926E+02  0.47000000000E+01 0.  1.
<mgrwt>
<rscale>  2 0.17895647E+03</rscale>
<asrwt>0</asrwt>
<pdfrwt beam="1">  1       21 0.84829897E-01 0.17934215E+03</pdfrwt>
<pdfrwt beam="2">  1       21 0.11528019E-01 0.17934215E+03</pdfrwt>
<totfact> 0.76327038E+04</totfact>
</mgrwt>
</event>
<event>
12    1  0.2742799E-001  0.3877764E+03  0.7546771E-02  0.1048103E+00
         21   -1    0    0  502  503  0.00000000000E+00  0.00000000000E+00  0.30983473473E+03  0.30983473473E+03  0.00000000000E+00 0.  1.
         21   -1    0    0  503  504 -0.00000000000E+00 -0.00000000000E+00 -0.16453007086E+04  0.16453007086E+04  0.00000000000E+00 0. -1.
         -6    2    1    2    0  504 -0.20031158499E+03  0.28316234332E+03 -0.14885672618E+04  0.15382295593E+04  0.17323983542E+03 0.  0.
        -24    2    3    3    0    0 -0.16413327505E+03  0.17492817818E+03 -0.75704526671E+03  0.79784450823E+03  0.76803150737E+02 0.  0.
          6    2    1    2  502    0  0.20031158499E+03 -0.28316234332E+03  0.15310128794E+03  0.41690588398E+03  0.17339223734E+03 0.  0.
         24    2    5    5    0    0  0.19220994528E+03 -0.16582644697E+03  0.13053935344E+03  0.29705397524E+03  0.82203818839E+02 0.  0.
          4    1    6    6  501    0  0.35536406809E+02 -0.60703542061E+01 -0.34964485518E+01  0.36220305929E+02  0.00000000000E+00 0. -1.
         -3    1    6    6    0  501  0.15667353847E+03 -0.15975609276E+03  0.13403580199E+03  0.26083366931E+03  0.00000000000E+00 0.  1.
          5    1    5    5  502    0  0.81016397120E+01 -0.11733589636E+03  0.22561934493E+02  0.11985190874E+03  0.47000000000E+01 0. -1.
         11    1    4    4    0    0 -0.77775123590E+02  0.50583510385E+02 -0.38833083631E+03  0.39925994014E+03  0.00000000000E+00 0. -1.
        -12    1    4    4    0    0 -0.86358151459E+02  0.12434466779E+03 -0.36871443040E+03  0.39858456808E+03  0.00000000000E+00 0.  1.
         -5    1    3    3    0  504 -0.36178309941E+02  0.10823416515E+03 -0.73152199506E+03  0.74038505109E+03  0.47000000000E+01 0.  1.
<mgrwt>
<rscale>  2 0.38775934E+03</rscale>
<asrwt>0</asrwt>
<pdfrwt beam="1">  1       21 0.47666883E-01 0.38777637E+03</pdfrwt>
<pdfrwt beam="2">  1       21 0.25312318E+00 0.38777637E+03</pdfrwt>
<totfact> 0.22208577E+02</totfact>
</mgrwt>
</event>
<event>
12    1  0.2742799E-001  0.1941741E+03  0.7546771E-02  0.1154879E+00
         21   -1    0    0  502  503  0.00000000000E+00  0.00000000000E+00  0.14247883546E+04  0.14247883546E+04  0.00000000000E+00 0.  1.
         21   -1    0    0  503  504 -0.00000000000E+00 -0.00000000000E+00 -0.65263294226E+02  0.65263294226E+02  0.00000000000E+00 0.  1.
         -6    2    1    2    0  504  0.32352585262E+02  0.81210061859E+02  0.10429477306E+03  0.21989156119E+03  0.17272271152E+03 0.  0.
        -24    2    3    3    0    0 -0.20968556690E+02  0.93972197742E+02  0.10687098408E+03  0.16480305827E+03  0.80425036254E+02 0.  0.
          6    2    1    2  502    0 -0.32352585262E+02 -0.81210061859E+02  0.12552302873E+04  0.12701600876E+04  0.17338341934E+03 0.  0.
         24    2    5    5    0    0  0.41493719806E+02 -0.76816646959E+02  0.64298860012E+03  0.65344738920E+03  0.77049494073E+02 0.  0.
          2    1    6    6  501    0  0.63546295712E+02 -0.57468942752E+02  0.51979085613E+03  0.52680484546E+03  0.00000000000E+00 0. -1.
         -1    1    6    6    0  501 -0.22052575905E+02 -0.19347704206E+02  0.12319774399E+03  0.12664254375E+03  0.00000000000E+00 0.  1.
          5    1    5    5  502    0 -0.73846305068E+02 -0.43934148996E+01  0.61224168716E+03  0.61671269840E+03  0.47000000000E+01 0. -1.
         11    1    4    4    0    0  0.26220362778E+02  0.18562793078E+02  0.49293691488E+02  0.58838361054E+02  0.00000000000E+00 0. -1.
        -12    1    4    4    0    0 -0.47188919468E+02  0.75409404664E+02  0.57577292596E+02  0.10596469721E+03  0.00000000000E+00 0.  1.
         -5    1    3    3    0  504  0.53321141952E+02 -0.12762135884E+02 -0.25762110263E+01  0.55088502926E+02  0.47000000000E+01 0.  1.
<mgrwt>
<rscale>  2 0.19402648E+03</rscale>
<asrwt>0</asrwt>
<pdfrwt beam="1">  1       21 0.21919819E+00 0.19417408E+03</pdfrwt>
<pdfrwt beam="2">  1       21 0.10040508E-01 0.19417408E+03</pdfrwt>
<totfact> 0.81861239E+03</totfact>
</mgrwt>
</event>
<event>
12    1  0.2742799E-001  0.2457656E+03  0.7546771E-02  0.1116305E+00
         21   -1    0    0  502  503  0.00000000000E+00  0.00000000000E+00  0.36471516421E+03  0.36471516421E+03  0.00000000000E+00 0. -1.
         21   -1    0    0  503  504 -0.00000000000E+00 -0.00000000000E+00 -0.19188384083E+03  0.19188384083E+03  0.00000000000E+00 0.  1.
         -6    2    1    2    0  504 -0.11531988252E+03  0.12979234763E+03 -0.19205506324E+02  0.24470338923E+03  0.17136559870E+03 0.  0.
        -24    2    3    3    0    0 -0.65317753318E+02  0.15063315151E+03  0.11512573635E+02  0.18225146798E+03  0.78270703303E+02 0.  0.
          6    2    1    2  502    0  0.11531988252E+03 -0.12979234763E+03  0.19203682970E+03  0.31189561581E+03  0.17394252612E+03 0.  0.
         24    2    5    5    0    0  0.55127725934E+02 -0.14714031549E+03  0.15935200493E+03  0.24108293705E+03  0.89658142144E+02 0.  0.
          4    1    6    6  501    0  0.23631110711E+02 -0.78186783725E+02  0.14121686391E+03  0.16313738135E+03  0.00000000000E+00 0. -1.
         -3    1    6    6    0  501  0.31496615223E+02 -0.68953531762E+02  0.18135141024E+02  0.77945555697E+02  0.00000000000E+00 0.  1.
          5    1    5    5  502    0  0.60192156586E+02  0.17347967855E+02  0.32684824767E+02  0.70812678760E+02  0.47000000000E+01 0. -1.
         13    1    4    4    0    0  0.83969704089E+01  0.73008679174E+02  0.15589081196E+02  0.75125200827E+02  0.00000000000E+00 0. -1.
        -14    1    4    4    0    0 -0.73714723727E+02  0.77624472341E+02 -0.40765075605E+01  0.10712626715E+03  0.00000000000E+00 0.  1.
         -5    1    3    3    0  504 -0.50002129201E+02 -0.20840803883E+02 -0.30718079959E+02  0.62451921248E+02  0.47000000000E+01 0.  1.
<mgrwt>
<rscale>  2 0.24531008E+03</rscale>
<asrwt>0</asrwt>
<pdfrwt beam="1">  1       21 0.56110025E-01 0.24576560E+03</pdfrwt>
<pdfrwt beam="2">  1       21 0.29520591E-01 0.24576560E+03</pdfrwt>
<totfact> 0.32016382E+04</totfact>
</mgrwt>
</event>
<event>
12    1  0.2742799E-001  0.2525160E+03  0.7546771E-02  0.1111780E+00
         21   -1    0    0  502  503  0.00000000000E+00  0.00000000000E+00  0.36521154518E+02  0.36521154518E+02  0.00000000000E+00 0.  1.
         21   -1    0    0  503  504 -0.00000000000E+00 -0.00000000000E+00 -0.19683629043E+04  0.19683629043E+04  0.00000000000E+00 0.  1.
         -6    2    1    2    0  504 -0.14043375858E+03  0.11980071596E+03 -0.13052988192E+04  0.13294996589E+04  0.17230926701E+03 0.  0.
        -24    2    3    3    0    0 -0.75725958414E+02  0.12514505762E+03 -0.11357561604E+04  0.11478889088E+04  0.79442966225E+02 0.  0.
          6    2    1    2  502    0  0.14043375858E+03 -0.11980071596E+03 -0.62654293054E+03  0.67538439989E+03  0.17179694906E+03 0.  0.
         24    2    5    5    0    0  0.64365585698E+02 -0.20537992461E+02 -0.42453385289E+03  0.43775188390E+03  0.82661852454E+02 0.  0.
          2    1    6    6  501    0 -0.11749158627E+02  0.14744861494E+02 -0.13494118142E+03  0.13625188480E+03  0.00000000000E+00 0. -1.
         -1    1    6    6    0  501  0.76114744325E+02 -0.35282853955E+02 -0.28959267147E+03  0.30149999909E+03  0.00000000000E+00 0.  1.
          5    1    5    5  502    0  0.76068172879E+02 -0.99262723496E+02 -0.20200907766E+03  0.23763251599E+03  0.47000000000E+01 0. -1.
         11    1    4    4    0    0 -0.35667567027E+02  0.82517972062E+00 -0.26512493244E+03  0.26751464644E+03  0.00000000000E+00 0. -1.
        -12    1    4    4    0    0 -0.40058391387E+02  0.12431987790E+03 -0.87063122795E+03  0.88037426236E+03  0.00000000000E+00 0.  1.
         -5    1    3    3    0  504 -0.64707800162E+02 -0.53443416602E+01 -0.16954265886E+03  0.18161075013E+03  0.47000000000E+01 0.  1.
<mgrwt>
<rscale>  2 0.25242864E+03</rscale>
<asrwt>0</asrwt>
<pdfrwt beam="1">  1       21 0.56186380E-02 0.25251601E+03</pdfrwt>
<pdfrwt beam="2">  1       21 0.30282513E+00 0.25251601E+03</pdfrwt>
<totfact> 0.68357150E+03</totfact>
</mgrwt>
</event>
<event>
12    1  0.2742799E-001  0.1812117E+03  0.7546771E-02  0.1166963E+00
         21   -1    0    0  502  503  0.00000000000E+00  0.00000000000E+00  0.58336322888E+03  0.58336322888E+03  0.00000000000E+00 0.  1.
         21   -1    0    0  503  504 -0.00000000000E+00 -0.00000000000E+00 -0.36428273432E+03  0.36428273432E+03  0.00000000000E+00 0.  1.
         -6    2    1    2    0  504  0.38662482091E+02  0.36146802690E+02 -0.32637367637E+03  0.37330611324E+03  0.17330983437E+03 0.  0.
        -24    2    3    3    0    0 -0.23432938573E+02  0.46825473106E+02 -0.27736373455E+03  0.29334399930E+03  0.79864467304E+02 0.  0.
          6    2    1    2  502    0 -0.38662482091E+02 -0.36146802690E+02  0.54545417093E+03  0.57433984997E+03  0.17188551950E+03 0.  0.
         24    2    5    5    0    0 -0.73531583639E+02  0.21022573180E+02  0.34192063215E+03  0.36002190115E+03  0.82808261902E+02 0.  0.
          4    1    6    6  501    0 -0.17409937119E+02 -0.24221981628E+02  0.18430208644E+03  0.18670048037E+03  0.00000000000E+00 0. -1.
         -3    1    6    6    0  501 -0.56121646520E+02  0.45244554808E+02  0.15761854572E+03  0.17332142078E+03  0.00000000000E+00 0.  1.
          5    1    5    5  502    0  0.34869101548E+02 -0.57169375870E+02  0.20353353878E+03  0.21431794882E+03  0.47000000000E+01 0. -1.
         11    1    4    4    0    0 -0.33053542248E+02  0.18903709090E+02 -0.44295543164E+02  0.58412173532E+02  0.00000000000E+00 0. -1.
        -12    1    4    4    0    0  0.96206036759E+01  0.27921764016E+02 -0.23306819139E+03  0.23493182577E+03  0.00000000000E+00 0.  1.
         -5    1    3    3    0  504  0.62095420663E+02 -0.10678670416E+02 -0.49009941814E+02  0.79962113941E+02  0.47000000000E+01 0.  1.
<mgrwt>
<rscale>  2 0.18087030E+03</rscale>
<asrwt>0</asrwt>
<pdfrwt beam="1">  1       21 0.89748189E-01 0.18121169E+03</pdfrwt>
<pdfrwt beam="2">  1       21 0.56043497E-01 0.18121169E+03</pdfrwt>
<totfact> 0.32008595E+03</totfact>
</mgrwt>
</event>
<event>
12    1  0.2742799E-001  0.1781693E+03  0.7546771E-02  0.1170548E+00
         21   -1    0    0  502  503  0.00000000000E+00  0.00000000000E+00  0.45402083873E+03  0.45402083873E+03  0.00000000000E+00 0. -1.
         21   -1    0    0  503  504 -0.00000000000E+00 -0.00000000000E+00 -0.38219841256E+03  0.38219841256E+03  0.00000000000E+00 0. -1.
         -6    2    1    2    0  504  0.21102866304E+02  0.31698346933E+02 -0.34300505308E+03  0.38474815801E+03  0.17008398658E+03 0.  0.
        -24    2    3    3    0    0  0.35881532080E+02 -0.92892263456E+01 -0.85997939155E+02  0.12403157485E+03  0.81329035104E+02 0.  0.
          6    2    1    2  502    0 -0.21102866304E+02 -0.31698346933E+02  0.41482747924E+03  0.45147109328E+03  0.17405227483E+03 0.  0.
         24    2    5    5    0    0 -0.55770768179E+02 -0.59860137172E+02  0.37338504366E+03  0.39036041241E+03  0.79191199910E+02 0.  0.
          2    1    6    6  501    0 -0.42242001568E+02 -0.79349759778E+02  0.28452880415E+03  0.29839137297E+03  0.00000000000E+00 0. -1.
         -1    1    6    6    0  501 -0.13528766611E+02  0.19489622607E+02  0.88856239514E+02  0.91969039442E+02  0.00000000000E+00 0.  1.
          5    1    5    5  502    0  0.34667901875E+02  0.28161790239E+02  0.41442435577E+02  0.61110680870E+02  0.47000000000E+01 0. -1.
         13    1    4    4    0    0  0.14689938197E+01  0.90954341030E+01 -0.84485785991E+02  0.84986663065E+02  0.00000000000E+00 0. -1.
        -14    1    4    4    0    0  0.34412538261E+02 -0.18384660449E+02 -0.15121531643E+01  0.39044911788E+02  0.00000000000E+00 0.  1.
         -5    1    3    3    0  504 -0.14778665776E+02  0.40987573279E+02 -0.25700711392E+03  0.26071658316E+03  0.47000000000E+01 0.  1.
<mgrwt>
<rscale>  2 0.17719270E+03</rscale>
<asrwt>0</asrwt>
<pdfrwt beam="1">  1       21 0.69849360E-01 0.17816933E+03</pdfrwt>
<pdfrwt beam="2">  1       21 0.58799756E-01 0.17816933E+03</pdfrwt>
<totfact> 0.50959070E+03</totfact>
</mgrwt>
</event>
<event>
12    1  0.2742799E-001  0.3434148E+03  0.7546771E-02  0.1065503E+00
         21   -1    0    0  502  503  0.00000000000E+00  0.00000000000E+00  0.23270949849E+03  0.23270949849E+03  0.00000000000E+00 0. -1.
         21   -1    0    0  503  504 -0.00000000000E+00 -0.00000000000E+00 -0.51056219408E+03  0.51056219408E+03  0.00000000000E+00 0. -1.
         -6    2    1    2    0  504  0.20514131237E+03  0.21397289815E+03 -0.17921210540E+03  0.38736379664E+03  0.17339657736E+03 0.  0.
        -24    2    3    3    0    0  0.11005398797E+03  0.29182017675E+02 -0.94136611422E+02  0.16275480652E+03  0.68293154930E+02 0.  0.
          6    2    1    2  502    0 -0.20514131237E+03 -0.21397289815E+03 -0.98640590191E+02  0.35590789593E+03  0.17050837273E+03 0.  0.
         24    2    5    5    0    0 -0.11505947257E+03 -0.15020997772E+03 -0.13253513185E+03  0.24035973352E+03  0.66374096528E+02 0.  0.
          2    1    6    6  501    0 -0.76854596040E+02 -0.11853595593E+03 -0.62389913473E+02  0.15443413834E+03  0.00000000000E+00 0. -1.
         -1    1    6    6    0  501 -0.38204876528E+02 -0.31674021791E+02 -0.70145218373E+02  0.85925595183E+02  0.00000000000E+00 0.  1.
          5    1    5    5  502    0 -0.90081839798E+02 -0.63762920429E+02  0.33894541655E+02  0.11554816241E+03  0.47000000000E+01 0. -1.
         13    1    4    4    0    0  0.51200951490E+02  0.15502200304E+02 -0.32222338165E+01  0.53593268593E+02  0.00000000000E+00 0. -1.
        -14    1    4    4    0    0  0.58853036480E+02  0.13679817371E+02 -0.90914377605E+02  0.10916153792E+03  0.00000000000E+00 0.  1.
         -5    1    3    3    0  504  0.95087324397E+02  0.18479088048E+03 -0.85075493976E+02  0.22460899012E+03  0.47000000000E+01 0.  1.
<mgrwt>
<rscale>  2 0.34305193E+03</rscale>
<asrwt>0</asrwt>
<pdfrwt beam="1">  1       21 0.35801462E-01 0.34341481E+03</pdfrwt>
<pdfrwt beam="2">  1       21 0.78548029E-01 0.34341481E+03</pdfrwt>
<totfact> 0.99641843E+03</totfact>
</mgrwt>
</event>
<event>
12    1  0.2742799E-001  0.2148935E+03  0.7546771E-02  0.1139622E+00
         21   -1    0    0  502  503  0.00000000000E+00  0.00000000000E+00  0.42667456104E+03  0.42667456104E+03  0.00000000000E+00 0. -1.
         21   -1    0    0  503  504 -0.00000000000E+00 -0.00000000000E+00 -0.35447118668E+03  0.35447118668E+03  0.00000000000E+00 0. -1.
         -6    2    1    2    0  504  0.72134013165E+02  0.83862929297E+02 -0.29276116164E+03  0.35761496547E+03  0.17304062815E+03 0.  0.
        -24    2    3    3    0    0  0.84288626085E+02  0.50282826292E+02 -0.99772308220E+02  0.16129342951E+03  0.80175568654E+02 0.  0.
          6    2    1    2  502    0 -0.72134013165E+02 -0.83862929297E+02  0.36496453600E+03  0.42353078225E+03  0.18423600139E+03 0.  0.
         24    2    5    5    0    0  0.28602125471E+02 -0.52993057828E+01  0.11538542674E+03  0.14311709795E+03  0.79514418796E+02 0.  0.
          4    1    6    6  501    0  0.50800919146E+02  0.14497720648E+02  0.88254282618E+02  0.10285784214E+03  0.00000000000E+00 0. -1.
         -3    1    6    6    0  501 -0.22198793676E+02 -0.19797026431E+02  0.27131144126E+02  0.40259255803E+02  0.00000000000E+00 0.  1.
          5    1    5    5  502    0 -0.10073613864E+03 -0.78563623514E+02  0.24957910926E+03  0.28041368430E+03  0.47000000000E+01 0. -1.
         11    1    4    4    0    0  0.66448203769E+02  0.38819912322E+01 -0.87766868019E+02  0.11015197121E+03  0.00000000000E+00 0. -1.
        -12    1    4    4    0    0  0.17840422316E+02  0.46400835059E+02 -0.12005440201E+02  0.51141458300E+02  0.00000000000E+00 0.  1.
         -5    1    3    3    0  504 -0.12154612920E+02  0.33580103005E+02 -0.19298885342E+03  0.19632153595E+03  0.47000000000E+01 0.  1.
<mgrwt>
<rscale>  2 0.21247359E+03</rscale>
<asrwt>0</asrwt>
<pdfrwt beam="1">  1       21 0.65642240E-01 0.21489349E+03</pdfrwt>
<pdfrwt beam="2">  1       21 0.54534029E-01 0.21489349E+03</pdfrwt>
<totfact> 0.66667242E+03</totfact>
</mgrwt>
</event>
<event>
12    1  0.2742799E-001  0.2006964E+03  0.7546771E-02  0.1149574E+00
         21   -1    0    0  502  503  0.00000000000E+00  0.00000000000E+00  0.57681519911E+02  0.57681519911E+02  0.00000000000E+00 0. -1.
         21   -1    0    0  503  504 -0.00000000000E+00 -0.00000000000E+00 -0.11647433819E+04  0.11647433819E+04  0.00000000000E+00 0. -1.
         -6    2    1    2    0  504 -0.27754320415E+02  0.93522377121E+02 -0.94153718907E+03  0.96227599078E+03  0.17310709602E+03 0.  0.
        -24    2    3    3    0    0 -0.39995859176E+02  0.13166438163E+03 -0.73121622819E+03  0.74812262432E+03  0.77942995211E+02 0.  0.
          6    2    1    2  502    0  0.27754320415E+02 -0.93522377121E+02 -0.16552467290E+03  0.26014891102E+03  0.17539185056E+03 0.  0.
         24    2    5    5    0    0  0.51400644347E+02 -0.12741326508E+03 -0.13142693013E+03  0.20636706479E+03  0.80238152456E+02 0.  0.
          2    1    6    6  501    0 -0.10237856536E+00 -0.87156642848E+02 -0.45252504372E+02  0.98204277024E+02  0.00000000000E+00 0. -1.
         -1    1    6    6    0  501  0.51503022912E+02 -0.40256622230E+02 -0.86174425763E+02  0.10816278777E+03  0.00000000000E+00 0.  1.
          5    1    5    5  502    0 -0.23646323932E+02  0.33890887957E+02 -0.34097742770E+02  0.53781846231E+02  0.47000000000E+01 0. -1.
         11    1    4    4    0    0 -0.13301121099E+01  0.95819472079E+02 -0.33577295075E+03  0.34917991764E+03  0.00000000000E+00 0. -1.
        -12    1    4    4    0    0 -0.38665747066E+02  0.35844909555E+02 -0.39544327745E+03  0.39894270668E+03  0.00000000000E+00 0.  1.
         -5    1    3    3    0  504  0.12241538761E+02 -0.38142004513E+02 -0.21032096088E+03  0.21415336646E+03  0.47000000000E+01 0.  1.
<mgrwt>
<rscale>  2 0.20019612E+03</rscale>
<asrwt>0</asrwt>
<pdfrwt beam="1">  1       21 0.88740807E-02 0.20069638E+03</pdfrwt>
<pdfrwt beam="2">  1       21 0.17919128E+00 0.20069638E+03</pdfrwt>
<totfact> 0.18343410E+04</totfact>
</mgrwt>
</event>
<event>
12    1  0.2742799E-001  0.1822286E+03  0.7546771E-02  0.1165671E+00
         21   -1    0    0  502  503  0.00000000000E+00  0.00000000000E+00  0.48957056261E+03  0.48957056261E+03  0.00000000000E+00 0.  1.
         21   -1    0    0  503  504 -0.00000000000E+00 -0.00000000000E+00 -0.14299565585E+03  0.14299565585E+03  0.00000000000E+00 0.  1.
         -6    2    1    2    0  504  0.34504044431E+01  0.57139012226E+02 -0.56035466333E+02  0.19064953221E+03  0.17300433126E+03 0.  0.
        -24    2    3    3    0    0  0.64706229748E+02  0.74019091295E+01 -0.33109049609E+02  0.10834663954E+03  0.80006879120E+02 0.  0.
          6    2    1    2  502    0 -0.34504044431E+01 -0.57139012226E+02  0.40261037310E+03  0.44191668624E+03  0.17296957260E+03 0.  0.
         24    2    5    5    0    0 -0.64680997298E+02 -0.40332891542E+02  0.19428221284E+03  0.22407650733E+03  0.81574072832E+02 0.  0.
          2    1    6    6  501    0 -0.61143772381E+02 -0.64067242758E+01  0.61407789523E+02  0.86893749091E+02  0.00000000000E+00 0. -1.
         -1    1    6    6    0  501 -0.35372249164E+01 -0.33926167266E+02  0.13287442332E+03  0.13718275824E+03  0.00000000000E+00 0.  1.
          5    1    5    5  502    0  0.61230592855E+02 -0.16806120684E+02  0.20832816026E+03  0.21784017892E+03  0.47000000000E+01 0. -1.
         13    1    4    4    0    0  0.17593966464E+02  0.40527159258E+01  0.26641493347E+02  0.32182935386E+02  0.00000000000E+00 0. -1.
        -14    1    4    4    0    0  0.47112263284E+02  0.33491932037E+01 -0.59750542956E+02  0.76163704154E+02  0.00000000000E+00 0.  1.
         -5    1    3    3    0  504 -0.61255825305E+02  0.49737103097E+02 -0.22926416725E+02  0.82302892672E+02  0.47000000000E+01 0.  1.
<mgrwt>
<rscale>  2 0.18222037E+03</rscale>
<asrwt>0</asrwt>
<pdfrwt beam="1">  1       21 0.75318547E-01 0.18222862E+03</pdfrwt>
<pdfrwt beam="2">  1       21 0.21999332E-01 0.18222862E+03</pdfrwt>
<totfact> 0.30576045E+04</totfact>
</mgrwt>
</event>
<event>
12    1  0.2742799E-001  0.1795893E+03  0.7546771E-02  0.1168567E+00
         21   -1    0    0  502  503  0.00000000000E+00  0.00000000000E+00  0.49120303970E+02  0.49120303970E+02  0.00000000000E+00 0. -1.
         21   -1    0    0  503  504 -0.00000000000E+00 -0.00000000000E+00 -0.11574167562E+04  0.11574167562E+04  0.00000000000E+00 0. -1.
         -6    2    1    2    0  504 -0.30059726313E+02 -0.29428679282E+02 -0.95444627620E+03  0.97119514383E+03  0.17459289483E+03 0.  0.
        -24    2    3    3    0    0 -0.87696113799E+02 -0.24337801164E+02 -0.66690768606E+03  0.67785506640E+03  0.80241462967E+02 0.  0.
          6    2    1    2  502    0  0.30059726313E+02  0.29428679282E+02 -0.15385017605E+03  0.23534191637E+03  0.17305001190E+03 0.  0.
         24    2    5    5    0    0 -0.23912729201E+01  0.30409678624E+01 -0.17375363916E+03  0.18878424773E+03  0.73717022462E+02 0.  0.
          4    1    6    6  501    0  0.29837898307E+02  0.93450610496E+01 -0.13205746917E+03  0.13570853143E+03  0.00000000000E+00 0. -1.
         -3    1    6    6    0  501 -0.32229171227E+02 -0.63040931872E+01 -0.41696169990E+02  0.53075716299E+02  0.00000000000E+00 0.  1.
          5    1    5    5  502    0  0.32450999233E+02  0.26387711420E+02  0.19903463103E+02  0.46557668635E+02  0.47000000000E+01 0. -1.
         13    1    4    4    0    0 -0.62658244217E+02 -0.17997322612E+02 -0.62660063201E+03  0.62998278645E+03  0.00000000000E+00 0. -1.
        -14    1    4    4    0    0 -0.25037869582E+02 -0.63404785524E+01 -0.40307054053E+02  0.47872279953E+02  0.00000000000E+00 0.  1.
         -5    1    3    3    0  504  0.57636387486E+02 -0.50908781183E+01 -0.28753859014E+03  0.29334007742E+03  0.47000000000E+01 0.  1.
<mgrwt>
<rscale>  2 0.17921321E+03</rscale>
<asrwt>0</asrwt>
<pdfrwt beam="1">  1       21 0.75569700E-02 0.17958929E+03</pdfrwt>
<pdfrwt beam="2">  1       21 0.17806411E+00 0.17958929E+03</pdfrwt>
<totfact> 0.25081178E+04</totfact>
</mgrwt>
</event>
<event>
12    1  0.2742799E-001  0.3049100E+03  0.7546771E-02  0.1082887E+00
         21   -1    0    0  502  503  0.00000000000E+00  0.00000000000E+00  0.16375100736E+04  0.16375100736E+04  0.00000000000E+00 0.  1.
         21   -1    0    0  503  504 -0.00000000000E+00 -0.00000000000E+00 -0.77295723457E+03  0.77295723457E+03  0.00000000000E+00 0.  1.
         -6    2    1    2    0  504 -0.84634309034E+02 -0.23742747117E+03 -0.72797367419E+03  0.78901401229E+03  0.17047777260E+03 0.  0.
        -24    2    3    3    0    0 -0.15355532538E+02 -0.15682540617E+03 -0.30954045486E+03  0.35726791701E+03  0.83636540632E+02 0.  0.
          6    2    1    2  502    0  0.84634309034E+02  0.23742747117E+03  0.15925265133E+04  0.16214532959E+04  0.17156726107E+03 0.  0.
         24    2    5    5    0    0  0.80469280896E+02  0.94955646318E+02  0.56648767491E+03  0.58555110163E+03  0.80435855524E+02 0.  0.
          4    1    6    6  501    0  0.58476749369E+02  0.14008125800E+02  0.30730042724E+03  0.31312826507E+03  0.00000000000E+00 0. -1.
         -3    1    6    6    0  501  0.21992531527E+02  0.80947520518E+02  0.25918724768E+03  0.27242283656E+03  0.00000000000E+00 0.  1.
          5    1    5    5  502    0  0.41650281376E+01  0.14247182485E+03  0.10260388383E+04  0.10359021943E+04  0.47000000000E+01 0. -1.
         11    1    4    4    0    0 -0.33716024766E+01  0.10016302638E+02 -0.12509921608E+02  0.16376573525E+02  0.00000000000E+00 0. -1.
        -12    1    4    4    0    0 -0.11983930061E+02 -0.16684170881E+03 -0.29703053325E+03  0.34089134348E+03  0.00000000000E+00 0.  1.
         -5    1    3    3    0  504 -0.69278776496E+02 -0.80602064999E+02 -0.41843321933E+03  0.43174609528E+03  0.47000000000E+01 0.  1.
<mgrwt>
<rscale>  2 0.30475694E+03</rscale>
<asrwt>0</asrwt>
<pdfrwt beam="1">  1       21 0.25192463E+00 0.30490998E+03</pdfrwt>
<pdfrwt beam="2">  1       21 0.11891650E+00 0.30490998E+03</pdfrwt>
<totfact> 0.30106285E+01</totfact>
</mgrwt>
</event>
<event>
12    1  0.2742799E-001  0.2814202E+03  0.7546771E-02  0.1094945E+00
         21   -1    0    0  502  503  0.00000000000E+00  0.00000000000E+00  0.97633002091E+03  0.97633002091E+03  0.00000000000E+00 0.  1.
         21   -1    0    0  503  504 -0.00000000000E+00 -0.00000000000E+00 -0.96474912757E+02  0.96474912757E+02  0.00000000000E+00 0.  1.
         -6    2    1    2    0  504  0.65443095065E+02 -0.21186845645E+03  0.22562380849E+03  0.36069851708E+03  0.17328091566E+03 0.  0.
        -24    2    3    3    0    0  0.11836838158E+02 -0.89244031744E+02  0.34666469811E+02  0.12746649631E+03  0.83314678258E+02 0.  0.
          6    2    1    2  502    0 -0.65443095065E+02  0.21186845645E+03  0.65423129966E+03  0.71210641659E+03  0.17293326331E+03 0.  0.
         24    2    5    5    0    0  0.29468897276E+02  0.96444484777E+02  0.36676847856E+03  0.38808798649E+03  0.76962418385E+02 0.  0.
          2    1    6    6  501    0  0.42133584342E+02  0.24561812602E+02  0.96320633593E+02  0.10796381812E+03  0.00000000000E+00 0. -1.
         -1    1    6    6    0  501 -0.12664687067E+02  0.71882672175E+02  0.27044784496E+03  0.28012416837E+03  0.00000000000E+00 0.  1.
          5    1    5    5  502    0 -0.94911992340E+02  0.11542397168E+03  0.28746282111E+03  0.32401843010E+03  0.47000000000E+01 0. -1.
         11    1    4    4    0    0 -0.27837511169E+02 -0.73055182014E+02  0.32183641499E+02  0.84544505601E+02  0.00000000000E+00 0. -1.
        -12    1    4    4    0    0  0.39674349327E+02 -0.16188849730E+02  0.24828283114E+01  0.42921990710E+02  0.00000000000E+00 0.  1.
         -5    1    3    3    0  504  0.53606256906E+02 -0.12262442471E+03  0.19095733868E+03  0.23323202077E+03  0.47000000000E+01 0.  1.
<mgrwt>
<rscale>  2 0.28136668E+03</rscale>
<asrwt>0</asrwt>
<pdfrwt beam="1">  1       21 0.15020461E+00 0.28142018E+03</pdfrwt>
<pdfrwt beam="2">  1       21 0.14842295E-01 0.28142018E+03</pdfrwt>
<totfact> 0.11262849E+04</totfact>
</mgrwt>
</event>
<event>
12    1  0.2742799E-001  0.2214089E+03  0.7546771E-02  0.1132933E+00
         21   -1    0    0  502  503  0.00000000000E+00  0.00000000000E+00  0.31275930670E+03  0.31275930670E+03  0.00000000000E+00 0. -1.
         21   -1    0    0  503  504 -0.00000000000E+00 -0.00000000000E+00 -0.19919716144E+03  0.19919716144E+03  0.00000000000E+00 0. -1.
         -6    2    1    2    0  504  0.12594852483E+03 -0.54859932248E+02 -0.61957152615E+02  0.22941632134E+03  0.17297547996E+03 0.  0.
        -24    2    3    3    0    0  0.81169456902E+02 -0.90038309574E+02  0.90806841018E+01  0.13825082677E+03  0.65844167197E+02 0.  0.
          6    2    1    2  502    0 -0.12594852483E+03  0.54859932248E+02  0.17551929788E+03  0.28254014680E+03  0.17363544441E+03 0.  0.
         24    2    5    5    0    0 -0.13296638569E+03  0.43673511451E+02  0.59585614158E+02  0.16576217199E+03  0.65872732769E+02 0.  0.
          4    1    6    6  501    0 -0.11227354998E+03  0.52591135378E+02  0.28236412925E+02  0.12715530881E+03  0.00000000000E+00 0. -1.
         -3    1    6    6    0  501 -0.20692835711E+02 -0.89176239261E+01  0.31349201233E+02  0.38606863175E+02  0.00000000000E+00 0.  1.
          5    1    5    5  502    0  0.70178608600E+01  0.11186420796E+02  0.11593368372E+03  0.11677797481E+03  0.47000000000E+01 0. -1.
         11    1    4    4    0    0  0.59933260017E+02 -0.38235232355E+02 -0.21740410214E+02  0.74340931429E+02  0.00000000000E+00 0. -1.
        -12    1    4    4    0    0  0.21236196886E+02 -0.51803077220E+02  0.30821094316E+02  0.63909895340E+02  0.00000000000E+00 0.  1.
         -5    1    3    3    0  504  0.44779067926E+02  0.35178377327E+02 -0.71037836717E+02  0.91165494575E+02  0.47000000000E+01 0.  1.
<mgrwt>
<rscale>  2 0.22127951E+03</rscale>
<asrwt>0</asrwt>
<pdfrwt beam="1">  1       21 0.48116816E-01 0.22140892E+03</pdfrwt>
<pdfrwt beam="2">  1       21 0.30645717E-01 0.22140892E+03</pdfrwt>
<totfact> 0.41593371E+04</totfact>
</mgrwt>
</event>
<event>
12    1  0.2742799E-001  0.1913677E+03  0.7546771E-02  0.1157414E+00
         21   -1    0    0  502  503  0.00000000000E+00  0.00000000000E+00  0.11342369945E+04  0.11342369945E+04  0.00000000000E+00 0.  1.
         21   -1    0    0  503  504 -0.00000000000E+00 -0.00000000000E+00 -0.32287359581E+02  0.32287359581E+02  0.00000000000E+00 0.  1.
         -6    2    1    2    0  504  0.72633406378E+01 -0.82118092938E+02  0.58991362389E+03  0.62017712796E+03  0.17270046059E+03 0.  0.
        -24    2    3    3    0    0 -0.58248941473E+02 -0.32062852174E+02  0.39982243403E+03  0.41292333017E+03  0.78909645631E+02 0.  0.
          6    2    1    2  502    0 -0.72633406378E+01  0.82118092938E+02  0.51203601107E+03  0.54634722616E+03  0.17180884028E+03 0.  0.
         24    2    5    5    0    0  0.62145635389E+02  0.48284133441E+02  0.29993566532E+03  0.32057966996E+03  0.81341772284E+02 0.  0.
          4    1    6    6  501    0  0.17662238778E+02  0.41319971300E+02  0.24713933994E+03  0.25119145697E+03  0.00000000000E+00 0. -1.
         -3    1    6    6    0  501  0.44483396611E+02  0.69641621403E+01  0.52796325383E+02  0.69388212993E+02  0.00000000000E+00 0.  1.
          5    1    5    5  502    0 -0.69408976027E+02  0.33833959497E+02  0.21210034575E+03  0.22576755620E+03  0.47000000000E+01 0. -1.
         13    1    4    4    0    0  0.17177556508E+02 -0.18651502835E+02  0.12928441402E+03  0.13174751122E+03  0.00000000000E+00 0. -1.
        -14    1    4    4    0    0 -0.75426497981E+02 -0.13411349339E+02  0.27053802001E+03  0.28117581895E+03  0.00000000000E+00 0.  1.
         -5    1    3    3    0  504  0.65512282110E+02 -0.50055240763E+02  0.19009118986E+03  0.20725379779E+03  0.47000000000E+01 0.  1.
<mgrwt>
<rscale>  2 0.19116629E+03</rscale>
<asrwt>0</asrwt>
<pdfrwt beam="1">  1       21 0.17449797E+00 0.19136767E+03</pdfrwt>
<pdfrwt beam="2">  1       21 0.49672870E-02 0.19136767E+03</pdfrwt>
<totfact> 0.54036182E+04</totfact>
</mgrwt>
</event>
<event>
12    1  0.2742799E-001  0.2094967E+03  0.7546771E-02  0.1142198E+00
         21   -1    0    0  502  503  0.00000000000E+00  0.00000000000E+00  0.48860399508E+02  0.48860399508E+02  0.00000000000E+00 0. -1.
         21   -1    0    0  503  504 -0.00000000000E+00 -0.00000000000E+00 -0.10188251448E+04  0.10188251448E+04  0.00000000000E+00 0.  1.
         -6    2    1    2    0  504 -0.11300600096E+03 -0.22804594055E+02 -0.67359002144E+03  0.70541645518E+03  0.17492413353E+03 0.  0.
        -24    2    3    3    0    0 -0.80219300302E+02 -0.52303408711E+02 -0.24590834093E+03  0.27544104001E+03  0.78905460392E+02 0.  0.
          6    2    1    2  502    0  0.11300600096E+03  0.22804594055E+02 -0.29637472390E+03  0.36226908917E+03  0.17352380310E+03 0.  0.
         24    2    5    5    0    0  0.84470489761E+02 -0.32934167133E+02 -0.26585933402E+03  0.29245244419E+03  0.81408375608E+02 0.  0.
          2    1    6    6  501    0  0.91489365219E+02 -0.14987737556E+02 -0.25256121538E+03  0.26903922342E+03  0.00000000000E+00 0. -1.
         -1    1    6    6    0  501 -0.70188754572E+01 -0.17946429577E+02 -0.13298118645E+02  0.23413220768E+02  0.00000000000E+00 0.  1.
          5    1    5    5  502    0  0.28535511195E+02  0.55738761187E+02 -0.30515389874E+02  0.69816644986E+02  0.47000000000E+01 0. -1.
         11    1    4    4    0    0 -0.52444745458E+02 -0.48932932617E+02 -0.23450267211E+03  0.24522721392E+03  0.00000000000E+00 0. -1.
        -12    1    4    4    0    0 -0.27774554844E+02 -0.33704760938E+01 -0.11405668823E+02  0.30213826093E+02  0.00000000000E+00 0.  1.
         -5    1    3    3    0  504 -0.32786700655E+02  0.29498814656E+02 -0.42768168051E+03  0.42997541517E+03  0.47000000000E+01 0.  1.
<mgrwt>
<rscale>  2 0.20920411E+03</rscale>
<asrwt>0</asrwt>
<pdfrwt beam="1">  1       21 0.75169847E-02 0.20949668E+03</pdfrwt>
<pdfrwt beam="2">  1       21 0.15674233E+00 0.20949668E+03</pdfrwt>
<totfact> 0.35204534E+04</totfact>
</mgrwt>
</event>
<event>
12    1  0.2742799E-001  0.1921831E+03  0.7546771E-02  0.1156692E+00
         21   -1    0    0  502  503  0.00000000000E+00  0.00000000000E+00  0.39021640916E+02  0.39021640916E+02  0.00000000000E+00 0.  1.
         21   -1    0    0  503  504 -0.00000000000E+00 -0.00000000000E+00 -0.13583135328E+04  0.13583135328E+04  0.00000000000E+00 0.  1.
         -6    2    1    2    0  504  0.81154912594E+02 -0.17434608122E+02 -0.10452509605E+04  0.10626221980E+04  0.17241310775E+03 0.  0.
        -24    2    3    3    0    0  0.98182985562E+02 -0.12978103804E+02 -0.47872131283E+03  0.49579969715E+03  0.82673541786E+02 0.  0.
          6    2    1    2  502    0 -0.81154912594E+02  0.17434608122E+02 -0.27404093138E+03  0.33471297578E+03  0.17333279748E+03 0.  0.
         24    2    5    5    0    0 -0.42557735695E+02  0.46723351821E+02 -0.67656596929E+02  0.12266544318E+03  0.80468399826E+02 0.  0.
          4    1    6    6  501    0 -0.23087519430E+02  0.68497252780E+02 -0.40894623892E+02  0.83049849218E+02  0.00000000000E+00 0. -1.
         -3    1    6    6    0  501 -0.19470216266E+02 -0.21773900959E+02 -0.26761973037E+02  0.39615593966E+02  0.00000000000E+00 0.  1.
          5    1    5    5  502    0 -0.38597176898E+02 -0.29288743699E+02 -0.20638433445E+03  0.21204753259E+03  0.47000000000E+01 0. -1.
         11    1    4    4    0    0  0.23382614480E+02  0.67084732320E+01 -0.22722877267E+02  0.33287826969E+02  0.00000000000E+00 0. -1.
        -12    1    4    4    0    0  0.74800371082E+02 -0.19686577036E+02 -0.45599843556E+03  0.46251187019E+03  0.00000000000E+00 0.  1.
         -5    1    3    3    0  504 -0.17028072968E+02 -0.44565043179E+01 -0.56652964772E+03  0.56682250083E+03  0.47000000000E+01 0.  1.
<mgrwt>
<rscale>  2 0.19197550E+03</rscale>
<asrwt>0</asrwt>
<pdfrwt beam="1">  1       21 0.60033301E-02 0.19218310E+03</pdfrwt>
<pdfrwt beam="2">  1       21 0.20897129E+00 0.19218310E+03</pdfrwt>
<totfact> 0.23209665E+04</totfact>
</mgrwt>
</event>
<event>
12    1  0.2742799E-001  0.3119770E+03  0.7546771E-02  0.1079576E+00
         21   -1    0    0  502  503  0.00000000000E+00  0.00000000000E+00  0.28739595057E+03  0.28739595057E+03  0.00000000000E+00 0.  1.
         21   -1    0    0  503  504 -0.00000000000E+00 -0.00000000000E+00 -0.58550049579E+03  0.58550049579E+03  0.00000000000E+00 0. -1.
         -6    2    1    2    0  504  0.25384796977E+03 -0.53960698096E+02 -0.43314175093E+03  0.53294832392E+03  0.17050393213E+03 0.  0.
        -24    2    3    3    0    0  0.13340669812E+03  0.15518138222E+02 -0.31704691803E+03  0.35174813397E+03  0.71901611937E+02 0.  0.
          6    2    1    2  502    0 -0.25384796977E+03  0.53960698096E+02  0.13503720572E+03  0.33994812243E+03  0.17314482470E+03 0.  0.
         24    2    5    5    0    0 -0.63289023378E+02  0.54692881638E+02  0.81584316432E+02  0.14197703990E+03  0.80651518215E+02 0.  0.
          2    1    6    6  501    0  0.80526908719E+00  0.50016257364E+02  0.23157874019E+02  0.55123149294E+02  0.00000000000E+00 0. -1.
         -1    1    6    6    0  501 -0.64094292466E+02  0.46766242739E+01  0.58426442412E+02  0.86853890611E+02  0.00000000000E+00 0.  1.
          5    1    5    5  502    0 -0.19055894640E+03 -0.73218354165E+00  0.53452889286E+02  0.19797108253E+03  0.47000000000E+01 0. -1.
         13    1    4    4    0    0  0.81490552948E+02 -0.25478272529E+02 -0.19639202166E+03  0.21414873047E+03  0.00000000000E+00 0. -1.
        -14    1    4    4    0    0  0.51916145175E+02  0.40996410751E+02 -0.12065489637E+03  0.13759940350E+03  0.00000000000E+00 0.  1.
         -5    1    3    3    0  504  0.12044127165E+03 -0.69478836318E+02 -0.11609483290E+03  0.18120018996E+03  0.47000000000E+01 0.  1.
<mgrwt>
<rscale>  2 0.31161193E+03</rscale>
<asrwt>0</asrwt>
<pdfrwt beam="1">  1       21 0.44214762E-01 0.31197705E+03</pdfrwt>
<pdfrwt beam="2">  1       21 0.90076998E-01 0.31197705E+03</pdfrwt>
<totfact> 0.47789923E+03</totfact>
</mgrwt>
</event>
<event>
12    1  0.2742799E-001  0.2185036E+03  0.7546771E-02  0.1135266E+00
         21   -1    0    0  502  503  0.00000000000E+00  0.00000000000E+00  0.68805691592E+02  0.68805691592E+02  0.00000000000E+00 0. -1.
         21   -1    0    0  503  504 -0.00000000000E+00 -0.00000000000E+00 -0.15136465649E+04  0.15136465649E+04  0.00000000000E+00 0.  1.
         -6    2    1    2    0  504 -0.13038733724E+03  0.37072533729E+02 -0.13753244813E+03  0.25700925336E+03  0.16959761660E+03 0.  0.
        -24    2    3    3    0    0 -0.67733508950E+02  0.18718526425E+02 -0.15467918629E+03  0.18934484313E+03  0.83591910369E+02 0.  0.
          6    2    1    2  502    0  0.13038733724E+03 -0.37072533729E+02 -0.13073084251E+04  0.13254430031E+04  0.17137270942E+03 0.  0.
         24    2    5    5    0    0  0.20253059642E+02 -0.67785968100E+02 -0.70798857717E+03  0.71529609920E+03  0.73454477313E+02 0.  0.
          4    1    6    6  501    0 -0.57253034557E+01 -0.55041030448E+02 -0.23517762196E+03  0.24160051325E+03  0.00000000000E+00 0. -1.
         -3    1    6    6    0  501  0.25978363097E+02 -0.12744937653E+02 -0.47281095521E+03  0.47369558595E+03  0.00000000000E+00 0.  1.
          5    1    5    5  502    0  0.11013427760E+03  0.30713434371E+02 -0.59931984796E+03  0.61014690388E+03  0.47000000000E+01 0. -1.
         11    1    4    4    0    0 -0.42663909434E+02  0.40008562355E+00 -0.13439224667E+02  0.44732337256E+02  0.00000000000E+00 0. -1.
        -12    1    4    4    0    0 -0.25069599516E+02  0.18318440802E+02 -0.14123996163E+03  0.14461250587E+03  0.00000000000E+00 0.  1.
         -5    1    3    3    0  504 -0.62653828286E+02  0.18354007304E+02  0.17146738165E+02  0.67664410237E+02  0.47000000000E+01 0.  1.
<mgrwt>
<rscale>  2 0.21815544E+03</rscale>
<asrwt>0</asrwt>
<pdfrwt beam="1">  1       21 0.10585491E-01 0.21850363E+03</pdfrwt>
<pdfrwt beam="2">  1       21 0.23286870E+00 0.21850363E+03</pdfrwt>
<totfact> 0.60193910E+03</totfact>
</mgrwt>
</event>
<event>
12    1  0.2742799E-001  0.2428790E+03  0.7546771E-02  0.1117979E+00
         21   -1    0    0  502  503  0.00000000000E+00  0.00000000000E+00  0.11328428522E+03  0.11328428522E+03  0.00000000000E+00 0.  1.
         21   -1    0    0  503  504 -0.00000000000E+00 -0.00000000000E+00 -0.52476313832E+03  0.52476313832E+03  0.00000000000E+00 0. -1.
         -6    2    1    2    0  504  0.14449350697E+03 -0.89925211351E+02 -0.17420795568E+03  0.29889564640E+03  0.17327803792E+03 0.  0.
        -24    2    3    3    0    0  0.16099270595E+03 -0.11185690261E+03 -0.16765419055E+03  0.27029032371E+03  0.80736072807E+02 0.  0.
          6    2    1    2  502    0 -0.14449350697E+03  0.89925211351E+02 -0.23727089743E+03  0.33915177714E+03  0.17251530940E+03 0.  0.
         24    2    5    5    0    0 -0.11626283471E+03  0.86430176659E+02 -0.88251857072E+02  0.18736920069E+03  0.79571382550E+02 0.  0.
          4    1    6    6  501    0 -0.65067184445E+02  0.78449563773E+02 -0.23784061745E+02  0.10466018412E+03  0.00000000000E+00 0. -1.
         -3    1    6    6    0  501 -0.51195650260E+02  0.79806128863E+01 -0.64467795327E+02  0.82709016569E+02  0.00000000000E+00 0.  1.
          5    1    5    5  502    0 -0.28230672262E+02  0.34950346919E+01 -0.14901904036E+03  0.15178257645E+03  0.47000000000E+01 0. -1.
         13    1    4    4    0    0  0.11511635881E+03 -0.31979418853E+02 -0.86177385126E+02  0.14731259622E+03  0.00000000000E+00 0. -1.
        -14    1    4    4    0    0  0.45876347141E+02 -0.79877483760E+02 -0.81476805419E+02  0.12297772750E+03  0.00000000000E+00 0.  1.
         -5    1    3    3    0  504 -0.16499198988E+02  0.21931691261E+02 -0.65537651342E+01  0.28605322691E+02  0.47000000000E+01 0.  1.
<mgrwt>
<rscale>  2 0.24274297E+03</rscale>
<asrwt>0</asrwt>
<pdfrwt beam="1">  1       21 0.17428352E-01 0.24287897E+03</pdfrwt>
<pdfrwt beam="2">  1       21 0.80732790E-01 0.24287897E+03</pdfrwt>
<totfact> 0.39174499E+04</totfact>
</mgrwt>
</event>
<event>
12    1  0.2742799E-001  0.2067425E+03  0.7546771E-02  0.1144290E+00
         21   -1    0    0  502  503  0.00000000000E+00  0.00000000000E+00  0.17134545468E+03  0.17134545468E+03  0.00000000000E+00 0.  1.
         21   -1    0    0  503  504 -0.00000000000E+00 -0.00000000000E+00 -0.39158972648E+03  0.39158972648E+03  0.00000000000E+00 0.  1.
         -6    2    1    2    0  504 -0.30004459912E+02  0.10826821780E+03  0.59775475621E+02  0.21521056307E+03  0.17355173399E+03 0.  0.
        -24    2    3    3    0    0 -0.42387816056E+01  0.90623648646E+01 -0.20313981306E+02  0.85048807755E+02  0.81978949356E+02 0.  0.
          6    2    1    2  502    0  0.30004459912E+02 -0.10826821780E+03 -0.28001974742E+03  0.34772461810E+03  0.17285565216E+03 0.  0.
         24    2    5    5    0    0  0.82362845028E+02 -0.10386142496E+03 -0.18605660384E+03  0.23996570818E+03  0.73455070847E+02 0.  0.
          4    1    6    6  501    0  0.83842316239E+02 -0.53838192185E+02 -0.14081667711E+03  0.17250339557E+03  0.00000000000E+00 0. -1.
         -3    1    6    6    0  501 -0.14794712108E+01 -0.50023232774E+02 -0.45239926734E+02  0.67462312614E+02  0.00000000000E+00 0.  1.
          5    1    5    5  502    0 -0.52358385116E+02 -0.44067928374E+01 -0.93963143578E+02  0.10775890991E+03  0.47000000000E+01 0. -1.
         13    1    4    4    0    0 -0.21331057290E+02  0.40948818275E+02 -0.81872691108E+01  0.46891908670E+02  0.00000000000E+00 0. -1.
        -14    1    4    4    0    0  0.17092275684E+02 -0.31886453410E+02 -0.12126712195E+02  0.38156899085E+02  0.00000000000E+00 0.  1.
         -5    1    3    3    0  504 -0.25765678307E+02  0.99205852932E+02  0.80089456928E+02  0.13016175531E+03  0.47000000000E+01 0.  1.
<mgrwt>
<rscale>  2 0.20659639E+03</rscale>
<asrwt>0</asrwt>
<pdfrwt beam="1">  1       21 0.26360840E-01 0.20674254E+03</pdfrwt>
<pdfrwt beam="2">  1       21 0.60244572E-01 0.20674254E+03</pdfrwt>
<totfact> 0.34890038E+04</totfact>
</mgrwt>
</event>
<event>
12    1  0.2742799E-001  0.1817511E+03  0.7546771E-02  0.1166413E+00
         21   -1    0    0  502  503  0.00000000000E+00  0.00000000000E+00  0.30151568165E+03  0.30151568165E+03  0.00000000000E+00 0.  1.
         21   -1    0    0  503  504 -0.00000000000E+00 -0.00000000000E+00 -0.12207898911E+03  0.12207898911E+03  0.00000000000E+00 0. -1.
         -6    2    1    2    0  504 -0.57480835004E+02  0.15937901565E+01  0.20191060686E+02  0.18286914366E+03  0.17241478536E+03 0.  0.
        -24    2    3    3    0    0 -0.89014358066E+02 -0.36524030197E+02  0.37043722202E+02  0.13039597427E+03  0.79833025925E+02 0.  0.
          6    2    1    2  502    0  0.57480835004E+02 -0.15937901565E+01  0.15924563186E+03  0.24072552710E+03  0.17112282598E+03 0.  0.
         24    2    5    5    0    0 -0.71157355996E+01 -0.10011141202E+02  0.15599002939E+03  0.17533242593E+03  0.79105712016E+02 0.  0.
          2    1    6    6  501    0  0.20519263356E+02  0.13780410779E+02  0.13323712624E+02  0.28079551421E+02  0.00000000000E+00 0. -1.
         -1    1    6    6    0  501 -0.27634998955E+02 -0.23791551981E+02  0.14266631676E+03  0.14725287451E+03  0.00000000000E+00 0.  1.
          5    1    5    5  502    0  0.64596570603E+02  0.84173510455E+01  0.32556024690E+01  0.65393101163E+02  0.47000000000E+01 0. -1.
         11    1    4    4    0    0 -0.91502461283E+01 -0.24251200397E+02 -0.18933545050E+02  0.32098704851E+02  0.00000000000E+00 0. -1.
        -12    1    4    4    0    0 -0.79864111937E+02 -0.12272829800E+02  0.55977267253E+02  0.98297269422E+02  0.00000000000E+00 0.  1.
         -5    1    3    3    0  504  0.31533523062E+02  0.38117820354E+02 -0.16852661516E+02  0.52473169386E+02  0.47000000000E+01 0.  1.
<mgrwt>
<rscale>  2 0.18144399E+03</rscale>
<asrwt>0</asrwt>
<pdfrwt beam="1">  1       21 0.46387028E-01 0.18175105E+03</pdfrwt>
<pdfrwt beam="2">  1       21 0.18781383E-01 0.18175105E+03</pdfrwt>
<totfact> 0.11597288E+05</totfact>
</mgrwt>
</event>
<event>
12    1  0.2742799E-001  0.1775986E+03  0.7546771E-02  0.1170327E+00
         21   -1    0    0  502  503  0.00000000000E+00  0.00000000000E+00  0.78857613688E+03  0.78857613688E+03  0.00000000000E+00 0.  1.
         21   -1    0    0  503  504 -0.00000000000E+00 -0.00000000000E+00 -0.52978227826E+02  0.52978227826E+02  0.00000000000E+00 0.  1.
         -6    2    1    2    0  504  0.35805459794E+02 -0.90634339860E+01  0.15764148022E+03  0.23692646428E+03  0.17297149014E+03 0.  0.
        -24    2    3    3    0    0 -0.26072536235E+02  0.22715664055E+02  0.13968323596E+03  0.16493072828E+03  0.80591315797E+02 0.  0.
          6    2    1    2  502    0 -0.35805459794E+02  0.90634339860E+01  0.57795642883E+03  0.60462790043E+03  0.17371553634E+03 0.  0.
         24    2    5    5    0    0 -0.75736132194E+02  0.39247426702E+02  0.29851389528E+03  0.32069876918E+03  0.80379304899E+02 0.  0.
          4    1    6    6  501    0 -0.47501705575E+02  0.40777989333E+02  0.27997116930E+03  0.28688518973E+03  0.00000000000E+00 0. -1.
         -3    1    6    6    0  501 -0.28234426620E+02 -0.15305626308E+01  0.18542725978E+02  0.33813579450E+02  0.00000000000E+00 0.  1.
          5    1    5    5  502    0  0.39930672400E+02 -0.30183992716E+02  0.27944253355E+03  0.28392913125E+03  0.47000000000E+01 0. -1.
         13    1    4    4    0    0 -0.64365275490E+01  0.36337614318E+02  0.18252081073E+02  0.41170250968E+02  0.00000000000E+00 0. -1.
        -14    1    4    4    0    0 -0.19636008686E+02 -0.13621950264E+02  0.12143115489E+03  0.12376047731E+03  0.00000000000E+00 0.  1.
         -5    1    3    3    0  504  0.61877996029E+02 -0.31779098041E+02  0.17958244259E+02  0.71995735997E+02  0.47000000000E+01 0.  1.
<mgrwt>
<rscale>  2 0.17741640E+03</rscale>
<asrwt>0</asrwt>
<pdfrwt beam="1">  1       21 0.12131940E+00 0.17759860E+03</pdfrwt>
<pdfrwt beam="2">  1       21 0.81504972E-02 0.17759860E+03</pdfrwt>
<totfact> 0.60156783E+04</totfact>
</mgrwt>
</event>
<event>
12    1  0.2742799E-001  0.2483835E+03  0.7546771E-02  0.1114612E+00
         21   -1    0    0  502  503  0.00000000000E+00  0.00000000000E+00  0.10469832054E+03  0.10469832054E+03  0.00000000000E+00 0.  1.
         21   -1    0    0  503  504 -0.00000000000E+00 -0.00000000000E+00 -0.66215829156E+03  0.66215829156E+03  0.00000000000E+00 0.  1.
         -6    2    1    2    0  504 -0.11367234691E+03 -0.13519000459E+03 -0.40866566943E+03  0.47731544037E+03  0.17211815839E+03 0.  0.
        -24    2    3    3    0    0 -0.13407609565E+03 -0.72546711241E+02 -0.23301068836E+03  0.28965282412E+03  0.79783161708E+02 0.  0.
          6    2    1    2  502    0  0.11367234691E+03  0.13519000459E+03 -0.14879430159E+03  0.28954117174E+03  0.17463277514E+03 0.  0.
         24    2    5    5    0    0  0.14161827018E+03  0.14384063532E+03 -0.12500881691E+03  0.25154581254E+03  0.83079652643E+02 0.  0.
          4    1    6    6  501    0  0.40768114676E+02  0.60129563612E+01 -0.50595729413E+02  0.65254292221E+02  0.00000000000E+00 0. -1.
         -3    1    6    6    0  501  0.10085015550E+03  0.13782767896E+03 -0.74413087499E+02  0.18629152032E+03  0.00000000000E+00 0.  1.
          5    1    5    5  502    0 -0.27945923267E+02 -0.86506307309E+01 -0.23785484679E+02  0.37995359200E+02  0.47000000000E+01 0. -1.
         13    1    4    4    0    0 -0.10757978065E+03 -0.15896344758E+02 -0.16085300315E+03  0.19416434175E+03  0.00000000000E+00 0. -1.
        -14    1    4    4    0    0 -0.26496314994E+02 -0.56650366483E+02 -0.72157685210E+02  0.95488482373E+02  0.00000000000E+00 0.  1.
         -5    1    3    3    0  504  0.20403748733E+02 -0.62643293345E+02 -0.17565498107E+03  0.18766261625E+03  0.47000000000E+01 0.  1.
<mgrwt>
<rscale>  2 0.24794192E+03</rscale>
<asrwt>0</asrwt>
<pdfrwt beam="1">  1       21 0.16107433E-01 0.24838347E+03</pdfrwt>
<pdfrwt beam="2">  1       21 0.10187051E+00 0.24838347E+03</pdfrwt>
<totfact> 0.26256044E+04</totfact>
</mgrwt>
</event>
<event>
12    1  0.2742799E-001  0.1822343E+03  0.7546771E-02  0.1165859E+00
         21   -1    0    0  502  503  0.00000000000E+00  0.00000000000E+00  0.74034724143E+03  0.74034724143E+03  0.00000000000E+00 0.  1.
         21   -1    0    0  503  504 -0.00000000000E+00 -0.00000000000E+00 -0.52627019547E+02  0.52627019547E+02  0.00000000000E+00 0.  1.
         -6    2    1    2    0  504 -0.53810388889E+02 -0.16646072799E+02  0.19016656710E+03  0.26338693191E+03  0.17331100071E+03 0.  0.
        -24    2    3    3    0    0 -0.11001711176E+02 -0.73526709720E+02  0.92746913302E+02  0.14263649220E+03  0.78841386908E+02 0.  0.
          6    2    1    2  502    0  0.53810388889E+02  0.16646072799E+02  0.49755365479E+03  0.52958732907E+03  0.17242520125E+03 0.  0.
         24    2    5    5    0    0  0.87018879150E+02 -0.12940737315E+02  0.24157115174E+03  0.26972714546E+03  0.81586540771E+02 0.  0.
          4    1    6    6  501    0  0.18433086043E+02 -0.30978852447E+02  0.31033609273E+02  0.47566299672E+02  0.00000000000E+00 0. -1.
         -3    1    6    6    0  501  0.68585793107E+02  0.18038115133E+02  0.21053754247E+03  0.22216084579E+03  0.00000000000E+00 0.  1.
          5    1    5    5  502    0 -0.33208490261E+02  0.29586810113E+02  0.25598250305E+03  0.25986018361E+03  0.47000000000E+01 0. -1.
         13    1    4    4    0    0  0.29933026224E+02 -0.56683017110E+02  0.54984227076E+02  0.84452446470E+02  0.00000000000E+00 0. -1.
        -14    1    4    4    0    0 -0.40934737400E+02 -0.16843692610E+02  0.37762686226E+02  0.58184045732E+02  0.00000000000E+00 0.  1.
         -5    1    3    3    0  504 -0.42808677713E+02  0.56880636921E+02  0.97419653794E+02  0.12075043971E+03  0.47000000000E+01 0.  1.
<mgrwt>
<rscale>  2 0.18202341E+03</rscale>
<asrwt>0</asrwt>
<pdfrwt beam="1">  1       21 0.11389957E+00 0.18223433E+03</pdfrwt>
<pdfrwt beam="2">  1       21 0.80964651E-02 0.18223433E+03</pdfrwt>
<totfact> 0.70876540E+04</totfact>
</mgrwt>
</event>
<event>
12    1  0.2742799E-001  0.1941065E+03  0.7546771E-02  0.1154815E+00
         21   -1    0    0  502  503  0.00000000000E+00  0.00000000000E+00  0.37472016843E+03  0.37472016843E+03  0.00000000000E+00 0. -1.
         21   -1    0    0  503  504 -0.00000000000E+00 -0.00000000000E+00 -0.12093290301E+03  0.12093290301E+03  0.00000000000E+00 0.  1.
         -6    2    1    2    0  504 -0.32458165393E+01 -0.88659354487E+02  0.22868712720E+03  0.29995858450E+03  0.17264510942E+03 0.  0.
        -24    2    3    3    0    0 -0.59426023782E+02 -0.34798111938E+02  0.17726029117E+03  0.20655591538E+03  0.80633581446E+02 0.  0.
          6    2    1    2  502    0  0.32458165393E+01  0.88659354487E+02  0.25100138216E+02  0.19569448694E+03  0.17261314787E+03 0.  0.
         24    2    5    5    0    0  0.31267930308E+02  0.10558550009E+03  0.58491492295E+02  0.14869655303E+03  0.81014991917E+02 0.  0.
          2    1    6    6  501    0  0.15865875219E+02  0.19773031929E+02  0.56006920462E+02  0.61477426164E+02  0.00000000000E+00 0. -1.
         -1    1    6    6    0  501  0.15402055089E+02  0.85812468165E+02  0.24845718334E+01  0.87219126863E+02  0.00000000000E+00 0.  1.
          5    1    5    5  502    0 -0.28022113768E+02 -0.16926145607E+02 -0.33391354079E+02  0.46997933916E+02  0.47000000000E+01 0. -1.
         13    1    4    4    0    0 -0.98511934905E+01 -0.29304106681E+02  0.14236436208E+03  0.14568249130E+03  0.00000000000E+00 0. -1.
        -14    1    4    4    0    0 -0.49574830292E+02 -0.54940052564E+01  0.34895929089E+02  0.60873424080E+02  0.00000000000E+00 0.  1.
         -5    1    3    3    0  504  0.56180207243E+02 -0.53861242549E+02  0.51426836029E+02  0.93402669120E+02  0.47000000000E+01 0.  1.
<mgrwt>
<rscale>  2 0.19409944E+03</rscale>
<asrwt>0</asrwt>
<pdfrwt beam="1">  1       21 0.57649256E-01 0.19410654E+03</pdfrwt>
<pdfrwt beam="2">  1       21 0.18605062E-01 0.19410654E+03</pdfrwt>
<totfact> 0.74497424E+04</totfact>
</mgrwt>
</event>
<event>
12    1  0.2742799E-001  0.1767022E+03  0.7546771E-02  0.1171270E+00
         21   -1    0    0  502  503  0.00000000000E+00  0.00000000000E+00  0.30509245581E+03  0.30509245581E+03  0.00000000000E+00 0.  1.
         21   -1    0    0  503  504 -0.00000000000E+00 -0.00000000000E+00 -0.12783698165E+03  0.12783698165E+03  0.00000000000E+00 0.  1.
         -6    2    1    2    0  504 -0.26201636172E+02 -0.42617511450E+02 -0.88895459852E+01  0.17692569786E+03  0.16947241816E+03 0.  0.
        -24    2    3    3    0    0  0.33088387025E+02  0.20515432438E+02  0.34054321149E+01  0.89322433417E+02  0.80319212021E+02 0.  0.
          6    2    1    2  502    0  0.26201636172E+02  0.42617511450E+02  0.18614502015E+03  0.25600373960E+03  0.16847898427E+03 0.  0.
         24    2    5    5    0    0  0.31110211104E+02  0.52014158852E+02  0.20777188270E+03  0.23146392962E+03  0.82055332064E+02 0.  0.
          4    1    6    6  501    0  0.39112812632E+02  0.46480022201E+02  0.67323286703E+02  0.90678715851E+02  0.00000000000E+00 0. -1.
         -3    1    6    6    0  501 -0.80026015283E+01  0.55341366512E+01  0.14044859599E+03  0.14078521377E+03  0.00000000000E+00 0.  1.
          5    1    5    5  502    0 -0.49085749322E+01 -0.93966474023E+01 -0.21626862545E+02  0.24539809979E+02  0.47000000000E+01 0. -1.
         13    1    4    4    0    0  0.47928354220E+02 -0.14884501647E+02 -0.35536502720E+01  0.50312065727E+02  0.00000000000E+00 0. -1.
        -14    1    4    4    0    0 -0.14839967195E+02  0.35399934086E+02  0.69590823869E+01  0.39010367690E+02  0.00000000000E+00 0.  1.
         -5    1    3    3    0  504 -0.59290023197E+02 -0.63132943888E+02 -0.12294978100E+02  0.87603264444E+02  0.47000000000E+01 0.  1.
<mgrwt>
<rscale>  2 0.17646361E+03</rscale>
<asrwt>0</asrwt>
<pdfrwt beam="1">  1       21 0.46937301E-01 0.17670223E+03</pdfrwt>
<pdfrwt beam="2">  1       21 0.19667228E-01 0.17670223E+03</pdfrwt>
<totfact> 0.10409758E+05</totfact>
</mgrwt>
</event>
<event>
12    1  0.2742799E-001  0.2167024E+03  0.7546771E-02  0.1136576E+00
         21   -1    0    0  502  503  0.00000000000E+00  0.00000000000E+00  0.21023938457E+04  0.21023938457E+04  0.00000000000E+00 0. -1.
         21   -1    0    0  503  504 -0.00000000000E+00 -0.00000000000E+00 -0.28791926071E+02  0.28791926071E+02  0.00000000000E+00 0. -1.
         -6    2    1    2    0  504  0.63360025920E+02 -0.11299830113E+03  0.52985307054E+03  0.57245456164E+03  0.17371482332E+03 0.  0.
        -24    2    3    3    0    0  0.82464551840E+02 -0.75012139542E+02  0.21768686543E+03  0.25737082517E+03  0.80155766323E+02 0.  0.
          6    2    1    2  502    0 -0.63360025920E+02  0.11299830113E+03  0.15437488491E+04  0.15587312101E+04  0.17233504408E+03 0.  0.
         24    2    5    5    0    0 -0.59667562826E+02  0.27771227869E+02  0.12012578178E+04  0.12057446880E+04  0.80426666141E+02 0.  0.
          4    1    6    6  501    0 -0.73719531770E+02  0.41228600479E+02  0.97823726057E+03  0.98187703142E+03  0.00000000000E+00 0. -1.
         -3    1    6    6    0  501  0.14051968943E+02 -0.13457372610E+02  0.22302055725E+03  0.22386765658E+03  0.00000000000E+00 0.  1.
          5    1    5    5  502    0 -0.36924630935E+01  0.85227073263E+02  0.34249103126E+03  0.35298652212E+03  0.47000000000E+01 0. -1.
         13    1    4    4    0    0  0.71130617627E+02 -0.91866668516E+02  0.19437075925E+03  0.22644876153E+03  0.00000000000E+00 0. -1.
        -14    1    4    4    0    0  0.11333934213E+02  0.16854528975E+02  0.23316106183E+02  0.30922063632E+02  0.00000000000E+00 0.  1.
         -5    1    3    3    0  504 -0.19104525920E+02 -0.37986161591E+02  0.31216620510E+03  0.31508373648E+03  0.47000000000E+01 0.  1.
<mgrwt>
<rscale>  2 0.21642579E+03</rscale>
<asrwt>0</asrwt>
<pdfrwt beam="1">  1       21 0.32344509E+00 0.21670244E+03</pdfrwt>
<pdfrwt beam="2">  1       21 0.44295287E-02 0.21670244E+03</pdfrwt>
<totfact> 0.80364552E+03</totfact>
</mgrwt>
</event>
<event>
12    1  0.2742799E-001  0.2598611E+03  0.7546771E-02  0.1107312E+00
         21   -1    0    0  502  503  0.00000000000E+00  0.00000000000E+00  0.13256744311E+03  0.13256744311E+03  0.00000000000E+00 0. -1.
         21   -1    0    0  503  504 -0.00000000000E+00 -0.00000000000E+00 -0.10338432136E+04  0.10338432136E+04  0.00000000000E+00 0. -1.
         -6    2    1    2    0  504 -0.19241758127E+03  0.21126577903E+02 -0.86670568109E+03  0.90482403502E+03  0.17336937113E+03 0.  0.
        -24    2    3    3    0    0 -0.62479704445E+02  0.54393639075E+02 -0.28121670092E+03  0.30414942669E+03  0.81004070524E+02 0.  0.
          6    2    1    2  502    0  0.19241758127E+03 -0.21126577903E+02 -0.34570089415E+02  0.26158662170E+03  0.17251554045E+03 0.  0.
         24    2    5    5    0    0  0.34667332595E+02 -0.50450030864E+02 -0.13634628910E+02  0.99705834219E+02  0.77513358258E+02 0.  0.
          2    1    6    6  501    0  0.41877392034E+02 -0.15290723459E+02 -0.36098978182E+02  0.57364260766E+02  0.00000000000E+00 0. -1.
         -1    1    6    6    0  501 -0.72100594386E+01 -0.35159307405E+02  0.22464349271E+02  0.42341573453E+02  0.00000000000E+00 0.  1.
          5    1    5    5  502    0  0.15775024867E+03  0.29323452961E+02 -0.20935460505E+02  0.16188078748E+03  0.47000000000E+01 0. -1.
         13    1    4    4    0    0 -0.28350596776E+02  0.54502641264E+02 -0.25150303156E+03  0.25889779668E+03  0.00000000000E+00 0. -1.
        -14    1    4    4    0    0 -0.34129107669E+02 -0.10900218959E+00 -0.29713669357E+02  0.45251630009E+02  0.00000000000E+00 0.  1.
         -5    1    3    3    0  504 -0.12993787682E+03 -0.33267061171E+02 -0.58548898017E+03  0.60067460833E+03  0.47000000000E+01 0.  1.
<mgrwt>
<rscale>  2 0.25971878E+03</rscale>
<asrwt>0</asrwt>
<pdfrwt beam="1">  1       21 0.20394991E-01 0.25986111E+03</pdfrwt>
<pdfrwt beam="2">  1       21 0.15905280E+00 0.25986111E+03</pdfrwt>
<totfact> 0.54142656E+03</totfact>
</mgrwt>
</event>
<event>
12    1  0.2742799E-001  0.2018010E+03  0.7546771E-02  0.1149806E+00
         21   -1    0    0  502  503  0.00000000000E+00  0.00000000000E+00  0.47326859510E+02  0.47326859510E+02  0.00000000000E+00 0. -1.
         21   -1    0    0  503  504 -0.00000000000E+00 -0.00000000000E+00 -0.83311753651E+03  0.83311753651E+03  0.00000000000E+00 0.  1.
         -6    2    1    2    0  504  0.14617546901E+02  0.85821284801E+02 -0.43059653932E+03  0.47553864733E+03  0.18205674892E+03 0.  0.
        -24    2    3    3    0    0 -0.60062523694E+02  0.75585268839E+02 -0.26508720938E+03  0.29361196631E+03  0.81339526490E+02 0.  0.
          6    2    1    2  502    0 -0.14617546901E+02 -0.85821284801E+02 -0.35519413767E+03  0.40490574868E+03  0.17380110551E+03 0.  0.
         24    2    5    5    0    0  0.49182159890E+02 -0.69780046392E+02 -0.28766097459E+03  0.31051008124E+03  0.79871988355E+02 0.  0.
          2    1    6    6  501    0  0.64468593753E+02 -0.74786669166E+02 -0.22305780264E+03  0.24393447642E+03  0.00000000000E+00 0. -1.
         -1    1    6    6    0  501 -0.15286433863E+02  0.50066227732E+01 -0.64603171948E+02  0.66575604823E+02  0.00000000000E+00 0.  1.
          5    1    5    5  502    0 -0.63799706790E+02 -0.16041238409E+02 -0.67533163081E+02  0.94395667443E+02  0.47000000000E+01 0. -1.
         13    1    4    4    0    0  0.69644091395E+01  0.32219589425E+02 -0.27361971369E+02  0.42840196248E+02  0.00000000000E+00 0. -1.
        -14    1    4    4    0    0 -0.67026932834E+02  0.43365679414E+02 -0.23772523801E+03  0.25077177007E+03  0.00000000000E+00 0.  1.
         -5    1    3    3    0  504  0.74680070595E+02  0.10236015962E+02 -0.16550932995E+03  0.18192668102E+03  0.47000000000E+01 0.  1.
<mgrwt>
<rscale>  2 0.19992103E+03</rscale>
<asrwt>0</asrwt>
<pdfrwt beam="1">  1       21 0.72810546E-02 0.20180095E+03</pdfrwt>
<pdfrwt beam="2">  1       21 0.12817194E+00 0.20180095E+03</pdfrwt>
<totfact> 0.63004118E+04</totfact>
</mgrwt>
</event>
<event>
12    1  0.2742799E-001  0.2645828E+03  0.7546771E-02  0.1108179E+00
         21   -1    0    0  502  503  0.00000000000E+00  0.00000000000E+00  0.42084721145E+03  0.42084721145E+03  0.00000000000E+00 0.  1.
         21   -1    0    0  503  504 -0.00000000000E+00 -0.00000000000E+00 -0.22382881718E+03  0.22382881718E+03  0.00000000000E+00 0.  1.
         -6    2    1    2    0  504 -0.17695418080E+03  0.33358271691E+02 -0.81489944069E+02  0.27684771153E+03  0.19385171653E+03 0.  0.
        -24    2    3    3    0    0 -0.11836994027E+03  0.43244843438E+02  0.27927958711E+02  0.15225146364E+03  0.80740188626E+02 0.  0.
          6    2    1    2  502    0  0.17695418080E+03 -0.33358271691E+02  0.27850833834E+03  0.36782831710E+03  0.15907614512E+03 0.  0.
         24    2    5    5    0    0  0.14492886496E+03 -0.17603443450E+02  0.12075500646E+03  0.20601966719E+03  0.80920174036E+02 0.  0.
          4    1    6    6  501    0  0.68208679583E+02  0.26788721002E+02  0.30067583888E+02  0.79209337481E+02  0.00000000000E+00 0. -1.
         -3    1    6    6    0  501  0.76720185372E+02 -0.44392164452E+02  0.90687422574E+02  0.12681032971E+03  0.00000000000E+00 0.  1.
          5    1    5    5  502    0  0.32025315844E+02 -0.15754828241E+02  0.15775333188E+03  0.16180864991E+03  0.47000000000E+01 0. -1.
         13    1    4    4    0    0 -0.13159349667E+01  0.14001383159E+02  0.28297388551E+02  0.31599250213E+02  0.00000000000E+00 0. -1.
        -14    1    4    4    0    0 -0.11705400530E+03  0.29243460279E+02 -0.36942983955E+00  0.12065221343E+03  0.00000000000E+00 0.  1.
         -5    1    3    3    0  504 -0.58584240529E+02 -0.98865717475E+01 -0.10941790278E+03  0.12459624789E+03  0.47000000000E+01 0.  1.
<mgrwt>
<rscale>  2 0.25828376E+03</rscale>
<asrwt>0</asrwt>
<pdfrwt beam="1">  1       21 0.64745725E-01 0.26458277E+03</pdfrwt>
<pdfrwt beam="2">  1       21 0.34435202E-01 0.26458277E+03</pdfrwt>
<totfact> 0.17176251E+04</totfact>
</mgrwt>
</event>
<event>
12    1  0.2742799E-001  0.2252734E+03  0.7546771E-02  0.1130292E+00
         21   -1    0    0  502  503  0.00000000000E+00  0.00000000000E+00  0.11645879699E+04  0.11645879699E+04  0.00000000000E+00 0. -1.
         21   -1    0    0  503  504 -0.00000000000E+00 -0.00000000000E+00 -0.48865262014E+02  0.48865262014E+02  0.00000000000E+00 0.  1.
         -6    2    1    2    0  504 -0.10294409207E+03 -0.97528683543E+02  0.76132868933E+03  0.79352081777E+03  0.17304503703E+03 0.  0.
        -24    2    3    3    0    0  0.75506407075E+01 -0.70515542316E+02  0.41056944413E+03  0.42474861998E+03  0.82551001454E+02 0.  0.
          6    2    1    2  502    0  0.10294409207E+03  0.97528683543E+02  0.35439401854E+03  0.41993241412E+03  0.17503937228E+03 0.  0.
         24    2    5    5    0    0  0.12557430851E+03  0.51831281567E+02  0.18612862413E+03  0.24404690534E+03  0.80371876790E+02 0.  0.
          4    1    6    6  501    0  0.56270888786E+02 -0.18057287021E+02  0.62365165776E+02  0.85917940162E+02  0.00000000000E+00 0. -1.
         -3    1    6    6    0  501  0.69303419726E+02  0.69888568588E+02  0.12376345835E+03  0.15812896518E+03  0.00000000000E+00 0.  1.
          5    1    5    5  502    0 -0.22630216439E+02  0.45697401976E+02  0.16826539441E+03  0.17588550878E+03  0.47000000000E+01 0. -1.
         13    1    4    4    0    0 -0.24097907552E+02 -0.60504124195E+02  0.34674646060E+03  0.35280953237E+03  0.00000000000E+00 0. -1.
        -14    1    4    4    0    0  0.31648548260E+02 -0.10011418121E+02  0.63822983523E+02  0.71939087605E+02  0.00000000000E+00 0.  1.
         -5    1    3    3    0  504 -0.11049473278E+03 -0.27013141227E+02  0.35075924520E+03  0.36877219779E+03  0.47000000000E+01 0.  1.
<mgrwt>
<rscale>  2 0.22488589E+03</rscale>
<asrwt>0</asrwt>
<pdfrwt beam="1">  1       21 0.17916736E+00 0.22527342E+03</pdfrwt>
<pdfrwt beam="2">  1       21 0.75177335E-02 0.22527342E+03</pdfrwt>
<totfact> 0.24114316E+04</totfact>
</mgrwt>
</event>
<event>
12    1  0.2742799E-001  0.1881613E+03  0.7546771E-02  0.1160199E+00
         21   -1    0    0  502  503  0.00000000000E+00  0.00000000000E+00  0.55152544520E+03  0.55152544520E+03  0.00000000000E+00 0.  1.
         21   -1    0    0  503  504 -0.00000000000E+00 -0.00000000000E+00 -0.92271953261E+02  0.92271953261E+02  0.00000000000E+00 0.  1.
         -6    2    1    2    0  504 -0.15635964692E+02  0.70362310818E+02  0.40764760196E+03  0.44897800144E+03  0.17380834335E+03 0.  0.
        -24    2    3    3    0    0  0.59912291134E+02  0.17632342327E+02  0.28199755227E+03  0.29309980052E+03  0.49844673266E+02 0.  0.
          6    2    1    2  502    0  0.15635964692E+02 -0.70362310818E+02  0.51605889979E+02  0.19481939702E+03  0.17348225096E+03 0.  0.
         24    2    5    5    0    0 -0.19259738835E+02 -0.10924577140E+03  0.45063991389E+02  0.14195617665E+03  0.76257567886E+02 0.  0.
          2    1    6    6  501    0  0.80278289258E+01 -0.10631051320E+03  0.40937674002E+02  0.11420273379E+03  0.00000000000E+00 0. -1.
         -1    1    6    6    0  501 -0.27287567761E+02 -0.29352582015E+01  0.41263173865E+01  0.27753442853E+02  0.00000000000E+00 0.  1.
          5    1    5    5  502    0  0.34895703526E+02  0.38883460579E+02  0.65418985901E+01  0.52863220375E+02  0.47000000000E+01 0. -1.
         13    1    4    4    0    0  0.13511142058E+02  0.28141157230E+02  0.88679276502E+02  0.94013242529E+02  0.00000000000E+00 0. -1.
        -14    1    4    4    0    0  0.46401149075E+02 -0.10508814903E+02  0.19331827577E+03  0.19908655799E+03  0.00000000000E+00 0.  1.
         -5    1    3    3    0  504 -0.75548255825E+02  0.52729968491E+02  0.12565004969E+03  0.15587820092E+03  0.47000000000E+01 0.  1.
<mgrwt>
<rscale>  2 0.18808597E+03</rscale>
<asrwt>0</asrwt>
<pdfrwt beam="1">  1       21 0.84850067E-01 0.18816131E+03</pdfrwt>
<pdfrwt beam="2">  1       21 0.14195685E-01 0.18816131E+03</pdfrwt>
<totfact> 0.52278832E+04</totfact>
</mgrwt>
</event>
<event>
12    1  0.2742799E-001  0.2304775E+03  0.7546771E-02  0.1126325E+00
         21   -1    0    0  502  503  0.00000000000E+00  0.00000000000E+00  0.38063582565E+03  0.38063582565E+03  0.00000000000E+00 0. -1.
         21   -1    0    0  503  504 -0.00000000000E+00 -0.00000000000E+00 -0.31199982183E+03  0.31199982183E+03  0.00000000000E+00 0.  1.
         -6    2    1    2    0  504  0.86048910419E+02 -0.12469471113E+03 -0.22319913641E+03  0.32083908094E+03  0.17368556472E+03 0.  0.
        -24    2    3    3    0    0 -0.14264536343E+02 -0.94880857294E+02 -0.12751969365E+03  0.17896484350E+03  0.81001783077E+02 0.  0.
          6    2    1    2  502    0 -0.86048910419E+02  0.12469471113E+03  0.29183514024E+03  0.37179656654E+03  0.17352738068E+03 0.  0.
         24    2    5    5    0    0 -0.35295134040E+02  0.14387327354E+03  0.25585830688E+03  0.30652646917E+03  0.80930450219E+02 0.  0.
          4    1    6    6  501    0  0.10373625346E+02  0.10778245289E+03  0.18951828498E+03  0.21827012987E+03  0.00000000000E+00 0. -1.
         -3    1    6    6    0  501 -0.45668759387E+02  0.36090820644E+02  0.66340021908E+02  0.88256339293E+02  0.00000000000E+00 0.  1.
          5    1    5    5  502    0 -0.50753776379E+02 -0.19178562410E+02  0.35976833356E+02  0.65270097374E+02  0.47000000000E+01 0. -1.
         11    1    4    4    0    0 -0.16617734666E+02 -0.80739062223E+01  0.62297010371E+01  0.19497339360E+02  0.00000000000E+00 0. -1.
        -12    1    4    4    0    0  0.23531983227E+01 -0.86806951072E+02 -0.13374939469E+03  0.15946750414E+03  0.00000000000E+00 0.  1.
         -5    1    3    3    0  504  0.10031344676E+03 -0.29813853835E+02 -0.95679442764E+02  0.14187423744E+03  0.47000000000E+01 0.  1.
<mgrwt>
<rscale>  2 0.23044766E+03</rscale>
<asrwt>0</asrwt>
<pdfrwt beam="1">  1       21 0.58559358E-01 0.23047746E+03</pdfrwt>
<pdfrwt beam="2">  1       21 0.47999973E-01 0.23047746E+03</pdfrwt>
<totfact> 0.11051939E+04</totfact>
</mgrwt>
</event>
<event>
12    1  0.2742799E-001  0.2029037E+03  0.7546771E-02  0.1147508E+00
         21   -1    0    0  502  503  0.00000000000E+00  0.00000000000E+00  0.15357309083E+03  0.15357309083E+03  0.00000000000E+00 0.  1.
         21   -1    0    0  503  504 -0.00000000000E+00 -0.00000000000E+00 -0.29974331867E+03  0.29974331867E+03  0.00000000000E+00 0. -1.
         -6    2    1    2    0  504  0.10053743935E+03  0.34600093103E+02 -0.14803449331E+03  0.25040414332E+03  0.17170637911E+03 0.  0.
        -24    2    3    3    0    0  0.88075809872E+02 -0.28638197179E+01 -0.26095880957E+02  0.12214677645E+03  0.80456760103E+02 0.  0.
          6    2    1    2  502    0 -0.10053743935E+03 -0.34600093103E+02  0.18642654711E+01  0.20291226619E+03  0.17281484060E+03 0.  0.
         24    2    5    5    0    0 -0.13440458531E+03 -0.37164781893E+01  0.68769737522E+01  0.15656576158E+03  0.79919585636E+02 0.  0.
          4    1    6    6  501    0 -0.71261487636E+02 -0.25633479699E+02 -0.28530885582E+02  0.80927661116E+02  0.00000000000E+00 0. -1.
         -3    1    6    6    0  501 -0.63143097672E+02  0.21917001509E+02  0.35407859334E+02  0.75638100462E+02  0.00000000000E+00 0.  1.
          5    1    5    5  502    0  0.33867145960E+02 -0.30883614914E+02 -0.50127082811E+01  0.46346504614E+02  0.47000000000E+01 0. -1.
         13    1    4    4    0    0  0.13327688369E+02 -0.23229648528E+02 -0.35102245677E+02  0.44152140373E+02  0.00000000000E+00 0. -1.
        -14    1    4    4    0    0  0.74748121503E+02  0.20365828810E+02  0.90063647194E+01  0.77994636077E+02  0.00000000000E+00 0.  1.
         -5    1    3    3    0  504  0.12461629476E+02  0.37463912821E+02 -0.12193861235E+03  0.12825736687E+03  0.47000000000E+01 0.  1.
<mgrwt>
<rscale>  2 0.20266748E+03</rscale>
<asrwt>0</asrwt>
<pdfrwt beam="1">  1       21 0.23626629E-01 0.20290370E+03</pdfrwt>
<pdfrwt beam="2">  1       21 0.46114357E-01 0.20290370E+03</pdfrwt>
<totfact> 0.75662514E+04</totfact>
</mgrwt>
</event>
<event>
12    1  0.2742799E-001  0.1739254E+03  0.7546771E-02  0.1174100E+00
         21   -1    0    0  502  503  0.00000000000E+00  0.00000000000E+00  0.83322777443E+03  0.83322777443E+03  0.00000000000E+00 0.  1.
         21   -1    0    0  503  504 -0.00000000000E+00 -0.00000000000E+00 -0.42642343534E+02  0.42642343534E+02  0.00000000000E+00 0.  1.
         -6    2    1    2    0  504 -0.49724110276E+01  0.56122104116E+01  0.22445935834E+03  0.28395784511E+03  0.17376372600E+03 0.  0.
        -24    2    3    3    0    0 -0.40479584730E+02  0.57931830728E+02  0.12830113297E+03  0.16877713335E+03  0.83844178269E+02 0.  0.
          6    2    1    2  502    0  0.49724110276E+01 -0.56122104116E+01  0.56612607256E+03  0.59191227286E+03  0.17264178797E+03 0.  0.
         24    2    5    5    0    0 -0.63328248359E+02  0.41588189941E+00  0.28760062582E+03  0.30503279912E+03  0.79499991014E+02 0.  0.
          2    1    6    6  501    0 -0.57093454172E+02 -0.32390832288E+02  0.15571620595E+03  0.16898628737E+03  0.00000000000E+00 0. -1.
         -1    1    6    6    0  501 -0.62347941873E+01  0.32806714187E+02  0.13188441987E+03  0.13604651175E+03  0.00000000000E+00 0.  1.
          5    1    5    5  502    0  0.68300659387E+02 -0.60280923110E+01  0.27852544674E+03  0.28687947373E+03  0.47000000000E+01 0. -1.
         11    1    4    4    0    0  0.14345279957E+01 -0.19020348836E+02  0.40316060582E+02  0.44600630951E+02  0.00000000000E+00 0. -1.
        -12    1    4    4    0    0 -0.41914112725E+02  0.76952179564E+02  0.87985072393E+02  0.12417650240E+03  0.00000000000E+00 0.  1.
         -5    1    3    3    0  504  0.35507173702E+02 -0.52319620316E+02  0.96158225365E+02  0.11518071175E+03  0.47000000000E+01 0.  1.
<mgrwt>
<rscale>  2 0.17364453E+03</rscale>
<asrwt>0</asrwt>
<pdfrwt beam="1">  1       21 0.12818888E+00 0.17392543E+03</pdfrwt>
<pdfrwt beam="2">  1       21 0.65603612E-02 0.17392543E+03</pdfrwt>
<totfact> 0.76440133E+04</totfact>
</mgrwt>
</event>
<event>
12    1  0.2742799E-001  0.2321689E+03  0.7546771E-02  0.1125328E+00
         21   -1    0    0  502  503  0.00000000000E+00  0.00000000000E+00  0.19927273320E+03  0.19927273320E+03  0.00000000000E+00 0. -1.
         21   -1    0    0  503  504 -0.00000000000E+00 -0.00000000000E+00 -0.27017817544E+03  0.27017817544E+03  0.00000000000E+00 0.  1.
         -6    2    1    2    0  504  0.15449106887E+03 -0.20413008852E+02 -0.20709331477E+02  0.23191764105E+03  0.17050728585E+03 0.  0.
        -24    2    3    3    0    0  0.17133865531E+03 -0.20316444781E+01  0.22761707189E+02  0.18158338902E+03  0.55618067853E+02 0.  0.
          6    2    1    2  502    0 -0.15449106887E+03  0.20413008852E+02 -0.50196110757E+02  0.23753326759E+03  0.17209945492E+03 0.  0.
         24    2    5    5    0    0 -0.72122919789E+02 -0.53950237400E+02 -0.31303837512E+02  0.12486822259E+03  0.80621331515E+02 0.  0.
          2    1    6    6  501    0 -0.36716334419E+01 -0.47597025282E+02  0.34008424113E+01  0.47859413253E+02  0.00000000000E+00 0. -1.
         -1    1    6    6    0  501 -0.68451286348E+02 -0.63532121183E+01 -0.34704679923E+02  0.77008809336E+02  0.00000000000E+00 0.  1.
          5    1    5    5  502    0 -0.82368149083E+02  0.74363246252E+02 -0.18892273245E+02  0.11266504500E+03  0.47000000000E+01 0. -1.
         13    1    4    4    0    0  0.10186947058E+03 -0.22911829898E+02 -0.34025992734E+01  0.10446970215E+03  0.00000000000E+00 0. -1.
        -14    1    4    4    0    0  0.69469184732E+02  0.20880185420E+02  0.26164306463E+02  0.77113686873E+02  0.00000000000E+00 0.  1.
         -5    1    3    3    0  504 -0.16847586436E+02 -0.18381364374E+02 -0.43471038666E+02  0.50334252032E+02  0.47000000000E+01 0.  1.
<mgrwt>
<rscale>  2 0.23187391E+03</rscale>
<asrwt>0</asrwt>
<pdfrwt beam="1">  1       21 0.30657344E-01 0.23216891E+03</pdfrwt>
<pdfrwt beam="2">  1       21 0.41565873E-01 0.23216891E+03</pdfrwt>
<totfact> 0.55924478E+04</totfact>
</mgrwt>
</event>
<event>
12    1  0.2742799E-001  0.1873859E+03  0.7546771E-02  0.1161589E+00
         21   -1    0    0  502  503  0.00000000000E+00  0.00000000000E+00  0.53411799913E+03  0.53411799913E+03  0.00000000000E+00 0. -1.
         21   -1    0    0  503  504 -0.00000000000E+00 -0.00000000000E+00 -0.20398337036E+03  0.20398337036E+03  0.00000000000E+00 0. -1.
         -6    2    1    2    0  504 -0.54905263976E+02  0.30051636905E+02 -0.13952686143E+03  0.23362623680E+03  0.17662328434E+03 0.  0.
        -24    2    3    3    0    0 -0.86248403858E+02  0.62514646457E+02 -0.68860632152E+02  0.14964977958E+03  0.79412855884E+02 0.  0.
          6    2    1    2  502    0  0.54905263976E+02 -0.30051636905E+02  0.46966149019E+03  0.50447513269E+03  0.17319224936E+03 0.  0.
         24    2    5    5    0    0  0.15832975015E+02 -0.49483460086E+02  0.15558696781E+03  0.18734876178E+03  0.90514960464E+02 0.  0.
          4    1    6    6  501    0 -0.31773591977E+02 -0.37241130178E+02  0.10959861473E+03  0.12003465864E+03  0.00000000000E+00 0. -1.
         -3    1    6    6    0  501  0.47606566992E+02 -0.12242329909E+02  0.45988353076E+02  0.67314103136E+02  0.00000000000E+00 0.  1.
          5    1    5    5  502    0  0.39072288961E+02  0.19431823182E+02  0.31407452238E+03  0.31712637091E+03  0.47000000000E+01 0. -1.
         11    1    4    4    0    0 -0.93403230754E+02  0.28261949445E+02 -0.46269965096E+02  0.10799912487E+03  0.00000000000E+00 0. -1.
        -12    1    4    4    0    0  0.71548268962E+01  0.34252697011E+02 -0.22590667055E+02  0.41650654718E+02  0.00000000000E+00 0.  1.
         -5    1    3    3    0  504  0.31343139882E+02 -0.32463009552E+02 -0.70666229276E+02  0.83976457218E+02  0.47000000000E+01 0.  1.
<mgrwt>
<rscale>  2 0.18657302E+03</rscale>
<asrwt>0</asrwt>
<pdfrwt beam="1">  1       21 0.82172000E-01 0.18738589E+03</pdfrwt>
<pdfrwt beam="2">  1       21 0.31382057E-01 0.18738589E+03</pdfrwt>
<totfact> 0.12675002E+04</totfact>
</mgrwt>
</event>
<event>
12    1  0.2742799E-001  0.2113834E+03  0.7546771E-02  0.1140736E+00
         21   -1    0    0  502  503  0.00000000000E+00  0.00000000000E+00  0.78654447536E+03  0.78654447536E+03  0.00000000000E+00 0.  1.
         21   -1    0    0  503  504 -0.00000000000E+00 -0.00000000000E+00 -0.58429152106E+02  0.58429152106E+02  0.00000000000E+00 0.  1.
         -6    2    1    2    0  504 -0.98762975949E+02 -0.68041111782E+02  0.44285447297E+03  0.49071684598E+03  0.17406671247E+03 0.  0.
        -24    2    3    3    0    0 -0.14632638641E+01 -0.60994043953E+02  0.31333763745E+03  0.32850218629E+03  0.77529328739E+02 0.  0.
          6    2    1    2  502    0  0.98762975949E+02  0.68041111782E+02  0.28526085028E+03  0.35425678148E+03  0.17245404086E+03 0.  0.
         24    2    5    5    0    0  0.12365209210E+03  0.77994483973E+02  0.20061080249E+03  0.26533963852E+03  0.93741401128E+02 0.  0.
          2    1    6    6  501    0  0.50282476565E+02  0.18779961903E+02  0.12783349346E+02  0.55176339486E+02  0.00000000000E+00 0. -1.
         -1    1    6    6    0  501  0.73369615533E+02  0.59214522071E+02  0.18782745314E+03  0.21016329904E+03  0.00000000000E+00 0.  1.
          5    1    5    5  502    0 -0.24889116149E+02 -0.99533721909E+01  0.84650047790E+02  0.88917142956E+02  0.47000000000E+01 0. -1.
         11    1    4    4    0    0 -0.69955283393E+01 -0.60869156928E+02  0.11687117455E+03  0.13195780811E+03  0.00000000000E+00 0. -1.
        -12    1    4    4    0    0  0.55322644751E+01 -0.12488702480E+00  0.19646646290E+03  0.19654437817E+03  0.00000000000E+00 0.  1.
         -5    1    3    3    0  504 -0.97299712085E+02 -0.70470678297E+01  0.12951683552E+03  0.16221465970E+03  0.47000000000E+01 0.  1.
<mgrwt>
<rscale>  2 0.21105111E+03</rscale>
<asrwt>0</asrwt>
<pdfrwt beam="1">  1       21 0.12100683E+00 0.21138339E+03</pdfrwt>
<pdfrwt beam="2">  1       21 0.89891009E-02 0.21138339E+03</pdfrwt>
<totfact> 0.50138737E+04</totfact>
</mgrwt>
</event>
<event>
12    1  0.2742799E-001  0.2091890E+03  0.7546771E-02  0.1142559E+00
         21   -1    0    0  502  503  0.00000000000E+00  0.00000000000E+00  0.77842669185E+03  0.77842669185E+03  0.00000000000E+00 0. -1.
         21   -1    0    0  503  504 -0.00000000000E+00 -0.00000000000E+00 -0.56790307238E+02  0.56790307238E+02  0.00000000000E+00 0. -1.
         -6    2    1    2    0  504  0.91924241399E+02 -0.72077175946E+02  0.41592512969E+03  0.46478559088E+03  0.17142562972E+03 0.  0.
        -24    2    3    3    0    0  0.34300138677E+02  0.51228799517E+01  0.95679373146E+02  0.13033107912E+03  0.81418083541E+02 0.  0.
          6    2    1    2  502    0 -0.91924241399E+02  0.72077175946E+02  0.30571125491E+03  0.37043140821E+03  0.17353636898E+03 0.  0.
         24    2    5    5    0    0 -0.97782973949E+02  0.70022675518E+02  0.13005564340E+03  0.19460328311E+03  0.80568494686E+02 0.  0.
          4    1    6    6  501    0 -0.86565920826E+02  0.87381508773E+02  0.10220666127E+03  0.15992307004E+03  0.00000000000E+00 0. -1.
         -3    1    6    6    0  501 -0.11217053124E+02 -0.17358833255E+02  0.27848982125E+02  0.34680213064E+02  0.00000000000E+00 0.  1.
          5    1    5    5  502    0  0.58587325501E+01  0.20545004287E+01  0.17565561152E+03  0.17582812510E+03  0.47000000000E+01 0. -1.
         13    1    4    4    0    0  0.56360739768E+02 -0.13202024057E+02  0.76065918156E+02  0.95586873216E+02  0.00000000000E+00 0. -1.
        -14    1    4    4    0    0 -0.22060601091E+02  0.18324904009E+02  0.19613454990E+02  0.34744205906E+02  0.00000000000E+00 0.  1.
         -5    1    3    3    0  504  0.57624102722E+02 -0.77200055898E+02  0.32024575655E+03  0.33445451175E+03  0.47000000000E+01 0.  1.
<mgrwt>
<rscale>  2 0.20875076E+03</rscale>
<asrwt>0</asrwt>
<pdfrwt beam="1">  1       21 0.11975794E+00 0.20918905E+03</pdfrwt>
<pdfrwt beam="2">  1       21 0.87369709E-02 0.20918905E+03</pdfrwt>
<totfact> 0.54145635E+04</totfact>
</mgrwt>
</event>
<event>
12    1  0.2742799E-001  0.1913460E+03  0.7546771E-02  0.1157883E+00
         21   -1    0    0  502  503  0.00000000000E+00  0.00000000000E+00  0.58612085407E+03  0.58612085407E+03  0.00000000000E+00 0.  1.
         21   -1    0    0  503  504 -0.00000000000E+00 -0.00000000000E+00 -0.72215204792E+02  0.72215204792E+02  0.00000000000E+00 0.  1.
         -6    2    1    2    0  504  0.30918956049E+02 -0.70521318517E+02  0.13210867762E+03  0.23252095184E+03  0.17516863913E+03 0.  0.
        -24    2    3    3    0    0  0.42572210767E+02 -0.99444454377E+02  0.48456305356E+02  0.14312209548E+03  0.80214263381E+02 0.  0.
          6    2    1    2  502    0 -0.30918956049E+02  0.70521318517E+02  0.38179697165E+03  0.42581510702E+03  0.17210560592E+03 0.  0.
         24    2    5    5    0    0 -0.25143031552E+02  0.74173594062E+02  0.39466619234E+03  0.41050474250E+03  0.81356291368E+02 0.  0.
          4    1    6    6  501    0 -0.35744119989E+01  0.29058077733E+02  0.31558103020E+03  0.31693616853E+03  0.00000000000E+00 0. -1.
         -3    1    6    6    0  501 -0.21568619553E+02  0.45115516329E+02  0.79085162145E+02  0.93568573969E+02  0.00000000000E+00 0.  1.
          5    1    5    5  502    0 -0.57759244973E+01 -0.36522755442E+01 -0.12869220689E+02  0.15310364516E+02  0.47000000000E+01 0. -1.
         13    1    4    4    0    0  0.13538246517E+02 -0.50956552618E+01 -0.18764546713E+02  0.23692995477E+02  0.00000000000E+00 0. -1.
        -14    1    4    4    0    0  0.29033964251E+02 -0.94348799115E+02  0.67220852070E+02  0.11942910000E+03  0.00000000000E+00 0.  1.
         -5    1    3    3    0  504 -0.11653254718E+02  0.28923135859E+02  0.83652372266E+02  0.89398856364E+02  0.47000000000E+01 0.  1.
<mgrwt>
<rscale>  2 0.19064211E+03</rscale>
<asrwt>0</asrwt>
<pdfrwt beam="1">  1       21 0.90172436E-01 0.19134600E+03</pdfrwt>
<pdfrwt beam="2">  1       21 0.11110032E-01 0.19134600E+03</pdfrwt>
<totfact> 0.70467388E+04</totfact>
</mgrwt>
</event>
<event>
12    1  0.2742799E-001  0.2331269E+03  0.7546771E-02  0.1124517E+00
         21   -1    0    0  502  503  0.00000000000E+00  0.00000000000E+00  0.18092762822E+04  0.18092762822E+04  0.00000000000E+00 0.  1.
         21   -1    0    0  503  504 -0.00000000000E+00 -0.00000000000E+00 -0.42846766812E+02  0.42846766812E+02  0.00000000000E+00 0.  1.
         -6    2    1    2    0  504 -0.47995792136E+02 -0.14848664184E+03  0.37557559011E+03  0.44186675932E+03  0.17273485531E+03 0.  0.
        -24    2    3    3    0    0 -0.44980519082E+02 -0.13224529195E+02  0.10952211725E+03  0.14335131347E+03  0.79726843901E+02 0.  0.
          6    2    1    2  502    0  0.47995792136E+02  0.14848664184E+03  0.13908539252E+04  0.14102562896E+04  0.17319434832E+03 0.  0.
         24    2    5    5    0    0  0.88121265439E+01  0.11769661256E+01  0.40383431552E+03  0.41152444367E+03  0.78684016960E+02 0.  0.
          2    1    6    6  501    0  0.35367397662E+02 -0.10815250064E+02  0.33127869349E+03  0.33333675947E+03  0.00000000000E+00 0. -1.
         -1    1    6    6    0  501 -0.26555271118E+02  0.11992216190E+02  0.72555622027E+02  0.78187684203E+02  0.00000000000E+00 0.  1.
          5    1    5    5  502    0  0.39183665593E+02  0.14730967571E+03  0.98701960971E+03  0.99873184598E+03  0.47000000000E+01 0. -1.
         11    1    4    4    0    0 -0.45742865127E+02 -0.32746310028E+02  0.11028009025E+03  0.12379995492E+03  0.00000000000E+00 0. -1.
        -12    1    4    4    0    0  0.76234604479E+00  0.19521780833E+02 -0.75797300523E+00  0.19551358558E+02  0.00000000000E+00 0.  1.
         -5    1    3    3    0  504 -0.30152730542E+01 -0.13526211264E+03  0.26605347286E+03  0.29851544584E+03  0.47000000000E+01 0.  1.
<mgrwt>
<rscale>  2 0.23304158E+03</rscale>
<asrwt>0</asrwt>
<pdfrwt beam="1">  1       21 0.27835014E+00 0.23312692E+03</pdfrwt>
<pdfrwt beam="2">  1       21 0.65918117E-02 0.23312692E+03</pdfrwt>
<totfact> 0.73338821E+03</totfact>
</mgrwt>
</event>
<event>
12    1  0.2742799E-001  0.1812129E+03  0.7546771E-02  0.1166762E+00
         21   -1    0    0  502  503  0.00000000000E+00  0.00000000000E+00  0.12067651472E+03  0.12067651472E+03  0.00000000000E+00 0.  1.
         21   -1    0    0  503  504 -0.00000000000E+00 -0.00000000000E+00 -0.31320210402E+03  0.31320210402E+03  0.00000000000E+00 0. -1.
         -6    2    1    2    0  504  0.13408347180E+02 -0.51006093130E+02 -0.17547333511E+03  0.25186519774E+03  0.17281140352E+03 0.  0.
        -24    2    3    3    0    0  0.57170656572E+02  0.27684237800E+01 -0.60983756243E+02  0.11793688833E+03  0.83150123033E+02 0.  0.
          6    2    1    2  502    0 -0.13408347180E+02  0.51006093130E+02 -0.17052254196E+02  0.18201342100E+03  0.17336868443E+03 0.  0.
         24    2    5    5    0    0 -0.55084415003E+02  0.50538296953E+02 -0.57687003553E+02  0.12361490802E+03  0.79777458415E+02 0.  0.
          4    1    6    6  501    0 -0.47101031986E+02  0.48577285746E+02 -0.77071890083E+02  0.10255893986E+03  0.00000000000E+00 0. -1.
         -3    1    6    6    0  501 -0.79833830172E+01  0.19610112066E+01  0.19384886530E+02  0.21055968160E+02  0.00000000000E+00 0.  1.
          5    1    5    5  502    0  0.41676067823E+02  0.46779617724E+00  0.40634749357E+02  0.58398512976E+02  0.47000000000E+01 0. -1.
         13    1    4    4    0    0 -0.34489885348E+01 -0.99103565548E+01 -0.54688832314E+02  0.55686435232E+02  0.00000000000E+00 0. -1.
        -14    1    4    4    0    0  0.60619645107E+02  0.12678780335E+02 -0.62949239293E+01  0.62250453098E+02  0.00000000000E+00 0.  1.
         -5    1    3    3    0  504 -0.43762309392E+02 -0.53774516910E+02 -0.11448957887E+03  0.13392830941E+03  0.47000000000E+01 0.  1.
<mgrwt>
<rscale>  2 0.18107946E+03</rscale>
<asrwt>0</asrwt>
<pdfrwt beam="1">  1       21 0.18565618E-01 0.18121287E+03</pdfrwt>
<pdfrwt beam="2">  1       21 0.48184939E-01 0.18121287E+03</pdfrwt>
<totfact> 0.10955596E+05</totfact>
</mgrwt>
</event>
<event>
12    1  0.2742799E-001  0.2042947E+03  0.7546771E-02  0.1146180E+00
         21   -1    0    0  502  503  0.00000000000E+00  0.00000000000E+00  0.36608060696E+03  0.36608060696E+03  0.00000000000E+00 0. -1.
         21   -1    0    0  503  504 -0.00000000000E+00 -0.00000000000E+00 -0.20238166537E+03  0.20238166537E+03  0.00000000000E+00 0. -1.
         -6    2    1    2    0  504  0.27180289241E+02  0.10574415411E+03 -0.10600572526E+03  0.23015982529E+03  0.17267234039E+03 0.  0.
        -24    2    3    3    0    0 -0.12458632095E+02  0.82559742590E+02 -0.13240966649E+03  0.17698070218E+03  0.82574333498E+02 0.  0.
          6    2    1    2  502    0 -0.27180289241E+02 -0.10574415411E+03  0.26970466685E+03  0.33830244704E+03  0.17259010429E+03 0.  0.
         24    2    5    5    0    0 -0.62977640279E+02 -0.11624203903E+02  0.12182135044E+03  0.15932876004E+03  0.80273950062E+02 0.  0.
          2    1    6    6  501    0 -0.28598919765E+02 -0.45361070333E+02  0.53616660643E+02  0.75830542739E+02  0.00000000000E+00 0. -1.
         -1    1    6    6    0  501 -0.34378720514E+02  0.33736866431E+02  0.68204689802E+02  0.83498217296E+02  0.00000000000E+00 0.  1.
          5    1    5    5  502    0  0.35797351039E+02 -0.94119950208E+02  0.14788331641E+03  0.17897368700E+03  0.47000000000E+01 0. -1.
         11    1    4    4    0    0  0.22965007896E+02  0.58260196844E+02 -0.37982044265E+02  0.73241230264E+02  0.00000000000E+00 0. -1.
        -12    1    4    4    0    0 -0.35423639991E+02  0.24299545746E+02 -0.94427622226E+02  0.10373947191E+03  0.00000000000E+00 0.  1.
         -5    1    3    3    0  504  0.39638921335E+02  0.23184411520E+02  0.26403941230E+02  0.53179123109E+02  0.47000000000E+01 0.  1.
<mgrwt>
<rscale>  2 0.20427734E+03</rscale>
<asrwt>0</asrwt>
<pdfrwt beam="1">  1       21 0.56320093E-01 0.20429472E+03</pdfrwt>
<pdfrwt beam="2">  1       21 0.31135641E-01 0.20429472E+03</pdfrwt>
<totfact> 0.29207114E+04</totfact>
</mgrwt>
</event>
<event>
12    1  0.2742799E-001  0.1736097E+03  0.7546771E-02  0.1174448E+00
         21   -1    0    0  502  503  0.00000000000E+00  0.00000000000E+00  0.88053974466E+03  0.88053974466E+03  0.00000000000E+00 0.  1.
         21   -1    0    0  503  504 -0.00000000000E+00 -0.00000000000E+00 -0.17356583555E+03  0.17356583555E+03  0.00000000000E+00 0.  1.
         -6    2    1    2    0  504 -0.14603783951E+02  0.12530299426E+01 -0.11939904487E+03  0.20969301107E+03  0.17175618297E+03 0.  0.
        -24    2    3    3    0    0  0.18261236142E+02 -0.54961318598E+02 -0.45011681360E+02  0.11071961880E+03  0.82937104129E+02 0.  0.
          6    2    1    2  502    0  0.14603783951E+02 -0.12530299426E+01  0.82637295398E+03  0.84441256914E+03  0.17298984729E+03 0.  0.
         24    2    5    5    0    0 -0.55437317457E+02  0.19473478330E+02  0.46215459891E+03  0.47291230776E+03  0.81281394046E+02 0.  0.
          2    1    6    6  501    0 -0.71757869537E+02  0.19569844431E+02  0.26974044498E+03  0.27980721633E+03  0.00000000000E+00 0. -1.
         -1    1    6    6    0  501  0.16320552079E+02 -0.96366101382E-01  0.19241415393E+03  0.19310509144E+03  0.00000000000E+00 0.  1.
          5    1    5    5  502    0  0.70041101408E+02 -0.20726508272E+02  0.36421835507E+03  0.37150026138E+03  0.47000000000E+01 0. -1.
         13    1    4    4    0    0 -0.12278333360E+02 -0.11459722482E+02  0.20407515516E+02  0.26430085111E+02  0.00000000000E+00 0. -1.
        -14    1    4    4    0    0  0.30539569502E+02 -0.43501596116E+02 -0.65419196875E+02  0.84289533691E+02  0.00000000000E+00 0.  1.
         -5    1    3    3    0  504 -0.32865020093E+02  0.56214348541E+02 -0.74387363507E+02  0.98973392268E+02  0.47000000000E+01 0.  1.
<mgrwt>
<rscale>  2 0.17330157E+03</rscale>
<asrwt>0</asrwt>
<pdfrwt beam="1">  1       21 0.13546765E+00 0.17360970E+03</pdfrwt>
<pdfrwt beam="2">  1       21 0.26702437E-01 0.17360970E+03</pdfrwt>
<totfact> 0.52830956E+03</totfact>
</mgrwt>
</event>
<event>
12    1  0.2742799E-001  0.1995522E+03  0.7546771E-02  0.1150310E+00
         21   -1    0    0  502  503  0.00000000000E+00  0.00000000000E+00  0.96869063823E+03  0.96869063823E+03  0.00000000000E+00 0.  1.
         21   -1    0    0  503  504 -0.00000000000E+00 -0.00000000000E+00 -0.44101662473E+02  0.44101662473E+02  0.00000000000E+00 0.  1.
         -6    2    1    2    0  504 -0.22474023763E+02  0.95944199300E+02  0.32729101301E+03  0.38332817893E+03  0.17352439149E+03 0.  0.
        -24    2    3    3    0    0 -0.60410541964E+02  0.72770664593E+02  0.30782337025E+03  0.33457091036E+03  0.90760473663E+02 0.  0.
          6    2    1    2  502    0  0.22474023763E+02 -0.95944199300E+02  0.59729796274E+03  0.62946412177E+03  0.17248145748E+03 0.  0.
         24    2    5    5    0    0  0.67460200642E+02 -0.10693003540E+03  0.40534039586E+03  0.43194388941E+03  0.79308107708E+02 0.  0.
          2    1    6    6  501    0  0.28630579823E+02 -0.15502436873E+02  0.32135886241E+02  0.45746593693E+02  0.00000000000E+00 0. -1.
         -1    1    6    6    0  501  0.38829620819E+02 -0.91427598523E+02  0.37320450962E+03  0.38619729572E+03  0.00000000000E+00 0.  1.
          5    1    5    5  502    0 -0.44986176879E+02  0.10985836097E+02  0.19195756688E+03  0.19752023235E+03  0.47000000000E+01 0. -1.
         13    1    4    4    0    0 -0.10142912172E+02 -0.14664400705E+02  0.12059863645E+03  0.12190961582E+03  0.00000000000E+00 0. -1.
        -14    1    4    4    0    0 -0.50267629791E+02  0.87435065299E+02  0.18722473381E+03  0.21266129454E+03  0.00000000000E+00 0.  1.
         -5    1    3    3    0  504  0.37936518201E+02  0.23173534706E+02  0.19467642761E+02  0.48757268573E+02  0.47000000000E+01 0.  1.
<mgrwt>
<rscale>  2 0.19932527E+03</rscale>
<asrwt>0</asrwt>
<pdfrwt beam="1">  1       21 0.14902931E+00 0.19955221E+03</pdfrwt>
<pdfrwt beam="2">  1       21 0.67848719E-02 0.19955221E+03</pdfrwt>
<totfact> 0.48346234E+04</totfact>
</mgrwt>
</event>
<event>
12    1  0.2742799E-001  0.1883905E+03  0.7546771E-02  0.1159977E+00
         21   -1    0    0  502  503  0.00000000000E+00  0.00000000000E+00  0.83927999488E+03  0.83927999488E+03  0.00000000000E+00 0.  1.
         21   -1    0    0  503  504 -0.00000000000E+00 -0.00000000000E+00 -0.43531303043E+02  0.43531303043E+02  0.00000000000E+00 0.  1.
         -6    2    1    2    0  504  0.55219732647E+02 -0.49157792499E+02  0.32138945464E+03  0.37241177788E+03  0.17301341945E+03 0.  0.
        -24    2    3    3    0    0  0.44454228720E+02 -0.86184510423E+02  0.14735869885E+03  0.19409837996E+03  0.80966948119E+02 0.  0.
          6    2    1    2  502    0 -0.55219732647E+02  0.49157792499E+02  0.47435923719E+03  0.51039952004E+03  0.17327803299E+03 0.  0.
         24    2    5    5    0    0 -0.52786850494E+02  0.79860533325E+02  0.45915235170E+03  0.47573085153E+03  0.79591486134E+02 0.  0.
          2    1    6    6  501    0  0.36943220957E+01  0.61845322991E+02  0.18035175234E+03  0.19069673978E+03  0.00000000000E+00 0. -1.
         -1    1    6    6    0  501 -0.56481172590E+02  0.18015210334E+02  0.27880059935E+03  0.28503411175E+03  0.00000000000E+00 0.  1.
          5    1    5    5  502    0 -0.24328821534E+01 -0.30702740827E+02  0.15206885495E+02  0.34668668510E+02  0.47000000000E+01 0. -1.
         11    1    4    4    0    0  0.30005932648E+02 -0.18082187048E+02  0.46843256785E+01  0.35344934426E+02  0.00000000000E+00 0. -1.
        -12    1    4    4    0    0  0.14448296071E+02 -0.68102323375E+02  0.14267437317E+03  0.15875344553E+03  0.00000000000E+00 0.  1.
         -5    1    3    3    0  504  0.10765503928E+02  0.37026717924E+02  0.17403075580E+03  0.17831339792E+03  0.47000000000E+01 0.  1.
<mgrwt>
<rscale>  2 0.18832964E+03</rscale>
<asrwt>0</asrwt>
<pdfrwt beam="1">  1       21 0.12911999E+00 0.18839051E+03</pdfrwt>
<pdfrwt beam="2">  1       21 0.66971242E-02 0.18839051E+03</pdfrwt>
<totfact> 0.71936457E+04</totfact>
</mgrwt>
</event>
<event>
12    1  0.2742799E-001  0.1813924E+03  0.7546771E-02  0.1168407E+00
         21   -1    0    0  502  503  0.00000000000E+00  0.00000000000E+00  0.60184121231E+03  0.60184121231E+03  0.00000000000E+00 0. -1.
         21   -1    0    0  503  504 -0.00000000000E+00 -0.00000000000E+00 -0.53071963435E+02  0.53071963435E+02  0.00000000000E+00 0. -1.
         -6    2    1    2    0  504 -0.99877313379E+01  0.36657527345E+01  0.30763440458E+03  0.35316952622E+03  0.17313750272E+03 0.  0.
        -24    2    3    3    0    0  0.36393788180E+02 -0.49222247637E+02  0.21118428464E+03  0.23369943970E+03  0.79178839073E+02 0.  0.
          6    2    1    2  502    0  0.99877313379E+01 -0.36657527345E+01  0.24113484429E+03  0.30174364952E+03  0.18108016008E+03 0.  0.
         24    2    5    5    0    0 -0.33638813959E+00 -0.18685636415E+02  0.26635852429E+02  0.86420423050E+02  0.80060943788E+02 0.  0.
          4    1    6    6  501    0  0.39743432892E+02 -0.11064438984E+02  0.10693587073E+02  0.42618248117E+02  0.00000000000E+00 0. -1.
         -3    1    6    6    0  501 -0.40079821031E+02 -0.76211974302E+01  0.15942265356E+02  0.43802174933E+02  0.00000000000E+00 0.  1.
          5    1    5    5  502    0  0.10324119477E+02  0.15019883680E+02  0.21449899186E+03  0.21532322647E+03  0.47000000000E+01 0. -1.
         11    1    4    4    0    0 -0.20954251469E+02 -0.43698265444E+00  0.77361350844E+02  0.80150172881E+02  0.00000000000E+00 0. -1.
        -12    1    4    4    0    0  0.57348039649E+02 -0.48785264982E+02  0.13382293379E+03  0.15354926682E+03  0.00000000000E+00 0.  1.
         -5    1    3    3    0  504 -0.46381519518E+02  0.52888000371E+02  0.96450119941E+02  0.11947008652E+03  0.47000000000E+01 0.  1.
<mgrwt>
<rscale>  2 0.17937701E+03</rscale>
<asrwt>0</asrwt>
<pdfrwt beam="1">  1       21 0.92590951E-01 0.18139244E+03</pdfrwt>
<pdfrwt beam="2">  1       21 0.81649179E-02 0.18139244E+03</pdfrwt>
<totfact> 0.11440924E+05</totfact>
</mgrwt>
</event>
<event>
12    1  0.2742799E-001  0.1817416E+03  0.7546771E-02  0.1166808E+00
         21   -1    0    0  502  503  0.00000000000E+00  0.00000000000E+00  0.41501875265E+03  0.41501875265E+03  0.00000000000E+00 0.  1.
         21   -1    0    0  503  504 -0.00000000000E+00 -0.00000000000E+00 -0.84079508495E+02  0.84079508495E+02  0.00000000000E+00 0.  1.
         -6    2    1    2    0  504  0.45303258923E+01  0.50765260632E+02  0.23178958910E+03  0.29454440707E+03  0.17444872765E+03 0.  0.
        -24    2    3    3    0    0  0.45215568164E+02 -0.23069080651E+02  0.14305055997E+03  0.17205561500E+03  0.81012603087E+02 0.  0.
          6    2    1    2  502    0 -0.45303258923E+01 -0.50765260632E+02  0.99149655059E+02  0.20455385408E+03  0.17150507159E+03 0.  0.
         24    2    5    5    0    0  0.15503545815E+02 -0.85625483962E+02  0.10999541676E+03  0.16264548101E+03  0.82355797296E+02 0.  0.
          4    1    6    6  501    0  0.15546542416E+02 -0.14506680331E+02  0.84437500947E+02  0.87073706258E+02  0.00000000000E+00 0. -1.
         -3    1    6    6    0  501 -0.42996601265E-01 -0.71118803632E+02  0.25557915817E+02  0.75571774755E+02  0.00000000000E+00 0.  1.
          5    1    5    5  502    0 -0.20033871707E+02  0.34860223331E+02 -0.10845761705E+02  0.41908373068E+02  0.47000000000E+01 0. -1.
         13    1    4    4    0    0  0.62206040916E+01 -0.43691311146E+02  0.38443601165E+02  0.58528087749E+02  0.00000000000E+00 0. -1.
        -14    1    4    4    0    0  0.38994964073E+02  0.20622230495E+02  0.10460695880E+03  0.11352752725E+03  0.00000000000E+00 0.  1.
         -5    1    3    3    0  504 -0.40685242272E+02  0.73834341283E+02  0.88739029134E+02  0.12248879207E+03  0.47000000000E+01 0.  1.
<mgrwt>
<rscale>  2 0.18103150E+03</rscale>
<asrwt>0</asrwt>
<pdfrwt beam="1">  1       21 0.63849038E-01 0.18174156E+03</pdfrwt>
<pdfrwt beam="2">  1       21 0.12935309E-01 0.18174156E+03</pdfrwt>
<totfact> 0.11667256E+05</totfact>
</mgrwt>
</event>
<event>
12    1  0.2742799E-001  0.1953304E+03  0.7546771E-02  0.1154494E+00
         21   -1    0    0  502  503  0.00000000000E+00  0.00000000000E+00  0.54023072087E+03  0.54023072087E+03  0.00000000000E+00 0. -1.
         21   -1    0    0  503  504 -0.00000000000E+00 -0.00000000000E+00 -0.86731156267E+02  0.86731156267E+02  0.00000000000E+00 0.  1.
         -6    2    1    2    0  504 -0.71599050886E+02  0.54612900390E+02  0.84962950841E+02  0.20986092367E+03  0.16945179636E+03 0.  0.
        -24    2    3    3    0    0 -0.97264031980E+02  0.42709015327E+01  0.86913366167E+02  0.15312555354E+03  0.80093504182E+02 0.  0.
          6    2    1    2  502    0  0.71599050886E+02 -0.54612900390E+02  0.36853661376E+03  0.41710095347E+03  0.17333486875E+03 0.  0.
         24    2    5    5    0    0 -0.11744729448E+02 -0.31444848618E+02  0.80199103057E+02  0.11603027336E+03  0.76840165471E+02 0.  0.
          4    1    6    6  501    0 -0.54517548402E+01 -0.56129931481E+02  0.42877142306E+02  0.70843067207E+02  0.00000000000E+00 0. -1.
         -3    1    6    6    0  501 -0.62929746075E+01  0.24685082863E+02  0.37321960751E+02  0.45187206150E+02  0.00000000000E+00 0.  1.
          5    1    5    5  502    0  0.83343780334E+02 -0.23168051772E+02  0.28833751070E+03  0.30107068011E+03  0.47000000000E+01 0. -1.
         13    1    4    4    0    0  0.12373385247E+02  0.10188602948E+02  0.80139093090E+01  0.17920129322E+02  0.00000000000E+00 0. -1.
        -14    1    4    4    0    0 -0.10963741723E+03 -0.59177014152E+01  0.78899456858E+02  0.13520542422E+03  0.00000000000E+00 0.  1.
         -5    1    3    3    0  504  0.25664981093E+02  0.50341998858E+02 -0.19504153255E+01  0.56735370127E+02  0.47000000000E+01 0.  1.
<mgrwt>
<rscale>  2 0.19446532E+03</rscale>
<asrwt>0</asrwt>
<pdfrwt beam="1">  1       21 0.83112416E-01 0.19533041E+03</pdfrwt>
<pdfrwt beam="2">  1       21 0.13343255E-01 0.19533041E+03</pdfrwt>
<totfact> 0.61094028E+04</totfact>
</mgrwt>
</event>
<event>
12    1  0.2742799E-001  0.2610340E+03  0.7546771E-02  0.1108194E+00
         21   -1    0    0  502  503  0.00000000000E+00  0.00000000000E+00  0.15253304357E+04  0.15253304357E+04  0.00000000000E+00 0.  1.
         21   -1    0    0  503  504 -0.00000000000E+00 -0.00000000000E+00 -0.98392320972E+02  0.98392320972E+02  0.00000000000E+00 0. -1.
         -6    2    1    2    0  504  0.62006294295E+02 -0.17080334243E+03  0.96759545640E+02  0.26817350465E+03  0.17186057315E+03 0.  0.
        -24    2    3    3    0    0  0.10733978449E+03 -0.13172477655E+03  0.89699130448E+02  0.20772353272E+03  0.78929626563E+02 0.  0.
          6    2    1    2  502    0 -0.62006294295E+02  0.17080334243E+03  0.13301785691E+04  0.13555492520E+04  0.18740380647E+03 0.  0.
         24    2    5    5    0    0 -0.45925962460E+02  0.91226434004E+01  0.63053262238E+03  0.63726952500E+03  0.79678371933E+02 0.  0.
          4    1    6    6  501    0  0.35544792527E+01 -0.27848949498E+02  0.27309246263E+03  0.27453176767E+03  0.00000000000E+00 0. -1.
         -3    1    6    6    0  501 -0.49480441712E+02  0.36971592898E+02  0.35744015975E+03  0.36273775733E+03  0.00000000000E+00 0.  1.
          5    1    5    5  502    0 -0.16080331835E+02  0.16168069903E+03  0.69964594667E+03  0.71827972699E+03  0.47000000000E+01 0. -1.
         13    1    4    4    0    0  0.22378297070E+02 -0.69751116865E+02  0.63343720129E+01  0.73526394937E+02  0.00000000000E+00 0. -1.
        -14    1    4    4    0    0  0.84961487416E+02 -0.61973659689E+02  0.83364758436E+02  0.13419713778E+03  0.00000000000E+00 0.  1.
         -5    1    3    3    0  504 -0.45333490191E+02 -0.39078565877E+02  0.70604151917E+01  0.60449971932E+02  0.47000000000E+01 0.  1.
<mgrwt>
<rscale>  2 0.25825886E+03</rscale>
<asrwt>0</asrwt>
<pdfrwt beam="1">  1       21 0.23466620E+00 0.26103400E+03</pdfrwt>
<pdfrwt beam="2">  1       21 0.15137281E-01 0.26103400E+03</pdfrwt>
<totfact> 0.29696760E+03</totfact>
</mgrwt>
</event>
<event>
12    1  0.2742799E-001  0.3018197E+03  0.7546771E-02  0.1084353E+00
         21   -1    0    0  502  503  0.00000000000E+00  0.00000000000E+00  0.17104120808E+04  0.17104120808E+04  0.00000000000E+00 0. -1.
         21   -1    0    0  503  504 -0.00000000000E+00 -0.00000000000E+00 -0.57602309083E+02  0.57602309083E+02  0.00000000000E+00 0.  1.
         -6    2    1    2    0  504 -0.24110531748E+03 -0.54011409128E+02  0.10696873219E+04  0.11114118294E+04  0.17307882985E+03 0.  0.
        -24    2    3    3    0    0 -0.15412939892E+03  0.84108913357E+01  0.84081946648E+03  0.85869867328E+03  0.80990256056E+02 0.  0.
          6    2    1    2  502    0  0.24110531748E+03  0.54011409128E+02  0.58312244985E+03  0.65660256058E+03  0.17333817986E+03 0.  0.
         24    2    5    5    0    0  0.23955288517E+03  0.23081959215E+02  0.41671534450E+03  0.48727313127E+03  0.76583708947E+02 0.  0.
          2    1    6    6  501    0  0.22075708000E+03  0.35775519649E+02  0.33746324018E+03  0.40483949246E+03  0.00000000000E+00 0. -1.
         -1    1    6    6    0  501  0.18795805167E+02 -0.12693560434E+02  0.79252104321E+02  0.82433638811E+02  0.00000000000E+00 0.  1.
          5    1    5    5  502    0  0.15524323091E+01  0.30929449914E+02  0.16640710535E+03  0.16932942931E+03  0.47000000000E+01 0. -1.
         13    1    4    4    0    0 -0.10026598469E+03  0.23670843558E+01  0.71069767101E+03  0.71773954214E+03  0.00000000000E+00 0. -1.
        -14    1    4    4    0    0 -0.53863414225E+02  0.60438069799E+01  0.13012179547E+03  0.14095913114E+03  0.00000000000E+00 0.  1.
         -5    1    3    3    0  504 -0.86975918561E+02 -0.62422300464E+02  0.22886785542E+03  0.25271315607E+03  0.47000000000E+01 0.  1.
<mgrwt>
<rscale>  2 0.30178247E+03</rscale>
<asrwt>0</asrwt>
<pdfrwt beam="1">  1       21 0.26314028E+00 0.30181970E+03</pdfrwt>
<pdfrwt beam="2">  1       21 0.88618950E-02 0.30181970E+03</pdfrwt>
<totfact> 0.50971233E+03</totfact>
</mgrwt>
</event>
<event>
12    1  0.2742799E-001  0.1863376E+03  0.7546771E-02  0.1162650E+00
         21   -1    0    0  502  503  0.00000000000E+00  0.00000000000E+00  0.10698415193E+03  0.10698415193E+03  0.00000000000E+00 0. -1.
         21   -1    0    0  503  504 -0.00000000000E+00 -0.00000000000E+00 -0.32053821038E+03  0.32053821038E+03  0.00000000000E+00 0.  1.
         -6    2    1    2    0  504  0.36821514284E+02  0.49464732832E+02 -0.12567928428E+03  0.22475985444E+03  0.17583835180E+03 0.  0.
        -24    2    3    3    0    0  0.54126724434E+02  0.65082080033E+02 -0.22220362045E+02  0.11860331710E+03  0.80047628933E+02 0.  0.
          6    2    1    2  502    0 -0.36821514284E+02 -0.49464732832E+02 -0.87874774170E+02  0.20276250787E+03  0.17201184538E+03 0.  0.
         24    2    5    5    0    0 -0.67675648519E+02 -0.41155957436E+02 -0.11556619208E+03  0.16021937712E+03  0.77723212872E+02 0.  0.
          4    1    6    6  501    0 -0.41005790419E+02 -0.62171290924E+02 -0.62533649107E+02  0.97248144114E+02  0.00000000000E+00 0. -1.
         -3    1    6    6    0  501 -0.26669858100E+02  0.21015333487E+02 -0.53032542968E+02  0.62971233006E+02  0.00000000000E+00 0.  1.
          5    1    5    5  502    0  0.30854134235E+02 -0.83087753955E+01  0.27691417905E+02  0.42543130745E+02  0.47000000000E+01 0. -1.
         13    1    4    4    0    0  0.69361832179E+02  0.71585878473E+02 -0.21795694317E+02  0.10203261268E+03  0.00000000000E+00 0. -1.
        -14    1    4    4    0    0 -0.15235107745E+02 -0.65037984402E+01 -0.42466772850E+00  0.16570704416E+02  0.00000000000E+00 0.  1.
         -5    1    3    3    0  504 -0.17305210150E+02 -0.15617347201E+02 -0.10345892223E+03  0.10615653735E+03  0.47000000000E+01 0.  1.
<mgrwt>
<rscale>  2 0.18542938E+03</rscale>
<asrwt>0</asrwt>
<pdfrwt beam="1">  1       21 0.16459101E-01 0.18633762E+03</pdfrwt>
<pdfrwt beam="2">  1       21 0.49313570E-01 0.18633762E+03</pdfrwt>
<totfact> 0.13011678E+05</totfact>
</mgrwt>
</event>
<event>
12    1  0.2742799E-001  0.2104154E+03  0.7546771E-02  0.1141267E+00
         21   -1    0    0  502  503  0.00000000000E+00  0.00000000000E+00  0.38406718157E+03  0.38406718157E+03  0.00000000000E+00 0. -1.
         21   -1    0    0  503  504 -0.00000000000E+00 -0.00000000000E+00 -0.13386220369E+03  0.13386220369E+03  0.00000000000E+00 0.  1.
         -6    2    1    2    0  504  0.11590480538E+03  0.33303570578E+02  0.28441404471E+02  0.21232886900E+03  0.17242848779E+03 0.  0.
        -24    2    3    3    0    0  0.12014167932E+03 -0.19780423677E+02  0.50419461564E+02  0.15452760137E+03  0.80693055524E+02 0.  0.
          6    2    1    2  502    0 -0.11590480538E+03 -0.33303570578E+02  0.22176357340E+03  0.30560051626E+03  0.17224848714E+03 0.  0.
         24    2    5    5    0    0 -0.11554784517E+03 -0.44334755603E+02  0.24118957064E+03  0.28276909422E+03  0.80430569956E+02 0.  0.
          2    1    6    6  501    0 -0.11181503227E+03 -0.37430643797E+02  0.24652877473E+03  0.27327658390E+03  0.00000000000E+00 0. -1.
         -1    1    6    6    0  501 -0.37328128946E+01 -0.69041118056E+01 -0.53392040889E+01  0.94925103231E+01  0.00000000000E+00 0.  1.
          5    1    5    5  502    0 -0.35696021833E+00  0.11031185025E+02 -0.19425997236E+02  0.22831422038E+02  0.47000000000E+01 0. -1.
         13    1    4    4    0    0  0.32188188449E+02 -0.56368328294E+01  0.56465104026E+02  0.65239262202E+02  0.00000000000E+00 0. -1.
        -14    1    4    4    0    0  0.87953490869E+02 -0.14143590848E+02 -0.60456424629E+01  0.89288339165E+02  0.00000000000E+00 0.  1.
         -5    1    3    3    0  504 -0.42368739345E+01  0.53083994255E+02 -0.21978057093E+02  0.57801267636E+02  0.47000000000E+01 0.  1.
<mgrwt>
<rscale>  2 0.21037851E+03</rscale>
<asrwt>0</asrwt>
<pdfrwt beam="1">  1       21 0.59087258E-01 0.21041539E+03</pdfrwt>
<pdfrwt beam="2">  1       21 0.20594185E-01 0.21041539E+03</pdfrwt>
<totfact> 0.58033338E+04</totfact>
</mgrwt>
</event>
<event>
12    1  0.2742799E-001  0.2145301E+03  0.7546771E-02  0.1138087E+00
         21   -1    0    0  502  503  0.00000000000E+00  0.00000000000E+00  0.61160292415E+02  0.61160292415E+02  0.00000000000E+00 0.  1.
         21   -1    0    0  503  504 -0.00000000000E+00 -0.00000000000E+00 -0.84323869768E+03  0.84323869768E+03  0.00000000000E+00 0.  1.
         -6    2    1    2    0  504  0.33260731245E+02  0.12360318937E+03 -0.24157197899E+03  0.32287480427E+03  0.17177628922E+03 0.  0.
        -24    2    3    3    0    0  0.16331250525E+02  0.12316927077E+02 -0.42862879716E+02  0.94448370546E+02  0.81638543623E+02 0.  0.
          6    2    1    2  502    0 -0.33260731245E+02 -0.12360318937E+03 -0.54050642628E+03  0.58152418582E+03  0.17216026597E+03 0.  0.
         24    2    5    5    0    0  0.10649785377E+02 -0.10567085880E+02 -0.12209455811E+03  0.14586850115E+03  0.78392966998E+02 0.  0.
          2    1    6    6  501    0  0.18341229469E+02  0.20516344277E+02 -0.10697406096E+03  0.11045709936E+03  0.00000000000E+00 0. -1.
         -1    1    6    6    0  501 -0.76914440919E+01 -0.31083430158E+02 -0.15120497152E+02  0.35411401790E+02  0.00000000000E+00 0.  1.
          5    1    5    5  502    0 -0.43910516622E+02 -0.11303610349E+03 -0.41841186816E+03  0.43565568467E+03  0.47000000000E+01 0. -1.
         13    1    4    4    0    0 -0.12059425789E+02 -0.28752821310E+02 -0.29122462029E+02  0.42664649046E+02  0.00000000000E+00 0. -1.
        -14    1    4    4    0    0  0.28390676314E+02  0.41069748387E+02 -0.13740417688E+02  0.51783721500E+02  0.00000000000E+00 0.  1.
         -5    1    3    3    0  504  0.16929480720E+02  0.11128626229E+03 -0.19870909927E+03  0.22842643373E+03  0.47000000000E+01 0.  1.
<mgrwt>
<rscale>  2 0.21445310E+03</rscale>
<asrwt>0</asrwt>
<pdfrwt beam="1">  1       21 0.94092755E-02 0.21453014E+03</pdfrwt>
<pdfrwt beam="2">  1       21 0.12972903E+00 0.21453014E+03</pdfrwt>
<totfact> 0.38777669E+04</totfact>
</mgrwt>
</event>
<event>
12    1  0.2742799E-001  0.2288723E+03  0.7546771E-02  0.1127580E+00
         21   -1    0    0  502  503  0.00000000000E+00  0.00000000000E+00  0.35891878277E+03  0.35891878277E+03  0.00000000000E+00 0.  1.
         21   -1    0    0  503  504 -0.00000000000E+00 -0.00000000000E+00 -0.22124809140E+03  0.22124809140E+03  0.00000000000E+00 0. -1.
         -6    2    1    2    0  504  0.76503389039E+02 -0.12844430741E+03  0.23872941882E+03  0.33071783605E+03  0.17329697930E+03 0.  0.
        -24    2    3    3    0    0  0.64926004043E+02 -0.13202976062E+02  0.65327291344E+02  0.12213934218E+03  0.79124328349E+02 0.  0.
          6    2    1    2  502    0 -0.76503389039E+02  0.12844430741E+03 -0.10105872744E+03  0.24944903812E+03  0.17222441054E+03 0.  0.
         24    2    5    5    0    0 -0.10314093211E+03  0.14580593795E+03 -0.85524306456E+02  0.21375039457E+03  0.80482300934E+02 0.  0.
          2    1    6    6  501    0 -0.44338725595E+02  0.11574165504E+03 -0.79908227519E+02  0.14746992277E+03  0.00000000000E+00 0. -1.
         -1    1    6    6    0  501 -0.58802206516E+02  0.30064282917E+02 -0.56160789372E+01  0.66280471793E+02  0.00000000000E+00 0.  1.
          5    1    5    5  502    0  0.26637543072E+02 -0.17361630544E+02 -0.15534420985E+02  0.35698643552E+02  0.47000000000E+01 0. -1.
         11    1    4    4    0    0  0.13595909183E+02  0.26610154061E+02 -0.18152334957E+00  0.29882804360E+02  0.00000000000E+00 0. -1.
        -12    1    4    4    0    0  0.51330094860E+02 -0.39813130124E+02  0.65508814694E+02  0.92256537824E+02  0.00000000000E+00 0.  1.
         -5    1    3    3    0  504  0.11577384996E+02 -0.11524133135E+03  0.17340212747E+03  0.20857849387E+03  0.47000000000E+01 0.  1.
<mgrwt>
<rscale>  2 0.22866932E+03</rscale>
<asrwt>0</asrwt>
<pdfrwt beam="1">  1       21 0.55218274E-01 0.22887235E+03</pdfrwt>
<pdfrwt beam="2">  1       21 0.34038168E-01 0.22887235E+03</pdfrwt>
<totfact> 0.25219983E+04</totfact>
</mgrwt>
</event>
<event>
12    1  0.2742799E-001  0.3569928E+03  0.7546771E-02  0.1059823E+00
         21   -1    0    0  502  503  0.00000000000E+00  0.00000000000E+00  0.62959242147E+03  0.62959242147E+03  0.00000000000E+00 0. -1.
         21   -1    0    0  503  504 -0.00000000000E+00 -0.00000000000E+00 -0.24495928610E+03  0.24495928610E+03  0.00000000000E+00 0.  1.
         -6    2    1    2    0  504  0.26320439210E+03  0.16820852513E+03  0.94960917313E+01  0.35669878495E+03  0.17196856538E+03 0.  0.
        -24    2    3    3    0    0  0.93798869156E+02  0.40191850036E+02 -0.46873712253E+02  0.13695769842E+03  0.78400596891E+02 0.  0.
          6    2    1    2  502    0 -0.26320439210E+03 -0.16820852513E+03  0.37513704363E+03  0.51785292262E+03  0.17283861842E+03 0.  0.
         24    2    5    5    0    0 -0.13549936094E+03 -0.48432324094E+02  0.10243266607E+03  0.19374695098E+03  0.79622001366E+02 0.  0.
          2    1    6    6  501    0 -0.34295605793E+02 -0.53004850383E+02  0.40623505260E+02  0.75073110502E+02  0.00000000000E+00 0. -1.
         -1    1    6    6    0  501 -0.10120375515E+03  0.45725262890E+01  0.61809160815E+02  0.11867384047E+03  0.00000000000E+00 0.  1.
          5    1    5    5  502    0 -0.12770503116E+03 -0.11977620104E+03  0.27270437756E+03  0.32410597165E+03  0.47000000000E+01 0. -1.
         13    1    4    4    0    0  0.17794558740E+02 -0.23290351302E+02 -0.15004033737E+02  0.32927311049E+02  0.00000000000E+00 0. -1.
        -14    1    4    4    0    0  0.76004310416E+02  0.63482201339E+02 -0.31869678516E+02  0.10403038737E+03  0.00000000000E+00 0.  1.
         -5    1    3    3    0  504  0.16940552294E+03  0.12801667509E+03  0.56369803984E+02  0.21974108652E+03  0.47000000000E+01 0.  1.
<mgrwt>
<rscale>  2 0.35688763E+03</rscale>
<asrwt>0</asrwt>
<pdfrwt beam="1">  1       21 0.96860372E-01 0.35699278E+03</pdfrwt>
<pdfrwt beam="2">  1       21 0.37686044E-01 0.35699278E+03</pdfrwt>
<totfact> 0.54718769E+03</totfact>
</mgrwt>
</event>
<event>
12    1  0.2742799E-001  0.2159625E+03  0.7546771E-02  0.1137085E+00
         21   -1    0    0  502  503  0.00000000000E+00  0.00000000000E+00  0.11832692034E+04  0.11832692034E+04  0.00000000000E+00 0. -1.
         21   -1    0    0  503  504 -0.00000000000E+00 -0.00000000000E+00 -0.40310175977E+02  0.40310175977E+02  0.00000000000E+00 0.  1.
         -6    2    1    2    0  504  0.12537639371E+03 -0.21788466153E+02  0.66880267385E+03  0.70255725515E+03  0.17348113115E+03 0.  0.
        -24    2    3    3    0    0  0.23372380469E+02  0.28615712270E+02  0.41391556084E+03  0.42338897204E+03  0.81037046962E+02 0.  0.
          6    2    1    2  502    0 -0.12537639371E+03  0.21788466153E+02  0.47415635355E+03  0.52102212420E+03  0.17448733174E+03 0.  0.
         24    2    5    5    0    0 -0.11656558037E+03 -0.21902249618E+02  0.44438425384E+03  0.46721713375E+03  0.82141596913E+02 0.  0.
          4    1    6    6  501    0 -0.88140990373E+02 -0.28250947488E+02  0.41731194052E+03  0.42745316225E+03  0.00000000000E+00 0. -1.
         -3    1    6    6    0  501 -0.28424589996E+02  0.63486978692E+01  0.27072313329E+02  0.39763971507E+02  0.00000000000E+00 0.  1.
          5    1    5    5  502    0 -0.88108133387E+01  0.43690715771E+02  0.29772099711E+02  0.53804990451E+02  0.47000000000E+01 0. -1.
         13    1    4    4    0    0  0.41688210132E+02  0.14428391254E+02  0.10891612971E+03  0.11751088737E+03  0.00000000000E+00 0. -1.
        -14    1    4    4    0    0 -0.18315829663E+02  0.14187321016E+02  0.30499943113E+03  0.30587808468E+03  0.00000000000E+00 0.  1.
         -5    1    3    3    0  504  0.10200401324E+03 -0.50404178422E+02  0.25488711300E+03  0.27916828311E+03  0.47000000000E+01 0.  1.
<mgrwt>
<rscale>  2 0.21575919E+03</rscale>
<asrwt>0</asrwt>
<pdfrwt beam="1">  1       21 0.18204139E+00 0.21596251E+03</pdfrwt>
<pdfrwt beam="2">  1       21 0.62015664E-02 0.21596251E+03</pdfrwt>
<totfact> 0.32343339E+04</totfact>
</mgrwt>
</event>
<event>
12    1  0.2742799E-001  0.2050389E+03  0.7546771E-02  0.1147214E+00
         21   -1    0    0  502  503  0.00000000000E+00  0.00000000000E+00  0.83411126875E+03  0.83411126875E+03  0.00000000000E+00 0.  1.
         21   -1    0    0  503  504 -0.00000000000E+00 -0.00000000000E+00 -0.50353817969E+02  0.50353817969E+02  0.00000000000E+00 0. -1.
         -6    2    1    2    0  504 -0.13743154412E+02 -0.95217334453E+02  0.31375415428E+03  0.37481010524E+03  0.18106830366E+03 0.  0.
        -24    2    3    3    0    0 -0.59797917063E+02 -0.37893003022E+01  0.18323780269E+03  0.20886814363E+03  0.80372006360E+02 0.  0.
          6    2    1    2  502    0  0.13743154412E+02  0.95217334453E+02  0.47000329650E+03  0.50965498147E+03  0.17201711063E+03 0.  0.
         24    2    5    5    0    0 -0.46988327438E+02  0.10540198865E+02  0.15860115031E+03  0.18124682562E+03  0.73328631594E+02 0.  0.
          2    1    6    6  501    0 -0.53186091426E+02  0.34124551953E+02  0.10956765382E+03  0.12648445016E+03  0.00000000000E+00 0. -1.
         -1    1    6    6    0  501  0.61977639884E+01 -0.23584353088E+02  0.49033496484E+02  0.54762375464E+02  0.00000000000E+00 0.  1.
          5    1    5    5  502    0  0.60731481849E+02  0.84677135588E+02  0.31140214619E+03  0.32840815585E+03  0.47000000000E+01 0. -1.
         11    1    4    4    0    0  0.46117321884E+01 -0.16626259128E+02  0.36335038156E+01  0.17632439319E+02  0.00000000000E+00 0. -1.
        -12    1    4    4    0    0 -0.64409649252E+02  0.12836958826E+02  0.17960429887E+03  0.19123570431E+03  0.00000000000E+00 0.  1.
         -5    1    3    3    0  504  0.46054762651E+02 -0.91428034151E+02  0.13051635159E+03  0.16594196162E+03  0.47000000000E+01 0.  1.
<mgrwt>
<rscale>  2 0.20302252E+03</rscale>
<asrwt>0</asrwt>
<pdfrwt beam="1">  1       21 0.12832480E+00 0.20503889E+03</pdfrwt>
<pdfrwt beam="2">  1       21 0.77467419E-02 0.20503889E+03</pdfrwt>
<totfact> 0.56310419E+04</totfact>
</mgrwt>
</event>
<event>
12    1  0.2742799E-001  0.1796558E+03  0.7546771E-02  0.1168427E+00
         21   -1    0    0  502  503  0.00000000000E+00  0.00000000000E+00  0.31402335758E+03  0.31402335758E+03  0.00000000000E+00 0.  1.
         21   -1    0    0  503  504 -0.00000000000E+00 -0.00000000000E+00 -0.10407303203E+03  0.10407303203E+03  0.00000000000E+00 0.  1.
         -6    2    1    2    0  504  0.42417010224E+02  0.19026816885E+02  0.76542809226E+02  0.19528182579E+03  0.17353664547E+03 0.  0.
        -24    2    3    3    0    0  0.78362219922E+02 -0.17402928717E+02  0.12134683669E+02  0.11288230453E+03  0.78432548664E+02 0.  0.
          6    2    1    2  502    0 -0.42417010224E+02 -0.19026816885E+02  0.13340751633E+03  0.22281456383E+03  0.17230073106E+03 0.  0.
         24    2    5    5    0    0 -0.10864367161E+00  0.19360982293E+02  0.55284021180E+01  0.82676136344E+02  0.80186787266E+02 0.  0.
          4    1    6    6  501    0 -0.24708414292E+02 -0.12126685372E+02  0.25927364223E+02  0.37812570006E+02  0.00000000000E+00 0. -1.
         -3    1    6    6    0  501  0.24599770620E+02  0.31487667666E+02 -0.20398962105E+02  0.44863566338E+02  0.00000000000E+00 0.  1.
          5    1    5    5  502    0 -0.42308366552E+02 -0.38387799179E+02  0.12787911421E+03  0.14013842748E+03  0.47000000000E+01 0. -1.
         11    1    4    4    0    0  0.22263885089E+02  0.29549196206E+02  0.14379123379E+02  0.39693762291E+02  0.00000000000E+00 0. -1.
        -12    1    4    4    0    0  0.56098334833E+02 -0.46952124923E+02 -0.22444397105E+01  0.73188542242E+02  0.00000000000E+00 0.  1.
         -5    1    3    3    0  504 -0.35945209699E+02  0.36429745603E+02  0.64408125557E+02  0.82399521253E+02  0.47000000000E+01 0.  1.
<mgrwt>
<rscale>  2 0.17935662E+03</rscale>
<asrwt>0</asrwt>
<pdfrwt beam="1">  1       21 0.48311285E-01 0.17965575E+03</pdfrwt>
<pdfrwt beam="2">  1       21 0.16011236E-01 0.17965575E+03</pdfrwt>
<totfact> 0.14313590E+05</totfact>
</mgrwt>
</event>
<event>
12    1  0.2742799E-001  0.1940731E+03  0.7546771E-02  0.1154848E+00
         21   -1    0    0  502  503  0.00000000000E+00  0.00000000000E+00  0.12027010464E+03  0.12027010464E+03  0.00000000000E+00 0. -1.
         21   -1    0    0  503  504 -0.00000000000E+00 -0.00000000000E+00 -0.38911270863E+03  0.38911270863E+03  0.00000000000E+00 0. -1.
         -6    2    1    2    0  504  0.16508758495E+02  0.87182929219E+02 -0.21831240474E+02  0.19525071554E+03  0.17254807042E+03 0.  0.
        -24    2    3    3    0    0  0.31757762299E+02  0.61472092400E+02 -0.78445531053E+02  0.13105689073E+03  0.78960962849E+02 0.  0.
          6    2    1    2  502    0 -0.16508758495E+02 -0.87182929219E+02 -0.24701136352E+03  0.31413209774E+03  0.17260057609E+03 0.  0.
         24    2    5    5    0    0 -0.38023284022E+02  0.97760774620E+01 -0.81916279184E+02  0.12140845971E+03  0.80550577120E+02 0.  0.
          4    1    6    6  501    0 -0.44968617655E+02 -0.45748731292E+01 -0.92027779387E+02  0.10252910912E+03  0.00000000000E+00 0. -1.
         -3    1    6    6    0  501  0.69453336337E+01  0.14350950591E+02  0.10111500203E+02  0.18879350585E+02  0.00000000000E+00 0.  1.
          5    1    5    5  502    0  0.21514525526E+02 -0.96959006681E+02 -0.16509508433E+03  0.19272363803E+03  0.47000000000E+01 0. -1.
         11    1    4    4    0    0 -0.23179346102E+02  0.17127974257E+02 -0.51290528094E+01  0.29273823983E+02  0.00000000000E+00 0. -1.
        -12    1    4    4    0    0  0.54937108401E+02  0.44344118143E+02 -0.73316478243E+02  0.10178306674E+03  0.00000000000E+00 0.  1.
         -5    1    3    3    0  504 -0.15249003803E+02  0.25710836818E+02  0.56614290579E+02  0.64193824817E+02  0.47000000000E+01 0.  1.
<mgrwt>
<rscale>  2 0.19406141E+03</rscale>
<asrwt>0</asrwt>
<pdfrwt beam="1">  1       21 0.18503093E-01 0.19407308E+03</pdfrwt>
<pdfrwt beam="2">  1       21 0.59863493E-01 0.19407308E+03</pdfrwt>
<totfact> 0.69429136E+04</totfact>
</mgrwt>
</event>
<event>
12    1  0.2742799E-001  0.2032969E+03  0.7546771E-02  0.1147118E+00
         21   -1    0    0  502  503  0.00000000000E+00  0.00000000000E+00  0.98204245771E+03  0.98204245771E+03  0.00000000000E+00 0.  1.
         21   -1    0    0  503  504 -0.00000000000E+00 -0.00000000000E+00 -0.42685718003E+02  0.42685718003E+02  0.00000000000E+00 0. -1.
         -6    2    1    2    0  504  0.97698899992E+02  0.39167438073E+02  0.53601330800E+03  0.57304738474E+03  0.17318740004E+03 0.  0.
        -24    2    3    3    0    0  0.10176640785E+03 -0.29049617623E+02  0.35050596409E+03  0.37529709788E+03  0.82420863624E+02 0.  0.
          6    2    1    2  502    0 -0.97698899992E+02 -0.39167438073E+02  0.40334343171E+03  0.45168079098E+03  0.17392656431E+03 0.  0.
         24    2    5    5    0    0  0.10942250677E+02 -0.54704578771E+02  0.16925948629E+03  0.19310452397E+03  0.74352267546E+02 0.  0.
          2    1    6    6  501    0 -0.65761464133E+01 -0.67310323817E+02  0.10131013460E+03  0.12180996990E+03  0.00000000000E+00 0. -1.
         -1    1    6    6    0  501  0.17518397090E+02  0.12605745046E+02  0.67949351694E+02  0.71294554073E+02  0.00000000000E+00 0.  1.
          5    1    5    5  502    0 -0.10864115067E+03  0.15537140698E+02  0.23408394541E+03  0.25857626701E+03  0.47000000000E+01 0. -1.
         11    1    4    4    0    0  0.94217466485E+02 -0.11328807032E+02  0.34072737800E+03  0.35369537596E+03  0.00000000000E+00 0. -1.
        -12    1    4    4    0    0  0.75489413607E+01 -0.17720810591E+02  0.97785860944E+01  0.21601721915E+02  0.00000000000E+00 0.  1.
         -5    1    3    3    0  504 -0.40675078541E+01  0.68217055696E+02  0.18550734391E+03  0.19775028686E+03  0.47000000000E+01 0.  1.
<mgrwt>
<rscale>  2 0.20313867E+03</rscale>
<asrwt>0</asrwt>
<pdfrwt beam="1">  1       21 0.15108344E+00 0.20329686E+03</pdfrwt>
<pdfrwt beam="2">  1       21 0.65670343E-02 0.20329686E+03</pdfrwt>
<totfact> 0.49226291E+04</totfact>
</mgrwt>
</event>
<event>
12    1  0.2742799E-001  0.2024507E+03  0.7546771E-02  0.1152014E+00
         21   -1    0    0  502  503  0.00000000000E+00  0.00000000000E+00  0.85714527520E+03  0.85714527520E+03  0.00000000000E+00 0.  1.
         21   -1    0    0  503  504 -0.00000000000E+00 -0.00000000000E+00 -0.53621799446E+02  0.53621799446E+02  0.00000000000E+00 0.  1.
         -6    2    1    2    0  504  0.38307366349E+01  0.86967392753E+02  0.21850365446E+03  0.29787605765E+03  0.18277936636E+03 0.  0.
        -24    2    3    3    0    0 -0.26875416186E+02  0.40486393682E+02  0.22334591888E+03  0.24176109868E+03  0.78762892818E+02 0.  0.
          6    2    1    2  502    0 -0.38307366349E+01 -0.86967392753E+02  0.58501982130E+03  0.61289101700E+03  0.16065243681E+03 0.  0.
         24    2    5    5    0    0  0.85852722771E+01 -0.11632796147E+03  0.52678942985E+03  0.54633976786E+03  0.85872795624E+02 0.  0.
          4    1    6    6  501    0  0.86043628556E+01 -0.78060981323E+02  0.16725903309E+03  0.18477861353E+03  0.00000000000E+00 0. -1.
         -3    1    6    6    0  501 -0.19090578426E-01 -0.38266980143E+02  0.35953039676E+03  0.36156115434E+03  0.00000000000E+00 0.  1.
          5    1    5    5  502    0 -0.12416008912E+02  0.29360568713E+02  0.58230391453E+02  0.66551249133E+02  0.47000000000E+01 0. -1.
         11    1    4    4    0    0  0.26322170820E+02  0.25026028329E+02  0.10465082698E+03  0.11077433980E+03  0.00000000000E+00 0. -1.
        -12    1    4    4    0    0 -0.53197587006E+02  0.15460365353E+02  0.11869509190E+03  0.13098675888E+03  0.00000000000E+00 0.  1.
         -5    1    3    3    0  504  0.30706152821E+02  0.46480999071E+02 -0.48422644288E+01  0.56114958972E+02  0.47000000000E+01 0.  1.
<mgrwt>
<rscale>  2 0.19732723E+03</rscale>
<asrwt>0</asrwt>
<pdfrwt beam="1">  1       21 0.13186849E+00 0.20245073E+03</pdfrwt>
<pdfrwt beam="2">  1       21 0.82495082E-02 0.20245073E+03</pdfrwt>
<totfact> 0.47171243E+04</totfact>
</mgrwt>
</event>
<event>
12    1  0.2742799E-001  0.3167871E+03  0.7546771E-02  0.1077175E+00
         21   -1    0    0  502  503  0.00000000000E+00  0.00000000000E+00  0.75091192644E+03  0.75091192644E+03  0.00000000000E+00 0.  1.
         21   -1    0    0  503  504 -0.00000000000E+00 -0.00000000000E+00 -0.15573139668E+03  0.15573139668E+03  0.00000000000E+00 0.  1.
         -6    2    1    2    0  504 -0.10468470770E+03  0.24410814296E+03  0.12647451204E+03  0.34110099711E+03  0.17264534327E+03 0.  0.
        -24    2    3    3    0    0  0.53312078282E+01  0.10343299530E+03  0.78548098429E+02  0.15613605460E+03  0.86497731099E+02 0.  0.
          6    2    1    2  502    0  0.10468470770E+03 -0.24410814296E+03  0.46870601772E+03  0.56554232601E+03  0.17206137851E+03 0.  0.
         24    2    5    5    0    0  0.75231953150E+02 -0.26046024877E+03  0.41983142046E+03  0.50599677729E+03  0.79214449827E+02 0.  0.
          4    1    6    6  501    0  0.75718280691E+02 -0.11952115937E+03  0.20758205456E+03  0.25121479841E+03  0.00000000000E+00 0. -1.
         -3    1    6    6    0  501 -0.48632754071E+00 -0.14093908940E+03  0.21224936590E+03  0.25478197888E+03  0.00000000000E+00 0.  1.
          5    1    5    5  502    0  0.29452754546E+02  0.16352105809E+02  0.48874597264E+02  0.59545548720E+02  0.47000000000E+01 0. -1.
         13    1    4    4    0    0 -0.37485273883E+02  0.39958863666E+02  0.15462908165E+02  0.56929413070E+02  0.00000000000E+00 0. -1.
        -14    1    4    4    0    0  0.42816481711E+02  0.63474131634E+02  0.63085190263E+02  0.99206641529E+02  0.00000000000E+00 0.  1.
         -5    1    3    3    0  504 -0.11001591552E+03  0.14067514766E+03  0.47926413608E+02  0.18496494251E+03  0.47000000000E+01 0.  1.
<mgrwt>
<rscale>  2 0.31670763E+03</rscale>
<asrwt>0</asrwt>
<pdfrwt beam="1">  1       21 0.11552491E+00 0.31678713E+03</pdfrwt>
<pdfrwt beam="2">  1       21 0.23958677E-01 0.31678713E+03</pdfrwt>
<totfact> 0.88627389E+03</totfact>
</mgrwt>
</event>
<event>
12    1  0.2742799E-001  0.1997790E+03  0.7546771E-02  0.1151035E+00
         21   -1    0    0  502  503  0.00000000000E+00  0.00000000000E+00  0.49958466380E+03  0.49958466380E+03  0.00000000000E+00 0.  1.
         21   -1    0    0  503  504 -0.00000000000E+00 -0.00000000000E+00 -0.32374358278E+03  0.32374358278E+03  0.00000000000E+00 0.  1.
         -6    2    1    2    0  504 -0.73230705738E+01  0.91242006074E+02 -0.27113266089E+03  0.33373944544E+03  0.17172759420E+03 0.  0.
        -24    2    3    3    0    0 -0.12262053920E+02  0.10592317620E+03 -0.28353124947E+03  0.31334961190E+03  0.80174388868E+02 0.  0.
          6    2    1    2  502    0  0.73230705738E+01 -0.91242006074E+02  0.44697374190E+03  0.48958880114E+03  0.17757515934E+03 0.  0.
         24    2    5    5    0    0  0.71844499709E+02 -0.79759296113E+02  0.29199106016E+03  0.32125404809E+03  0.80138671957E+02 0.  0.
          2    1    6    6  501    0  0.44734900424E+02 -0.28501111191E+01  0.15949164696E+03  0.16567111969E+03  0.00000000000E+00 0. -1.
         -1    1    6    6    0  501  0.27109599285E+02 -0.76909184994E+02  0.13249941320E+03  0.15558292840E+03  0.00000000000E+00 0.  1.
          5    1    5    5  502    0 -0.64521429135E+02 -0.11482709961E+02  0.15498268174E+03  0.16833475305E+03  0.47000000000E+01 0. -1.
         11    1    4    4    0    0 -0.19716332748E+02  0.12449055778E+02 -0.12292714006E+02  0.26359506528E+02  0.00000000000E+00 0. -1.
        -12    1    4    4    0    0  0.74542788281E+01  0.93474120427E+02 -0.27123853546E+03  0.28699010537E+03  0.00000000000E+00 0.  1.
         -5    1    3    3    0  504  0.49389833460E+01 -0.14681170131E+02  0.12398588583E+02  0.20389833539E+02  0.47000000000E+01 0.  1.
<mgrwt>
<rscale>  2 0.19847146E+03</rscale>
<asrwt>0</asrwt>
<pdfrwt beam="1">  1       21 0.76859179E-01 0.19977905E+03</pdfrwt>
<pdfrwt beam="2">  1       21 0.49806705E-01 0.19977905E+03</pdfrwt>
<totfact> 0.57503355E+03</totfact>
</mgrwt>
</event>
<event>
12    1  0.2742799E-001  0.2387370E+03  0.7546771E-02  0.1120711E+00
         21   -1    0    0  502  503  0.00000000000E+00  0.00000000000E+00  0.10038072288E+03  0.10038072288E+03  0.00000000000E+00 0.  1.
         21   -1    0    0  503  504 -0.00000000000E+00 -0.00000000000E+00 -0.56807040258E+03  0.56807040258E+03  0.00000000000E+00 0.  1.
         -6    2    1    2    0  504 -0.16421917138E+03  0.12265521747E+02 -0.21795305192E+03  0.32326289090E+03  0.17284960086E+03 0.  0.
        -24    2    3    3    0    0 -0.15021530059E+03  0.59602813487E+02 -0.12972640766E+03  0.22205538948E+03  0.79765426365E+02 0.  0.
          6    2    1    2  502    0  0.16421917138E+03 -0.12265521747E+02 -0.24973662777E+03  0.34518823456E+03  0.17224446220E+03 0.  0.
         24    2    5    5    0    0  0.18303431838E+03 -0.14406090243E+02 -0.25560502907E+03  0.32481374258E+03  0.80379968544E+02 0.  0.
          4    1    6    6  501    0  0.11527207161E+03 -0.29795839140E+02 -0.21090314874E+03  0.24218914235E+03  0.00000000000E+00 0. -1.
         -3    1    6    6    0  501  0.67762246767E+02  0.15389748896E+02 -0.44701880323E+02  0.82624600225E+02  0.00000000000E+00 0.  1.
          5    1    5    5  502    0 -0.18815146996E+02  0.21405684964E+01  0.58684012947E+01  0.20374491987E+02  0.47000000000E+01 0. -1.
         13    1    4    4    0    0  0.33494622902E+01  0.21327489996E+02 -0.20404815250E+02  0.29705844754E+02  0.00000000000E+00 0. -1.
        -14    1    4    4    0    0 -0.15356476288E+03  0.38275323491E+02 -0.10932159241E+03  0.19234954472E+03  0.00000000000E+00 0.  1.
         -5    1    3    3    0  504 -0.14003870787E+02 -0.47337291741E+02 -0.88226644262E+02  0.10120750142E+03  0.47000000000E+01 0.  1.
<mgrwt>
<rscale>  2 0.23862750E+03</rscale>
<asrwt>0</asrwt>
<pdfrwt beam="1">  1       21 0.15443188E-01 0.23873702E+03</pdfrwt>
<pdfrwt beam="2">  1       21 0.87395447E-01 0.23873702E+03</pdfrwt>
<totfact> 0.40883672E+04</totfact>
</mgrwt>
</event>
<event>
12    1  0.2742799E-001  0.2288235E+03  0.7546771E-02  0.1128674E+00
         21   -1    0    0  502  503  0.00000000000E+00  0.00000000000E+00  0.14388795326E+04  0.14388795326E+04  0.00000000000E+00 0.  1.
         21   -1    0    0  503  504 -0.00000000000E+00 -0.00000000000E+00 -0.19645634449E+03  0.19645634449E+03  0.00000000000E+00 0.  1.
         -6    2    1    2    0  504  0.13628153531E+03  0.30992233798E+02 -0.11761153902E+03  0.25727932609E+03  0.18118223451E+03 0.  0.
        -24    2    3    3    0    0  0.64513107887E+02  0.54824632654E+02  0.72816404545E+01  0.11120028349E+03  0.71727256498E+02 0.  0.
          6    2    1    2  502    0 -0.13628153531E+03 -0.30992233798E+02  0.13600347271E+04  0.13780565510E+04  0.17266216534E+03 0.  0.
         24    2    5    5    0    0 -0.22407539326E+02 -0.33914711154E+02  0.88496937539E+03  0.88950255577E+03  0.79948082467E+02 0.  0.
          4    1    6    6  501    0  0.43272505211E+01  0.22892479855E+02  0.36761575521E+03  0.36835327366E+03  0.00000000000E+00 0. -1.
         -3    1    6    6    0  501 -0.26734789847E+02 -0.56807191009E+02  0.51735362017E+03  0.52114928211E+03  0.00000000000E+00 0.  1.
          5    1    5    5  502    0 -0.11387399598E+03  0.29224773563E+01  0.47506535172E+03  0.48855399521E+03  0.47000000000E+01 0. -1.
         11    1    4    4    0    0  0.41313504007E+02  0.70602688331E+02 -0.14554766279E+01  0.81814812993E+02  0.00000000000E+00 0. -1.
        -12    1    4    4    0    0  0.23199603880E+02 -0.15778055677E+02  0.87371170824E+01  0.29385470492E+02  0.00000000000E+00 0.  1.
         -5    1    3    3    0  504  0.71768427423E+02 -0.23832398857E+02 -0.12489317947E+03  0.14607904261E+03  0.47000000000E+01 0.  1.
<mgrwt>
<rscale>  2 0.22713353E+03</rscale>
<asrwt>0</asrwt>
<pdfrwt beam="1">  1       21 0.22136608E+00 0.22882346E+03</pdfrwt>
<pdfrwt beam="2">  1       21 0.30224054E-01 0.22882346E+03</pdfrwt>
<totfact> 0.99618490E+02</totfact>
</mgrwt>
</event>
<event>
12    1  0.2742799E-001  0.1948981E+03  0.7546771E-02  0.1155939E+00
         21   -1    0    0  502  503  0.00000000000E+00  0.00000000000E+00  0.58888482595E+02  0.58888482595E+02  0.00000000000E+00 0.  1.
         21   -1    0    0  503  504 -0.00000000000E+00 -0.00000000000E+00 -0.63856502655E+03  0.63856502655E+03  0.00000000000E+00 0.  1.
         -6    2    1    2    0  504 -0.20466274080E+02  0.58836881000E+02 -0.23371821818E+03  0.30431807055E+03  0.18467440432E+03 0.  0.
        -24    2    3    3    0    0  0.38571204459E+02  0.85463878691E+02 -0.18656766639E+03  0.22407042004E+03  0.81291122630E+02 0.  0.
          6    2    1    2  502    0  0.20466274080E+02 -0.58836881000E+02 -0.34595832577E+03  0.39313543859E+03  0.17603313031E+03 0.  0.
         24    2    5    5    0    0  0.27755734145E+02 -0.10613219891E+03 -0.23979332584E+03  0.27658896489E+03  0.83463716407E+02 0.  0.
          2    1    6    6  501    0 -0.23165187129E+02 -0.68560657305E+02 -0.15219002550E+03  0.16852000916E+03  0.00000000000E+00 0. -1.
         -1    1    6    6    0  501  0.50920921274E+02 -0.37571541601E+02 -0.87603300340E+02  0.10806895573E+03  0.00000000000E+00 0.  1.
          5    1    5    5  502    0 -0.72894600647E+01  0.47295317905E+02 -0.10616499993E+03  0.11654647371E+03  0.47000000000E+01 0. -1.
         11    1    4    4    0    0  0.35664672249E+02  0.54029204029E+02 -0.44550096826E+02  0.78586480146E+02  0.00000000000E+00 0. -1.
        -12    1    4    4    0    0  0.29065322102E+01  0.31434674662E+02 -0.14201756957E+03  0.14548393989E+03  0.00000000000E+00 0.  1.
         -5    1    3    3    0  504 -0.59037478539E+02 -0.26626997690E+02 -0.47150551786E+02  0.80247650508E+02  0.47000000000E+01 0.  1.
<mgrwt>
<rscale>  2 0.19282335E+03</rscale>
<asrwt>0</asrwt>
<pdfrwt beam="1">  1       21 0.90597670E-02 0.19489813E+03</pdfrwt>
<pdfrwt beam="2">  1       21 0.98240769E-01 0.19489813E+03</pdfrwt>
<totfact> 0.82583167E+04</totfact>
</mgrwt>
</event>
<event>
12    1  0.2742799E-001  0.2105326E+03  0.7546771E-02  0.1141291E+00
         21   -1    0    0  502  503  0.00000000000E+00  0.00000000000E+00  0.19585555180E+03  0.19585555180E+03  0.00000000000E+00 0. -1.
         21   -1    0    0  503  504 -0.00000000000E+00 -0.00000000000E+00 -0.32896282331E+03  0.32896282331E+03  0.00000000000E+00 0. -1.
         -6    2    1    2    0  504 -0.41057854233E+02  0.11280462338E+03 -0.21362418911E+03  0.29941440275E+03  0.17205539790E+03 0.  0.
        -24    2    3    3    0    0 -0.11958946077E+02  0.12424283334E+03 -0.22203864658E+03  0.26669633133E+03  0.79034641402E+02 0.  0.
          6    2    1    2  502    0  0.41057854233E+02 -0.11280462338E+03  0.80516917600E+02  0.22540397236E+03  0.17295475213E+03 0.  0.
         24    2    5    5    0    0 -0.15669304102E+02 -0.93028871464E+02 -0.42909072285E+01  0.12136788243E+03  0.76235509986E+02 0.  0.
          4    1    6    6  501    0 -0.50149938162E+00 -0.39876577910E+02  0.35395524987E+02  0.53322004431E+02  0.00000000000E+00 0. -1.
         -3    1    6    6    0  501 -0.15167804721E+02 -0.53152293555E+02 -0.39686432216E+02  0.68045877995E+02  0.00000000000E+00 0.  1.
          5    1    5    5  502    0  0.56727158335E+02 -0.19775751921E+02  0.84807824829E+02  0.10403608994E+03  0.47000000000E+01 0. -1.
         11    1    4    4    0    0 -0.41233603802E+02  0.48230092190E+02 -0.12351780681E+03  0.13886324378E+03  0.00000000000E+00 0. -1.
        -12    1    4    4    0    0  0.29274657725E+02  0.76012741155E+02 -0.98520839771E+02  0.12783308755E+03  0.00000000000E+00 0.  1.
         -5    1    3    3    0  504 -0.29098908156E+02 -0.11438209960E+02  0.84144574654E+01  0.32718071419E+02  0.47000000000E+01 0.  1.
<mgrwt>
<rscale>  2 0.21034781E+03</rscale>
<asrwt>0</asrwt>
<pdfrwt beam="1">  1       21 0.30131624E-01 0.21053260E+03</pdfrwt>
<pdfrwt beam="2">  1       21 0.50609664E-01 0.21053260E+03</pdfrwt>
<totfact> 0.38895232E+04</totfact>
</mgrwt>
</event>
<event>
12    1  0.2742799E-001  0.2756420E+03  0.7546771E-02  0.1098531E+00
         21   -1    0    0  502  503  0.00000000000E+00  0.00000000000E+00  0.30047807379E+03  0.30047807379E+03  0.00000000000E+00 0.  1.
         21   -1    0    0  503  504 -0.00000000000E+00 -0.00000000000E+00 -0.25008401508E+03  0.25008401508E+03  0.00000000000E+00 0. -1.
         -6    2    1    2    0  504 -0.20965720422E+03 -0.23861616052E+02  0.20410280723E+02  0.27639657683E+03  0.17734984668E+03 0.  0.
        -24    2    3    3    0    0 -0.17438806510E+03  0.94163507136E+01 -0.43012279149E+02  0.19642254137E+03  0.78942344095E+02 0.  0.
          6    2    1    2  502    0  0.20965720422E+03  0.23861616052E+02  0.29983777986E+02  0.27416551205E+03  0.17245921562E+03 0.  0.
         24    2    5    5    0    0  0.16443215654E+03  0.41053881434E+02 -0.37405802309E+02  0.19107324731E+03  0.79915183201E+02 0.  0.
          4    1    6    6  501    0  0.16310772813E+03  0.54768139190E+02 -0.40915514930E+02  0.17685519333E+03  0.00000000000E+00 0. -1.
         -3    1    6    6    0  501  0.13244284170E+01 -0.13714257757E+02  0.35097126206E+01  0.14218053985E+02  0.00000000000E+00 0.  1.
          5    1    5    5  502    0  0.45225047680E+02 -0.17192265382E+02  0.67389580295E+02  0.83092264736E+02  0.47000000000E+01 0. -1.
         13    1    4    4    0    0 -0.11010329863E+03  0.19996925500E+02 -0.62815941059E+02  0.12832948161E+03  0.00000000000E+00 0. -1.
        -14    1    4    4    0    0 -0.64284766467E+02 -0.10580574787E+02  0.19803661910E+02  0.68093059761E+02  0.00000000000E+00 0.  1.
         -5    1    3    3    0  504 -0.35269139128E+02 -0.33277966766E+02  0.63422559872E+02  0.79974035459E+02  0.47000000000E+01 0.  1.
<mgrwt>
<rscale>  2 0.27485838E+03</rscale>
<asrwt>0</asrwt>
<pdfrwt beam="1">  1       21 0.46227396E-01 0.27564196E+03</pdfrwt>
<pdfrwt beam="2">  1       21 0.38474464E-01 0.27564196E+03</pdfrwt>
<totfact> 0.28062767E+04</totfact>
</mgrwt>
</event>
<event>
12    1  0.2742799E-001  0.1881761E+03  0.7546771E-02  0.1160464E+00
         21   -1    0    0  502  503  0.00000000000E+00  0.00000000000E+00  0.29797013709E+03  0.29797013709E+03  0.00000000000E+00 0.  1.
         21   -1    0    0  503  504 -0.00000000000E+00 -0.00000000000E+00 -0.15110131911E+03  0.15110131911E+03  0.00000000000E+00 0.  1.
         -6    2    1    2    0  504 -0.13156965917E+02 -0.69348808925E+02 -0.31611071510E+02  0.19081273926E+03  0.17443588670E+03 0.  0.
        -24    2    3    3    0    0 -0.11693759931E+02  0.27598893371E+02  0.78558483689E+01  0.86023781265E+02  0.80249197211E+02 0.  0.
          6    2    1    2  502    0  0.13156965917E+02  0.69348808925E+02  0.17847988949E+03  0.25825871694E+03  0.17280084163E+03 0.  0.
         24    2    5    5    0    0 -0.41557936787E+02 -0.11024948815E+02  0.86322850936E+02  0.12421144443E+03  0.78283055171E+02 0.  0.
          4    1    6    6  501    0 -0.64742511331E+02 -0.12698703078E+02  0.66267235548E+02  0.93510407659E+02  0.00000000000E+00 0. -1.
         -3    1    6    6    0  501  0.23184574544E+02  0.16737542627E+01  0.20055615387E+02  0.30701036769E+02  0.00000000000E+00 0.  1.
          5    1    5    5  502    0  0.54714902704E+02  0.80373757740E+02  0.92157038558E+02  0.13404727251E+03  0.47000000000E+01 0. -1.
         11    1    4    4    0    0  0.34037213307E+01 -0.23508957543E+01  0.39616682965E+02  0.39832067470E+02  0.00000000000E+00 0. -1.
        -12    1    4    4    0    0 -0.15097481261E+02  0.29949789126E+02 -0.31760834596E+02  0.46191713796E+02  0.00000000000E+00 0.  1.
         -5    1    3    3    0  504 -0.14632059868E+01 -0.96947702297E+02 -0.39466919879E+02  0.10478895799E+03  0.47000000000E+01 0.  1.
<mgrwt>
<rscale>  2 0.18779628E+03</rscale>
<asrwt>0</asrwt>
<pdfrwt beam="1">  1       21 0.45841560E-01 0.18817609E+03</pdfrwt>
<pdfrwt beam="2">  1       21 0.23246357E-01 0.18817609E+03</pdfrwt>
<totfact> 0.79487511E+04</totfact>
</mgrwt>
</event>
<event>
12    1  0.2742799E-001  0.2702156E+03  0.7546771E-02  0.1101580E+00
         21   -1    0    0  502  503  0.00000000000E+00  0.00000000000E+00  0.97747820891E+03  0.97747820891E+03  0.00000000000E+00 0.  1.
         21   -1    0    0  503  504 -0.00000000000E+00 -0.00000000000E+00 -0.24103202998E+03  0.24103202998E+03  0.00000000000E+00 0. -1.
         -6    2    1    2    0  504 -0.20572007415E+03  0.26070380549E+02 -0.13850830054E+03  0.30364624275E+03  0.17325148706E+03 0.  0.
        -24    2    3    3    0    0 -0.12886013304E+03  0.30587147134E+01 -0.16217390396E+03  0.21986594616E+03  0.73663895711E+02 0.  0.
          6    2    1    2  502    0  0.20572007415E+03 -0.26070380549E+02  0.87495447947E+03  0.91486399614E+03  0.16861309748E+03 0.  0.
         24    2    5    5    0    0  0.15032877020E+03 -0.81709478900E+02  0.59744878592E+03  0.62642785802E+03  0.78686920261E+02 0.  0.
          4    1    6    6  501    0  0.43115813495E+02 -0.64953081816E+02  0.20750924053E+03  0.22167083957E+03  0.00000000000E+00 0. -1.
         -3    1    6    6    0  501  0.10721295671E+03 -0.16756397084E+02  0.38993954538E+03  0.40475701845E+03  0.00000000000E+00 0.  1.
          5    1    5    5  502    0  0.55391303942E+02  0.55639098351E+02  0.27750569356E+03  0.28843613812E+03  0.47000000000E+01 0. -1.
         11    1    4    4    0    0 -0.21793653966E+02 -0.29386816657E+02 -0.40083079934E+02  0.54269712026E+02  0.00000000000E+00 0. -1.
        -12    1    4    4    0    0 -0.10706647907E+03  0.32445531370E+02 -0.12209082403E+03  0.16559623413E+03  0.00000000000E+00 0.  1.
         -5    1    3    3    0  504 -0.76859941111E+02  0.23011665835E+02  0.23665603422E+02  0.83780296594E+02  0.47000000000E+01 0.  1.
<mgrwt>
<rscale>  2 0.26947504E+03</rscale>
<asrwt>0</asrwt>
<pdfrwt beam="1">  1       21 0.15038126E+00 0.27021564E+03</pdfrwt>
<pdfrwt beam="2">  1       21 0.37081851E-01 0.27021564E+03</pdfrwt>
<totfact> 0.19537686E+03</totfact>
</mgrwt>
</event>
<event>
12    1  0.2742799E-001  0.2443991E+03  0.7546771E-02  0.1116906E+00
         21   -1    0    0  502  503  0.00000000000E+00  0.00000000000E+00  0.29180391915E+03  0.29180391915E+03  0.00000000000E+00 0. -1.
         21   -1    0    0  503  504 -0.00000000000E+00 -0.00000000000E+00 -0.37200266379E+03  0.37200266379E+03  0.00000000000E+00 0.  1.
         -6    2    1    2    0  504 -0.15193981204E+02  0.17175284321E+03 -0.26272003143E+03  0.35882132278E+03  0.17320805567E+03 0.  0.
        -24    2    3    3    0    0 -0.21082891968E+01  0.10768298314E+03 -0.26386139756E+03  0.29325017805E+03  0.69085165282E+02 0.  0.
          6    2    1    2  502    0  0.15193981204E+02 -0.17175284321E+03  0.18252128680E+03  0.30498526016E+03  0.17312450019E+03 0.  0.
         24    2    5    5    0    0 -0.26157861447E+02 -0.80383704831E+02  0.15170307346E+03  0.19996075534E+03  0.99119662344E+02 0.  0.
          4    1    6    6  501    0 -0.89038861836E+01 -0.57377450453E+02  0.15985214781E+03  0.17007104448E+03  0.00000000000E+00 0. -1.
         -3    1    6    6    0  501 -0.17253975263E+02 -0.23006254378E+02 -0.81490743531E+01  0.29889710867E+02  0.00000000000E+00 0.  1.
          5    1    5    5  502    0  0.41351842651E+02 -0.91369138375E+02  0.30818213340E+02  0.10502450481E+03  0.47000000000E+01 0. -1.
         11    1    4    4    0    0  0.20509869087E+02  0.38579957983E+02 -0.16401176808E+03  0.16973192969E+03  0.00000000000E+00 0. -1.
        -12    1    4    4    0    0 -0.22618158284E+02  0.69103025159E+02 -0.99849629482E+02  0.12351824836E+03  0.00000000000E+00 0.  1.
         -5    1    3    3    0  504 -0.13085692007E+02  0.64069860064E+02  0.11413661279E+01  0.65571144725E+02  0.47000000000E+01 0.  1.
<mgrwt>
<rscale>  2 0.24438431E+03</rscale>
<asrwt>0</asrwt>
<pdfrwt beam="1">  1       21 0.44892910E-01 0.24439911E+03</pdfrwt>
<pdfrwt beam="2">  1       21 0.57231179E-01 0.24439911E+03</pdfrwt>
<totfact> 0.13234687E+04</totfact>
</mgrwt>
</event>
<event>
12    1  0.2742799E-001  0.1751872E+03  0.7546771E-02  0.1173156E+00
         21   -1    0    0  502  503  0.00000000000E+00  0.00000000000E+00  0.99457224366E+02  0.99457224366E+02  0.00000000000E+00 0.  1.
         21   -1    0    0  503  504 -0.00000000000E+00 -0.00000000000E+00 -0.31586776969E+03  0.31586776969E+03  0.00000000000E+00 0. -1.
         -6    2    1    2    0  504 -0.24245789833E+02  0.11718737893E+02 -0.67784344049E+02  0.18558532418E+03  0.17065171581E+03 0.  0.
        -24    2    3    3    0    0 -0.56012469178E+02 -0.34047070666E+02 -0.60794801398E+01  0.10231941651E+03  0.78330729549E+02 0.  0.
          6    2    1    2  502    0  0.24245789833E+02 -0.11718737893E+02 -0.14862620127E+03  0.22973966988E+03  0.17310511566E+03 0.  0.
         24    2    5    5    0    0  0.20355289102E+02 -0.51819188819E+02 -0.16063410053E+03  0.18743763914E+03  0.78930274209E+02 0.  0.
          4    1    6    6  501    0  0.10799723567E+02 -0.61236192248E+02 -0.16240811981E+03  0.17390486667E+03  0.00000000000E+00 0. -1.
         -3    1    6    6    0  501  0.95555655349E+01  0.94170034286E+01  0.17740192791E+01  0.13532772468E+02  0.00000000000E+00 0.  1.
          5    1    5    5  502    0  0.38905007303E+01  0.40100450926E+02  0.12007899257E+02  0.42302030743E+02  0.47000000000E+01 0. -1.
         13    1    4    4    0    0 -0.49783828314E+02 -0.38400533270E+02 -0.35315083665E+02  0.72112312757E+02  0.00000000000E+00 0. -1.
        -14    1    4    4    0    0 -0.62286408644E+01  0.43534626033E+01  0.29235603525E+02  0.30207103753E+02  0.00000000000E+00 0.  1.
         -5    1    3    3    0  504  0.31766679346E+02  0.45765808559E+02 -0.61704863909E+02  0.83265907668E+02  0.47000000000E+01 0.  1.
<mgrwt>
<rscale>  2 0.17457811E+03</rscale>
<asrwt>0</asrwt>
<pdfrwt beam="1">  1       21 0.15301112E-01 0.17518724E+03</pdfrwt>
<pdfrwt beam="2">  1       21 0.48595041E-01 0.17518724E+03</pdfrwt>
<totfact> 0.15383712E+05</totfact>
</mgrwt>
</event>
<event>
12    1  0.2742799E-001  0.2411864E+03  0.7546771E-02  0.1119491E+00
         21   -1    0    0  502  503  0.00000000000E+00  0.00000000000E+00  0.28808271289E+03  0.28808271289E+03  0.00000000000E+00 0. -1.
         21   -1    0    0  503  504 -0.00000000000E+00 -0.00000000000E+00 -0.48476495702E+03  0.48476495702E+03  0.00000000000E+00 0. -1.
         -6    2    1    2    0  504 -0.15123986242E+02 -0.16270405031E+03 -0.39502059598E+03  0.46283058405E+03  0.17739654828E+03 0.  0.
        -24    2    3    3    0    0 -0.44256470679E+02 -0.75967756021E+02 -0.32810767355E+03  0.34937876351E+03  0.81738239524E+02 0.  0.
          6    2    1    2  502    0  0.15123986242E+02  0.16270405031E+03  0.19833835185E+03  0.31001708585E+03  0.17341034790E+03 0.  0.
         24    2    5    5    0    0 -0.50044726665E+02  0.69246530543E+02  0.65407909536E+02  0.13487753682E+03  0.81327723741E+02 0.  0.
          2    1    6    6  501    0 -0.37032258081E+02  0.33413886967E+00  0.51416545809E+02  0.63365297839E+02  0.00000000000E+00 0. -1.
         -1    1    6    6    0  501 -0.13012468584E+02  0.68912391673E+02  0.13991363727E+02  0.71512238978E+02  0.00000000000E+00 0.  1.
          5    1    5    5  502    0  0.65168712907E+02  0.93457519764E+02  0.13293044232E+03  0.17513954904E+03  0.47000000000E+01 0. -1.
         11    1    4    4    0    0  0.26065246901E+00  0.12437796489E+02 -0.99339692079E+02  0.10011563886E+03  0.00000000000E+00 0. -1.
        -12    1    4    4    0    0 -0.44517123148E+02 -0.88405552510E+02 -0.22876798147E+03  0.24926312465E+03  0.00000000000E+00 0.  1.
         -5    1    3    3    0  504  0.29132484437E+02 -0.86736294285E+02 -0.66912922436E+02  0.11345182054E+03  0.47000000000E+01 0.  1.
<mgrwt>
<rscale>  2 0.24045391E+03</rscale>
<asrwt>0</asrwt>
<pdfrwt beam="1">  1       21 0.44320418E-01 0.24118640E+03</pdfrwt>
<pdfrwt beam="2">  1       21 0.74579224E-01 0.24118640E+03</pdfrwt>
<totfact> 0.76195928E+03</totfact>
</mgrwt>
</event>
<event>
12    1  0.2742799E-001  0.1888549E+03  0.7546771E-02  0.1160812E+00
         21   -1    0    0  502  503  0.00000000000E+00  0.00000000000E+00  0.37892454231E+03  0.37892454231E+03  0.00000000000E+00 0.  1.
         21   -1    0    0  503  504 -0.00000000000E+00 -0.00000000000E+00 -0.91935127023E+02  0.91935127023E+02  0.00000000000E+00 0.  1.
         -6    2    1    2    0  504 -0.56725650701E+02 -0.36060984059E+02  0.12193502722E+03  0.22004271927E+03  0.17038912355E+03 0.  0.
        -24    2    3    3    0    0 -0.70725557890E+02 -0.17644689815E+02  0.13339057010E+02  0.10891067151E+03  0.79813309094E+02 0.  0.
          6    2    1    2  502    0  0.56725650701E+02  0.36060984059E+02  0.16505438807E+03  0.25081695006E+03  0.17648795256E+03 0.  0.
         24    2    5    5    0    0 -0.36093538839E+02  0.22953471128E+02  0.79527370212E+02  0.12383596871E+03  0.84741602240E+02 0.  0.
          4    1    6    6  501    0 -0.26557773577E+02 -0.28611295932E+02  0.17981796920E+02  0.42979839608E+02  0.00000000000E+00 0. -1.
         -3    1    6    6    0  501 -0.95357652622E+01  0.51564767060E+02  0.61545573292E+02  0.80856129100E+02  0.00000000000E+00 0.  1.
          5    1    5    5  502    0  0.92819189540E+02  0.13107512931E+02  0.85527017854E+02  0.12698098135E+03  0.47000000000E+01 0. -1.
         13    1    4    4    0    0 -0.33930142379E+01  0.99027843386E+01  0.32114184177E+02  0.33777189176E+02  0.00000000000E+00 0. -1.
        -14    1    4    4    0    0 -0.67332543652E+02 -0.27547474154E+02 -0.18775127167E+02  0.75133482330E+02  0.00000000000E+00 0.  1.
         -5    1    3    3    0  504  0.13999907189E+02 -0.18416294244E+02  0.10859597021E+03  0.11113204776E+03  0.47000000000E+01 0.  1.
<mgrwt>
<rscale>  2 0.18741696E+03</rscale>
<asrwt>0</asrwt>
<pdfrwt beam="1">  1       21 0.58296082E-01 0.18885495E+03</pdfrwt>
<pdfrwt beam="2">  1       21 0.14143866E-01 0.18885495E+03</pdfrwt>
<totfact> 0.12046598E+05</totfact>
</mgrwt>
</event>
<event>
12    1  0.2742799E-001  0.2134482E+03  0.7546771E-02  0.1138990E+00
         21   -1    0    0  502  503  0.00000000000E+00  0.00000000000E+00  0.23956245736E+02  0.23956245736E+02  0.00000000000E+00 0.  1.
         21   -1    0    0  503  504 -0.00000000000E+00 -0.00000000000E+00 -0.18996622550E+04  0.18996622550E+04  0.00000000000E+00 0.  1.
         -6    2    1    2    0  504 -0.39041237750E+02  0.11605677011E+03 -0.98140105294E+03  0.10043446326E+04  0.17483341240E+03 0.  0.
        -24    2    3    3    0    0 -0.57907395079E+02  0.71778551354E+02 -0.90990979901E+03  0.91803367185E+03  0.79652705391E+02 0.  0.
          6    2    1    2  502    0  0.39041237750E+02 -0.11605677011E+03 -0.89430495635E+03  0.91927386821E+03  0.17403935672E+03 0.  0.
         24    2    5    5    0    0  0.74599987135E+02 -0.30198218181E+02 -0.58803821858E+03  0.59918400542E+03  0.82191455616E+02 0.  0.
          2    1    6    6  501    0  0.26482852971E+02  0.27142390348E+02 -0.14554881442E+03  0.15040780643E+03  0.00000000000E+00 0. -1.
         -1    1    6    6    0  501  0.48117134164E+02 -0.57340608529E+02 -0.44248940416E+03  0.44877619899E+03  0.00000000000E+00 0.  1.
          5    1    5    5  502    0 -0.35558749385E+02 -0.85858551933E+02 -0.30626673777E+03  0.32008986279E+03  0.47000000000E+01 0. -1.
         13    1    4    4    0    0 -0.30371996181E+02  0.45475698850E+02 -0.79703281753E+03  0.79890663382E+03  0.00000000000E+00 0. -1.
        -14    1    4    4    0    0 -0.27535398898E+02  0.26302852504E+02 -0.11287698148E+03  0.11912703804E+03  0.00000000000E+00 0.  1.
         -5    1    3    3    0  504  0.18866157329E+02  0.44278218760E+02 -0.71491253928E+02  0.86310960701E+02  0.47000000000E+01 0.  1.
<mgrwt>
<rscale>  2 0.21328549E+03</rscale>
<asrwt>0</asrwt>
<pdfrwt beam="1">  1       21 0.36855762E-02 0.21344815E+03</pdfrwt>
<pdfrwt beam="2">  1       21 0.29225574E+00 0.21344815E+03</pdfrwt>
<totfact> 0.16661257E+04</totfact>
</mgrwt>
</event>
<event>
12    1  0.2742799E-001  0.2544386E+03  0.7546771E-02  0.1110772E+00
         21   -1    0    0  502  503  0.00000000000E+00  0.00000000000E+00  0.11093964666E+03  0.11093964666E+03  0.00000000000E+00 0.  1.
         21   -1    0    0  503  504 -0.00000000000E+00 -0.00000000000E+00 -0.58096510560E+03  0.58096510560E+03  0.00000000000E+00 0. -1.
         -6    2    1    2    0  504  0.41542175378E+02  0.17953054413E+03 -0.22160786752E+03  0.33741527587E+03  0.17544814855E+03 0.  0.
        -24    2    3    3    0    0 -0.27942636644E+02  0.62216667988E+02 -0.45548877155E+02  0.11468327833E+03  0.80161395949E+02 0.  0.
          6    2    1    2  502    0 -0.41542175378E+02 -0.17953054413E+03 -0.24841759142E+03  0.35448947639E+03  0.17318926217E+03 0.  0.
         24    2    5    5    0    0 -0.85097884961E+02 -0.11129869361E+03 -0.21025616477E+03  0.26487324043E+03  0.79505530941E+02 0.  0.
          2    1    6    6  501    0 -0.80315428437E+02 -0.10212611329E+03 -0.21671564638E+03  0.25267762554E+03  0.00000000000E+00 0. -1.
         -1    1    6    6    0  501 -0.47824565238E+01 -0.91725803199E+01  0.64594816082E+01  0.12195614899E+02  0.00000000000E+00 0.  1.
          5    1    5    5  502    0  0.43555709584E+02 -0.68231850521E+02 -0.38161426654E+02  0.89616235957E+02  0.47000000000E+01 0. -1.
         13    1    4    4    0    0 -0.34550326623E+02 -0.26727797040E+01 -0.33801585996E+02  0.48408842549E+02  0.00000000000E+00 0. -1.
        -14    1    4    4    0    0  0.66076899783E+01  0.64889447692E+02 -0.11747291159E+02  0.66274435782E+02  0.00000000000E+00 0.  1.
         -5    1    3    3    0  504  0.69484812022E+02  0.11731387614E+03 -0.17605899037E+03  0.22273199753E+03  0.47000000000E+01 0.  1.
<mgrwt>
<rscale>  2 0.25404967E+03</rscale>
<asrwt>0</asrwt>
<pdfrwt beam="1">  1       21 0.17067638E-01 0.25443864E+03</pdfrwt>
<pdfrwt beam="2">  1       21 0.89379249E-01 0.25443864E+03</pdfrwt>
<totfact> 0.32050837E+04</totfact>
</mgrwt>
</event>
<event>
12    1  0.2742799E-001  0.1838901E+03  0.7546771E-02  0.1164228E+00
         21   -1    0    0  502  503  0.00000000000E+00  0.00000000000E+00  0.18955203260E+03  0.18955203260E+03  0.00000000000E+00 0. -1.
         21   -1    0    0  503  504 -0.00000000000E+00 -0.00000000000E+00 -0.73356245805E+03  0.73356245805E+03  0.00000000000E+00 0.  1.
         -6    2    1    2    0  504 -0.54838723995E+00  0.63931859688E+02 -0.67363464120E+03  0.69813001247E+03  0.17179726735E+03 0.  0.
        -24    2    3    3    0    0  0.42487316676E+02  0.75893869337E+02 -0.30916031127E+03  0.33089876561E+03  0.79679630643E+02 0.  0.
          6    2    1    2  502    0  0.54838723995E+00 -0.63931859688E+02  0.12962421575E+03  0.22498447819E+03  0.17241808114E+03 0.  0.
         24    2    5    5    0    0  0.27112315328E+02 -0.10545927117E+03  0.95444791388E+02  0.16481396025E+03  0.78722282559E+02 0.  0.
          4    1    6    6  501    0  0.52367293540E+02 -0.78083987360E+02  0.51466752746E+02  0.10718334364E+03  0.00000000000E+00 0. -1.
         -3    1    6    6    0  501 -0.25254978212E+02 -0.27375283806E+02  0.43978038642E+02  0.57630616609E+02  0.00000000000E+00 0.  1.
          5    1    5    5  502    0 -0.26563928088E+02  0.41527411478E+02  0.34179424366E+02  0.60170517943E+02  0.47000000000E+01 0. -1.
         11    1    4    4    0    0  0.32563810586E+01  0.78390645337E+02 -0.21462312770E+03  0.22851429766E+03  0.00000000000E+00 0. -1.
        -12    1    4    4    0    0  0.39230935618E+02 -0.24967759998E+01 -0.94537183570E+02  0.10238446795E+03  0.00000000000E+00 0.  1.
         -5    1    3    3    0  504 -0.43035703916E+02 -0.11962009649E+02 -0.36447432994E+03  0.36723124686E+03  0.47000000000E+01 0.  1.
<mgrwt>
<rscale>  2 0.18374446E+03</rscale>
<asrwt>0</asrwt>
<pdfrwt beam="1">  1       21 0.29161851E-01 0.18389013E+03</pdfrwt>
<pdfrwt beam="2">  1       21 0.11285576E+00 0.18389013E+03</pdfrwt>
<totfact> 0.69574638E+03</totfact>
</mgrwt>
</event>
<event>
12    1  0.2742799E-001  0.2465778E+03  0.7546771E-02  0.1115557E+00
         21   -1    0    0  502  503  0.00000000000E+00  0.00000000000E+00  0.24530636471E+03  0.24530636471E+03  0.00000000000E+00 0. -1.
         21   -1    0    0  503  504 -0.00000000000E+00 -0.00000000000E+00 -0.24849582259E+03  0.24849582259E+03  0.00000000000E+00 0.  1.
         -6    2    1    2    0  504 -0.11438476080E+03  0.13026411534E+03 -0.17861071294E+02  0.24722385270E+03  0.17535108276E+03 0.  0.
        -24    2    3    3    0    0  0.93494108550E+00  0.31608893910E+02 -0.36812579873E+02  0.94211643916E+02  0.80750675064E+02 0.  0.
          6    2    1    2  502    0  0.11438476080E+03 -0.13026411534E+03  0.14671613423E+02  0.24657833460E+03  0.17473696119E+03 0.  0.
         24    2    5    5    0    0 -0.57625312641E+01 -0.82944617980E+02  0.13210853959E+01  0.11667516598E+03  0.81843342252E+02 0.  0.
          4    1    6    6  501    0 -0.22676371804E+02 -0.18861735454E+02  0.32105290177E+02  0.43597391664E+02  0.00000000000E+00 0. -1.
         -3    1    6    6    0  501  0.16913840540E+02 -0.64082882526E+02 -0.30784204781E+02  0.73077774314E+02  0.00000000000E+00 0.  1.
          5    1    5    5  502    0  0.12014729206E+03 -0.47319497363E+02  0.13350528028E+02  0.12990316863E+03  0.47000000000E+01 0. -1.
         13    1    4    4    0    0 -0.24874129934E+02  0.37664900598E+02  0.42481056162E+01  0.45336668144E+02  0.00000000000E+00 0. -1.
        -14    1    4    4    0    0  0.25809071019E+02 -0.60560066880E+01 -0.41060685489E+02  0.48874975772E+02  0.00000000000E+00 0.  1.
         -5    1    3    3    0  504 -0.11531970188E+03  0.98655221433E+02  0.18951508579E+02  0.15301220878E+03  0.47000000000E+01 0.  1.
<mgrwt>
<rscale>  2 0.24646865E+03</rscale>
<asrwt>0</asrwt>
<pdfrwt beam="1">  1       21 0.37739441E-01 0.24657781E+03</pdfrwt>
<pdfrwt beam="2">  1       21 0.38230127E-01 0.24657781E+03</pdfrwt>
<totfact> 0.43579546E+04</totfact>
</mgrwt>
</event>
<event>
12    1  0.2742799E-001  0.1931273E+03  0.7546771E-02  0.1155724E+00
         21   -1    0    0  502  503  0.00000000000E+00  0.00000000000E+00  0.14901772846E+03  0.14901772846E+03  0.00000000000E+00 0.  1.
         21   -1    0    0  503  504 -0.00000000000E+00 -0.00000000000E+00 -0.64622871975E+03  0.64622871975E+03  0.00000000000E+00 0.  1.
         -6    2    1    2    0  504 -0.53546480804E+02 -0.65878975039E+02 -0.56002483227E+03  0.59239003620E+03  0.17346722248E+03 0.  0.
        -24    2    3    3    0    0 -0.52069511391E+02  0.55562793419E+01 -0.15809339483E+03  0.18413013441E+03  0.78538389681E+02 0.  0.
          6    2    1    2  502    0  0.53546480804E+02  0.65878975039E+02  0.62813840981E+02  0.20285641201E+03  0.17319896165E+03 0.  0.
         24    2    5    5    0    0 -0.31541486262E+02  0.58501274646E+02  0.48877206289E+02  0.11619204569E+03  0.81818981276E+02 0.  0.
          4    1    6    6  501    0 -0.29818149092E+02  0.40266471474E+01 -0.13825600011E+02  0.33113186470E+02  0.00000000000E+00 0. -1.
         -3    1    6    6    0  501 -0.17233371703E+01  0.54474627498E+02  0.62702806300E+02  0.83078859224E+02  0.00000000000E+00 0.  1.
          5    1    5    5  502    0  0.85087967066E+02  0.73777003937E+01  0.13936634692E+02  0.86664366317E+02  0.47000000000E+01 0. -1.
         13    1    4    4    0    0 -0.59645886021E+02 -0.13365347946E+02 -0.66617488496E+02  0.90411028191E+02  0.00000000000E+00 0. -1.
        -14    1    4    4    0    0  0.75763746294E+01  0.18921627288E+02 -0.91475906330E+02  0.93719106220E+02  0.00000000000E+00 0.  1.
         -5    1    3    3    0  504 -0.14769694130E+01 -0.71435254381E+02 -0.40193143744E+03  0.40825990179E+03  0.47000000000E+01 0.  1.
<mgrwt>
<rscale>  2 0.19306701E+03</rscale>
<asrwt>0</asrwt>
<pdfrwt beam="1">  1       21 0.22925804E-01 0.19312727E+03</pdfrwt>
<pdfrwt beam="2">  1       21 0.99419803E-01 0.19312727E+03</pdfrwt>
<totfact> 0.14860026E+04</totfact>
</mgrwt>
</event>
<event>
12    1  0.2742799E-001  0.2384269E+03  0.7546771E-02  0.1120853E+00
         21   -1    0    0  502  503  0.00000000000E+00  0.00000000000E+00  0.38373888343E+03  0.38373888343E+03  0.00000000000E+00 0.  1.
         21   -1    0    0  503  504 -0.00000000000E+00 -0.00000000000E+00 -0.14835097587E+03  0.14835097587E+03  0.00000000000E+00 0. -1.
         -6    2    1    2    0  504  0.16188655518E+03 -0.26301705896E+02  0.10701793178E+03  0.26130172089E+03  0.17299339623E+03 0.  0.
        -24    2    3    3    0    0  0.96419327906E+02 -0.36909072908E+02 -0.50432962560E+01  0.13100098064E+03  0.80478914226E+02 0.  0.
          6    2    1    2  502    0 -0.16188655518E+03  0.26301705896E+02  0.12836997579E+03  0.27078813841E+03  0.17305585439E+03 0.  0.
         24    2    5    5    0    0 -0.30770172254E+02 -0.40149324941E+02  0.48308087084E+02  0.10333891806E+03  0.76068974722E+02 0.  0.
          4    1    6    6  501    0 -0.78019419056E+01 -0.55756986358E+02  0.11891108980E+02  0.57542247940E+02  0.00000000000E+00 0. -1.
         -3    1    6    6    0  501 -0.22968230349E+02  0.15607661417E+02  0.36416978104E+02  0.45796670125E+02  0.00000000000E+00 0.  1.
          5    1    5    5  502    0 -0.13111638293E+03  0.66451030836E+02  0.80061888703E+02  0.16744922035E+03  0.47000000000E+01 0. -1.
         11    1    4    4    0    0  0.58921119700E+02 -0.37204552728E+01 -0.38766386759E+02  0.70628414087E+02  0.00000000000E+00 0. -1.
        -12    1    4    4    0    0  0.37498208206E+02 -0.33188617635E+02  0.33723090503E+02  0.60372566553E+02  0.00000000000E+00 0.  1.
         -5    1    3    3    0  504  0.65467227279E+02  0.10607367012E+02  0.11206122803E+03  0.13030074025E+03  0.47000000000E+01 0.  1.
<mgrwt>
<rscale>  2 0.23841552E+03</rscale>
<asrwt>0</asrwt>
<pdfrwt beam="1">  1       21 0.59036751E-01 0.23842686E+03</pdfrwt>
<pdfrwt beam="2">  1       21 0.22823227E-01 0.23842686E+03</pdfrwt>
<totfact> 0.47297821E+04</totfact>
</mgrwt>
</event>
<event>
12    1  0.2742799E-001  0.1944131E+03  0.7546771E-02  0.1154822E+00
         21   -1    0    0  502  503  0.00000000000E+00  0.00000000000E+00  0.40437129814E+02  0.40437129814E+02  0.00000000000E+00 0.  1.
         21   -1    0    0  503  504 -0.00000000000E+00 -0.00000000000E+00 -0.12232177679E+04  0.12232177679E+04  0.00000000000E+00 0.  1.
         -6    2    1    2    0  504  0.44358355646E+02  0.74898141930E+02 -0.90298680381E+03  0.92367832021E+03  0.17383634833E+03 0.  0.
        -24    2    3    3    0    0 -0.28617871050E+02 -0.60371045051E+01 -0.36354799898E+03  0.37332174677E+03  0.79665236296E+02 0.  0.
          6    2    1    2  502    0 -0.44358355646E+02 -0.74898141930E+02 -0.27979383431E+03  0.33997657754E+03  0.17240095178E+03 0.  0.
         24    2    5    5    0    0 -0.90571675159E+02 -0.77131822805E+02 -0.18259865926E+03  0.23222848110E+03  0.80220013978E+02 0.  0.
          2    1    6    6  501    0 -0.34912431681E+02 -0.30746806432E+02 -0.13781008122E+02  0.48519688545E+02  0.00000000000E+00 0. -1.
         -1    1    6    6    0  501 -0.55659243478E+02 -0.46385016373E+02 -0.16881765113E+03  0.18370879256E+03  0.00000000000E+00 0.  1.
          5    1    5    5  502    0  0.46213319513E+02  0.22336808757E+01 -0.97195175058E+02  0.10774809643E+03  0.47000000000E+01 0. -1.
         13    1    4    4    0    0 -0.48770623800E+02 -0.15189697364E+02 -0.14653922802E+03  0.15518713220E+03  0.00000000000E+00 0. -1.
        -14    1    4    4    0    0  0.20152752750E+02  0.91525928588E+01 -0.21700877096E+03  0.21813461457E+03  0.00000000000E+00 0.  1.
         -5    1    3    3    0  504  0.72976226696E+02  0.80935246435E+02 -0.53943880482E+03  0.55035657344E+03  0.47000000000E+01 0.  1.
<mgrwt>
<rscale>  2 0.19409175E+03</rscale>
<asrwt>0</asrwt>
<pdfrwt beam="1">  1       21 0.62210984E-02 0.19441315E+03</pdfrwt>
<pdfrwt beam="2">  1       21 0.18818730E+00 0.19441315E+03</pdfrwt>
<totfact> 0.29677292E+04</totfact>
</mgrwt>
</event>
<event>
12    1  0.2742799E-001  0.2022779E+03  0.7546771E-02  0.1148159E+00
         21   -1    0    0  502  503  0.00000000000E+00  0.00000000000E+00  0.16488784521E+03  0.16488784521E+03  0.00000000000E+00 0.  1.
         21   -1    0    0  503  504 -0.00000000000E+00 -0.00000000000E+00 -0.35377181526E+03  0.35377181526E+03  0.00000000000E+00 0.  1.
         -6    2    1    2    0  504 -0.98443747881E+02 -0.20570545064E+02  0.48285802731E+02  0.20796118502E+03  0.17550503386E+03 0.  0.
        -24    2    3    3    0    0 -0.56917227102E+02  0.56915238931E+02  0.25186524971E+02  0.11694379502E+03  0.81009721578E+02 0.  0.
          6    2    1    2  502    0  0.98443747881E+02  0.20570545064E+02 -0.23716977278E+03  0.31069847546E+03  0.17369433701E+03 0.  0.
         24    2    5    5    0    0  0.12841479037E+03 -0.10735880492E+02 -0.20586628297E+03  0.25702954456E+03  0.84128727556E+02 0.  0.
          4    1    6    6  501    0  0.41131528220E+02 -0.39164648663E+02 -0.47761284585E+02  0.74207901357E+02  0.00000000000E+00 0. -1.
         -3    1    6    6    0  501  0.87283262150E+02  0.28428768172E+02 -0.15810499838E+03  0.18282164321E+03  0.00000000000E+00 0.  1.
          5    1    5    5  502    0 -0.29971042489E+02  0.31306425556E+02 -0.31303489813E+02  0.53668930895E+02  0.47000000000E+01 0. -1.
         11    1    4    4    0    0  0.17059666262E+01 -0.17587211750E+02  0.11689621687E+02  0.21186495567E+02  0.00000000000E+00 0. -1.
        -12    1    4    4    0    0 -0.58623193728E+02  0.74502450681E+02  0.13496903284E+02  0.95757299453E+02  0.00000000000E+00 0.  1.
         -5    1    3    3    0  504 -0.41526520779E+02 -0.77485783995E+02  0.23099277760E+02  0.91017390000E+02  0.47000000000E+01 0.  1.
<mgrwt>
<rscale>  2 0.20188447E+03</rscale>
<asrwt>0</asrwt>
<pdfrwt beam="1">  1       21 0.25367361E-01 0.20227787E+03</pdfrwt>
<pdfrwt beam="2">  1       21 0.54426433E-01 0.20227787E+03</pdfrwt>
<totfact> 0.46751734E+04</totfact>
</mgrwt>
</event>
<event>
12    1  0.2742799E-001  0.1862190E+03  0.7546771E-02  0.1162871E+00
         21   -1    0    0  502  503  0.00000000000E+00  0.00000000000E+00  0.10260511253E+04  0.10260511253E+04  0.00000000000E+00 0.  1.
         21   -1    0    0  503  504 -0.00000000000E+00 -0.00000000000E+00 -0.56703298922E+02  0.56703298922E+02  0.00000000000E+00 0.  1.
         -6    2    1    2    0  504 -0.42040943873E+02  0.51931857135E+02  0.13198506797E+03  0.22493516126E+03  0.16944441524E+03 0.  0.
        -24    2    3    3    0    0 -0.23110821812E+01  0.92571679317E+02  0.11001324553E+03  0.16382126727E+03  0.78483351777E+02 0.  0.
          6    2    1    2  502    0  0.42040943873E+02 -0.51931857135E+02  0.83736275840E+03  0.85781926296E+03  0.17381927394E+03 0.  0.
         24    2    5    5    0    0  0.32547410378E+02 -0.66413751525E+02  0.83222013778E+03  0.83915408173E+03  0.78224643473E+02 0.  0.
          4    1    6    6  501    0  0.27635038811E+02 -0.30215679394E+01  0.50789385990E+03  0.50865410464E+03  0.00000000000E+00 0. -1.
         -3    1    6    6    0  501  0.49123715671E+01 -0.63392183586E+02  0.32432627788E+03  0.33049997709E+03  0.00000000000E+00 0.  1.
          5    1    5    5  502    0  0.94935334945E+01  0.14481894390E+02  0.51426206226E+01  0.18665181226E+02  0.47000000000E+01 0. -1.
         13    1    4    4    0    0  0.43154954479E+01  0.22907347017E+02  0.87132700725E+02  0.90196882341E+02  0.00000000000E+00 0. -1.
        -14    1    4    4    0    0 -0.66265776290E+01  0.69664332301E+02  0.22880544804E+02  0.73624384931E+02  0.00000000000E+00 0.  1.
         -5    1    3    3    0  504 -0.39729861692E+02 -0.40639822182E+02  0.21971822443E+02  0.61113893989E+02  0.47000000000E+01 0.  1.
<mgrwt>
<rscale>  2 0.18519128E+03</rscale>
<asrwt>0</asrwt>
<pdfrwt beam="1">  1       21 0.15785401E+00 0.18621895E+03</pdfrwt>
<pdfrwt beam="2">  1       21 0.87235852E-02 0.18621895E+03</pdfrwt>
<totfact> 0.27040650E+04</totfact>
</mgrwt>
</event>
<event>
12    1  0.2742799E-001  0.2030311E+03  0.7546771E-02  0.1147490E+00
         21   -1    0    0  502  503  0.00000000000E+00  0.00000000000E+00  0.17881184732E+03  0.17881184732E+03  0.00000000000E+00 0. -1.
         21   -1    0    0  503  504 -0.00000000000E+00 -0.00000000000E+00 -0.30057734455E+03  0.30057734455E+03  0.00000000000E+00 0. -1.
         -6    2    1    2    0  504 -0.10401579709E+03  0.10286065771E+02  0.55940428290E+02  0.21059670974E+03  0.17405905159E+03 0.  0.
        -24    2    3    3    0    0 -0.16816334094E+01  0.21511087278E+02  0.66524682311E+02  0.10699941924E+03  0.80980167914E+02 0.  0.
          6    2    1    2  502    0  0.10401579709E+03 -0.10286065771E+02 -0.17770592553E+03  0.26879248213E+03  0.17246713684E+03 0.  0.
         24    2    5    5    0    0  0.10072052539E+03 -0.46508731386E+02 -0.70561459793E+02  0.15554511193E+03  0.83112429316E+02 0.  0.
          4    1    6    6  501    0  0.80368060057E+02 -0.68923282322E+02 -0.66427446524E+02  0.12498819774E+03  0.00000000000E+00 0. -1.
         -3    1    6    6    0  501  0.20352465338E+02  0.22414550937E+02 -0.41340132691E+01  0.30556914189E+02  0.00000000000E+00 0.  1.
          5    1    5    5  502    0  0.32952716961E+01  0.36222665615E+02 -0.10714446573E+03  0.11324737020E+03  0.47000000000E+01 0. -1.
         11    1    4    4    0    0 -0.36411873115E+02 -0.61739168994E+01  0.43193597736E+02  0.56829821740E+02  0.00000000000E+00 0. -1.
        -12    1    4    4    0    0  0.34730239706E+02  0.27685004177E+02  0.23331084575E+02  0.50169597505E+02  0.00000000000E+00 0.  1.
         -5    1    3    3    0  504 -0.10233416368E+03 -0.11225021507E+02 -0.10584254021E+02  0.10359729049E+03  0.47000000000E+01 0.  1.
<mgrwt>
<rscale>  2 0.20268950E+03</rscale>
<asrwt>0</asrwt>
<pdfrwt beam="1">  1       21 0.27509515E-01 0.20303114E+03</pdfrwt>
<pdfrwt beam="2">  1       21 0.46242668E-01 0.20303114E+03</pdfrwt>
<totfact> 0.56205338E+04</totfact>
</mgrwt>
</event>
<event>
12    1  0.2742799E-001  0.2971197E+03  0.7546771E-02  0.1087216E+00
         21   -1    0    0  502  503  0.00000000000E+00  0.00000000000E+00  0.57668528319E+02  0.57668528319E+02  0.00000000000E+00 0.  1.
         21   -1    0    0  503  504 -0.00000000000E+00 -0.00000000000E+00 -0.22483684072E+04  0.22483684072E+04  0.00000000000E+00 0.  1.
         -6    2    1    2    0  504 -0.23638334232E+03 -0.26876815821E+02 -0.17511159497E+04  0.17754578895E+04  0.17100935700E+03 0.  0.
        -24    2    3    3    0    0 -0.54397995578E+02 -0.34132888673E+02 -0.33355549878E+03  0.34623745893E+03  0.67059012718E+02 0.  0.
          6    2    1    2  502    0  0.23638334232E+03  0.26876815821E+02 -0.43958392913E+03  0.53057904601E+03  0.17799057718E+03 0.  0.
         24    2    5    5    0    0  0.25769018866E+03  0.12772498358E+02 -0.37087087172E+03  0.45711825558E+03  0.69602629596E+02 0.  0.
          2    1    6    6  501    0  0.13832334201E+03 -0.27628620008E+02 -0.20365487611E+03  0.24773372026E+03  0.00000000000E+00 0. -1.
         -1    1    6    6    0  501  0.11936684665E+03  0.40401118366E+02 -0.16721599560E+03  0.20938453532E+03  0.00000000000E+00 0.  1.
          5    1    5    5  502    0 -0.21306846344E+02  0.14104317463E+02 -0.68713057413E+02  0.73460790435E+02  0.47000000000E+01 0. -1.
         11    1    4    4    0    0  0.13153744366E+02  0.29468537062E+01 -0.83389475380E+02  0.84471945294E+02  0.00000000000E+00 0. -1.
        -12    1    4    4    0    0 -0.67551739945E+02 -0.37079742379E+02 -0.25016602340E+03  0.26176551363E+03  0.00000000000E+00 0.  1.
         -5    1    3    3    0  504 -0.18198534674E+03  0.72560728520E+01 -0.14175604510E+04  0.14292204306E+04  0.47000000000E+01 0.  1.
<mgrwt>
<rscale>  2 0.29608204E+03</rscale>
<asrwt>0</asrwt>
<pdfrwt beam="1">  1       21 0.88720818E-02 0.29711966E+03</pdfrwt>
<pdfrwt beam="2">  1       21 0.34590281E+00 0.29711966E+03</pdfrwt>
<totfact> 0.16501445E+03</totfact>
</mgrwt>
</event>
<event>
12    1  0.2742799E-001  0.2017377E+03  0.7546771E-02  0.1149209E+00
         21   -1    0    0  502  503  0.00000000000E+00  0.00000000000E+00  0.37210183094E+03  0.37210183094E+03  0.00000000000E+00 0. -1.
         21   -1    0    0  503  504 -0.00000000000E+00 -0.00000000000E+00 -0.13084817125E+03  0.13084817125E+03  0.00000000000E+00 0. -1.
         -6    2    1    2    0  504 -0.85133392500E+02  0.47600837514E+02  0.12191683675E+02  0.19771649845E+03  0.17155069909E+03 0.  0.
        -24    2    3    3    0    0 -0.85720733701E+02  0.93760972447E+02  0.13407944128E+02  0.15129805043E+03  0.81068877864E+02 0.  0.
          6    2    1    2  502    0  0.85133392500E+02 -0.47600837514E+02  0.22906197601E+03  0.30523350374E+03  0.17659153065E+03 0.  0.
         24    2    5    5    0    0  0.69946783912E+02 -0.99278055804E+02  0.15087814942E+03  0.21017579121E+03  0.81614718609E+02 0.  0.
          4    1    6    6  501    0 -0.14491789011E+02 -0.27147269355E+02  0.56928667082E+02  0.64713671801E+02  0.00000000000E+00 0. -1.
         -3    1    6    6    0  501  0.84438572923E+02 -0.72130786450E+02  0.93949482341E+02  0.14546211941E+03  0.00000000000E+00 0.  1.
          5    1    5    5  502    0  0.15186608588E+02  0.51677218290E+02  0.78183826590E+02  0.95057712527E+02  0.47000000000E+01 0. -1.
         13    1    4    4    0    0 -0.39098855353E+02  0.30033845769E+02 -0.33358289531E+02  0.59527538687E+02  0.00000000000E+00 0. -1.
        -14    1    4    4    0    0 -0.46621878347E+02  0.63727126678E+02  0.46766233659E+02  0.91770511745E+02  0.00000000000E+00 0.  1.
         -5    1    3    3    0  504  0.58734120064E+00 -0.46160134933E+02 -0.12162604534E+01  0.46418448016E+02  0.47000000000E+01 0.  1.
<mgrwt>
<rscale>  2 0.20062924E+03</rscale>
<asrwt>0</asrwt>
<pdfrwt beam="1">  1       21 0.57246435E-01 0.20173771E+03</pdfrwt>
<pdfrwt beam="2">  1       21 0.20130488E-01 0.20173771E+03</pdfrwt>
<totfact> 0.65064963E+04</totfact>
</mgrwt>
</event>
<event>
12    1  0.2742799E-001  0.2341540E+03  0.7546771E-02  0.1124443E+00
         21   -1    0    0  502  503  0.00000000000E+00  0.00000000000E+00  0.17831460417E+04  0.17831460417E+04  0.00000000000E+00 0. -1.
         21   -1    0    0  503  504 -0.00000000000E+00 -0.00000000000E+00 -0.31696978263E+02  0.31696978263E+02  0.00000000000E+00 0. -1.
         -6    2    1    2    0  504 -0.13487963170E+03 -0.82041556829E+02  0.10640297647E+04  0.10886382290E+04  0.16748289836E+03 0.  0.
        -24    2    3    3    0    0 -0.16052606821E+03 -0.82703352609E+02  0.10026603625E+04  0.10219563633E+04  0.80365059871E+02 0.  0.
          6    2    1    2  502    0  0.13487963170E+03  0.82041556829E+02  0.68741929875E+03  0.72620479103E+03  0.17292996888E+03 0.  0.
         24    2    5    5    0    0  0.16789297212E+03  0.68507150888E+02  0.58485528460E+03  0.61751013713E+03  0.79886079643E+02 0.  0.
          4    1    6    6  501    0  0.96758140900E+02  0.61769474981E+02  0.24970356100E+03  0.27482626193E+03  0.00000000000E+00 0. -1.
         -3    1    6    6    0  501  0.71134831224E+02  0.67376759071E+01  0.33515172359E+03  0.34268387519E+03  0.00000000000E+00 0.  1.
          5    1    5    5  502    0 -0.33013340420E+02  0.13534405940E+02  0.10256401415E+03  0.10869465391E+03  0.47000000000E+01 0. -1.
         13    1    4    4    0    0 -0.67970315319E+02  0.38399324733E+01  0.43749606355E+03  0.44276123867E+03  0.00000000000E+00 0. -1.
        -14    1    4    4    0    0 -0.92555752889E+02 -0.86543285082E+02  0.56516429897E+03  0.57919512465E+03  0.00000000000E+00 0.  1.
         -5    1    3    3    0  504  0.25646436503E+02  0.66179578008E+00  0.61369402199E+02  0.66681865640E+02  0.47000000000E+01 0.  1.
<mgrwt>
<rscale>  2 0.23314919E+03</rscale>
<asrwt>0</asrwt>
<pdfrwt beam="1">  1       21 0.27433008E+00 0.23415402E+03</pdfrwt>
<pdfrwt beam="2">  1       21 0.48764596E-02 0.23415402E+03</pdfrwt>
<totfact> 0.12965856E+04</totfact>
</mgrwt>
</event>
<event>
12    1  0.2742799E-001  0.1835745E+03  0.7546771E-02  0.1164661E+00
         21   -1    0    0  502  503  0.00000000000E+00  0.00000000000E+00  0.56635812323E+03  0.56635812323E+03  0.00000000000E+00 0.  1.
         21   -1    0    0  503  504 -0.00000000000E+00 -0.00000000000E+00 -0.59241664326E+02  0.59241664326E+02  0.00000000000E+00 0.  1.
         -6    2    1    2    0  504 -0.45521198508E+02 -0.38669809406E+02  0.26801735919E+03  0.32485827237E+03  0.17358588257E+03 0.  0.
        -24    2    3    3    0    0 -0.66255707390E+02 -0.25790576484E+02  0.27793138463E+03  0.29809687481E+03  0.80999503781E+02 0.  0.
          6    2    1    2  502    0  0.45521198508E+02  0.38669809406E+02  0.23909909971E+03  0.30074151519E+03  0.17236457234E+03 0.  0.
         24    2    5    5    0    0  0.65849863999E+02 -0.91459349409E+01  0.75340549797E+02  0.12887368015E+03  0.80699283008E+02 0.  0.
          2    1    6    6  501    0  0.67884091224E+02 -0.14214975780E+02  0.89772076870E+02  0.11344311862E+03  0.00000000000E+00 0. -1.
         -1    1    6    6    0  501 -0.20342272257E+01  0.50690408393E+01 -0.14431527073E+02  0.15430561529E+02  0.00000000000E+00 0.  1.
          5    1    5    5  502    0 -0.20328665491E+02  0.47815744346E+02  0.16375854992E+03  0.17186783503E+03  0.47000000000E+01 0. -1.
         11    1    4    4    0    0 -0.20119159027E+02  0.27608460707E+02  0.60231562959E+02  0.69244847022E+02  0.00000000000E+00 0. -1.
        -12    1    4    4    0    0 -0.46136548363E+02 -0.53399037192E+02  0.21769982167E+03  0.22885202779E+03  0.00000000000E+00 0.  1.
         -5    1    3    3    0  504  0.20734508882E+02 -0.12879232921E+02 -0.99140254344E+01  0.26761397563E+02  0.47000000000E+01 0.  1.
<mgrwt>
<rscale>  2 0.18328520E+03</rscale>
<asrwt>0</asrwt>
<pdfrwt beam="1">  1       21 0.87132015E-01 0.18357449E+03</pdfrwt>
<pdfrwt beam="2">  1       21 0.91141026E-02 0.18357449E+03</pdfrwt>
<totfact> 0.10854672E+05</totfact>
</mgrwt>
</event>
<event>
12    1  0.2742799E-001  0.2093032E+03  0.7546771E-02  0.1142140E+00
         21   -1    0    0  502  503  0.00000000000E+00  0.00000000000E+00  0.26927295324E+03  0.26927295324E+03  0.00000000000E+00 0.  1.
         21   -1    0    0  503  504 -0.00000000000E+00 -0.00000000000E+00 -0.23348977838E+03  0.23348977838E+03  0.00000000000E+00 0.  1.
         -6    2    1    2    0  504  0.50644956551E+02  0.10619211644E+03 -0.12061861903E+03  0.24147865822E+03  0.17297807346E+03 0.  0.
        -24    2    3    3    0    0  0.28004809043E+02 -0.11750872607E+02 -0.32495954013E+02  0.92445712077E+02  0.81042398272E+02 0.  0.
          6    2    1    2  502    0 -0.50644956551E+02 -0.10619211644E+03  0.15640179389E+03  0.26128407341E+03  0.17310739055E+03 0.  0.
         24    2    5    5    0    0 -0.91815310256E+02 -0.10464249916E+03  0.93281721138E+02  0.18576167327E+03  0.80161187176E+02 0.  0.
          2    1    6    6  501    0 -0.35625646316E+02 -0.14669764895E+02 -0.77168301262E+01  0.39292978312E+02  0.00000000000E+00 0. -1.
         -1    1    6    6    0  501 -0.56189663940E+02 -0.89972734262E+02  0.10099855126E+03  0.14646869495E+03  0.00000000000E+00 0.  1.
          5    1    5    5  502    0  0.41170353705E+02 -0.15496172875E+01  0.63120072757E+02  0.75522400139E+02  0.47000000000E+01 0. -1.
         11    1    4    4    0    0  0.50012543104E+02  0.93498051675E+01 -0.45418158758E+01  0.51081321594E+02  0.00000000000E+00 0. -1.
        -12    1    4    4    0    0 -0.22007734061E+02 -0.21100677775E+02 -0.27954138137E+02  0.41364390483E+02  0.00000000000E+00 0.  1.
         -5    1    3    3    0  504  0.22640147508E+02  0.11794298905E+03 -0.88122665015E+02  0.14903294614E+03  0.47000000000E+01 0.  1.
<mgrwt>
<rscale>  2 0.20927650E+03</rscale>
<asrwt>0</asrwt>
<pdfrwt beam="1">  1       21 0.41426608E-01 0.20930324E+03</pdfrwt>
<pdfrwt beam="2">  1       21 0.35921504E-01 0.20930324E+03</pdfrwt>
<totfact> 0.41578809E+04</totfact>
</mgrwt>
</event>
<event>
12    1  0.2742799E-001  0.2566654E+03  0.7546771E-02  0.1109437E+00
         21   -1    0    0  502  503  0.00000000000E+00  0.00000000000E+00  0.18178910599E+03  0.18178910599E+03  0.00000000000E+00 0. -1.
         21   -1    0    0  503  504 -0.00000000000E+00 -0.00000000000E+00 -0.48753097577E+03  0.48753097577E+03  0.00000000000E+00 0.  1.
         -6    2    1    2    0  504  0.14710746456E+03  0.11513545856E+03 -0.32452027072E+03  0.41375180464E+03  0.17601241374E+03 0.  0.
        -24    2    3    3    0    0  0.14565868872E+03  0.55971142280E+02 -0.15526941353E+03  0.23439055483E+03  0.80505397644E+02 0.  0.
          6    2    1    2  502    0 -0.14710746456E+03 -0.11513545856E+03  0.18778400940E+02  0.25556827711E+03  0.17339474034E+03 0.  0.
         24    2    5    5    0    0 -0.32041678685E+02  0.46204700879E+01  0.15624099692E+02  0.89394701776E+02  0.81849143536E+02 0.  0.
          4    1    6    6  501    0 -0.31109750402E+02  0.41004643799E+02  0.11736985140E+02  0.52791611107E+02  0.00000000000E+00 0. -1.
         -3    1    6    6    0  501 -0.93192828318E+00 -0.36384173711E+02  0.38871145524E+01  0.36603090669E+02  0.00000000000E+00 0.  1.
          5    1    5    5  502    0 -0.11506578587E+03 -0.11975592864E+03  0.31543012482E+01  0.16617357534E+03  0.47000000000E+01 0. -1.
         13    1    4    4    0    0  0.16588664532E+02  0.11410974931E+02  0.78971675552E+01  0.21627745958E+02  0.00000000000E+00 0. -1.
        -14    1    4    4    0    0  0.12907002419E+03  0.44560167349E+02 -0.16316658108E+03  0.21276280887E+03  0.00000000000E+00 0.  1.
         -5    1    3    3    0  504  0.14487758369E+01  0.59164316276E+02 -0.16925085720E+03  0.17936124981E+03  0.47000000000E+01 0.  1.
<mgrwt>
<rscale>  2 0.25621727E+03</rscale>
<asrwt>0</asrwt>
<pdfrwt beam="1">  1       21 0.27967555E-01 0.25666544E+03</pdfrwt>
<pdfrwt beam="2">  1       21 0.75004765E-01 0.25666544E+03</pdfrwt>
<totfact> 0.18740479E+04</totfact>
</mgrwt>
</event>
<event>
12    1  0.2742799E-001  0.2044607E+03  0.7546771E-02  0.1146244E+00
         21   -1    0    0  502  503  0.00000000000E+00  0.00000000000E+00  0.21738620735E+03  0.21738620735E+03  0.00000000000E+00 0. -1.
         21   -1    0    0  503  504 -0.00000000000E+00 -0.00000000000E+00 -0.21186210761E+03  0.21186210761E+03  0.00000000000E+00 0. -1.
         -6    2    1    2    0  504  0.43220385903E+02 -0.98521363104E+02 -0.64068638393E+02  0.21326836183E+03  0.17263876444E+03 0.  0.
        -24    2    3    3    0    0 -0.24642188727E+02 -0.12786483485E+02  0.24931805671E+01  0.85173223898E+02  0.80483106890E+02 0.  0.
          6    2    1    2  502    0 -0.43220385903E+02  0.98521363104E+02  0.69592738131E+02  0.21597995312E+03  0.17386698998E+03 0.  0.
         24    2    5    5    0    0 -0.87920786714E+02  0.10404039430E+03  0.39893258519E+02  0.16182522455E+03  0.77726847626E+02 0.  0.
          2    1    6    6  501    0 -0.92221691028E+02  0.89747651241E+02  0.55578802645E+02  0.14017305199E+03  0.00000000000E+00 0. -1.
         -1    1    6    6    0  501  0.43009043146E+01  0.14292743058E+02 -0.15685544127E+02  0.21652172561E+02  0.00000000000E+00 0.  1.
          5    1    5    5  502    0  0.44700400810E+02 -0.55190311949E+01  0.29699479612E+02  0.54154728576E+02  0.47000000000E+01 0. -1.
         13    1    4    4    0    0  0.28564742667E+02  0.34403281828E-01 -0.75128964995E+01  0.29536237422E+02  0.00000000000E+00 0. -1.
        -14    1    4    4    0    0 -0.53206931394E+02 -0.12820886767E+02  0.10006077067E+02  0.55636986476E+02  0.00000000000E+00 0.  1.
         -5    1    3    3    0  504  0.67862574630E+02 -0.85734879619E+02 -0.66561818960E+02  0.12809513793E+03  0.47000000000E+01 0.  1.
<mgrwt>
<rscale>  2 0.20419938E+03</rscale>
<asrwt>0</asrwt>
<pdfrwt beam="1">  1       21 0.33444032E-01 0.20446073E+03</pdfrwt>
<pdfrwt beam="2">  1       21 0.32594170E-01 0.20446073E+03</pdfrwt>
<totfact> 0.77602716E+04</totfact>
</mgrwt>
</event>
<event>
12    1  0.2742799E-001  0.2406575E+03  0.7546771E-02  0.1119668E+00
         21   -1    0    0  502  503  0.00000000000E+00  0.00000000000E+00  0.44141827011E+03  0.44141827011E+03  0.00000000000E+00 0.  1.
         21   -1    0    0  503  504 -0.00000000000E+00 -0.00000000000E+00 -0.21609816426E+03  0.21609816426E+03  0.00000000000E+00 0.  1.
         -6    2    1    2    0  504  0.16454195718E+03 -0.42450167731E+01 -0.94895887469E+02  0.25694892374E+03  0.17298972257E+03 0.  0.
        -24    2    3    3    0    0  0.14951567718E+03 -0.11787854143E+02 -0.13238040074E+03  0.21559844344E+03  0.80400417212E+02 0.  0.
          6    2    1    2  502    0 -0.16454195718E+03  0.42450167731E+01  0.32021599331E+03  0.40056751063E+03  0.17556757205E+03 0.  0.
         24    2    5    5    0    0 -0.16039561236E+02 -0.27521112067E+02  0.82685794648E+02  0.11860167259E+03  0.78833603048E+02 0.  0.
          4    1    6    6  501    0  0.20078715540E+02 -0.11507024455E+02  0.74819663028E+02  0.78316973927E+02  0.00000000000E+00 0. -1.
         -3    1    6    6    0  501 -0.36118276776E+02 -0.16014087613E+02  0.78661316200E+01  0.40284698658E+02  0.00000000000E+00 0.  1.
          5    1    5    5  502    0 -0.14850239595E+03  0.31766128841E+02  0.23753019867E+03  0.28196583804E+03  0.47000000000E+01 0. -1.
         11    1    4    4    0    0  0.80822621684E+02  0.79481593557E+01 -0.22070115758E+02  0.84157943312E+02  0.00000000000E+00 0. -1.
        -12    1    4    4    0    0  0.68693055491E+02 -0.19736013498E+02 -0.11031028498E+03  0.13144050013E+03  0.00000000000E+00 0.  1.
         -5    1    3    3    0  504  0.15026280007E+02  0.75428373697E+01  0.37484513267E+02  0.41350480304E+02  0.47000000000E+01 0.  1.
<mgrwt>
<rscale>  2 0.24018763E+03</rscale>
<asrwt>0</asrwt>
<pdfrwt beam="1">  1       21 0.67910503E-01 0.24065753E+03</pdfrwt>
<pdfrwt beam="2">  1       21 0.33245872E-01 0.24065753E+03</pdfrwt>
<totfact> 0.16781876E+04</totfact>
</mgrwt>
</event>
<event>
12    1  0.2742799E-001  0.2478052E+03  0.7546771E-02  0.1115286E+00
         21   -1    0    0  502  503  0.00000000000E+00  0.00000000000E+00  0.23713955850E+03  0.23713955850E+03  0.00000000000E+00 0.  1.
         21   -1    0    0  503  504 -0.00000000000E+00 -0.00000000000E+00 -0.30312490405E+03  0.30312490405E+03  0.00000000000E+00 0. -1.
         -6    2    1    2    0  504  0.23248957188E+02 -0.17152156758E+03 -0.14065292031E+03  0.28493978498E+03  0.17733379519E+03 0.  0.
        -24    2    3    3    0    0 -0.28974445947E+02 -0.10951764823E+03 -0.15184229559E+03  0.20296990046E+03  0.72849598286E+02 0.  0.
          6    2    1    2  502    0 -0.23248957188E+02  0.17152156758E+03  0.74667574764E+02  0.25532467758E+03  0.17220709075E+03 0.  0.
         24    2    5    5    0    0 -0.48220975211E+02  0.14202480377E+03 -0.28529314256E+00  0.17086354351E+03  0.81841076332E+02 0.  0.
          2    1    6    6  501    0 -0.10068220587E+02  0.35243317180E+02 -0.36599815283E+02  0.51797750437E+02  0.00000000000E+00 0. -1.
         -1    1    6    6    0  501 -0.38152754624E+02  0.10678148659E+03  0.36314522140E+02  0.11906579308E+03  0.00000000000E+00 0.  1.
          5    1    5    5  502    0  0.24972018023E+02  0.29496763812E+02  0.74952867907E+02  0.84461134062E+02  0.47000000000E+01 0. -1.
         11    1    4    4    0    0 -0.47148148160E+02 -0.78798222901E+02 -0.76184679248E+02  0.11931560317E+03  0.00000000000E+00 0. -1.
        -12    1    4    4    0    0  0.18173702213E+02 -0.30719425329E+02 -0.75657616339E+02  0.83654297288E+02  0.00000000000E+00 0.  1.
         -5    1    3    3    0  504  0.52223403135E+02 -0.62003919347E+02  0.11189375276E+02  0.81969884522E+02  0.47000000000E+01 0.  1.
<mgrwt>
<rscale>  2 0.24688955E+03</rscale>
<asrwt>0</asrwt>
<pdfrwt beam="1">  1       21 0.36483009E-01 0.24780524E+03</pdfrwt>
<pdfrwt beam="2">  1       21 0.46634601E-01 0.24780524E+03</pdfrwt>
<totfact> 0.31037389E+04</totfact>
</mgrwt>
</event>
<event>
12    1  0.2742799E-001  0.2661427E+03  0.7546771E-02  0.1103674E+00
         21   -1    0    0  502  503  0.00000000000E+00  0.00000000000E+00  0.17619878691E+04  0.17619878691E+04  0.00000000000E+00 0.  1.
         21   -1    0    0  503  504 -0.00000000000E+00 -0.00000000000E+00 -0.59930082659E+02  0.59930082659E+02  0.00000000000E+00 0. -1.
         -6    2    1    2    0  504 -0.19696197165E+03  0.49097112839E+02  0.32729164847E+03  0.42184327202E+03  0.17212605330E+03 0.  0.
        -24    2    3    3    0    0 -0.82353438853E+02 -0.17225991197E+02  0.80809445243E+02  0.14200503942E+03  0.80971853850E+02 0.  0.
          6    2    1    2  502    0  0.19696197165E+03 -0.49097112839E+02  0.13747661380E+04  0.14000746797E+04  0.17036029458E+03 0.  0.
         24    2    5    5    0    0  0.18553412101E+03  0.66065561575E+01  0.11763607610E+04  0.11936278872E+04  0.80351332320E+02 0.  0.
          4    1    6    6  501    0  0.15192950178E+03 -0.27372443975E+02  0.91599341534E+03  0.92891106202E+03  0.00000000000E+00 0. -1.
         -3    1    6    6    0  501  0.33604619233E+02  0.33979000133E+02  0.26036734562E+03  0.26471682521E+03  0.00000000000E+00 0.  1.
          5    1    5    5  502    0  0.11427850640E+02 -0.55703668997E+02  0.19840537702E+03  0.20644679251E+03  0.47000000000E+01 0. -1.
         11    1    4    4    0    0 -0.59559236808E+01  0.27204125587E+02  0.25412035692E+02  0.37700252438E+02  0.00000000000E+00 0. -1.
        -12    1    4    4    0    0 -0.76397515172E+02 -0.44430116784E+02  0.55397409551E+02  0.10430478698E+03  0.00000000000E+00 0.  1.
         -5    1    3    3    0  504 -0.11460853280E+03  0.66323104036E+02  0.24648220323E+03  0.27983823260E+03  0.47000000000E+01 0.  1.
<mgrwt>
<rscale>  2 0.26585757E+03</rscale>
<asrwt>0</asrwt>
<pdfrwt beam="1">  1       21 0.27107502E+00 0.26614267E+03</pdfrwt>
<pdfrwt beam="2">  1       21 0.92200141E-02 0.26614267E+03</pdfrwt>
<totfact> 0.43773851E+03</totfact>
</mgrwt>
</event>
<event>
12    1  0.2742799E-001  0.2048315E+03  0.7546771E-02  0.1145817E+00
         21   -1    0    0  502  503  0.00000000000E+00  0.00000000000E+00  0.87615034172E+03  0.87615034172E+03  0.00000000000E+00 0.  1.
         21   -1    0    0  503  504 -0.00000000000E+00 -0.00000000000E+00 -0.47981231642E+02  0.47981231642E+02  0.00000000000E+00 0.  1.
         -6    2    1    2    0  504  0.10762852405E+03  0.14750056963E+02  0.38391225652E+03  0.43492803344E+03  0.17312512874E+03 0.  0.
        -24    2    3    3    0    0  0.16251871001E+02 -0.46252265774E+02  0.15898416310E+03  0.18455688232E+03  0.79886690368E+02 0.  0.
          6    2    1    2  502    0 -0.10762852405E+03 -0.14750056963E+02  0.44425685356E+03  0.48920353992E+03  0.17365047701E+03 0.  0.
         24    2    5    5    0    0 -0.10717035910E+03 -0.46409610312E+02  0.21142128712E+03  0.25417794933E+03  0.79171531991E+02 0.  0.
          2    1    6    6  501    0 -0.10471957049E+03 -0.31192848362E+02  0.12342514286E+03  0.16484219157E+03  0.00000000000E+00 0. -1.
         -1    1    6    6    0  501 -0.24507886125E+01 -0.15216761950E+02  0.87996144262E+02  0.89335757757E+02  0.00000000000E+00 0.  1.
          5    1    5    5  502    0 -0.45816494695E+00  0.31659553349E+02  0.23283556644E+03  0.23502559059E+03  0.47000000000E+01 0. -1.
         13    1    4    4    0    0 -0.23322710319E+02 -0.24488734224E+02  0.22061249482E+02  0.40377538920E+02  0.00000000000E+00 0. -1.
        -14    1    4    4    0    0  0.39574581320E+02 -0.21763531550E+02  0.13692291361E+03  0.14417934340E+03  0.00000000000E+00 0.  1.
         -5    1    3    3    0  504  0.91376653048E+02  0.61002322737E+02  0.22492809342E+03  0.25037115112E+03  0.47000000000E+01 0.  1.
<mgrwt>
<rscale>  2 0.20472013E+03</rscale>
<asrwt>0</asrwt>
<pdfrwt beam="1">  1       21 0.13479235E+00 0.20483152E+03</pdfrwt>
<pdfrwt beam="2">  1       21 0.73817286E-02 0.20483152E+03</pdfrwt>
<totfact> 0.54065293E+04</totfact>
</mgrwt>
</event>
<event>
12    1  0.2742799E-001  0.2699947E+03  0.7546771E-02  0.1102044E+00
         21   -1    0    0  502  503  0.00000000000E+00  0.00000000000E+00  0.66131427966E+03  0.66131427966E+03  0.00000000000E+00 0. -1.
         21   -1    0    0  503  504 -0.00000000000E+00 -0.00000000000E+00 -0.11128641759E+03  0.11128641759E+03  0.00000000000E+00 0.  1.
         -6    2    1    2    0  504  0.76620130761E+02  0.18577885372E+03  0.21218713381E+03  0.34339558443E+03  0.18031284127E+03 0.  0.
        -24    2    3    3    0    0  0.14865003035E+01  0.16387070327E+02  0.89308514409E+02  0.12099980252E+03  0.79963714939E+02 0.  0.
          6    2    1    2  502    0 -0.76620130761E+02 -0.18577885372E+03  0.33784072826E+03  0.42920511282E+03  0.17232598259E+03 0.  0.
         24    2    5    5    0    0 -0.78062526578E+02 -0.14111645920E+03  0.14504669569E+03  0.23124441222E+03  0.80173693560E+02 0.  0.
          2    1    6    6  501    0 -0.59536552798E+02 -0.57183050077E+02  0.30432575408E+02  0.87980929644E+02  0.00000000000E+00 0. -1.
         -1    1    6    6    0  501 -0.18525973781E+02 -0.83933409122E+02  0.11461412028E+03  0.14326348257E+03  0.00000000000E+00 0.  1.
          5    1    5    5  502    0  0.14423958171E+01 -0.44662394522E+02  0.19279403257E+03  0.19796070061E+03  0.47000000000E+01 0. -1.
         11    1    4    4    0    0 -0.16287517909E+02  0.13226978584E+02  0.98522288692E+02  0.10073171085E+03  0.00000000000E+00 0. -1.
        -12    1    4    4    0    0  0.17774018213E+02  0.31600917434E+01 -0.92137742840E+01  0.20268091667E+02  0.00000000000E+00 0.  1.
         -5    1    3    3    0  504  0.75133630458E+02  0.16939178339E+03  0.12287861940E+03  0.22239578191E+03  0.47000000000E+01 0.  1.
<mgrwt>
<rscale>  2 0.26866818E+03</rscale>
<asrwt>0</asrwt>
<pdfrwt beam="1">  1       21 0.10174066E+00 0.26999472E+03</pdfrwt>
<pdfrwt beam="2">  1       21 0.17120988E-01 0.26999472E+03</pdfrwt>
<totfact> 0.23292976E+04</totfact>
</mgrwt>
</event>
<event>
12    1  0.2742799E-001  0.2839654E+03  0.7546771E-02  0.1094573E+00
         21   -1    0    0  502  503  0.00000000000E+00  0.00000000000E+00  0.24785235077E+03  0.24785235077E+03  0.00000000000E+00 0. -1.
         21   -1    0    0  503  504 -0.00000000000E+00 -0.00000000000E+00 -0.53111971373E+03  0.53111971373E+03  0.00000000000E+00 0.  1.
         -6    2    1    2    0  504 -0.79631839873E+02 -0.21092950102E+03 -0.39022360229E+03  0.48260831348E+03  0.17263788730E+03 0.  0.
        -24    2    3    3    0    0 -0.83175747406E+02 -0.72253096083E+02 -0.24637632892E+03  0.28271375972E+03  0.84184675758E+02 0.  0.
          6    2    1    2  502    0  0.79631839873E+02  0.21092950102E+03  0.10695623933E+03  0.29636375102E+03  0.15987292287E+03 0.  0.
         24    2    5    5    0    0  0.73435129379E+02  0.17826308390E+03  0.28364481345E+02  0.21089885500E+03  0.80643275799E+02 0.  0.
          4    1    6    6  501    0  0.38235280998E+02  0.15819145729E+03  0.42117448142E+02  0.16810815956E+03  0.00000000000E+00 0. -1.
         -3    1    6    6    0  501  0.35199848381E+02  0.20071626607E+02 -0.13752966797E+02  0.42790695442E+02  0.00000000000E+00 0.  1.
          5    1    5    5  502    0  0.61967104937E+01  0.32666417117E+02  0.78591757984E+02  0.85464896017E+02  0.47000000000E+01 0. -1.
         11    1    4    4    0    0  0.41638878752E+01 -0.31939919664E+02 -0.11787118432E+03  0.12219293156E+03  0.00000000000E+00 0. -1.
        -12    1    4    4    0    0 -0.87339635282E+02 -0.40313176420E+02 -0.12850514460E+03  0.16052082816E+03  0.00000000000E+00 0.  1.
         -5    1    3    3    0  504  0.35439075339E+01 -0.13867640493E+03 -0.14384727337E+03  0.19989455376E+03  0.47000000000E+01 0.  1.
<mgrwt>
<rscale>  2 0.28205246E+03</rscale>
<asrwt>0</asrwt>
<pdfrwt beam="1">  1       21 0.38131131E-01 0.28396536E+03</pdfrwt>
<pdfrwt beam="2">  1       21 0.81710725E-01 0.28396536E+03</pdfrwt>
<totfact> 0.82276447E+03</totfact>
</mgrwt>
</event>
<event>
12    1  0.2742799E-001  0.3372381E+03  0.7546771E-02  0.1067981E+00
         21   -1    0    0  502  503  0.00000000000E+00  0.00000000000E+00  0.44517936722E+02  0.44517936722E+02  0.00000000000E+00 0.  1.
         21   -1    0    0  503  504 -0.00000000000E+00 -0.00000000000E+00 -0.28962215494E+04  0.28962215494E+04  0.00000000000E+00 0. -1.
         -6    2    1    2    0  504 -0.24219745084E+03 -0.15972837398E+03 -0.92076236073E+03  0.98057018677E+03  0.17187730392E+03 0.  0.
        -24    2    3    3    0    0 -0.65478603463E+02 -0.13927039068E+02 -0.30740579282E+03  0.32580614555E+03  0.84675339324E+02 0.  0.
          6    2    1    2  502    0  0.24219745084E+03  0.15972837398E+03 -0.19309412520E+04  0.19601692994E+04  0.17192092659E+03 0.  0.
         24    2    5    5    0    0  0.18190345948E+03  0.62133217748E+02 -0.95968279365E+03  0.98214820411E+03  0.81698378788E+02 0.  0.
          4    1    6    6  501    0  0.69441500305E+02 -0.40141353573E+01 -0.21065322105E+03  0.22184006578E+03  0.00000000000E+00 0. -1.
         -3    1    6    6    0  501  0.11246195918E+03  0.66147353105E+02 -0.74902957259E+03  0.76030813833E+03  0.00000000000E+00 0.  1.
          5    1    5    5  502    0  0.60293991354E+02  0.97595156231E+02 -0.97125845833E+03  0.97802109527E+03  0.47000000000E+01 0. -1.
         11    1    4    4    0    0 -0.81012724687E+02 -0.28930416598E+02 -0.25524808420E+03  0.26935407005E+03  0.00000000000E+00 0. -1.
        -12    1    4    4    0    0  0.15534121224E+02  0.15003377529E+02 -0.52157708617E+02  0.56452075495E+02  0.00000000000E+00 0.  1.
         -5    1    3    3    0  504 -0.17671884738E+03 -0.14580133491E+03 -0.61335656792E+03  0.65476404123E+03  0.47000000000E+01 0.  1.
<mgrwt>
<rscale>  2 0.33723258E+03</rscale>
<asrwt>0</asrwt>
<pdfrwt beam="1">  1       21 0.68489134E-02 0.33723814E+03</pdfrwt>
<pdfrwt beam="2">  1       21 0.44557254E+00 0.33723814E+03</pdfrwt>
<totfact> 0.58749517E+02</totfact>
</mgrwt>
</event>
<event>
12    1  0.2742799E-001  0.2573347E+03  0.7546771E-02  0.1108775E+00
         21   -1    0    0  502  503  0.00000000000E+00  0.00000000000E+00  0.10153316661E+04  0.10153316661E+04  0.00000000000E+00 0.  1.
         21   -1    0    0  503  504 -0.00000000000E+00 -0.00000000000E+00 -0.72681236510E+02  0.72681236510E+02  0.00000000000E+00 0. -1.
         -6    2    1    2    0  504  0.18841928985E+03  0.36816790461E+02  0.29654043973E+03  0.39254237267E+03  0.17116067626E+03 0.  0.
        -24    2    3    3    0    0  0.15896980474E+03  0.80320040231E+02  0.18249541896E+03  0.26689142091E+03  0.78763855521E+02 0.  0.
          6    2    1    2  502    0 -0.18841928985E+03 -0.36816790461E+02  0.64610998984E+03  0.69547052992E+03  0.17135878782E+03 0.  0.
         24    2    5    5    0    0 -0.18056193155E+02 -0.28698107628E+02  0.21361429707E+03  0.23053600550E+03  0.79788310094E+02 0.  0.
          2    1    6    6  501    0 -0.65259682631E+01 -0.37734475293E+02  0.36782063506E+02  0.53098013929E+02  0.00000000000E+00 0. -1.
         -1    1    6    6    0  501 -0.11530224891E+02  0.90363676647E+01  0.17683223356E+03  0.17743799157E+03  0.00000000000E+00 0.  1.
          5    1    5    5  502    0 -0.17036309670E+03 -0.81186828322E+01  0.43249569277E+03  0.46493452442E+03  0.47000000000E+01 0. -1.
         13    1    4    4    0    0  0.17892167627E+02  0.40192326314E+02  0.21060692854E+02  0.48776075492E+02  0.00000000000E+00 0. -1.
        -14    1    4    4    0    0  0.14107763711E+03  0.40127713917E+02  0.16143472610E+03  0.21811534542E+03  0.00000000000E+00 0.  1.
         -5    1    3    3    0  504  0.29449485117E+02 -0.43503249771E+02  0.11404502077E+03  0.12565095176E+03  0.47000000000E+01 0.  1.
<mgrwt>
<rscale>  2 0.25730171E+03</rscale>
<asrwt>0</asrwt>
<pdfrwt beam="1">  1       21 0.15620486E+00 0.25733468E+03</pdfrwt>
<pdfrwt beam="2">  1       21 0.11181729E-01 0.25733468E+03</pdfrwt>
<totfact> 0.17162139E+04</totfact>
</mgrwt>
</event>
<event>
12    1  0.2742799E-001  0.1818190E+03  0.7546771E-02  0.1166132E+00
         21   -1    0    0  502  503  0.00000000000E+00  0.00000000000E+00  0.39481504530E+03  0.39481504530E+03  0.00000000000E+00 0.  1.
         21   -1    0    0  503  504 -0.00000000000E+00 -0.00000000000E+00 -0.12644023796E+03  0.12644023796E+03  0.00000000000E+00 0.  1.
         -6    2    1    2    0  504  0.25245231217E+02 -0.50173419025E+02 -0.17633668600E+02  0.18234673698E+03  0.17258242246E+03 0.  0.
        -24    2    3    3    0    0 -0.78469204449E+01  0.50359314389E+01  0.36798470495E+02  0.97918598030E+02  0.90260676063E+02 0.  0.
          6    2    1    2  502    0 -0.25245231217E+02  0.50173419025E+02  0.28600847594E+03  0.33890854627E+03  0.17292617140E+03 0.  0.
         24    2    5    5    0    0 -0.11114967804E+02  0.63894867441E+02  0.29776492921E+03  0.31549387813E+03  0.81647642159E+02 0.  0.
          4    1    6    6  501    0  0.30627040321E+02  0.41889384193E+01  0.75049934245E+02  0.81166837034E+02  0.00000000000E+00 0. -1.
         -3    1    6    6    0  501 -0.41742008125E+02  0.59705929022E+02  0.22271499497E+03  0.23432704109E+03  0.00000000000E+00 0.  1.
          5    1    5    5  502    0 -0.14130263413E+02 -0.13721448416E+02 -0.11756453278E+02  0.23414668147E+02  0.47000000000E+01 0. -1.
         11    1    4    4    0    0  0.20255911391E+02  0.28343419596E+02  0.48377834002E+02  0.59615989494E+02  0.00000000000E+00 0. -1.
        -12    1    4    4    0    0 -0.28102831836E+02 -0.23307488157E+02 -0.11579363507E+02  0.38302608535E+02  0.00000000000E+00 0.  1.
         -5    1    3    3    0  504  0.33092151662E+02 -0.55209350464E+02 -0.54432139095E+02  0.84428138951E+02  0.47000000000E+01 0.  1.
<mgrwt>
<rscale>  2 0.18173723E+03</rscale>
<asrwt>0</asrwt>
<pdfrwt beam="1">  1       21 0.60740775E-01 0.18181902E+03</pdfrwt>
<pdfrwt beam="2">  1       21 0.19452345E-01 0.18181902E+03</pdfrwt>
<totfact> 0.61649566E+04</totfact>
</mgrwt>
</event>
<event>
12    1  0.2742799E-001  0.1949708E+03  0.7546771E-02  0.1154298E+00
         21   -1    0    0  502  503  0.00000000000E+00  0.00000000000E+00  0.75406609965E+02  0.75406609965E+02  0.00000000000E+00 0. -1.
         21   -1    0    0  503  504 -0.00000000000E+00 -0.00000000000E+00 -0.64592088677E+03  0.64592088677E+03  0.00000000000E+00 0. -1.
         -6    2    1    2    0  504  0.84162944478E+02  0.31337230267E+02 -0.45532528721E+03  0.49487198233E+03  0.17178980907E+03 0.  0.
        -24    2    3    3    0    0  0.30198993748E+02  0.54471468740E+02 -0.13385033891E+03  0.16804552479E+03  0.80276179806E+02 0.  0.
          6    2    1    2  502    0 -0.84162944478E+02 -0.31337230267E+02 -0.11518898960E+03  0.22645551440E+03  0.17305540574E+03 0.  0.
         24    2    5    5    0    0 -0.18203221624E+02 -0.58477113733E+02  0.10703743999E+02  0.81685598034E+02  0.52981474899E+02 0.  0.
          4    1    6    6  501    0  0.34960283949E+01 -0.58845233618E+02  0.11073640161E+02  0.59980073695E+02  0.00000000000E+00 0. -1.
         -3    1    6    6    0  501 -0.21699250019E+02  0.36811988406E+00 -0.36989616232E+00  0.21705524339E+02  0.00000000000E+00 0.  1.
          5    1    5    5  502    0 -0.65959722854E+02  0.27139883467E+02 -0.12589273359E+03  0.14476991637E+03  0.47000000000E+01 0. -1.
         13    1    4    4    0    0 -0.15107932363E+01 -0.14700622112E+02 -0.83369496649E+00  0.14801548365E+02  0.00000000000E+00 0. -1.
        -14    1    4    4    0    0  0.31709786984E+02  0.69172090853E+02 -0.13301664395E+03  0.15324397642E+03  0.00000000000E+00 0.  1.
         -5    1    3    3    0  504  0.53963950731E+02 -0.23134238473E+02 -0.32147494830E+03  0.32682645754E+03  0.47000000000E+01 0.  1.
<mgrwt>
<rscale>  2 0.19468953E+03</rscale>
<asrwt>0</asrwt>
<pdfrwt beam="1">  1       21 0.11601016E-01 0.19497076E+03</pdfrwt>
<pdfrwt beam="2">  1       21 0.99372448E-01 0.19497076E+03</pdfrwt>
<totfact> 0.51885674E+04</totfact>
</mgrwt>
</event>
<event>
12    1  0.2742799E-001  0.1972405E+03  0.7546771E-02  0.1152630E+00
         21   -1    0    0  502  503  0.00000000000E+00  0.00000000000E+00  0.17406409202E+04  0.17406409202E+04  0.00000000000E+00 0.  1.
         21   -1    0    0  503  504 -0.00000000000E+00 -0.00000000000E+00 -0.14616222789E+03  0.14616222789E+03  0.00000000000E+00 0.  1.
         -6    2    1    2    0  504  0.69393316197E+02 -0.57400499080E+02 -0.71261193245E+02  0.20971874987E+03  0.17548090140E+03 0.  0.
        -24    2    3    3    0    0  0.58445709510E+02 -0.19206737070E+02 -0.11323634187E+03  0.15173067652E+03  0.80093254195E+02 0.  0.
          6    2    1    2  502    0 -0.69393316197E+02  0.57400499080E+02  0.16657398855E+04  0.16770843982E+04  0.17266285874E+03 0.  0.
         24    2    5    5    0    0 -0.67134410786E+02 -0.97904927468E+01  0.13536183924E+04  0.13577700570E+04  0.81571395116E+02 0.  0.
          4    1    6    6  501    0 -0.22818312626E+02 -0.38511475180E+02  0.36375644201E+03  0.36650042048E+03  0.00000000000E+00 0. -1.
         -3    1    6    6    0  501 -0.44316098160E+02  0.28720982433E+02  0.98986195041E+03  0.99126963650E+03  0.00000000000E+00 0.  1.
          5    1    5    5  502    0 -0.22589054106E+01  0.67190991827E+02  0.31212149309E+03  0.31931434119E+03  0.47000000000E+01 0. -1.
         13    1    4    4    0    0 -0.65042521223E+00  0.12036154107E+02 -0.72402178796E+02  0.73398689041E+02  0.00000000000E+00 0. -1.
        -14    1    4    4    0    0  0.59096134722E+02 -0.31242891177E+02 -0.40834163078E+02  0.78331987479E+02  0.00000000000E+00 0.  1.
         -5    1    3    3    0  504  0.10947606687E+02 -0.38193762010E+02  0.41975148628E+02  0.57988073351E+02  0.47000000000E+01 0.  1.
<mgrwt>
<rscale>  2 0.19661173E+03</rscale>
<asrwt>0</asrwt>
<pdfrwt beam="1">  1       21 0.26779090E+00 0.19724045E+03</pdfrwt>
<pdfrwt beam="2">  1       21 0.22486498E-01 0.19724045E+03</pdfrwt>
<totfact> 0.96412910E+02</totfact>
</mgrwt>
</event>
<event>
12    1  0.2742799E-001  0.1907694E+03  0.7546771E-02  0.1157774E+00
         21   -1    0    0  502  503  0.00000000000E+00  0.00000000000E+00  0.71791843878E+02  0.71791843878E+02  0.00000000000E+00 0. -1.
         21   -1    0    0  503  504 -0.00000000000E+00 -0.00000000000E+00 -0.66842811568E+03  0.66842811568E+03  0.00000000000E+00 0. -1.
         -6    2    1    2    0  504  0.79544765699E+02 -0.13873260416E+02 -0.48026530694E+03  0.51675819241E+03  0.17281327284E+03 0.  0.
        -24    2    3    3    0    0  0.10105159493E+03 -0.50753582878E+02 -0.28223309609E+03  0.31412169909E+03  0.78927626985E+02 0.  0.
          6    2    1    2  502    0 -0.79544765699E+02  0.13873260416E+02 -0.11637096487E+03  0.22346176715E+03  0.17283842978E+03 0.  0.
         24    2    5    5    0    0 -0.50074184560E+02  0.23197216692E+02 -0.14887724207E+03  0.17835966774E+03  0.81253941750E+02 0.  0.
          4    1    6    6  501    0 -0.43988150306E+02 -0.23064504180E+02 -0.94096289437E+02  0.10640037785E+03  0.00000000000E+00 0. -1.
         -3    1    6    6    0  501 -0.60860342542E+01  0.46261720872E+02 -0.54780952633E+02  0.71959289896E+02  0.00000000000E+00 0.  1.
          5    1    5    5  502    0 -0.29470581139E+02 -0.93239562760E+01  0.32506277204E+02  0.45102099408E+02  0.47000000000E+01 0. -1.
         11    1    4    4    0    0  0.68721952828E+02  0.23267687964E+01 -0.19685022110E+03  0.20851410072E+03  0.00000000000E+00 0. -1.
        -12    1    4    4    0    0  0.32329642104E+02 -0.53080351674E+02 -0.85382874986E+02  0.10560759837E+03  0.00000000000E+00 0.  1.
         -5    1    3    3    0  504 -0.21506829233E+02  0.36880322462E+02 -0.19803221085E+03  0.20263649331E+03  0.47000000000E+01 0.  1.
<mgrwt>
<rscale>  2 0.19076369E+03</rscale>
<asrwt>0</asrwt>
<pdfrwt beam="1">  1       21 0.11044900E-01 0.19076939E+03</pdfrwt>
<pdfrwt beam="2">  1       21 0.10283509E+00 0.19076939E+03</pdfrwt>
<totfact> 0.52304784E+04</totfact>
</mgrwt>
</event>
<event>
12    1  0.2742799E-001  0.1881534E+03  0.7546771E-02  0.1160370E+00
         21   -1    0    0  502  503  0.00000000000E+00  0.00000000000E+00  0.10566527827E+03  0.10566527827E+03  0.00000000000E+00 0.  1.
         21   -1    0    0  503  504 -0.00000000000E+00 -0.00000000000E+00 -0.34670799440E+03  0.34670799440E+03  0.00000000000E+00 0. -1.
         -6    2    1    2    0  504  0.70493631107E+02  0.19479608660E+02 -0.76245097480E+02  0.20301485609E+03  0.17335775069E+03 0.  0.
        -24    2    3    3    0    0  0.25092347820E+02 -0.52303391764E+02 -0.71655202545E+02  0.11782546233E+03  0.73369617772E+02 0.  0.
          6    2    1    2  502    0 -0.70493631107E+02 -0.19479608660E+02 -0.16479761866E+03  0.24935841658E+03  0.17225724259E+03 0.  0.
         24    2    5    5    0    0  0.53280110894E+01  0.33777713491E+02 -0.11214856797E+03  0.14268472570E+03  0.81316099386E+02 0.  0.
          4    1    6    6  501    0  0.14949168046E+02  0.38006918774E+02 -0.12176971759E+03  0.12843623952E+03  0.00000000000E+00 0. -1.
         -3    1    6    6    0  501 -0.96211569561E+01 -0.42292052838E+01  0.96211496178E+01  0.14248486182E+02  0.00000000000E+00 0.  1.
          5    1    5    5  502    0 -0.75821642196E+02 -0.53257322150E+02 -0.52649050687E+02  0.10667369088E+03  0.47000000000E+01 0. -1.
         11    1    4    4    0    0  0.46968127357E+01  0.15882174754E+02 -0.32787751700E+02  0.36733366117E+02  0.00000000000E+00 0. -1.
        -12    1    4    4    0    0  0.20395535085E+02 -0.68185566517E+02 -0.38867450845E+02  0.81092096211E+02  0.00000000000E+00 0.  1.
         -5    1    3    3    0  504  0.45401283286E+02  0.71783000423E+02 -0.45898949353E+01  0.85189393761E+02  0.47000000000E+01 0.  1.
<mgrwt>
<rscale>  2 0.18789956E+03</rscale>
<asrwt>0</asrwt>
<pdfrwt beam="1">  1       21 0.16256197E-01 0.18815344E+03</pdfrwt>
<pdfrwt beam="2">  1       21 0.53339691E-01 0.18815344E+03</pdfrwt>
<totfact> 0.11288678E+05</totfact>
</mgrwt>
</event>
<event>
12    1  0.2742799E-001  0.2170566E+03  0.7546771E-02  0.1136245E+00
         21   -1    0    0  502  503  0.00000000000E+00  0.00000000000E+00  0.60944321513E+03  0.60944321513E+03  0.00000000000E+00 0. -1.
         21   -1    0    0  503  504 -0.00000000000E+00 -0.00000000000E+00 -0.12334249974E+03  0.12334249974E+03  0.00000000000E+00 0. -1.
         -6    2    1    2    0  504 -0.10031101259E+03 -0.79858009470E+02  0.18808376795E+02  0.21786995788E+03  0.17513983723E+03 0.  0.
        -24    2    3    3    0    0 -0.79073743906E+02 -0.23291661101E+02 -0.49709754154E+02  0.12639538426E+03  0.81911995779E+02 0.  0.
          6    2    1    2  502    0  0.10031101259E+03  0.79858009470E+02  0.46729233859E+03  0.51491575700E+03  0.17417378154E+03 0.  0.
         24    2    5    5    0    0 -0.67163085315E+01  0.30305272258E+02  0.27808733372E+03  0.29191139583E+03  0.83163570835E+02 0.  0.
          4    1    6    6  501    0  0.30269659163E+02  0.40298375232E+02  0.16305439824E+03  0.17066618908E+03  0.00000000000E+00 0. -1.
         -3    1    6    6    0  501 -0.36985967695E+02 -0.99931029738E+01  0.11503293548E+03  0.12124520674E+03  0.00000000000E+00 0.  1.
          5    1    5    5  502    0  0.10702732112E+03  0.49552737212E+02  0.18920500487E+03  0.22300436117E+03  0.47000000000E+01 0. -1.
         13    1    4    4    0    0 -0.22610831028E+02 -0.47302924214E+02 -0.35788955551E+02  0.63479647592E+02  0.00000000000E+00 0. -1.
        -14    1    4    4    0    0 -0.56462912878E+02  0.24011263113E+02 -0.13920798602E+02  0.62915736670E+02  0.00000000000E+00 0.  1.
         -5    1    3    3    0  504 -0.21237268683E+02 -0.56566348370E+02  0.68518130949E+02  0.91474573613E+02  0.47000000000E+01 0.  1.
<mgrwt>
<rscale>  2 0.21686164E+03</rscale>
<asrwt>0</asrwt>
<pdfrwt beam="1">  1       21 0.93760493E-01 0.21705659E+03</pdfrwt>
<pdfrwt beam="2">  1       21 0.18975770E-01 0.21705659E+03</pdfrwt>
<totfact> 0.23976643E+04</totfact>
</mgrwt>
</event>
<event>
12    1  0.2742799E-001  0.1914517E+03  0.7546771E-02  0.1158496E+00
         21   -1    0    0  502  503  0.00000000000E+00  0.00000000000E+00  0.20508134291E+03  0.20508134291E+03  0.00000000000E+00 0. -1.
         21   -1    0    0  503  504 -0.00000000000E+00 -0.00000000000E+00 -0.18618789202E+03  0.18618789202E+03  0.00000000000E+00 0. -1.
         -6    2    1    2    0  504  0.65981041941E+02 -0.15429545646E+02 -0.42216128428E+02  0.19030126017E+03  0.17274489673E+03 0.  0.
        -24    2    3    3    0    0 -0.24214691471E+02  0.46537035762E+01  0.99858973634E+01  0.84066855563E+02  0.79746534834E+02 0.  0.
          6    2    1    2  502    0 -0.65981041941E+02  0.15429545646E+02  0.61109579321E+02  0.20096797476E+03  0.17905914503E+03 0.  0.
         24    2    5    5    0    0 -0.79856439656E+02 -0.44135014728E+02  0.67388756444E+02  0.13930776409E+03  0.80873099125E+02 0.  0.
          2    1    6    6  501    0 -0.63301990488E+02 -0.29958042354E+02  0.85816703438E+02  0.11076611797E+03  0.00000000000E+00 0. -1.
         -1    1    6    6    0  501 -0.16554449168E+02 -0.14176972374E+02 -0.18427946994E+02  0.28541646122E+02  0.00000000000E+00 0.  1.
          5    1    5    5  502    0  0.13875397715E+02  0.59564560374E+02 -0.62791771228E+01  0.61660210668E+02  0.47000000000E+01 0. -1.
         11    1    4    4    0    0  0.22188467563E+02 -0.18565563565E+02 -0.64430553308E+01  0.29639858388E+02  0.00000000000E+00 0. -1.
        -12    1    4    4    0    0 -0.46403159033E+02  0.23219267141E+02  0.16428952694E+02  0.54426997175E+02  0.00000000000E+00 0.  1.
         -5    1    3    3    0  504  0.90195733412E+02 -0.20083249222E+02 -0.52202025792E+02  0.10623440460E+03  0.47000000000E+01 0.  1.
<mgrwt>
<rscale>  2 0.18996135E+03</rscale>
<asrwt>0</asrwt>
<pdfrwt beam="1">  1       21 0.31550976E-01 0.19145168E+03</pdfrwt>
<pdfrwt beam="2">  1       21 0.28644291E-01 0.19145168E+03</pdfrwt>
<totfact> 0.11263175E+05</totfact>
</mgrwt>
</event>
<event>
12    1  0.2742799E-001  0.2302111E+03  0.7546771E-02  0.1126550E+00
         21   -1    0    0  502  503  0.00000000000E+00  0.00000000000E+00  0.16228129491E+03  0.16228129491E+03  0.00000000000E+00 0. -1.
         21   -1    0    0  503  504 -0.00000000000E+00 -0.00000000000E+00 -0.54511825827E+03  0.54511825827E+03  0.00000000000E+00 0.  1.
         -6    2    1    2    0  504 -0.95842835400E+02 -0.11754486378E+03 -0.41552995238E+03  0.47487861545E+03  0.17274812298E+03 0.  0.
        -24    2    3    3    0    0 -0.94892868869E+02 -0.14852357061E+03 -0.37577155279E+03  0.42424855471E+03  0.87855954238E+02 0.  0.
          6    2    1    2  502    0  0.95842835400E+02  0.11754486378E+03  0.32692989015E+02  0.23252093773E+03  0.17318923423E+03 0.  0.
         24    2    5    5    0    0  0.79049058136E+02  0.13484348570E+03 -0.17554657579E+02  0.17659071993E+03  0.80278248217E+02 0.  0.
          2    1    6    6  501    0  0.95021031887E+02  0.12112428759E+03 -0.20585398592E+02  0.15531853779E+03  0.00000000000E+00 0. -1.
         -1    1    6    6    0  501 -0.15971973751E+02  0.13719198109E+02  0.30307410129E+01  0.21272182148E+02  0.00000000000E+00 0.  1.
          5    1    5    5  502    0  0.16793777264E+02 -0.17298621913E+02  0.50247646595E+02  0.55930217800E+02  0.47000000000E+01 0. -1.
         11    1    4    4    0    0 -0.20667437419E+02  0.84041478620E+01 -0.30460011130E+02  0.37756919218E+02  0.00000000000E+00 0. -1.
        -12    1    4    4    0    0 -0.74225431449E+02 -0.15692771848E+03 -0.34531154166E+03  0.38649163549E+03  0.00000000000E+00 0.  1.
         -5    1    3    3    0  504 -0.94996653148E+00  0.30978706830E+02 -0.39758399584E+02  0.50630060742E+02  0.47000000000E+01 0.  1.
<mgrwt>
<rscale>  2 0.23012815E+03</rscale>
<asrwt>0</asrwt>
<pdfrwt beam="1">  1       21 0.24966353E-01 0.23021111E+03</pdfrwt>
<pdfrwt beam="2">  1       21 0.83864346E-01 0.23021111E+03</pdfrwt>
<totfact> 0.18353301E+04</totfact>
</mgrwt>
</event>
<event>
12    1  0.2742799E-001  0.2036810E+03  0.7546771E-02  0.1146791E+00
         21   -1    0    0  502  503  0.00000000000E+00  0.00000000000E+00  0.31572421660E+03  0.31572421660E+03  0.00000000000E+00 0.  1.
         21   -1    0    0  503  504 -0.00000000000E+00 -0.00000000000E+00 -0.16159138524E+03  0.16159138524E+03  0.00000000000E+00 0. -1.
         -6    2    1    2    0  504  0.98260329436E+02  0.42491224392E+02 -0.26828823551E+02  0.20485812296E+03  0.17258756699E+03 0.  0.
        -24    2    3    3    0    0  0.10027090145E+03  0.77161959628E+02 -0.55506712994E+02  0.15957442143E+03  0.79842213748E+02 0.  0.
          6    2    1    2  502    0 -0.98260329436E+02 -0.42491224392E+02  0.18096165491E+03  0.27245747888E+03  0.17327827549E+03 0.  0.
         24    2    5    5    0    0 -0.51671653360E+02  0.12278835685E+02  0.17573804778E+03  0.20021040080E+03  0.79872483273E+02 0.  0.
          2    1    6    6  501    0 -0.65530754626E+02  0.27997338162E+02  0.15562389982E+03  0.17116345679E+03  0.00000000000E+00 0. -1.
         -1    1    6    6    0  501  0.13859101266E+02 -0.15718502477E+02  0.20114147960E+02  0.29046944007E+02  0.00000000000E+00 0.  1.
          5    1    5    5  502    0 -0.46588676076E+02 -0.54770060077E+02  0.52236071304E+01  0.72247078078E+02  0.47000000000E+01 0. -1.
         13    1    4    4    0    0  0.86025862810E+02  0.16883573110E+02 -0.33083768452E+02  0.93701866834E+02  0.00000000000E+00 0. -1.
        -14    1    4    4    0    0  0.14245038640E+02  0.60278386519E+02 -0.22422944543E+02  0.65872554597E+02  0.00000000000E+00 0.  1.
         -5    1    3    3    0  504 -0.20105720142E+01 -0.34670735236E+02  0.28677889443E+02  0.45283701534E+02  0.47000000000E+01 0.  1.
<mgrwt>
<rscale>  2 0.20353404E+03</rscale>
<asrwt>0</asrwt>
<pdfrwt beam="1">  1       21 0.48572956E-01 0.20368102E+03</pdfrwt>
<pdfrwt beam="2">  1       21 0.24860213E-01 0.20368102E+03</pdfrwt>
<totfact> 0.61643663E+04</totfact>
</mgrwt>
</event>
<event>
12    1  0.2742799E-001  0.1820984E+03  0.7546771E-02  0.1165870E+00
         21   -1    0    0  502  503  0.00000000000E+00  0.00000000000E+00  0.99193535131E+02  0.99193535131E+02  0.00000000000E+00 0. -1.
         21   -1    0    0  503  504 -0.00000000000E+00 -0.00000000000E+00 -0.40705086237E+03  0.40705086237E+03  0.00000000000E+00 0. -1.
         -6    2    1    2    0  504  0.58902553299E+02 -0.61127757381E+01 -0.26128693192E+03  0.31828532007E+03  0.17183657168E+03 0.  0.
        -24    2    3    3    0    0  0.87375525185E+02 -0.13041925731E+02 -0.10688139853E+03  0.16105338315E+03  0.81914495926E+02 0.  0.
          6    2    1    2  502    0 -0.58902553299E+02  0.61127757381E+01 -0.46570395320E+02  0.18795907743E+03  0.17220027949E+03 0.  0.
         24    2    5    5    0    0 -0.78177340327E+02  0.42031345425E+02 -0.70871364461E+02  0.14026958001E+03  0.82307194314E+02 0.  0.
          2    1    6    6  501    0 -0.42931092676E+02  0.47878100676E+02 -0.80724676437E+02  0.10320787096E+03  0.00000000000E+00 0. -1.
         -1    1    6    6    0  501 -0.35246247651E+02 -0.58467552507E+01  0.98533119756E+01  0.37061709045E+02  0.00000000000E+00 0.  1.
          5    1    5    5  502    0  0.19274787028E+02 -0.35918569687E+02  0.24300969141E+02  0.47689497424E+02  0.47000000000E+01 0. -1.
         13    1    4    4    0    0  0.72665434241E+02 -0.62845812355E+01 -0.11985838948E+03  0.14030607550E+03  0.00000000000E+00 0. -1.
        -14    1    4    4    0    0  0.14710090944E+02 -0.67573444955E+01  0.12976990950E+02  0.20747307641E+02  0.00000000000E+00 0.  1.
         -5    1    3    3    0  504 -0.28472971885E+02  0.69291499928E+01 -0.15440553339E+03  0.15723193693E+03  0.47000000000E+01 0.  1.
<mgrwt>
<rscale>  2 0.18201233E+03</rscale>
<asrwt>0</asrwt>
<pdfrwt beam="1">  1       21 0.15260544E-01 0.18209836E+03</pdfrwt>
<pdfrwt beam="2">  1       21 0.62623210E-01 0.18209836E+03</pdfrwt>
<totfact> 0.90207488E+04</totfact>
</mgrwt>
</event>
<event>
12    1  0.2742799E-001  0.1906326E+03  0.7546771E-02  0.1158041E+00
         21   -1    0    0  502  503  0.00000000000E+00  0.00000000000E+00  0.14704584511E+03  0.14704584511E+03  0.00000000000E+00 0. -1.
         21   -1    0    0  503  504 -0.00000000000E+00 -0.00000000000E+00 -0.29701518310E+03  0.29701518310E+03  0.00000000000E+00 0. -1.
         -6    2    1    2    0  504 -0.66907037031E+02 -0.41688614842E+02 -0.16685668828E+03  0.25334158858E+03  0.17356933447E+03 0.  0.
        -24    2    3    3    0    0 -0.37551322222E+02 -0.83240155989E+02 -0.16050945092E+03  0.20185696965E+03  0.81510287655E+02 0.  0.
          6    2    1    2  502    0  0.66907037031E+02  0.41688614842E+02  0.16887350295E+02  0.19071943963E+03  0.17284163226E+03 0.  0.
         24    2    5    5    0    0  0.68810102540E+02 -0.35823758342E+02  0.78131141312E+01  0.11251316484E+03  0.81117172263E+02 0.  0.
          2    1    6    6  501    0  0.21989814314E+02 -0.55074844632E+02  0.15536261478E+02  0.61303881325E+02  0.00000000000E+00 0. -1.
         -1    1    6    6    0  501  0.46820288226E+02  0.19251086290E+02 -0.77231473466E+01  0.51209283512E+02  0.00000000000E+00 0.  1.
          5    1    5    5  502    0 -0.19030655091E+01  0.77512373184E+02  0.90742361642E+01  0.78206274793E+02  0.47000000000E+01 0. -1.
         13    1    4    4    0    0 -0.20314546253E+02 -0.45087599190E+02 -0.16886138520E+02  0.52256234693E+02  0.00000000000E+00 0. -1.
        -14    1    4    4    0    0 -0.17236775969E+02 -0.38152556799E+02 -0.14362331240E+03  0.14960073496E+03  0.00000000000E+00 0.  1.
         -5    1    3    3    0  504 -0.29355714809E+02  0.41551541147E+02 -0.63472373626E+01  0.51484618924E+02  0.47000000000E+01 0.  1.
<mgrwt>
<rscale>  2 0.19046685E+03</rscale>
<asrwt>0</asrwt>
<pdfrwt beam="1">  1       21 0.22622438E-01 0.19063265E+03</pdfrwt>
<pdfrwt beam="2">  1       21 0.45694643E-01 0.19063265E+03</pdfrwt>
<totfact> 0.84159035E+04</totfact>
</mgrwt>
</event>
<event>
12    1  0.2742799E-001  0.1822942E+03  0.7546771E-02  0.1166335E+00
         21   -1    0    0  502  503  0.00000000000E+00  0.00000000000E+00  0.60894089132E+02  0.60894089132E+02  0.00000000000E+00 0.  1.
         21   -1    0    0  503  504 -0.00000000000E+00 -0.00000000000E+00 -0.54088481055E+03  0.54088481055E+03  0.00000000000E+00 0.  1.
         -6    2    1    2    0  504  0.68775797049E+01 -0.52409205647E+02 -0.21124726531E+03  0.27704174990E+03  0.17126791336E+03 0.  0.
        -24    2    3    3    0    0  0.50239823958E+02  0.32581839142E+02 -0.65924088700E+02  0.10313178014E+03  0.52005407899E+02 0.  0.
          6    2    1    2  502    0 -0.68775797049E+01  0.52409205647E+02 -0.26874345611E+03  0.32473714978E+03  0.17446244670E+03 0.  0.
         24    2    5    5    0    0 -0.59057696801E+02 -0.10881633250E+02 -0.16021031106E+03  0.18861210256E+03  0.79378586329E+02 0.  0.
          2    1    6    6  501    0 -0.12307843985E+02 -0.41146910869E+02 -0.82457221712E+02  0.92971741460E+02  0.00000000000E+00 0. -1.
         -1    1    6    6    0  501 -0.46749852817E+02  0.30265277619E+02 -0.77753089353E+02  0.95640361102E+02  0.00000000000E+00 0.  1.
          5    1    5    5  502    0  0.52180117096E+02  0.63290838897E+02 -0.10853314504E+03  0.13612504722E+03  0.47000000000E+01 0. -1.
         11    1    4    4    0    0  0.40191223628E+02  0.34244012057E+02 -0.73456022820E+02  0.90464214511E+02  0.00000000000E+00 0. -1.
        -12    1    4    4    0    0  0.10048600330E+02 -0.16621729154E+01  0.75319341200E+01  0.12667565630E+02  0.00000000000E+00 0.  1.
         -5    1    3    3    0  504 -0.43362244253E+02 -0.84991044788E+02 -0.14532317661E+03  0.17390996976E+03  0.47000000000E+01 0.  1.
<mgrwt>
<rscale>  2 0.18152562E+03</rscale>
<asrwt>0</asrwt>
<pdfrwt beam="1">  1       21 0.93683217E-02 0.18229419E+03</pdfrwt>
<pdfrwt beam="2">  1       21 0.83213045E-01 0.18229419E+03</pdfrwt>
<totfact> 0.11495521E+05</totfact>
</mgrwt>
</event>
<event>
12    1  0.2742799E-001  0.2016518E+03  0.7546771E-02  0.1150655E+00
         21   -1    0    0  502  503  0.00000000000E+00  0.00000000000E+00  0.92058951211E+02  0.92058951211E+02  0.00000000000E+00 0.  1.
         21   -1    0    0  503  504 -0.00000000000E+00 -0.00000000000E+00 -0.43357055047E+03  0.43357055047E+03  0.00000000000E+00 0.  1.
         -6    2    1    2    0  504 -0.17782428317E+01 -0.10529901244E+03 -0.22415124955E+03  0.30150825788E+03  0.17196628370E+03 0.  0.
        -24    2    3    3    0    0 -0.54300057458E+02 -0.41817744697E+02 -0.67412956916E+02  0.12437160232E+03  0.78908609746E+02 0.  0.
          6    2    1    2  502    0  0.17782428317E+01  0.10529901244E+03 -0.11736034970E+03  0.22412124380E+03  0.15926655666E+03 0.  0.
         24    2    5    5    0    0  0.35736288064E+02  0.35734910216E+02 -0.11171707265E+03  0.14636360925E+03  0.79922060153E+02 0.  0.
          2    1    6    6  501    0  0.25775241121E+02 -0.11488471678E+02 -0.42252130704E+01  0.28534198111E+02  0.00000000000E+00 0. -1.
         -1    1    6    6    0  501  0.99610469425E+01  0.47223381895E+02 -0.10749185958E+03  0.11782941114E+03  0.00000000000E+00 0.  1.
          5    1    5    5  502    0 -0.33958045232E+02  0.69564102219E+02 -0.56432770505E+01  0.77757634541E+02  0.47000000000E+01 0. -1.
         13    1    4    4    0    0 -0.13658510234E+02  0.22183963571E+02 -0.30300987743E+02  0.39960392888E+02  0.00000000000E+00 0. -1.
        -14    1    4    4    0    0 -0.40641547224E+02 -0.64001708268E+02 -0.37111969173E+02  0.84411209433E+02  0.00000000000E+00 0.  1.
         -5    1    3    3    0  504  0.52521814626E+02 -0.63481267738E+02 -0.15673829264E+03  0.17713665556E+03  0.47000000000E+01 0.  1.
<mgrwt>
<rscale>  2 0.19891797E+03</rscale>
<asrwt>0</asrwt>
<pdfrwt beam="1">  1       21 0.14162916E-01 0.20165180E+03</pdfrwt>
<pdfrwt beam="2">  1       21 0.66703161E-01 0.20165180E+03</pdfrwt>
<totfact> 0.89350662E+04</totfact>
</mgrwt>
</event>
<event>
12    1  0.2742799E-001  0.1788672E+03  0.7546771E-02  0.1169790E+00
         21   -1    0    0  502  503  0.00000000000E+00  0.00000000000E+00  0.11978688560E+03  0.11978688560E+03  0.00000000000E+00 0. -1.
         21   -1    0    0  503  504 -0.00000000000E+00 -0.00000000000E+00 -0.58969186340E+03  0.58969186340E+03  0.00000000000E+00 0. -1.
         -6    2    1    2    0  504  0.55088925479E+01  0.36751406277E+02 -0.50054750162E+03  0.53154612194E+03  0.17496418093E+03 0.  0.
        -24    2    3    3    0    0  0.18438856571E+01  0.39238757835E+02 -0.51134851147E+03  0.51896156763E+03  0.79377128049E+02 0.  0.
          6    2    1    2  502    0 -0.55088925479E+01 -0.36751406277E+02  0.30642523823E+02  0.17793262707E+03  0.17128935095E+03 0.  0.
         24    2    5    5    0    0  0.36663680516E+01  0.44810039321E+02  0.58213785980E+01  0.92056937463E+02  0.80119968844E+02 0.  0.
          4    1    6    6  501    0  0.41786214878E+02  0.24031329047E+02  0.64766774315E+01  0.48636816098E+02  0.00000000000E+00 0. -1.
         -3    1    6    6    0  501 -0.38119846827E+02  0.20778710275E+02 -0.65529883350E+00  0.43420121365E+02  0.00000000000E+00 0.  1.
          5    1    5    5  502    0 -0.91752605995E+01 -0.81561445598E+02  0.24821145225E+02  0.85875689607E+02  0.47000000000E+01 0. -1.
         13    1    4    4    0    0  0.39553733594E+02  0.10053793607E+02 -0.22560392597E+03  0.22926558402E+03  0.00000000000E+00 0. -1.
        -14    1    4    4    0    0 -0.37709847937E+02  0.29184964228E+02 -0.28574458551E+03  0.28969598360E+03  0.00000000000E+00 0.  1.
         -5    1    3    3    0  504  0.36650068908E+01 -0.24873515577E+01  0.10801009854E+02  0.12584554309E+02  0.47000000000E+01 0.  1.
<mgrwt>
<rscale>  2 0.17796212E+03</rscale>
<asrwt>0</asrwt>
<pdfrwt beam="1">  1       21 0.18428751E-01 0.17886721E+03</pdfrwt>
<pdfrwt beam="2">  1       21 0.90721827E-01 0.17886721E+03</pdfrwt>
<totfact> 0.27939010E+04</totfact>
</mgrwt>
</event>
<event>
12    1  0.2742799E-001  0.1939220E+03  0.7546771E-02  0.1156263E+00
         21   -1    0    0  502  503  0.00000000000E+00  0.00000000000E+00  0.10280753312E+03  0.10280753312E+03  0.00000000000E+00 0. -1.
         21   -1    0    0  503  504 -0.00000000000E+00 -0.00000000000E+00 -0.38146025108E+03  0.38146025108E+03  0.00000000000E+00 0. -1.
         -6    2    1    2    0  504  0.22540048622E+02 -0.84952708090E+02 -0.20511710108E+03  0.28227428964E+03  0.17286044381E+03 0.  0.
        -24    2    3    3    0    0 -0.34959709651E+02 -0.24947235451E+02 -0.16758962376E+03  0.19096557975E+03  0.80851869498E+02 0.  0.
          6    2    1    2  502    0 -0.22540048622E+02  0.84952708090E+02 -0.73535616878E+02  0.20199349456E+03  0.16633961793E+03 0.  0.
         24    2    5    5    0    0  0.10267550930E+01  0.65298443225E+02  0.20096655512E+02  0.10334879477E+03  0.77538099688E+02 0.  0.
          4    1    6    6  501    0 -0.70482187053E+01  0.72007661888E+02  0.38652240508E+02  0.82029119547E+02  0.00000000000E+00 0. -1.
         -3    1    6    6    0  501  0.80749737983E+01 -0.67092186627E+01 -0.18555584996E+02  0.21319675219E+02  0.00000000000E+00 0.  1.
          5    1    5    5  502    0 -0.23566803715E+02  0.19654264865E+02 -0.93632272390E+02  0.98644699795E+02  0.47000000000E+01 0. -1.
         13    1    4    4    0    0  0.21479997398E+02  0.10800036883E+02 -0.55376638902E+02  0.60370549285E+02  0.00000000000E+00 0. -1.
        -14    1    4    4    0    0 -0.56439707049E+02 -0.35747272334E+02 -0.11221298486E+03  0.13059503047E+03  0.00000000000E+00 0.  1.
         -5    1    3    3    0  504  0.57499758274E+02 -0.60005472639E+02 -0.37527477311E+02  0.91308709888E+02  0.47000000000E+01 0.  1.
<mgrwt>
<rscale>  2 0.19245818E+03</rscale>
<asrwt>0</asrwt>
<pdfrwt beam="1">  1       21 0.15816543E-01 0.19392202E+03</pdfrwt>
<pdfrwt beam="2">  1       21 0.58686193E-01 0.19392202E+03</pdfrwt>
<totfact> 0.96717103E+04</totfact>
</mgrwt>
</event>
<event>
12    1  0.2742799E-001  0.2428662E+03  0.7546771E-02  0.1118006E+00
         21   -1    0    0  502  503  0.00000000000E+00  0.00000000000E+00  0.90084442960E+03  0.90084442960E+03  0.00000000000E+00 0. -1.
         21   -1    0    0  503  504 -0.00000000000E+00 -0.00000000000E+00 -0.52785855887E+03  0.52785855887E+03  0.00000000000E+00 0. -1.
         -6    2    1    2    0  504 -0.97320053563E+02 -0.13977768867E+03 -0.48224672042E+03  0.53965473850E+03  0.17221016914E+03 0.  0.
        -24    2    3    3    0    0 -0.63966207795E+02 -0.33803238760E+02 -0.12578032913E+03  0.16624686341E+03  0.81135650034E+02 0.  0.
          6    2    1    2  502    0  0.97320053563E+02  0.13977768867E+03  0.85523259115E+03  0.88904824996E+03  0.17313292788E+03 0.  0.
         24    2    5    5    0    0 -0.19190513557E+02  0.59294801525E+02  0.31190944394E+03  0.32755529393E+03  0.78235670033E+02 0.  0.
          2    1    6    6  501    0  0.50611420883E+01 -0.97111464629E+01  0.49784772524E+01  0.12029412314E+02  0.00000000000E+00 0. -1.
         -1    1    6    6    0  501 -0.24251655645E+02  0.69005947988E+02  0.30693096668E+03  0.31552588161E+03  0.00000000000E+00 0.  1.
          5    1    5    5  502    0  0.11651056712E+03  0.80482887145E+02  0.54332314722E+03  0.56149295604E+03  0.47000000000E+01 0. -1.
         13    1    4    4    0    0  0.18185958991E+01 -0.94546165473E+01 -0.84105252304E+02  0.84654536383E+02  0.00000000000E+00 0. -1.
        -14    1    4    4    0    0 -0.65784803694E+02 -0.24348622213E+02 -0.41675076824E+02  0.81592327023E+02  0.00000000000E+00 0.  1.
         -5    1    3    3    0  504 -0.33353845768E+02 -0.10597444991E+03 -0.35646639129E+03  0.37340787510E+03  0.47000000000E+01 0.  1.
<mgrwt>
<rscale>  2 0.24270183E+03</rscale>
<asrwt>0</asrwt>
<pdfrwt beam="1">  1       21 0.13859145E+00 0.24286623E+03</pdfrwt>
<pdfrwt beam="2">  1       21 0.81209009E-01 0.24286623E+03</pdfrwt>
<totfact> 0.46368721E+02</totfact>
</mgrwt>
</event>
<event>
12    1  0.2742799E-001  0.2258725E+03  0.7546771E-02  0.1129905E+00
         21   -1    0    0  502  503  0.00000000000E+00  0.00000000000E+00  0.25553717667E+02  0.25553717667E+02  0.00000000000E+00 0.  1.
         21   -1    0    0  503  504 -0.00000000000E+00 -0.00000000000E+00 -0.20908000588E+04  0.20908000588E+04  0.00000000000E+00 0. -1.
         -6    2    1    2    0  504 -0.79881819154E+02  0.12175973438E+03 -0.12794548117E+04  0.12992393966E+04  0.17266110338E+03 0.  0.
        -24    2    3    3    0    0 -0.77799795212E+02  0.12420793923E+03 -0.12820976298E+04  0.12929622142E+04  0.80601083433E+02 0.  0.
          6    2    1    2  502    0  0.79881819154E+02 -0.12175973438E+03 -0.78579152945E+03  0.81711437985E+03  0.17029692911E+03 0.  0.
         24    2    5    5    0    0 -0.21955484185E+02 -0.70842916611E+02 -0.41038428135E+03  0.42479301845E+03  0.80827520262E+02 0.  0.
          2    1    6    6  501    0 -0.43135462815E+02 -0.21818384371E+02 -0.27573012359E+03  0.27993536951E+03  0.00000000000E+00 0. -1.
         -1    1    6    6    0  501  0.21179978630E+02 -0.49024532240E+02 -0.13465415776E+03  0.14485764895E+03  0.00000000000E+00 0.  1.
          5    1    5    5  502    0  0.10183730334E+03 -0.50916817766E+02 -0.37540724810E+03  0.39232136140E+03  0.47000000000E+01 0. -1.
         11    1    4    4    0    0 -0.54366346658E+02  0.18766946873E+02 -0.53806006715E+03  0.54112524780E+03  0.00000000000E+00 0. -1.
        -12    1    4    4    0    0 -0.23433448554E+02  0.10544099236E+03 -0.74403756268E+03  0.75183696641E+03  0.00000000000E+00 0.  1.
         -5    1    3    3    0  504 -0.20820239422E+01 -0.24482048524E+01  0.26428181736E+01  0.62771823770E+01  0.47000000000E+01 0.  1.
<mgrwt>
<rscale>  2 0.22542066E+03</rscale>
<asrwt>0</asrwt>
<pdfrwt beam="1">  1       21 0.39313403E-02 0.22587252E+03</pdfrwt>
<pdfrwt beam="2">  1       21 0.32166162E+00 0.22587252E+03</pdfrwt>
<totfact> 0.99701034E+03</totfact>
</mgrwt>
</event>
<event>
12    1  0.2742799E-001  0.2630369E+03  0.7546771E-02  0.1105903E+00
         21   -1    0    0  502  503  0.00000000000E+00  0.00000000000E+00  0.47306808220E+03  0.47306808220E+03  0.00000000000E+00 0.  1.
         21   -1    0    0  503  504 -0.00000000000E+00 -0.00000000000E+00 -0.14539065004E+03  0.14539065004E+03  0.00000000000E+00 0. -1.
         -6    2    1    2    0  504  0.14694215587E+03 -0.12787983666E+03  0.19378911705E+03  0.32671488459E+03  0.17675730289E+03 0.  0.
        -24    2    3    3    0    0  0.58417860653E+02 -0.27176461448E+02  0.19384667872E+02  0.10667688215E+03  0.82782759897E+02 0.  0.
          6    2    1    2  502    0 -0.14694215587E+03  0.12787983666E+03  0.13388831512E+03  0.29174384765E+03  0.17100626281E+03 0.  0.
         24    2    5    5    0    0 -0.16565792538E+02  0.10308898991E+02  0.35545043337E+02  0.90461929424E+02  0.80865392403E+02 0.  0.
          2    1    6    6  501    0 -0.58003582365E+01  0.31272769812E+02 -0.14644006954E+02  0.35015385576E+02  0.00000000000E+00 0. -1.
         -1    1    6    6    0  501 -0.10765434301E+02 -0.20963870822E+02  0.50189050291E+02  0.55446543847E+02  0.00000000000E+00 0.  1.
          5    1    5    5  502    0 -0.13037636333E+03  0.11757093767E+03  0.98343271780E+02  0.20128191823E+03  0.47000000000E+01 0. -1.
         11    1    4    4    0    0 -0.20738360496E+00  0.76394021487E+01 -0.24450994083E+02  0.25617466400E+02  0.00000000000E+00 0. -1.
        -12    1    4    4    0    0  0.58625244258E+02 -0.34815863596E+02  0.43835661954E+02  0.81059415747E+02  0.00000000000E+00 0.  1.
         -5    1    3    3    0  504  0.88524295220E+02 -0.10070337522E+03  0.17440444918E+03  0.22003800244E+03  0.47000000000E+01 0.  1.
<mgrwt>
<rscale>  2 0.26207419E+03</rscale>
<asrwt>0</asrwt>
<pdfrwt beam="1">  1       21 0.72779704E-01 0.26303687E+03</pdfrwt>
<pdfrwt beam="2">  1       21 0.22367793E-01 0.26303687E+03</pdfrwt>
<totfact> 0.30725195E+04</totfact>
</mgrwt>
</event>
<event>
12    1  0.2742799E-001  0.3624461E+03  0.7546771E-02  0.1057808E+00
         21   -1    0    0  502  503  0.00000000000E+00  0.00000000000E+00  0.54505912161E+03  0.54505912161E+03  0.00000000000E+00 0.  1.
         21   -1    0    0  503  504 -0.00000000000E+00 -0.00000000000E+00 -0.12106433520E+04  0.12106433520E+04  0.00000000000E+00 0. -1.
         -6    2    1    2    0  504  0.90732943004E+01 -0.31914456632E+03 -0.11191052024E+04  0.11763348322E+04  0.17155641755E+03 0.  0.
        -24    2    3    3    0    0  0.63432137779E+02 -0.22389291203E+03 -0.86847693310E+03  0.90272127093E+03  0.80633972401E+02 0.  0.
          6    2    1    2  502    0 -0.90732943004E+01  0.31914456632E+03  0.45352097202E+03  0.57936764145E+03  0.16748138109E+03 0.  0.
         24    2    5    5    0    0  0.84292978254E+01  0.23955040492E+03  0.42232819769E+03  0.49197971075E+03  0.78914381906E+02 0.  0.
          4    1    6    6  501    0  0.35560182685E+02  0.82063038520E+02  0.18998528836E+03  0.20998399624E+03  0.00000000000E+00 0. -1.
         -3    1    6    6    0  501 -0.27130884860E+02  0.15748736640E+03  0.23234290933E+03  0.28199571451E+03  0.00000000000E+00 0.  1.
          5    1    5    5  502    0 -0.17502592126E+02  0.79594161401E+02  0.31192774333E+02  0.87387930693E+02  0.47000000000E+01 0. -1.
         11    1    4    4    0    0  0.45837088545E+02 -0.44576062299E+02 -0.28371169664E+03  0.29082708063E+03  0.00000000000E+00 0. -1.
        -12    1    4    4    0    0  0.17595049234E+02 -0.17931684973E+03 -0.58476523646E+03  0.61189419030E+03  0.00000000000E+00 0.  1.
         -5    1    3    3    0  504 -0.54358843479E+02 -0.95251654292E+02 -0.25062826933E+03  0.27361356125E+03  0.47000000000E+01 0.  1.
<mgrwt>
<rscale>  2 0.36196742E+03</rscale>
<asrwt>0</asrwt>
<pdfrwt beam="1">  1       21 0.83855250E-01 0.36244611E+03</pdfrwt>
<pdfrwt beam="2">  1       21 0.18625282E+00 0.36244611E+03</pdfrwt>
<totfact> 0.17382468E+02</totfact>
</mgrwt>
</event>
<event>
12    1  0.2742799E-001  0.1851200E+03  0.7546771E-02  0.1163082E+00
         21   -1    0    0  502  503  0.00000000000E+00  0.00000000000E+00  0.41360382167E+02  0.41360382167E+02  0.00000000000E+00 0.  1.
         21   -1    0    0  503  504 -0.00000000000E+00 -0.00000000000E+00 -0.86321865627E+03  0.86321865627E+03  0.00000000000E+00 0.  1.
         -6    2    1    2    0  504  0.58964688484E+02 -0.25575684104E+02 -0.50443290524E+03  0.53711711301E+03  0.17294879904E+03 0.  0.
        -24    2    3    3    0    0 -0.28479033675E+02 -0.19340259205E+02 -0.16715351731E+03  0.18859916427E+03  0.80276057632E+02 0.  0.
          6    2    1    2  502    0 -0.58964688484E+02  0.25575684104E+02 -0.31742536886E+03  0.36746192543E+03  0.17360429643E+03 0.  0.
         24    2    5    5    0    0 -0.51250232359E+02  0.83147691393E+02 -0.20749442667E+03  0.24303945596E+03  0.80461886357E+02 0.  0.
          4    1    6    6  501    0 -0.50953533816E+02  0.61882950882E+02 -0.20676508111E+03  0.22176014291E+03  0.00000000000E+00 0. -1.
         -3    1    6    6    0  501 -0.29669854343E+00  0.21264740510E+02 -0.72934555805E+00  0.21279313052E+02  0.00000000000E+00 0.  1.
          5    1    5    5  502    0 -0.77144561253E+01 -0.57572007289E+02 -0.10993094220E+03  0.12442246947E+03  0.47000000000E+01 0. -1.
         13    1    4    4    0    0 -0.92362586488E+01  0.17242938984E+02 -0.13451945318E+03  0.13593421462E+03  0.00000000000E+00 0. -1.
        -14    1    4    4    0    0 -0.19242775026E+02 -0.36583198189E+02 -0.32634064125E+02  0.52664949651E+02  0.00000000000E+00 0.  1.
         -5    1    3    3    0  504  0.87443722159E+02 -0.62354248992E+01 -0.33727938793E+03  0.34851794874E+03  0.47000000000E+01 0.  1.
<mgrwt>
<rscale>  2 0.18496613E+03</rscale>
<asrwt>0</asrwt>
<pdfrwt beam="1">  1       21 0.63631355E-02 0.18511997E+03</pdfrwt>
<pdfrwt beam="2">  1       21 0.13280288E+00 0.18511997E+03</pdfrwt>
<totfact> 0.73281682E+04</totfact>
</mgrwt>
</event>
<event>
12    1  0.2742799E-001  0.1950907E+03  0.7546771E-02  0.1154971E+00
         21   -1    0    0  502  503  0.00000000000E+00  0.00000000000E+00  0.26027545806E+03  0.26027545806E+03  0.00000000000E+00 0. -1.
         21   -1    0    0  503  504 -0.00000000000E+00 -0.00000000000E+00 -0.20969882574E+03  0.20969882574E+03  0.00000000000E+00 0. -1.
         -6    2    1    2    0  504 -0.68029104396E+02 -0.10933227788E+02 -0.10766005911E+03  0.21877868853E+03  0.17755543278E+03 0.  0.
        -24    2    3    3    0    0 -0.53548870401E+02 -0.72081417409E+02 -0.10218858205E+03  0.15552676894E+03  0.75384728548E+02 0.  0.
          6    2    1    2  502    0  0.68029104396E+02  0.10933227788E+02  0.15823669143E+03  0.25119559527E+03  0.18251816911E+03 0.  0.
         24    2    5    5    0    0  0.11517791345E+03 -0.13140967974E+02  0.13028490473E+03  0.19114587024E+03  0.78255674067E+02 0.  0.
          4    1    6    6  501    0  0.85043970261E+02  0.17724480116E+02  0.50597378791E+02  0.10053222774E+03  0.00000000000E+00 0. -1.
         -3    1    6    6    0  501  0.30133943191E+02 -0.30865448090E+02  0.79687525934E+02  0.90613642502E+02  0.00000000000E+00 0.  1.
          5    1    5    5  502    0 -0.47148809056E+02  0.24074195762E+02  0.27951786701E+02  0.60049725035E+02  0.47000000000E+01 0. -1.
         11    1    4    4    0    0 -0.60353038635E+01  0.86130970368E+00  0.11094316897E+02  0.12659013174E+02  0.00000000000E+00 0. -1.
        -12    1    4    4    0    0 -0.47513566537E+02 -0.72942727113E+02 -0.11328289895E+03  0.14286775576E+03  0.00000000000E+00 0.  1.
         -5    1    3    3    0  504 -0.14480233995E+02  0.61148189621E+02 -0.54714770639E+01  0.63251919589E+02  0.47000000000E+01 0.  1.
<mgrwt>
<rscale>  2 0.19392151E+03</rscale>
<asrwt>0</asrwt>
<pdfrwt beam="1">  1       21 0.40042378E-01 0.19509069E+03</pdfrwt>
<pdfrwt beam="2">  1       21 0.32261358E-01 0.19509069E+03</pdfrwt>
<totfact> 0.55496998E+04</totfact>
</mgrwt>
</event>
<event>
12    1  0.2742799E-001  0.2111647E+03  0.7546771E-02  0.1141087E+00
         21   -1    0    0  502  503  0.00000000000E+00  0.00000000000E+00  0.10654009936E+04  0.10654009936E+04  0.00000000000E+00 0.  1.
         21   -1    0    0  503  504 -0.00000000000E+00 -0.00000000000E+00 -0.89663147683E+02  0.89663147683E+02  0.00000000000E+00 0. -1.
         -6    2    1    2    0  504  0.11950819286E+03  0.21250686040E+02  0.65405767353E+02  0.22106206339E+03  0.17279097677E+03 0.  0.
        -24    2    3    3    0    0  0.56097429792E+02  0.60625010053E+02  0.86060750682E+02  0.14347352945E+03  0.79723819345E+02 0.  0.
          6    2    1    2  502    0 -0.11950819286E+03 -0.21250686040E+02  0.91033207856E+03  0.93400207788E+03  0.17006348350E+03 0.  0.
         24    2    5    5    0    0 -0.34727028412E+02 -0.38366212851E+02  0.25174805631E+03  0.26974626009E+03  0.81902553010E+02 0.  0.
          2    1    6    6  501    0  0.13630174002E+02  0.14016988618E+02  0.23212468509E+02  0.30349238994E+02  0.00000000000E+00 0. -1.
         -1    1    6    6    0  501 -0.48357202414E+02 -0.52383201468E+02  0.22853558780E+03  0.23939702110E+03  0.00000000000E+00 0.  1.
          5    1    5    5  502    0 -0.84781164444E+02  0.17115526810E+02  0.65858402225E+03  0.66425581779E+03  0.47000000000E+01 0. -1.
         11    1    4    4    0    0  0.49151308164E+02  0.77127556728E+02  0.52551328133E+02  0.10548058205E+03  0.00000000000E+00 0. -1.
        -12    1    4    4    0    0  0.69461216283E+01 -0.16502546674E+02  0.33509422549E+02  0.37992947397E+02  0.00000000000E+00 0.  1.
         -5    1    3    3    0  504  0.63410763063E+02 -0.39374324013E+02 -0.20654983329E+02  0.77588533947E+02  0.47000000000E+01 0.  1.
<mgrwt>
<rscale>  2 0.21060598E+03</rscale>
<asrwt>0</asrwt>
<pdfrwt beam="1">  1       21 0.16390784E+00 0.21116468E+03</pdfrwt>
<pdfrwt beam="2">  1       21 0.13794331E-01 0.21116468E+03</pdfrwt>
<totfact> 0.10618362E+04</totfact>
</mgrwt>
</event>
<event>
12    1  0.2742799E-001  0.1898817E+03  0.7546771E-02  0.1159007E+00
         21   -1    0    0  502  503  0.00000000000E+00  0.00000000000E+00  0.10783227881E+04  0.10783227881E+04  0.00000000000E+00 0. -1.
         21   -1    0    0  503  504 -0.00000000000E+00 -0.00000000000E+00 -0.54909065022E+02  0.54909065022E+02  0.00000000000E+00 0. -1.
         -6    2    1    2    0  504  0.72663976141E+02 -0.29055274011E+02  0.15616290792E+03  0.24584938369E+03  0.17300521170E+03 0.  0.
        -24    2    3    3    0    0  0.24312900542E+02 -0.30738730949E+02  0.14104397251E+02  0.95704883315E+02  0.86165561308E+02 0.  0.
          6    2    1    2  502    0 -0.72663976141E+02  0.29055274011E+02  0.86725081517E+03  0.88738246945E+03  0.17087834354E+03 0.  0.
         24    2    5    5    0    0 -0.75722637550E+01  0.51802219577E+02  0.27854649867E+03  0.29463529162E+03  0.80504621080E+02 0.  0.
          2    1    6    6  501    0 -0.30612478321E+02  0.43489999732E+02  0.25559214899E+03  0.26106675494E+03  0.00000000000E+00 0. -1.
         -1    1    6    6    0  501  0.23040214566E+02  0.83122198454E+01  0.22954349674E+02  0.33568536682E+02  0.00000000000E+00 0.  1.
          5    1    5    5  502    0 -0.65091712386E+02 -0.22746945566E+02  0.58870431651E+03  0.59274717783E+03  0.47000000000E+01 0. -1.
         11    1    4    4    0    0  0.56883307479E+02 -0.17659514499E+02  0.88722672690E+01  0.60218653660E+02  0.00000000000E+00 0. -1.
        -12    1    4    4    0    0 -0.32570406937E+02 -0.13079216449E+02  0.52321299821E+01  0.35486229655E+02  0.00000000000E+00 0.  1.
         -5    1    3    3    0  504  0.48351075599E+02  0.16834569374E+01  0.14205851067E+03  0.15014450037E+03  0.47000000000E+01 0.  1.
<mgrwt>
<rscale>  2 0.18939591E+03</rscale>
<asrwt>0</asrwt>
<pdfrwt beam="1">  1       21 0.16589580E+00 0.18988171E+03</pdfrwt>
<pdfrwt beam="2">  1       21 0.84475493E-02 0.18988171E+03</pdfrwt>
<totfact> 0.24946790E+04</totfact>
</mgrwt>
</event>
<event>
12    1  0.2742799E-001  0.1975823E+03  0.7546771E-02  0.1153781E+00
         21   -1    0    0  502  503  0.00000000000E+00  0.00000000000E+00  0.11172150146E+03  0.11172150146E+03  0.00000000000E+00 0.  1.
         21   -1    0    0  503  504 -0.00000000000E+00 -0.00000000000E+00 -0.10358674032E+04  0.10358674032E+04  0.00000000000E+00 0.  1.
         -6    2    1    2    0  504 -0.23728316785E+02 -0.95989345609E+02 -0.93795718883E+03  0.95854182821E+03  0.17106069351E+03 0.  0.
        -24    2    3    3    0    0  0.12647207893E+01 -0.35359360410E+02 -0.21521877007E+03  0.23281904437E+03  0.81447557017E+02 0.  0.
          6    2    1    2  502    0  0.23728316785E+02  0.95989345609E+02  0.13811287126E+02  0.18904707641E+03  0.16053366613E+03 0.  0.
         24    2    5    5    0    0  0.53863439757E+02  0.49699851251E+02 -0.35856230985E+02  0.11461727540E+03  0.80499100379E+02 0.  0.
          2    1    6    6  501    0  0.38642312432E+02 -0.15687897686E+02 -0.12595478470E+02  0.43565864180E+02  0.00000000000E+00 0. -1.
         -1    1    6    6    0  501  0.15221127326E+02  0.65387748937E+02 -0.23260752515E+02  0.71051411215E+02  0.00000000000E+00 0.  1.
          5    1    5    5  502    0 -0.30135122972E+02  0.46289494358E+02  0.49667518111E+02  0.74429801019E+02  0.47000000000E+01 0. -1.
         11    1    4    4    0    0 -0.12609665428E+01  0.26178501906E+02 -0.49221911150E+02  0.55764688971E+02  0.00000000000E+00 0. -1.
        -12    1    4    4    0    0  0.25256873320E+01 -0.61537862316E+02 -0.16599685892E+03  0.17705435540E+03  0.00000000000E+00 0.  1.
         -5    1    3    3    0  504 -0.24993037575E+02 -0.60629985199E+02 -0.72273841877E+03  0.72572278385E+03  0.47000000000E+01 0.  1.
<mgrwt>
<rscale>  2 0.19528232E+03</rscale>
<asrwt>0</asrwt>
<pdfrwt beam="1">  1       21 0.17187923E-01 0.19758226E+03</pdfrwt>
<pdfrwt beam="2">  1       21 0.15936421E+00 0.19758226E+03</pdfrwt>
<totfact> 0.77471743E+03</totfact>
</mgrwt>
</event>
<event>
12    1  0.2742799E-001  0.1866501E+03  0.7546771E-02  0.1161769E+00
         21   -1    0    0  502  503  0.00000000000E+00  0.00000000000E+00  0.16594182556E+03  0.16594182556E+03  0.00000000000E+00 0. -1.
         21   -1    0    0  503  504 -0.00000000000E+00 -0.00000000000E+00 -0.95476625421E+03  0.95476625421E+03  0.00000000000E+00 0. -1.
         -6    2    1    2    0  504 -0.53288218728E+01 -0.63493423578E+02 -0.88949155780E+03  0.90864172910E+03  0.17428353128E+03 0.  0.
        -24    2    3    3    0    0  0.39291996713E+02 -0.84646475095E+02 -0.44227023893E+03  0.45867787822E+03  0.77932951797E+02 0.  0.
          6    2    1    2  502    0  0.53288218728E+01  0.63493423578E+02  0.10066712916E+03  0.21206635067E+03  0.17543789503E+03 0.  0.
         24    2    5    5    0    0  0.45491887098E+02  0.27180353021E+02 -0.56281064277E+00  0.97169433333E+02  0.81445065145E+02 0.  0.
          4    1    6    6  501    0  0.36520584458E+02 -0.65040439922E+01  0.32356220720E+02  0.49223781820E+02  0.00000000000E+00 0. -1.
         -3    1    6    6    0  501  0.89713026398E+01  0.33684397013E+02 -0.32919031362E+02  0.47945651513E+02  0.00000000000E+00 0.  1.
          5    1    5    5  502    0 -0.40163065225E+02  0.36313070557E+02  0.10122993980E+03  0.11489691734E+03  0.47000000000E+01 0. -1.
         13    1    4    4    0    0  0.19280330342E+02 -0.94891149359E+02 -0.38874589706E+03  0.40062380589E+03  0.00000000000E+00 0. -1.
        -14    1    4    4    0    0  0.20011666371E+02  0.10244674265E+02 -0.53524341864E+02  0.58054072327E+02  0.00000000000E+00 0.  1.
         -5    1    3    3    0  504 -0.44620818586E+02  0.21153051517E+02 -0.44722131887E+03  0.44996385088E+03  0.47000000000E+01 0.  1.
<mgrwt>
<rscale>  2 0.18637837E+03</rscale>
<asrwt>0</asrwt>
<pdfrwt beam="1">  1       21 0.25529511E-01 0.18665012E+03</pdfrwt>
<pdfrwt beam="2">  1       21 0.14688712E+00 0.18665012E+03</pdfrwt>
<totfact> 0.46194203E+03</totfact>
</mgrwt>
</event>
<event>
12    1  0.2742799E-001  0.2772922E+03  0.7546771E-02  0.1097187E+00
         21   -1    0    0  502  503  0.00000000000E+00  0.00000000000E+00  0.14216680389E+03  0.14216680389E+03  0.00000000000E+00 0. -1.
         21   -1    0    0  503  504 -0.00000000000E+00 -0.00000000000E+00 -0.11741690946E+04  0.11741690946E+04  0.00000000000E+00 0.  1.
         -6    2    1    2    0  504 -0.20727649687E+03 -0.61427266122E+02 -0.99946006312E+03  0.10372132846E+04  0.17364943075E+03 0.  0.
        -24    2    3    3    0    0 -0.23117488234E+03 -0.49927246018E+02 -0.90668688142E+03  0.94060926536E+03  0.82037387959E+02 0.  0.
          6    2    1    2  502    0  0.20727649687E+03  0.61427266122E+02 -0.32542227563E+02  0.27912261387E+03  0.17353265347E+03 0.  0.
         24    2    5    5    0    0  0.33840913557E+02  0.53825874264E+02 -0.12282964540E+02  0.10427922550E+03  0.81736488078E+02 0.  0.
          4    1    6    6  501    0  0.47828864520E+02  0.25428460685E+02 -0.35725504697E+02  0.64888508843E+02  0.00000000000E+00 0. -1.
         -3    1    6    6    0  501 -0.13987950963E+02  0.28397413579E+02  0.23442540156E+02  0.39390716661E+02  0.00000000000E+00 0.  1.
          5    1    5    5  502    0  0.17343558331E+03  0.76013918575E+01 -0.20259263023E+02  0.17484338837E+03  0.47000000000E+01 0. -1.
         13    1    4    4    0    0 -0.22019454224E+03 -0.66694643997E+02 -0.84393430984E+03  0.87473363448E+03  0.00000000000E+00 0. -1.
        -14    1    4    4    0    0 -0.10980340101E+02  0.16767397979E+02 -0.62752571586E+02  0.65875630884E+02  0.00000000000E+00 0.  1.
         -5    1    3    3    0  504  0.23898385470E+02 -0.11500020103E+02 -0.92773181697E+02  0.96604019237E+02  0.47000000000E+01 0.  1.
<mgrwt>
<rscale>  2 0.27727395E+03</rscale>
<asrwt>0</asrwt>
<pdfrwt beam="1">  1       21 0.21871816E-01 0.27729223E+03</pdfrwt>
<pdfrwt beam="2">  1       21 0.18064140E+00 0.27729223E+03</pdfrwt>
<totfact> 0.32867969E+03</totfact>
</mgrwt>
</event>
<event>
12    1  0.2742799E-001  0.1783597E+03  0.7546771E-02  0.1171053E+00
         21   -1    0    0  502  503  0.00000000000E+00  0.00000000000E+00  0.97984911299E+02  0.97984911299E+02  0.00000000000E+00 0.  1.
         21   -1    0    0  503  504 -0.00000000000E+00 -0.00000000000E+00 -0.42141744043E+03  0.42141744043E+03  0.00000000000E+00 0.  1.
         -6    2    1    2    0  504 -0.32384754501E+02 -0.20642431084E+01 -0.29131680509E+03  0.33817429013E+03  0.16865152283E+03 0.  0.
        -24    2    3    3    0    0 -0.59743907028E+02 -0.55758213451E+02 -0.18259659919E+03  0.21378080618E+03  0.75381710395E+02 0.  0.
          6    2    1    2  502    0  0.32384754501E+02  0.20642431084E+01 -0.32115724047E+02  0.18122806160E+03  0.17538288730E+03 0.  0.
         24    2    5    5    0    0  0.42933392197E+02 -0.56475155707E+02 -0.51444082759E+02  0.11850796577E+03  0.79780479581E+02 0.  0.
          4    1    6    6  501    0  0.60610502704E+02 -0.19959813629E+02 -0.43336285054E+02  0.77136637212E+02  0.00000000000E+00 0. -1.
         -3    1    6    6    0  501 -0.17677110506E+02 -0.36515342079E+02 -0.81077977041E+01  0.41371328557E+02  0.00000000000E+00 0.  1.
          5    1    5    5  502    0 -0.10548637696E+02  0.58539398816E+02  0.19328358711E+02  0.62720095834E+02  0.47000000000E+01 0. -1.
         11    1    4    4    0    0 -0.50796029667E+02 -0.53128950488E+02 -0.72341679355E+02  0.10313215106E+03  0.00000000000E+00 0. -1.
        -12    1    4    4    0    0 -0.89478773617E+01 -0.26292629624E+01 -0.11025491984E+03  0.11064865513E+03  0.00000000000E+00 0.  1.
         -5    1    3    3    0  504  0.27359152527E+02  0.53693970342E+02 -0.10872020589E+03  0.12439348394E+03  0.47000000000E+01 0.  1.
<mgrwt>
<rscale>  2 0.17668255E+03</rscale>
<asrwt>0</asrwt>
<pdfrwt beam="1">  1       21 0.15074602E-01 0.17835972E+03</pdfrwt>
<pdfrwt beam="2">  1       21 0.64833452E-01 0.17835972E+03</pdfrwt>
<totfact> 0.85699596E+04</totfact>
</mgrwt>
</event>
<event>
12    1  0.2742799E-001  0.1747773E+03  0.7546771E-02  0.1173748E+00
         21   -1    0    0  502  503  0.00000000000E+00  0.00000000000E+00  0.38748206301E+03  0.38748206301E+03  0.00000000000E+00 0. -1.
         21   -1    0    0  503  504 -0.00000000000E+00 -0.00000000000E+00 -0.13211937136E+03  0.13211937136E+03  0.00000000000E+00 0. -1.
         -6    2    1    2    0  504  0.84282762534E+01 -0.14542760979E+02 -0.38786231302E+02  0.17902925666E+03  0.17396716720E+03 0.  0.
        -24    2    3    3    0    0  0.50806405275E+02  0.23828528378E+02 -0.51369797239E+02  0.12030364216E+03  0.93193458290E+02 0.  0.
          6    2    1    2  502    0 -0.84282762534E+01  0.14542760979E+02  0.29414892295E+03  0.34057217771E+03  0.17083117871E+03 0.  0.
         24    2    5    5    0    0  0.23009555294E+02  0.43779080920E+02  0.27921321001E+03  0.29487463754E+03  0.80901098019E+02 0.  0.
          4    1    6    6  501    0 -0.27417749860E+02  0.33580136024E+02  0.13079159902E+03  0.13778897241E+03  0.00000000000E+00 0. -1.
         -3    1    6    6    0  501  0.50427305155E+02  0.10198944896E+02  0.14842161099E+03  0.15708566513E+03  0.00000000000E+00 0.  1.
          5    1    5    5  502    0 -0.31437831548E+02 -0.29236319941E+02  0.14935712941E+02  0.45697540165E+02  0.47000000000E+01 0. -1.
         13    1    4    4    0    0  0.46592897325E+02  0.48440504207E+02 -0.47022639222E+01  0.67375750942E+02  0.00000000000E+00 0. -1.
        -14    1    4    4    0    0  0.42135079505E+01 -0.24611975829E+02 -0.46667533316E+02  0.52927891223E+02  0.00000000000E+00 0.  1.
         -5    1    3    3    0  504 -0.42378129022E+02 -0.38371289357E+02  0.12583565936E+02  0.58725614497E+02  0.47000000000E+01 0.  1.
<mgrwt>
<rscale>  2 0.17399172E+03</rscale>
<asrwt>0</asrwt>
<pdfrwt beam="1">  1       21 0.59612625E-01 0.17477730E+03</pdfrwt>
<pdfrwt beam="2">  1       21 0.20326057E-01 0.17477730E+03</pdfrwt>
<totfact> 0.59326170E+04</totfact>
</mgrwt>
</event>
<event>
12    1  0.2742799E-001  0.1848927E+03  0.7546771E-02  0.1163360E+00
         21   -1    0    0  502  503  0.00000000000E+00  0.00000000000E+00  0.12516117681E+03  0.12516117681E+03  0.00000000000E+00 0.  1.
         21   -1    0    0  503  504 -0.00000000000E+00 -0.00000000000E+00 -0.31222997055E+03  0.31222997055E+03  0.00000000000E+00 0.  1.
         -6    2    1    2    0  504  0.59172473811E+02  0.17503921728E+02 -0.17242229397E+03  0.25281371833E+03  0.17429159414E+03 0.  0.
        -24    2    3    3    0    0  0.98647060353E+02  0.45399419422E+02 -0.12263318049E+03  0.18326195635E+03  0.82180885167E+02 0.  0.
          6    2    1    2  502    0 -0.59172473811E+02 -0.17503921728E+02 -0.14646499769E+02  0.18457742902E+03  0.17333937353E+03 0.  0.
         24    2    5    5    0    0  0.11233348058E+02  0.30646194483E+02 -0.39984739757E+02  0.95473389551E+02  0.80318188189E+02 0.  0.
          4    1    6    6  501    0 -0.78788561198E+01  0.10534624213E+02 -0.59895975169E+02  0.61323588631E+02  0.00000000000E+00 0. -1.
         -3    1    6    6    0  501  0.19112204178E+02  0.20111570270E+02  0.19911235412E+02  0.34149800920E+02  0.00000000000E+00 0.  1.
          5    1    5    5  502    0 -0.70405821869E+02 -0.48150116212E+02  0.25338239987E+02  0.89104039470E+02  0.47000000000E+01 0. -1.
         13    1    4    4    0    0  0.59119741635E+02  0.40469035530E+01 -0.14619026441E+02  0.61034721376E+02  0.00000000000E+00 0. -1.
        -14    1    4    4    0    0  0.39527318718E+02  0.41352515869E+02 -0.10801415405E+03  0.12222723497E+03  0.00000000000E+00 0.  1.
         -5    1    3    3    0  504 -0.39474586542E+02 -0.27895497694E+02 -0.49789113479E+02  0.69551761985E+02  0.47000000000E+01 0.  1.
<mgrwt>
<rscale>  2 0.18466800E+03</rscale>
<asrwt>0</asrwt>
<pdfrwt beam="1">  1       21 0.19255566E-01 0.18489275E+03</pdfrwt>
<pdfrwt beam="2">  1       21 0.48035379E-01 0.18489275E+03</pdfrwt>
<totfact> 0.10290412E+05</totfact>
</mgrwt>
</event>
<event>
12    1  0.2742799E-001  0.2080037E+03  0.7546771E-02  0.1143302E+00
         21   -1    0    0  502  503  0.00000000000E+00  0.00000000000E+00  0.26622425913E+02  0.26622425913E+02  0.00000000000E+00 0.  1.
         21   -1    0    0  503  504 -0.00000000000E+00 -0.00000000000E+00 -0.18342581361E+04  0.18342581361E+04  0.00000000000E+00 0. -1.
         -6    2    1    2    0  504  0.55740884026E+02 -0.10032384505E+03 -0.12207910696E+04  0.12382633666E+04  0.17260767502E+03 0.  0.
        -24    2    3    3    0    0  0.15244625591E+01 -0.37179018687E+02 -0.97102699443E+03  0.97495580369E+03  0.79125165532E+02 0.  0.
          6    2    1    2  502    0 -0.55740884026E+02  0.10032384505E+03 -0.58684464064E+03  0.62261719544E+03  0.17347512724E+03 0.  0.
         24    2    5    5    0    0  0.36535961650E+02  0.42996290954E+02 -0.30293131460E+03  0.31859362495E+03  0.80937994590E+02 0.  0.
          2    1    6    6  501    0  0.34868274318E+02  0.66376622016E+02 -0.23997874118E+03  0.25141887105E+03  0.00000000000E+00 0. -1.
         -1    1    6    6    0  501  0.16676873315E+01 -0.23380331062E+02 -0.62952573417E+02  0.67174753899E+02  0.00000000000E+00 0.  1.
          5    1    5    5  502    0 -0.92276845675E+02  0.57327554094E+02 -0.28391332605E+03  0.30402357049E+03  0.47000000000E+01 0. -1.
         11    1    4    4    0    0  0.37464961028E+02 -0.25684945464E+02 -0.37605725357E+03  0.37879070434E+03  0.00000000000E+00 0. -1.
        -12    1    4    4    0    0 -0.35940498469E+02 -0.11494073223E+02 -0.59496974085E+03  0.59616509935E+03  0.00000000000E+00 0.  1.
         -5    1    3    3    0  504  0.54216421466E+02 -0.63144826362E+02 -0.24976407513E+03  0.26330756290E+03  0.47000000000E+01 0.  1.
<mgrwt>
<rscale>  2 0.20782274E+03</rscale>
<asrwt>0</asrwt>
<pdfrwt beam="1">  1       21 0.40957576E-02 0.20800370E+03</pdfrwt>
<pdfrwt beam="2">  1       21 0.28219358E+00 0.20800370E+03</pdfrwt>
<totfact> 0.16042424E+04</totfact>
</mgrwt>
</event>
<event>
12    1  0.2742799E-001  0.2824209E+03  0.7546771E-02  0.1094403E+00
         21   -1    0    0  502  503  0.00000000000E+00  0.00000000000E+00  0.14574530288E+03  0.14574530288E+03  0.00000000000E+00 0.  1.
         21   -1    0    0  503  504 -0.00000000000E+00 -0.00000000000E+00 -0.17575367032E+04  0.17575367032E+04  0.00000000000E+00 0.  1.
         -6    2    1    2    0  504 -0.13796207250E+03  0.17514561111E+03 -0.15958235598E+04  0.16206216030E+04  0.17335520555E+03 0.  0.
        -24    2    3    3    0    0 -0.50424917172E+02  0.16993055245E+03 -0.11113770456E+04  0.11282797851E+04  0.80232606672E+02 0.  0.
          6    2    1    2  502    0  0.13796207250E+03 -0.17514561111E+03 -0.15967840539E+02  0.28266040318E+03  0.17300986403E+03 0.  0.
         24    2    5    5    0    0  0.47724540469E+02 -0.16677659279E+03 -0.45058120498E+01  0.19119280918E+03  0.80264090822E+02 0.  0.
          4    1    6    6  501    0  0.58956810593E+01 -0.13256958443E+03  0.15436297196E+02  0.13359540801E+03  0.00000000000E+00 0. -1.
         -3    1    6    6    0  501  0.41828859409E+02 -0.34207008362E+02 -0.19942109246E+02  0.57597401172E+02  0.00000000000E+00 0.  1.
          5    1    5    5  502    0  0.90237532027E+02 -0.83690183238E+01 -0.11462028489E+02  0.91467593994E+02  0.47000000000E+01 0. -1.
         11    1    4    4    0    0 -0.39185950195E+02  0.21177682449E+02 -0.21380237697E+03  0.21839296995E+03  0.00000000000E+00 0. -1.
        -12    1    4    4    0    0 -0.11238966978E+02  0.14875287000E+03 -0.89757466859E+03  0.90988681516E+03  0.00000000000E+00 0.  1.
         -5    1    3    3    0  504 -0.87537155324E+02  0.52150586654E+01 -0.48444651427E+03  0.49234181784E+03  0.47000000000E+01 0.  1.
<mgrwt>
<rscale>  2 0.28236789E+03</rscale>
<asrwt>0</asrwt>
<pdfrwt beam="1">  1       21 0.22422354E-01 0.28242087E+03</pdfrwt>
<pdfrwt beam="2">  1       21 0.27039027E+00 0.28242087E+03</pdfrwt>
<totfact> 0.85541315E+02</totfact>
</mgrwt>
</event>
<event>
12    1  0.2742799E-001  0.1859552E+03  0.7546771E-02  0.1162256E+00
         21   -1    0    0  502  503  0.00000000000E+00  0.00000000000E+00  0.26253221521E+03  0.26253221521E+03  0.00000000000E+00 0. -1.
         21   -1    0    0  503  504 -0.00000000000E+00 -0.00000000000E+00 -0.14696995403E+03  0.14696995403E+03  0.00000000000E+00 0. -1.
         -6    2    1    2    0  504 -0.12358848096E+02 -0.66401851117E+02 -0.87549600155E+01  0.18616122026E+03  0.17325531348E+03 0.  0.
        -24    2    3    3    0    0 -0.61981135123E+02 -0.26672385675E+01 -0.18811173075E+02  0.10462785514E+03  0.82124007251E+02 0.  0.
          6    2    1    2  502    0  0.12358848096E+02  0.66401851117E+02  0.12431722120E+03  0.22334094897E+03  0.17281337055E+03 0.  0.
         24    2    5    5    0    0 -0.46562136332E+02  0.31066269813E+02  0.22243706067E+02  0.10020940060E+03  0.80087426289E+02 0.  0.
          4    1    6    6  501    0 -0.35860959342E+02  0.52313584139E+02  0.35797007060E+02  0.72829562712E+02  0.00000000000E+00 0. -1.
         -3    1    6    6    0  501 -0.10701176990E+02 -0.21247314327E+02 -0.13553300993E+02  0.27379837890E+02  0.00000000000E+00 0.  1.
          5    1    5    5  502    0  0.58920984428E+02  0.35335581304E+02  0.10207351513E+03  0.12313154837E+03  0.47000000000E+01 0. -1.
         13    1    4    4    0    0 -0.59121631761E+02 -0.31918669954E+02  0.41730461179E+01  0.67317034602E+02  0.00000000000E+00 0. -1.
        -14    1    4    4    0    0 -0.28595033619E+01  0.29251431386E+02 -0.22984219193E+02  0.37310820542E+02  0.00000000000E+00 0.  1.
         -5    1    3    3    0  504  0.49622287027E+02 -0.63734612549E+02  0.10056213060E+02  0.81533365120E+02  0.47000000000E+01 0.  1.
<mgrwt>
<rscale>  2 0.18585223E+03</rscale>
<asrwt>0</asrwt>
<pdfrwt beam="1">  1       21 0.40389572E-01 0.18595524E+03</pdfrwt>
<pdfrwt beam="2">  1       21 0.22610762E-01 0.18595524E+03</pdfrwt>
<totfact> 0.10853756E+05</totfact>
</mgrwt>
</event>
<event>
12    1  0.2742799E-001  0.2078968E+03  0.7546771E-02  0.1144067E+00
         21   -1    0    0  502  503  0.00000000000E+00  0.00000000000E+00  0.26261105999E+03  0.26261105999E+03  0.00000000000E+00 0. -1.
         21   -1    0    0  503  504 -0.00000000000E+00 -0.00000000000E+00 -0.20508632778E+03  0.20508632778E+03  0.00000000000E+00 0.  1.
         -6    2    1    2    0  504 -0.69439691318E+02  0.84747887609E+02 -0.79412407398E+02  0.21875387287E+03  0.17188033995E+03 0.  0.
        -24    2    3    3    0    0 -0.88892882813E+02  0.61946632052E+02 -0.21424382494E+01  0.13574145183E+03  0.81742411669E+02 0.  0.
          6    2    1    2  502    0  0.69439691318E+02 -0.84747887609E+02  0.13693713960E+03  0.24894351491E+03  0.17668338413E+03 0.  0.
         24    2    5    5    0    0 -0.16147696612E+02 -0.89935988242E+01  0.15989710352E+02  0.82467438895E+02  0.78762774933E+02 0.  0.
          4    1    6    6  501    0  0.18621051263E+02  0.13214803726E+01  0.36359527088E+02  0.40871812665E+02  0.00000000000E+00 0. -1.
         -3    1    6    6    0  501 -0.34768747874E+02 -0.10315079197E+02 -0.20369816736E+02  0.41595626230E+02  0.00000000000E+00 0.  1.
          5    1    5    5  502    0  0.85587387930E+02 -0.75754288785E+02  0.12094742925E+03  0.16647607601E+03  0.47000000000E+01 0. -1.
         13    1    4    4    0    0  0.14762662631E+02  0.81999925510E+01 -0.83027865352E+01  0.18817873154E+02  0.00000000000E+00 0. -1.
        -14    1    4    4    0    0 -0.10365554544E+03  0.53746639501E+02  0.61603482859E+01  0.11692357867E+03  0.00000000000E+00 0.  1.
         -5    1    3    3    0  504  0.19453191494E+02  0.22801255557E+02 -0.77269969149E+02  0.83012421038E+02  0.47000000000E+01 0.  1.
<mgrwt>
<rscale>  2 0.20687274E+03</rscale>
<asrwt>0</asrwt>
<pdfrwt beam="1">  1       21 0.40401701E-01 0.20789683E+03</pdfrwt>
<pdfrwt beam="2">  1       21 0.31551743E-01 0.20789683E+03</pdfrwt>
<totfact> 0.56592600E+04</totfact>
</mgrwt>
</event>
<event>
12    1  0.2742799E-001  0.2630858E+03  0.7546771E-02  0.1105541E+00
         21   -1    0    0  502  503  0.00000000000E+00  0.00000000000E+00  0.50829174635E+03  0.50829174635E+03  0.00000000000E+00 0.  1.
         21   -1    0    0  503  504 -0.00000000000E+00 -0.00000000000E+00 -0.48741514222E+03  0.48741514222E+03  0.00000000000E+00 0.  1.
         -6    2    1    2    0  504 -0.77141370977E+02  0.18019439851E+03 -0.41267724608E+03  0.48940437840E+03  0.17548026612E+03 0.  0.
        -24    2    3    3    0    0 -0.69390419782E+02  0.41706620206E+02 -0.10819399245E+03  0.15478357253E+03  0.75482062743E+02 0.  0.
          6    2    1    2  502    0  0.77141370977E+02 -0.18019439851E+03  0.43355385020E+03  0.50630251018E+03  0.17306784339E+03 0.  0.
         24    2    5    5    0    0  0.21800910126E+02 -0.11937459086E+02  0.12312195626E+03  0.14886298375E+03  0.79896115098E+02 0.  0.
          4    1    6    6  501    0  0.63608225239E+01  0.34067663355E+02  0.43486498939E+02  0.55607025991E+02  0.00000000000E+00 0. -1.
         -3    1    6    6    0  501  0.15440087602E+02 -0.46005122440E+02  0.79635457318E+02  0.93255957763E+02  0.00000000000E+00 0.  1.
          5    1    5    5  502    0  0.55340460851E+02 -0.16825693942E+03  0.31043189395E+03  0.35743952642E+03  0.47000000000E+01 0. -1.
         13    1    4    4    0    0 -0.18233499372E+02 -0.15393016024E+02 -0.59130142951E+02  0.63763463261E+02  0.00000000000E+00 0. -1.
        -14    1    4    4    0    0 -0.51156920411E+02  0.57099636230E+02 -0.49063849504E+02  0.91020109271E+02  0.00000000000E+00 0.  1.
         -5    1    3    3    0  504 -0.77509511944E+01  0.13848777830E+03 -0.30448325362E+03  0.33462080587E+03  0.47000000000E+01 0.  1.
<mgrwt>
<rscale>  2 0.26268415E+03</rscale>
<asrwt>0</asrwt>
<pdfrwt beam="1">  1       21 0.78198730E-01 0.26308580E+03</pdfrwt>
<pdfrwt beam="2">  1       21 0.74986945E-01 0.26308580E+03</pdfrwt>
<totfact> 0.21801634E+03</totfact>
</mgrwt>
</event>
<event>
12    1  0.2742799E-001  0.3980294E+03  0.7546771E-02  0.1044630E+00
         21   -1    0    0  502  503  0.00000000000E+00  0.00000000000E+00  0.12923281954E+04  0.12923281954E+04  0.00000000000E+00 0. -1.
         21   -1    0    0  503  504 -0.00000000000E+00 -0.00000000000E+00 -0.13742853529E+03  0.13742853529E+03  0.00000000000E+00 0. -1.
         -6    2    1    2    0  504  0.31797889015E+03  0.15993657130E+03  0.33919385056E+03  0.52295302004E+03  0.17814912711E+03 0.  0.
        -24    2    3    3    0    0  0.27641356519E+03  0.17374199265E+03  0.34138441336E+03  0.47884911473E+03  0.78501069858E+02 0.  0.
          6    2    1    2  502    0 -0.31797889015E+03 -0.15993657130E+03  0.81570580954E+03  0.90680371063E+03  0.17385833453E+03 0.  0.
         24    2    5    5    0    0 -0.20390050112E+03 -0.47990679458E+02  0.36348568329E+03  0.42714665176E+03  0.80336171692E+02 0.  0.
          2    1    6    6  501    0 -0.17439448028E+03 -0.58274721742E+02  0.34473227782E+03  0.39070413526E+03  0.00000000000E+00 0. -1.
         -1    1    6    6    0  501 -0.29506020840E+02  0.10284042284E+02  0.18753405471E+02  0.36442516491E+02  0.00000000000E+00 0.  1.
          5    1    5    5  502    0 -0.11407838904E+03 -0.11194589184E+03  0.45222012625E+03  0.47965705888E+03  0.47000000000E+01 0. -1.
         11    1    4    4    0    0  0.22896494355E+03  0.10612111948E+03  0.24236363909E+03  0.34989537140E+03  0.00000000000E+00 0. -1.
        -12    1    4    4    0    0  0.47448621639E+02  0.67620873167E+02  0.99020774266E+02  0.12895374333E+03  0.00000000000E+00 0.  1.
         -5    1    3    3    0  504  0.41565324964E+02 -0.13805421351E+02 -0.21905627922E+01  0.44103905308E+02  0.47000000000E+01 0.  1.
<mgrwt>
<rscale>  2 0.39755306E+03</rscale>
<asrwt>0</asrwt>
<pdfrwt beam="1">  1       21 0.19881971E+00 0.39802939E+03</pdfrwt>
<pdfrwt beam="2">  1       21 0.21142852E-01 0.39802939E+03</pdfrwt>
<totfact> 0.24689472E+03</totfact>
</mgrwt>
</event>
<event>
12    1  0.2742799E-001  0.1951948E+03  0.7546771E-02  0.1153860E+00
         21   -1    0    0  502  503  0.00000000000E+00  0.00000000000E+00  0.40063181578E+03  0.40063181578E+03  0.00000000000E+00 0. -1.
         21   -1    0    0  503  504 -0.00000000000E+00 -0.00000000000E+00 -0.11350677046E+03  0.11350677046E+03  0.00000000000E+00 0. -1.
         -6    2    1    2    0  504 -0.90626006121E+02  0.99687965488E+01  0.40038128631E+02  0.19925879115E+03  0.17259363898E+03 0.  0.
        -24    2    3    3    0    0 -0.64718956046E+02 -0.34559286515E+02 -0.31195326614E+02  0.11122345409E+03  0.77553986241E+02 0.  0.
          6    2    1    2  502    0  0.90626006121E+02 -0.99687965488E+01  0.24708691669E+03  0.31487979509E+03  0.17258299762E+03 0.  0.
         24    2    5    5    0    0  0.57811565083E+02 -0.73377190371E+02  0.15593196262E+03  0.19899740816E+03  0.80986433220E+02 0.  0.
          4    1    6    6  501    0  0.74844840840E+02 -0.39426692070E+02  0.11912291974E+03  0.14610436084E+03  0.00000000000E+00 0. -1.
         -3    1    6    6    0  501 -0.17033275757E+02 -0.33950498301E+02  0.36809042870E+02  0.52893047321E+02  0.00000000000E+00 0.  1.
          5    1    5    5  502    0  0.32814441038E+02  0.63408393822E+02  0.91154954071E+02  0.11588238693E+03  0.47000000000E+01 0. -1.
         11    1    4    4    0    0 -0.52767335100E+02  0.88161917578E+01  0.46467428308E+01  0.53700177929E+02  0.00000000000E+00 0. -1.
        -12    1    4    4    0    0 -0.11951620946E+02 -0.43375478273E+02 -0.35842069445E+02  0.57523276165E+02  0.00000000000E+00 0.  1.
         -5    1    3    3    0  504 -0.25907050075E+02  0.44528083064E+02  0.71233455245E+02  0.88035337059E+02  0.47000000000E+01 0.  1.
<mgrwt>
<rscale>  2 0.19519246E+03</rscale>
<asrwt>0</asrwt>
<pdfrwt beam="1">  1       21 0.61635663E-01 0.19519481E+03</pdfrwt>
<pdfrwt beam="2">  1       21 0.17462580E-01 0.19519481E+03</pdfrwt>
<totfact> 0.72531329E+04</totfact>
</mgrwt>
</event>
<event>
12    1  0.2742799E-001  0.2481659E+03  0.7546771E-02  0.1115487E+00
         21   -1    0    0  502  503  0.00000000000E+00  0.00000000000E+00  0.10554592091E+03  0.10554592091E+03  0.00000000000E+00 0.  1.
         21   -1    0    0  503  504 -0.00000000000E+00 -0.00000000000E+00 -0.74928180651E+03  0.74928180651E+03  0.00000000000E+00 0. -1.
         -6    2    1    2    0  504 -0.81052393477E+02  0.15148815640E+03 -0.52848759624E+03  0.58120667990E+03  0.17024662510E+03 0.  0.
        -24    2    3    3    0    0 -0.26495124417E+02  0.15878118996E+03 -0.44433823343E+03  0.48054442675E+03  0.87023114731E+02 0.  0.
          6    2    1    2  502    0  0.81052393477E+02 -0.15148815640E+03 -0.11524828936E+03  0.27362104752E+03  0.17907584267E+03 0.  0.
         24    2    5    5    0    0  0.72663556555E+02 -0.31221670971E+02 -0.62927336514E+01  0.11105474344E+03  0.77709538379E+02 0.  0.
          4    1    6    6  501    0 -0.25235166215E+00 -0.17277087098E+02  0.25083725165E+02  0.30459065778E+02  0.00000000000E+00 0. -1.
         -3    1    6    6    0  501  0.72915908217E+02 -0.13944583873E+02 -0.31376458816E+02  0.80595677666E+02  0.00000000000E+00 0.  1.
          5    1    5    5  502    0  0.83888369220E+01 -0.12026648543E+03 -0.10895555570E+03  0.16256630408E+03  0.47000000000E+01 0. -1.
         13    1    4    4    0    0 -0.52667245971E+02  0.12374700911E+03 -0.28213674362E+03  0.31255128086E+03  0.00000000000E+00 0. -1.
        -14    1    4    4    0    0  0.26172121554E+02  0.35034180844E+02 -0.16220148980E+03  0.16799314590E+03  0.00000000000E+00 0.  1.
         -5    1    3    3    0  504 -0.54557269060E+02 -0.72930335597E+01 -0.84149362818E+02  0.10066225315E+03  0.47000000000E+01 0.  1.
<mgrwt>
<rscale>  2 0.24657723E+03</rscale>
<asrwt>0</asrwt>
<pdfrwt beam="1">  1       21 0.16237834E-01 0.24816589E+03</pdfrwt>
<pdfrwt beam="2">  1       21 0.11527413E+00 0.24816589E+03</pdfrwt>
<totfact> 0.19152590E+04</totfact>
</mgrwt>
</event>
<event>
12    1  0.2742799E-001  0.2437658E+03  0.7546771E-02  0.1117524E+00
         21   -1    0    0  502  503  0.00000000000E+00  0.00000000000E+00  0.91962108525E+03  0.91962108525E+03  0.00000000000E+00 0. -1.
         21   -1    0    0  503  504 -0.00000000000E+00 -0.00000000000E+00 -0.79452874571E+02  0.79452874571E+02  0.00000000000E+00 0.  1.
         -6    2    1    2    0  504  0.16942893558E+03 -0.16532112968E+02  0.20079207735E+03  0.31480529416E+03  0.17264252064E+03 0.  0.
        -24    2    3    3    0    0  0.11148036784E+03 -0.76918130246E+02  0.14876946421E+03  0.21614958036E+03  0.79019089070E+02 0.  0.
          6    2    1    2  502    0 -0.16942893558E+03  0.16532112968E+02  0.63937613334E+03  0.68426866567E+03  0.17447719612E+03 0.  0.
         24    2    5    5    0    0 -0.63547925900E+02  0.37192299837E+01  0.14469446856E+03  0.17819851475E+03  0.82256002035E+02 0.  0.
          2    1    6    6  501    0 -0.63591456337E+02  0.33379905457E+02  0.11881495515E+03  0.13883473980E+03  0.00000000000E+00 0. -1.
         -1    1    6    6    0  501  0.43530437519E-01 -0.29660675473E+02  0.25879513409E+02  0.39363774955E+02  0.00000000000E+00 0.  1.
          5    1    5    5  502    0 -0.10588100968E+03  0.12812882984E+02  0.49468166478E+03  0.50607015091E+03  0.47000000000E+01 0. -1.
         13    1    4    4    0    0  0.10545786216E+03 -0.31821092543E+02  0.92902107471E+02  0.14409977167E+03  0.00000000000E+00 0. -1.
        -14    1    4    4    0    0  0.60225056728E+01 -0.45097037703E+02  0.55867356738E+02  0.72049808695E+02  0.00000000000E+00 0.  1.
         -5    1    3    3    0  504  0.57948567742E+02  0.60386017278E+02  0.52022613138E+02  0.98655713792E+02  0.47000000000E+01 0.  1.
<mgrwt>
<rscale>  2 0.24343769E+03</rscale>
<asrwt>0</asrwt>
<pdfrwt beam="1">  1       21 0.14148016E+00 0.24376580E+03</pdfrwt>
<pdfrwt beam="2">  1       21 0.12223520E-01 0.24376580E+03</pdfrwt>
<totfact> 0.19159410E+04</totfact>
</mgrwt>
</event>
<event>
12    1  0.2742799E-001  0.2038035E+03  0.7546771E-02  0.1146640E+00
         21   -1    0    0  502  503  0.00000000000E+00  0.00000000000E+00  0.39558461495E+03  0.39558461495E+03  0.00000000000E+00 0.  1.
         21   -1    0    0  503  504 -0.00000000000E+00 -0.00000000000E+00 -0.19083862410E+03  0.19083862410E+03  0.00000000000E+00 0.  1.
         -6    2    1    2    0  504  0.23119682160E+02 -0.10642300105E+03 -0.94526599897E+02  0.22434596134E+03  0.17185882993E+03 0.  0.
        -24    2    3    3    0    0 -0.38284718026E+02 -0.10735775190E+03 -0.80934476019E+02  0.16127290883E+03  0.80418624623E+02 0.  0.
          6    2    1    2  502    0 -0.23119682160E+02  0.10642300105E+03  0.29927259075E+03  0.36207727771E+03  0.17226577317E+03 0.  0.
         24    2    5    5    0    0 -0.76553155905E+01  0.13473417202E+03  0.28736218382E+03  0.32736968735E+03  0.79887336551E+02 0.  0.
          2    1    6    6  501    0 -0.21382706472E+02  0.10975121815E+03  0.15004983760E+03  0.18712964432E+03  0.00000000000E+00 0. -1.
         -1    1    6    6    0  501  0.13727390882E+02  0.24982953875E+02  0.13731234622E+03  0.14024004303E+03  0.00000000000E+00 0.  1.
          5    1    5    5  502    0 -0.15464366569E+02 -0.28311170972E+02  0.11910406932E+02  0.34707590358E+02  0.47000000000E+01 0. -1.
         11    1    4    4    0    0 -0.20736272437E+02 -0.44099632906E+02  0.93744171535E+01  0.49625097622E+02  0.00000000000E+00 0. -1.
        -12    1    4    4    0    0 -0.17548445590E+02 -0.63258118996E+02 -0.90308893173E+02  0.11164781121E+03  0.00000000000E+00 0.  1.
         -5    1    3    3    0  504  0.61404400186E+02  0.93475085106E+00 -0.13592123878E+02  0.63073052509E+02  0.47000000000E+01 0.  1.
<mgrwt>
<rscale>  2 0.20371749E+03</rscale>
<asrwt>0</asrwt>
<pdfrwt beam="1">  1       21 0.60859171E-01 0.20380351E+03</pdfrwt>
<pdfrwt beam="2">  1       21 0.29359788E-01 0.20380351E+03</pdfrwt>
<totfact> 0.27755087E+04</totfact>
</mgrwt>
</event>
<event>
12    1  0.2742799E-001  0.2092407E+03  0.7546771E-02  0.1142845E+00
         21   -1    0    0  502  503  0.00000000000E+00  0.00000000000E+00  0.37891738058E+03  0.37891738058E+03  0.00000000000E+00 0. -1.
         21   -1    0    0  503  504 -0.00000000000E+00 -0.00000000000E+00 -0.12778161929E+03  0.12778161929E+03  0.00000000000E+00 0. -1.
         -6    2    1    2    0  504 -0.10227659077E+03 -0.47918900864E+02  0.40531017509E+02  0.20982188037E+03  0.17212128289E+03 0.  0.
        -24    2    3    3    0    0 -0.71369153849E+01 -0.71664556105E+02  0.35396650476E+02  0.11151691763E+03  0.77436140715E+02 0.  0.
          6    2    1    2  502    0  0.10227659077E+03  0.47918900864E+02  0.21060474378E+03  0.29687711949E+03  0.17613899027E+03 0.  0.
         24    2    5    5    0    0  0.97284068124E+02  0.85473259715E+02  0.10660640879E+03  0.18609355197E+03  0.80597863824E+02 0.  0.
          2    1    6    6  501    0  0.83052876764E+02  0.97366092712E+02  0.10805222433E+03  0.16749095358E+03  0.00000000000E+00 0. -1.
         -1    1    6    6    0  501  0.14231191360E+02 -0.11892832997E+02 -0.14458155423E+01  0.18602598389E+02  0.00000000000E+00 0.  1.
          5    1    5    5  502    0  0.49925226487E+01 -0.37554358851E+02  0.10399833500E+03  0.11078356752E+03  0.47000000000E+01 0. -1.
         13    1    4    4    0    0 -0.37822435879E+02 -0.22397672481E+02  0.30014058679E+02  0.53226272711E+02  0.00000000000E+00 0. -1.
        -14    1    4    4    0    0  0.30685520494E+02 -0.49266883624E+02  0.53825917970E+01  0.58290644914E+02  0.00000000000E+00 0.  1.
         -5    1    3    3    0  504 -0.95139675388E+02  0.23745655241E+02  0.51343670333E+01  0.98304962746E+02  0.47000000000E+01 0.  1.
<mgrwt>
<rscale>  2 0.20839288E+03</rscale>
<asrwt>0</asrwt>
<pdfrwt beam="1">  1       21 0.58294981E-01 0.20924069E+03</pdfrwt>
<pdfrwt beam="2">  1       21 0.19658711E-01 0.20924069E+03</pdfrwt>
<totfact> 0.65205874E+04</totfact>
</mgrwt>
</event>
<event>
12    1  0.2742799E-001  0.2618384E+03  0.7546771E-02  0.1106130E+00
         21   -1    0    0  502  503  0.00000000000E+00  0.00000000000E+00  0.11360806960E+04  0.11360806960E+04  0.00000000000E+00 0. -1.
         21   -1    0    0  503  504 -0.00000000000E+00 -0.00000000000E+00 -0.78388668604E+02  0.78388668604E+02  0.00000000000E+00 0.  1.
         -6    2    1    2    0  504 -0.60305093630E+02 -0.18687443273E+03  0.23600910899E+03  0.35207607240E+03  0.17233253699E+03 0.  0.
        -24    2    3    3    0    0  0.12625638404E+02 -0.30895752389E+02  0.59214806591E+02  0.10524302000E+03  0.80347655091E+02 0.  0.
          6    2    1    2  502    0  0.60305093630E+02  0.18687443273E+03  0.82168291841E+03  0.86239329220E+03  0.17320685353E+03 0.  0.
         24    2    5    5    0    0  0.19529541865E+02  0.83787768425E+02  0.63068680737E+03  0.64150619341E+03  0.79765619514E+02 0.  0.
          2    1    6    6  501    0 -0.93729322862E+01  0.84226061065E+02  0.53074151214E+03  0.53746482111E+03  0.00000000000E+00 0. -1.
         -1    1    6    6    0  501  0.28902474151E+02 -0.43829264009E+00  0.99945295226E+02  0.10404137230E+03  0.00000000000E+00 0.  1.
          5    1    5    5  502    0  0.40775551765E+02  0.10308666431E+03  0.19099611104E+03  0.22088709879E+03  0.47000000000E+01 0. -1.
         13    1    4    4    0    0  0.29080184137E+02 -0.27611867584E+02  0.73157451322E+02  0.83427124036E+02  0.00000000000E+00 0. -1.
        -14    1    4    4    0    0 -0.16454545733E+02 -0.32838848058E+01 -0.13942644731E+02  0.21815895966E+02  0.00000000000E+00 0.  1.
         -5    1    3    3    0  504 -0.72930732034E+02 -0.15597868034E+03  0.17679430240E+03  0.24683305240E+03  0.47000000000E+01 0.  1.
<mgrwt>
<rscale>  2 0.26169394E+03</rscale>
<asrwt>0</asrwt>
<pdfrwt beam="1">  1       21 0.17478163E+00 0.26183845E+03</pdfrwt>
<pdfrwt beam="2">  1       21 0.12059796E-01 0.26183845E+03</pdfrwt>
<totfact> 0.10958220E+04</totfact>
</mgrwt>
</event>
<event>
12    1  0.2742799E-001  0.2779553E+03  0.7546771E-02  0.1096859E+00
         21   -1    0    0  502  503  0.00000000000E+00  0.00000000000E+00  0.12769122785E+03  0.12769122785E+03  0.00000000000E+00 0. -1.
         21   -1    0    0  503  504 -0.00000000000E+00 -0.00000000000E+00 -0.67605625148E+03  0.67605625148E+03  0.00000000000E+00 0. -1.
         -6    2    1    2    0  504  0.13436221580E+02  0.21669658089E+03 -0.40528038005E+03  0.49143800380E+03  0.17355455886E+03 0.  0.
        -24    2    3    3    0    0  0.26302734428E+02  0.53185160196E+02 -0.83783085607E+02  0.13048907086E+03  0.80543758776E+02 0.  0.
          6    2    1    2  502    0 -0.13436221580E+02 -0.21669658089E+03 -0.14308464358E+03  0.31230947554E+03  0.17299148264E+03 0.  0.
         24    2    5    5    0    0 -0.16682660592E+02 -0.41841810819E+02 -0.90757954779E+02  0.12970360942E+03  0.80975129779E+02 0.  0.
          4    1    6    6  501    0 -0.35460543667E+02 -0.38464746482E+02 -0.19332642971E+02  0.55773990025E+02  0.00000000000E+00 0. -1.
         -3    1    6    6    0  501  0.18777883076E+02 -0.33770643379E+01 -0.71425311808E+02  0.73929619391E+02  0.00000000000E+00 0.  1.
          5    1    5    5  502    0  0.32464390116E+01 -0.17485477007E+03 -0.52326688803E+02  0.18260586613E+03  0.47000000000E+01 0. -1.
         13    1    4    4    0    0  0.29925050117E+02  0.72234748991E+02 -0.77541544746E+02  0.11011838515E+03  0.00000000000E+00 0. -1.
        -14    1    4    4    0    0 -0.36223156888E+01 -0.19049588795E+02 -0.62415408616E+01  0.20370685716E+02  0.00000000000E+00 0.  1.
         -5    1    3    3    0  504 -0.12866512848E+02  0.16351142069E+03 -0.32149729444E+03  0.36094893293E+03  0.47000000000E+01 0.  1.
<mgrwt>
<rscale>  2 0.27786741E+03</rscale>
<asrwt>0</asrwt>
<pdfrwt beam="1">  1       21 0.19644805E-01 0.27795526E+03</pdfrwt>
<pdfrwt beam="2">  1       21 0.10400865E+00 0.27795526E+03</pdfrwt>
<totfact> 0.17020137E+04</totfact>
</mgrwt>
</event>
<event>
12    1  0.2742799E-001  0.2229390E+03  0.7546771E-02  0.1131765E+00
         21   -1    0    0  502  503  0.00000000000E+00  0.00000000000E+00  0.10691901825E+04  0.10691901825E+04  0.00000000000E+00 0.  1.
         21   -1    0    0  503  504 -0.00000000000E+00 -0.00000000000E+00 -0.54400056318E+02  0.54400056318E+02  0.00000000000E+00 0. -1.
         -6    2    1    2    0  504 -0.11887038679E+03  0.73414468572E+02  0.29199742227E+03  0.36719675768E+03  0.17335256325E+03 0.  0.
        -24    2    3    3    0    0 -0.42192407943E+02  0.10517576881E+03  0.19656949464E+03  0.24063897639E+03  0.80158649585E+02 0.  0.
          6    2    1    2  502    0  0.11887038679E+03 -0.73414468572E+02  0.72279270389E+03  0.75639348112E+03  0.17372953817E+03 0.  0.
         24    2    5    5    0    0  0.12126508423E+02 -0.19544972557E+02  0.17015322561E+03  0.19094793898E+03  0.83546017604E+02 0.  0.
          2    1    6    6  501    0 -0.96946358287E+01 -0.35324920050E+02  0.27577610910E+02  0.45851505579E+02  0.00000000000E+00 0. -1.
         -1    1    6    6    0  501  0.21821144252E+02  0.15779947493E+02  0.14257561470E+03  0.14509643340E+03  0.00000000000E+00 0.  1.
          5    1    5    5  502    0  0.10674387837E+03 -0.53869496015E+02  0.55263947828E+03  0.56544554213E+03  0.47000000000E+01 0. -1.
         13    1    4    4    0    0 -0.51032437414E+02  0.93771261953E+02  0.11155319604E+03  0.15440684824E+03  0.00000000000E+00 0. -1.
        -14    1    4    4    0    0  0.88400294711E+01  0.11404506853E+02  0.85016298600E+02  0.86232128150E+02  0.00000000000E+00 0.  1.
         -5    1    3    3    0  504 -0.76677978845E+02 -0.31761300233E+02  0.95427927636E+02  0.12655778129E+03  0.47000000000E+01 0.  1.
<mgrwt>
<rscale>  2 0.22286557E+03</rscale>
<asrwt>0</asrwt>
<pdfrwt beam="1">  1       21 0.16449078E+00 0.22293902E+03</pdfrwt>
<pdfrwt beam="2">  1       21 0.83692403E-02 0.22293902E+03</pdfrwt>
<totfact> 0.25402104E+04</totfact>
</mgrwt>
</event>
<event>
12    1  0.2742799E-001  0.2303214E+03  0.7546771E-02  0.1126455E+00
         21   -1    0    0  502  503  0.00000000000E+00  0.00000000000E+00  0.15568391016E+03  0.15568391016E+03  0.00000000000E+00 0. -1.
         21   -1    0    0  503  504 -0.00000000000E+00 -0.00000000000E+00 -0.42965927009E+03  0.42965927009E+03  0.00000000000E+00 0. -1.
         -6    2    1    2    0  504 -0.11971524473E+03  0.93565040467E+02 -0.27044043378E+03  0.35522663024E+03  0.17309469659E+03 0.  0.
        -24    2    3    3    0    0 -0.12267841157E+03  0.65257906436E+02 -0.28138235965E+03  0.32437391664E+03  0.82059846803E+02 0.  0.
          6    2    1    2  502    0  0.11971524473E+03 -0.93565040467E+02 -0.35349261451E+01  0.23011655002E+03  0.17278592035E+03 0.  0.
         24    2    5    5    0    0  0.23539582749E+02 -0.77051456763E+02 -0.50670259099E+02  0.12164403729E+03  0.75754588678E+02 0.  0.
          4    1    6    6  501    0  0.38372898587E+02 -0.10211624648E+02 -0.31094860517E+02  0.50434581137E+02  0.00000000000E+00 0. -1.
         -3    1    6    6    0  501 -0.14833315838E+02 -0.66839832115E+02 -0.19575398582E+02  0.71209456153E+02  0.00000000000E+00 0.  1.
          5    1    5    5  502    0  0.96175661981E+02 -0.16513583704E+02  0.47135332954E+02  0.10847251272E+03  0.47000000000E+01 0. -1.
         13    1    4    4    0    0 -0.90832046869E+02  0.81250393609E+02 -0.24391387695E+03  0.27266475124E+03  0.00000000000E+00 0. -1.
        -14    1    4    4    0    0 -0.31846364703E+02 -0.15992487173E+02 -0.37468482700E+02  0.51709165403E+02  0.00000000000E+00 0.  1.
         -5    1    3    3    0  504  0.29631668424E+01  0.28307134032E+02  0.10941925865E+02  0.30852713600E+02  0.47000000000E+01 0.  1.
<mgrwt>
<rscale>  2 0.23026335E+03</rscale>
<asrwt>0</asrwt>
<pdfrwt beam="1">  1       21 0.23951371E-01 0.23032136E+03</pdfrwt>
<pdfrwt beam="2">  1       21 0.66101425E-01 0.23032136E+03</pdfrwt>
<totfact> 0.33871194E+04</totfact>
</mgrwt>
</event>
<event>
12    1  0.2742799E-001  0.2284864E+03  0.7546771E-02  0.1127920E+00
         21   -1    0    0  502  503  0.00000000000E+00  0.00000000000E+00  0.67624383820E+03  0.67624383820E+03  0.00000000000E+00 0. -1.
         21   -1    0    0  503  504 -0.00000000000E+00 -0.00000000000E+00 -0.86029737061E+02  0.86029737061E+02  0.00000000000E+00 0.  1.
         -6    2    1    2    0  504  0.12787315483E+03  0.74538507802E+02  0.41925606708E+03  0.47690943876E+03  0.17250921753E+03 0.  0.
        -24    2    3    3    0    0  0.10986923890E+03  0.83473967801E+02  0.42649933856E+03  0.45503391784E+03  0.78198642122E+02 0.  0.
          6    2    1    2  502    0 -0.12787315483E+03 -0.74538507802E+02  0.17095803407E+03  0.28536413650E+03  0.17406466649E+03 0.  0.
         24    2    5    5    0    0 -0.12286632447E+03 -0.11264525867E+03  0.16095571018E+03  0.24537252119E+03  0.80720787481E+02 0.  0.
          4    1    6    6  501    0 -0.60840888648E+02 -0.75447716936E+02  0.13962542684E+03  0.16996832512E+03  0.00000000000E+00 0. -1.
         -3    1    6    6    0  501 -0.62025435817E+02 -0.37197541730E+02  0.21330283335E+02  0.75404196079E+02  0.00000000000E+00 0.  1.
          5    1    5    5  502    0 -0.50068303601E+01  0.38106750865E+02  0.10002323893E+02  0.39991615309E+02  0.47000000000E+01 0. -1.
         13    1    4    4    0    0  0.74322222899E+00  0.39130318361E+02  0.13721860920E+03  0.14269085782E+03  0.00000000000E+00 0. -1.
        -14    1    4    4    0    0  0.10912601667E+03  0.44343649441E+02  0.28928072936E+03  0.31234306002E+03  0.00000000000E+00 0.  1.
         -5    1    3    3    0  504  0.18003915923E+02 -0.89354599993E+01 -0.72432714870E+01  0.21875520927E+02  0.47000000000E+01 0.  1.
<mgrwt>
<rscale>  2 0.22819015E+03</rscale>
<asrwt>0</asrwt>
<pdfrwt beam="1">  1       21 0.10403751E+00 0.22848641E+03</pdfrwt>
<pdfrwt beam="2">  1       21 0.13235345E-01 0.22848641E+03</pdfrwt>
<totfact> 0.36068818E+04</totfact>
</mgrwt>
</event>
<event>
12    1  0.2742799E-001  0.1901270E+03  0.7546771E-02  0.1160409E+00
         21   -1    0    0  502  503  0.00000000000E+00  0.00000000000E+00  0.17009224597E+04  0.17009224597E+04  0.00000000000E+00 0. -1.
         21   -1    0    0  503  504 -0.00000000000E+00 -0.00000000000E+00 -0.20280176452E+02  0.20280176452E+02  0.00000000000E+00 0. -1.
         -6    2    1    2    0  504 -0.48290008522E+02  0.58945777378E+02  0.79781181717E+03  0.81813127150E+03  0.16440362588E+03 0.  0.
        -24    2    3    3    0    0 -0.38377544343E+01 -0.55895073569E+01  0.21280344954E+03  0.22787904909E+03  0.81225500463E+02 0.  0.
          6    2    1    2  502    0  0.48290008522E+02 -0.58945777378E+02  0.88283046607E+03  0.90307136464E+03  0.17418877179E+03 0.  0.
         24    2    5    5    0    0 -0.20522569264E+02 -0.79517030295E+02  0.45850776170E+03  0.47268758852E+03  0.80374466351E+02 0.  0.
          4    1    6    6  501    0  0.10158876797E+02 -0.75912421459E+02  0.39122967056E+03  0.39865593390E+03  0.00000000000E+00 0. -1.
         -3    1    6    6    0  501 -0.30681446061E+02 -0.36046088361E+01  0.67278091146E+02  0.74031654619E+02  0.00000000000E+00 0.  1.
          5    1    5    5  502    0  0.68812577787E+02  0.20571252917E+02  0.42432270437E+03  0.43038377612E+03  0.47000000000E+01 0. -1.
         13    1    4    4    0    0 -0.37795868306E+02  0.14942611467E+02  0.12697513567E+03  0.13332102001E+03  0.00000000000E+00 0. -1.
        -14    1    4    4    0    0  0.33958113871E+02 -0.20532118824E+02  0.85828313872E+02  0.94558029079E+02  0.00000000000E+00 0.  1.
         -5    1    3    3    0  504 -0.44452254088E+02  0.64535284735E+02  0.58500836763E+03  0.59025222241E+03  0.47000000000E+01 0.  1.
<mgrwt>
<rscale>  2 0.18785598E+03</rscale>
<asrwt>0</asrwt>
<pdfrwt beam="1">  1       21 0.26168027E+00 0.19012695E+03</pdfrwt>
<pdfrwt beam="2">  1       21 0.31200285E-02 0.19012695E+03</pdfrwt>
<totfact> 0.33758881E+04</totfact>
</mgrwt>
</event>
<event>
12    1  0.2742799E-001  0.3389356E+03  0.7546771E-02  0.1067305E+00
         21   -1    0    0  502  503  0.00000000000E+00  0.00000000000E+00  0.31203124319E+02  0.31203124319E+02  0.00000000000E+00 0. -1.
         21   -1    0    0  503  504 -0.00000000000E+00 -0.00000000000E+00 -0.41286695195E+04  0.41286695195E+04  0.00000000000E+00 0.  1.
         -6    2    1    2    0  504 -0.11855762067E+03 -0.26574106024E+03 -0.27360389168E+04  0.27568893536E+04  0.17278811732E+03 0.  0.
        -24    2    3    3    0    0 -0.14333314792E+03 -0.21797087838E+03 -0.24945870443E+04  0.25094688335E+04  0.80085016725E+02 0.  0.
          6    2    1    2  502    0  0.11855762067E+03  0.26574106024E+03 -0.13614274784E+04  0.14029832902E+04  0.17379042869E+03 0.  0.
         24    2    5    5    0    0  0.11562604687E+03  0.10485790151E+03 -0.62896748501E+03  0.65304214797E+03  0.80618779440E+02 0.  0.
          4    1    6    6  501    0  0.10364604123E+03  0.78671357146E+02 -0.36484682004E+03  0.38735627837E+03  0.00000000000E+00 0. -1.
         -3    1    6    6    0  501  0.11980005637E+02  0.26186544369E+02 -0.26412066497E+03  0.26568586960E+03  0.00000000000E+00 0.  1.
          5    1    5    5  502    0  0.29315738027E+01  0.16088315872E+03 -0.73245999343E+03  0.74994114226E+03  0.47000000000E+01 0. -1.
         11    1    4    4    0    0 -0.70758570242E+02 -0.41518792247E+02 -0.77370267520E+03  0.77804011143E+03  0.00000000000E+00 0. -1.
        -12    1    4    4    0    0 -0.72574577682E+02 -0.17645208613E+03 -0.17208843691E+04  0.17314287221E+04  0.00000000000E+00 0.  1.
         -5    1    3    3    0  504  0.24775527256E+02 -0.47770181863E+02 -0.24145187249E+03  0.24742052007E+03  0.47000000000E+01 0.  1.
<mgrwt>
<rscale>  2 0.33880731E+03</rscale>
<asrwt>0</asrwt>
<pdfrwt beam="1">  1       21 0.48004825E-02 0.33893559E+03</pdfrwt>
<pdfrwt beam="2">  1       21 0.63517969E+00 0.33893559E+03</pdfrwt>
<totfact> 0.42619995E+01</totfact>
</mgrwt>
</event>
<event>
12    1  0.2742799E-001  0.1835490E+03  0.7546771E-02  0.1164504E+00
         21   -1    0    0  502  503  0.00000000000E+00  0.00000000000E+00  0.22756118645E+03  0.22756118645E+03  0.00000000000E+00 0. -1.
         21   -1    0    0  503  504 -0.00000000000E+00 -0.00000000000E+00 -0.16871756467E+03  0.16871756467E+03  0.00000000000E+00 0. -1.
         -6    2    1    2    0  504  0.18842809168E+01  0.61147798821E+02  0.99327030882E+02  0.20870099052E+03  0.17305386608E+03 0.  0.
        -24    2    3    3    0    0  0.14169220189E+02 -0.92496002794E+01  0.10852930668E+03  0.13649652104E+03  0.81033128661E+02 0.  0.
          6    2    1    2  502    0 -0.18842809168E+01 -0.61147798821E+02 -0.40483409105E+02  0.18757776060E+03  0.17263807820E+03 0.  0.
         24    2    5    5    0    0 -0.21986051888E+02 -0.41324543067E+02  0.44901923211E+02  0.97523401239E+02  0.72825316641E+02 0.  0.
          4    1    6    6  501    0  0.23147836339E+02 -0.58202333790E+01  0.29734393438E+02  0.38129143669E+02  0.00000000000E+00 0. -1.
         -3    1    6    6    0  501 -0.45133888227E+02 -0.35504309688E+02  0.15167529773E+02  0.59394257570E+02  0.00000000000E+00 0.  1.
          5    1    5    5  502    0  0.20101770971E+02 -0.19823255755E+02 -0.85385332316E+02  0.90054359359E+02  0.47000000000E+01 0. -1.
         11    1    4    4    0    0 -0.17264025658E+02  0.20396121084E+02  0.80927182323E+02  0.85224745092E+02  0.00000000000E+00 0. -1.
        -12    1    4    4    0    0  0.31433245847E+02 -0.29645721364E+02  0.27602124362E+02  0.51271775949E+02  0.00000000000E+00 0.  1.
         -5    1    3    3    0  504 -0.12284939272E+02  0.70397399101E+02 -0.92022758026E+01  0.72204469481E+02  0.47000000000E+01 0.  1.
<mgrwt>
<rscale>  2 0.18345096E+03</rscale>
<asrwt>0</asrwt>
<pdfrwt beam="1">  1       21 0.35009413E-01 0.18354902E+03</pdfrwt>
<pdfrwt beam="2">  1       21 0.25956549E-01 0.18354902E+03</pdfrwt>
<totfact> 0.11123920E+05</totfact>
</mgrwt>
</event>
<event>
12    1  0.2742799E-001  0.2090161E+03  0.7546771E-02  0.1143699E+00
         21   -1    0    0  502  503  0.00000000000E+00  0.00000000000E+00  0.69854833177E+02  0.69854833177E+02  0.00000000000E+00 0. -1.
         21   -1    0    0  503  504 -0.00000000000E+00 -0.00000000000E+00 -0.62401067827E+03  0.62401067827E+03  0.00000000000E+00 0. -1.
         -6    2    1    2    0  504  0.93658369615E+02  0.53330209709E+02 -0.34098798575E+03  0.39995067733E+03  0.17908583531E+03 0.  0.
        -24    2    3    3    0    0 -0.22496925595E+02  0.33559655681E+02 -0.14116249519E+03  0.16792644565E+03  0.81486679583E+02 0.  0.
          6    2    1    2  502    0 -0.93658369615E+02 -0.53330209709E+02 -0.21316785935E+03  0.29391483412E+03  0.17125826108E+03 0.  0.
         24    2    5    5    0    0 -0.52389387891E+02  0.83582169840E+01 -0.44346715852E+02  0.10943920068E+03  0.84828059532E+02 0.  0.
          2    1    6    6  501    0  0.18896713738E+02  0.75837079826E+01  0.70562080764E+01  0.21549674922E+02  0.00000000000E+00 0. -1.
         -1    1    6    6    0  501 -0.71286101628E+02  0.77450900139E+00 -0.51402923928E+02  0.87889525758E+02  0.00000000000E+00 0.  1.
          5    1    5    5  502    0 -0.41268981724E+02 -0.61688426693E+02 -0.16882114349E+03  0.18447563344E+03  0.47000000000E+01 0. -1.
         13    1    4    4    0    0 -0.35699451501E+02  0.23031319859E+02 -0.22511302307E+02  0.48079634602E+02  0.00000000000E+00 0. -1.
        -14    1    4    4    0    0  0.13202525906E+02  0.10528335822E+02 -0.11865119288E+03  0.11984681105E+03  0.00000000000E+00 0.  1.
         -5    1    3    3    0  504  0.11615529521E+03  0.19770554028E+02 -0.19982549055E+03  0.23202423168E+03  0.47000000000E+01 0.  1.
<mgrwt>
<rscale>  2 0.20732920E+03</rscale>
<asrwt>0</asrwt>
<pdfrwt beam="1">  1       21 0.10746897E-01 0.20901612E+03</pdfrwt>
<pdfrwt beam="2">  1       21 0.96001647E-01 0.20901612E+03</pdfrwt>
<totfact> 0.64056995E+04</totfact>
</mgrwt>
</event>
<event>
12    1  0.2742799E-001  0.2268663E+03  0.7546771E-02  0.1128878E+00
         21   -1    0    0  502  503  0.00000000000E+00  0.00000000000E+00  0.39057997159E+02  0.39057997159E+02  0.00000000000E+00 0. -1.
         21   -1    0    0  503  504 -0.00000000000E+00 -0.00000000000E+00 -0.14574864578E+04  0.14574864578E+04  0.00000000000E+00 0. -1.
         -6    2    1    2    0  504  0.43622156262E+02  0.14159481132E+03 -0.94115943506E+03  0.96809951114E+03  0.17170788610E+03 0.  0.
        -24    2    3    3    0    0 -0.15574225037E+02  0.64609974428E+02 -0.26092939785E+03  0.28095624354E+03  0.80220040169E+02 0.  0.
          6    2    1    2  502    0 -0.43622156262E+02 -0.14159481132E+03 -0.47726902558E+03  0.52844494382E+03  0.17180323851E+03 0.  0.
         24    2    5    5    0    0  0.34288355055E+02 -0.46185139148E+02 -0.26330512547E+03  0.28151237435E+03  0.81307253307E+02 0.  0.
          4    1    6    6  501    0  0.56676179033E+02 -0.33741882406E+02 -0.13008167986E+03  0.14584905668E+03  0.00000000000E+00 0. -1.
         -3    1    6    6    0  501 -0.22387823979E+02 -0.12443256743E+02 -0.13322344561E+03  0.13566331767E+03  0.00000000000E+00 0.  1.
          5    1    5    5  502    0 -0.77910511317E+02 -0.95409672174E+02 -0.21396390011E+03  0.24693256947E+03  0.47000000000E+01 0. -1.
         11    1    4    4    0    0 -0.20903985989E+02  0.67277344199E+02 -0.26469260184E+03  0.27390763250E+03  0.00000000000E+00 0. -1.
        -12    1    4    4    0    0  0.53297609521E+01 -0.26673697709E+01  0.37632039963E+01  0.70486110418E+01  0.00000000000E+00 0.  1.
         -5    1    3    3    0  504  0.59196381299E+02  0.76984836895E+02 -0.68023003721E+03  0.68714326759E+03  0.47000000000E+01 0.  1.
<mgrwt>
<rscale>  2 0.22684829E+03</rscale>
<asrwt>0</asrwt>
<pdfrwt beam="1">  1       21 0.60089219E-02 0.22686634E+03</pdfrwt>
<pdfrwt beam="2">  1       21 0.22422871E+00 0.22686634E+03</pdfrwt>
<totfact> 0.18150396E+04</totfact>
</mgrwt>
</event>
<event>
12    1  0.2742799E-001  0.2704389E+03  0.7546771E-02  0.1102012E+00
         21   -1    0    0  502  503  0.00000000000E+00  0.00000000000E+00  0.34348878030E+03  0.34348878030E+03  0.00000000000E+00 0.  1.
         21   -1    0    0  503  504 -0.00000000000E+00 -0.00000000000E+00 -0.21742562179E+03  0.21742562179E+03  0.00000000000E+00 0.  1.
         -6    2    1    2    0  504  0.10180821764E+03 -0.17063002520E+03  0.12338664277E+03  0.29725655227E+03  0.18346028337E+03 0.  0.
        -24    2    3    3    0    0  0.57190342941E+01 -0.15081768927E+03  0.85158179100E+02  0.19185652738E+03  0.82330607209E+02 0.  0.
          6    2    1    2  502    0 -0.10180821764E+03  0.17063002520E+03  0.26765157435E+01  0.26365784982E+03  0.17328813970E+03 0.  0.
         24    2    5    5    0    0 -0.31079989832E+01  0.12435370283E+03  0.35860346893E+02  0.14961185988E+03  0.74994940301E+02 0.  0.
          2    1    6    6  501    0  0.24843511934E+02  0.26627882413E+02  0.31043249934E+02  0.47853187705E+02  0.00000000000E+00 0. -1.
         -1    1    6    6    0  501 -0.27951510918E+02  0.97725820417E+02  0.48170969592E+01  0.10175867217E+03  0.00000000000E+00 0.  1.
          5    1    5    5  502    0 -0.98700218652E+02  0.46276322366E+02 -0.33183831150E+02  0.11404598995E+03  0.47000000000E+01 0. -1.
         13    1    4    4    0    0  0.29885624382E+02 -0.13294254610E+03  0.87125000511E+02  0.16173322733E+03  0.00000000000E+00 0. -1.
        -14    1    4    4    0    0 -0.24166590088E+02 -0.17875143166E+02 -0.19668214112E+01  0.30123300054E+02  0.00000000000E+00 0.  1.
         -5    1    3    3    0  504  0.96089183342E+02 -0.19812335931E+02  0.38228463674E+02  0.10540002488E+03  0.47000000000E+01 0.  1.
<mgrwt>
<rscale>  2 0.26872399E+03</rscale>
<asrwt>0</asrwt>
<pdfrwt beam="1">  1       21 0.52844428E-01 0.27043889E+03</pdfrwt>
<pdfrwt beam="2">  1       21 0.33450096E-01 0.27043889E+03</pdfrwt>
<totfact> 0.28124977E+04</totfact>
</mgrwt>
</event>
<event>
12    1  0.2742799E-001  0.2290656E+03  0.7546771E-02  0.1127431E+00
         21   -1    0    0  502  503  0.00000000000E+00  0.00000000000E+00  0.28338465408E+03  0.28338465408E+03  0.00000000000E+00 0. -1.
         21   -1    0    0  503  504 -0.00000000000E+00 -0.00000000000E+00 -0.18471976568E+03  0.18471976568E+03  0.00000000000E+00 0. -1.
         -6    2    1    2    0  504 -0.68651105309E+02  0.13216750799E+03  0.56318755332E+02  0.23588732821E+03  0.17403966496E+03 0.  0.
        -24    2    3    3    0    0 -0.14450391237E+02  0.15109884847E+03  0.44450730897E+02  0.17707361329E+03  0.79621110471E+02 0.  0.
          6    2    1    2  502    0  0.68651105309E+02 -0.13216750799E+03  0.42346133067E+02  0.23221709156E+03  0.17306171788E+03 0.  0.
         24    2    5    5    0    0  0.37163041697E+02 -0.13377489876E+03 -0.21065665588E+02  0.16124365946E+03  0.79239764280E+02 0.  0.
          4    1    6    6  501    0 -0.27888958384E+00 -0.11474529532E+03 -0.11275828283E+01  0.11475117438E+03  0.00000000000E+00 0. -1.
         -3    1    6    6    0  501  0.37441931281E+02 -0.19029603437E+02 -0.19938082760E+02  0.46492485083E+02  0.00000000000E+00 0.  1.
          5    1    5    5  502    0  0.31488063612E+02  0.16073907675E+01  0.63411798655E+02  0.70973432098E+02  0.47000000000E+01 0. -1.
         11    1    4    4    0    0  0.35585322757E+01  0.69417254021E+02  0.60208245445E+02  0.91958964366E+02  0.00000000000E+00 0. -1.
        -12    1    4    4    0    0 -0.18008923513E+02  0.81681594446E+02 -0.15757514548E+02  0.85114648927E+02  0.00000000000E+00 0.  1.
         -5    1    3    3    0  504 -0.54200714072E+02 -0.18931340476E+02  0.11868024434E+02  0.58813714915E+02  0.47000000000E+01 0.  1.
<mgrwt>
<rscale>  2 0.22887980E+03</rscale>
<asrwt>0</asrwt>
<pdfrwt beam="1">  1       21 0.43597639E-01 0.22906556E+03</pdfrwt>
<pdfrwt beam="2">  1       21 0.28418426E-01 0.22906556E+03</pdfrwt>
<totfact> 0.58895831E+04</totfact>
</mgrwt>
</event>
<event>
12    1  0.2742799E-001  0.1915379E+03  0.7546771E-02  0.1157927E+00
         21   -1    0    0  502  503  0.00000000000E+00  0.00000000000E+00  0.27521993842E+02  0.27521993842E+02  0.00000000000E+00 0. -1.
         21   -1    0    0  503  504 -0.00000000000E+00 -0.00000000000E+00 -0.13806479416E+04  0.13806479416E+04  0.00000000000E+00 0. -1.
         -6    2    1    2    0  504 -0.72497720576E+02 -0.17763578258E+02 -0.83280358637E+03  0.85371333823E+03  0.17231710942E+03 0.  0.
        -24    2    3    3    0    0 -0.89415781882E+02 -0.37762716094E+02 -0.80609083937E+03  0.81600594950E+03  0.81621464851E+02 0.  0.
          6    2    1    2  502    0  0.72497720576E+02  0.17763578258E+02 -0.52032236144E+03  0.55445659726E+03  0.17639527838E+03 0.  0.
         24    2    5    5    0    0  0.67611757281E+02  0.25772207658E+02 -0.52941968641E+03  0.54056911715E+03  0.81818149853E+02 0.  0.
          4    1    6    6  501    0  0.82595586750E+02  0.16693541803E+02 -0.33785542219E+03  0.34820538708E+03  0.00000000000E+00 0. -1.
         -3    1    6    6    0  501 -0.14983829469E+02  0.90786658551E+01 -0.19156426423E+03  0.19236373007E+03  0.00000000000E+00 0.  1.
          5    1    5    5  502    0  0.48859632948E+01 -0.80086294004E+01  0.90973249739E+01  0.13887480112E+02  0.47000000000E+01 0. -1.
         11    1    4    4    0    0 -0.55817721634E+02 -0.62672339742E+02 -0.58559897561E+03  0.59158228545E+03  0.00000000000E+00 0. -1.
        -12    1    4    4    0    0 -0.33598060248E+02  0.24909623649E+02 -0.22049186376E+03  0.22442366405E+03  0.00000000000E+00 0.  1.
         -5    1    3    3    0  504  0.16918061306E+02  0.19999137836E+02 -0.26712746994E+02  0.37707388726E+02  0.47000000000E+01 0.  1.
<mgrwt>
<rscale>  2 0.19059366E+03</rscale>
<asrwt>0</asrwt>
<pdfrwt beam="1">  1       21 0.42341536E-02 0.19153788E+03</pdfrwt>
<pdfrwt beam="2">  1       21 0.21240734E+00 0.19153788E+03</pdfrwt>
<totfact> 0.39953262E+04</totfact>
</mgrwt>
</event>
<event>
12    1  0.2742799E-001  0.1953233E+03  0.7546771E-02  0.1156036E+00
         21   -1    0    0  502  503  0.00000000000E+00  0.00000000000E+00  0.94834047075E+03  0.94834047075E+03  0.00000000000E+00 0. -1.
         21   -1    0    0  503  504 -0.00000000000E+00 -0.00000000000E+00 -0.47117473544E+02  0.47117473544E+02  0.00000000000E+00 0. -1.
         -6    2    1    2    0  504 -0.42258844226E+01  0.85990713260E+02  0.24334757514E+03  0.31204044896E+03  0.17532523661E+03 0.  0.
        -24    2    3    3    0    0 -0.68903851652E+02  0.72675267270E+02  0.16102564110E+03  0.20640176584E+03  0.81504580271E+02 0.  0.
          6    2    1    2  502    0  0.42258844226E+01 -0.85990713260E+02  0.65787542207E+03  0.68341749534E+03  0.16385097225E+03 0.  0.
         24    2    5    5    0    0 -0.58024853479E+02 -0.54566867352E+02  0.46782802795E+03  0.48092622523E+03  0.77990664441E+02 0.  0.
          2    1    6    6  501    0 -0.47970563665E+02 -0.24424328396E+02  0.11847219843E+03  0.13012833894E+03  0.00000000000E+00 0. -1.
         -1    1    6    6    0  501 -0.10054289814E+02 -0.30142538957E+02  0.34935582952E+03  0.35079788628E+03  0.00000000000E+00 0.  1.
          5    1    5    5  502    0  0.62250737902E+02 -0.31423845908E+02  0.19004739412E+03  0.20249127012E+03  0.47000000000E+01 0. -1.
         13    1    4    4    0    0 -0.22213048628E+01  0.57014021405E+02  0.97573355724E+02  0.11303137874E+03  0.00000000000E+00 0. -1.
        -14    1    4    4    0    0 -0.66682546789E+02  0.15661245865E+02  0.63452285376E+02  0.93370387103E+02  0.00000000000E+00 0.  1.
         -5    1    3    3    0  504  0.64677967229E+02  0.13315445990E+02  0.82321934039E+02  0.10563868312E+03  0.47000000000E+01 0.  1.
<mgrwt>
<rscale>  2 0.19271390E+03</rscale>
<asrwt>0</asrwt>
<pdfrwt beam="1">  1       21 0.14589852E+00 0.19532332E+03</pdfrwt>
<pdfrwt beam="2">  1       21 0.72488428E-02 0.19532332E+03</pdfrwt>
<totfact> 0.45704500E+04</totfact>
</mgrwt>
</event>
<event>
12    1  0.2742799E-001  0.1935617E+03  0.7546771E-02  0.1155296E+00
         21   -1    0    0  502  503  0.00000000000E+00  0.00000000000E+00  0.20866272909E+02  0.20866272909E+02  0.00000000000E+00 0. -1.
         21   -1    0    0  503  504 -0.00000000000E+00 -0.00000000000E+00 -0.18134005876E+04  0.18134005876E+04  0.00000000000E+00 0. -1.
         -6    2    1    2    0  504 -0.19014285366E+02 -0.85623089879E+02 -0.98825928130E+03  0.10070365121E+04  0.17254933497E+03 0.  0.
        -24    2    3    3    0    0 -0.34947025055E+02  0.15359036114E+02 -0.52823038805E+03  0.53576173597E+03  0.80969749403E+02 0.  0.
          6    2    1    2  502    0  0.19014285366E+02  0.85623089879E+02 -0.80427503342E+03  0.82723034847E+03  0.17250757513E+03 0.  0.
         24    2    5    5    0    0  0.13447210377E+01 -0.22345931172E+02 -0.29682011346E+03  0.30809442330E+03  0.79491163025E+02 0.  0.
          4    1    6    6  501    0 -0.14925328805E+01 -0.36432251948E+02 -0.28983097021E+03  0.29211560713E+03  0.00000000000E+00 0. -1.
         -3    1    6    6    0  501  0.28372539182E+01  0.14086320776E+02 -0.69891432510E+01  0.15978816170E+02  0.00000000000E+00 0.  1.
          5    1    5    5  502    0  0.17669564328E+02  0.10796902105E+03 -0.50745491996E+03  0.51913592517E+03  0.47000000000E+01 0. -1.
         13    1    4    4    0    0 -0.42286051749E+02 -0.15446294294E+02 -0.16121598867E+03  0.16738367060E+03  0.00000000000E+00 0. -1.
        -14    1    4    4    0    0  0.73390266935E+01  0.30805330408E+02 -0.36701439938E+03  0.36837806537E+03  0.00000000000E+00 0.  1.
         -5    1    3    3    0  504  0.15932739689E+02 -0.10098212599E+03 -0.46002889326E+03  0.47127477611E+03  0.47000000000E+01 0.  1.
<mgrwt>
<rscale>  2 0.19355239E+03</rscale>
<asrwt>0</asrwt>
<pdfrwt beam="1">  1       21 0.32101944E-02 0.19356169E+03</pdfrwt>
<pdfrwt beam="2">  1       21 0.27898483E+00 0.19356169E+03</pdfrwt>
<totfact> 0.25487901E+04</totfact>
</mgrwt>
</event>
<event>
12    1  0.2742799E-001  0.2554113E+03  0.7546771E-02  0.1110149E+00
         21   -1    0    0  502  503  0.00000000000E+00  0.00000000000E+00  0.52144879040E+03  0.52144879040E+03  0.00000000000E+00 0.  1.
         21   -1    0    0  503  504 -0.00000000000E+00 -0.00000000000E+00 -0.13105200750E+03  0.13105200750E+03  0.00000000000E+00 0.  1.
         -6    2    1    2    0  504  0.15174085764E+03 -0.11015631373E+03  0.12126860918E+03  0.28146860856E+03  0.17134410027E+03 0.  0.
        -24    2    3    3    0    0  0.36555537467E+02 -0.66080297372E+02  0.11154594099E+03  0.15766645398E+03  0.81934734640E+02 0.  0.
          6    2    1    2  502    0 -0.15174085764E+03  0.11015631373E+03  0.26912817372E+03  0.37103218934E+03  0.17342205830E+03 0.  0.
         24    2    5    5    0    0 -0.12759641265E+03  0.52545694197E+02  0.90908681363E+02  0.18212423513E+03  0.76569929967E+02 0.  0.
          4    1    6    6  501    0 -0.76812264769E+02 -0.12960598856E+01  0.19456567067E+02  0.79248733694E+02  0.00000000000E+00 0. -1.
         -3    1    6    6    0  501 -0.50784147886E+02  0.53841754083E+02  0.71452114295E+02  0.10287550144E+03  0.00000000000E+00 0.  1.
          5    1    5    5  502    0 -0.24144444984E+02  0.57610619532E+02  0.17821949236E+03  0.18890795421E+03  0.47000000000E+01 0. -1.
         13    1    4    4    0    0 -0.16718869262E+02 -0.22706780776E+00 -0.10658327894E+01  0.16754347159E+02  0.00000000000E+00 0. -1.
        -14    1    4    4    0    0  0.53274406729E+02 -0.65853229564E+02  0.11261177377E+03  0.14091210682E+03  0.00000000000E+00 0.  1.
         -5    1    3    3    0  504  0.11518532017E+03 -0.44076016357E+02  0.97226681986E+01  0.12380215458E+03  0.47000000000E+01 0.  1.
<mgrwt>
<rscale>  2 0.25505895E+03</rscale>
<asrwt>0</asrwt>
<pdfrwt beam="1">  1       21 0.80222890E-01 0.25541126E+03</pdfrwt>
<pdfrwt beam="2">  1       21 0.20161848E-01 0.25541126E+03</pdfrwt>
<totfact> 0.30110845E+04</totfact>
</mgrwt>
</event>
<event>
12    1  0.2742799E-001  0.3737207E+03  0.7546771E-02  0.1053314E+00
         21   -1    0    0  502  503  0.00000000000E+00  0.00000000000E+00  0.11274132757E+03  0.11274132757E+03  0.00000000000E+00 0.  1.
         21   -1    0    0  503  504 -0.00000000000E+00 -0.00000000000E+00 -0.13713523576E+04  0.13713523576E+04  0.00000000000E+00 0.  1.
         -6    2    1    2    0  504  0.32892258275E+03 -0.31940508544E+02 -0.86130557370E+03  0.93889001837E+03  0.17451909286E+03 0.  0.
        -24    2    3    3    0    0  0.11064167460E+03 -0.49416478229E+01 -0.48046713335E+03  0.49907698878E+03  0.77221593240E+02 0.  0.
          6    2    1    2  502    0 -0.32892258275E+03  0.31940508544E+02 -0.39730545631E+03  0.54520366677E+03  0.17373874387E+03 0.  0.
         24    2    5    5    0    0 -0.18165142397E+03 -0.30523010252E+02 -0.28807029511E+03  0.35143861360E+03  0.81213977983E+02 0.  0.
          4    1    6    6  501    0 -0.19782969949E+02  0.20843801316E+02 -0.65100469159E+02  0.71161092165E+02  0.00000000000E+00 0. -1.
         -3    1    6    6    0  501 -0.16186845402E+03 -0.51366811569E+02 -0.22296982595E+03  0.28027752144E+03  0.00000000000E+00 0.  1.
          5    1    5    5  502    0 -0.14727115878E+03  0.62463518796E+02 -0.10923516120E+03  0.19376505317E+03  0.47000000000E+01 0. -1.
         13    1    4    4    0    0  0.27749727387E+02  0.30274854756E+02 -0.21094147679E+03  0.21490211918E+03  0.00000000000E+00 0. -1.
        -14    1    4    4    0    0  0.82891947213E+02 -0.35216502579E+02 -0.26952565656E+03  0.28417486960E+03  0.00000000000E+00 0.  1.
         -5    1    3    3    0  504  0.21828090815E+03 -0.26998860721E+02 -0.38083844035E+03  0.43981302959E+03  0.47000000000E+01 0.  1.
<mgrwt>
<rscale>  2 0.37362974E+03</rscale>
<asrwt>0</asrwt>
<pdfrwt beam="1">  1       21 0.17344820E-01 0.37372072E+03</pdfrwt>
<pdfrwt beam="2">  1       21 0.21097728E+00 0.37372072E+03</pdfrwt>
<totfact> 0.30242311E+03</totfact>
</mgrwt>
</event>
<event>
12    1  0.2742799E-001  0.1957697E+03  0.7546771E-02  0.1153386E+00
         21   -1    0    0  502  503  0.00000000000E+00  0.00000000000E+00  0.31941517927E+03  0.31941517927E+03  0.00000000000E+00 0.  1.
         21   -1    0    0  503  504 -0.00000000000E+00 -0.00000000000E+00 -0.14211528500E+03  0.14211528500E+03  0.00000000000E+00 0.  1.
         -6    2    1    2    0  504  0.91460906303E+02 -0.14904974087E+02  0.17984650776E+03  0.26574424467E+03  0.17230200691E+03 0.  0.
        -24    2    3    3    0    0  0.37201406265E+01  0.29393333598E+02  0.30852671682E+02  0.87188832498E+02  0.75974980461E+02 0.  0.
          6    2    1    2  502    0 -0.91460906303E+02  0.14904974087E+02 -0.25466134888E+01  0.19578621961E+03  0.17244855150E+03 0.  0.
         24    2    5    5    0    0 -0.11059452253E+02 -0.38992767619E+02 -0.29588748332E+02  0.95174453742E+02  0.80869865875E+02 0.  0.
          4    1    6    6  501    0  0.17311474049E+02 -0.48611257247E+02 -0.37971134519E+02  0.64066750515E+02  0.00000000000E+00 0. -1.
         -3    1    6    6    0  501 -0.28370926301E+02  0.96184896276E+01  0.83823861872E+01  0.31107703228E+02  0.00000000000E+00 0.  1.
          5    1    5    5  502    0 -0.80401454050E+02  0.53897741706E+02  0.27042134843E+02  0.10061176587E+03  0.47000000000E+01 0. -1.
         11    1    4    4    0    0  0.16013917639E+02 -0.72750602227E+01 -0.17808868304E+02  0.25030538341E+02  0.00000000000E+00 0. -1.
        -12    1    4    4    0    0 -0.12293777013E+02  0.36668393821E+02  0.48661539986E+02  0.62158294157E+02  0.00000000000E+00 0.  1.
         -5    1    3    3    0  504  0.87740765676E+02 -0.44298307685E+02  0.14899383608E+03  0.17855541217E+03  0.47000000000E+01 0.  1.
<mgrwt>
<rscale>  2 0.19573738E+03</rscale>
<asrwt>0</asrwt>
<pdfrwt beam="1">  1       21 0.49140797E-01 0.19576966E+03</pdfrwt>
<pdfrwt beam="2">  1       21 0.21863890E-01 0.19576966E+03</pdfrwt>
<totfact> 0.77051538E+04</totfact>
</mgrwt>
</event>
<event>
12    1  0.2742799E-001  0.1957414E+03  0.7546771E-02  0.1155006E+00
         21   -1    0    0  502  503  0.00000000000E+00  0.00000000000E+00  0.10521770588E+03  0.10521770588E+03  0.00000000000E+00 0. -1.
         21   -1    0    0  503  504 -0.00000000000E+00 -0.00000000000E+00 -0.40498445023E+03  0.40498445023E+03  0.00000000000E+00 0.  1.
         -6    2    1    2    0  504 -0.42969397088E+02  0.59792330665E+02 -0.24580149101E+03  0.31421821405E+03  0.18136488404E+03 0.  0.
        -24    2    3    3    0    0 -0.43573005299E+02  0.50095488954E+02 -0.55151991698E+02  0.12326346896E+03  0.87999862434E+02 0.  0.
          6    2    1    2  502    0  0.42969397088E+02 -0.59792330665E+02 -0.53965253339E+02  0.19598394206E+03  0.17342423442E+03 0.  0.
         24    2    5    5    0    0  0.61939943053E+02 -0.62914933648E+02 -0.96398128284E+02  0.14916224688E+03  0.71846581935E+02 0.  0.
          2    1    6    6  501    0  0.13263393849E+02 -0.54074536596E+02 -0.79145084321E+02  0.96767336930E+02  0.00000000000E+00 0. -1.
         -1    1    6    6    0  501  0.48676549204E+02 -0.88403970524E+01 -0.17253043963E+02  0.52394909948E+02  0.00000000000E+00 0.  1.
          5    1    5    5  502    0 -0.18970545965E+02  0.31226029833E+01  0.42432874945E+02  0.46821695182E+02  0.47000000000E+01 0. -1.
         13    1    4    4    0    0 -0.58976469851E+01 -0.59463400134E+01  0.20327551661E+02  0.21985234956E+02  0.00000000000E+00 0. -1.
        -14    1    4    4    0    0 -0.37675358314E+02  0.56041828968E+02 -0.75479543360E+02  0.10127823401E+03  0.00000000000E+00 0.  1.
         -5    1    3    3    0  504  0.60360821177E+00  0.96968417107E+01 -0.19064949931E+03  0.19095474508E+03  0.47000000000E+01 0.  1.
<mgrwt>
<rscale>  2 0.19388167E+03</rscale>
<asrwt>0</asrwt>
<pdfrwt beam="1">  1       21 0.16187340E-01 0.19574144E+03</pdfrwt>
<pdfrwt beam="2">  1       21 0.62305299E-01 0.19574144E+03</pdfrwt>
<totfact> 0.81439753E+04</totfact>
</mgrwt>
</event>
<event>
12    1  0.2742799E-001  0.1908062E+03  0.7546771E-02  0.1158001E+00
         21   -1    0    0  502  503  0.00000000000E+00  0.00000000000E+00  0.67089088448E+03  0.67089088448E+03  0.00000000000E+00 0. -1.
         21   -1    0    0  503  504 -0.00000000000E+00 -0.00000000000E+00 -0.59065628422E+02  0.59065628422E+02  0.00000000000E+00 0. -1.
         -6    2    1    2    0  504  0.59913942869E+02 -0.50472280029E+02  0.19745376740E+03  0.27376497371E+03  0.17269087692E+03 0.  0.
        -24    2    3    3    0    0  0.92674573705E+02 -0.76663449998E+02  0.13138187096E+03  0.19536330399E+03  0.80248136115E+02 0.  0.
          6    2    1    2  502    0 -0.59913942869E+02  0.50472280029E+02  0.41437148866E+03  0.45619153919E+03  0.17398235029E+03 0.  0.
         24    2    5    5    0    0 -0.26902740171E+02  0.96419478914E+01  0.37047849877E+03  0.38759459984E+03  0.11026572990E+03 0.  0.
          4    1    6    6  501    0  0.15788753760E+02  0.24170938858E+02  0.31398373419E+03  0.31530826879E+03  0.00000000000E+00 0. -1.
         -3    1    6    6    0  501 -0.42691493932E+02 -0.14528990967E+02  0.56494764581E+02  0.72286331057E+02  0.00000000000E+00 0.  1.
          5    1    5    5  502    0 -0.33011202698E+02  0.40830332138E+02  0.43892989889E+02  0.68596939345E+02  0.47000000000E+01 0. -1.
         11    1    4    4    0    0  0.42953643538E+02 -0.10672387025E+02  0.95549427778E+02  0.10530246192E+03  0.00000000000E+00 0. -1.
        -12    1    4    4    0    0  0.49720930167E+02 -0.65991062973E+02  0.35832443186E+02  0.90060842067E+02  0.00000000000E+00 0.  1.
         -5    1    3    3    0  504 -0.32760630836E+02  0.26191169969E+02  0.66071896436E+02  0.78401669726E+02  0.47000000000E+01 0.  1.
<mgrwt>
<rscale>  2 0.19051126E+03</rscale>
<asrwt>0</asrwt>
<pdfrwt beam="1">  1       21 0.10321398E+00 0.19080616E+03</pdfrwt>
<pdfrwt beam="2">  1       21 0.90870202E-02 0.19080616E+03</pdfrwt>
<totfact> 0.73182333E+04</totfact>
</mgrwt>
</event>
<event>
12    1  0.2742799E-001  0.2309020E+03  0.7546771E-02  0.1126072E+00
         21   -1    0    0  502  503  0.00000000000E+00  0.00000000000E+00  0.15549446815E+03  0.15549446815E+03  0.00000000000E+00 0.  1.
         21   -1    0    0  503  504 -0.00000000000E+00 -0.00000000000E+00 -0.70156976460E+03  0.70156976460E+03  0.00000000000E+00 0.  1.
         -6    2    1    2    0  504  0.13793825406E+03  0.64186563973E+02 -0.57979708097E+03  0.62408363735E+03  0.17369183740E+03 0.  0.
        -24    2    3    3    0    0  0.12402150850E+03  0.10550158615E+03 -0.40224926471E+03  0.44120136942E+03  0.79638295864E+02 0.  0.
          6    2    1    2  502    0 -0.13793825406E+03 -0.64186563973E+02  0.33721784517E+02  0.23298059541E+03  0.17319330864E+03 0.  0.
         24    2    5    5    0    0 -0.16013902263E+03 -0.85080419073E+02  0.16105478559E+02  0.19745804564E+03  0.76466391768E+02 0.  0.
          4    1    6    6  501    0 -0.26575613341E+02 -0.51115584428E+02  0.15430733427E+02  0.59642046661E+02  0.00000000000E+00 0. -1.
         -3    1    6    6    0  501 -0.13356340929E+03 -0.33964834645E+02  0.67474513205E+00  0.13781599898E+03  0.00000000000E+00 0.  1.
          5    1    5    5  502    0  0.22200768572E+02  0.20893855100E+02  0.17616305957E+02  0.35522549764E+02  0.47000000000E+01 0. -1.
         13    1    4    4    0    0  0.22981571409E+02  0.28400781365E+02 -0.28208914191E+02  0.46157337948E+02  0.00000000000E+00 0. -1.
        -14    1    4    4    0    0  0.10103993709E+03  0.77100804784E+02 -0.37404035052E+03  0.39504403148E+03  0.00000000000E+00 0.  1.
         -5    1    3    3    0  504  0.13916745560E+02 -0.41315022176E+02 -0.17754781626E+03  0.18288226792E+03  0.47000000000E+01 0.  1.
<mgrwt>
<rscale>  2 0.23080824E+03</rscale>
<asrwt>0</asrwt>
<pdfrwt beam="1">  1       21 0.23922226E-01 0.23090200E+03</pdfrwt>
<pdfrwt beam="2">  1       21 0.10793381E+00 0.23090200E+03</pdfrwt>
<totfact> 0.10981329E+04</totfact>
</mgrwt>
</event>
<event>
12    1  0.2742799E-001  0.2326378E+03  0.7546771E-02  0.1125315E+00
         21   -1    0    0  502  503  0.00000000000E+00  0.00000000000E+00  0.69254863412E+02  0.69254863412E+02  0.00000000000E+00 0.  1.
         21   -1    0    0  503  504 -0.00000000000E+00 -0.00000000000E+00 -0.13294897852E+04  0.13294897852E+04  0.00000000000E+00 0.  1.
         -6    2    1    2    0  504  0.24555266608E+02 -0.15065884157E+03 -0.10855359101E+04  0.11101840126E+04  0.17555421408E+03 0.  0.
        -24    2    3    3    0    0  0.81092501969E+02 -0.12648318714E+03 -0.76090355499E+03  0.77974615577E+03  0.80348347453E+02 0.  0.
          6    2    1    2  502    0 -0.24555266608E+02  0.15065884157E+03 -0.17469901164E+03  0.28856063596E+03  0.17159967451E+03 0.  0.
         24    2    5    5    0    0 -0.55674181057E+02  0.16752182105E+03 -0.14712998092E+03  0.24345089900E+03  0.80361271617E+02 0.  0.
          4    1    6    6  501    0 -0.49059918016E+02  0.11268101516E+03 -0.14226638361E+03  0.18799896446E+03  0.00000000000E+00 0. -1.
         -3    1    6    6    0  501 -0.66142630408E+01  0.54840805884E+02 -0.48635973156E+01  0.55451934542E+02  0.00000000000E+00 0.  1.
          5    1    5    5  502    0  0.31118914449E+02 -0.16862979475E+02 -0.27569030723E+02  0.45109736956E+02  0.47000000000E+01 0. -1.
         11    1    4    4    0    0  0.21950094652E+02  0.73649616904E+01 -0.13444007028E+03  0.13641914020E+03  0.00000000000E+00 0. -1.
        -12    1    4    4    0    0  0.59142407317E+02 -0.13384814883E+03 -0.62646348471E+03  0.64332701557E+03  0.00000000000E+00 0.  1.
         -5    1    3    3    0  504 -0.56537235361E+02 -0.24175654428E+02 -0.32463235512E+03  0.33043785685E+03  0.47000000000E+01 0.  1.
<mgrwt>
<rscale>  2 0.23189180E+03</rscale>
<asrwt>0</asrwt>
<pdfrwt beam="1">  1       21 0.10654594E-01 0.23263777E+03</pdfrwt>
<pdfrwt beam="2">  1       21 0.20453690E+00 0.23263777E+03</pdfrwt>
<totfact> 0.88194351E+03</totfact>
</mgrwt>
</event>
<event>
12    1  0.2742799E-001  0.1884519E+03  0.7546771E-02  0.1160453E+00
         21   -1    0    0  502  503  0.00000000000E+00  0.00000000000E+00  0.44363427167E+03  0.44363427167E+03  0.00000000000E+00 0. -1.
         21   -1    0    0  503  504 -0.00000000000E+00 -0.00000000000E+00 -0.10861929768E+03  0.10861929768E+03  0.00000000000E+00 0. -1.
         -6    2    1    2    0  504 -0.59868395881E+02 -0.45241697569E+02  0.22405104224E+02  0.18723430234E+03  0.17006957181E+03 0.  0.
        -24    2    3    3    0    0  0.16241023001E+02 -0.22242247757E+02  0.55905384105E+02  0.10082841663E+03  0.79262028831E+02 0.  0.
          6    2    1    2  502    0  0.59868395881E+02  0.45241697569E+02  0.31260986976E+03  0.36501926701E+03  0.17286728606E+03 0.  0.
         24    2    5    5    0    0  0.52075114355E+02  0.19586529079E+02  0.32176425624E+03  0.33629966222E+03  0.80434921279E+02 0.  0.
          4    1    6    6  501    0  0.22301902340E+02  0.50220099518E+02  0.18971169938E+03  0.19750939756E+03  0.00000000000E+00 0. -1.
         -3    1    6    6    0  501  0.29773212015E+02 -0.30633570438E+02  0.13205255686E+03  0.13879026466E+03  0.00000000000E+00 0.  1.
          5    1    5    5  502    0  0.77932815266E+01  0.25655168490E+02 -0.91543864785E+01  0.28719604785E+02  0.47000000000E+01 0. -1.
         13    1    4    4    0    0  0.10384321755E+02  0.98965663644E+01  0.65283441827E+02  0.66840885249E+02  0.00000000000E+00 0. -1.
        -14    1    4    4    0    0  0.58567012461E+01 -0.32138814121E+02 -0.93780577221E+01  0.33987531379E+02  0.00000000000E+00 0.  1.
         -5    1    3    3    0  504 -0.76109418882E+02 -0.22999449812E+02 -0.33500279881E+02  0.86405885716E+02  0.47000000000E+01 0.  1.
<mgrwt>
<rscale>  2 0.18780790E+03</rscale>
<asrwt>0</asrwt>
<pdfrwt beam="1">  1       21 0.68251425E-01 0.18845194E+03</pdfrwt>
<pdfrwt beam="2">  1       21 0.16710661E-01 0.18845194E+03</pdfrwt>
<totfact> 0.63191366E+04</totfact>
</mgrwt>
</event>
<event>
12    1  0.2742799E-001  0.2128478E+03  0.7546771E-02  0.1139561E+00
         21   -1    0    0  502  503  0.00000000000E+00  0.00000000000E+00  0.13151531392E+03  0.13151531392E+03  0.00000000000E+00 0.  1.
         21   -1    0    0  503  504 -0.00000000000E+00 -0.00000000000E+00 -0.43248003781E+03  0.43248003781E+03  0.00000000000E+00 0. -1.
         -6    2    1    2    0  504  0.10421903822E+03  0.68388332639E+02 -0.27873110520E+03  0.34998944537E+03  0.17106434723E+03 0.  0.
        -24    2    3    3    0    0  0.28729732888E+02  0.90831194180E+02 -0.21578085429E+03  0.24905807589E+03  0.79955266881E+02 0.  0.
          6    2    1    2  502    0 -0.10421903822E+03 -0.68388332639E+02 -0.22233618701E+02  0.21400590637E+03  0.17252716363E+03 0.  0.
         24    2    5    5    0    0 -0.58580563594E+02 -0.17418440888E+02  0.51923245694E+02  0.11300030866E+03  0.79611317029E+02 0.  0.
          4    1    6    6  501    0 -0.46945070095E+02 -0.45795822415E+02  0.19616057419E+02  0.68453536545E+02  0.00000000000E+00 0. -1.
         -3    1    6    6    0  501 -0.11635493499E+02  0.28377381527E+02  0.32307188276E+02  0.44546772112E+02  0.00000000000E+00 0.  1.
          5    1    5    5  502    0 -0.45638474631E+02 -0.50969891751E+02 -0.74156864395E+02  0.10100559771E+03  0.47000000000E+01 0. -1.
         11    1    4    4    0    0  0.56176045849E+02  0.50342317399E+02 -0.13333724793E+03  0.15319568771E+03  0.00000000000E+00 0. -1.
        -12    1    4    4    0    0 -0.27446312961E+02  0.40488876780E+02 -0.82443606354E+02  0.95862388175E+02  0.00000000000E+00 0.  1.
         -5    1    3    3    0  504  0.75489305337E+02 -0.22442861540E+02 -0.62950250912E+02  0.10093136948E+03  0.47000000000E+01 0.  1.
<mgrwt>
<rscale>  2 0.21255121E+03</rscale>
<asrwt>0</asrwt>
<pdfrwt beam="1">  1       21 0.20233125E-01 0.21284782E+03</pdfrwt>
<pdfrwt beam="2">  1       21 0.66535391E-01 0.21284782E+03</pdfrwt>
<totfact> 0.46322180E+04</totfact>
</mgrwt>
</event>
<event>
12    1  0.2742799E-001  0.1798290E+03  0.7546771E-02  0.1169399E+00
         21   -1    0    0  502  503  0.00000000000E+00  0.00000000000E+00  0.27112208724E+03  0.27112208724E+03  0.00000000000E+00 0. -1.
         21   -1    0    0  503  504 -0.00000000000E+00 -0.00000000000E+00 -0.27719038949E+03  0.27719038949E+03  0.00000000000E+00 0. -1.
         -6    2    1    2    0  504 -0.35680031945E+01 -0.46874527662E+02 -0.21245699855E+03  0.27834592047E+03  0.17357569882E+03 0.  0.
        -24    2    3    3    0    0 -0.34537436720E+02  0.33479250778E+02 -0.13956023300E+03  0.16542176916E+03  0.74656602577E+02 0.  0.
          6    2    1    2  502    0  0.35680031945E+01  0.46874527662E+02  0.20638869630E+03  0.26996655625E+03  0.16755803636E+03 0.  0.
         24    2    5    5    0    0  0.19659789011E+02 -0.16205040120E+02  0.69724499432E+02  0.11851633292E+03  0.92387795296E+02 0.  0.
          4    1    6    6  501    0  0.32686237823E+02  0.32092593424E+02  0.33959012005E+02  0.57022269265E+02  0.00000000000E+00 0. -1.
         -3    1    6    6    0  501 -0.13026448812E+02 -0.48297633544E+02  0.35765487426E+02  0.61494063660E+02  0.00000000000E+00 0.  1.
          5    1    5    5  502    0 -0.16091785816E+02  0.63079567782E+02  0.13666419686E+03  0.15145022333E+03  0.47000000000E+01 0. -1.
         13    1    4    4    0    0 -0.51562318683E+02  0.13184964634E+01 -0.70405197793E+02  0.87277162060E+02  0.00000000000E+00 0. -1.
        -14    1    4    4    0    0  0.17024881964E+02  0.32160754314E+02 -0.69155035210E+02  0.78144607100E+02  0.00000000000E+00 0.  1.
         -5    1    3    3    0  504  0.30969433525E+02 -0.80353778440E+02 -0.72896765546E+02  0.11292415131E+03  0.47000000000E+01 0.  1.
<mgrwt>
<rscale>  2 0.17836081E+03</rscale>
<asrwt>0</asrwt>
<pdfrwt beam="1">  1       21 0.41711090E-01 0.17982902E+03</pdfrwt>
<pdfrwt beam="2">  1       21 0.42644675E-01 0.17982902E+03</pdfrwt>
<totfact> 0.29473443E+04</totfact>
</mgrwt>
</event>
<event>
12    1  0.2742799E-001  0.1815535E+03  0.7546771E-02  0.1166367E+00
         21   -1    0    0  502  503  0.00000000000E+00  0.00000000000E+00  0.26762112706E+03  0.26762112706E+03  0.00000000000E+00 0. -1.
         21   -1    0    0  503  504 -0.00000000000E+00 -0.00000000000E+00 -0.13112426121E+03  0.13112426121E+03  0.00000000000E+00 0. -1.
         -6    2    1    2    0  504  0.54475853324E+02  0.89955456386E+01  0.18572239487E+02  0.18225542350E+03  0.17269502853E+03 0.  0.
        -24    2    3    3    0    0  0.77211316795E+02  0.17184481292E+02  0.65173497960E+02  0.12955127511E+03  0.79240483393E+02 0.  0.
          6    2    1    2  502    0 -0.54475853324E+02 -0.89955456386E+01  0.11792462637E+03  0.21648996477E+03  0.17295418151E+03 0.  0.
         24    2    5    5    0    0 -0.26955735990E+02  0.85247724752E+01 -0.79501776009E+01  0.86371270187E+02  0.81225042574E+02 0.  0.
          2    1    6    6  501    0  0.15125670760E+02  0.20477664643E+02 -0.28349564539E+02  0.38102735791E+02  0.00000000000E+00 0. -1.
         -1    1    6    6    0  501 -0.42081406750E+02 -0.11952892168E+02  0.20399386938E+02  0.48268534396E+02  0.00000000000E+00 0.  1.
          5    1    5    5  502    0 -0.27520117334E+02 -0.17520318114E+02  0.12587480397E+03  0.13011869458E+03  0.47000000000E+01 0. -1.
         13    1    4    4    0    0  0.55861695368E+02 -0.13765408203E+02  0.39041984823E+01  0.57665052139E+02  0.00000000000E+00 0. -1.
        -14    1    4    4    0    0  0.21349621427E+02  0.30949889496E+02  0.61269299478E+02  0.71886222974E+02  0.00000000000E+00 0.  1.
         -5    1    3    3    0  504 -0.22735463471E+02 -0.81889356537E+01 -0.46601258473E+02  0.52704148392E+02  0.47000000000E+01 0.  1.
<mgrwt>
<rscale>  2 0.18149179E+03</rscale>
<asrwt>0</asrwt>
<pdfrwt beam="1">  1       21 0.41172481E-01 0.18155354E+03</pdfrwt>
<pdfrwt beam="2">  1       21 0.20172963E-01 0.18155354E+03</pdfrwt>
<totfact> 0.12953824E+05</totfact>
</mgrwt>
</event>
<event>
12    1  0.2742799E-001  0.3109430E+03  0.7546771E-02  0.1079924E+00
         21   -1    0    0  502  503  0.00000000000E+00  0.00000000000E+00  0.20881043714E+03  0.20881043714E+03  0.00000000000E+00 0. -1.
         21   -1    0    0  503  504 -0.00000000000E+00 -0.00000000000E+00 -0.47522454381E+03  0.47522454381E+03  0.00000000000E+00 0. -1.
         -6    2    1    2    0  504 -0.90917330746E+02  0.24179311117E+03 -0.77568871149E+02  0.32023825675E+03  0.17264339453E+03 0.  0.
        -24    2    3    3    0    0 -0.36679335920E+02  0.19790569956E+03 -0.11014325631E+03  0.24309523666E+03  0.80322584450E+02 0.  0.
          6    2    1    2  502    0  0.90917330746E+02 -0.24179311117E+03 -0.18884523553E+03  0.36379672420E+03  0.17307704621E+03 0.  0.
         24    2    5    5    0    0  0.21892243018E-01 -0.12128795901E+03 -0.14265038301E+03  0.20587418991E+03  0.85582012254E+02 0.  0.
          2    1    6    6  501    0  0.28996375497E+02 -0.66553413358E+02 -0.11937173021E+03  0.13971312248E+03  0.00000000000E+00 0. -1.
         -1    1    6    6    0  501 -0.28974483254E+02 -0.54734545648E+02 -0.23278652797E+02  0.66161067428E+02  0.00000000000E+00 0.  1.
          5    1    5    5  502    0  0.90895438503E+02 -0.12050515216E+03 -0.46194852520E+02  0.15792253429E+03  0.47000000000E+01 0. -1.
         11    1    4    4    0    0 -0.56951837048E+02  0.17800488478E+03 -0.10452431029E+03  0.21413683053E+03  0.00000000000E+00 0. -1.
        -12    1    4    4    0    0  0.20272501128E+02  0.19900814780E+02 -0.56189460198E+01  0.28958406125E+02  0.00000000000E+00 0.  1.
         -5    1    3    3    0  504 -0.54237994826E+02  0.43887411604E+02  0.32574385157E+02  0.77143020089E+02  0.47000000000E+01 0.  1.
<mgrwt>
<rscale>  2 0.31088266E+03</rscale>
<asrwt>0</asrwt>
<pdfrwt beam="1">  1       21 0.32124683E-01 0.31094297E+03</pdfrwt>
<pdfrwt beam="2">  1       21 0.73111468E-01 0.31094297E+03</pdfrwt>
<totfact> 0.14756862E+04</totfact>
</mgrwt>
</event>
<event>
12    1  0.2742799E-001  0.2252258E+03  0.7546771E-02  0.1130063E+00
         21   -1    0    0  502  503  0.00000000000E+00  0.00000000000E+00  0.13657361681E+03  0.13657361681E+03  0.00000000000E+00 0. -1.
         21   -1    0    0  503  504 -0.00000000000E+00 -0.00000000000E+00 -0.12935249246E+04  0.12935249246E+04  0.00000000000E+00 0. -1.
         -6    2    1    2    0  504 -0.14487769348E+03  0.67711307886E+01 -0.11822150507E+04  0.12034602585E+04  0.17218819190E+03 0.  0.
        -24    2    3    3    0    0 -0.13075947695E+03 -0.45778644727E+02 -0.69631889423E+03  0.71450426068E+03  0.80390365947E+02 0.  0.
          6    2    1    2  502    0  0.14487769348E+03 -0.67711307886E+01  0.25263742963E+02  0.22663828285E+03  0.17231152098E+03 0.  0.
         24    2    5    5    0    0  0.17532783486E+02 -0.44176893823E+02  0.37946467458E+02  0.93225919439E+02  0.70655086285E+02 0.  0.
          4    1    6    6  501    0 -0.26175349006E+02 -0.27304761266E+02  0.12071732841E+02  0.39704226692E+02  0.00000000000E+00 0. -1.
         -3    1    6    6    0  501  0.43708132492E+02 -0.16872132556E+02  0.25874734617E+02  0.53521692747E+02  0.00000000000E+00 0.  1.
          5    1    5    5  502    0  0.12734491000E+03  0.37405763034E+02 -0.12682724496E+02  0.13341236341E+03  0.47000000000E+01 0. -1.
         13    1    4    4    0    0 -0.42444782952E+02 -0.55495459203E+02 -0.25945947095E+03  0.26870154941E+03  0.00000000000E+00 0. -1.
        -14    1    4    4    0    0 -0.88314693998E+02  0.97168144766E+01 -0.43685942329E+03  0.44580271127E+03  0.00000000000E+00 0.  1.
         -5    1    3    3    0  504 -0.14118216533E+02  0.52549775515E+02 -0.48589615649E+03  0.48895599786E+03  0.47000000000E+01 0.  1.
<mgrwt>
<rscale>  2 0.22520220E+03</rscale>
<asrwt>0</asrwt>
<pdfrwt beam="1">  1       21 0.21011325E-01 0.22522579E+03</pdfrwt>
<pdfrwt beam="2">  1       21 0.19900384E+00 0.22522579E+03</pdfrwt>
<totfact> 0.27811780E+03</totfact>
</mgrwt>
</event>
<event>
12    1  0.2742799E-001  0.2082289E+03  0.7546771E-02  0.1143035E+00
         21   -1    0    0  502  503  0.00000000000E+00  0.00000000000E+00  0.19648534221E+03  0.19648534221E+03  0.00000000000E+00 0. -1.
         21   -1    0    0  503  504 -0.00000000000E+00 -0.00000000000E+00 -0.22382256922E+03  0.22382256922E+03  0.00000000000E+00 0. -1.
         -6    2    1    2    0  504  0.61240077882E+02 -0.97141145499E+02 -0.39775774534E+02  0.21170784712E+03  0.17335325496E+03 0.  0.
        -24    2    3    3    0    0  0.30035941779E+02 -0.44578147448E+02 -0.89484111188E+02  0.13278018653E+03  0.82059751106E+02 0.  0.
          6    2    1    2  502    0 -0.61240077882E+02  0.97141145499E+02  0.12438547524E+02  0.20860006431E+03  0.17370238938E+03 0.  0.
         24    2    5    5    0    0 -0.26211589881E+02  0.64286414683E+02  0.75097515025E+02  0.12951362731E+03  0.79462899141E+02 0.  0.
          2    1    6    6  501    0 -0.82354448342E+01  0.80075631406E+02  0.65324672315E+02  0.10366890619E+03  0.00000000000E+00 0. -1.
         -1    1    6    6    0  501 -0.17976145047E+02 -0.15789216723E+02  0.97728427098E+01  0.25844721127E+02  0.00000000000E+00 0.  1.
          5    1    5    5  502    0 -0.35028488001E+02  0.32854730816E+02 -0.62658967501E+02  0.79086436997E+02  0.47000000000E+01 0. -1.
         11    1    4    4    0    0  0.45972586558E+02  0.35477039482E+01 -0.31947434709E+02  0.56095485582E+02  0.00000000000E+00 0. -1.
        -12    1    4    4    0    0 -0.15936644779E+02 -0.48125851396E+02 -0.57536676478E+02  0.76684700949E+02  0.00000000000E+00 0.  1.
         -5    1    3    3    0  504  0.31204136103E+02 -0.52562998051E+02  0.49708336653E+02  0.78927660594E+02  0.47000000000E+01 0.  1.
<mgrwt>
<rscale>  2 0.20815606E+03</rscale>
<asrwt>0</asrwt>
<pdfrwt beam="1">  1       21 0.30228514E-01 0.20822889E+03</pdfrwt>
<pdfrwt beam="2">  1       21 0.34434242E-01 0.20822889E+03</pdfrwt>
<totfact> 0.84783140E+04</totfact>
</mgrwt>
</event>
<event>
12    1  0.2742799E-001  0.2204711E+03  0.7546771E-02  0.1134013E+00
         21   -1    0    0  502  503  0.00000000000E+00  0.00000000000E+00  0.36814678905E+03  0.36814678905E+03  0.00000000000E+00 0.  1.
         21   -1    0    0  503  504 -0.00000000000E+00 -0.00000000000E+00 -0.13085392588E+03  0.13085392588E+03  0.00000000000E+00 0. -1.
         -6    2    1    2    0  504 -0.13699442910E+03 -0.26955458021E+01  0.13098336872E+03  0.25423708393E+03  0.16942583153E+03 0.  0.
        -24    2    3    3    0    0 -0.12652830905E+03  0.12322366906E+02  0.32443931112E+02  0.15390170564E+03  0.80447949731E+02 0.  0.
          6    2    1    2  502    0  0.13699442910E+03  0.26955458021E+01  0.10630949445E+03  0.24476363101E+03  0.17272170357E+03 0.  0.
         24    2    5    5    0    0  0.25831169300E+02  0.15365283532E+02  0.10062981288E+03  0.13263807030E+03  0.81013314996E+02 0.  0.
          2    1    6    6  501    0 -0.25499177489E+02 -0.44847039269E+01  0.56308189135E+02  0.61975259464E+02  0.00000000000E+00 0. -1.
         -1    1    6    6    0  501  0.51330346788E+02  0.19849987459E+02  0.44321623743E+02  0.70662810832E+02  0.00000000000E+00 0.  1.
          5    1    5    5  502    0  0.11116325980E+03 -0.12669737730E+02  0.56796815708E+01  0.11212556072E+03  0.47000000000E+01 0. -1.
         11    1    4    4    0    0  0.11086141079E+02 -0.40131542407E+01  0.38411662964E+01  0.12400100383E+02  0.00000000000E+00 0. -1.
        -12    1    4    4    0    0 -0.13761445013E+03  0.16335521146E+02  0.28602764816E+02  0.14150160526E+03  0.00000000000E+00 0.  1.
         -5    1    3    3    0  504 -0.10466120043E+02 -0.15017912708E+02  0.98539437608E+02  0.10033537828E+03  0.47000000000E+01 0.  1.
<mgrwt>
<rscale>  2 0.21982521E+03</rscale>
<asrwt>0</asrwt>
<pdfrwt beam="1">  1       21 0.56637967E-01 0.22047115E+03</pdfrwt>
<pdfrwt beam="2">  1       21 0.20131373E-01 0.22047115E+03</pdfrwt>
<totfact> 0.66014187E+04</totfact>
</mgrwt>
</event>
<event>
12    1  0.2742799E-001  0.2110292E+03  0.7546771E-02  0.1140788E+00
         21   -1    0    0  502  503  0.00000000000E+00  0.00000000000E+00  0.78805774842E+03  0.78805774842E+03  0.00000000000E+00 0. -1.
         21   -1    0    0  503  504 -0.00000000000E+00 -0.00000000000E+00 -0.64789545717E+02  0.64789545717E+02  0.00000000000E+00 0.  1.
         -6    2    1    2    0  504  0.11985188736E+03  0.12165676335E+02  0.20864012017E+03  0.29663204271E+03  0.17305314338E+03 0.  0.
        -24    2    3    3    0    0  0.11116179890E+02 -0.11162499406E+02  0.14870058423E+03  0.17021014654E+03  0.81310881105E+02 0.  0.
          6    2    1    2  502    0 -0.11985188736E+03 -0.12165676335E+02  0.51462808254E+03  0.55621525143E+03  0.17326529948E+03 0.  0.
         24    2    5    5    0    0 -0.12133381032E+03 -0.56792139680E+02  0.31822802132E+03  0.35474865029E+03  0.81426596879E+02 0.  0.
          4    1    6    6  501    0 -0.10018014009E+03 -0.52697651552E+02  0.31262343761E+03  0.33248536313E+03  0.00000000000E+00 0. -1.
         -3    1    6    6    0  501 -0.21153670225E+02 -0.40944881279E+01  0.56045837024E+01  0.22263287168E+02  0.00000000000E+00 0.  1.
          5    1    5    5  502    0  0.14819229566E+01  0.44626463344E+02  0.19640006122E+03  0.20146660114E+03  0.47000000000E+01 0. -1.
         13    1    4    4    0    0 -0.33275862364E+02 -0.12014661738E+02  0.43823650491E+02  0.56321820418E+02  0.00000000000E+00 0. -1.
        -14    1    4    4    0    0  0.44392042255E+02  0.85216233199E+00  0.10487693374E+03  0.11388832612E+03  0.00000000000E+00 0.  1.
         -5    1    3    3    0  504  0.10873570747E+03  0.23328175742E+02  0.59939535937E+02  0.12642189617E+03  0.47000000000E+01 0.  1.
<mgrwt>
<rscale>  2 0.21098569E+03</rscale>
<asrwt>0</asrwt>
<pdfrwt beam="1">  1       21 0.12123965E+00 0.21102925E+03</pdfrwt>
<pdfrwt beam="2">  1       21 0.99676230E-02 0.21102925E+03</pdfrwt>
<totfact> 0.41592505E+04</totfact>
</mgrwt>
</event>
<event>
12    1  0.2742799E-001  0.2002963E+03  0.7546771E-02  0.1149490E+00
         21   -1    0    0  502  503  0.00000000000E+00  0.00000000000E+00  0.13587951912E+03  0.13587951912E+03  0.00000000000E+00 0. -1.
         21   -1    0    0  503  504 -0.00000000000E+00 -0.00000000000E+00 -0.44071097318E+03  0.44071097318E+03  0.00000000000E+00 0.  1.
         -6    2    1    2    0  504 -0.93180546347E+02 -0.39358479375E+02 -0.31804406930E+03  0.37585889154E+03  0.17287617596E+03 0.  0.
        -24    2    3    3    0    0 -0.11119806297E+02 -0.31255756604E+02 -0.74162541049E+02  0.11837120446E+03  0.86087671232E+02 0.  0.
          6    2    1    2  502    0  0.93180546347E+02  0.39358479375E+02  0.13212615245E+02  0.20073160076E+03  0.17287827575E+03 0.  0.
         24    2    5    5    0    0  0.86938602220E+02 -0.11445938166E+02 -0.39413806073E+02  0.12716747276E+03  0.83239341434E+02 0.  0.
          4    1    6    6  501    0  0.70785786590E+02  0.15121953552E+02 -0.56377435207E+02  0.91748113130E+02  0.00000000000E+00 0. -1.
         -3    1    6    6    0  501  0.16152815631E+02 -0.26567891718E+02  0.16963629135E+02  0.35419359630E+02  0.00000000000E+00 0.  1.
          5    1    5    5  502    0  0.62419441263E+01  0.50804417541E+02  0.52626421318E+02  0.73564128004E+02  0.47000000000E+01 0. -1.
         13    1    4    4    0    0 -0.36499751004E+02 -0.32219741668E+02 -0.78728012376E+02  0.92565887395E+02  0.00000000000E+00 0. -1.
        -14    1    4    4    0    0  0.25379944707E+02  0.96398506428E+00  0.45654713270E+01  0.25805317068E+02  0.00000000000E+00 0.  1.
         -5    1    3    3    0  504 -0.82060740050E+02 -0.81027227706E+01 -0.24388152825E+03  0.25748768708E+03  0.47000000000E+01 0.  1.
<mgrwt>
<rscale>  2 0.20029583E+03</rscale>
<asrwt>0</asrwt>
<pdfrwt beam="1">  1       21 0.20904541E-01 0.20029629E+03</pdfrwt>
<pdfrwt beam="2">  1       21 0.67801689E-01 0.20029629E+03</pdfrwt>
<totfact> 0.42067509E+04</totfact>
</mgrwt>
</event>
<event>
12    1  0.2742799E-001  0.1854466E+03  0.7546771E-02  0.1162887E+00
         21   -1    0    0  502  503  0.00000000000E+00  0.00000000000E+00  0.43607352690E+03  0.43607352690E+03  0.00000000000E+00 0. -1.
         21   -1    0    0  503  504 -0.00000000000E+00 -0.00000000000E+00 -0.10494650871E+03  0.10494650871E+03  0.00000000000E+00 0. -1.
         -6    2    1    2    0  504 -0.61778075492E+02 -0.24081109337E+02  0.29158737327E+02  0.18665402472E+03  0.17202634258E+03 0.  0.
        -24    2    3    3    0    0 -0.60832321297E+02  0.45401113517E+02  0.47238766486E+01  0.11284463399E+03  0.83365244476E+02 0.  0.
          6    2    1    2  502    0  0.61778075492E+02  0.24081109337E+02  0.30196828086E+03  0.35436601089E+03  0.17318774953E+03 0.  0.
         24    2    5    5    0    0  0.92614515476E+02  0.94229021420E+00  0.28921217672E+03  0.31348693098E+03  0.77794834937E+02 0.  0.
          2    1    6    6  501    0  0.10655662544E+03  0.28067378622E+01  0.26201555930E+03  0.28286807087E+03  0.00000000000E+00 0. -1.
         -1    1    6    6    0  501 -0.13942109962E+02 -0.18644476480E+01  0.27196617429E+02  0.30618860116E+02  0.00000000000E+00 0.  1.
          5    1    5    5  502    0 -0.30836439984E+02  0.23138819123E+02  0.12756104138E+02  0.40879079907E+02  0.47000000000E+01 0. -1.
         13    1    4    4    0    0 -0.72550865780E+02  0.59114418667E+02  0.98241543570E+01  0.94099185058E+02  0.00000000000E+00 0. -1.
        -14    1    4    4    0    0  0.11718544483E+02 -0.13713305150E+02 -0.51002777085E+01  0.18745448931E+02  0.00000000000E+00 0.  1.
         -5    1    3    3    0  504 -0.94575419468E+00 -0.69482222854E+02  0.24434860678E+02  0.73809390731E+02  0.47000000000E+01 0.  1.
<mgrwt>
<rscale>  2 0.18517492E+03</rscale>
<asrwt>0</asrwt>
<pdfrwt beam="1">  1       21 0.67088234E-01 0.18544656E+03</pdfrwt>
<pdfrwt beam="2">  1       21 0.16145617E-01 0.18544656E+03</pdfrwt>
<totfact> 0.69977142E+04</totfact>
</mgrwt>
</event>
<event>
12    1  0.2742799E-001  0.2101925E+03  0.7546771E-02  0.1142856E+00
         21   -1    0    0  502  503  0.00000000000E+00  0.00000000000E+00  0.86724309284E+02  0.86724309284E+02  0.00000000000E+00 0. -1.
         21   -1    0    0  503  504 -0.00000000000E+00 -0.00000000000E+00 -0.88900060819E+03  0.88900060819E+03  0.00000000000E+00 0.  1.
         -6    2    1    2    0  504  0.77904744622E+02  0.88879799410E+02 -0.73088541091E+03  0.76050929621E+03  0.17381639096E+03 0.  0.
        -24    2    3    3    0    0  0.95162963254E+02  0.42518341109E+02 -0.30505566215E+03  0.33178992897E+03  0.78497140360E+02 0.  0.
          6    2    1    2  502    0 -0.77904744622E+02 -0.88879799410E+02 -0.71390887995E+02  0.21521562126E+03  0.16508281791E+03 0.  0.
         24    2    5    5    0    0 -0.37397495384E+01 -0.87675575856E+02 -0.12988955920E+02  0.12069169667E+03  0.81833858156E+02 0.  0.
          4    1    6    6  501    0 -0.32697294536E+02 -0.33428075463E+02  0.20058876383E+02  0.50881311116E+02  0.00000000000E+00 0. -1.
         -3    1    6    6    0  501  0.28957544998E+02 -0.54247500393E+02 -0.33047832302E+02  0.69810385553E+02  0.00000000000E+00 0.  1.
          5    1    5    5  502    0 -0.74164995084E+02 -0.12042235541E+01 -0.58401932076E+02  0.94523924592E+02  0.47000000000E+01 0. -1.
         13    1    4    4    0    0  0.57443694633E+02  0.26589686249E+02 -0.27170642124E+03  0.27898238083E+03  0.00000000000E+00 0. -1.
        -14    1    4    4    0    0  0.37719268621E+02  0.15928654859E+02 -0.33349240912E+02  0.52807548138E+02  0.00000000000E+00 0.  1.
         -5    1    3    3    0  504 -0.17258218632E+02  0.46361458301E+02 -0.42582974876E+03  0.42871936725E+03  0.47000000000E+01 0.  1.
<mgrwt>
<rscale>  2 0.20837851E+03</rscale>
<asrwt>0</asrwt>
<pdfrwt beam="1">  1       21 0.13342202E-01 0.21019254E+03</pdfrwt>
<pdfrwt beam="2">  1       21 0.13676932E+00 0.21019254E+03</pdfrwt>
<totfact> 0.18220775E+04</totfact>
</mgrwt>
</event>
<event>
12    1  0.2742799E-001  0.2236536E+03  0.7546771E-02  0.1131255E+00
         21   -1    0    0  502  503  0.00000000000E+00  0.00000000000E+00  0.10798832418E+03  0.10798832418E+03  0.00000000000E+00 0. -1.
         21   -1    0    0  503  504 -0.00000000000E+00 -0.00000000000E+00 -0.51409390196E+03  0.51409390196E+03  0.00000000000E+00 0.  1.
         -6    2    1    2    0  504 -0.78997406503E+02 -0.11660739259E+03 -0.10461506401E+03  0.24691136915E+03  0.17373266347E+03 0.  0.
        -24    2    3    3    0    0  0.11728207906E+01  0.12967113558E+01 -0.38941958234E+02  0.89864593015E+02  0.80969821524E+02 0.  0.
          6    2    1    2  502    0  0.78997406503E+02  0.11660739259E+03 -0.30149051377E+03  0.37517085699E+03  0.17325925024E+03 0.  0.
         24    2    5    5    0    0  0.96928337558E+02  0.14282873986E+03 -0.24694591662E+03  0.31187567218E+03  0.80554314659E+02 0.  0.
          4    1    6    6  501    0  0.88967925136E+02  0.99811761147E+02 -0.12783512128E+03  0.18498512805E+03  0.00000000000E+00 0. -1.
         -3    1    6    6    0  501  0.79604124217E+01  0.43016978716E+02 -0.11911079534E+03  0.12689054413E+03  0.00000000000E+00 0.  1.
          5    1    5    5  502    0 -0.17930931055E+02 -0.26221347267E+02 -0.54544597151E+02  0.63295184804E+02  0.47000000000E+01 0. -1.
         13    1    4    4    0    0  0.17722950180E+02  0.48618504927E+01  0.20808430922E+02  0.27762048749E+02  0.00000000000E+00 0. -1.
        -14    1    4    4    0    0 -0.16550129389E+02 -0.35651391369E+01 -0.59750389157E+02  0.62102544266E+02  0.00000000000E+00 0.  1.
         -5    1    3    3    0  504 -0.80170227294E+02 -0.11790410395E+03 -0.65673105774E+02  0.15704677614E+03  0.47000000000E+01 0.  1.
<mgrwt>
<rscale>  2 0.22356161E+03</rscale>
<asrwt>0</asrwt>
<pdfrwt beam="1">  1       21 0.16613588E-01 0.22365355E+03</pdfrwt>
<pdfrwt beam="2">  1       21 0.79091371E-01 0.22365355E+03</pdfrwt>
<totfact> 0.45232392E+04</totfact>
</mgrwt>
</event>
<event>
12    1  0.2742799E-001  0.2070388E+03  0.7546771E-02  0.1144227E+00
         21   -1    0    0  502  503  0.00000000000E+00  0.00000000000E+00  0.25443535195E+03  0.25443535195E+03  0.00000000000E+00 0. -1.
         21   -1    0    0  503  504 -0.00000000000E+00 -0.00000000000E+00 -0.53630715512E+03  0.53630715512E+03  0.00000000000E+00 0. -1.
         -6    2    1    2    0  504 -0.63329588553E+02  0.90527041022E+02 -0.46905020954E+03  0.51271159796E+03  0.17509797736E+03 0.  0.
        -24    2    3    3    0    0 -0.80555017872E+02  0.12176569936E+03 -0.42095326874E+03  0.45264517720E+03  0.79812314398E+02 0.  0.
          6    2    1    2  502    0  0.63329588553E+02 -0.90527041022E+02  0.18717840636E+03  0.27803090911E+03  0.17337718612E+03 0.  0.
         24    2    5    5    0    0  0.95180504833E+02 -0.40578161081E+02  0.74072499992E+02  0.15026390425E+03  0.79916143594E+02 0.  0.
          4    1    6    6  501    0  0.94848654809E+02 -0.85421940152E+01  0.39414852032E+02  0.10306680823E+03  0.00000000000E+00 0. -1.
         -3    1    6    6    0  501  0.33185002404E+00 -0.32035967066E+02  0.34657647961E+02  0.47197096017E+02  0.00000000000E+00 0.  1.
          5    1    5    5  502    0 -0.31850916280E+02 -0.49948879941E+02  0.11310590637E+03  0.12776700486E+03  0.47000000000E+01 0. -1.
         11    1    4    4    0    0 -0.55069883439E+02  0.31979884032E+02 -0.24878615005E+03  0.25680723023E+03  0.00000000000E+00 0. -1.
        -12    1    4    4    0    0 -0.25485134432E+02  0.89785815327E+02 -0.17216711870E+03  0.19583794696E+03  0.00000000000E+00 0.  1.
         -5    1    3    3    0  504  0.17225429319E+02 -0.31238658337E+02 -0.48096940793E+02  0.60066420766E+02  0.47000000000E+01 0.  1.
<mgrwt>
<rscale>  2 0.20667457E+03</rscale>
<asrwt>0</asrwt>
<pdfrwt beam="1">  1       21 0.39143901E-01 0.20703885E+03</pdfrwt>
<pdfrwt beam="2">  1       21 0.82508792E-01 0.20703885E+03</pdfrwt>
<totfact> 0.79860871E+03</totfact>
</mgrwt>
</event>
<event>
12    1  0.2742799E-001  0.1916182E+03  0.7546771E-02  0.1157746E+00
         21   -1    0    0  502  503  0.00000000000E+00  0.00000000000E+00  0.24177692162E+03  0.24177692162E+03  0.00000000000E+00 0. -1.
         21   -1    0    0  503  504 -0.00000000000E+00 -0.00000000000E+00 -0.15243621915E+03  0.15243621915E+03  0.00000000000E+00 0. -1.
         -6    2    1    2    0  504  0.77513672617E+02  0.26745740940E+01  0.15950773080E+02  0.18902146341E+03  0.17163672008E+03 0.  0.
        -24    2    3    3    0    0  0.67406084295E+01  0.18903173830E+02  0.61400113686E+02  0.10323144869E+03  0.80523240471E+02 0.  0.
          6    2    1    2  502    0 -0.77513672617E+02 -0.26745740940E+01  0.73389929394E+02  0.20519167736E+03  0.17521991876E+03 0.  0.
         24    2    5    5    0    0 -0.49701600813E+02  0.29160524205E+02  0.11056699253E+03  0.14870089187E+03  0.81032771826E+02 0.  0.
          4    1    6    6  501    0 -0.68076769315E+02  0.15095825790E+02  0.56010943812E+02  0.89440238726E+02  0.00000000000E+00 0. -1.
         -3    1    6    6    0  501  0.18375168502E+02  0.14064698416E+02  0.54556048720E+02  0.59260653143E+02  0.00000000000E+00 0.  1.
          5    1    5    5  502    0 -0.27812071804E+02 -0.31835098299E+02 -0.37177063137E+02  0.56490785490E+02  0.47000000000E+01 0. -1.
         13    1    4    4    0    0  0.23944647855E+02 -0.35998588160E+01 -0.10167672293E+02  0.26261886913E+02  0.00000000000E+00 0. -1.
        -14    1    4    4    0    0 -0.17204039425E+02  0.22503032646E+02  0.71567785979E+02  0.76969561781E+02  0.00000000000E+00 0.  1.
         -5    1    3    3    0  504  0.70773064187E+02 -0.16228599736E+02 -0.45449340606E+02  0.85790014718E+02  0.47000000000E+01 0.  1.
<mgrwt>
<rscale>  2 0.19079519E+03</rscale>
<asrwt>0</asrwt>
<pdfrwt beam="1">  1       21 0.37196450E-01 0.19161822E+03</pdfrwt>
<pdfrwt beam="2">  1       21 0.23451726E-01 0.19161822E+03</pdfrwt>
<totfact> 0.11929120E+05</totfact>
</mgrwt>
</event>
<event>
12    1  0.2742799E-001  0.2028325E+03  0.7546771E-02  0.1147760E+00
         21   -1    0    0  502  503  0.00000000000E+00  0.00000000000E+00  0.37838261258E+03  0.37838261258E+03  0.00000000000E+00 0.  1.
         21   -1    0    0  503  504 -0.00000000000E+00 -0.00000000000E+00 -0.12358826351E+03  0.12358826351E+03  0.00000000000E+00 0. -1.
         -6    2    1    2    0  504 -0.10154424849E+03  0.29660268440E+02  0.36977675770E+02  0.20433835845E+03  0.17086793235E+03 0.  0.
        -24    2    3    3    0    0 -0.61505660937E+02  0.31394775020E+02 -0.42914605015E+02  0.11483437231E+03  0.81096803356E+02 0.  0.
          6    2    1    2  502    0  0.10154424849E+03 -0.29660268440E+02  0.21781667331E+03  0.29763251764E+03  0.17306081723E+03 0.  0.
         24    2    5    5    0    0  0.59491951862E+02  0.12451455679E+02  0.21547663006E+03  0.23788840695E+03  0.80413835701E+02 0.  0.
          4    1    6    6  501    0  0.11711460153E+02  0.37538352744E+02  0.13783102521E+03  0.14333065875E+03  0.00000000000E+00 0. -1.
         -3    1    6    6    0  501  0.47780491709E+02 -0.25086897065E+02  0.77645604852E+02  0.94557748202E+02  0.00000000000E+00 0.  1.
          5    1    5    5  502    0  0.42052296628E+02 -0.42111724119E+02  0.23400432435E+01  0.59744110692E+02  0.47000000000E+01 0. -1.
         11    1    4    4    0    0 -0.29519333705E+02 -0.24317238117E+02 -0.12521317235E+01  0.38266002743E+02  0.00000000000E+00 0. -1.
        -12    1    4    4    0    0 -0.31986327231E+02  0.55712013137E+02 -0.41662473291E+02  0.76568369568E+02  0.00000000000E+00 0.  1.
         -5    1    3    3    0  504 -0.40038587554E+02 -0.17345065796E+01  0.79892280785E+02  0.89503986142E+02  0.47000000000E+01 0.  1.
<mgrwt>
<rscale>  2 0.20236391E+03</rscale>
<asrwt>0</asrwt>
<pdfrwt beam="1">  1       21 0.58212709E-01 0.20283247E+03</pdfrwt>
<pdfrwt beam="2">  1       21 0.19013579E-01 0.20283247E+03</pdfrwt>
<totfact> 0.69801804E+04</totfact>
</mgrwt>
</event>
<event>
12    1  0.2742799E-001  0.2559711E+03  0.7546771E-02  0.1110141E+00
         21   -1    0    0  502  503  0.00000000000E+00  0.00000000000E+00  0.12714977471E+03  0.12714977471E+03  0.00000000000E+00 0.  1.
         21   -1    0    0  503  504 -0.00000000000E+00 -0.00000000000E+00 -0.50825162014E+03  0.50825162014E+03  0.00000000000E+00 0. -1.
         -6    2    1    2    0  504 -0.18716004848E+03 -0.10338911409E+02 -0.19410124347E+03  0.31839916978E+03  0.16901763744E+03 0.  0.
        -24    2    3    3    0    0 -0.13420506993E+03  0.32647141691E+02 -0.19165061187E+03  0.24998772258E+03  0.81774493284E+02 0.  0.
          6    2    1    2  502    0  0.18716004848E+03  0.10338911409E+02 -0.18700060196E+03  0.31700222507E+03  0.17431410938E+03 0.  0.
         24    2    5    5    0    0  0.86376316517E+02  0.71642683968E+02 -0.11550056849E+03  0.17898100226E+03  0.78104261273E+02 0.  0.
          4    1    6    6  501    0  0.88329428035E+02  0.70541463247E+02 -0.12540086525E+03  0.16882998223E+03  0.00000000000E+00 0. -1.
         -3    1    6    6    0  501 -0.19531115177E+01  0.11012207206E+01  0.99002967647E+01  0.10151020033E+02  0.00000000000E+00 0.  1.
          5    1    5    5  502    0  0.10078373196E+03 -0.61303772559E+02 -0.71500033469E+02  0.13802122281E+03  0.47000000000E+01 0. -1.
         11    1    4    4    0    0 -0.96987856106E+02  0.37852919091E+02 -0.18433212749E+03  0.21170219872E+03  0.00000000000E+00 0. -1.
        -12    1    4    4    0    0 -0.37217213829E+02 -0.52057774002E+01 -0.73184843762E+01  0.38285523858E+02  0.00000000000E+00 0.  1.
         -5    1    3    3    0  504 -0.52954978547E+02 -0.42986053100E+02 -0.24506316026E+01  0.68411447209E+02  0.47000000000E+01 0.  1.
<mgrwt>
<rscale>  2 0.25507208E+03</rscale>
<asrwt>0</asrwt>
<pdfrwt beam="1">  1       21 0.19561504E-01 0.25597106E+03</pdfrwt>
<pdfrwt beam="2">  1       21 0.78192557E-01 0.25597106E+03</pdfrwt>
<totfact> 0.33774731E+04</totfact>
</mgrwt>
</event>
<event>
12    1  0.2742799E-001  0.1740870E+03  0.7546771E-02  0.1173907E+00
         21   -1    0    0  502  503  0.00000000000E+00  0.00000000000E+00  0.86337712943E+03  0.86337712943E+03  0.00000000000E+00 0.  1.
         21   -1    0    0  503  504 -0.00000000000E+00 -0.00000000000E+00 -0.99279795600E+02  0.99279795600E+02  0.00000000000E+00 0.  1.
         -6    2    1    2    0  504  0.85661462445E+00 -0.19842845152E+02 -0.51651233179E+01  0.17416363169E+03  0.17295033915E+03 0.  0.
        -24    2    3    3    0    0 -0.49094848169E+02  0.15169935513E+02  0.34375983986E+02  0.10131699408E+03  0.80268262432E+02 0.  0.
          6    2    1    2  502    0 -0.85661462445E+00  0.19842845152E+02  0.76926245715E+03  0.78849329334E+03  0.17193741118E+03 0.  0.
         24    2    5    5    0    0 -0.95035379447E+01  0.60098710319E+01  0.14994851980E+03  0.16894671442E+03  0.77019464674E+02 0.  0.
          4    1    6    6  501    0 -0.15902638486E+01  0.41110787082E+02  0.68519863068E+02  0.79922446087E+02  0.00000000000E+00 0. -1.
         -3    1    6    6    0  501 -0.79132740961E+01 -0.35100916050E+02  0.81428656731E+02  0.89024268329E+02  0.00000000000E+00 0.  1.
          5    1    5    5  502    0  0.86469233202E+01  0.13832974120E+02  0.61931393735E+03  0.61954657892E+03  0.47000000000E+01 0. -1.
         11    1    4    4    0    0  0.12035950049E+02 -0.20489399819E+02  0.14379652081E+02  0.27775060621E+02  0.00000000000E+00 0. -1.
        -12    1    4    4    0    0 -0.61130798218E+02  0.35659335331E+02  0.19996331906E+02  0.73541933458E+02  0.00000000000E+00 0.  1.
         -5    1    3    3    0  504  0.49951462794E+02 -0.35012780664E+02 -0.39541107304E+02  0.72846637616E+02  0.47000000000E+01 0.  1.
<mgrwt>
<rscale>  2 0.17383491E+03</rscale>
<asrwt>0</asrwt>
<pdfrwt beam="1">  1       21 0.13282725E+00 0.17408702E+03</pdfrwt>
<pdfrwt beam="2">  1       21 0.15273815E-01 0.17408702E+03</pdfrwt>
<totfact> 0.15739281E+04</totfact>
</mgrwt>
</event>
<event>
12    1  0.2742799E-001  0.2231634E+03  0.7546771E-02  0.1132936E+00
         21   -1    0    0  502  503  0.00000000000E+00  0.00000000000E+00  0.42121519463E+03  0.42121519463E+03  0.00000000000E+00 0. -1.
         21   -1    0    0  503  504 -0.00000000000E+00 -0.00000000000E+00 -0.11771535170E+03  0.11771535170E+03  0.00000000000E+00 0. -1.
         -6    2    1    2    0  504  0.26582687377E+02 -0.12549526768E+03  0.10846986283E+03  0.24812817924E+03  0.18260936644E+03 0.  0.
        -24    2    3    3    0    0  0.84061246235E+02 -0.11685632020E+03  0.84339431801E+02  0.18501887847E+03  0.79982203928E+02 0.  0.
          6    2    1    2  502    0 -0.26582687377E+02  0.12549526768E+03  0.19502998010E+03  0.29080236709E+03  0.17341747918E+03 0.  0.
         24    2    5    5    0    0  0.45528329729E+01 -0.37504475690E+01  0.80381323167E+02  0.11518835832E+03  0.82294633077E+02 0.  0.
          2    1    6    6  501    0 -0.18295201124E+02 -0.11810655891E+02  0.87313495075E+02  0.89988068092E+02  0.00000000000E+00 0. -1.
         -1    1    6    6    0  501  0.22848034096E+02  0.80602083220E+01 -0.69321719071E+01  0.25200290229E+02  0.00000000000E+00 0.  1.
          5    1    5    5  502    0 -0.31135520350E+02  0.12924571525E+03  0.11464865694E+03  0.17561400877E+03  0.47000000000E+01 0. -1.
         11    1    4    4    0    0  0.77986201422E+01 -0.76620327212E+02  0.52002262695E+02  0.92928619616E+02  0.00000000000E+00 0. -1.
        -12    1    4    4    0    0  0.76262626093E+02 -0.40235992985E+02  0.32337169105E+02  0.92090258855E+02  0.00000000000E+00 0.  1.
         -5    1    3    3    0  504 -0.57478558858E+02 -0.86389474821E+01  0.24130431027E+02  0.63109300769E+02  0.47000000000E+01 0.  1.
<mgrwt>
<rscale>  2 0.22127533E+03</rscale>
<asrwt>0</asrwt>
<pdfrwt beam="1">  1       21 0.64802337E-01 0.22316335E+03</pdfrwt>
<pdfrwt beam="2">  1       21 0.18110054E-01 0.22316335E+03</pdfrwt>
<totfact> 0.60068156E+04</totfact>
</mgrwt>
</event>
<event>
12    1  0.2742799E-001  0.2059485E+03  0.7546771E-02  0.1145161E+00
         21   -1    0    0  502  503  0.00000000000E+00  0.00000000000E+00  0.55583000373E+03  0.55583000373E+03  0.00000000000E+00 0. -1.
         21   -1    0    0  503  504 -0.00000000000E+00 -0.00000000000E+00 -0.14535851872E+03  0.14535851872E+03  0.00000000000E+00 0. -1.
         -6    2    1    2    0  504 -0.57075662568E+02  0.93641224737E+02 -0.37054613949E+02  0.20925541813E+03  0.17432290548E+03 0.  0.
        -24    2    3    3    0    0 -0.57758747863E+02 -0.32654286242E+01 -0.51645840744E+02  0.11114140297E+03  0.79613959890E+02 0.  0.
          6    2    1    2  502    0  0.57075662568E+02 -0.93641224737E+02  0.44752609896E+03  0.49193310432E+03  0.17231442090E+03 0.  0.
         24    2    5    5    0    0  0.85806330724E+02 -0.11573201885E+03  0.33396144150E+03  0.37263316341E+03  0.81046921499E+02 0.  0.
          2    1    6    6  501    0  0.59005436259E+02 -0.10620801007E+03  0.31707307737E+03  0.33955429507E+03  0.00000000000E+00 0. -1.
         -1    1    6    6    0  501  0.26800894465E+02 -0.95240087838E+01  0.16888364131E+02  0.33078868337E+02  0.00000000000E+00 0.  1.
          5    1    5    5  502    0 -0.28730668155E+02  0.22090794116E+02  0.11356465746E+03  0.11929994091E+03  0.47000000000E+01 0. -1.
         11    1    4    4    0    0 -0.24113992293E+02  0.30824882832E+02 -0.49626837559E+02  0.63201906870E+02  0.00000000000E+00 0. -1.
        -12    1    4    4    0    0 -0.33644755570E+02 -0.34090311456E+02 -0.20190031848E+01  0.47939496101E+02  0.00000000000E+00 0.  1.
         -5    1    3    3    0  504  0.68308529464E+00  0.96906653361E+02  0.14591226795E+02  0.98114015158E+02  0.47000000000E+01 0.  1.
<mgrwt>
<rscale>  2 0.20552287E+03</rscale>
<asrwt>0</asrwt>
<pdfrwt beam="1">  1       21 0.85512307E-01 0.20594850E+03</pdfrwt>
<pdfrwt beam="2">  1       21 0.22362849E-01 0.20594850E+03</pdfrwt>
<totfact> 0.21945471E+04</totfact>
</mgrwt>
</event>
<event>
12    1  0.2742799E-001  0.2043800E+03  0.7546771E-02  0.1146198E+00
         21   -1    0    0  502  503  0.00000000000E+00  0.00000000000E+00  0.29743815718E+03  0.29743815718E+03  0.00000000000E+00 0.  1.
         21   -1    0    0  503  504 -0.00000000000E+00 -0.00000000000E+00 -0.22377187653E+03  0.22377187653E+03  0.00000000000E+00 0.  1.
         -6    2    1    2    0  504  0.82640276864E+02 -0.70044082332E+02 -0.12255721693E+03  0.23788188835E+03  0.17271923041E+03 0.  0.
        -24    2    3    3    0    0  0.52423368530E+02  0.89870426093E+01 -0.12932969292E+02  0.99323070768E+02  0.82878430180E+02 0.  0.
          6    2    1    2  502    0 -0.82640276864E+02  0.70044082332E+02  0.19622349758E+03  0.28332814537E+03  0.17330778437E+03 0.  0.
         24    2    5    5    0    0 -0.64698106401E+01  0.92725444685E+02  0.13020401081E+03  0.17990161707E+03  0.82289980248E+02 0.  0.
          4    1    6    6  501    0  0.16273870572E+02  0.41346260398E+02  0.76585837309E+01  0.45088867995E+02  0.00000000000E+00 0. -1.
         -3    1    6    6    0  501 -0.22743681212E+02  0.51379184287E+02  0.12254542708E+03  0.13481274907E+03  0.00000000000E+00 0.  1.
          5    1    5    5  502    0 -0.76170466224E+02 -0.22681362353E+02  0.66019486769E+02  0.10342652830E+03  0.47000000000E+01 0. -1.
         13    1    4    4    0    0  0.36355850310E+02 -0.30529590071E+02  0.13226911609E+02  0.49282399620E+02  0.00000000000E+00 0. -1.
        -14    1    4    4    0    0  0.16067518220E+02  0.39516632680E+02 -0.26159880901E+02  0.50040671147E+02  0.00000000000E+00 0.  1.
         -5    1    3    3    0  504  0.30216908335E+02 -0.79031124942E+02 -0.10962424764E+03  0.13855881758E+03  0.47000000000E+01 0.  1.
<mgrwt>
<rscale>  2 0.20425516E+03</rscale>
<asrwt>0</asrwt>
<pdfrwt beam="1">  1       21 0.45759717E-01 0.20437998E+03</pdfrwt>
<pdfrwt beam="2">  1       21 0.34426442E-01 0.20437998E+03</pdfrwt>
<totfact> 0.37000369E+04</totfact>
</mgrwt>
</event>
<event>
12    1  0.2742799E-001  0.1994498E+03  0.7546771E-02  0.1150342E+00
         21   -1    0    0  502  503  0.00000000000E+00  0.00000000000E+00  0.18564204223E+03  0.18564204223E+03  0.00000000000E+00 0. -1.
         21   -1    0    0  503  504 -0.00000000000E+00 -0.00000000000E+00 -0.23205136228E+04  0.23205136228E+04  0.00000000000E+00 0. -1.
         -6    2    1    2    0  504 -0.22769169350E+02  0.95821152810E+02 -0.22612927830E+04  0.22700147050E+04  0.17268926495E+03 0.  0.
        -24    2    3    3    0    0 -0.50675238305E+02  0.83318028486E+02 -0.21731698102E+04  0.21766186391E+04  0.74106695641E+02 0.  0.
          6    2    1    2  502    0  0.22769169350E+02 -0.95821152810E+02  0.12642120248E+03  0.23614095994E+03  0.17343616730E+03 0.  0.
         24    2    5    5    0    0 -0.26468280820E+02 -0.93571203882E+02  0.33071896214E+02  0.13047369089E+03  0.80458023892E+02 0.  0.
          2    1    6    6  501    0  0.13308168051E+02 -0.80155413634E+02  0.81627845141E+01  0.81661672299E+02  0.00000000000E+00 0. -1.
         -1    1    6    6    0  501 -0.39776448871E+02 -0.13415790248E+02  0.24909111700E+02  0.48812018586E+02  0.00000000000E+00 0.  1.
          5    1    5    5  502    0  0.49237450171E+02 -0.22499489285E+01  0.93349306269E+02  0.10566726906E+03  0.47000000000E+01 0. -1.
         13    1    4    4    0    0  0.36878788235E+01  0.63028229332E+02 -0.12905923850E+04  0.12921357755E+04  0.00000000000E+00 0. -1.
        -14    1    4    4    0    0 -0.54363117129E+02  0.20289799154E+02 -0.88257742523E+03  0.88448286358E+03  0.00000000000E+00 0.  1.
         -5    1    3    3    0  504  0.27906068955E+02  0.12503124325E+02 -0.88122972796E+02  0.93396065960E+02  0.47000000000E+01 0.  1.
<mgrwt>
<rscale>  2 0.19928734E+03</rscale>
<asrwt>0</asrwt>
<pdfrwt beam="1">  1       21 0.28560312E-01 0.19944982E+03</pdfrwt>
<pdfrwt beam="2">  1       21 0.35700213E+00 0.19944982E+03</pdfrwt>
<totfact> 0.18428923E+02</totfact>
</mgrwt>
</event>
<event>
12    1  0.2742799E-001  0.3202537E+03  0.7546771E-02  0.1075534E+00
         21   -1    0    0  502  503  0.00000000000E+00  0.00000000000E+00  0.28855256330E+03  0.28855256330E+03  0.00000000000E+00 0. -1.
         21   -1    0    0  503  504 -0.00000000000E+00 -0.00000000000E+00 -0.40477538945E+03  0.40477538945E+03  0.00000000000E+00 0. -1.
         -6    2    1    2    0  504  0.21859187924E+02  0.26919848952E+03 -0.17915853542E+03  0.36696074165E+03  0.17209518949E+03 0.  0.
        -24    2    3    3    0    0  0.40318682592E+02  0.25093223024E+03 -0.10187189872E+03  0.28529236722E+03  0.80132831613E+02 0.  0.
          6    2    1    2  502    0 -0.21859187924E+02 -0.26919848952E+03  0.62935709268E+02  0.32636721110E+03  0.17207266523E+03 0.  0.
         24    2    5    5    0    0 -0.74791629843E+02 -0.13464331544E+03  0.51651758706E+02  0.18125912786E+03  0.80401224920E+02 0.  0.
          4    1    6    6  501    0 -0.44709814007E+02 -0.87062616286E+02  0.71891938887E+02  0.12143853383E+03  0.00000000000E+00 0. -1.
         -3    1    6    6    0  501 -0.30081815836E+02 -0.47580699151E+02 -0.20240180181E+02  0.59820594024E+02  0.00000000000E+00 0.  1.
          5    1    5    5  502    0  0.52932441919E+02 -0.13455517409E+03  0.11283950562E+02  0.14510808324E+03  0.47000000000E+01 0. -1.
         13    1    4    4    0    0  0.30431064709E+01  0.11316906250E+02 -0.30247945950E+02  0.32438728370E+02  0.00000000000E+00 0. -1.
        -14    1    4    4    0    0  0.37275576121E+02  0.23961532399E+03 -0.71623952770E+02  0.25285363885E+03  0.00000000000E+00 0.  1.
         -5    1    3    3    0  504 -0.18459494668E+02  0.18266259280E+02 -0.77286636696E+02  0.81668374437E+02  0.47000000000E+01 0.  1.
<mgrwt>
<rscale>  2 0.32025063E+03</rscale>
<asrwt>0</asrwt>
<pdfrwt beam="1">  1       21 0.44392702E-01 0.32025366E+03</pdfrwt>
<pdfrwt beam="2">  1       21 0.62273136E-01 0.32025366E+03</pdfrwt>
<totfact> 0.10887058E+04</totfact>
</mgrwt>
</event>
<event>
12    1  0.2742799E-001  0.1901899E+03  0.7546771E-02  0.1158454E+00
         21   -1    0    0  502  503  0.00000000000E+00  0.00000000000E+00  0.96987569581E+02  0.96987569581E+02  0.00000000000E+00 0. -1.
         21   -1    0    0  503  504 -0.00000000000E+00 -0.00000000000E+00 -0.58201551106E+03  0.58201551106E+03  0.00000000000E+00 0. -1.
         -6    2    1    2    0  504 -0.63737421074E+02 -0.48957558680E+02 -0.44638166744E+03  0.48492643354E+03  0.17157433234E+03 0.  0.
        -24    2    3    3    0    0 -0.53896739471E+02 -0.36476949138E+02 -0.45445937598E+03  0.46648886309E+03  0.82723083986E+02 0.  0.
          6    2    1    2  502    0  0.63737421074E+02  0.48957558680E+02 -0.38646274040E+02  0.19407664711E+03  0.17237432830E+03 0.  0.
         24    2    5    5    0    0  0.43873435058E+02  0.72006153460E+02  0.29077803110E+02  0.11968272069E+03  0.79803950767E+02 0.  0.
          2    1    6    6  501    0  0.58596023631E+02  0.23055862240E+02  0.27030669321E+02  0.68525351899E+02  0.00000000000E+00 0. -1.
         -1    1    6    6    0  501 -0.14722588573E+02  0.48950291220E+02  0.20471337895E+01  0.51157368790E+02  0.00000000000E+00 0.  1.
          5    1    5    5  502    0  0.19863986015E+02 -0.23048594779E+02 -0.67724077150E+02  0.74393926416E+02  0.47000000000E+01 0. -1.
         11    1    4    4    0    0 -0.75905211805E+02 -0.28169918880E+02 -0.37387934515E+03  0.38254530482E+03  0.00000000000E+00 0. -1.
        -12    1    4    4    0    0  0.22008472335E+02 -0.83070302577E+01 -0.80580030827E+02  0.83943558266E+02  0.00000000000E+00 0.  1.
         -5    1    3    3    0  504 -0.98406816030E+01 -0.12480609542E+02  0.80777085371E+01  0.18437570452E+02  0.47000000000E+01 0.  1.
<mgrwt>
<rscale>  2 0.19000848E+03</rscale>
<asrwt>0</asrwt>
<pdfrwt beam="1">  1       21 0.14921165E-01 0.19018993E+03</pdfrwt>
<pdfrwt beam="2">  1       21 0.89540847E-01 0.19018993E+03</pdfrwt>
<totfact> 0.42159017E+04</totfact>
</mgrwt>
</event>
<event>
12    1  0.2742799E-001  0.2269461E+03  0.7546771E-02  0.1128876E+00
         21   -1    0    0  502  503  0.00000000000E+00  0.00000000000E+00  0.59981204259E+02  0.59981204259E+02  0.00000000000E+00 0.  1.
         21   -1    0    0  503  504 -0.00000000000E+00 -0.00000000000E+00 -0.12805068060E+04  0.12805068060E+04  0.00000000000E+00 0. -1.
         -6    2    1    2    0  504  0.32525234078E+02 -0.14357971274E+03 -0.99594403686E+03  0.10214739549E+04  0.17271795281E+03 0.  0.
        -24    2    3    3    0    0  0.23887237921E+02 -0.12870246513E+03 -0.44977793922E+03  0.47501678029E+03  0.78777041593E+02 0.  0.
          6    2    1    2  502    0 -0.32525234078E+02  0.14357971274E+03 -0.22458156484E+03  0.31901405532E+03  0.17222097277E+03 0.  0.
         24    2    5    5    0    0 -0.19590078355E+02  0.27334936545E+02 -0.16318126230E+03  0.18683140366E+03  0.84539216357E+02 0.  0.
          2    1    6    6  501    0 -0.18633207691E+02  0.57385386992E+02 -0.11851200692E+03  0.13298637093E+03  0.00000000000E+00 0. -1.
         -1    1    6    6    0  501 -0.95687066375E+00 -0.30050450447E+02 -0.44669255383E+02  0.53845032733E+02  0.00000000000E+00 0.  1.
          5    1    5    5  502    0 -0.12935155723E+02  0.11624477620E+03 -0.61400302542E+02  0.13218265166E+03  0.47000000000E+01 0. -1.
         13    1    4    4    0    0  0.47257497309E+01  0.84077774198E+01 -0.72522397589E+02  0.73160929352E+02  0.00000000000E+00 0. -1.
        -14    1    4    4    0    0  0.19161488190E+02 -0.13711024255E+03 -0.37725554163E+03  0.40185585094E+03  0.00000000000E+00 0.  1.
         -5    1    3    3    0  504  0.86379961569E+01 -0.14877247616E+02 -0.54616609764E+03  0.54645717461E+03  0.47000000000E+01 0.  1.
<mgrwt>
<rscale>  2 0.22685151E+03</rscale>
<asrwt>0</asrwt>
<pdfrwt beam="1">  1       21 0.92278785E-02 0.22694606E+03</pdfrwt>
<pdfrwt beam="2">  1       21 0.19700103E+00 0.22694606E+03</pdfrwt>
<totfact> 0.12783199E+04</totfact>
</mgrwt>
</event>
<event>
12    1  0.2742799E-001  0.2217808E+03  0.7546771E-02  0.1132720E+00
         21   -1    0    0  502  503  0.00000000000E+00  0.00000000000E+00  0.54043909551E+03  0.54043909551E+03  0.00000000000E+00 0. -1.
         21   -1    0    0  503  504 -0.00000000000E+00 -0.00000000000E+00 -0.93172939647E+02  0.93172939647E+02  0.00000000000E+00 0. -1.
         -6    2    1    2    0  504 -0.10959362083E+03 -0.83720396853E+02  0.17120643623E+03  0.27949951623E+03  0.17259336369E+03 0.  0.
        -24    2    3    3    0    0 -0.10300652991E+03 -0.11637152932E+03  0.17055740046E+03  0.24585434621E+03  0.84863741710E+02 0.  0.
          6    2    1    2  502    0  0.10959362083E+03  0.83720396853E+02  0.27605971963E+03  0.35411251892E+03  0.17368604055E+03 0.  0.
         24    2    5    5    0    0  0.11070627034E+03  0.86453898804E+02  0.29378535842E+03  0.33553838926E+03  0.80907471433E+02 0.  0.
          2    1    6    6  501    0 -0.11174481894E+02  0.36373268411E+01  0.43860260739E+02  0.45407286466E+02  0.00000000000E+00 0. -1.
         -1    1    6    6    0  501  0.12188075224E+03  0.82816571963E+02  0.24992509768E+03  0.29013110280E+03  0.00000000000E+00 0.  1.
          5    1    5    5  502    0 -0.11126495166E+01 -0.27335019509E+01 -0.17725638798E+02  0.18574129660E+02  0.47000000000E+01 0. -1.
         11    1    4    4    0    0 -0.36967530885E+02 -0.11842174120E+01  0.70451120991E+02  0.79569850820E+02  0.00000000000E+00 0. -1.
        -12    1    4    4    0    0 -0.66038999023E+02 -0.11518731191E+03  0.10010627947E+03  0.16628449539E+03  0.00000000000E+00 0.  1.
         -5    1    3    3    0  504 -0.65870909177E+01  0.32651132471E+02  0.64903577514E+00  0.33645170022E+02  0.47000000000E+01 0.  1.
<mgrwt>
<rscale>  2 0.22156679E+03</rscale>
<asrwt>0</asrwt>
<pdfrwt beam="1">  1       21 0.83144474E-01 0.22178076E+03</pdfrwt>
<pdfrwt beam="2">  1       21 0.14334299E-01 0.22178076E+03</pdfrwt>
<totfact> 0.52942619E+04</totfact>
</mgrwt>
</event>
<event>
12    1  0.2742799E-001  0.2819935E+03  0.7546771E-02  0.1096227E+00
         21   -1    0    0  502  503  0.00000000000E+00  0.00000000000E+00  0.87563182129E+02  0.87563182129E+02  0.00000000000E+00 0. -1.
         21   -1    0    0  503  504 -0.00000000000E+00 -0.00000000000E+00 -0.12801686230E+04  0.12801686230E+04  0.00000000000E+00 0.  1.
         -6    2    1    2    0  504  0.20811640278E+03 -0.25095785619E+02 -0.97435313914E+03  0.10111446730E+04  0.17060854167E+03 0.  0.
        -24    2    3    3    0    0  0.44414143936E+02  0.29178831099E+02 -0.32952719495E+03  0.34363680651E+03  0.81694933815E+02 0.  0.
          6    2    1    2  502    0 -0.20811640278E+03  0.25095785619E+02 -0.21825230177E+03  0.35658713214E+03  0.18862152585E+03 0.  0.
         24    2    5    5    0    0 -0.17399168147E+03 -0.32042855233E+02 -0.93876374009E+02  0.21544613069E+03  0.79400326441E+02 0.  0.
          2    1    6    6  501    0 -0.98199800280E+02 -0.14691397945E+02 -0.95375385880E+02  0.13767898235E+03  0.00000000000E+00 0. -1.
         -1    1    6    6    0  501 -0.75791881189E+02 -0.17351457288E+02  0.14990118710E+01  0.77767148339E+02  0.00000000000E+00 0.  1.
          5    1    5    5  502    0 -0.34124721312E+02  0.57138640852E+02 -0.12437592777E+03  0.14114100145E+03  0.47000000000E+01 0. -1.
         13    1    4    4    0    0 -0.16212432892E+02 -0.13360730235E+02 -0.10897532922E+03  0.11098186551E+03  0.00000000000E+00 0. -1.
        -14    1    4    4    0    0  0.60626576828E+02  0.42539561335E+02 -0.22055186573E+03  0.23265494100E+03  0.00000000000E+00 0.  1.
         -5    1    3    3    0  504  0.16370225885E+03 -0.54274616718E+02 -0.64482594419E+03  0.66750786653E+03  0.47000000000E+01 0.  1.
<mgrwt>
<rscale>  2 0.27901750E+03</rscale>
<asrwt>0</asrwt>
<pdfrwt beam="1">  1       21 0.13471258E-01 0.28199347E+03</pdfrwt>
<pdfrwt beam="2">  1       21 0.19694903E+00 0.28199347E+03</pdfrwt>
<totfact> 0.62635570E+03</totfact>
</mgrwt>
</event>
<event>
12    1  0.2742799E-001  0.1779164E+03  0.7546771E-02  0.1170163E+00
         21   -1    0    0  502  503  0.00000000000E+00  0.00000000000E+00  0.89435086142E+02  0.89435086142E+02  0.00000000000E+00 0.  1.
         21   -1    0    0  503  504 -0.00000000000E+00 -0.00000000000E+00 -0.50434358059E+03  0.50434358059E+03  0.00000000000E+00 0.  1.
         -6    2    1    2    0  504  0.49277336930E+01 -0.32638772600E+02 -0.37045887886E+03  0.41039377035E+03  0.17347534054E+03 0.  0.
        -24    2    3    3    0    0 -0.21043607470E+02 -0.14924501726E+02 -0.78874246722E+02  0.11708166072E+03  0.82591732720E+02 0.  0.
          6    2    1    2  502    0 -0.49277336930E+01  0.32638772600E+02 -0.44449615582E+02  0.18338489638E+03  0.17482757179E+03 0.  0.
         24    2    5    5    0    0 -0.71298101053E+02  0.83368068849E+01 -0.14566053125E+02  0.10650363399E+03  0.77317091173E+02 0.  0.
          2    1    6    6  501    0 -0.22950034603E+02  0.41036982658E+02 -0.89851781159E+01  0.47869316475E+02  0.00000000000E+00 0. -1.
         -1    1    6    6    0  501 -0.48348066450E+02 -0.32700175773E+02 -0.55808750087E+01  0.58634317519E+02  0.00000000000E+00 0.  1.
          5    1    5    5  502    0  0.66370367360E+02  0.24301965715E+02 -0.29883562458E+02  0.76881262387E+02  0.47000000000E+01 0. -1.
         13    1    4    4    0    0 -0.47305475545E+01 -0.34976340870E+02 -0.83653232203E+02  0.90794194521E+02  0.00000000000E+00 0. -1.
        -14    1    4    4    0    0 -0.16313059916E+02  0.20051839144E+02  0.47789854804E+01  0.26287466198E+02  0.00000000000E+00 0.  1.
         -5    1    3    3    0  504  0.25971341163E+02 -0.17714270874E+02 -0.29158463214E+03  0.29331210963E+03  0.47000000000E+01 0.  1.
<mgrwt>
<rscale>  2 0.17758334E+03</rscale>
<asrwt>0</asrwt>
<pdfrwt beam="1">  1       21 0.13759244E-01 0.17791642E+03</pdfrwt>
<pdfrwt beam="2">  1       21 0.77591321E-01 0.17791642E+03</pdfrwt>
<totfact> 0.68048750E+04</totfact>
</mgrwt>
</event>
<event>
12    1  0.2742799E-001  0.1843002E+03  0.7546771E-02  0.1164045E+00
         21   -1    0    0  502  503  0.00000000000E+00  0.00000000000E+00  0.43570100962E+03  0.43570100962E+03  0.00000000000E+00 0.  1.
         21   -1    0    0  503  504 -0.00000000000E+00 -0.00000000000E+00 -0.20771824339E+03  0.20771824339E+03  0.00000000000E+00 0. -1.
         -6    2    1    2    0  504 -0.19995874470E+02 -0.58076085475E+02 -0.14070861762E+03  0.23187385206E+03  0.17376392461E+03 0.  0.
        -24    2    3    3    0    0 -0.23544560602E+02 -0.88472148205E+02 -0.15634704167E+03  0.19718719598E+03  0.77824966949E+02 0.  0.
          6    2    1    2  502    0  0.19995874470E+02  0.58076085475E+02  0.36869138384E+03  0.41154540095E+03  0.17223128004E+03 0.  0.
         24    2    5    5    0    0  0.16430563438E+02  0.17722856349E+02  0.36100874324E+03  0.37004591288E+03  0.77605424362E+02 0.  0.
          2    1    6    6  501    0 -0.10211280245E+02  0.41888274106E+02  0.15337691977E+03  0.15932161583E+03  0.00000000000E+00 0. -1.
         -1    1    6    6    0  501  0.26641843683E+02 -0.24165417757E+02  0.20763182347E+03  0.21072429705E+03  0.00000000000E+00 0.  1.
          5    1    5    5  502    0  0.35653110329E+01  0.40353229126E+02  0.76826406020E+01  0.41499488073E+02  0.47000000000E+01 0. -1.
         13    1    4    4    0    0 -0.31806773961E+02 -0.51096891121E+00 -0.41111517193E+02  0.51981619876E+02  0.00000000000E+00 0. -1.
        -14    1    4    4    0    0  0.82622133597E+01 -0.87961179294E+02 -0.11523552447E+03  0.14520557611E+03  0.00000000000E+00 0.  1.
         -5    1    3    3    0  504  0.35486861313E+01  0.30396062730E+02  0.15638424050E+02  0.34686656073E+02  0.47000000000E+01 0.  1.
<mgrwt>
<rscale>  2 0.18393807E+03</rscale>
<asrwt>0</asrwt>
<pdfrwt beam="1">  1       21 0.67030924E-01 0.18430021E+03</pdfrwt>
<pdfrwt beam="2">  1       21 0.31956653E-01 0.18430021E+03</pdfrwt>
<totfact> 0.19288688E+04</totfact>
</mgrwt>
</event>
<event>
12    1  0.2742799E-001  0.2360141E+03  0.7546771E-02  0.1122563E+00
         21   -1    0    0  502  503  0.00000000000E+00  0.00000000000E+00  0.14964392447E+03  0.14964392447E+03  0.00000000000E+00 0. -1.
         21   -1    0    0  503  504 -0.00000000000E+00 -0.00000000000E+00 -0.37753846365E+03  0.37753846365E+03  0.00000000000E+00 0.  1.
         -6    2    1    2    0  504 -0.12328448204E+02 -0.16012575715E+03 -0.14734334167E+03  0.27780087982E+03  0.17225277865E+03 0.  0.
        -24    2    3    3    0    0 -0.24659281365E+02 -0.49591222019E+02 -0.54446972359E+01  0.97447758980E+02  0.79994071927E+02 0.  0.
          6    2    1    2  502    0  0.12328448204E+02  0.16012575715E+03 -0.80551197517E+02  0.24938150830E+03  0.17294621280E+03 0.  0.
         24    2    5    5    0    0 -0.40552650162E+02  0.15173187663E+03 -0.39881002146E+02  0.18197956036E+03  0.82818996837E+02 0.  0.
          2    1    6    6  501    0  0.99056898035E+01  0.39405593159E+02  0.19732293753E+02  0.45169534860E+02  0.00000000000E+00 0. -1.
         -1    1    6    6    0  501 -0.50458339966E+02  0.11232628347E+03 -0.59613295899E+02  0.13681002550E+03  0.00000000000E+00 0.  1.
          5    1    5    5  502    0  0.52881098366E+02  0.83938805284E+01 -0.40670195371E+02  0.67401947941E+02  0.47000000000E+01 0. -1.
         11    1    4    4    0    0 -0.36030634473E+02 -0.64145584020E+02 -0.17197811682E+02  0.75555458416E+02  0.00000000000E+00 0. -1.
        -12    1    4    4    0    0  0.11371353108E+02  0.14554362001E+02  0.11753114447E+02  0.21892300563E+02  0.00000000000E+00 0.  1.
         -5    1    3    3    0  504  0.12330833161E+02 -0.11053453513E+03 -0.14189864444E+03  0.18035312084E+03  0.47000000000E+01 0.  1.
<mgrwt>
<rscale>  2 0.23588705E+03</rscale>
<asrwt>0</asrwt>
<pdfrwt beam="1">  1       21 0.23022142E-01 0.23601407E+03</pdfrwt>
<pdfrwt beam="2">  1       21 0.58082840E-01 0.23601407E+03</pdfrwt>
<totfact> 0.48230868E+04</totfact>
</mgrwt>
</event>
<event>
12    1  0.2742799E-001  0.2468066E+03  0.7546771E-02  0.1115612E+00
         21   -1    0    0  502  503  0.00000000000E+00  0.00000000000E+00  0.84504958266E+02  0.84504958266E+02  0.00000000000E+00 0.  1.
         21   -1    0    0  503  504 -0.00000000000E+00 -0.00000000000E+00 -0.13398822663E+04  0.13398822663E+04  0.00000000000E+00 0. -1.
         -6    2    1    2    0  504  0.22989931414E+02 -0.17259025279E+03 -0.11125492673E+04  0.11392322611E+04  0.17253504044E+03 0.  0.
        -24    2    3    3    0    0  0.50112736260E+02 -0.73679064567E+02 -0.83392276794E+03  0.84229138169E+03  0.78023700854E+02 0.  0.
          6    2    1    2  502    0 -0.22989931414E+02  0.17259025279E+03 -0.14282804072E+03  0.28515496349E+03  0.17492161582E+03 0.  0.
         24    2    5    5    0    0 -0.76931499178E+02  0.10687209696E+03 -0.12293799101E+03  0.19771199456E+03  0.81462767471E+02 0.  0.
          2    1    6    6  501    0 -0.82265271229E+02  0.54673050838E+02 -0.99635462784E+02  0.14029947535E+03  0.00000000000E+00 0. -1.
         -1    1    6    6    0  501  0.53337720514E+01  0.52199046124E+02 -0.23302528227E+02  0.57412519213E+02  0.00000000000E+00 0.  1.
          5    1    5    5  502    0  0.53941567764E+02  0.65718155824E+02 -0.19890049710E+02  0.87442968930E+02  0.47000000000E+01 0. -1.
         13    1    4    4    0    0  0.38508491673E+02 -0.89919632368E+02 -0.72297609292E+03  0.72956348261E+03  0.00000000000E+00 0. -1.
        -14    1    4    4    0    0  0.11604244587E+02  0.16240567801E+02 -0.11094667502E+03  0.11272789909E+03  0.00000000000E+00 0.  1.
         -5    1    3    3    0  504 -0.27122804847E+02 -0.98911188219E+02 -0.27862649941E+03  0.29694087942E+03  0.47000000000E+01 0.  1.
<mgrwt>
<rscale>  2 0.24638411E+03</rscale>
<asrwt>0</asrwt>
<pdfrwt beam="1">  1       21 0.13000762E-01 0.24680661E+03</pdfrwt>
<pdfrwt beam="2">  1       21 0.20613574E+00 0.24680661E+03</pdfrwt>
<totfact> 0.59641663E+03</totfact>
</mgrwt>
</event>
<event>
12    1  0.2742799E-001  0.2011935E+03  0.7546771E-02  0.1148740E+00
         21   -1    0    0  502  503  0.00000000000E+00  0.00000000000E+00  0.32374523133E+03  0.32374523133E+03  0.00000000000E+00 0.  1.
         21   -1    0    0  503  504 -0.00000000000E+00 -0.00000000000E+00 -0.13406046482E+03  0.13406046482E+03  0.00000000000E+00 0. -1.
         -6    2    1    2    0  504  0.73338069766E+02  0.72556670681E+02  0.35395939252E+02  0.20426307777E+03  0.17270665733E+03 0.  0.
        -24    2    3    3    0    0  0.92043036624E+02  0.95884742824E+02 -0.55356563373E+01  0.15335570843E+03  0.76298920832E+02 0.  0.
          6    2    1    2  502    0 -0.73338069766E+02 -0.72556670681E+02  0.15428882725E+03  0.25354261839E+03  0.17273064055E+03 0.  0.
         24    2    5    5    0    0 -0.11068163743E+03 -0.72099786028E+02  0.14906679211E+03  0.21554116525E+03  0.82391027423E+02 0.  0.
          4    1    6    6  501    0 -0.10501448024E+03 -0.27127146661E+02  0.89076730619E+02  0.14035165508E+03  0.00000000000E+00 0. -1.
         -3    1    6    6    0  501 -0.56671571856E+01 -0.44972639367E+02  0.59990061489E+02  0.75189510170E+02  0.00000000000E+00 0.  1.
          5    1    5    5  502    0  0.37343567661E+02 -0.45688465291E+00  0.52220351453E+01  0.38001453134E+02  0.47000000000E+01 0. -1.
         11    1    4    4    0    0  0.61884555426E+02  0.40019654701E+02  0.31175432878E+02  0.80019863645E+02  0.00000000000E+00 0. -1.
        -12    1    4    4    0    0  0.30158481198E+02  0.55865088123E+02 -0.36711089216E+02  0.73335844787E+02  0.00000000000E+00 0.  1.
         -5    1    3    3    0  504 -0.18704966858E+02 -0.23328072143E+02  0.40931595590E+02  0.50907369335E+02  0.47000000000E+01 0.  1.
<mgrwt>
<rscale>  2 0.20118833E+03</rscale>
<asrwt>0</asrwt>
<pdfrwt beam="1">  1       21 0.49806958E-01 0.20119348E+03</pdfrwt>
<pdfrwt beam="2">  1       21 0.20624687E-01 0.20119348E+03</pdfrwt>
<totfact> 0.83406087E+04</totfact>
</mgrwt>
</event>
<event>
12    1  0.2742799E-001  0.1992232E+03  0.7546771E-02  0.1151896E+00
         21   -1    0    0  502  503  0.00000000000E+00  0.00000000000E+00  0.10145521626E+03  0.10145521626E+03  0.00000000000E+00 0. -1.
         21   -1    0    0  503  504 -0.00000000000E+00 -0.00000000000E+00 -0.55303577913E+03  0.55303577913E+03  0.00000000000E+00 0. -1.
         -6    2    1    2    0  504  0.81469379843E+02  0.28611237458E+02 -0.40730158558E+03  0.45040644029E+03  0.17180080640E+03 0.  0.
        -24    2    3    3    0    0  0.47272264490E+02  0.84748755480E+02 -0.25175741138E+03  0.28147762761E+03  0.80192531526E+02 0.  0.
          6    2    1    2  502    0 -0.81469379843E+02 -0.28611237458E+02 -0.44278977302E+02  0.20408455510E+03  0.17953833863E+03 0.  0.
         24    2    5    5    0    0  0.18974940895E+02  0.23996206055E+02 -0.20950003066E+02  0.88227161205E+02  0.80057873184E+02 0.  0.
          4    1    6    6  501    0  0.48238528014E+01 -0.11807113592E+02 -0.42316563127E+02  0.44196934306E+02  0.00000000000E+00 0. -1.
         -3    1    6    6    0  501  0.14151088093E+02  0.35803319646E+02  0.21366560060E+02  0.44030226898E+02  0.00000000000E+00 0.  1.
          5    1    5    5  502    0 -0.10044432074E+03 -0.52607443513E+02 -0.23328974236E+02  0.11585739390E+03  0.47000000000E+01 0. -1.
         11    1    4    4    0    0  0.21157319993E+02 -0.10186502376E+02 -0.25174761572E+02  0.34426234765E+02  0.00000000000E+00 0. -1.
        -12    1    4    4    0    0  0.26114944497E+02  0.94935257856E+02 -0.22658264981E+03  0.24705139284E+03  0.00000000000E+00 0.  1.
         -5    1    3    3    0  504  0.34197115353E+02 -0.56137518022E+02 -0.15554417420E+03  0.16892881268E+03  0.47000000000E+01 0.  1.
<mgrwt>
<rscale>  2 0.19746409E+03</rscale>
<asrwt>0</asrwt>
<pdfrwt beam="1">  1       21 0.15608495E-01 0.19922319E+03</pdfrwt>
<pdfrwt beam="2">  1       21 0.85082428E-01 0.19922319E+03</pdfrwt>
<totfact> 0.43471678E+04</totfact>
</mgrwt>
</event>
<event>
12    1  0.2742799E-001  0.2647751E+03  0.7546771E-02  0.1104431E+00
         21   -1    0    0  502  503  0.00000000000E+00  0.00000000000E+00  0.85541678547E+03  0.85541678547E+03  0.00000000000E+00 0. -1.
         21   -1    0    0  503  504 -0.00000000000E+00 -0.00000000000E+00 -0.25019558592E+03  0.25019558592E+03  0.00000000000E+00 0.  1.
         -6    2    1    2    0  504 -0.16890044291E+03  0.10676282738E+03 -0.15089410565E+03  0.30475380558E+03  0.17372446567E+03 0.  0.
        -24    2    3    3    0    0 -0.19648325271E+03  0.10045512909E+03 -0.12517984493E+03  0.26623223165E+03  0.80701338501E+02 0.  0.
          6    2    1    2  502    0  0.16890044291E+03 -0.10676282738E+03  0.75611530520E+03  0.80085856580E+03  0.17244833060E+03 0.  0.
         24    2    5    5    0    0  0.17203602277E+03 -0.57673035036E+02  0.69197986832E+03  0.71989509355E+03  0.80561997669E+02 0.  0.
          4    1    6    6  501    0  0.82446816394E+02 -0.38941986726E+02  0.20463360107E+03  0.22402871814E+03  0.00000000000E+00 0. -1.
         -3    1    6    6    0  501  0.89589206372E+02 -0.18731048310E+02  0.48734626725E+03  0.49586637542E+03  0.00000000000E+00 0.  1.
          5    1    5    5  502    0 -0.31355798586E+01 -0.49089792341E+02  0.64135436887E+02  0.80963472244E+02  0.47000000000E+01 0. -1.
         13    1    4    4    0    0 -0.56363659582E+02  0.34587294145E+02  0.15546090209E+01  0.66148014687E+02  0.00000000000E+00 0. -1.
        -14    1    4    4    0    0 -0.14011959312E+03  0.65867834946E+02 -0.12673445396E+03  0.20008421696E+03  0.00000000000E+00 0.  1.
         -5    1    3    3    0  504  0.27582809800E+02  0.63076982861E+01 -0.25714260719E+02  0.38521573935E+02  0.47000000000E+01 0.  1.
<mgrwt>
<rscale>  2 0.26456596E+03</rscale>
<asrwt>0</asrwt>
<pdfrwt beam="1">  1       21 0.13160258E+00 0.26477509E+03</pdfrwt>
<pdfrwt beam="2">  1       21 0.38491629E-01 0.26477509E+03</pdfrwt>
<totfact> 0.25776724E+03</totfact>
</mgrwt>
</event>
<event>
12    1  0.2742799E-001  0.2622755E+03  0.7546771E-02  0.1106462E+00
         21   -1    0    0  502  503  0.00000000000E+00  0.00000000000E+00  0.19497055381E+03  0.19497055381E+03  0.00000000000E+00 0.  1.
         21   -1    0    0  503  504 -0.00000000000E+00 -0.00000000000E+00 -0.41492624132E+03  0.41492624132E+03  0.00000000000E+00 0.  1.
         -6    2    1    2    0  504  0.18276772978E+03 -0.73113715863E+02 -0.23438176615E+03  0.35174314533E+03  0.17331696250E+03 0.  0.
        -24    2    3    3    0    0  0.65265466508E+02 -0.44709253039E+02 -0.19417466818E+03  0.22425865173E+03  0.79559051581E+02 0.  0.
          6    2    1    2  502    0 -0.18276772978E+03  0.73113715863E+02  0.14426078639E+02  0.25815364980E+03  0.16638971322E+03 0.  0.
         24    2    5    5    0    0 -0.20460854603E+03  0.71965409319E+02 -0.98745415842E+00  0.23098736821E+03  0.79438730849E+02 0.  0.
          2    1    6    6  501    0 -0.14862138631E+03  0.61341282706E+02  0.33696795609E+02  0.16427581522E+03  0.00000000000E+00 0. -1.
         -1    1    6    6    0  501 -0.55987159724E+02  0.10624126613E+02 -0.34684249767E+02  0.66711552989E+02  0.00000000000E+00 0.  1.
          5    1    5    5  502    0  0.21840816250E+02  0.11483065436E+01  0.15413532798E+02  0.27166281595E+02  0.47000000000E+01 0. -1.
         13    1    4    4    0    0  0.35736006723E+02  0.20027324551E+02 -0.66953140763E+02  0.78491266796E+02  0.00000000000E+00 0. -1.
        -14    1    4    4    0    0  0.29529459785E+02 -0.64736577589E+02 -0.12722152741E+03  0.14576738493E+03  0.00000000000E+00 0.  1.
         -5    1    3    3    0  504  0.11750226327E+03 -0.28404462824E+02 -0.40207097970E+02  0.12748449360E+03  0.47000000000E+01 0.  1.
<mgrwt>
<rscale>  2 0.26113678E+03</rscale>
<asrwt>0</asrwt>
<pdfrwt beam="1">  1       21 0.29995470E-01 0.26227548E+03</pdfrwt>
<pdfrwt beam="2">  1       21 0.63834807E-01 0.26227548E+03</pdfrwt>
<totfact> 0.23309126E+04</totfact>
</mgrwt>
</event>
<event>
12    1  0.2742799E-001  0.2131124E+03  0.7546771E-02  0.1139159E+00
         21   -1    0    0  502  503  0.00000000000E+00  0.00000000000E+00  0.17328298293E+03  0.17328298293E+03  0.00000000000E+00 0.  1.
         21   -1    0    0  503  504 -0.00000000000E+00 -0.00000000000E+00 -0.27477512880E+03  0.27477512880E+03  0.00000000000E+00 0. -1.
         -6    2    1    2    0  504  0.73072785392E+02 -0.10072133459E+03 -0.22345750337E+01  0.21312415458E+03  0.17301009431E+03 0.  0.
        -24    2    3    3    0    0  0.10504649165E+03 -0.70938750973E+02  0.38923229939E+02  0.15291306682E+03  0.76159808149E+02 0.  0.
          6    2    1    2  502    0 -0.73072785392E+02  0.10072133459E+03 -0.99257570836E+02  0.23493395715E+03  0.17279317013E+03 0.  0.
         24    2    5    5    0    0 -0.63051743057E+02  0.47800742779E+02  0.98894454291E+01  0.11313013337E+03  0.80250810789E+02 0.  0.
          4    1    6    6  501    0 -0.39227951271E+02 -0.17024528892E+02 -0.30207055566E+01  0.42869469404E+02  0.00000000000E+00 0. -1.
         -3    1    6    6    0  501 -0.23823791787E+02  0.64825271671E+02  0.12910150986E+02  0.70260663965E+02  0.00000000000E+00 0.  1.
          5    1    5    5  502    0 -0.10021042334E+02  0.52920591814E+02 -0.10914701627E+03  0.12180382378E+03  0.47000000000E+01 0. -1.
         11    1    4    4    0    0  0.11451138482E+03 -0.66841001170E+02  0.23959378502E+02  0.13473911277E+03  0.00000000000E+00 0. -1.
        -12    1    4    4    0    0 -0.94648931670E+01 -0.40977498027E+01  0.14963851438E+02  0.18173954054E+02  0.00000000000E+00 0.  1.
         -5    1    3    3    0  504 -0.31973706261E+02 -0.29782583621E+02 -0.41157804973E+02  0.60211087761E+02  0.47000000000E+01 0.  1.
<mgrwt>
<rscale>  2 0.21306841E+03</rscale>
<asrwt>0</asrwt>
<pdfrwt beam="1">  1       21 0.26658921E-01 0.21311244E+03</pdfrwt>
<pdfrwt beam="2">  1       21 0.42273096E-01 0.21311244E+03</pdfrwt>
<totfact> 0.71474096E+04</totfact>
</mgrwt>
</event>
<event>
12    1  0.2742799E-001  0.2548058E+03  0.7546771E-02  0.1110430E+00
         21   -1    0    0  502  503  0.00000000000E+00  0.00000000000E+00  0.10308697608E+04  0.10308697608E+04  0.00000000000E+00 0. -1.
         21   -1    0    0  503  504 -0.00000000000E+00 -0.00000000000E+00 -0.77761780997E+02  0.77761780997E+02  0.00000000000E+00 0.  1.
         -6    2    1    2    0  504 -0.97127855690E+02  0.15893694021E+03  0.23264811629E+03  0.34444020961E+03  0.17268219558E+03 0.  0.
        -24    2    3    3    0    0 -0.71850157553E+02  0.14996992549E+03  0.25081734744E+03  0.31170520791E+03  0.81224203083E+02 0.  0.
          6    2    1    2  502    0  0.97127855690E+02 -0.15893694021E+03  0.72045986354E+03  0.76419133222E+03  0.17387123379E+03 0.  0.
         24    2    5    5    0    0  0.34488500392E+02 -0.11151654338E+02  0.31926351741E+03  0.33205156582E+03  0.83756986324E+02 0.  0.
          4    1    6    6  501    0 -0.18786099043E+02  0.19022635153E+02  0.14245774479E+03  0.14494477299E+03  0.00000000000E+00 0. -1.
         -3    1    6    6    0  501  0.53274599435E+02 -0.30174289491E+02  0.17680577262E+03  0.18710679283E+03  0.00000000000E+00 0.  1.
          5    1    5    5  502    0  0.62639355298E+02 -0.14778528587E+03  0.40119634613E+03  0.43213976640E+03  0.47000000000E+01 0. -1.
         13    1    4    4    0    0 -0.77380356110E+02  0.12808432512E+03  0.16404714048E+03  0.22204679270E+03  0.00000000000E+00 0. -1.
        -14    1    4    4    0    0  0.55301985574E+01  0.21885600379E+02  0.86770206965E+02  0.89658415204E+02  0.00000000000E+00 0.  1.
         -5    1    3    3    0  504 -0.25277698137E+02  0.89670147172E+01 -0.18169231150E+02  0.32735001705E+02  0.47000000000E+01 0.  1.
<mgrwt>
<rscale>  2 0.25460305E+03</rscale>
<asrwt>0</asrwt>
<pdfrwt beam="1">  1       21 0.15859534E+00 0.25480576E+03</pdfrwt>
<pdfrwt beam="2">  1       21 0.11963352E-01 0.25480576E+03</pdfrwt>
<totfact> 0.14607692E+04</totfact>
</mgrwt>
</event>
<event>
12    1  0.2742799E-001  0.1887223E+03  0.7546771E-02  0.1160018E+00
         21   -1    0    0  502  503  0.00000000000E+00  0.00000000000E+00  0.49067965395E+02  0.49067965395E+02  0.00000000000E+00 0.  1.
         21   -1    0    0  503  504 -0.00000000000E+00 -0.00000000000E+00 -0.73716564265E+03  0.73716564265E+03  0.00000000000E+00 0.  1.
         -6    2    1    2    0  504 -0.19103641374E+02 -0.73608924604E+02 -0.40395114821E+03  0.44512459699E+03  0.17081028602E+03 0.  0.
        -24    2    3    3    0    0  0.29118975626E+02 -0.58308629056E+01 -0.30255785821E+03  0.31389207170E+03  0.78134892365E+02 0.  0.
          6    2    1    2  502    0  0.19103641374E+02  0.73608924604E+02 -0.28414652904E+03  0.34110901105E+03  0.17272198632E+03 0.  0.
         24    2    5    5    0    0 -0.14735772023E+02 -0.97052371618E+01 -0.69198595770E+02  0.10806167795E+03  0.81102071360E+02 0.  0.
          4    1    6    6  501    0 -0.30985582412E+02 -0.24157860502E+02 -0.75763541166E+02  0.85345314525E+02  0.00000000000E+00 0. -1.
         -3    1    6    6    0  501  0.16249810390E+02  0.14452623340E+02  0.65649453959E+01  0.22716363423E+02  0.00000000000E+00 0.  1.
          5    1    5    5  502    0  0.33839413396E+02  0.83314161766E+02 -0.21494793327E+03  0.23304733310E+03  0.47000000000E+01 0. -1.
         11    1    4    4    0    0  0.37022935312E+02 -0.58998627684E+01 -0.57103252362E+02  0.68310230201E+02  0.00000000000E+00 0. -1.
        -12    1    4    4    0    0 -0.79039596862E+01  0.68999862836E-01 -0.24545460585E+03  0.24558184150E+03  0.00000000000E+00 0.  1.
         -5    1    3    3    0  504 -0.48222616999E+02 -0.67778061698E+02 -0.10139329000E+03  0.13123252530E+03  0.47000000000E+01 0.  1.
<mgrwt>
<rscale>  2 0.18828377E+03</rscale>
<asrwt>0</asrwt>
<pdfrwt beam="1">  1       21 0.75489180E-02 0.18872230E+03</pdfrwt>
<pdfrwt beam="2">  1       21 0.11341010E+00 0.18872230E+03</pdfrwt>
<totfact> 0.80644643E+04</totfact>
</mgrwt>
</event>
<event>
12    1  0.2742799E-001  0.1841758E+03  0.7546771E-02  0.1163855E+00
         21   -1    0    0  502  503  0.00000000000E+00  0.00000000000E+00  0.19874110849E+02  0.19874110849E+02  0.00000000000E+00 0. -1.
         21   -1    0    0  503  504 -0.00000000000E+00 -0.00000000000E+00 -0.17147743126E+04  0.17147743126E+04  0.00000000000E+00 0. -1.
         -6    2    1    2    0  504  0.47215078537E+02 -0.48497783361E+02 -0.91161067881E+03  0.93002942973E+03  0.17128751213E+03 0.  0.
        -24    2    3    3    0    0 -0.35622232633E+01 -0.43351188026E+02 -0.22941297511E+03  0.24590910496E+03  0.77129500311E+02 0.  0.
          6    2    1    2  502    0 -0.47215078537E+02  0.48497783361E+02 -0.78328952297E+03  0.80461899375E+03  0.17113722469E+03 0.  0.
         24    2    5    5    0    0  0.29362429187E+02  0.21991436027E+02 -0.24594039676E+03  0.26117361970E+03  0.79869927768E+02 0.  0.
          4    1    6    6  501    0  0.27163506175E+02  0.49895697144E+02 -0.12944727961E+03  0.14136489968E+03  0.00000000000E+00 0. -1.
         -3    1    6    6    0  501  0.21989230123E+01 -0.27904261116E+02 -0.11649311715E+03  0.11980872003E+03  0.00000000000E+00 0.  1.
          5    1    5    5  502    0 -0.76577507724E+02  0.26506347334E+02 -0.53734912621E+03  0.54344537405E+03  0.47000000000E+01 0. -1.
         11    1    4    4    0    0 -0.26411767327E+02 -0.54947687260E+02 -0.18306154770E+03  0.19294652118E+03  0.00000000000E+00 0. -1.
        -12    1    4    4    0    0  0.22849544064E+02  0.11596499235E+02 -0.46351427408E+02  0.52962583785E+02  0.00000000000E+00 0.  1.
         -5    1    3    3    0  504  0.50777301800E+02 -0.51465953356E+01 -0.68219770370E+03  0.68412032477E+03  0.47000000000E+01 0.  1.
<mgrwt>
<rscale>  2 0.18414081E+03</rscale>
<asrwt>0</asrwt>
<pdfrwt beam="1">  1       21 0.30575552E-02 0.18417576E+03</pdfrwt>
<pdfrwt beam="2">  1       21 0.26381146E+00 0.18417576E+03</pdfrwt>
<totfact> 0.34103369E+04</totfact>
</mgrwt>
</event>
<event>
12    1  0.2742799E-001  0.1832543E+03  0.7546771E-02  0.1168148E+00
         21   -1    0    0  502  503  0.00000000000E+00  0.00000000000E+00  0.70229158801E+02  0.70229158801E+02  0.00000000000E+00 0. -1.
         21   -1    0    0  503  504 -0.00000000000E+00 -0.00000000000E+00 -0.66991160318E+03  0.66991160318E+03  0.00000000000E+00 0. -1.
         -6    2    1    2    0  504 -0.52826962716E+02  0.29625328805E+02 -0.52331759932E+03  0.55447582403E+03  0.17295601053E+03 0.  0.
        -24    2    3    3    0    0 -0.69437753958E+02  0.58715991951E+02 -0.49759795736E+03  0.51198141204E+03  0.79070030462E+02 0.  0.
          6    2    1    2  502    0  0.52826962716E+02 -0.29625328805E+02 -0.76364845056E+02  0.18566493795E+03  0.15802383215E+03 0.  0.
         24    2    5    5    0    0  0.43259147109E+02 -0.58599654736E+02 -0.91341416819E+02  0.15135105795E+03  0.96221696999E+02 0.  0.
          2    1    6    6  501    0  0.73703004519E+02 -0.46971759211E+02 -0.59075456381E+02  0.10549117776E+03  0.00000000000E+00 0. -1.
         -1    1    6    6    0  501 -0.30443857411E+02 -0.11627895525E+02 -0.32265960438E+02  0.45859880194E+02  0.00000000000E+00 0.  1.
          5    1    5    5  502    0  0.95678156076E+01  0.28974325931E+02  0.14976571764E+02  0.34313879997E+02  0.47000000000E+01 0. -1.
         13    1    4    4    0    0 -0.85974552184E+02  0.38186694159E+02 -0.38134660507E+03  0.39277866596E+03  0.00000000000E+00 0. -1.
        -14    1    4    4    0    0  0.16536798226E+02  0.20529297792E+02 -0.11625135229E+03  0.11920274608E+03  0.00000000000E+00 0.  1.
         -5    1    3    3    0  504  0.16610791241E+02 -0.29090663146E+02 -0.25719641962E+02  0.42494411993E+02  0.47000000000E+01 0.  1.
<mgrwt>
<rscale>  2 0.17964370E+03</rscale>
<asrwt>0</asrwt>
<pdfrwt beam="1">  1       21 0.10804486E-01 0.18325428E+03</pdfrwt>
<pdfrwt beam="2">  1       21 0.10306332E+00 0.18325428E+03</pdfrwt>
<totfact> 0.54300753E+04</totfact>
</mgrwt>
</event>
<event>
12    1  0.2742799E-001  0.2126114E+03  0.7546771E-02  0.1139557E+00
         21   -1    0    0  502  503  0.00000000000E+00  0.00000000000E+00  0.85769867084E+03  0.85769867084E+03  0.00000000000E+00 0.  1.
         21   -1    0    0  503  504 -0.00000000000E+00 -0.00000000000E+00 -0.54414611333E+02  0.54414611333E+02  0.00000000000E+00 0.  1.
         -6    2    1    2    0  504  0.58005082128E+02  0.10912116111E+03  0.31929098596E+03  0.38348021290E+03  0.17273772782E+03 0.  0.
        -24    2    3    3    0    0 -0.29502470961E+01  0.62075412407E+02  0.73474887949E+02  0.12584384381E+03  0.81092867030E+02 0.  0.
          6    2    1    2  502    0 -0.58005082128E+02 -0.10912116111E+03  0.48399307355E+03  0.52863306928E+03  0.17300754127E+03 0.  0.
         24    2    5    5    0    0 -0.10148851816E+03 -0.61059181153E+02  0.33393504263E+03  0.36510855806E+03  0.88110745940E+02 0.  0.
          2    1    6    6  501    0 -0.74370397815E+02 -0.14477046202E+01  0.23475051351E+03  0.24625364061E+03  0.00000000000E+00 0. -1.
         -1    1    6    6    0  501 -0.27118120345E+02 -0.59611476532E+02  0.99184529124E+02  0.11885491745E+03  0.00000000000E+00 0.  1.
          5    1    5    5  502    0  0.43483436031E+02 -0.48061979961E+02  0.15005803092E+03  0.16352451122E+03  0.47000000000E+01 0. -1.
         11    1    4    4    0    0 -0.35110629383E+01  0.10364255374E+02  0.73317279182E+02  0.74129405630E+02  0.00000000000E+00 0. -1.
        -12    1    4    4    0    0  0.56081584221E+00  0.51711157033E+02  0.15760876730E+00  0.51714438184E+02  0.00000000000E+00 0.  1.
         -5    1    3    3    0  504  0.60955329224E+02  0.47045748706E+02  0.24581609801E+03  0.25763636908E+03  0.47000000000E+01 0.  1.
<mgrwt>
<rscale>  2 0.21255655E+03</rscale>
<asrwt>0</asrwt>
<pdfrwt beam="1">  1       21 0.13195363E+00 0.21261145E+03</pdfrwt>
<pdfrwt beam="2">  1       21 0.83714793E-02 0.21261145E+03</pdfrwt>
<totfact> 0.45651478E+04</totfact>
</mgrwt>
</event>
<event>
12    1  0.2742799E-001  0.1791561E+03  0.7546771E-02  0.1168718E+00
         21   -1    0    0  502  503  0.00000000000E+00  0.00000000000E+00  0.35859946173E+03  0.35859946173E+03  0.00000000000E+00 0.  1.
         21   -1    0    0  503  504 -0.00000000000E+00 -0.00000000000E+00 -0.90586617065E+02  0.90586617065E+02  0.00000000000E+00 0.  1.
         -6    2    1    2    0  504  0.37329230687E+02  0.26249241919E+02  0.16052456021E+03  0.24025869603E+03  0.17283984617E+03 0.  0.
        -24    2    3    3    0    0 -0.35813885053E+02  0.27178978430E+02  0.45563710551E+02  0.10391770167E+03  0.81862725154E+02 0.  0.
          6    2    1    2  502    0 -0.37329230687E+02 -0.26249241919E+02  0.10748828446E+03  0.20892738276E+03  0.17324671947E+03 0.  0.
         24    2    5    5    0    0 -0.27995402960E+01  0.29057332413E+02  0.34465047437E+01  0.86053876226E+02  0.80877841376E+02 0.  0.
          2    1    6    6  501    0  0.32127245445E+02  0.83400979629E+01 -0.20401016592E+02  0.38960474996E+02  0.00000000000E+00 0. -1.
         -1    1    6    6    0  501 -0.34926785741E+02  0.20717234450E+02  0.23847521336E+02  0.47093401230E+02  0.00000000000E+00 0.  1.
          5    1    5    5  502    0 -0.34529690391E+02 -0.55306574332E+02  0.10404177971E+03  0.12287350654E+03  0.47000000000E+01 0. -1.
         11    1    4    4    0    0 -0.36904058668E+02 -0.20143008902E+02  0.64944274992E+01  0.42542072615E+02  0.00000000000E+00 0. -1.
        -12    1    4    4    0    0  0.10901736148E+01  0.47321987332E+02  0.39069283052E+02  0.61375629054E+02  0.00000000000E+00 0.  1.
         -5    1    3    3    0  504  0.73143115740E+02 -0.92973651149E+00  0.11496084965E+03  0.13634099436E+03  0.47000000000E+01 0.  1.
<mgrwt>
<rscale>  2 0.17905770E+03</rscale>
<asrwt>0</asrwt>
<pdfrwt beam="1">  1       21 0.55169147E-01 0.17915613E+03</pdfrwt>
<pdfrwt beam="2">  1       21 0.13936403E-01 0.17915613E+03</pdfrwt>
<totfact> 0.13956845E+05</totfact>
</mgrwt>
</event>
<event>
12    1  0.2742799E-001  0.1842882E+03  0.7546771E-02  0.1164168E+00
         21   -1    0    0  502  503  0.00000000000E+00  0.00000000000E+00  0.25718520362E+03  0.25718520362E+03  0.00000000000E+00 0. -1.
         21   -1    0    0  503  504 -0.00000000000E+00 -0.00000000000E+00 -0.13101282170E+03  0.13101282170E+03  0.00000000000E+00 0.  1.
         -6    2    1    2    0  504 -0.53868000121E+02  0.35440258658E+02  0.73134323116E+02  0.19826945821E+03  0.17263943776E+03 0.  0.
        -24    2    3    3    0    0  0.29240655370E+01 -0.39350919691E+02  0.39850816343E+02  0.98525080404E+02  0.81006535944E+02 0.  0.
          6    2    1    2  502    0  0.53868000121E+02 -0.35440258658E+02  0.53038058801E+02  0.18992856712E+03  0.17059323420E+03 0.  0.
         24    2    5    5    0    0  0.40618766183E+02 -0.10481393468E+02  0.97578075282E+02  0.13697207347E+03  0.86487712185E+02 0.  0.
          2    1    6    6  501    0  0.56597158824E+02 -0.27471527475E+02  0.94386276178E+02  0.11343144335E+03  0.00000000000E+00 0. -1.
         -1    1    6    6    0  501 -0.15978392642E+02  0.16990134007E+02  0.31917991041E+01  0.23540630121E+02  0.00000000000E+00 0.  1.
          5    1    5    5  502    0  0.13249233938E+02 -0.24958865190E+02 -0.44540016481E+02  0.52956493649E+02  0.47000000000E+01 0. -1.
         13    1    4    4    0    0 -0.55281918078E+01 -0.88505886699E+01  0.60068984702E+02  0.60968653811E+02  0.00000000000E+00 0. -1.
        -14    1    4    4    0    0  0.84522573448E+01 -0.30500331021E+02 -0.20218168359E+02  0.37556426593E+02  0.00000000000E+00 0.  1.
         -5    1    3    3    0  504 -0.56792065658E+02  0.74791178350E+02  0.33283506773E+02  0.99744377805E+02  0.47000000000E+01 0.  1.
<mgrwt>
<rscale>  2 0.18380748E+03</rscale>
<asrwt>0</asrwt>
<pdfrwt beam="1">  1       21 0.39566954E-01 0.18428822E+03</pdfrwt>
<pdfrwt beam="2">  1       21 0.20155819E-01 0.18428822E+03</pdfrwt>
<totfact> 0.14047171E+05</totfact>
</mgrwt>
</event>
<event>
12    1  0.2742799E-001  0.1726924E+03  0.7546771E-02  0.1176054E+00
         21   -1    0    0  502  503  0.00000000000E+00  0.00000000000E+00  0.98916974287E+02  0.98916974287E+02  0.00000000000E+00 0.  1.
         21   -1    0    0  503  504 -0.00000000000E+00 -0.00000000000E+00 -0.32798612234E+03  0.32798612234E+03  0.00000000000E+00 0.  1.
         -6    2    1    2    0  504 -0.39706625275E+01  0.72076314048E+01 -0.45571980768E+02  0.17492317283E+03  0.16868193398E+03 0.  0.
        -24    2    3    3    0    0 -0.50039387519E+02  0.45314237758E+02 -0.44987027819E+02  0.11494923649E+03  0.81438159673E+02 0.  0.
          6    2    1    2  502    0  0.39706625275E+01 -0.72076314048E+01 -0.18349716728E+03  0.25197992379E+03  0.17249624774E+03 0.  0.
         24    2    5    5    0    0 -0.19100804708E+00 -0.20865147742E+02 -0.20746165521E+03  0.22369151740E+03  0.81007195348E+02 0.  0.
          2    1    6    6  501    0  0.22890147951E+02 -0.36702655466E+02 -0.62228970277E+02  0.75785806938E+02  0.00000000000E+00 0. -1.
         -1    1    6    6    0  501 -0.23081155999E+02  0.15837507725E+02 -0.14523268494E+03  0.14790571046E+03  0.00000000000E+00 0.  1.
          5    1    5    5  502    0  0.41616705746E+01  0.13657516337E+02  0.23964487932E+02  0.28288406394E+02  0.47000000000E+01 0. -1.
         11    1    4    4    0    0 -0.12798276114E+02  0.62293805489E+02 -0.35882174121E+02  0.73019480233E+02  0.00000000000E+00 0. -1.
        -12    1    4    4    0    0 -0.37241111405E+02 -0.16979567731E+02 -0.91048536985E+01  0.41929756258E+02  0.00000000000E+00 0.  1.
         -5    1    3    3    0  504  0.46068724992E+02 -0.38106606354E+02 -0.58495294834E+00  0.59973936340E+02  0.47000000000E+01 0.  1.
<mgrwt>
<rscale>  2 0.17173197E+03</rscale>
<asrwt>0</asrwt>
<pdfrwt beam="1">  1       21 0.15217996E-01 0.17269242E+03</pdfrwt>
<pdfrwt beam="2">  1       21 0.50459403E-01 0.17269242E+03</pdfrwt>
<totfact> 0.14380783E+05</totfact>
</mgrwt>
</event>
<event>
12    1  0.2742799E-001  0.1845841E+03  0.7546771E-02  0.1163523E+00
         21   -1    0    0  502  503  0.00000000000E+00  0.00000000000E+00  0.29111187839E+02  0.29111187839E+02  0.00000000000E+00 0. -1.
         21   -1    0    0  503  504 -0.00000000000E+00 -0.00000000000E+00 -0.14518148183E+04  0.14518148183E+04  0.00000000000E+00 0. -1.
         -6    2    1    2    0  504 -0.35092281833E+02  0.55602007116E+02 -0.38347825427E+03  0.42543528544E+03  0.17209462269E+03 0.  0.
        -24    2    3    3    0    0  0.11808335621E+02  0.60461158831E+02 -0.12464139354E+03  0.16229674827E+03  0.83724363220E+02 0.  0.
          6    2    1    2  502    0  0.35092281833E+02 -0.55602007116E+02 -0.10392253762E+04  0.10554907207E+04  0.17247674489E+03 0.  0.
         24    2    5    5    0    0  0.28089171048E+02 -0.70232822058E+02 -0.10309611154E+04  0.10366893294E+04  0.78245086188E+02 0.  0.
          4    1    6    6  501    0  0.36793096742E+02 -0.42695693549E+02 -0.92924702795E+03  0.93095472133E+03  0.00000000000E+00 0. -1.
         -3    1    6    6    0  501 -0.87039256933E+01 -0.27537128509E+02 -0.10171408744E+03  0.10573460811E+03  0.00000000000E+00 0.  1.
          5    1    5    5  502    0  0.70031107847E+01  0.14630814942E+02 -0.82642607963E+01  0.18801391253E+02  0.47000000000E+01 0. -1.
         13    1    4    4    0    0 -0.14264890143E+02 -0.13637886597E+02 -0.72024466563E+01  0.21008433532E+02  0.00000000000E+00 0. -1.
        -14    1    4    4    0    0  0.26073225765E+02  0.74099045428E+02 -0.11743894689E+03  0.14128831474E+03  0.00000000000E+00 0.  1.
         -5    1    3    3    0  504 -0.46900617454E+02 -0.48591517156E+01 -0.25883686072E+03  0.26313853717E+03  0.47000000000E+01 0.  1.
<mgrwt>
<rscale>  2 0.18449475E+03</rscale>
<asrwt>0</asrwt>
<pdfrwt beam="1">  1       21 0.44786446E-02 0.18458407E+03</pdfrwt>
<pdfrwt beam="2">  1       21 0.22335611E+00 0.18458407E+03</pdfrwt>
<totfact> 0.31284943E+04</totfact>
</mgrwt>
</event>
<event>
12    1  0.2742799E-001  0.2216009E+03  0.7546771E-02  0.1133546E+00
         21   -1    0    0  502  503  0.00000000000E+00  0.00000000000E+00  0.78631748623E+03  0.78631748623E+03  0.00000000000E+00 0.  1.
         21   -1    0    0  503  504 -0.00000000000E+00 -0.00000000000E+00 -0.20863783705E+03  0.20863783705E+03  0.00000000000E+00 0.  1.
         -6    2    1    2    0  504 -0.10164264917E+03 -0.84204925606E+02 -0.12850781165E+03  0.25616642552E+03  0.17800360188E+03 0.  0.
        -24    2    3    3    0    0 -0.12290245645E+03 -0.67606575429E+02 -0.42563951547E+02  0.16596708116E+03  0.77831351095E+02 0.  0.
          6    2    1    2  502    0  0.10164264917E+03  0.84204925606E+02  0.70618746084E+03  0.73878889776E+03  0.17229802084E+03 0.  0.
         24    2    5    5    0    0  0.12282156681E+03  0.10795323813E+03  0.64335308130E+03  0.66820010154E+03  0.76479733129E+02 0.  0.
          4    1    6    6  501    0  0.67794526264E+02  0.96913581303E+02  0.34763952594E+03  0.36720781586E+03  0.00000000000E+00 0. -1.
         -3    1    6    6    0  501  0.55027040546E+02  0.11039656831E+02  0.29571355537E+03  0.30099228568E+03  0.00000000000E+00 0.  1.
          5    1    5    5  502    0 -0.21178917641E+02 -0.23748312528E+02  0.62834379533E+02  0.70588796219E+02  0.47000000000E+01 0. -1.
         13    1    4    4    0    0 -0.35284597424E+02 -0.63106941595E+02 -0.24933274240E+02  0.76479782016E+02  0.00000000000E+00 0. -1.
        -14    1    4    4    0    0 -0.87617859027E+02 -0.44996338337E+01 -0.17630677306E+02  0.89487299140E+02  0.00000000000E+00 0.  1.
         -5    1    3    3    0  504  0.21259807281E+02 -0.16598350177E+02 -0.85943860103E+02  0.90199344363E+02  0.47000000000E+01 0.  1.
<mgrwt>
<rscale>  2 0.22045294E+03</rscale>
<asrwt>0</asrwt>
<pdfrwt beam="1">  1       21 0.12097192E+00 0.22160095E+03</pdfrwt>
<pdfrwt beam="2">  1       21 0.32098129E-01 0.22160095E+03</pdfrwt>
<totfact> 0.47242081E+03</totfact>
</mgrwt>
</event>
<event>
12    1  0.2742799E-001  0.2089298E+03  0.7546771E-02  0.1142488E+00
         21   -1    0    0  502  503  0.00000000000E+00  0.00000000000E+00  0.88903638854E+02  0.88903638854E+02  0.00000000000E+00 0.  1.
         21   -1    0    0  503  504 -0.00000000000E+00 -0.00000000000E+00 -0.51106877365E+03  0.51106877365E+03  0.00000000000E+00 0.  1.
         -6    2    1    2    0  504  0.11664743991E+03 -0.64992521403E+01 -0.15022586207E+03  0.25704003972E+03  0.17277993770E+03 0.  0.
        -24    2    3    3    0    0  0.48881360936E+02  0.56839650198E+02 -0.11282753697E+03  0.15691620276E+03  0.79199168603E+02 0.  0.
          6    2    1    2  502    0 -0.11664743991E+03  0.64992521403E+01 -0.27193927272E+03  0.34293237278E+03  0.17321310209E+03 0.  0.
         24    2    5    5    0    0 -0.63242483809E+01  0.25326293828E+02 -0.17936954136E+03  0.19761578993E+03  0.78721984127E+02 0.  0.
          4    1    6    6  501    0  0.19785533505E+02 -0.17164414568E+02 -0.28458978364E+02  0.38678132233E+02  0.00000000000E+00 0. -1.
         -3    1    6    6    0  501 -0.26109781886E+02  0.42490708395E+02 -0.15091056299E+03  0.15893765769E+03  0.00000000000E+00 0.  1.
          5    1    5    5  502    0 -0.11032319152E+03 -0.18827041687E+02 -0.92569731363E+02  0.14531658285E+03  0.47000000000E+01 0. -1.
         11    1    4    4    0    0  0.21299398437E+02 -0.17696301619E+02 -0.17302360673E+02  0.32652643838E+02  0.00000000000E+00 0. -1.
        -12    1    4    4    0    0  0.27581962500E+02  0.74535951817E+02 -0.95525176298E+02  0.12426355892E+03  0.00000000000E+00 0.  1.
         -5    1    3    3    0  504  0.67766078969E+02 -0.63338902338E+02 -0.37398325100E+02  0.10012383696E+03  0.47000000000E+01 0.  1.
<mgrwt>
<rscale>  2 0.20883996E+03</rscale>
<asrwt>0</asrwt>
<pdfrwt beam="1">  1       21 0.13677483E-01 0.20892976E+03</pdfrwt>
<pdfrwt beam="2">  1       21 0.78625964E-01 0.20892976E+03</pdfrwt>
<totfact> 0.65832775E+04</totfact>
</mgrwt>
</event>
<event>
12    1  0.2742799E-001  0.1891676E+03  0.7546771E-02  0.1159546E+00
         21   -1    0    0  502  503  0.00000000000E+00  0.00000000000E+00  0.16284051940E+03  0.16284051940E+03  0.00000000000E+00 0.  1.
         21   -1    0    0  503  504 -0.00000000000E+00 -0.00000000000E+00 -0.37429351688E+03  0.37429351688E+03  0.00000000000E+00 0.  1.
         -6    2    1    2    0  504  0.64344425713E+02 -0.39611990339E+02 -0.27947728237E+03  0.33747879519E+03  0.17342165650E+03 0.  0.
        -24    2    3    3    0    0  0.76820169828E+02  0.43697690718E+01 -0.26760740908E+03  0.29001277319E+03  0.81075581084E+02 0.  0.
          6    2    1    2  502    0 -0.64344425713E+02  0.39611990339E+02  0.68024284894E+02  0.19965524109E+03  0.17183014014E+03 0.  0.
         24    2    5    5    0    0 -0.24285433022E+01  0.67448367913E+02  0.76840449023E+02  0.13103851455E+03  0.81923485838E+02 0.  0.
          4    1    6    6  501    0  0.23645561012E+02 -0.13772550609E+01  0.44988571486E+02  0.50842707947E+02  0.00000000000E+00 0. -1.
         -3    1    6    6    0  501 -0.26074104314E+02  0.68825622973E+02  0.31851877537E+02  0.80195806599E+02  0.00000000000E+00 0.  1.
          5    1    5    5  502    0 -0.61915882411E+02 -0.27836377574E+02 -0.88161641289E+01  0.68616726540E+02  0.47000000000E+01 0. -1.
         13    1    4    4    0    0  0.29226603932E+01  0.10813067019E+02  0.10998020798E+01  0.11254951210E+02  0.00000000000E+00 0. -1.
        -14    1    4    4    0    0  0.73897509435E+02 -0.64432979467E+01 -0.26870721116E+03  0.27875782198E+03  0.00000000000E+00 0.  1.
         -5    1    3    3    0  504 -0.12475744115E+02 -0.43981759411E+02 -0.11869873292E+02  0.47466021995E+02  0.47000000000E+01 0.  1.
<mgrwt>
<rscale>  2 0.18880206E+03</rscale>
<asrwt>0</asrwt>
<pdfrwt beam="1">  1       21 0.25052388E-01 0.18916761E+03</pdfrwt>
<pdfrwt beam="2">  1       21 0.57583617E-01 0.18916761E+03</pdfrwt>
<totfact> 0.42760179E+04</totfact>
</mgrwt>
</event>
<event>
12    1  0.2742799E-001  0.2053630E+03  0.7546771E-02  0.1145576E+00
         21   -1    0    0  502  503  0.00000000000E+00  0.00000000000E+00  0.56585888605E+02  0.56585888605E+02  0.00000000000E+00 0.  1.
         21   -1    0    0  503  504 -0.00000000000E+00 -0.00000000000E+00 -0.80034461107E+03  0.80034461107E+03  0.00000000000E+00 0. -1.
         -6    2    1    2    0  504  0.21519523670E+02 -0.10605102569E+03 -0.49044494524E+03  0.53170500833E+03  0.17453957036E+03 0.  0.
        -24    2    3    3    0    0 -0.20615279016E+02 -0.94948525279E+02 -0.46420954604E+03  0.48062670291E+03  0.77918628962E+02 0.  0.
          6    2    1    2  502    0 -0.21519523670E+02  0.10605102569E+03 -0.25331377723E+03  0.32522549135E+03  0.17289835321E+03 0.  0.
         24    2    5    5    0    0 -0.51985295049E+02  0.50802492448E+02 -0.64934278707E+02  0.12650586697E+03  0.80646820681E+02 0.  0.
          2    1    6    6  501    0 -0.31846846231E+02  0.16397730726E+02 -0.76941868739E+02  0.84871422474E+02  0.00000000000E+00 0. -1.
         -1    1    6    6    0  501 -0.20138448818E+02  0.34404761723E+02  0.12007590031E+02  0.41634444494E+02  0.00000000000E+00 0.  1.
          5    1    5    5  502    0  0.30465771379E+02  0.55248533239E+02 -0.18837949853E+03  0.19871962439E+03  0.47000000000E+01 0. -1.
         13    1    4    4    0    0 -0.24083720549E+02 -0.71986686284E+02 -0.17843506068E+03  0.19391023561E+03  0.00000000000E+00 0. -1.
        -14    1    4    4    0    0  0.34684415324E+01 -0.22961838995E+02 -0.28577448536E+03  0.28671646730E+03  0.00000000000E+00 0.  1.
         -5    1    3    3    0  504  0.42134802686E+02 -0.11102500408E+02 -0.26235399198E+02  0.51078305412E+02  0.47000000000E+01 0.  1.
<mgrwt>
<rscale>  2 0.20501387E+03</rscale>
<asrwt>0</asrwt>
<pdfrwt beam="1">  1       21 0.87055219E-02 0.20536302E+03</pdfrwt>
<pdfrwt beam="2">  1       21 0.12312993E+00 0.20536302E+03</pdfrwt>
<totfact> 0.50944326E+04</totfact>
</mgrwt>
</event>
<event>
12    1  0.2742799E-001  0.1853443E+03  0.7546771E-02  0.1162891E+00
         21   -1    0    0  502  503  0.00000000000E+00  0.00000000000E+00  0.48318919908E+03  0.48318919908E+03  0.00000000000E+00 0. -1.
         21   -1    0    0  503  504 -0.00000000000E+00 -0.00000000000E+00 -0.25426835680E+03  0.25426835680E+03  0.00000000000E+00 0. -1.
         -6    2    1    2    0  504 -0.88337259802E+00  0.67203775598E+02 -0.19878841579E+03  0.27131625036E+03  0.17198414362E+03 0.  0.
        -24    2    3    3    0    0  0.91748490293E+01  0.10920788358E+03 -0.12028573917E+03  0.18159293597E+03  0.80602702541E+02 0.  0.
          6    2    1    2  502    0  0.88337259802E+00 -0.67203775598E+02  0.42770925806E+03  0.46614130552E+03  0.17272920851E+03 0.  0.
         24    2    5    5    0    0  0.51742619949E+02  0.48856435582E+01  0.14808077586E+03  0.17288761764E+03  0.72533053988E+02 0.  0.
          2    1    6    6  501    0  0.57150634358E+02 -0.22422983530E+02  0.10170897294E+03  0.11880109584E+03  0.00000000000E+00 0. -1.
         -1    1    6    6    0  501 -0.54080144090E+01  0.27308627089E+02  0.46371802925E+02  0.54086521795E+02  0.00000000000E+00 0.  1.
          5    1    5    5  502    0 -0.50859247351E+02 -0.72089419157E+02  0.27962848220E+03  0.29325368788E+03  0.47000000000E+01 0. -1.
         13    1    4    4    0    0 -0.30404381996E+02  0.18174474176E+02 -0.43483593218E+02  0.56085299636E+02  0.00000000000E+00 0. -1.
        -14    1    4    4    0    0  0.39579231025E+02  0.91033409400E+02 -0.76802145952E+02  0.12550763634E+03  0.00000000000E+00 0.  1.
         -5    1    3    3    0  504 -0.10058221627E+02 -0.42004107978E+02 -0.78502676616E+02  0.89723314390E+02  0.47000000000E+01 0.  1.
<mgrwt>
<rscale>  2 0.18517051E+03</rscale>
<asrwt>0</asrwt>
<pdfrwt beam="1">  1       21 0.74336800E-01 0.18534429E+03</pdfrwt>
<pdfrwt beam="2">  1       21 0.39118209E-01 0.18534429E+03</pdfrwt>
<totfact> 0.10269308E+04</totfact>
</mgrwt>
</event>
<event>
12    1  0.2742799E-001  0.1902496E+03  0.7546771E-02  0.1158538E+00
         21   -1    0    0  502  503  0.00000000000E+00  0.00000000000E+00  0.12645338174E+04  0.12645338174E+04  0.00000000000E+00 0.  1.
         21   -1    0    0  503  504 -0.00000000000E+00 -0.00000000000E+00 -0.56739805219E+02  0.56739805219E+02  0.00000000000E+00 0.  1.
         -6    2    1    2    0  504  0.52775992267E+02  0.53617447024E+02  0.13825753514E+03  0.23518092242E+03  0.17474205065E+03 0.  0.
        -24    2    3    3    0    0  0.34396617262E+01  0.40639818346E+02  0.15690801165E+03  0.18066099367E+03  0.79717277958E+02 0.  0.
          6    2    1    2  502    0 -0.52775992267E+02 -0.53617447024E+02  0.10695364770E+04  0.10860927002E+04  0.17328860812E+03 0.  0.
         24    2    5    5    0    0  0.16146849519E+02  0.27707427364E+01  0.28412078403E+03  0.29563088145E+03  0.80028747231E+02 0.  0.
          2    1    6    6  501    0 -0.25352702208E+02  0.57441642262E+01  0.20104746494E+03  0.20272108448E+03  0.00000000000E+00 0. -1.
         -1    1    6    6    0  501  0.41499551727E+02 -0.29734214898E+01  0.83073319084E+02  0.92909796968E+02  0.00000000000E+00 0.  1.
          5    1    5    5  502    0 -0.68922841786E+02 -0.56388189760E+02  0.78541569299E+03  0.79046181873E+03  0.47000000000E+01 0. -1.
         11    1    4    4    0    0  0.35709403542E+02  0.56765729864E+01  0.10083743777E+03  0.10712410484E+03  0.00000000000E+00 0. -1.
        -12    1    4    4    0    0 -0.32269741816E+02  0.34963245360E+02  0.56070573883E+02  0.73536888828E+02  0.00000000000E+00 0.  1.
         -5    1    3    3    0  504  0.49336330541E+02  0.12977628678E+02 -0.18650476513E+02  0.54519928756E+02  0.47000000000E+01 0.  1.
<mgrwt>
<rscale>  2 0.18991522E+03</rscale>
<asrwt>0</asrwt>
<pdfrwt beam="1">  1       21 0.19454364E+00 0.19024963E+03</pdfrwt>
<pdfrwt beam="2">  1       21 0.87292017E-02 0.19024963E+03</pdfrwt>
<totfact> 0.15036710E+04</totfact>
</mgrwt>
</event>
<event>
12    1  0.2742799E-001  0.2065409E+03  0.7546771E-02  0.1144655E+00
         21   -1    0    0  502  503  0.00000000000E+00  0.00000000000E+00  0.58773268571E+03  0.58773268571E+03  0.00000000000E+00 0.  1.
         21   -1    0    0  503  504 -0.00000000000E+00 -0.00000000000E+00 -0.75767532062E+02  0.75767532062E+02  0.00000000000E+00 0. -1.
         -6    2    1    2    0  504 -0.83667504472E+02  0.73800594012E+02  0.18323007135E+03  0.27610214835E+03  0.17381702534E+03 0.  0.
        -24    2    3    3    0    0 -0.56715492748E+02  0.11638237719E+03  0.16135422293E+03  0.22096357802E+03  0.77641565658E+02 0.  0.
          6    2    1    2  502    0  0.83667504472E+02 -0.73800594012E+02  0.32873508230E+03  0.38739806942E+03  0.17194106803E+03 0.  0.
         24    2    5    5    0    0 -0.92412023569E+01 -0.32914448598E+02  0.84086602463E+02  0.12248549256E+03  0.82239761835E+02 0.  0.
          2    1    6    6  501    0  0.12363160465E+02 -0.24844891328E+02 -0.69212196215E+01  0.28601042688E+02  0.00000000000E+00 0. -1.
         -1    1    6    6    0  501 -0.21604362822E+02 -0.80695572699E+01  0.91007822084E+02  0.93884449873E+02  0.00000000000E+00 0.  1.
          5    1    5    5  502    0  0.92908706829E+02 -0.40886145414E+02  0.24464847983E+03  0.26491257685E+03  0.47000000000E+01 0. -1.
         13    1    4    4    0    0 -0.56901024307E+02  0.65685308650E+02  0.54197250725E+02  0.10241888657E+03  0.00000000000E+00 0. -1.
        -14    1    4    4    0    0  0.18553155841E+00  0.50697068536E+02  0.10715697220E+03  0.11854469145E+03  0.00000000000E+00 0.  1.
         -5    1    3    3    0  504 -0.26952011724E+02 -0.42581783174E+02  0.21875848422E+02  0.55138570334E+02  0.47000000000E+01 0.  1.
<mgrwt>
<rscale>  2 0.20614569E+03</rscale>
<asrwt>0</asrwt>
<pdfrwt beam="1">  1       21 0.90420410E-01 0.20654089E+03</pdfrwt>
<pdfrwt beam="2">  1       21 0.11656544E-01 0.20654089E+03</pdfrwt>
<totfact> 0.63814313E+04</totfact>
</mgrwt>
</event>
<event>
12    1  0.2742799E-001  0.2094148E+03  0.7546771E-02  0.1142465E+00
         21   -1    0    0  502  503  0.00000000000E+00  0.00000000000E+00  0.76132502281E+03  0.76132502281E+03  0.00000000000E+00 0. -1.
         21   -1    0    0  503  504 -0.00000000000E+00 -0.00000000000E+00 -0.12049942651E+03  0.12049942651E+03  0.00000000000E+00 0.  1.
         -6    2    1    2    0  504 -0.26406284968E+02  0.11405010153E+03 -0.43119728643E+00  0.20723950868E+03  0.17100675567E+03 0.  0.
        -24    2    3    3    0    0 -0.39538626836E+01  0.14681060847E+03 -0.14088322135E+01  0.16723441087E+03  0.79977344182E+02 0.  0.
          6    2    1    2  502    0  0.26406284968E+02 -0.11405010153E+03  0.64125679359E+03  0.67458494063E+03  0.17363711946E+03 0.  0.
         24    2    5    5    0    0  0.38432373351E+02 -0.10156486149E+03  0.25468743021E+03  0.28759854458E+03  0.77812385449E+02 0.  0.
          4    1    6    6  501    0  0.29075465114E+02 -0.11274137228E+03  0.20432898911E+03  0.23517299056E+03  0.00000000000E+00 0. -1.
         -3    1    6    6    0  501  0.93569082365E+01  0.11176510794E+02  0.50358441097E+02  0.52425554027E+02  0.00000000000E+00 0.  1.
          5    1    5    5  502    0 -0.12026088382E+02 -0.12485240041E+02  0.38656936338E+03  0.38698639605E+03  0.47000000000E+01 0. -1.
         13    1    4    4    0    0  0.89054154841E+01  0.59767335055E+02  0.37403259361E+02  0.71066479970E+02  0.00000000000E+00 0. -1.
        -14    1    4    4    0    0 -0.12859278168E+02  0.87043273411E+02 -0.38812091574E+02  0.96167930900E+02  0.00000000000E+00 0.  1.
         -5    1    3    3    0  504 -0.22452422285E+02 -0.32760506935E+02  0.97763492707E+00  0.40005097815E+02  0.47000000000E+01 0.  1.
<mgrwt>
<rscale>  2 0.20886875E+03</rscale>
<asrwt>0</asrwt>
<pdfrwt beam="1">  1       21 0.11712692E+00 0.20941482E+03</pdfrwt>
<pdfrwt beam="2">  1       21 0.18538374E-01 0.20941482E+03</pdfrwt>
<totfact> 0.14738416E+04</totfact>
</mgrwt>
</event>
<event>
12    1  0.2742799E-001  0.1899587E+03  0.7546771E-02  0.1159003E+00
         21   -1    0    0  502  503  0.00000000000E+00  0.00000000000E+00  0.18956499256E+04  0.18956499256E+04  0.00000000000E+00 0.  1.
         21   -1    0    0  503  504 -0.00000000000E+00 -0.00000000000E+00 -0.22327484186E+02  0.22327484186E+02  0.00000000000E+00 0.  1.
         -6    2    1    2    0  504 -0.77916550166E+02 -0.13060905371E+02  0.55155371960E+03  0.58262844561E+03  0.17030215499E+03 0.  0.
        -24    2    3    3    0    0 -0.38958288620E+02  0.53444152863E+02  0.37911343053E+03  0.39368821112E+03  0.83002341191E+02 0.  0.
          6    2    1    2  502    0  0.77916550166E+02  0.13060905371E+02  0.13217687218E+04  0.13353489642E+04  0.17275047356E+03 0.  0.
         24    2    5    5    0    0  0.68277498038E+02 -0.14240412765E+02  0.12797181759E+04  0.12840789758E+04  0.79470750810E+02 0.  0.
          4    1    6    6  501    0  0.18026131518E+02  0.17488075132E+02  0.10911161452E+03  0.11196480971E+03  0.00000000000E+00 0. -1.
         -3    1    6    6    0  501  0.50251366520E+02 -0.31728487897E+02  0.11706065614E+04  0.11721141661E+04  0.00000000000E+00 0.  1.
          5    1    5    5  502    0  0.96390521275E+01  0.27301318136E+02  0.42050545930E+02  0.51269988403E+02  0.47000000000E+01 0. -1.
         13    1    4    4    0    0 -0.54704052686E+01  0.25060277017E+02  0.31466936353E+03  0.31571308361E+03  0.00000000000E+00 0. -1.
        -14    1    4    4    0    0 -0.33487883351E+02  0.28383875846E+02  0.64444066992E+02  0.77975127508E+02  0.00000000000E+00 0.  1.
         -5    1    3    3    0  504 -0.38958261546E+02 -0.66505058234E+02  0.17244028907E+03  0.18894023449E+03  0.47000000000E+01 0.  1.
<mgrwt>
<rscale>  2 0.18940029E+03</rscale>
<asrwt>0</asrwt>
<pdfrwt beam="1">  1       21 0.29163832E+00 0.18995869E+03</pdfrwt>
<pdfrwt beam="2">  1       21 0.34349991E-02 0.18995869E+03</pdfrwt>
<totfact> 0.19323641E+04</totfact>
</mgrwt>
</event>
<event>
12    1  0.2742799E-001  0.1788641E+03  0.7546771E-02  0.1169050E+00
         21   -1    0    0  502  503  0.00000000000E+00  0.00000000000E+00  0.79355048798E+03  0.79355048798E+03  0.00000000000E+00 0. -1.
         21   -1    0    0  503  504 -0.00000000000E+00 -0.00000000000E+00 -0.45245264509E+02  0.45245264509E+02  0.00000000000E+00 0. -1.
         -6    2    1    2    0  504 -0.41412696350E+02  0.16804957223E+02  0.23333682835E+03  0.29364915526E+03  0.17258717483E+03 0.  0.
        -24    2    3    3    0    0 -0.75529446671E+02  0.14610716153E+02  0.78022667048E+02  0.13454747065E+03  0.78085305552E+02 0.  0.
          6    2    1    2  502    0  0.41412696350E+02 -0.16804957223E+02  0.51496839512E+03  0.54514659723E+03  0.17319049192E+03 0.  0.
         24    2    5    5    0    0 -0.34809859636E+02 -0.14043469664E+01  0.15829722613E+03  0.18006651063E+03  0.78436202953E+02 0.  0.
          2    1    6    6  501    0 -0.26260683017E+02 -0.35016723334E+02  0.50506037535E+02  0.66833032349E+02  0.00000000000E+00 0. -1.
         -1    1    6    6    0  501 -0.85491766198E+01  0.33612376368E+02  0.10779118859E+03  0.11323347828E+03  0.00000000000E+00 0.  1.
          5    1    5    5  502    0  0.76222555986E+02 -0.15400610257E+02  0.35667116899E+03  0.36508008660E+03  0.47000000000E+01 0. -1.
         11    1    4    4    0    0  0.16135772595E+02  0.61631976577E+01  0.88994239890E+01  0.19430592115E+02  0.00000000000E+00 0. -1.
        -12    1    4    4    0    0 -0.91665219266E+02  0.84475184949E+01  0.69123243059E+02  0.11511687853E+03  0.00000000000E+00 0.  1.
         -5    1    3    3    0  504  0.34116750321E+02  0.21942410703E+01  0.15531416131E+03  0.15910168462E+03  0.47000000000E+01 0.  1.
<mgrwt>
<rscale>  2 0.17871789E+03</rscale>
<asrwt>0</asrwt>
<pdfrwt beam="1">  1       21 0.12208468E+00 0.17886410E+03</pdfrwt>
<pdfrwt beam="2">  1       21 0.69608105E-02 0.17886410E+03</pdfrwt>
<totfact> 0.77782103E+04</totfact>
</mgrwt>
</event>
<event>
12    1  0.2742799E-001  0.1739187E+03  0.7546771E-02  0.1173835E+00
         21   -1    0    0  502  503  0.00000000000E+00  0.00000000000E+00  0.32351962549E+03  0.32351962549E+03  0.00000000000E+00 0. -1.
         21   -1    0    0  503  504 -0.00000000000E+00 -0.00000000000E+00 -0.96472343063E+02  0.96472343063E+02  0.00000000000E+00 0. -1.
         -6    2    1    2    0  504 -0.57764178709E+01 -0.18038623859E+02  0.15056945674E+03  0.23000098562E+03  0.17283093800E+03 0.  0.
        -24    2    3    3    0    0  0.29628043339E+02  0.19031169203E+01  0.16566519497E+03  0.18639914837E+03  0.80113936882E+02 0.  0.
          6    2    1    2  502    0  0.57764178709E+01  0.18038623859E+02  0.76477825687E+02  0.18999098293E+03  0.17288422952E+03 0.  0.
         24    2    5    5    0    0 -0.30674930025E+01  0.78989200938E+02  0.38626157821E+02  0.11754771985E+03  0.77953723421E+02 0.  0.
          4    1    6    6  501    0 -0.66375523296E+01  0.44317780190E+02 -0.20213030602E+02  0.49159834702E+02  0.00000000000E+00 0. -1.
         -3    1    6    6    0  501  0.35700593272E+01  0.34671420748E+02  0.58839188423E+02  0.68387885145E+02  0.00000000000E+00 0.  1.
          5    1    5    5  502    0  0.88439108734E+01 -0.60950577078E+02  0.37851667866E+02  0.72443263082E+02  0.47000000000E+01 0. -1.
         11    1    4    4    0    0  0.35723578776E+02 -0.26474813376E+02  0.14246069938E+03  0.14923853622E+03  0.00000000000E+00 0. -1.
        -12    1    4    4    0    0 -0.60955354371E+01  0.28377930296E+02  0.23204495590E+02  0.37160612155E+02  0.00000000000E+00 0.  1.
         -5    1    3    3    0  504 -0.35404461210E+02 -0.19941740780E+02 -0.15095738233E+02  0.43601837251E+02  0.47000000000E+01 0.  1.
<mgrwt>
<rscale>  2 0.17390546E+03</rscale>
<asrwt>0</asrwt>
<pdfrwt beam="1">  1       21 0.49772249E-01 0.17391870E+03</pdfrwt>
<pdfrwt beam="2">  1       21 0.14841899E-01 0.17391870E+03</pdfrwt>
<totfact> 0.15478444E+05</totfact>
</mgrwt>
</event>
<event>
12    1  0.2742799E-001  0.1763266E+03  0.7546771E-02  0.1172471E+00
         21   -1    0    0  502  503  0.00000000000E+00  0.00000000000E+00  0.43575229733E+03  0.43575229733E+03  0.00000000000E+00 0. -1.
         21   -1    0    0  503  504 -0.00000000000E+00 -0.00000000000E+00 -0.98647936312E+02  0.98647936312E+02  0.00000000000E+00 0. -1.
         -6    2    1    2    0  504 -0.22768194817E+02 -0.29849614761E+01  0.22243294494E+02  0.17352830558E+03  0.17055793150E+03 0.  0.
        -24    2    3    3    0    0  0.15802236387E+02 -0.63590218930E+02  0.15367881074E+02  0.10120931289E+03  0.75589196509E+02 0.  0.
          6    2    1    2  502    0  0.22768194817E+02  0.29849614761E+01  0.31486106652E+03  0.36087192806E+03  0.17482493117E+03 0.  0.
         24    2    5    5    0    0  0.19918338134E+02  0.67872358136E+02  0.23614347309E+03  0.25871006901E+03  0.78509634638E+02 0.  0.
          4    1    6    6  501    0  0.67494595928E+01  0.81474275398E+02  0.15336552200E+03  0.17379469524E+03  0.00000000000E+00 0. -1.
         -3    1    6    6    0  501  0.13168878542E+02 -0.13601917261E+02  0.82777951091E+02  0.84915373767E+02  0.00000000000E+00 0.  1.
          5    1    5    5  502    0  0.28498566821E+01 -0.64887396660E+02  0.78717593433E+02  0.10216185905E+03  0.47000000000E+01 0. -1.
         13    1    4    4    0    0  0.22055044927E+02 -0.63202642758E+02 -0.16325851117E+02  0.68902340113E+02  0.00000000000E+00 0. -1.
        -14    1    4    4    0    0 -0.62528085402E+01 -0.38757617203E+00  0.31693732191E+02  0.32306972779E+02  0.00000000000E+00 0.  1.
         -5    1    3    3    0  504 -0.38570431203E+02  0.60605257454E+02  0.68754134200E+01  0.72318992692E+02  0.47000000000E+01 0.  1.
<mgrwt>
<rscale>  2 0.17525948E+03</rscale>
<asrwt>0</asrwt>
<pdfrwt beam="1">  1       21 0.67038814E-01 0.17632656E+03</pdfrwt>
<pdfrwt beam="2">  1       21 0.15176606E-01 0.17632656E+03</pdfrwt>
<totfact> 0.78778017E+04</totfact>
</mgrwt>
</event>
<event>
12    1  0.2742799E-001  0.1830794E+03  0.7546771E-02  0.1165268E+00
         21   -1    0    0  502  503  0.00000000000E+00  0.00000000000E+00  0.59043729643E+03  0.59043729643E+03  0.00000000000E+00 0.  1.
         21   -1    0    0  503  504 -0.00000000000E+00 -0.00000000000E+00 -0.61931065059E+02  0.61931065059E+02  0.00000000000E+00 0.  1.
         -6    2    1    2    0  504  0.50770729869E+02  0.35291909199E+02  0.36206338702E+03  0.40493900664E+03  0.17047732112E+03 0.  0.
        -24    2    3    3    0    0  0.39408331514E+02  0.15287687222E+02  0.72629309951E+02  0.11455400710E+03  0.77851614656E+02 0.  0.
          6    2    1    2  502    0 -0.50770729869E+02 -0.35291909199E+02  0.16644284435E+03  0.24742935484E+03  0.17232202220E+03 0.  0.
         24    2    5    5    0    0 -0.97725035581E+02 -0.30348882580E+02  0.96100899223E+02  0.16258113989E+03  0.82012236662E+02 0.  0.
          2    1    6    6  501    0 -0.26148160549E+02  0.19801032827E+02  0.59270196300E+02  0.67740411650E+02  0.00000000000E+00 0. -1.
         -1    1    6    6    0  501 -0.71576875032E+02 -0.50149915407E+02  0.36830702923E+02  0.94840728236E+02  0.00000000000E+00 0.  1.
          5    1    5    5  502    0  0.46954305712E+02 -0.49430266194E+01  0.70341945124E+02  0.84848214954E+02  0.47000000000E+01 0. -1.
         11    1    4    4    0    0 -0.10228167203E+02 -0.22291762510E+02  0.10760280600E+02  0.26782862407E+02  0.00000000000E+00 0. -1.
        -12    1    4    4    0    0  0.49636498718E+02  0.37579449732E+02  0.61869029351E+02  0.87771144689E+02  0.00000000000E+00 0.  1.
         -5    1    3    3    0  504  0.11362398354E+02  0.20004221977E+02  0.28943407707E+03  0.29038499955E+03  0.47000000000E+01 0.  1.
<mgrwt>
<rscale>  2 0.18264404E+03</rscale>
<asrwt>0</asrwt>
<pdfrwt beam="1">  1       21 0.90836503E-01 0.18307940E+03</pdfrwt>
<pdfrwt beam="2">  1       21 0.95278566E-02 0.18307940E+03</pdfrwt>
<totfact> 0.91232146E+04</totfact>
</mgrwt>
</event>
<event>
12    1  0.2742799E-001  0.2433458E+03  0.7546771E-02  0.1117882E+00
         21   -1    0    0  502  503  0.00000000000E+00  0.00000000000E+00  0.34240634506E+03  0.34240634506E+03  0.00000000000E+00 0.  1.
         21   -1    0    0  503  504 -0.00000000000E+00 -0.00000000000E+00 -0.18746629282E+03  0.18746629282E+03  0.00000000000E+00 0. -1.
         -6    2    1    2    0  504 -0.16150046851E+03 -0.58149058699E+02  0.26192370305E+00  0.24152821698E+03  0.16991791147E+03 0.  0.
        -24    2    3    3    0    0 -0.66705775325E+02 -0.91430512362E+02  0.17358965989E+02  0.13950818038E+03  0.79699433117E+02 0.  0.
          6    2    1    2  502    0  0.16150046851E+03  0.58149058699E+02  0.15467812854E+03  0.28834442090E+03  0.17249193390E+03 0.  0.
         24    2    5    5    0    0  0.12833942159E+03 -0.10425976844E+02  0.14822984004E+03  0.21175551206E+03  0.79300714264E+02 0.  0.
          2    1    6    6  501    0 -0.92852328874E+01  0.54304734101E+01  0.32696728523E+01  0.11242613210E+02  0.00000000000E+00 0. -1.
         -1    1    6    6    0  501  0.13762465447E+03 -0.15856450254E+02  0.14496016719E+03  0.20051289885E+03  0.00000000000E+00 0.  1.
          5    1    5    5  502    0  0.33161046923E+02  0.68575035543E+02  0.64482884972E+01  0.76588908840E+02  0.47000000000E+01 0. -1.
         13    1    4    4    0    0 -0.39233816876E+02 -0.56589671357E+02 -0.29556696123E+02  0.74935182502E+02  0.00000000000E+00 0. -1.
        -14    1    4    4    0    0 -0.27471958450E+02 -0.34840841005E+02  0.46915662112E+02  0.64572997874E+02  0.00000000000E+00 0.  1.
         -5    1    3    3    0  504 -0.94794693183E+02  0.33281453663E+02 -0.17097042286E+02  0.10202003660E+03  0.47000000000E+01 0.  1.
<mgrwt>
<rscale>  2 0.24289010E+03</rscale>
<asrwt>0</asrwt>
<pdfrwt beam="1">  1       21 0.52677899E-01 0.24334581E+03</pdfrwt>
<pdfrwt beam="2">  1       21 0.28840968E-01 0.24334581E+03</pdfrwt>
<totfact> 0.38355892E+04</totfact>
</mgrwt>
</event>
<event>
12    1  0.2742799E-001  0.2961301E+03  0.7546771E-02  0.1087218E+00
         21   -1    0    0  502  503  0.00000000000E+00  0.00000000000E+00  0.27460274519E+03  0.27460274519E+03  0.00000000000E+00 0.  1.
         21   -1    0    0  503  504 -0.00000000000E+00 -0.00000000000E+00 -0.59075962483E+03  0.59075962483E+03  0.00000000000E+00 0.  1.
         -6    2    1    2    0  504 -0.19644803739E+03 -0.14003026338E+03 -0.45150835763E+03  0.53995632240E+03  0.17173446664E+03 0.  0.
        -24    2    3    3    0    0 -0.82937995409E+02 -0.14069760422E+03 -0.26573600529E+03  0.32219858575E+03  0.80757521255E+02 0.  0.
          6    2    1    2  502    0  0.19644803739E+03  0.14003026338E+03  0.13535147800E+03  0.32540604762E+03  0.17137318104E+03 0.  0.
         24    2    5    5    0    0  0.12648600097E+03  0.12092862094E+03  0.15871022791E+03  0.24906942155E+03  0.78893602438E+02 0.  0.
          2    1    6    6  501    0  0.68744167454E+02  0.50130211525E+02  0.27948444682E+02  0.89553973818E+02  0.00000000000E+00 0. -1.
         -1    1    6    6    0  501  0.57741833520E+02  0.70798409412E+02  0.13076178322E+03  0.15951544773E+03  0.00000000000E+00 0.  1.
          5    1    5    5  502    0  0.69962036411E+02  0.19101642444E+02 -0.23358749908E+02  0.76336626073E+02  0.47000000000E+01 0. -1.
         11    1    4    4    0    0 -0.72340370595E+02 -0.12900306991E+03 -0.17070174274E+03  0.22586280402E+03  0.00000000000E+00 0. -1.
        -12    1    4    4    0    0 -0.10597624815E+02 -0.11694534310E+02 -0.95034262552E+02  0.96335781738E+02  0.00000000000E+00 0.  1.
         -5    1    3    3    0  504 -0.11351004198E+03  0.66734084276E+00 -0.18577235234E+03  0.21775773664E+03  0.47000000000E+01 0.  1.
<mgrwt>
<rscale>  2 0.29607774E+03</rscale>
<asrwt>0</asrwt>
<pdfrwt beam="1">  1       21 0.42246576E-01 0.29613009E+03</pdfrwt>
<pdfrwt beam="2">  1       21 0.90886096E-01 0.29613009E+03</pdfrwt>
<totfact> 0.51822740E+03</totfact>
</mgrwt>
</event>
<event>
12    1  0.2742799E-001  0.1845944E+03  0.7546771E-02  0.1163943E+00
         21   -1    0    0  502  503  0.00000000000E+00  0.00000000000E+00  0.19351361444E+03  0.19351361444E+03  0.00000000000E+00 0. -1.
         21   -1    0    0  503  504 -0.00000000000E+00 -0.00000000000E+00 -0.22302521488E+03  0.22302521488E+03  0.00000000000E+00 0. -1.
         -6    2    1    2    0  504  0.46147759548E+02 -0.36550851647E+02 -0.11232100494E+03  0.21422099509E+03  0.17265296442E+03 0.  0.
        -24    2    3    3    0    0 -0.13596749359E+02 -0.14513905261E+02  0.57875544335E+01  0.79957242924E+02  0.77227843882E+02 0.  0.
          6    2    1    2  502    0 -0.46147759548E+02  0.36550851647E+02  0.82809404502E+02  0.20231783423E+03  0.17495578900E+03 0.  0.
         24    2    5    5    0    0  0.89388076885E+01  0.33473167159E+02 -0.15913155407E+02  0.89126686754E+02  0.80560428091E+02 0.  0.
          2    1    6    6  501    0 -0.26741505503E+02  0.11618292742E+02 -0.32907231262E+02  0.43965653779E+02  0.00000000000E+00 0. -1.
         -1    1    6    6    0  501  0.35680313192E+02  0.21854874417E+02  0.16994075855E+02  0.45161032976E+02  0.00000000000E+00 0.  1.
          5    1    5    5  502    0 -0.55086567236E+02  0.30776844874E+01  0.98722559908E+02  0.11319114747E+03  0.47000000000E+01 0. -1.
         13    1    4    4    0    0  0.48882296269E+01 -0.26426504398E+01  0.39406782822E+02  0.39796644615E+02  0.00000000000E+00 0. -1.
        -14    1    4    4    0    0 -0.18484978986E+02 -0.11871254821E+02 -0.33619228388E+02  0.40160598309E+02  0.00000000000E+00 0.  1.
         -5    1    3    3    0  504  0.59744508907E+02 -0.22036946386E+02 -0.11810855937E+03  0.13426375217E+03  0.47000000000E+01 0.  1.
<mgrwt>
<rscale>  2 0.18404673E+03</rscale>
<asrwt>0</asrwt>
<pdfrwt beam="1">  1       21 0.29771326E-01 0.18459444E+03</pdfrwt>
<pdfrwt beam="2">  1       21 0.34311571E-01 0.18459444E+03</pdfrwt>
<totfact> 0.88814488E+04</totfact>
</mgrwt>
</event>
<event>
12    1  0.2742799E-001  0.1822680E+03  0.7546771E-02  0.1166667E+00
         21   -1    0    0  502  503  0.00000000000E+00  0.00000000000E+00  0.28855476794E+03  0.28855476794E+03  0.00000000000E+00 0.  1.
         21   -1    0    0  503  504 -0.00000000000E+00 -0.00000000000E+00 -0.11590008550E+03  0.11590008550E+03  0.00000000000E+00 0.  1.
         -6    2    1    2    0  504  0.73415633682E+00  0.43187915740E+02  0.50286253377E+02  0.18491977217E+03  0.17262931330E+03 0.  0.
        -24    2    3    3    0    0 -0.53294297733E+02 -0.14590599667E+02  0.25175769965E+02  0.10179301914E+03  0.81699642493E+02 0.  0.
          6    2    1    2  502    0 -0.73415633682E+00 -0.43187915740E+02  0.12236842906E+03  0.21953508127E+03  0.17707592842E+03 0.  0.
         24    2    5    5    0    0 -0.29475169158E+02  0.38868788936E+02  0.50906960387E+02  0.10689325908E+03  0.80343524139E+02 0.  0.
          4    1    6    6  501    0  0.16970801391E+02  0.25588906015E+02 -0.69894218614E+01  0.31490510140E+02  0.00000000000E+00 0. -1.
         -3    1    6    6    0  501 -0.46445970549E+02  0.13279882921E+02  0.57896382249E+02  0.75402748943E+02  0.00000000000E+00 0.  1.
          5    1    5    5  502    0  0.28741012821E+02 -0.82056704676E+02  0.71461468673E+02  0.11264182219E+03  0.47000000000E+01 0. -1.
         11    1    4    4    0    0 -0.19027588562E+02 -0.47467096407E+02  0.13526188982E+02  0.52897373812E+02  0.00000000000E+00 0. -1.
        -12    1    4    4    0    0 -0.34266709172E+02  0.32876496740E+02  0.11649580984E+02  0.48895645332E+02  0.00000000000E+00 0.  1.
         -5    1    3    3    0  504  0.54028454070E+02  0.57778515407E+02  0.25110483411E+02  0.83126753028E+02  0.47000000000E+01 0.  1.
<mgrwt>
<rscale>  2 0.18117906E+03</rscale>
<asrwt>0</asrwt>
<pdfrwt beam="1">  1       21 0.44393041E-01 0.18226799E+03</pdfrwt>
<pdfrwt beam="2">  1       21 0.17830782E-01 0.18226799E+03</pdfrwt>
<totfact> 0.13968949E+05</totfact>
</mgrwt>
</event>
<event>
12    1  0.2742799E-001  0.2024545E+03  0.7546771E-02  0.1148744E+00
         21   -1    0    0  502  503  0.00000000000E+00  0.00000000000E+00  0.65736875157E+02  0.65736875157E+02  0.00000000000E+00 0.  1.
         21   -1    0    0  503  504 -0.00000000000E+00 -0.00000000000E+00 -0.72951923803E+03  0.72951923803E+03  0.00000000000E+00 0.  1.
         -6    2    1    2    0  504 -0.88697308648E+00 -0.10001905276E+03 -0.49758120504E+03  0.53719165971E+03  0.17602052724E+03 0.  0.
        -24    2    3    3    0    0 -0.33847739072E+02 -0.75832288330E+01 -0.34737811591E+03  0.35770948336E+03  0.77982974271E+02 0.  0.
          6    2    1    2  502    0  0.88697308648E+00  0.10001905276E+03 -0.16620115784E+03  0.25806445349E+03  0.17020528679E+03 0.  0.
         24    2    5    5    0    0  0.27736475062E+02  0.29973090696E+01 -0.12062538346E+03  0.14745995215E+03  0.80097805482E+02 0.  0.
          4    1    6    6  501    0 -0.28448865083E+02  0.15875492478E+00 -0.44125170417E+02  0.52501369429E+02  0.00000000000E+00 0. -1.
         -3    1    6    6    0  501  0.56185340145E+02  0.28385541448E+01 -0.76500213043E+02  0.94958582722E+02  0.00000000000E+00 0.  1.
          5    1    5    5  502    0 -0.26849501976E+02  0.97021743692E+02 -0.45575774375E+02  0.11060450133E+03  0.47000000000E+01 0. -1.
         13    1    4    4    0    0 -0.59125512183E+02 -0.64863314111E+00 -0.24301293256E+03  0.25010304337E+03  0.00000000000E+00 0. -1.
        -14    1    4    4    0    0  0.25277773111E+02 -0.69345956919E+01 -0.10436518335E+03  0.10760643999E+03  0.00000000000E+00 0.  1.
         -5    1    3    3    0  504  0.32960765986E+02 -0.92435823929E+02 -0.15020308913E+03  0.17948217634E+03  0.47000000000E+01 0.  1.
<mgrwt>
<rscale>  2 0.20118382E+03</rscale>
<asrwt>0</asrwt>
<pdfrwt beam="1">  1       21 0.10113365E-01 0.20245450E+03</pdfrwt>
<pdfrwt beam="2">  1       21 0.11223373E+00 0.20245450E+03</pdfrwt>
<totfact> 0.49225341E+04</totfact>
</mgrwt>
</event>
<event>
12    1  0.2742799E-001  0.1896224E+03  0.7546771E-02  0.1158998E+00
         21   -1    0    0  502  503  0.00000000000E+00  0.00000000000E+00  0.48483455798E+03  0.48483455798E+03  0.00000000000E+00 0. -1.
         21   -1    0    0  503  504 -0.00000000000E+00 -0.00000000000E+00 -0.13633740192E+03  0.13633740192E+03  0.00000000000E+00 0. -1.
         -6    2    1    2    0  504  0.67987004143E+02 -0.34281294604E+02 -0.35843766652E+02  0.19298039919E+03  0.17366409811E+03 0.  0.
        -24    2    3    3    0    0  0.38031651330E+02  0.45762813276E+02 -0.40886560711E+02  0.10723716541E+03  0.79293487853E+02 0.  0.
          6    2    1    2  502    0 -0.67987004143E+02  0.34281294604E+02  0.38434092271E+03  0.42819156071E+03  0.17272124335E+03 0.  0.
         24    2    5    5    0    0  0.13728983490E+02 -0.21562288587E+02  0.14501128100E+03  0.16916110726E+03  0.83269390014E+02 0.  0.
          2    1    6    6  501    0  0.26389421023E+02 -0.14798258097E+02  0.15071020331E+03  0.15371712776E+03  0.00000000000E+00 0. -1.
         -1    1    6    6    0  501 -0.12660437534E+02 -0.67640304908E+01 -0.56989223128E+01  0.15443979492E+02  0.00000000000E+00 0.  1.
          5    1    5    5  502    0 -0.81715987633E+02  0.55843583192E+02  0.23932964171E+03  0.25903045346E+03  0.47000000000E+01 0. -1.
         11    1    4    4    0    0  0.40681994782E+02 -0.10801945931E+02 -0.22325820879E+02  0.47646080775E+02  0.00000000000E+00 0. -1.
        -12    1    4    4    0    0 -0.26503434513E+01  0.56564759206E+02 -0.18560739832E+02  0.59591084632E+02  0.00000000000E+00 0.  1.
         -5    1    3    3    0  504  0.29955352813E+02 -0.80044107880E+02  0.50427940595E+01  0.85743233788E+02  0.47000000000E+01 0.  1.
<mgrwt>
<rscale>  2 0.18940626E+03</rscale>
<asrwt>0</asrwt>
<pdfrwt beam="1">  1       21 0.74589931E-01 0.18962241E+03</pdfrwt>
<pdfrwt beam="2">  1       21 0.20974985E-01 0.18962241E+03</pdfrwt>
<totfact> 0.34039852E+04</totfact>
</mgrwt>
</event>
<event>
12    1  0.2742799E-001  0.1946351E+03  0.7546771E-02  0.1155135E+00
         21   -1    0    0  502  503  0.00000000000E+00  0.00000000000E+00  0.50617051813E+02  0.50617051813E+02  0.00000000000E+00 0. -1.
         21   -1    0    0  503  504 -0.00000000000E+00 -0.00000000000E+00 -0.76020044059E+03  0.76020044059E+03  0.00000000000E+00 0. -1.
         -6    2    1    2    0  504  0.55728070500E+01  0.88188885844E+02 -0.43216384975E+03  0.47397088453E+03  0.17341992558E+03 0.  0.
        -24    2    3    3    0    0 -0.25552152475E+02 -0.14781408610E+02 -0.22827282023E+03  0.24339489583E+03  0.79127696319E+02 0.  0.
          6    2    1    2  502    0 -0.55728070500E+01 -0.88188885844E+02 -0.27741953902E+03  0.33684660786E+03  0.16939805440E+03 0.  0.
         24    2    5    5    0    0  0.27955533161E+02 -0.99917593943E+02 -0.11232582196E+03  0.16790952607E+03  0.69364841629E+02 0.  0.
          4    1    6    6  501    0 -0.91286483919E+01 -0.83759426446E+02 -0.72728072034E+02  0.11130294786E+03  0.00000000000E+00 0. -1.
         -3    1    6    6    0  501  0.37084181553E+02 -0.16158167497E+02 -0.39597749923E+02  0.56606578216E+02  0.00000000000E+00 0.  1.
          5    1    5    5  502    0 -0.33528340211E+02  0.11728708099E+02 -0.16509371706E+03  0.16893708179E+03  0.47000000000E+01 0. -1.
         13    1    4    4    0    0 -0.20311021697E+02  0.15212451207E+02 -0.18450384660E+02  0.31374718616E+02  0.00000000000E+00 0. -1.
        -14    1    4    4    0    0 -0.52411307782E+01 -0.29993859817E+02 -0.20982243557E+03  0.21202017721E+03  0.00000000000E+00 0.  1.
         -5    1    3    3    0  504  0.31124959525E+02  0.10297029445E+03 -0.20389102953E+03  0.23057598871E+03  0.47000000000E+01 0.  1.
<mgrwt>
<rscale>  2 0.19373515E+03</rscale>
<asrwt>0</asrwt>
<pdfrwt beam="1">  1       21 0.77872386E-02 0.19463506E+03</pdfrwt>
<pdfrwt beam="2">  1       21 0.11695392E+00 0.19463506E+03</pdfrwt>
<totfact> 0.70692225E+04</totfact>
</mgrwt>
</event>
<event>
12    1  0.2742799E-001  0.1765992E+03  0.7546771E-02  0.1171294E+00
         21   -1    0    0  502  503  0.00000000000E+00  0.00000000000E+00  0.48741959599E+03  0.48741959599E+03  0.00000000000E+00 0.  1.
         21   -1    0    0  503  504 -0.00000000000E+00 -0.00000000000E+00 -0.65718712578E+02  0.65718712578E+02  0.00000000000E+00 0.  1.
         -6    2    1    2    0  504  0.12837199739E+02 -0.28254164244E+02  0.16339116713E+03  0.24059080495E+03  0.17385100068E+03 0.  0.
        -24    2    3    3    0    0 -0.25042924326E+02 -0.72915342251E+02  0.13557356425E+03  0.17558746927E+03  0.80665809647E+02 0.  0.
          6    2    1    2  502    0 -0.12837199739E+02  0.28254164244E+02  0.25830971629E+03  0.31254750362E+03  0.17320202365E+03 0.  0.
         24    2    5    5    0    0  0.38534613345E+02 -0.27284373338E+02  0.18288810190E+03  0.20561714192E+03  0.81246524730E+02 0.  0.
          4    1    6    6  501    0  0.63548287986E+02 -0.20029477083E+02  0.14573729484E+03  0.16024644759E+03  0.00000000000E+00 0. -1.
         -3    1    6    6    0  501 -0.25013674641E+02 -0.72548962553E+01  0.37150807061E+02  0.45370694330E+02  0.00000000000E+00 0.  1.
          5    1    5    5  502    0 -0.51371813084E+02  0.55538537583E+02  0.75421614381E+02  0.10693036169E+03  0.47000000000E+01 0. -1.
         13    1    4    4    0    0 -0.12467315709E+02 -0.11848819821E+01  0.87351389800E+02  0.88244564741E+02  0.00000000000E+00 0. -1.
        -14    1    4    4    0    0 -0.12575608617E+02 -0.71730460269E+02  0.48222174451E+02  0.87342904527E+02  0.00000000000E+00 0.  1.
         -5    1    3    3    0  504  0.37880124065E+02  0.44661178007E+02  0.27817602879E+02  0.65003335684E+02  0.47000000000E+01 0.  1.
<mgrwt>
<rscale>  2 0.17643923E+03</rscale>
<asrwt>0</asrwt>
<pdfrwt beam="1">  1       21 0.74987628E-01 0.17659916E+03</pdfrwt>
<pdfrwt beam="2">  1       21 0.10110571E-01 0.17659916E+03</pdfrwt>
<totfact> 0.12731600E+05</totfact>
</mgrwt>
</event>
<event>
12    1  0.2742799E-001  0.2647016E+03  0.7546771E-02  0.1105424E+00
         21   -1    0    0  502  503  0.00000000000E+00  0.00000000000E+00  0.17795080130E+03  0.17795080130E+03  0.00000000000E+00 0.  1.
         21   -1    0    0  503  504 -0.00000000000E+00 -0.00000000000E+00 -0.77949866053E+03  0.77949866053E+03  0.00000000000E+00 0.  1.
         -6    2    1    2    0  504  0.30597556962E+02  0.19844134598E+03 -0.64418119946E+03  0.69644550398E+03  0.17248693860E+03 0.  0.
        -24    2    3    3    0    0 -0.26314308545E+02  0.13156456211E+03 -0.52736082789E+03  0.55022459620E+03  0.81461565388E+02 0.  0.
          6    2    1    2  502    0 -0.30597556962E+02 -0.19844134598E+03  0.42633340221E+02  0.26100395785E+03  0.16121503041E+03 0.  0.
         24    2    5    5    0    0 -0.53417320403E+02 -0.19114621978E+03  0.28565178958E+01  0.21433227410E+03  0.80869503349E+02 0.  0.
          4    1    6    6  501    0 -0.62615775139E+02 -0.78399479271E+02 -0.82103696562E+01  0.10067086876E+03  0.00000000000E+00 0. -1.
         -3    1    6    6    0  501  0.91984547364E+01 -0.11274674051E+03  0.11066887552E+02  0.11366140535E+03  0.00000000000E+00 0.  1.
          5    1    5    5  502    0  0.22819763441E+02 -0.72951262008E+01  0.39776822325E+02  0.46671683750E+02  0.47000000000E+01 0. -1.
         13    1    4    4    0    0  0.15690624585E+02  0.19548713191E+02 -0.20232319961E+03  0.20387011794E+03  0.00000000000E+00 0. -1.
        -14    1    4    4    0    0 -0.42004933130E+02  0.11201584892E+03 -0.32503762828E+03  0.34635447827E+03  0.00000000000E+00 0.  1.
         -5    1    3    3    0  504  0.56911865507E+02  0.66876783877E+02 -0.11682037156E+03  0.14622090777E+03  0.47000000000E+01 0.  1.
<mgrwt>
<rscale>  2 0.26288212E+03</rscale>
<asrwt>0</asrwt>
<pdfrwt beam="1">  1       21 0.27377046E-01 0.26470157E+03</pdfrwt>
<pdfrwt beam="2">  1       21 0.11992287E+00 0.26470157E+03</pdfrwt>
<totfact> 0.64096336E+03</totfact>
</mgrwt>
</event>
<event>
12    1  0.2742799E-001  0.2506978E+03  0.7546771E-02  0.1113279E+00
         21   -1    0    0  502  503  0.00000000000E+00  0.00000000000E+00  0.15152571913E+03  0.15152571913E+03  0.00000000000E+00 0.  1.
         21   -1    0    0  503  504 -0.00000000000E+00 -0.00000000000E+00 -0.72192357265E+03  0.72192357265E+03  0.00000000000E+00 0. -1.
         -6    2    1    2    0  504  0.41968812723E+02 -0.17577632508E+03  0.80673042625E+00  0.25069906758E+03  0.17375463726E+03 0.  0.
        -24    2    3    3    0    0 -0.35110565157E+02 -0.90489336157E+02  0.33674315321E+02  0.13104344042E+03  0.81347108247E+02 0.  0.
          6    2    1    2  502    0 -0.41968812723E+02  0.17577632508E+03 -0.57120458395E+03  0.62275022420E+03  0.16995430948E+03 0.  0.
         24    2    5    5    0    0 -0.85943352908E+02  0.13877303662E+03 -0.38244975160E+03  0.42538386365E+03  0.89662719958E+02 0.  0.
          2    1    6    6  501    0 -0.37354248524E+02  0.12881873811E+03 -0.24582426858E+03  0.28003424468E+03  0.00000000000E+00 0. -1.
         -1    1    6    6    0  501 -0.48589104384E+02  0.99542985169E+01 -0.13662548302E+03  0.14534961897E+03  0.00000000000E+00 0.  1.
          5    1    5    5  502    0  0.43974540185E+02  0.37003288457E+02 -0.18875483235E+03  0.19736636055E+03  0.47000000000E+01 0. -1.
         13    1    4    4    0    0  0.78963790526E+01 -0.36153304708E+02 -0.21202818264E+02  0.42649428434E+02  0.00000000000E+00 0. -1.
        -14    1    4    4    0    0 -0.43006944209E+02 -0.54336031449E+02  0.54877133584E+02  0.88394011982E+02  0.00000000000E+00 0.  1.
         -5    1    3    3    0  504  0.77079377880E+02 -0.85286988925E+02 -0.32867584895E+02  0.11965562716E+03  0.47000000000E+01 0.  1.
<mgrwt>
<rscale>  2 0.25004048E+03</rscale>
<asrwt>0</asrwt>
<pdfrwt beam="1">  1       21 0.23311649E-01 0.25069777E+03</pdfrwt>
<pdfrwt beam="2">  1       21 0.11106516E+00 0.25069777E+03</pdfrwt>
<totfact> 0.10637774E+04</totfact>
</mgrwt>
</event>
<event>
12    1  0.2742799E-001  0.1736968E+03  0.7546771E-02  0.1174135E+00
         21   -1    0    0  502  503  0.00000000000E+00  0.00000000000E+00  0.33995738976E+03  0.33995738976E+03  0.00000000000E+00 0.  1.
         21   -1    0    0  503  504 -0.00000000000E+00 -0.00000000000E+00 -0.15774268901E+03  0.15774268901E+03  0.00000000000E+00 0.  1.
         -6    2    1    2    0  504  0.45567715427E+01  0.10859186037E+01 -0.73631665993E+02  0.18865894288E+03  0.17363361168E+03 0.  0.
        -24    2    3    3    0    0  0.34429271204E+02 -0.55631940585E+02 -0.66112026715E+02  0.12394482725E+03  0.81922112985E+02 0.  0.
          6    2    1    2  502    0 -0.45567715427E+01 -0.10859186037E+01  0.25584636675E+03  0.30904113590E+03  0.17328334285E+03 0.  0.
         24    2    5    5    0    0 -0.81784099681E+01 -0.30006978872E+02  0.26457349246E+03  0.27825482863E+03  0.80369842427E+02 0.  0.
          2    1    6    6  501    0 -0.27931217424E+02 -0.50054785667E+02  0.15989445837E+03  0.16985838893E+03  0.00000000000E+00 0. -1.
         -1    1    6    6    0  501  0.19752807456E+02  0.20047806795E+02  0.10467903409E+03  0.10839643970E+03  0.00000000000E+00 0.  1.
          5    1    5    5  502    0  0.36216384254E+01  0.28921060269E+02 -0.87271257102E+01  0.30786307266E+02  0.47000000000E+01 0. -1.
         13    1    4    4    0    0 -0.21636410933E+02 -0.24962752823E+02 -0.15013257125E+01  0.33068524090E+02  0.00000000000E+00 0. -1.
        -14    1    4    4    0    0  0.56065682137E+02 -0.30669187761E+02 -0.64610701003E+02  0.90876303157E+02  0.00000000000E+00 0.  1.
         -5    1    3    3    0  504 -0.29872499661E+02  0.56717859188E+02 -0.75196392781E+01  0.64714115630E+02  0.47000000000E+01 0.  1.
<mgrwt>
<rscale>  2 0.17360919E+03</rscale>
<asrwt>0</asrwt>
<pdfrwt beam="1">  1       21 0.52301137E-01 0.17369679E+03</pdfrwt>
<pdfrwt beam="2">  1       21 0.24268106E-01 0.17369679E+03</pdfrwt>
<totfact> 0.56081282E+04</totfact>
</mgrwt>
</event>
<event>
12    1  0.2742799E-001  0.2455423E+03  0.7546771E-02  0.1116558E+00
         21   -1    0    0  502  503  0.00000000000E+00  0.00000000000E+00  0.78410334273E+02  0.78410334273E+02  0.00000000000E+00 0. -1.
         21   -1    0    0  503  504 -0.00000000000E+00 -0.00000000000E+00 -0.89922065950E+03  0.89922065950E+03  0.00000000000E+00 0. -1.
         -6    2    1    2    0  504  0.16898007189E+03 -0.40108845731E+02 -0.60016776216E+03  0.64751862635E+03  0.17004718326E+03 0.  0.
        -24    2    3    3    0    0  0.15009723122E+03  0.85287806227E+01 -0.54689496738E+03  0.57280409609E+03  0.80053158778E+02 0.  0.
          6    2    1    2  502    0 -0.16898007189E+03  0.40108845731E+02 -0.22064256306E+03  0.33011236742E+03  0.17357433649E+03 0.  0.
         24    2    5    5    0    0 -0.57502167627E+02  0.64969123664E+01 -0.18311213485E+03  0.20768807145E+03  0.79092173698E+02 0.  0.
          4    1    6    6  501    0  0.12685459492E+01 -0.58609948690E+00  0.77406495703E+01  0.78657725116E+01  0.00000000000E+00 0. -1.
         -3    1    6    6    0  501 -0.58770713576E+02  0.70830118533E+01 -0.19085278442E+03  0.19982229893E+03  0.00000000000E+00 0.  1.
          5    1    5    5  502    0 -0.11147790426E+03  0.33611933365E+02 -0.37530428216E+02  0.12242429597E+03  0.47000000000E+01 0. -1.
         13    1    4    4    0    0  0.87383749848E+02 -0.34841703273E+02 -0.30094882830E+03  0.31530946907E+03  0.00000000000E+00 0. -1.
        -14    1    4    4    0    0  0.62713481373E+02  0.43370483896E+02 -0.24594613907E+03  0.25749462702E+03  0.00000000000E+00 0.  1.
         -5    1    3    3    0  504  0.18882840666E+02 -0.48637626354E+02 -0.53272794785E+02  0.74714530268E+02  0.47000000000E+01 0.  1.
<mgrwt>
<rscale>  2 0.24491983E+03</rscale>
<asrwt>0</asrwt>
<pdfrwt beam="1">  1       21 0.12063128E-01 0.24554233E+03</pdfrwt>
<pdfrwt beam="2">  1       21 0.13834164E+00 0.24554233E+03</pdfrwt>
<totfact> 0.20782227E+04</totfact>
</mgrwt>
</event>
<event>
12    1  0.2742799E-001  0.1835868E+03  0.7546771E-02  0.1164557E+00
         21   -1    0    0  502  503  0.00000000000E+00  0.00000000000E+00  0.30021637485E+03  0.30021637485E+03  0.00000000000E+00 0. -1.
         21   -1    0    0  503  504 -0.00000000000E+00 -0.00000000000E+00 -0.12226831800E+03  0.12226831800E+03  0.00000000000E+00 0. -1.
         -6    2    1    2    0  504  0.54821225433E+02  0.13544574159E+00  0.27329028180E+02  0.18560978563E+03  0.17521053518E+03 0.  0.
        -24    2    3    3    0    0  0.60996667004E+02  0.49629387541E+02  0.56094695558E+02  0.12784007061E+03  0.83742458115E+02 0.  0.
          6    2    1    2  502    0 -0.54821225433E+02 -0.13544574159E+00  0.15061902867E+03  0.23687490722E+03  0.17440827036E+03 0.  0.
         24    2    5    5    0    0  0.31965856516E+02  0.28420699713E+02  0.86252268012E+02  0.12501508014E+03  0.79748130824E+02 0.  0.
          4    1    6    6  501    0 -0.23744680430E+02  0.25284984045E+02  0.32170738639E+02  0.47308526625E+02  0.00000000000E+00 0. -1.
         -3    1    6    6    0  501  0.55710536947E+02  0.31357156684E+01  0.54081529374E+02  0.77706553514E+02  0.00000000000E+00 0.  1.
          5    1    5    5  502    0 -0.86787081949E+02 -0.28556145455E+02  0.64366760655E+02  0.11185982708E+03  0.47000000000E+01 0. -1.
         13    1    4    4    0    0  0.51349002593E+02 -0.11691504643E+02  0.22636062984E+02  0.57321921597E+02  0.00000000000E+00 0. -1.
        -14    1    4    4    0    0  0.96476644109E+01  0.61320892184E+02  0.33458632574E+02  0.70518149016E+02  0.00000000000E+00 0.  1.
         -5    1    3    3    0  504 -0.61754415712E+01 -0.49493941799E+02 -0.28765667378E+02  0.57769715017E+02  0.47000000000E+01 0.  1.
<mgrwt>
<rscale>  2 0.18339513E+03</rscale>
<asrwt>0</asrwt>
<pdfrwt beam="1">  1       21 0.46187135E-01 0.18358681E+03</pdfrwt>
<pdfrwt beam="2">  1       21 0.18810510E-01 0.18358681E+03</pdfrwt>
<totfact> 0.11659597E+05</totfact>
</mgrwt>
</event>
<event>
12    1  0.2742799E-001  0.2234181E+03  0.7546771E-02  0.1131455E+00
         21   -1    0    0  502  503  0.00000000000E+00  0.00000000000E+00  0.51303745983E+02  0.51303745983E+02  0.00000000000E+00 0. -1.
         21   -1    0    0  503  504 -0.00000000000E+00 -0.00000000000E+00 -0.16082708276E+04  0.16082708276E+04  0.00000000000E+00 0. -1.
         -6    2    1    2    0  504 -0.12052069718E+03 -0.72393545448E+02 -0.13014953354E+04  0.13205323767E+04  0.17363636156E+03 0.  0.
        -24    2    3    3    0    0 -0.11827385435E+03 -0.67527693348E+02 -0.13036381622E+04  0.13130888207E+04  0.78619967872E+02 0.  0.
          6    2    1    2  502    0  0.12052069718E+03  0.72393545448E+02 -0.25547174618E+03  0.33904219682E+03  0.17296743698E+03 0.  0.
         24    2    5    5    0    0  0.14919157512E+03  0.43987847439E+02 -0.16812208726E+03  0.24270447920E+03  0.80295524105E+02 0.  0.
          2    1    6    6  501    0  0.51707206186E+02  0.56229845896E+02 -0.81763524830E+02  0.11189595495E+03  0.00000000000E+00 0. -1.
         -1    1    6    6    0  501  0.97484368934E+02 -0.12241998458E+02 -0.86358562431E+02  0.13080852426E+03  0.00000000000E+00 0.  1.
          5    1    5    5  502    0 -0.28670877943E+02  0.28405698009E+02 -0.87349658923E+02  0.96337717615E+02  0.47000000000E+01 0. -1.
         13    1    4    4    0    0 -0.89276511412E+02 -0.42492434739E+02 -0.57458740431E+03  0.58303223555E+03  0.00000000000E+00 0. -1.
        -14    1    4    4    0    0 -0.28997342934E+02 -0.25035258609E+02 -0.72905075784E+03  0.73005658519E+03  0.00000000000E+00 0.  1.
         -5    1    3    3    0  504 -0.22468428313E+01 -0.48658520996E+01  0.21428267467E+01  0.74435559936E+01  0.47000000000E+01 0.  1.
<mgrwt>
<rscale>  2 0.22328812E+03</rscale>
<asrwt>0</asrwt>
<pdfrwt beam="1">  1       21 0.78928839E-02 0.22341811E+03</pdfrwt>
<pdfrwt beam="2">  1       21 0.24742628E+00 0.22341811E+03</pdfrwt>
<totfact> 0.82226582E+03</totfact>
</mgrwt>
</event>
<event>
12    1  0.2742799E-001  0.1831600E+03  0.7546771E-02  0.1166987E+00
         21   -1    0    0  502  503  0.00000000000E+00  0.00000000000E+00  0.10308556672E+04  0.10308556672E+04  0.00000000000E+00 0.  1.
         21   -1    0    0  503  504 -0.00000000000E+00 -0.00000000000E+00 -0.39449116428E+02  0.39449116428E+02  0.00000000000E+00 0.  1.
         -6    2    1    2    0  504  0.85193218390E+01 -0.20722717835E+02  0.25725227348E+03  0.31579473837E+03  0.18178441818E+03 0.  0.
        -24    2    3    3    0    0 -0.34772769357E+02  0.32610394225E+02  0.21611715748E+03  0.23558991451E+03  0.80767560079E+02 0.  0.
          6    2    1    2  502    0 -0.85193218390E+01  0.20722717835E+02  0.73415427727E+03  0.75451004523E+03  0.17262935916E+03 0.  0.
         24    2    5    5    0    0 -0.14033589083E+02 -0.34891012382E+02  0.62333027024E+03  0.63030318284E+03  0.85598785800E+02 0.  0.
          2    1    6    6  501    0 -0.14607297027E+02 -0.28249099725E+02  0.69475705976E+02  0.76408497451E+02  0.00000000000E+00 0. -1.
         -1    1    6    6    0  501  0.57370794432E+00 -0.66419126568E+01  0.55385456427E+03  0.55389468539E+03  0.00000000000E+00 0.  1.
          5    1    5    5  502    0  0.55142672438E+01  0.55613730217E+02  0.11082400702E+03  0.12420686239E+03  0.47000000000E+01 0. -1.
         13    1    4    4    0    0 -0.41920284093E+02  0.18873110306E+02  0.46930642801E+02  0.65696192772E+02  0.00000000000E+00 0. -1.
        -14    1    4    4    0    0  0.71475147362E+01  0.13737283919E+02  0.16918651468E+03  0.16989372174E+03  0.00000000000E+00 0.  1.
         -5    1    3    3    0  504  0.43292091196E+02 -0.53333112060E+02  0.41135115995E+02  0.80204823858E+02  0.47000000000E+01 0.  1.
<mgrwt>
<rscale>  2 0.18084583E+03</rscale>
<asrwt>0</asrwt>
<pdfrwt beam="1">  1       21 0.15859316E+00 0.18316000E+03</pdfrwt>
<pdfrwt beam="2">  1       21 0.60690956E-02 0.18316000E+03</pdfrwt>
<totfact> 0.50108958E+04</totfact>
</mgrwt>
</event>
<event>
12    1  0.2742799E-001  0.2227574E+03  0.7546771E-02  0.1132734E+00
         21   -1    0    0  502  503  0.00000000000E+00  0.00000000000E+00  0.19565070465E+03  0.19565070465E+03  0.00000000000E+00 0.  1.
         21   -1    0    0  503  504 -0.00000000000E+00 -0.00000000000E+00 -0.31517641324E+03  0.31517641324E+03  0.00000000000E+00 0. -1.
         -6    2    1    2    0  504 -0.12532772849E+03 -0.38665476720E+02 -0.17699873981E+03  0.28077494104E+03  0.17408031194E+03 0.  0.
        -24    2    3    3    0    0 -0.10356683896E+03  0.12794995190E+02 -0.18166788223E+03  0.22451121051E+03  0.80698588441E+02 0.  0.
          6    2    1    2  502    0  0.12532772849E+03  0.38665476720E+02  0.57473031216E+02  0.23005217685E+03  0.18005220393E+03 0.  0.
         24    2    5    5    0    0  0.30281919073E+02  0.80280833095E+02  0.32481547037E+02  0.12322424017E+03  0.82262723531E+02 0.  0.
          4    1    6    6  501    0  0.36755903895E+02  0.45515616277E+02 -0.18339295950E+02  0.61310664425E+02  0.00000000000E+00 0. -1.
         -3    1    6    6    0  501 -0.64739848222E+01  0.34765216818E+02  0.50820842986E+02  0.61913575747E+02  0.00000000000E+00 0.  1.
          5    1    5    5  502    0  0.95045809420E+02 -0.41615356375E+02  0.24991484180E+02  0.10682793668E+03  0.47000000000E+01 0. -1.
         11    1    4    4    0    0 -0.99559582765E+02 -0.17176697452E+02 -0.12996218680E+03  0.16461263455E+03  0.00000000000E+00 0. -1.
        -12    1    4    4    0    0 -0.40072561943E+01  0.29971692642E+02 -0.51705695428E+02  0.59898575957E+02  0.00000000000E+00 0.  1.
         -5    1    3    3    0  504 -0.21760889534E+02 -0.51460471909E+02  0.46691424219E+01  0.56263730532E+02  0.47000000000E+01 0.  1.
<mgrwt>
<rscale>  2 0.22154791E+03</rscale>
<asrwt>0</asrwt>
<pdfrwt beam="1">  1       21 0.30100109E-01 0.22275739E+03</pdfrwt>
<pdfrwt beam="2">  1       21 0.48488679E-01 0.22275739E+03</pdfrwt>
<totfact> 0.42371234E+04</totfact>
</mgrwt>
</event>
<event>
12    1  0.2742799E-001  0.2208774E+03  0.7546771E-02  0.1136068E+00
         21   -1    0    0  502  503  0.00000000000E+00  0.00000000000E+00  0.59518007336E+02  0.59518007336E+02  0.00000000000E+00 0.  1.
         21   -1    0    0  503  504 -0.00000000000E+00 -0.00000000000E+00 -0.13518734876E+04  0.13518734876E+04  0.00000000000E+00 0. -1.
         -6    2    1    2    0  504  0.12785467776E+03 -0.50354250168E+02 -0.11232810574E+04  0.11447913207E+04  0.17292907456E+03 0.  0.
        -24    2    3    3    0    0  0.14316198053E+03 -0.45088421180E+02 -0.66894654427E+03  0.69014422424E+03  0.79254354838E+02 0.  0.
          6    2    1    2  502    0 -0.12785467776E+03  0.50354250168E+02 -0.16907442282E+03  0.26660017422E+03  0.15364609760E+03 0.  0.
         24    2    5    5    0    0 -0.13683270496E+03  0.30583133315E+01 -0.13508996820E+03  0.20748550794E+03  0.77899897772E+02 0.  0.
          4    1    6    6  501    0 -0.75224292765E+00 -0.10042333936E+02  0.54257634509E+01  0.11439110513E+02  0.00000000000E+00 0. -1.
         -3    1    6    6    0  501 -0.13608046203E+03  0.13100647267E+02 -0.14051573165E+03  0.19604639743E+03  0.00000000000E+00 0.  1.
          5    1    5    5  502    0  0.89780271912E+01  0.47295936836E+02 -0.33984454621E+02  0.59114666280E+02  0.47000000000E+01 0. -1.
         11    1    4    4    0    0  0.92858654529E+02 -0.43921377033E+02 -0.56953183004E+03  0.57872128224E+03  0.00000000000E+00 0. -1.
        -12    1    4    4    0    0  0.50303326003E+02 -0.11670441476E+01 -0.99414714231E+02  0.11142294200E+03  0.00000000000E+00 0.  1.
         -5    1    3    3    0  504 -0.15307302768E+02 -0.52658289875E+01 -0.45433451316E+03  0.45464709646E+03  0.47000000000E+01 0.  1.
<mgrwt>
<rscale>  2 0.21709443E+03</rscale>
<asrwt>0</asrwt>
<pdfrwt beam="1">  1       21 0.91566168E-02 0.22087742E+03</pdfrwt>
<pdfrwt beam="2">  1       21 0.20798053E+00 0.22087742E+03</pdfrwt>
<totfact> 0.11066118E+04</totfact>
</mgrwt>
</event>
<event>
12    1  0.2742799E-001  0.2165061E+03  0.7546771E-02  0.1137072E+00
         21   -1    0    0  502  503  0.00000000000E+00  0.00000000000E+00  0.15854805477E+04  0.15854805477E+04  0.00000000000E+00 0. -1.
         21   -1    0    0  503  504 -0.00000000000E+00 -0.00000000000E+00 -0.33004491102E+02  0.33004491102E+02  0.00000000000E+00 0. -1.
         -6    2    1    2    0  504 -0.88160373891E+02 -0.96247669481E+02  0.50502407966E+03  0.54947632695E+03  0.17273982586E+03 0.  0.
        -24    2    3    3    0    0 -0.19588486074E+02 -0.49329739419E+02  0.41786699955E+03  0.42896971894E+03  0.81148373246E+02 0.  0.
          6    2    1    2  502    0  0.88160373891E+02  0.96247669481E+02  0.10474519770E+04  0.10690087119E+04  0.16908020766E+03 0.  0.
         24    2    5    5    0    0  0.11498282227E+02  0.17034898652E+02  0.23768775668E+03  0.25176216290E+03  0.80413423801E+02 0.  0.
          2    1    6    6  501    0 -0.72977121460E+01  0.16811422777E+02  0.23112747999E+03  0.23185295458E+03  0.00000000000E+00 0. -1.
         -1    1    6    6    0  501  0.18795994373E+02  0.22347587463E+00  0.65602766883E+01  0.19909208326E+02  0.00000000000E+00 0.  1.
          5    1    5    5  502    0  0.76662091663E+02  0.79212770830E+02  0.80976422030E+03  0.81724654900E+03  0.47000000000E+01 0. -1.
         11    1    4    4    0    0 -0.29078924333E+02 -0.30904043719E+02  0.80789482141E+02  0.91255598092E+02  0.00000000000E+00 0. -1.
        -12    1    4    4    0    0  0.94904382589E+01 -0.18425695700E+02  0.33707751741E+03  0.33771412085E+03  0.00000000000E+00 0.  1.
         -5    1    3    3    0  504 -0.68571887816E+02 -0.46917930063E+02  0.87157080115E+02  0.12050660801E+03  0.47000000000E+01 0.  1.
<mgrwt>
<rscale>  2 0.21577535E+03</rscale>
<asrwt>0</asrwt>
<pdfrwt beam="1">  1       21 0.24392002E+00 0.21650615E+03</pdfrwt>
<pdfrwt beam="2">  1       21 0.50776153E-02 0.21650615E+03</pdfrwt>
<totfact> 0.18550822E+04</totfact>
</mgrwt>
</event>
<event>
12    1  0.2742799E-001  0.2055983E+03  0.7546771E-02  0.1145182E+00
         21   -1    0    0  502  503  0.00000000000E+00  0.00000000000E+00  0.81834357679E+02  0.81834357679E+02  0.00000000000E+00 0.  1.
         21   -1    0    0  503  504 -0.00000000000E+00 -0.00000000000E+00 -0.11032062100E+04  0.11032062100E+04  0.00000000000E+00 0.  1.
         -6    2    1    2    0  504 -0.36673842101E+02 -0.10398081405E+03 -0.94291123902E+03  0.96497984135E+03  0.17305348638E+03 0.  0.
        -24    2    3    3    0    0 -0.12822201662E+01 -0.81659460405E+02 -0.30537077643E+03  0.32605047031E+03  0.79923003764E+02 0.  0.
          6    2    1    2  502    0  0.36673842101E+02  0.10398081405E+03 -0.78460613306E+02  0.22006072634E+03  0.17353292209E+03 0.  0.
         24    2    5    5    0    0  0.32597918307E+02  0.30231903288E+02  0.22463318747E+02  0.94907839616E+02  0.80785549927E+02 0.  0.
          2    1    6    6  501    0  0.33511975564E+02 -0.16150887013E+02 -0.97151876297E+01  0.38448517893E+02  0.00000000000E+00 0. -1.
         -1    1    6    6    0  501 -0.91405725627E+00  0.46382790301E+02  0.32178506377E+02  0.56459321723E+02  0.00000000000E+00 0.  1.
          5    1    5    5  502    0  0.40759237935E+01  0.73748910765E+02 -0.10092393205E+03  0.12515288672E+03  0.47000000000E+01 0. -1.
         13    1    4    4    0    0 -0.29281618782E+02 -0.61317902308E+02 -0.12390863301E+03  0.14131754200E+03  0.00000000000E+00 0. -1.
        -14    1    4    4    0    0  0.27999398616E+02 -0.20341558097E+02 -0.18146214342E+03  0.18473292831E+03  0.00000000000E+00 0.  1.
         -5    1    3    3    0  504 -0.35391621935E+02 -0.22321353648E+02 -0.63754046259E+03  0.63892937104E+03  0.47000000000E+01 0.  1.
<mgrwt>
<rscale>  2 0.20549709E+03</rscale>
<asrwt>0</asrwt>
<pdfrwt beam="1">  1       21 0.12589900E-01 0.20559829E+03</pdfrwt>
<pdfrwt beam="2">  1       21 0.16972405E+00 0.20559829E+03</pdfrwt>
<totfact> 0.11427434E+04</totfact>
</mgrwt>
</event>
<event>
12    1  0.2742799E-001  0.1764999E+03  0.7546771E-02  0.1171423E+00
         21   -1    0    0  502  503  0.00000000000E+00  0.00000000000E+00  0.10026127247E+03  0.10026127247E+03  0.00000000000E+00 0.  1.
         21   -1    0    0  503  504 -0.00000000000E+00 -0.00000000000E+00 -0.30959080267E+03  0.30959080267E+03  0.00000000000E+00 0. -1.
         -6    2    1    2    0  504 -0.55289673941E+01  0.40068772418E+02 -0.99057892808E+02  0.20173657855E+03  0.17102369717E+03 0.  0.
        -24    2    3    3    0    0  0.51161313354E+02 -0.38270595716E+01 -0.84606570889E+02  0.12844563298E+03  0.81901663134E+02 0.  0.
          6    2    1    2  502    0  0.55289673941E+01 -0.40068772418E+02 -0.11027163739E+03  0.20811549660E+03  0.17180264814E+03 0.  0.
         24    2    5    5    0    0  0.38287457534E+02  0.15170872869E+02 -0.11182417630E+03  0.14370247412E+03  0.80309836731E+02 0.  0.
          2    1    6    6  501    0  0.32661855354E+02  0.46344335851E+02 -0.85104432607E+02  0.10226122779E+03  0.00000000000E+00 0. -1.
         -1    1    6    6    0  501  0.56256021801E+01 -0.31173462982E+02 -0.26719743689E+02  0.41441246325E+02  0.00000000000E+00 0.  1.
          5    1    5    5  502    0 -0.32758490140E+02 -0.55239645287E+02  0.15525389088E+01  0.64413022478E+02  0.47000000000E+01 0. -1.
         13    1    4    4    0    0  0.30799059431E+02  0.26271923577E+02 -0.48134952540E+01  0.40767214362E+02  0.00000000000E+00 0. -1.
        -14    1    4    4    0    0  0.20362253923E+02 -0.30098983149E+02 -0.79793075635E+02  0.87678418614E+02  0.00000000000E+00 0.  1.
         -5    1    3    3    0  504 -0.56690280749E+02  0.43895831990E+02 -0.14451321919E+02  0.73290945571E+02  0.47000000000E+01 0.  1.
<mgrwt>
<rscale>  2 0.17631009E+03</rscale>
<asrwt>0</asrwt>
<pdfrwt beam="1">  1       21 0.15424811E-01 0.17649993E+03</pdfrwt>
<pdfrwt beam="2">  1       21 0.47629354E-01 0.17649993E+03</pdfrwt>
<totfact> 0.15795639E+05</totfact>
</mgrwt>
</event>
<event>
12    1  0.2742799E-001  0.1908596E+03  0.7546771E-02  0.1157819E+00
         21   -1    0    0  502  503  0.00000000000E+00  0.00000000000E+00  0.31842237092E+03  0.31842237092E+03  0.00000000000E+00 0.  1.
         21   -1    0    0  503  504 -0.00000000000E+00 -0.00000000000E+00 -0.13286790883E+03  0.13286790883E+03  0.00000000000E+00 0.  1.
         -6    2    1    2    0  504 -0.56302075675E+02 -0.56004708205E+02  0.77365532837E+01  0.19043282086E+03  0.17291140487E+03 0.  0.
        -24    2    3    3    0    0  0.20200492989E+02 -0.55054015856E+02  0.40384864267E+02  0.10711686177E+03  0.80025497405E+02 0.  0.
          6    2    1    2  502    0  0.56302075675E+02  0.56004708205E+02  0.17781790881E+03  0.26085745889E+03  0.17355389393E+03 0.  0.
         24    2    5    5    0    0  0.53272308935E+02  0.88325067164E+02  0.17550260732E+03  0.22797531008E+03  0.10262709409E+03 0.  0.
          4    1    6    6  501    0  0.16384359766E+02  0.80140871176E+02  0.47670139792E+02  0.94675491578E+02  0.00000000000E+00 0. -1.
         -3    1    6    6    0  501  0.36887949169E+02  0.81841959880E+01  0.12783246753E+03  0.13329981850E+03  0.00000000000E+00 0.  1.
          5    1    5    5  502    0  0.30297667401E+01 -0.32320358959E+02  0.23153014933E+01  0.32882148815E+02  0.47000000000E+01 0. -1.
         13    1    4    4    0    0  0.24326624187E+02  0.11988048136E+02  0.27690280946E+02  0.38758864809E+02  0.00000000000E+00 0. -1.
        -14    1    4    4    0    0 -0.41261311974E+01 -0.67042063991E+02  0.12694583321E+02  0.68357996961E+02  0.00000000000E+00 0.  1.
         -5    1    3    3    0  504 -0.76502568664E+02 -0.95069234974E+00 -0.32648310983E+02  0.83315959085E+02  0.47000000000E+01 0.  1.
<mgrwt>
<rscale>  2 0.19071347E+03</rscale>
<asrwt>0</asrwt>
<pdfrwt beam="1">  1       21 0.48988057E-01 0.19085965E+03</pdfrwt>
<pdfrwt beam="2">  1       21 0.20441217E-01 0.19085965E+03</pdfrwt>
<totfact> 0.88177483E+04</totfact>
</mgrwt>
</event>
<event>
12    1  0.2742799E-001  0.2242945E+03  0.7546771E-02  0.1131089E+00
         21   -1    0    0  502  503  0.00000000000E+00  0.00000000000E+00  0.16826614555E+04  0.16826614555E+04  0.00000000000E+00 0. -1.
         21   -1    0    0  503  504 -0.00000000000E+00 -0.00000000000E+00 -0.29647339393E+02  0.29647339393E+02  0.00000000000E+00 0. -1.
         -6    2    1    2    0  504  0.14085642507E+03 -0.93633052909E+00  0.80231343728E+03  0.83253628540E+03  0.17195466166E+03 0.  0.
        -24    2    3    3    0    0  0.42853577543E+02 -0.50727650581E+02  0.50538008727E+03  0.51587362889E+03  0.79415645433E+02 0.  0.
          6    2    1    2  502    0 -0.14085642507E+03  0.93633052909E+00  0.85070067879E+03  0.87977250945E+03  0.17454688283E+03 0.  0.
         24    2    5    5    0    0 -0.54445723390E+02 -0.47316674688E+02  0.26956688514E+03  0.29025258783E+03  0.79856462966E+02 0.  0.
          4    1    6    6  501    0 -0.63957033707E+01  0.17771371735E+02  0.18363795918E+02  0.26343038463E+02  0.00000000000E+00 0. -1.
         -3    1    6    6    0  501 -0.48050020019E+02 -0.65088046423E+02  0.25120308922E+03  0.26390954937E+03  0.00000000000E+00 0.  1.
          5    1    5    5  502    0 -0.86410701677E+02  0.48253005217E+02  0.58113379365E+03  0.58951992163E+03  0.47000000000E+01 0. -1.
         11    1    4    4    0    0  0.66488876080E+02 -0.36867666213E+02  0.36151424477E+03  0.36942190599E+03  0.00000000000E+00 0. -1.
        -12    1    4    4    0    0 -0.23635298537E+02 -0.13859984368E+02  0.14386584250E+03  0.14645172290E+03  0.00000000000E+00 0.  1.
         -5    1    3    3    0  504  0.98002847524E+02  0.49791320052E+02  0.29693335001E+03  0.31666265650E+03  0.47000000000E+01 0.  1.
<mgrwt>
<rscale>  2 0.22378997E+03</rscale>
<asrwt>0</asrwt>
<pdfrwt beam="1">  1       21 0.25887092E+00 0.22429450E+03</pdfrwt>
<pdfrwt beam="2">  1       21 0.45611305E-02 0.22429450E+03</pdfrwt>
<totfact> 0.18039370E+04</totfact>
</mgrwt>
</event>
<event>
12    1  0.2742799E-001  0.2933455E+03  0.7546771E-02  0.1090205E+00
         21   -1    0    0  502  503  0.00000000000E+00  0.00000000000E+00  0.31278519160E+03  0.31278519160E+03  0.00000000000E+00 0.  1.
         21   -1    0    0  503  504 -0.00000000000E+00 -0.00000000000E+00 -0.35990067958E+03  0.35990067958E+03  0.00000000000E+00 0.  1.
         -6    2    1    2    0  504 -0.15988534149E+03  0.17474637135E+03 -0.19760726228E+03  0.35369511891E+03  0.17306643323E+03 0.  0.
        -24    2    3    3    0    0 -0.73456545122E+01  0.59980627153E+02 -0.86246330866E+02  0.13264562402E+03  0.80652326132E+02 0.  0.
          6    2    1    2  502    0  0.15988534149E+03 -0.17474637135E+03  0.15049177430E+03  0.31899075227E+03  0.15168292316E+03 0.  0.
         24    2    5    5    0    0  0.14195341168E+03 -0.19450454248E+03  0.13290028422E+03  0.28668765712E+03  0.80898325461E+02 0.  0.
          2    1    6    6  501    0 -0.72358097173E+01 -0.24906768410E+02  0.26233817481E+02  0.36890611740E+02  0.00000000000E+00 0. -1.
         -1    1    6    6    0  501  0.14918922140E+03 -0.16959777407E+03  0.10666646674E+03  0.24979704538E+03  0.00000000000E+00 0.  1.
          5    1    5    5  502    0  0.17931929808E+02  0.19758171135E+02  0.17591490077E+02  0.32303095151E+02  0.47000000000E+01 0. -1.
         11    1    4    4    0    0 -0.11970594030E+02 -0.18130941575E+02 -0.12205872145E+02  0.24920061771E+02  0.00000000000E+00 0. -1.
        -12    1    4    4    0    0  0.46249395181E+01  0.78111568728E+02 -0.74040458722E+02  0.10772556225E+03  0.00000000000E+00 0.  1.
         -5    1    3    3    0  504 -0.15253968698E+03  0.11476574420E+03 -0.11136093142E+03  0.22104949489E+03  0.47000000000E+01 0.  1.
<mgrwt>
<rscale>  2 0.29027639E+03</rscale>
<asrwt>0</asrwt>
<pdfrwt beam="1">  1       21 0.48120799E-01 0.29334554E+03</pdfrwt>
<pdfrwt beam="2">  1       21 0.55369335E-01 0.29334554E+03</pdfrwt>
<totfact> 0.12005303E+04</totfact>
</mgrwt>
</event>
<event>
12    1  0.2742799E-001  0.2418063E+03  0.7546771E-02  0.1118731E+00
         21   -1    0    0  502  503  0.00000000000E+00  0.00000000000E+00  0.20017861119E+03  0.20017861119E+03  0.00000000000E+00 0.  1.
         21   -1    0    0  503  504 -0.00000000000E+00 -0.00000000000E+00 -0.29444920467E+03  0.29444920467E+03  0.00000000000E+00 0.  1.
         -6    2    1    2    0  504 -0.79862044606E+02  0.14885095736E+03 -0.73428145458E+02  0.25192495747E+03  0.17187186499E+03 0.  0.
        -24    2    3    3    0    0 -0.63886012012E+02  0.31630181202E+02  0.16399711058E+02  0.10330773846E+03  0.72949622407E+02 0.  0.
          6    2    1    2  502    0  0.79862044606E+02 -0.14885095736E+03 -0.20842448027E+02  0.24270285840E+03  0.17301940978E+03 0.  0.
         24    2    5    5    0    0  0.10530320397E+03 -0.13379904511E+03  0.26657797190E+02  0.18655861606E+03  0.71431994494E+02 0.  0.
          4    1    6    6  501    0  0.32382011258E+02 -0.70948714982E+02 -0.18608701001E+02  0.80178541790E+02  0.00000000000E+00 0. -1.
         -3    1    6    6    0  501  0.72921192708E+02 -0.62850330127E+02  0.45266498191E+02  0.10638007427E+03  0.00000000000E+00 0.  1.
          5    1    5    5  502    0 -0.25441159360E+02 -0.15051912246E+02 -0.47500245217E+02  0.56144242337E+02  0.47000000000E+01 0. -1.
         13    1    4    4    0    0 -0.73601805407E+02  0.37152122005E+02  0.28122851889E+02  0.87111427075E+02  0.00000000000E+00 0. -1.
        -14    1    4    4    0    0  0.97157933959E+01 -0.55219408032E+01 -0.11723140831E+02  0.16196311385E+02  0.00000000000E+00 0.  1.
         -5    1    3    3    0  504 -0.15976032594E+02  0.11722077615E+03 -0.89827856516E+02  0.14861721901E+03  0.47000000000E+01 0.  1.
<mgrwt>
<rscale>  2 0.24160106E+03</rscale>
<asrwt>0</asrwt>
<pdfrwt beam="1">  1       21 0.30796710E-01 0.24180627E+03</pdfrwt>
<pdfrwt beam="2">  1       21 0.45299877E-01 0.24180627E+03</pdfrwt>
<totfact> 0.46267756E+04</totfact>
</mgrwt>
</event>
<event>
12    1  0.2742799E-001  0.3623403E+03  0.7546771E-02  0.1057708E+00
         21   -1    0    0  502  503  0.00000000000E+00  0.00000000000E+00  0.14472892856E+04  0.14472892856E+04  0.00000000000E+00 0.  1.
         21   -1    0    0  503  504 -0.00000000000E+00 -0.00000000000E+00 -0.10592224167E+03  0.10592224167E+03  0.00000000000E+00 0. -1.
         -6    2    1    2    0  504  0.12624824203E+03  0.29204556989E+03  0.37488216512E+03  0.52103737393E+03  0.17237770680E+03 0.  0.
        -24    2    3    3    0    0  0.77709073026E+02  0.27881115288E+03  0.35880078937E+03  0.46801000961E+03  0.80752731462E+02 0.  0.
          6    2    1    2  502    0 -0.12624824203E+03 -0.29204556989E+03  0.96648487879E+03  0.10321741533E+04  0.17338174166E+03 0.  0.
         24    2    5    5    0    0 -0.10581152577E+03 -0.12960073703E+03  0.64612271529E+03  0.67236866573E+03  0.81318075604E+02 0.  0.
          2    1    6    6  501    0 -0.10939563888E+03 -0.12034951199E+03  0.49738316804E+03  0.52329860184E+03  0.00000000000E+00 0. -1.
         -1    1    6    6    0  501  0.35841131088E+01 -0.92512250408E+01  0.14873954726E+03  0.14907006389E+03  0.00000000000E+00 0.  1.
          5    1    5    5  502    0 -0.20436716254E+02 -0.16244483286E+03  0.32036216350E+03  0.35980548758E+03  0.47000000000E+01 0. -1.
         11    1    4    4    0    0  0.40689404329E+01  0.12675139219E+03  0.11372476320E+03  0.17034022856E+03  0.00000000000E+00 0. -1.
        -12    1    4    4    0    0  0.73640132593E+02  0.15205976069E+03  0.24507602617E+03  0.29766978105E+03  0.00000000000E+00 0.  1.
         -5    1    3    3    0  504  0.48539169000E+02  0.13234417007E+02  0.16081375743E+02  0.53027364318E+02  0.47000000000E+01 0.  1.
<mgrwt>
<rscale>  2 0.36222036E+03</rscale>
<asrwt>0</asrwt>
<pdfrwt beam="1">  1       21 0.22265988E+00 0.36234026E+03</pdfrwt>
<pdfrwt beam="2">  1       21 0.16295731E-01 0.36234026E+03</pdfrwt>
<totfact> 0.28788694E+03</totfact>
</mgrwt>
</event>
<event>
12    1  0.2742799E-001  0.2374255E+03  0.7546771E-02  0.1123922E+00
         21   -1    0    0  502  503  0.00000000000E+00  0.00000000000E+00  0.91305840049E+02  0.91305840049E+02  0.00000000000E+00 0.  1.
         21   -1    0    0  503  504 -0.00000000000E+00 -0.00000000000E+00 -0.12202162321E+04  0.12202162321E+04  0.00000000000E+00 0. -1.
         -6    2    1    2    0  504 -0.11668261990E+03 -0.78710061533E+02 -0.10466270376E+04  0.10732190095E+04  0.19120873111E+03 0.  0.
        -24    2    3    3    0    0 -0.53584265765E+02 -0.44967990700E+02 -0.93294950763E+03  0.93881439474E+03  0.78001860607E+02 0.  0.
          6    2    1    2  502    0  0.11668261990E+03  0.78710061533E+02 -0.82283354453E+02  0.23830306269E+03  0.17380360093E+03 0.  0.
         24    2    5    5    0    0  0.71308082530E+02  0.35574695579E+02  0.23236261106E+02  0.11551874893E+03  0.80338383887E+02 0.  0.
          2    1    6    6  501    0  0.50722824070E+02  0.61713897189E+02  0.16077986675E+02  0.81485652991E+02  0.00000000000E+00 0. -1.
         -1    1    6    6    0  501  0.20585258460E+02 -0.26139201610E+02  0.71582744315E+01  0.34033095944E+02  0.00000000000E+00 0.  1.
          5    1    5    5  502    0  0.45374537367E+02  0.43135365953E+02 -0.10551961556E+03  0.12278431376E+03  0.47000000000E+01 0. -1.
         11    1    4    4    0    0 -0.49110107906E+02  0.52330118271E+01 -0.31910458843E+03  0.32290389510E+03  0.00000000000E+00 0. -1.
        -12    1    4    4    0    0 -0.44741578593E+01 -0.50201002527E+02 -0.61384491919E+03  0.61591049964E+03  0.00000000000E+00 0.  1.
         -5    1    3    3    0  504 -0.63098354132E+02 -0.33742070833E+02 -0.11367752999E+03  0.13440461474E+03  0.47000000000E+01 0.  1.
<mgrwt>
<rscale>  2 0.23390319E+03</rscale>
<asrwt>0</asrwt>
<pdfrwt beam="1">  1       21 0.14047053E-01 0.23742554E+03</pdfrwt>
<pdfrwt beam="2">  1       21 0.18772556E+00 0.23742554E+03</pdfrwt>
<totfact> 0.68850277E+03</totfact>
</mgrwt>
</event>
<event>
12    1  0.2742799E-001  0.1849609E+03  0.7546771E-02  0.1163482E+00
         21   -1    0    0  502  503  0.00000000000E+00  0.00000000000E+00  0.55509542635E+03  0.55509542635E+03  0.00000000000E+00 0.  1.
         21   -1    0    0  503  504 -0.00000000000E+00 -0.00000000000E+00 -0.10343004840E+03  0.10343004840E+03  0.00000000000E+00 0.  1.
         -6    2    1    2    0  504  0.36673056162E+01  0.64082406403E+02  0.14504837877E+02  0.18384675749E+03  0.17166605948E+03 0.  0.
        -24    2    3    3    0    0  0.26136349503E+02  0.65788473539E+02 -0.48087451931E+02  0.11715602844E+03  0.80011873806E+02 0.  0.
          6    2    1    2  502    0 -0.36673056162E+01 -0.64082406403E+02  0.43716054007E+03  0.47467871726E+03  0.17346625864E+03 0.  0.
         24    2    5    5    0    0  0.37774330240E+00 -0.89790056846E+02  0.43093995105E+03  0.44751198320E+03  0.80593651685E+02 0.  0.
          4    1    6    6  501    0 -0.31425382401E+02 -0.76003346107E+02  0.34865868087E+03  0.35822749619E+03  0.00000000000E+00 0. -1.
         -3    1    6    6    0  501  0.31803125703E+02 -0.13786710739E+02  0.82281270185E+02  0.89284487011E+02  0.00000000000E+00 0.  1.
          5    1    5    5  502    0 -0.40450489186E+01  0.25707650444E+02  0.62205890153E+01  0.27166734066E+02  0.47000000000E+01 0. -1.
         11    1    4    4    0    0  0.16074306768E+02  0.51220341508E+01 -0.52849297090E+02  0.55476722820E+02  0.00000000000E+00 0. -1.
        -12    1    4    4    0    0  0.10062042735E+02  0.60666439388E+02  0.47618451590E+01  0.61679305617E+02  0.00000000000E+00 0.  1.
         -5    1    3    3    0  504 -0.22469043887E+02 -0.17060671365E+01  0.62592289808E+02  0.66690729053E+02  0.47000000000E+01 0.  1.
<mgrwt>
<rscale>  2 0.18453767E+03</rscale>
<asrwt>0</asrwt>
<pdfrwt beam="1">  1       21 0.85399295E-01 0.18496093E+03</pdfrwt>
<pdfrwt beam="2">  1       21 0.15912315E-01 0.18496093E+03</pdfrwt>
<totfact> 0.41916184E+04</totfact>
</mgrwt>
</event>
<event>
12    1  0.2742799E-001  0.2337397E+03  0.7546771E-02  0.1124227E+00
         21   -1    0    0  502  503  0.00000000000E+00  0.00000000000E+00  0.17966889799E+03  0.17966889799E+03  0.00000000000E+00 0.  1.
         21   -1    0    0  503  504 -0.00000000000E+00 -0.00000000000E+00 -0.30292857293E+03  0.30292857293E+03  0.00000000000E+00 0. -1.
         -6    2    1    2    0  504  0.42836846524E+02  0.15057778878E+03 -0.69205994009E+02  0.24376983475E+03  0.17356726891E+03 0.  0.
        -24    2    3    3    0    0  0.55519477251E+02  0.53039228442E+02 -0.89879665516E+02  0.14315119549E+03  0.80736227232E+02 0.  0.
          6    2    1    2  502    0 -0.42836846524E+02 -0.15057778878E+03 -0.54053680939E+02  0.23882763617E+03  0.17207025740E+03 0.  0.
         24    2    5    5    0    0  0.11193532892E+02 -0.50619913123E+01 -0.33991742459E+02  0.82243152305E+02  0.73875426300E+02 0.  0.
          2    1    6    6  501    0  0.30401903746E+02 -0.28406791269E+02 -0.30954609098E+02  0.51859515674E+02  0.00000000000E+00 0. -1.
         -1    1    6    6    0  501 -0.19208370854E+02  0.23344799956E+02 -0.30371333614E+01  0.30383636631E+02  0.00000000000E+00 0.  1.
          5    1    5    5  502    0 -0.54030379416E+02 -0.14551579746E+03 -0.20061938480E+02  0.15658448386E+03  0.47000000000E+01 0. -1.
         13    1    4    4    0    0  0.38995048938E+02 -0.78272610662E+01 -0.63193840459E+02  0.74668208291E+02  0.00000000000E+00 0. -1.
        -14    1    4    4    0    0  0.16524428313E+02  0.60866489508E+02 -0.26685825057E+02  0.68482987194E+02  0.00000000000E+00 0.  1.
         -5    1    3    3    0  504 -0.12682630728E+02  0.97538560334E+02  0.20673671507E+02  0.10061863927E+03  0.47000000000E+01 0.  1.
<mgrwt>
<rscale>  2 0.23346187E+03</rscale>
<asrwt>0</asrwt>
<pdfrwt beam="1">  1       21 0.27641369E-01 0.23373973E+03</pdfrwt>
<pdfrwt beam="2">  1       21 0.46604395E-01 0.23373973E+03</pdfrwt>
<totfact> 0.54058999E+04</totfact>
</mgrwt>
</event>
<event>
12    1  0.2742799E-001  0.2201610E+03  0.7546771E-02  0.1133796E+00
         21   -1    0    0  502  503  0.00000000000E+00  0.00000000000E+00  0.11252276786E+04  0.11252276786E+04  0.00000000000E+00 0. -1.
         21   -1    0    0  503  504 -0.00000000000E+00 -0.00000000000E+00 -0.45509248713E+02  0.45509248713E+02  0.00000000000E+00 0.  1.
         -6    2    1    2    0  504 -0.11223064562E+03 -0.76667679259E+02  0.40334744498E+03  0.45943630939E+03  0.17297083613E+03 0.  0.
        -24    2    3    3    0    0 -0.60177801927E+02 -0.53801981210E+02  0.37884910146E+03  0.39735090435E+03  0.88572447646E+02 0.  0.
          6    2    1    2  502    0  0.11223064562E+03  0.76667679259E+02  0.67637098488E+03  0.71130061790E+03  0.17319702359E+03 0.  0.
         24    2    5    5    0    0  0.98162687285E+02  0.58819770168E+02  0.67360579698E+03  0.68792987605E+03  0.80044150905E+02 0.  0.
          2    1    6    6  501    0  0.81437026051E+02  0.67843724073E+02  0.64457450097E+03  0.65323123579E+03  0.00000000000E+00 0. -1.
         -1    1    6    6    0  501  0.16725661235E+02 -0.90239539047E+01  0.29031296014E+02  0.34698640263E+02  0.00000000000E+00 0.  1.
          5    1    5    5  502    0  0.14067958333E+02  0.17847909091E+02  0.27651878964E+01  0.23370741851E+02  0.47000000000E+01 0. -1.
         11    1    4    4    0    0 -0.78183654480E+02 -0.61934430938E+02  0.30439242039E+03  0.32031750366E+03  0.00000000000E+00 0. -1.
        -12    1    4    4    0    0  0.18005852553E+02  0.81324497277E+01  0.74456681078E+02  0.77033400690E+02  0.00000000000E+00 0.  1.
         -5    1    3    3    0  504 -0.52052843690E+02 -0.22865698049E+02  0.24498343521E+02  0.62085405038E+02  0.47000000000E+01 0.  1.
<mgrwt>
<rscale>  2 0.22011650E+03</rscale>
<asrwt>0</asrwt>
<pdfrwt beam="1">  1       21 0.17311193E+00 0.22016099E+03</pdfrwt>
<pdfrwt beam="2">  1       21 0.70014237E-02 0.22016099E+03</pdfrwt>
<totfact> 0.30153042E+04</totfact>
</mgrwt>
</event>
<event>
12    1  0.2742799E-001  0.1776408E+03  0.7546771E-02  0.1170125E+00
         21   -1    0    0  502  503  0.00000000000E+00  0.00000000000E+00  0.66851937653E+03  0.66851937653E+03  0.00000000000E+00 0.  1.
         21   -1    0    0  503  504 -0.00000000000E+00 -0.00000000000E+00 -0.56736420559E+02  0.56736420559E+02  0.00000000000E+00 0.  1.
         -6    2    1    2    0  504  0.38426575134E+02 -0.98136211781E+01  0.15714363118E+03  0.23717163954E+03  0.17315702973E+03 0.  0.
        -24    2    3    3    0    0 -0.16917219776E+02  0.44234019048E+02  0.51149071329E+02  0.10586657579E+03  0.79678501524E+02 0.  0.
          6    2    1    2  502    0 -0.38426575134E+02  0.98136211781E+01  0.45463932479E+03  0.48808415754E+03  0.17307894258E+03 0.  0.
         24    2    5    5    0    0  0.40517909524E+02 -0.80460359653E+01  0.30082978932E+03  0.31421448736E+03  0.80782066291E+02 0.  0.
          4    1    6    6  501    0  0.42793389458E+02  0.29615300888E+02  0.15138572906E+03  0.16008116439E+03  0.00000000000E+00 0. -1.
         -3    1    6    6    0  501 -0.22754799340E+01 -0.37661336853E+02  0.14944406026E+03  0.15413332297E+03  0.00000000000E+00 0.  1.
          5    1    5    5  502    0 -0.78944484658E+02  0.17859657143E+02  0.15380953547E+03  0.17386967019E+03  0.47000000000E+01 0. -1.
         11    1    4    4    0    0 -0.11765106759E+02 -0.22615585564E+02  0.16815756523E+02  0.30539353545E+02  0.00000000000E+00 0. -1.
        -12    1    4    4    0    0 -0.51521130174E+01  0.66849604613E+02  0.34333314805E+02  0.75327222243E+02  0.00000000000E+00 0.  1.
         -5    1    3    3    0  504  0.55343794910E+02 -0.54047640226E+02  0.10599455985E+03  0.13130506375E+03  0.47000000000E+01 0.  1.
<mgrwt>
<rscale>  2 0.17762180E+03</rscale>
<asrwt>0</asrwt>
<pdfrwt beam="1">  1       21 0.10284913E+00 0.17764083E+03</pdfrwt>
<pdfrwt beam="2">  1       21 0.87286806E-02 0.17764083E+03</pdfrwt>
<totfact> 0.79659471E+04</totfact>
</mgrwt>
</event>
<event>
12    1  0.2742799E-001  0.2761256E+03  0.7546771E-02  0.1098274E+00
         21   -1    0    0  502  503  0.00000000000E+00  0.00000000000E+00  0.48441813845E+03  0.48441813845E+03  0.00000000000E+00 0.  1.
         21   -1    0    0  503  504 -0.00000000000E+00 -0.00000000000E+00 -0.15557312823E+03  0.15557312823E+03  0.00000000000E+00 0. -1.
         -6    2    1    2    0  504 -0.16838491393E+02  0.21501257198E+03  0.16558421578E+03  0.31921181057E+03  0.16722471883E+03 0.  0.
        -24    2    3    3    0    0 -0.13874590810E+02  0.22628831324E+03  0.17965481553E+03  0.30034387944E+03  0.80818860399E+02 0.  0.
          6    2    1    2  502    0  0.16838491393E+02 -0.21501257198E+03  0.16326079444E+03  0.32077945612E+03  0.17242804750E+03 0.  0.
         24    2    5    5    0    0 -0.55931959451E+02 -0.12254120148E+03  0.10865872249E+03  0.19097202513E+03  0.80739496296E+02 0.  0.
          4    1    6    6  501    0 -0.51216286760E+02 -0.10829532545E+03  0.48956833442E+02  0.12941312563E+03  0.00000000000E+00 0. -1.
         -3    1    6    6    0  501 -0.47156726907E+01 -0.14245876030E+02  0.59701889044E+02  0.61558899504E+02  0.00000000000E+00 0.  1.
          5    1    5    5  502    0  0.72770450844E+02 -0.92471370498E+02  0.54602071954E+02  0.12980743099E+03  0.47000000000E+01 0. -1.
         11    1    4    4    0    0  0.29691226305E+02  0.48224360854E+02  0.32687870705E+02  0.65388491270E+02  0.00000000000E+00 0. -1.
        -12    1    4    4    0    0 -0.43565817115E+02  0.17806395238E+03  0.14696694482E+03  0.23495538817E+03  0.00000000000E+00 0.  1.
         -5    1    3    3    0  504 -0.29639005837E+01 -0.11275741261E+02 -0.14070599750E+02  0.18867931126E+02  0.47000000000E+01 0.  1.
<mgrwt>
<rscale>  2 0.27531736E+03</rscale>
<asrwt>0</asrwt>
<pdfrwt beam="1">  1       21 0.74525867E-01 0.27612565E+03</pdfrwt>
<pdfrwt beam="2">  1       21 0.23934328E-01 0.27612565E+03</pdfrwt>
<totfact> 0.25459645E+04</totfact>
</mgrwt>
</event>
<event>
12    1  0.2742799E-001  0.1966294E+03  0.7546771E-02  0.1153183E+00
         21   -1    0    0  502  503  0.00000000000E+00  0.00000000000E+00  0.89112756895E+02  0.89112756895E+02  0.00000000000E+00 0. -1.
         21   -1    0    0  503  504 -0.00000000000E+00 -0.00000000000E+00 -0.66977379404E+03  0.66977379404E+03  0.00000000000E+00 0. -1.
         -6    2    1    2    0  504 -0.90974114876E+02  0.11690812949E+02 -0.51700776436E+03  0.55221079025E+03  0.17095836854E+03 0.  0.
        -24    2    3    3    0    0 -0.11398423178E+03  0.10396146461E+02 -0.26674997953E+03  0.30085011212E+03  0.79086999106E+02 0.  0.
          6    2    1    2  502    0  0.90974114876E+02 -0.11690812949E+02 -0.63653272782E+02  0.20667576068E+03  0.17392574920E+03 0.  0.
         24    2    5    5    0    0  0.57357748799E+02  0.59343394714E+01 -0.10807382806E+03  0.14805851239E+03  0.83163952815E+02 0.  0.
          4    1    6    6  501    0  0.72574692878E+02  0.85491067133E+01 -0.11045047617E+03  0.13243670548E+03  0.00000000000E+00 0. -1.
         -3    1    6    6    0  501 -0.15216944079E+02 -0.26147672419E+01  0.23766481144E+01  0.15621806909E+02  0.00000000000E+00 0.  1.
          5    1    5    5  502    0  0.33616366077E+02 -0.17625152420E+02  0.44420555279E+02  0.58617248292E+02  0.47000000000E+01 0. -1.
         11    1    4    4    0    0 -0.10714203394E+03  0.32157085740E+02 -0.24500865729E+03  0.26933758695E+03  0.00000000000E+00 0. -1.
        -12    1    4    4    0    0 -0.68421978429E+01 -0.21760939279E+02 -0.21741322248E+02  0.31512525172E+02  0.00000000000E+00 0.  1.
         -5    1    3    3    0  504  0.23010116904E+02  0.12946664882E+01 -0.25025778483E+03  0.25136067813E+03  0.47000000000E+01 0.  1.
<mgrwt>
<rscale>  2 0.19597117E+03</rscale>
<asrwt>0</asrwt>
<pdfrwt beam="1">  1       21 0.13709655E-01 0.19662943E+03</pdfrwt>
<pdfrwt beam="2">  1       21 0.10304212E+00 0.19662943E+03</pdfrwt>
<totfact> 0.35221162E+04</totfact>
</mgrwt>
</event>
<event>
12    1  0.2742799E-001  0.2111400E+03  0.7546771E-02  0.1141651E+00
         21   -1    0    0  502  503  0.00000000000E+00  0.00000000000E+00  0.16279901475E+03  0.16279901475E+03  0.00000000000E+00 0.  1.
         21   -1    0    0  503  504 -0.00000000000E+00 -0.00000000000E+00 -0.27875568544E+03  0.27875568544E+03  0.00000000000E+00 0.  1.
         -6    2    1    2    0  504  0.32851611162E+02  0.11043761812E+03 -0.10308065586E+03  0.23495897108E+03  0.17693049660E+03 0.  0.
        -24    2    3    3    0    0  0.72843025516E+02  0.42143509702E+02 -0.16870886120E+02  0.11783675771E+03  0.80738422658E+02 0.  0.
          6    2    1    2  502    0 -0.32851611162E+02 -0.11043761812E+03 -0.12876014838E+02  0.20659572911E+03  0.17099797565E+03 0.  0.
         24    2    5    5    0    0 -0.11816498845E+02 -0.13454933911E+03  0.22703459234E+02  0.15851413164E+03  0.79800554945E+02 0.  0.
          4    1    6    6  501    0  0.21627040185E+02 -0.10426797613E+03  0.34401916366E+02  0.11190635176E+03  0.00000000000E+00 0. -1.
         -3    1    6    6    0  501 -0.33443539030E+02 -0.30281362975E+02 -0.11698457132E+02  0.46607779884E+02  0.00000000000E+00 0.  1.
          5    1    5    5  502    0 -0.21035112317E+02  0.24111720994E+02 -0.35579474072E+02  0.48081597464E+02  0.47000000000E+01 0. -1.
         11    1    4    4    0    0  0.79154482434E+01 -0.20229320048E+02  0.99506286742E+01  0.23893403305E+02  0.00000000000E+00 0. -1.
        -12    1    4    4    0    0  0.64927577272E+02  0.62372829749E+02 -0.26821514794E+02  0.93943354407E+02  0.00000000000E+00 0.  1.
         -5    1    3    3    0  504 -0.39991414354E+02  0.68294108415E+02 -0.86209769737E+02  0.11712221337E+03  0.47000000000E+01 0.  1.
<mgrwt>
<rscale>  2 0.20989251E+03</rscale>
<asrwt>0</asrwt>
<pdfrwt beam="1">  1       21 0.25046003E-01 0.21113999E+03</pdfrwt>
<pdfrwt beam="2">  1       21 0.42885490E-01 0.21113999E+03</pdfrwt>
<totfact> 0.78305320E+04</totfact>
</mgrwt>
</event>
<event>
12    1  0.2742799E-001  0.2503259E+03  0.7546771E-02  0.1113100E+00
         21   -1    0    0  502  503  0.00000000000E+00  0.00000000000E+00  0.17802052093E+03  0.17802052093E+03  0.00000000000E+00 0. -1.
         21   -1    0    0  503  504 -0.00000000000E+00 -0.00000000000E+00 -0.55661996958E+03  0.55661996958E+03  0.00000000000E+00 0.  1.
         -6    2    1    2    0  504  0.11792087755E+03 -0.13711134884E+03 -0.41201465346E+03  0.48209420526E+03  0.17307192937E+03 0.  0.
        -24    2    3    3    0    0  0.12884303254E+02 -0.81059498988E+02 -0.11837630021E+03  0.16520295528E+03  0.80885229404E+02 0.  0.
          6    2    1    2  502    0 -0.11792087755E+03  0.13711134884E+03  0.33415204809E+02  0.25254628524E+03  0.17308435785E+03 0.  0.
         24    2    5    5    0    0 -0.13744892434E+03  0.10876385891E+03 -0.14285247395E+02  0.19353486315E+03  0.80807741909E+02 0.  0.
          4    1    6    6  501    0 -0.97576085779E+02  0.51575746661E+02  0.25485586537E+02  0.11327252659E+03  0.00000000000E+00 0. -1.
         -3    1    6    6    0  501 -0.39872838565E+02  0.57188112247E+02 -0.39770833931E+02  0.80262336555E+02  0.00000000000E+00 0.  1.
          5    1    5    5  502    0  0.19528046789E+02  0.28347489935E+02  0.47700452204E+02  0.59011422093E+02  0.47000000000E+01 0. -1.
         11    1    4    4    0    0  0.21903176699E+02 -0.16652593824E+02  0.28209463051E+01  0.27658918429E+02  0.00000000000E+00 0. -1.
        -12    1    4    4    0    0 -0.90188734457E+01 -0.64406905164E+02 -0.12119724651E+03  0.13754403685E+03  0.00000000000E+00 0.  1.
         -5    1    3    3    0  504  0.10503657430E+03 -0.56051849856E+02 -0.29363835325E+03  0.31689124998E+03  0.47000000000E+01 0.  1.
<mgrwt>
<rscale>  2 0.25032374E+03</rscale>
<asrwt>0</asrwt>
<pdfrwt beam="1">  1       21 0.27387773E-01 0.25032589E+03</pdfrwt>
<pdfrwt beam="2">  1       21 0.85633841E-01 0.25032589E+03</pdfrwt>
<totfact> 0.14478251E+04</totfact>
</mgrwt>
</event>
<event>
12    1  0.2742799E-001  0.1943786E+03  0.7546771E-02  0.1155052E+00
         21   -1    0    0  502  503  0.00000000000E+00  0.00000000000E+00  0.56209568956E+03  0.56209568956E+03  0.00000000000E+00 0. -1.
         21   -1    0    0  503  504 -0.00000000000E+00 -0.00000000000E+00 -0.68207566636E+02  0.68207566636E+02  0.00000000000E+00 0. -1.
         -6    2    1    2    0  504 -0.80999993933E+02 -0.29741233595E+02  0.19792374561E+03  0.27741099221E+03  0.17417666184E+03 0.  0.
        -24    2    3    3    0    0 -0.32078278835E+02  0.10640611952E+02  0.30434173196E+02  0.98249404458E+02  0.87088851081E+02 0.  0.
          6    2    1    2  502    0  0.80999993933E+02  0.29741233595E+02  0.29596437731E+03  0.35289226398E+03  0.17173379793E+03 0.  0.
         24    2    5    5    0    0  0.41721331134E+02  0.40197186012E+02  0.65425428714E+02  0.11875034738E+03  0.80403202952E+02 0.  0.
          2    1    6    6  501    0  0.38534054193E+02  0.58830950748E+02  0.25915044272E+02  0.74950274303E+02  0.00000000000E+00 0. -1.
         -1    1    6    6    0  501  0.31872769415E+01 -0.18633764736E+02  0.39510384442E+02  0.43800073074E+02  0.00000000000E+00 0.  1.
          5    1    5    5  502    0  0.39278662798E+02 -0.10455952417E+02  0.23053894859E+03  0.23414191660E+03  0.47000000000E+01 0. -1.
         13    1    4    4    0    0 -0.59744234869E+02 -0.73166342497E+01  0.16247178874E+02  0.62344827838E+02  0.00000000000E+00 0. -1.
        -14    1    4    4    0    0  0.27665956034E+02  0.17957246201E+02  0.14186994322E+02  0.35904576620E+02  0.00000000000E+00 0.  1.
         -5    1    3    3    0  504 -0.48921715097E+02 -0.40381845546E+02  0.16748957242E+03  0.17916158775E+03  0.47000000000E+01 0.  1.
<mgrwt>
<rscale>  2 0.19382983E+03</rscale>
<asrwt>0</asrwt>
<pdfrwt beam="1">  1       21 0.86476257E-01 0.19437862E+03</pdfrwt>
<pdfrwt beam="2">  1       21 0.10493472E-01 0.19437862E+03</pdfrwt>
<totfact> 0.85773028E+04</totfact>
</mgrwt>
</event>
<event>
12    1  0.2742799E-001  0.2188927E+03  0.7546771E-02  0.1135592E+00
         21   -1    0    0  502  503  0.00000000000E+00  0.00000000000E+00  0.76795608478E+03  0.76795608478E+03  0.00000000000E+00 0. -1.
         21   -1    0    0  503  504 -0.00000000000E+00 -0.00000000000E+00 -0.10652794726E+03  0.10652794726E+03  0.00000000000E+00 0.  1.
         -6    2    1    2    0  504 -0.38725588070E+02  0.12753357624E+03  0.43082759349E+02  0.21853814455E+03  0.16774478302E+03 0.  0.
        -24    2    3    3    0    0 -0.58899513792E+02  0.96045939326E+02  0.84702073936E+02  0.16238909377E+03  0.80633747647E+02 0.  0.
          6    2    1    2  502    0  0.38725588070E+02 -0.12753357624E+03  0.61834537817E+03  0.65594588750E+03  0.17363616092E+03 0.  0.
         24    2    5    5    0    0  0.28927280615E+02 -0.10817254378E+02  0.14566967190E+03  0.16895192458E+03  0.79820416888E+02 0.  0.
          2    1    6    6  501    0  0.15543745306E+02  0.33153847753E+02  0.87224442589E+02  0.94598567769E+02  0.00000000000E+00 0. -1.
         -1    1    6    6    0  501  0.13383535309E+02 -0.43971102131E+02  0.58445229306E+02  0.74353356808E+02  0.00000000000E+00 0.  1.
          5    1    5    5  502    0  0.97983074552E+01 -0.11671632186E+03  0.47267570627E+03  0.48699396292E+03  0.47000000000E+01 0. -1.
         13    1    4    4    0    0 -0.70026338944E+02  0.58716140106E+02  0.31940614735E+02  0.96806384730E+02  0.00000000000E+00 0. -1.
        -14    1    4    4    0    0  0.11126825152E+02  0.37329799221E+02  0.52761459201E+02  0.65582709038E+02  0.00000000000E+00 0.  1.
         -5    1    3    3    0  504  0.20173925722E+02  0.31487636912E+02 -0.41619314587E+02  0.56149050785E+02  0.47000000000E+01 0.  1.
<mgrwt>
<rscale>  2 0.21772250E+03</rscale>
<asrwt>0</asrwt>
<pdfrwt beam="1">  1       21 0.11814709E+00 0.21889267E+03</pdfrwt>
<pdfrwt beam="2">  1       21 0.16388915E-01 0.21889267E+03</pdfrwt>
<totfact> 0.18012275E+04</totfact>
</mgrwt>
</event>
<event>
12    1  0.2742799E-001  0.2361863E+03  0.7546771E-02  0.1122456E+00
         21   -1    0    0  502  503  0.00000000000E+00  0.00000000000E+00  0.11430296630E+04  0.11430296630E+04  0.00000000000E+00 0. -1.
         21   -1    0    0  503  504 -0.00000000000E+00 -0.00000000000E+00 -0.16240218450E+03  0.16240218450E+03  0.00000000000E+00 0. -1.
         -6    2    1    2    0  504  0.10327020157E+03 -0.12267021977E+03 -0.56044909944E+02  0.24219452597E+03  0.17263962213E+03 0.  0.
        -24    2    3    3    0    0  0.99445662157E+02 -0.14292006284E+03 -0.81822574236E+02  0.20885894105E+03  0.81311373849E+02 0.  0.
          6    2    1    2  502    0 -0.10327020157E+03  0.12267021977E+03  0.10366723884E+04  0.10632373215E+04  0.17341062124E+03 0.  0.
         24    2    5    5    0    0 -0.17940488512E+02  0.12041273817E+03  0.75126953210E+03  0.76530589222E+03  0.80412126989E+02 0.  0.
          2    1    6    6  501    0 -0.11812828275E+02  0.26548436584E+02  0.41820704425E+03  0.41921533161E+03  0.00000000000E+00 0. -1.
         -1    1    6    6    0  501 -0.61276602373E+01  0.93864301581E+02  0.33306248785E+03  0.34609056061E+03  0.00000000000E+00 0.  1.
          5    1    5    5  502    0 -0.85329713061E+02  0.22574816048E+01  0.28540285630E+03  0.29793142926E+03  0.47000000000E+01 0. -1.
         11    1    4    4    0    0  0.16052463561E+02 -0.80081044969E+02 -0.62083160865E+02  0.10259129696E+03  0.00000000000E+00 0. -1.
        -12    1    4    4    0    0  0.83393198595E+02 -0.62839017867E+02 -0.19739413370E+02  0.10626764408E+03  0.00000000000E+00 0.  1.
         -5    1    3    3    0  504  0.38245394169E+01  0.20249843066E+02  0.25777664292E+02  0.33335584925E+02  0.47000000000E+01 0.  1.
<mgrwt>
<rscale>  2 0.23604478E+03</rscale>
<asrwt>0</asrwt>
<pdfrwt beam="1">  1       21 0.17585071E+00 0.23618628E+03</pdfrwt>
<pdfrwt beam="2">  1       21 0.24984952E-01 0.23618628E+03</pdfrwt>
<totfact> 0.28351750E+03</totfact>
</mgrwt>
</event>
<event>
12    1  0.2742799E-001  0.2416753E+03  0.7546771E-02  0.1118736E+00
         21   -1    0    0  502  503  0.00000000000E+00  0.00000000000E+00  0.10699685841E+04  0.10699685841E+04  0.00000000000E+00 0.  1.
         21   -1    0    0  503  504 -0.00000000000E+00 -0.00000000000E+00 -0.62581031830E+02  0.62581031830E+02  0.00000000000E+00 0. -1.
         -6    2    1    2    0  504  0.15048398728E+03  0.75672276513E+02  0.30066847736E+03  0.38575703021E+03  0.17330674891E+03 0.  0.
        -24    2    3    3    0    0  0.16936394353E+03  0.46064457915E+02  0.18233747049E+03  0.26223621069E+03  0.68664382318E+02 0.  0.
          6    2    1    2  502    0 -0.15048398728E+03 -0.75672276513E+02  0.70671907488E+03  0.74679258569E+03  0.17284557091E+03 0.  0.
         24    2    5    5    0    0 -0.96222922295E+02 -0.54224071338E+01  0.56964231850E+03  0.58341745153E+03  0.81211442878E+02 0.  0.
          2    1    6    6  501    0 -0.16327180935E+02 -0.15762134234E+02  0.32625736169E+03  0.32704569676E+03  0.00000000000E+00 0. -1.
         -1    1    6    6    0  501 -0.79895741360E+02  0.10339727101E+02  0.24338495681E+03  0.25637175477E+03  0.00000000000E+00 0.  1.
          5    1    5    5  502    0 -0.54261064987E+02 -0.70249869379E+02  0.13707675638E+03  0.16337513416E+03  0.47000000000E+01 0. -1.
         11    1    4    4    0    0  0.94399821415E+02  0.18252751725E+02  0.14502393231E+03  0.17400123612E+03  0.00000000000E+00 0. -1.
        -12    1    4    4    0    0  0.74964122110E+02  0.27811706190E+02  0.37313538187E+02  0.88234974568E+02  0.00000000000E+00 0.  1.
         -5    1    3    3    0  504 -0.18879956243E+02  0.29607818599E+02  0.11833100687E+03  0.12352081952E+03  0.47000000000E+01 0.  1.
<mgrwt>
<rscale>  2 0.24159264E+03</rscale>
<asrwt>0</asrwt>
<pdfrwt beam="1">  1       21 0.16461054E+00 0.24167531E+03</pdfrwt>
<pdfrwt beam="2">  1       21 0.96278519E-02 0.24167531E+03</pdfrwt>
<totfact> 0.19590023E+04</totfact>
</mgrwt>
</event>
<event>
12    1  0.2742799E-001  0.1781133E+03  0.7546771E-02  0.1169866E+00
         21   -1    0    0  502  503  0.00000000000E+00  0.00000000000E+00  0.85599140584E+02  0.85599140584E+02  0.00000000000E+00 0. -1.
         21   -1    0    0  503  504 -0.00000000000E+00 -0.00000000000E+00 -0.57314083659E+03  0.57314083659E+03  0.00000000000E+00 0. -1.
         -6    2    1    2    0  504  0.97981128611E+01  0.37594336686E+02 -0.44088002528E+03  0.47549925999E+03  0.17382465992E+03 0.  0.
        -24    2    3    3    0    0  0.20998765861E+02 -0.29846133771E+02 -0.12751183014E+03  0.15472615107E+03  0.79681711388E+02 0.  0.
          6    2    1    2  502    0 -0.97981128611E+01 -0.37594336686E+02 -0.46661670724E+02  0.18324071718E+03  0.17288872650E+03 0.  0.
         24    2    5    5    0    0 -0.25533463545E+02 -0.71539931617E+02 -0.72597516345E+02  0.13747323129E+03  0.88648577914E+02 0.  0.
          4    1    6    6  501    0 -0.41674655735E+02 -0.29113819499E+02  0.11789757697E+01  0.50850579155E+02  0.00000000000E+00 0. -1.
         -3    1    6    6    0  501  0.16141192190E+02 -0.42426112118E+02 -0.73776492115E+02  0.86622652139E+02  0.00000000000E+00 0.  1.
          5    1    5    5  502    0  0.15735350684E+02  0.33945594932E+02  0.25935845621E+02  0.45767485888E+02  0.47000000000E+01 0. -1.
         11    1    4    4    0    0  0.17792506458E+02  0.16563077974E+02 -0.94773276181E+02  0.97841109541E+02  0.00000000000E+00 0. -1.
        -12    1    4    4    0    0  0.32062594037E+01 -0.46409211745E+02 -0.32738553956E+02  0.56885041525E+02  0.00000000000E+00 0.  1.
         -5    1    3    3    0  504 -0.11200653000E+02  0.67440470456E+02 -0.31336819514E+03  0.32077310892E+03  0.47000000000E+01 0.  1.
<mgrwt>
<rscale>  2 0.17788455E+03</rscale>
<asrwt>0</asrwt>
<pdfrwt beam="1">  1       21 0.13169099E-01 0.17811331E+03</pdfrwt>
<pdfrwt beam="2">  1       21 0.88175512E-01 0.17811331E+03</pdfrwt>
<totfact> 0.55082523E+04</totfact>
</mgrwt>
</event>
<event>
12    1  0.2742799E-001  0.2205310E+03  0.7546771E-02  0.1133756E+00
         21   -1    0    0  502  503  0.00000000000E+00  0.00000000000E+00  0.15058373030E+03  0.15058373030E+03  0.00000000000E+00 0. -1.
         21   -1    0    0  503  504 -0.00000000000E+00 -0.00000000000E+00 -0.49329376248E+03  0.49329376248E+03  0.00000000000E+00 0.  1.
         -6    2    1    2    0  504  0.12751881083E+03  0.41013296068E+02 -0.36205681260E+03  0.42393284806E+03  0.17518786074E+03 0.  0.
        -24    2    3    3    0    0  0.87191411097E+02  0.27713669549E+02 -0.86970146364E+02  0.14554832412E+03  0.72457702461E+02 0.  0.
          6    2    1    2  502    0 -0.12751881083E+03 -0.41013296068E+02  0.19346780414E+02  0.21994464472E+03  0.17337304075E+03 0.  0.
         24    2    5    5    0    0 -0.16227315960E+03 -0.23571999780E+02  0.53214360268E+01  0.17834099272E+03  0.69921202106E+02 0.  0.
          2    1    6    6  501    0 -0.85429890395E+02 -0.67852380552E+01  0.37259910071E+02  0.93448416396E+02  0.00000000000E+00 0. -1.
         -1    1    6    6    0  501 -0.76843269202E+02 -0.16786761724E+02 -0.31938474044E+02  0.84892576325E+02  0.00000000000E+00 0.  1.
          5    1    5    5  502    0  0.34754348769E+02 -0.17441296288E+02  0.14025344387E+02  0.41603652000E+02  0.47000000000E+01 0. -1.
         13    1    4    4    0    0  0.10101538010E+02  0.29359826490E+02 -0.24580151311E+01  0.31146144546E+02  0.00000000000E+00 0. -1.
        -14    1    4    4    0    0  0.77089873087E+02 -0.16461569416E+01 -0.84512131233E+02  0.11440217957E+03  0.00000000000E+00 0.  1.
         -5    1    3    3    0  504  0.40327399731E+02  0.13299626519E+02 -0.27508666623E+03  0.27838452395E+03  0.47000000000E+01 0.  1.
<mgrwt>
<rscale>  2 0.22017040E+03</rscale>
<asrwt>0</asrwt>
<pdfrwt beam="1">  1       21 0.23166728E-01 0.22053100E+03</pdfrwt>
<pdfrwt beam="2">  1       21 0.75891347E-01 0.22053100E+03</pdfrwt>
<totfact> 0.26693918E+04</totfact>
</mgrwt>
</event>
<event>
12    1  0.2742799E-001  0.2230059E+03  0.7546771E-02  0.1131810E+00
         21   -1    0    0  502  503  0.00000000000E+00  0.00000000000E+00  0.58626426332E+02  0.58626426332E+02  0.00000000000E+00 0.  1.
         21   -1    0    0  503  504 -0.00000000000E+00 -0.00000000000E+00 -0.17069969457E+04  0.17069969457E+04  0.00000000000E+00 0.  1.
         -6    2    1    2    0  504 -0.26599852437E+02 -0.13704168967E+03 -0.14521940058E+04  0.14692171524E+04  0.17390696852E+03 0.  0.
        -24    2    3    3    0    0  0.54515061584E+02 -0.62829746112E+02 -0.84274050547E+03  0.84990890859E+03  0.72208894208E+02 0.  0.
          6    2    1    2  502    0  0.26599852437E+02  0.13704168967E+03 -0.19617651353E+03  0.29640621955E+03  0.17286828995E+03 0.  0.
         24    2    5    5    0    0  0.10475844325E+02  0.51904270492E+02 -0.17479959600E+03  0.20703381674E+03  0.97490029759E+02 0.  0.
          2    1    6    6  501    0  0.88235093538E+01 -0.19494385645E+02 -0.10504724043E+03  0.10720451534E+03  0.00000000000E+00 0. -1.
         -1    1    6    6    0  501  0.16523349712E+01  0.71398656137E+02 -0.69752355572E+02  0.99829301394E+02  0.00000000000E+00 0.  1.
          5    1    5    5  502    0  0.16124008112E+02  0.85137419174E+02 -0.21376917533E+02  0.89372402812E+02  0.47000000000E+01 0. -1.
         11    1    4    4    0    0  0.25216195209E+02 -0.58813320806E+01 -0.53239418267E+03  0.53302346319E+03  0.00000000000E+00 0. -1.
        -12    1    4    4    0    0  0.29298866375E+02 -0.56948414031E+02 -0.31034632281E+03  0.31688544541E+03  0.00000000000E+00 0.  1.
         -5    1    3    3    0  504 -0.81114914021E+02 -0.74211943555E+02 -0.60945350031E+03  0.61930824384E+03  0.47000000000E+01 0.  1.
<mgrwt>
<rscale>  2 0.22280332E+03</rscale>
<asrwt>0</asrwt>
<pdfrwt beam="1">  1       21 0.90194499E-02 0.22300585E+03</pdfrwt>
<pdfrwt beam="2">  1       21 0.26261492E+00 0.22300585E+03</pdfrwt>
<totfact> 0.52963699E+03</totfact>
</mgrwt>
</event>
<event>
12    1  0.2742799E-001  0.2015021E+03  0.7546771E-02  0.1149749E+00
         21   -1    0    0  502  503  0.00000000000E+00  0.00000000000E+00  0.19431276558E+03  0.19431276558E+03  0.00000000000E+00 0. -1.
         21   -1    0    0  503  504 -0.00000000000E+00 -0.00000000000E+00 -0.54519236764E+03  0.54519236764E+03  0.00000000000E+00 0.  1.
         -6    2    1    2    0  504 -0.89964923695E+02 -0.52643377108E+02 -0.46746681664E+03  0.50670547312E+03  0.16540918712E+03 0.  0.
        -24    2    3    3    0    0 -0.88605790726E+02 -0.95449152678E+02 -0.33286677550E+03  0.36537804217E+03  0.75758145242E+02 0.  0.
          6    2    1    2  502    0  0.89964923695E+02  0.52643377108E+02  0.11658721458E+03  0.23279966010E+03  0.17244735570E+03 0.  0.
         24    2    5    5    0    0  0.90923867833E+02 -0.38287116925E+01  0.12608217076E+03  0.17533436118E+03  0.81016144387E+02 0.  0.
          2    1    6    6  501    0  0.12344439860E+02  0.38048163963E+01  0.85678821696E+02  0.86647113688E+02  0.00000000000E+00 0. -1.
         -1    1    6    6    0  501  0.78579427973E+02 -0.76335280888E+01  0.40403349061E+02  0.88687247488E+02  0.00000000000E+00 0.  1.
          5    1    5    5  502    0 -0.95894413802E+00  0.56472088801E+02 -0.94949561741E+01  0.57465298922E+02  0.47000000000E+01 0. -1.
         13    1    4    4    0    0 -0.21804789841E+01 -0.50499045502E+02 -0.14834736078E+03  0.15672219861E+03  0.00000000000E+00 0. -1.
        -14    1    4    4    0    0 -0.86425311741E+02 -0.44950107176E+02 -0.18451941472E+03  0.20865584356E+03  0.00000000000E+00 0.  1.
         -5    1    3    3    0  504 -0.13591329691E+01  0.42805775569E+02 -0.13460004114E+03  0.14132743095E+03  0.47000000000E+01 0.  1.
<mgrwt>
<rscale>  2 0.19998777E+03</rscale>
<asrwt>0</asrwt>
<pdfrwt beam="1">  1       21 0.29894271E-01 0.20150212E+03</pdfrwt>
<pdfrwt beam="2">  1       21 0.83875749E-01 0.20150212E+03</pdfrwt>
<totfact> 0.13176570E+04</totfact>
</mgrwt>
</event>
<event>
12    1  0.2742799E-001  0.1844643E+03  0.7546771E-02  0.1164555E+00
         21   -1    0    0  502  503  0.00000000000E+00  0.00000000000E+00  0.20831434656E+03  0.20831434656E+03  0.00000000000E+00 0. -1.
         21   -1    0    0  503  504 -0.00000000000E+00 -0.00000000000E+00 -0.17685729913E+03  0.17685729913E+03  0.00000000000E+00 0. -1.
         -6    2    1    2    0  504 -0.95366238060E+01  0.56309690739E+02  0.75686614026E+02  0.19547888407E+03  0.17094385660E+03 0.  0.
        -24    2    3    3    0    0  0.55038967371E+02  0.50774427328E+02  0.53374965230E+02  0.12677265591E+03  0.87264477150E+02 0.  0.
          6    2    1    2  502    0  0.95366238060E+01 -0.56309690739E+02 -0.44229566594E+02  0.18969276161E+03  0.17540057236E+03 0.  0.
         24    2    5    5    0    0  0.58710287952E+02 -0.56322019664E+02 -0.69328815900E+02  0.13428417281E+03  0.81281526452E+02 0.  0.
          4    1    6    6  501    0  0.66832281416E+02 -0.66213826920E+02 -0.39895444847E+02  0.10218841047E+03  0.00000000000E+00 0. -1.
         -3    1    6    6    0  501 -0.81219934634E+01  0.98918072564E+01 -0.29433371053E+02  0.32095762340E+02  0.00000000000E+00 0.  1.
          5    1    5    5  502    0 -0.49173664146E+02  0.12328925286E-01  0.25099249307E+02  0.55408588805E+02  0.47000000000E+01 0. -1.
         13    1    4    4    0    0  0.37925454923E+01  0.29510461610E+02  0.63728615622E+02  0.70331978466E+02  0.00000000000E+00 0. -1.
        -14    1    4    4    0    0  0.51246421879E+02  0.21263965717E+02 -0.10353650392E+02  0.56440677440E+02  0.00000000000E+00 0.  1.
         -5    1    3    3    0  504 -0.64575591177E+02  0.55352634110E+01  0.22311648796E+02  0.68706228167E+02  0.47000000000E+01 0.  1.
<mgrwt>
<rscale>  2 0.18339699E+03</rscale>
<asrwt>0</asrwt>
<pdfrwt beam="1">  1       21 0.32048361E-01 0.18446433E+03</pdfrwt>
<pdfrwt beam="2">  1       21 0.27208815E-01 0.18446433E+03</pdfrwt>
<totfact> 0.12092871E+05</totfact>
</mgrwt>
</event>
<event>
12    1  0.2742799E-001  0.1919868E+03  0.7546771E-02  0.1157121E+00
         21   -1    0    0  502  503  0.00000000000E+00  0.00000000000E+00  0.29311208992E+03  0.29311208992E+03  0.00000000000E+00 0.  1.
         21   -1    0    0  503  504 -0.00000000000E+00 -0.00000000000E+00 -0.12716229587E+03  0.12716229587E+03  0.00000000000E+00 0.  1.
         -6    2    1    2    0  504  0.27665054737E+02 -0.73604103658E+02  0.11399601619E+03  0.22328015123E+03  0.17514569620E+03 0.  0.
        -24    2    3    3    0    0  0.72169669814E+02 -0.43469667414E+01  0.76518358040E+02  0.13270489723E+03  0.80797111776E+02 0.  0.
          6    2    1    2  502    0 -0.27665054737E+02  0.73604103658E+02  0.51953777858E+02  0.19699423456E+03  0.17298732349E+03 0.  0.
         24    2    5    5    0    0 -0.69508975890E+02  0.60145009068E+02 -0.85171609689E+01  0.12208839095E+03  0.79900646608E+02 0.  0.
          2    1    6    6  501    0 -0.37465613598E+02 -0.10833670266E+02  0.13312830154E+02  0.41210096583E+02  0.00000000000E+00 0. -1.
         -1    1    6    6    0  501 -0.32043362292E+02  0.70978679335E+02 -0.21829991123E+02  0.80878294366E+02  0.00000000000E+00 0.  1.
          5    1    5    5  502    0  0.41843921153E+02  0.13459094590E+02  0.60470938827E+02  0.74905843612E+02  0.47000000000E+01 0. -1.
         13    1    4    4    0    0  0.14592688886E+02  0.12590271236E+02 -0.14193892756E+02  0.23935916325E+02  0.00000000000E+00 0. -1.
        -14    1    4    4    0    0  0.57576980928E+02 -0.16937237978E+02  0.90712250796E+02  0.10876898091E+03  0.00000000000E+00 0.  1.
         -5    1    3    3    0  504 -0.44504615077E+02 -0.69257136917E+02  0.37477658146E+02  0.90575254000E+02  0.47000000000E+01 0.  1.
<mgrwt>
<rscale>  2 0.19149316E+03</rscale>
<asrwt>0</asrwt>
<pdfrwt beam="1">  1       21 0.45094167E-01 0.19198681E+03</pdfrwt>
<pdfrwt beam="2">  1       21 0.19563430E-01 0.19198681E+03</pdfrwt>
<totfact> 0.11352628E+05</totfact>
</mgrwt>
</event>
<event>
12    1  0.2742799E-001  0.1812621E+03  0.7546771E-02  0.1167174E+00
         21   -1    0    0  502  503  0.00000000000E+00  0.00000000000E+00  0.95183476899E+03  0.95183476899E+03  0.00000000000E+00 0. -1.
         21   -1    0    0  503  504 -0.00000000000E+00 -0.00000000000E+00 -0.37048384596E+02  0.37048384596E+02  0.00000000000E+00 0. -1.
         -6    2    1    2    0  504 -0.64664063840E+01 -0.51364351651E+02  0.31974107880E+03  0.36754631818E+03  0.17371190950E+03 0.  0.
        -24    2    3    3    0    0  0.50808480289E+01  0.17260070797E+02  0.70278975940E+02  0.10851720552E+03  0.80703930353E+02 0.  0.
          6    2    1    2  502    0  0.64664063840E+01  0.51364351651E+02  0.59504530560E+03  0.62133683541E+03  0.17117370211E+03 0.  0.
         24    2    5    5    0    0  0.74198593326E+02  0.32637258304E+02  0.33621228883E+03  0.35309259271E+03  0.71169192669E+02 0.  0.
          4    1    6    6  501    0  0.78924723178E+02  0.14945800783E+02  0.31494759848E+03  0.32502996581E+03  0.00000000000E+00 0. -1.
         -3    1    6    6    0  501 -0.47261298519E+01  0.17691457522E+02  0.21264690357E+02  0.28062626901E+02  0.00000000000E+00 0.  1.
          5    1    5    5  502    0 -0.67732186942E+02  0.18727093347E+02  0.25883301676E+03  0.26824424270E+03  0.47000000000E+01 0. -1.
         11    1    4    4    0    0  0.38399228528E+01 -0.29468073190E+02  0.48656845853E+02  0.57014042072E+02  0.00000000000E+00 0. -1.
        -12    1    4    4    0    0  0.12409251761E+01  0.46728143987E+02  0.21622130087E+02  0.51503163450E+02  0.00000000000E+00 0.  1.
         -5    1    3    3    0  504 -0.11547254413E+02 -0.68624422449E+02  0.24946210286E+03  0.25902911266E+03  0.47000000000E+01 0.  1.
<mgrwt>
<rscale>  2 0.18065124E+03</rscale>
<asrwt>0</asrwt>
<pdfrwt beam="1">  1       21 0.14643610E+00 0.18126207E+03</pdfrwt>
<pdfrwt beam="2">  1       21 0.56997522E-02 0.18126207E+03</pdfrwt>
<totfact> 0.68935741E+04</totfact>
</mgrwt>
</event>
<event>
12    1  0.2742799E-001  0.1963977E+03  0.7546771E-02  0.1152903E+00
         21   -1    0    0  502  503  0.00000000000E+00  0.00000000000E+00  0.48901239546E+02  0.48901239546E+02  0.00000000000E+00 0.  1.
         21   -1    0    0  503  504 -0.00000000000E+00 -0.00000000000E+00 -0.15718133380E+04  0.15718133380E+04  0.00000000000E+00 0.  1.
         -6    2    1    2    0  504 -0.15295950996E+01 -0.94401180627E+02 -0.13336215004E+04  0.13479454802E+04  0.17174629192E+03 0.  0.
        -24    2    3    3    0    0  0.86735360443E+01 -0.13317427918E+03 -0.10348083126E+04  0.10464179222E+04  0.79696958489E+02 0.  0.
          6    2    1    2  502    0  0.15295950996E+01  0.94401180627E+02 -0.18929059811E+03  0.27276909736E+03  0.17221535176E+03 0.  0.
         24    2    5    5    0    0 -0.63871765374E+02  0.63146130417E+02 -0.97449016872E+02  0.15567434018E+03  0.81677127178E+02 0.  0.
          4    1    6    6  501    0 -0.35371744684E+02  0.53480058903E+01  0.34628605200E+01  0.35940963982E+02  0.00000000000E+00 0. -1.
         -3    1    6    6    0  501 -0.28500020690E+02  0.57798124526E+02 -0.10091187739E+03  0.11973337620E+03  0.00000000000E+00 0.  1.
          5    1    5    5  502    0  0.65401360473E+02  0.31255050211E+02 -0.91841581234E+02  0.11709475718E+03  0.47000000000E+01 0. -1.
         11    1    4    4    0    0 -0.27612109697E+02 -0.41808284051E+02 -0.51211587617E+03  0.51456100887E+03  0.00000000000E+00 0. -1.
        -12    1    4    4    0    0  0.36285645741E+02 -0.91365995128E+02 -0.52269243648E+03  0.53185691337E+03  0.00000000000E+00 0.  1.
         -5    1    3    3    0  504 -0.10203131144E+02  0.38773098551E+02 -0.29881318770E+03  0.30152755795E+03  0.47000000000E+01 0.  1.
<mgrwt>
<rscale>  2 0.19629481E+03</rscale>
<asrwt>0</asrwt>
<pdfrwt beam="1">  1       21 0.75232677E-02 0.19639768E+03</pdfrwt>
<pdfrwt beam="2">  1       21 0.24181743E+00 0.19639768E+03</pdfrwt>
<totfact> 0.98884158E+03</totfact>
</mgrwt>
</event>
<event>
12    1  0.2742799E-001  0.1771408E+03  0.7546771E-02  0.1171032E+00
         21   -1    0    0  502  503  0.00000000000E+00  0.00000000000E+00  0.58917633070E+02  0.58917633070E+02  0.00000000000E+00 0. -1.
         21   -1    0    0  503  504 -0.00000000000E+00 -0.00000000000E+00 -0.52860425617E+03  0.52860425617E+03  0.00000000000E+00 0. -1.
         -6    2    1    2    0  504 -0.34039182478E+02  0.11679877640E+02 -0.21942904084E+03  0.28091511204E+03  0.17166569466E+03 0.  0.
        -24    2    3    3    0    0  0.13355852106E+02 -0.13096753673E+02 -0.21102290325E+03  0.22657429946E+03  0.80345153800E+02 0.  0.
          6    2    1    2  502    0  0.34039182478E+02 -0.11679877640E+02 -0.25025758226E+03  0.30660677720E+03  0.17344674358E+03 0.  0.
         24    2    5    5    0    0 -0.15994478753E+02  0.45860151753E+02 -0.89322967128E+02  0.12846003267E+03  0.78513761002E+02 0.  0.
          2    1    6    6  501    0  0.27706846663E+02  0.14215166184E+02 -0.10350826294E+02  0.32815848406E+02  0.00000000000E+00 0. -1.
         -1    1    6    6    0  501 -0.43701325416E+02  0.31644985569E+02 -0.78972140834E+02  0.95644184260E+02  0.00000000000E+00 0.  1.
          5    1    5    5  502    0  0.50033661231E+02 -0.57540029394E+02 -0.16093461514E+03  0.17814674453E+03  0.47000000000E+01 0. -1.
         13    1    4    4    0    0 -0.17549797630E+02  0.14318334463E+02 -0.17315176451E+02  0.28510093549E+02  0.00000000000E+00 0. -1.
        -14    1    4    4    0    0  0.30905649736E+02 -0.27415088136E+02 -0.19370772680E+03  0.19806420591E+03  0.00000000000E+00 0.  1.
         -5    1    3    3    0  504 -0.47395034584E+02  0.24776631313E+02 -0.84061375874E+01  0.54340812578E+02  0.47000000000E+01 0.  1.
<mgrwt>
<rscale>  2 0.17670329E+03</rscale>
<asrwt>0</asrwt>
<pdfrwt beam="1">  1       21 0.90642511E-02 0.17714079E+03</pdfrwt>
<pdfrwt beam="2">  1       21 0.81323733E-01 0.17714079E+03</pdfrwt>
<totfact> 0.12856833E+05</totfact>
</mgrwt>
</event>
<event>
12    1  0.2742799E-001  0.1839559E+03  0.7546771E-02  0.1165823E+00
         21   -1    0    0  502  503  0.00000000000E+00  0.00000000000E+00  0.41636280039E+02  0.41636280039E+02  0.00000000000E+00 0. -1.
         21   -1    0    0  503  504 -0.00000000000E+00 -0.00000000000E+00 -0.94731711007E+03  0.94731711007E+03  0.00000000000E+00 0. -1.
         -6    2    1    2    0  504 -0.32765220315E+02 -0.40455069631E+00 -0.66825963173E+03  0.69311666319E+03  0.18101394993E+03 0.  0.
        -24    2    3    3    0    0  0.17291200684E+01  0.68112660438E+02 -0.42713845613E+03  0.44004359259E+03  0.80924522280E+02 0.  0.
          6    2    1    2  502    0  0.32765220315E+02  0.40455069631E+00 -0.23742119830E+03  0.29583672692E+03  0.17342669999E+03 0.  0.
         24    2    5    5    0    0 -0.26821418293E+02 -0.47807495608E+02 -0.15647018852E+03  0.18425659924E+03  0.80390480472E+02 0.  0.
          4    1    6    6  501    0 -0.44038086428E+02  0.15879177752E+01 -0.84297153849E+02  0.95120369460E+02  0.00000000000E+00 0. -1.
         -3    1    6    6    0  501  0.17216668134E+02 -0.49395413384E+02 -0.72173034675E+02  0.89136229779E+02  0.00000000000E+00 0.  1.
          5    1    5    5  502    0  0.59586638608E+02  0.48212046305E+02 -0.80951009779E+02  0.11158012768E+03  0.47000000000E+01 0. -1.
         13    1    4    4    0    0 -0.32512065926E+02  0.35228412296E+02 -0.11938841599E+03  0.12865329120E+03  0.00000000000E+00 0. -1.
        -14    1    4    4    0    0  0.34241185995E+02  0.32884248142E+02 -0.30775004015E+03  0.31139030140E+03  0.00000000000E+00 0.  1.
         -5    1    3    3    0  504 -0.34494340383E+02 -0.68517211134E+02 -0.24112117560E+03  0.25307307060E+03  0.47000000000E+01 0.  1.
<mgrwt>
<rscale>  2 0.18206166E+03</rscale>
<asrwt>0</asrwt>
<pdfrwt beam="1">  1       21 0.64055814E-02 0.18395590E+03</pdfrwt>
<pdfrwt beam="2">  1       21 0.14574110E+00 0.18395590E+03</pdfrwt>
<totfact> 0.57080411E+04</totfact>
</mgrwt>
</event>
<event>
12    1  0.2742799E-001  0.1982109E+03  0.7546771E-02  0.1151465E+00
         21   -1    0    0  502  503  0.00000000000E+00  0.00000000000E+00  0.22187589652E+03  0.22187589652E+03  0.00000000000E+00 0.  1.
         21   -1    0    0  503  504 -0.00000000000E+00 -0.00000000000E+00 -0.18467085501E+03  0.18467085501E+03  0.00000000000E+00 0.  1.
         -6    2    1    2    0  504 -0.84563371315E+02  0.50786932869E+02 -0.24877375239E+02  0.19976592532E+03  0.17192226383E+03 0.  0.
        -24    2    3    3    0    0 -0.55564281667E+02 -0.37174258148E+01  0.46810476249E+02  0.10504047801E+03  0.75769866586E+02 0.  0.
          6    2    1    2  502    0  0.84563371315E+02 -0.50786932869E+02  0.62082416754E+02  0.20678082621E+03  0.17080341712E+03 0.  0.
         24    2    5    5    0    0  0.71072802102E+02  0.33718692877E+02  0.40673458254E+02  0.11844267056E+03  0.78651398932E+02 0.  0.
          2    1    6    6  501    0  0.15841737574E+02  0.22842062273E+02 -0.21077001911E+02  0.34884960481E+02  0.00000000000E+00 0. -1.
         -1    1    6    6    0  501  0.55231064529E+02  0.10876630604E+02  0.61750460165E+02  0.83557710074E+02  0.00000000000E+00 0.  1.
          5    1    5    5  502    0  0.13490569213E+02 -0.84505625746E+02  0.21408958500E+02  0.88338155655E+02  0.47000000000E+01 0. -1.
         11    1    4    4    0    0  0.20103304452E+01 -0.25290709813E+02 -0.34811237759E+01  0.25608195057E+02  0.00000000000E+00 0. -1.
        -12    1    4    4    0    0 -0.57574612112E+02  0.21573283998E+02  0.50291600025E+02  0.79432282955E+02  0.00000000000E+00 0.  1.
         -5    1    3    3    0  504 -0.28999089648E+02  0.54504358683E+02 -0.71687851488E+02  0.94725447304E+02  0.47000000000E+01 0.  1.
<mgrwt>
<rscale>  2 0.19796799E+03</rscale>
<asrwt>0</asrwt>
<pdfrwt beam="1">  1       21 0.34134753E-01 0.19821085E+03</pdfrwt>
<pdfrwt beam="2">  1       21 0.28410901E-01 0.19821085E+03</pdfrwt>
<totfact> 0.97732960E+04</totfact>
</mgrwt>
</event>
<event>
12    1  0.2742799E-001  0.1759274E+03  0.7546771E-02  0.1172173E+00
         21   -1    0    0  502  503  0.00000000000E+00  0.00000000000E+00  0.59864468705E+03  0.59864468705E+03  0.00000000000E+00 0. -1.
         21   -1    0    0  503  504 -0.00000000000E+00 -0.00000000000E+00 -0.64218102170E+02  0.64218102170E+02  0.00000000000E+00 0. -1.
         -6    2    1    2    0  504  0.11090749698E+01  0.23462357461E+02  0.11928086538E+03  0.21255202244E+03  0.17435230177E+03 0.  0.
        -24    2    3    3    0    0  0.43777012086E+01  0.50123386815E+02  0.18897093512E+01  0.92035351734E+02  0.77041656224E+02 0.  0.
          6    2    1    2  502    0 -0.11090749698E+01 -0.23462357461E+02  0.41514571950E+03  0.45031076678E+03  0.17286441506E+03 0.  0.
         24    2    5    5    0    0  0.57121604273E+02  0.21902752061E+02  0.24021859071E+03  0.26038868920E+03  0.79716308977E+02 0.  0.
          4    1    6    6  501    0  0.48735419937E+02  0.41289331596E+02  0.22618015808E+03  0.23502641121E+03  0.00000000000E+00 0. -1.
         -3    1    6    6    0  501  0.83861843360E+01 -0.19386579535E+02  0.14038432633E+02  0.25362277985E+02  0.00000000000E+00 0.  1.
          5    1    5    5  502    0 -0.58230679243E+02 -0.45365109522E+02  0.17492712879E+03  0.18992207759E+03  0.47000000000E+01 0. -1.
         13    1    4    4    0    0  0.28305827286E+02  0.43380637411E+02 -0.23162765256E+02  0.56741635990E+02  0.00000000000E+00 0. -1.
        -14    1    4    4    0    0 -0.23928126077E+02  0.67427494038E+01  0.25052474607E+02  0.35293715744E+02  0.00000000000E+00 0.  1.
         -5    1    3    3    0  504 -0.32686262388E+01 -0.26661029353E+02  0.11739115603E+03  0.12051667070E+03  0.47000000000E+01 0.  1.
<mgrwt>
<rscale>  2 0.17555759E+03</rscale>
<asrwt>0</asrwt>
<pdfrwt beam="1">  1       21 0.92099179E-01 0.17592736E+03</pdfrwt>
<pdfrwt beam="2">  1       21 0.98797084E-02 0.17592736E+03</pdfrwt>
<totfact> 0.83151696E+04</totfact>
</mgrwt>
</event>
<event>
12    1  0.2742799E-001  0.1869759E+03  0.7546771E-02  0.1161267E+00
         21   -1    0    0  502  503  0.00000000000E+00  0.00000000000E+00  0.47555197381E+03  0.47555197381E+03  0.00000000000E+00 0.  1.
         21   -1    0    0  503  504 -0.00000000000E+00 -0.00000000000E+00 -0.13260284302E+03  0.13260284302E+03  0.00000000000E+00 0. -1.
         -6    2    1    2    0  504 -0.48594411136E+02  0.50065579329E+02 -0.31706420922E+02  0.18943444102E+03  0.17324009723E+03 0.  0.
        -24    2    3    3    0    0  0.21260029911E+02 -0.84574758916E+01  0.14587120419E+02  0.87112532823E+02  0.82778569222E+02 0.  0.
          6    2    1    2  502    0  0.48594411136E+02 -0.50065579329E+02  0.37465555172E+03  0.41872037582E+03  0.17347043456E+03 0.  0.
         24    2    5    5    0    0  0.27770378035E+02 -0.86648507922E+02  0.34868379021E+03  0.36903563556E+03  0.79547199407E+02 0.  0.
          4    1    6    6  501    0  0.14346441454E+02 -0.75481269525E+02  0.14062631731E+03  0.16024669592E+03  0.00000000000E+00 0. -1.
         -3    1    6    6    0  501  0.13423936581E+02 -0.11167238397E+02  0.20805747290E+03  0.20878893964E+03  0.00000000000E+00 0.  1.
          5    1    5    5  502    0  0.20824033101E+02  0.36582928593E+02  0.25971761505E+02  0.49684740260E+02  0.47000000000E+01 0. -1.
         13    1    4    4    0    0  0.89107534557E+00 -0.44289758244E+02  0.11572518039E+02  0.45785367470E+02  0.00000000000E+00 0. -1.
        -14    1    4    4    0    0  0.20368954566E+02  0.35832282352E+02  0.30146023794E+01  0.41327165354E+02  0.00000000000E+00 0.  1.
         -5    1    3    3    0  504 -0.69854441047E+02  0.58523055220E+02 -0.46293541341E+02  0.10232190819E+03  0.47000000000E+01 0.  1.
<mgrwt>
<rscale>  2 0.18692241E+03</rscale>
<asrwt>0</asrwt>
<pdfrwt beam="1">  1       21 0.73161842E-01 0.18697586E+03</pdfrwt>
<pdfrwt beam="2">  1       21 0.20400438E-01 0.18697586E+03</pdfrwt>
<totfact> 0.37484256E+04</totfact>
</mgrwt>
</event>
<event>
12    1  0.2742799E-001  0.1795225E+03  0.7546771E-02  0.1169492E+00
         21   -1    0    0  502  503  0.00000000000E+00  0.00000000000E+00  0.24696408118E+02  0.24696408118E+02  0.00000000000E+00 0. -1.
         21   -1    0    0  503  504 -0.00000000000E+00 -0.00000000000E+00 -0.16870053827E+04  0.16870053827E+04  0.00000000000E+00 0. -1.
         -6    2    1    2    0  504  0.19642625102E+02 -0.13487475618E+02 -0.12483224338E+04  0.12604665982E+04  0.17291443510E+03 0.  0.
        -24    2    3    3    0    0  0.48715502859E+02 -0.42137851397E+02 -0.11390586590E+04  0.11437329753E+04  0.80756989263E+02 0.  0.
          6    2    1    2  502    0 -0.19642625102E+02  0.13487475618E+02 -0.41398654084E+03  0.45123519262E+03  0.17793425287E+03 0.  0.
         24    2    5    5    0    0  0.37674291437E+01 -0.33940579277E+02 -0.37606459983E+03  0.38598479307E+03  0.79959494721E+02 0.  0.
          4    1    6    6  501    0 -0.36037524981E+02 -0.13040546069E+02 -0.11901889232E+03  0.12503701763E+03  0.00000000000E+00 0. -1.
         -3    1    6    6    0  501  0.39804954125E+02 -0.20900033208E+02 -0.25704570751E+03  0.26094777545E+03  0.00000000000E+00 0.  1.
          5    1    5    5  502    0 -0.23410054245E+02  0.47428054895E+02 -0.37921941011E+02  0.65250399546E+02  0.47000000000E+01 0. -1.
         11    1    4    4    0    0  0.65016417431E+02 -0.15627254394E+02 -0.58670141027E+03  0.59049969554E+03  0.00000000000E+00 0. -1.
        -12    1    4    4    0    0 -0.16300914572E+02 -0.26510597003E+02 -0.55235724875E+03  0.55323327975E+03  0.00000000000E+00 0.  1.
         -5    1    3    3    0  504 -0.29072877758E+02  0.28650375778E+02 -0.10926377476E+03  0.11673362296E+03  0.47000000000E+01 0.  1.
<mgrwt>
<rscale>  2 0.17826587E+03</rscale>
<asrwt>0</asrwt>
<pdfrwt beam="1">  1       21 0.37994483E-02 0.17952254E+03</pdfrwt>
<pdfrwt beam="2">  1       21 0.25953923E+00 0.17952254E+03</pdfrwt>
<totfact> 0.25266723E+04</totfact>
</mgrwt>
</event>
<event>
12    1  0.2742799E-001  0.1790557E+03  0.7546771E-02  0.1169010E+00
         21   -1    0    0  502  503  0.00000000000E+00  0.00000000000E+00  0.10176554611E+04  0.10176554611E+04  0.00000000000E+00 0. -1.
         21   -1    0    0  503  504 -0.00000000000E+00 -0.00000000000E+00 -0.57635189838E+02  0.57635189838E+02  0.00000000000E+00 0. -1.
         -6    2    1    2    0  504  0.26236724626E+02  0.28027482695E+02  0.11742347269E+03  0.21412432549E+03  0.17489153589E+03 0.  0.
        -24    2    3    3    0    0  0.56699570278E+02  0.73671673695E+02  0.91367863189E+02  0.15319517054E+03  0.80487993375E+02 0.  0.
          6    2    1    2  502    0 -0.26236724626E+02 -0.28027482695E+02  0.84259679856E+03  0.86116632543E+03  0.17367835099E+03 0.  0.
         24    2    5    5    0    0 -0.56627606633E+02 -0.69983707143E+02  0.44569524280E+03  0.46087035312E+03  0.75185290021E+02 0.  0.
          2    1    6    6  501    0 -0.44059734188E+02 -0.73154449506E+02  0.43699114410E+03  0.44525733422E+03  0.00000000000E+00 0. -1.
         -1    1    6    6    0  501 -0.12567872445E+02  0.31707423639E+01  0.87040986980E+01  0.15613018897E+02  0.00000000000E+00 0.  1.
          5    1    5    5  502    0  0.30390882007E+02  0.41956224447E+02  0.39690155576E+03  0.40029597231E+03  0.47000000000E+01 0. -1.
         11    1    4    4    0    0 -0.90417246506E+01 -0.21145171076E+01 -0.78013189506E+01  0.12127841713E+02  0.00000000000E+00 0. -1.
        -12    1    4    4    0    0  0.65741294929E+02  0.75786190803E+02  0.99169182139E+02  0.14106732882E+03  0.00000000000E+00 0.  1.
         -5    1    3    3    0  504 -0.30462845653E+02 -0.45644191000E+02  0.26055609497E+02  0.60929154955E+02  0.47000000000E+01 0.  1.
<mgrwt>
<rscale>  2 0.17875880E+03</rscale>
<asrwt>0</asrwt>
<pdfrwt beam="1">  1       21 0.15656237E+00 0.17905573E+03</pdfrwt>
<pdfrwt beam="2">  1       21 0.88669530E-02 0.17905573E+03</pdfrwt>
<totfact> 0.26991892E+04</totfact>
</mgrwt>
</event>
<event>
12    1  0.2742799E-001  0.1952905E+03  0.7546771E-02  0.1153932E+00
         21   -1    0    0  502  503  0.00000000000E+00  0.00000000000E+00  0.54819785768E+03  0.54819785768E+03  0.00000000000E+00 0. -1.
         21   -1    0    0  503  504 -0.00000000000E+00 -0.00000000000E+00 -0.81376792880E+02  0.81376792880E+02  0.00000000000E+00 0.  1.
         -6    2    1    2    0  504 -0.49418896913E+02  0.75128455434E+02  0.35424165136E+03  0.40415838932E+03  0.17254084708E+03 0.  0.
        -24    2    3    3    0    0 -0.93164409639E+02  0.51277697356E+02  0.18845913721E+03  0.23098662331E+03  0.80802006667E+02 0.  0.
          6    2    1    2  502    0  0.49418896913E+02 -0.75128455434E+02  0.11257941344E+03  0.22541626124E+03  0.17335470664E+03 0.  0.
         24    2    5    5    0    0  0.15663770949E+02 -0.73472211469E+02  0.15044113926E+01  0.10921859451E+03  0.79264863307E+02 0.  0.
          4    1    6    6  501    0  0.74272981442E+01  0.65391330331E+01 -0.23079386530E+02  0.25111413763E+02  0.00000000000E+00 0. -1.
         -3    1    6    6    0  501  0.82364728049E+01 -0.80011344502E+02  0.24583797923E+02  0.84107180750E+02  0.00000000000E+00 0.  1.
          5    1    5    5  502    0  0.33755125964E+02 -0.16562439644E+01  0.11107500205E+03  0.11619766673E+03  0.47000000000E+01 0. -1.
         11    1    4    4    0    0  0.13583306660E+02 -0.13664832392E+01  0.12227974957E+02  0.18327489403E+02  0.00000000000E+00 0. -1.
        -12    1    4    4    0    0 -0.10674771630E+03  0.52644180595E+02  0.17623116225E+03  0.21265913390E+03  0.00000000000E+00 0.  1.
         -5    1    3    3    0  504  0.43745512725E+02  0.23850758078E+02  0.16578251415E+03  0.17317176601E+03  0.47000000000E+01 0.  1.
<mgrwt>
<rscale>  2 0.19510970E+03</rscale>
<asrwt>0</asrwt>
<pdfrwt beam="1">  1       21 0.84338130E-01 0.19529047E+03</pdfrwt>
<pdfrwt beam="2">  1       21 0.12519507E-01 0.19529047E+03</pdfrwt>
<totfact> 0.66269462E+04</totfact>
</mgrwt>
</event>
<event>
12    1  0.2742799E-001  0.2308101E+03  0.7546771E-02  0.1126565E+00
         21   -1    0    0  502  503  0.00000000000E+00  0.00000000000E+00  0.64663786918E+02  0.64663786918E+02  0.00000000000E+00 0. -1.
         21   -1    0    0  503  504 -0.00000000000E+00 -0.00000000000E+00 -0.11316570642E+04  0.11316570642E+04  0.00000000000E+00 0.  1.
         -6    2    1    2    0  504 -0.52666700425E+02 -0.14435821227E+03 -0.85280687294E+03  0.88348902140E+03  0.17222140872E+03 0.  0.
        -24    2    3    3    0    0  0.12967067706E+01  0.16697133015E+01 -0.20607973991E+03  0.21827155399E+03  0.71896750175E+02 0.  0.
          6    2    1    2  502    0  0.52666700425E+02  0.14435821227E+03 -0.21418640438E+03  0.31283182975E+03  0.16844839893E+03 0.  0.
         24    2    5    5    0    0  0.53675386448E+02  0.78037302858E+02 -0.46775545765E+02  0.13269863999E+03  0.80312574514E+02 0.  0.
          4    1    6    6  501    0  0.37520859403E+02  0.19177010795E+02  0.16063781289E+02  0.45095650595E+02  0.00000000000E+00 0. -1.
         -3    1    6    6    0  501  0.16154527046E+02  0.58860292063E+02 -0.62839327054E+02  0.87602989392E+02  0.00000000000E+00 0.  1.
          5    1    5    5  502    0 -0.10086860237E+01  0.66320909414E+02 -0.16741085862E+03  0.18013318977E+03  0.47000000000E+01 0. -1.
         13    1    4    4    0    0  0.34020425649E+02  0.96095894260E+00 -0.64178710426E+02  0.72644474500E+02  0.00000000000E+00 0. -1.
        -14    1    4    4    0    0 -0.32723718879E+02  0.70875435889E+00 -0.14190102949E+03  0.14562707949E+03  0.00000000000E+00 0.  1.
         -5    1    3    3    0  504 -0.53963407195E+02 -0.14602792557E+03 -0.64672713302E+03  0.66521746741E+03  0.47000000000E+01 0.  1.
<mgrwt>
<rscale>  2 0.23010650E+03</rscale>
<asrwt>0</asrwt>
<pdfrwt beam="1">  1       21 0.99482746E-02 0.23081007E+03</pdfrwt>
<pdfrwt beam="2">  1       21 0.17410109E+00 0.23081007E+03</pdfrwt>
<totfact> 0.15929185E+04</totfact>
</mgrwt>
</event>
<event>
12    1  0.2742799E-001  0.2159560E+03  0.7546771E-02  0.1136953E+00
         21   -1    0    0  502  503  0.00000000000E+00  0.00000000000E+00  0.30410907117E+02  0.30410907117E+02  0.00000000000E+00 0.  1.
         21   -1    0    0  503  504 -0.00000000000E+00 -0.00000000000E+00 -0.15907860045E+04  0.15907860045E+04  0.00000000000E+00 0.  1.
         -6    2    1    2    0  504 -0.12610415261E+03  0.23876230580E+02 -0.93502887409E+03  0.95964367266E+03  0.17367973803E+03 0.  0.
        -24    2    3    3    0    0 -0.13400870383E+03 -0.78455543460E+01 -0.51362407954E+03  0.53694656545E+03  0.80511077795E+02 0.  0.
          6    2    1    2  502    0  0.12610415261E+03 -0.23876230580E+02 -0.62534622328E+03  0.66155323894E+03  0.17355822450E+03 0.  0.
         24    2    5    5    0    0  0.69447907294E+01 -0.46036706045E+02 -0.30605888787E+03  0.32000304827E+03  0.81008022038E+02 0.  0.
          4    1    6    6  501    0 -0.27657503449E+02  0.23246878383E+01 -0.50578711171E+02  0.57693567183E+02  0.00000000000E+00 0. -1.
         -3    1    6    6    0  501  0.34602294178E+02 -0.48361393884E+02 -0.25548017670E+03  0.26230948108E+03  0.00000000000E+00 0.  1.
          5    1    5    5  502    0  0.11915936189E+03  0.22160475465E+02 -0.31928733541E+03  0.34155019068E+03  0.47000000000E+01 0. -1.
         11    1    4    4    0    0 -0.23183545033E+02 -0.31196322171E+02 -0.19384109298E+03  0.19769940972E+03  0.00000000000E+00 0. -1.
        -12    1    4    4    0    0 -0.11082515879E+03  0.23350767825E+02 -0.31978298656E+03  0.33924715573E+03  0.00000000000E+00 0.  1.
         -5    1    3    3    0  504  0.79045512124E+01  0.31721784926E+02 -0.42140479455E+03  0.42269710721E+03  0.47000000000E+01 0.  1.
<mgrwt>
<rscale>  2 0.21593154E+03</rscale>
<asrwt>0</asrwt>
<pdfrwt beam="1">  1       21 0.46785999E-02 0.21595597E+03</pdfrwt>
<pdfrwt beam="2">  1       21 0.24473637E+00 0.21595597E+03</pdfrwt>
<totfact> 0.21087983E+04</totfact>
</mgrwt>
</event>
<event>
12    1  0.2742799E-001  0.2684697E+03  0.7546771E-02  0.1102256E+00
         21   -1    0    0  502  503  0.00000000000E+00  0.00000000000E+00  0.53335880980E+03  0.53335880980E+03  0.00000000000E+00 0.  1.
         21   -1    0    0  503  504 -0.00000000000E+00 -0.00000000000E+00 -0.16530955547E+03  0.16530955547E+03  0.00000000000E+00 0. -1.
         -6    2    1    2    0  504  0.20376119717E+03  0.15394300201E+02  0.34126458625E+02  0.27062997302E+03  0.17412741648E+03 0.  0.
        -24    2    3    3    0    0  0.11141044530E+03 -0.35033511419E+02  0.71339782924E+02  0.15892255581E+03  0.80792201802E+02 0.  0.
          6    2    1    2  502    0 -0.20376119717E+03 -0.15394300201E+02  0.33392279570E+03  0.42803839225E+03  0.17308039114E+03 0.  0.
         24    2    5    5    0    0 -0.72945073103E+02  0.38087762532E+02  0.95917250516E+02  0.15119562299E+03  0.82996000630E+02 0.  0.
          2    1    6    6  501    0 -0.14267563138E+02 -0.23761226535E+02  0.82685334306E+01  0.28922791868E+02  0.00000000000E+00 0. -1.
         -1    1    6    6    0  501 -0.58677509965E+02  0.61848989067E+02  0.87648717085E+02  0.12227283112E+03  0.00000000000E+00 0.  1.
          5    1    5    5  502    0 -0.13081612406E+03 -0.53482062733E+02  0.23800554519E+03  0.27684276926E+03  0.47000000000E+01 0. -1.
         11    1    4    4    0    0  0.81584274106E+02 -0.24310617477E+02  0.48530825243E+01  0.85267533760E+02  0.00000000000E+00 0. -1.
        -12    1    4    4    0    0  0.29826171194E+02 -0.10722893942E+02  0.66486700400E+02  0.73655022046E+02  0.00000000000E+00 0.  1.
         -5    1    3    3    0  504  0.92350751866E+02  0.50427811620E+02 -0.37213324300E+02  0.11170741721E+03  0.47000000000E+01 0.  1.
<mgrwt>
<rscale>  2 0.26830004E+03</rscale>
<asrwt>0</asrwt>
<pdfrwt beam="1">  1       21 0.82055201E-01 0.26846968E+03</pdfrwt>
<pdfrwt beam="2">  1       21 0.25432240E-01 0.26846968E+03</pdfrwt>
<totfact> 0.18268720E+04</totfact>
</mgrwt>
</event>
<event>
12    1  0.2742799E-001  0.1958388E+03  0.7546771E-02  0.1153442E+00
         21   -1    0    0  502  503  0.00000000000E+00  0.00000000000E+00  0.44592978294E+02  0.44592978294E+02  0.00000000000E+00 0. -1.
         21   -1    0    0  503  504 -0.00000000000E+00 -0.00000000000E+00 -0.12442150957E+04  0.12442150957E+04  0.00000000000E+00 0.  1.
         -6    2    1    2    0  504  0.83412814308E+02  0.31591955014E+02 -0.95852766974E+03  0.97819676518E+03  0.17360261671E+03 0.  0.
        -24    2    3    3    0    0  0.32108329978E+02 -0.10058834734E+02 -0.82205724063E+03  0.82649572227E+03  0.78644434227E+02 0.  0.
          6    2    1    2  502    0 -0.83412814308E+02 -0.31591955014E+02 -0.24109444771E+03  0.31061130886E+03  0.17434765059E+03 0.  0.
         24    2    5    5    0    0 -0.15528634604E+02 -0.76485344914E+02 -0.16101216056E+03  0.19633558517E+03  0.80818312750E+02 0.  0.
          2    1    6    6  501    0  0.28131364056E+02 -0.41469600065E+02 -0.44244378012E+02  0.66848084182E+02  0.00000000000E+00 0. -1.
         -1    1    6    6    0  501 -0.43659998660E+02 -0.35015744849E+02 -0.11676778255E+03  0.12948750098E+03  0.00000000000E+00 0.  1.
          5    1    5    5  502    0 -0.67884179704E+02  0.44893389900E+02 -0.80082287149E+02  0.11427572369E+03  0.47000000000E+01 0. -1.
         13    1    4    4    0    0  0.33156761262E+02  0.14496819868E+02 -0.16249430800E+03  0.16647500934E+03  0.00000000000E+00 0. -1.
        -14    1    4    4    0    0 -0.10484312837E+01 -0.24555654603E+02 -0.65956293264E+03  0.66002071293E+03  0.00000000000E+00 0.  1.
         -5    1    3    3    0  504  0.51304484330E+02  0.41650789749E+02 -0.13647042911E+03  0.15170104291E+03  0.47000000000E+01 0.  1.
<mgrwt>
<rscale>  2 0.19567289E+03</rscale>
<asrwt>0</asrwt>
<pdfrwt beam="1">  1       21 0.68604578E-02 0.19583884E+03</pdfrwt>
<pdfrwt beam="2">  1       21 0.19141772E+00 0.19583884E+03</pdfrwt>
<totfact> 0.23853896E+04</totfact>
</mgrwt>
</event>
<event>
12    1  0.2742799E-001  0.1757806E+03  0.7546771E-02  0.1173224E+00
         21   -1    0    0  502  503  0.00000000000E+00  0.00000000000E+00  0.21174659766E+03  0.21174659766E+03  0.00000000000E+00 0. -1.
         21   -1    0    0  503  504 -0.00000000000E+00 -0.00000000000E+00 -0.46959211105E+03  0.46959211105E+03  0.00000000000E+00 0. -1.
         -6    2    1    2    0  504  0.50778471484E+01  0.18582461147E+02 -0.41410985961E+03  0.44987308304E+03  0.17472184359E+03 0.  0.
        -24    2    3    3    0    0  0.32294386048E+02 -0.44239334815E+02 -0.31273821850E+03  0.32745732565E+03  0.80143999741E+02 0.  0.
          6    2    1    2  502    0 -0.50778471484E+01 -0.18582461147E+02  0.15626434622E+03  0.23146562568E+03  0.16966643032E+03 0.  0.
         24    2    5    5    0    0  0.71189221244E+01 -0.53436287309E+02  0.16693729253E+03  0.19274157421E+03  0.79844467163E+02 0.  0.
          2    1    6    6  501    0 -0.20000957143E+02 -0.11931326545E+02  0.12688633782E+03  0.12900595941E+03  0.00000000000E+00 0. -1.
         -1    1    6    6    0  501  0.27119879268E+02 -0.41504960765E+02  0.40050954717E+02  0.63735614795E+02  0.00000000000E+00 0.  1.
          5    1    5    5  502    0 -0.12196769273E+02  0.34853826163E+02 -0.10672946317E+02  0.38724051466E+02  0.47000000000E+01 0. -1.
         11    1    4    4    0    0  0.41535582629E+02  0.40723414565E+01 -0.20230747775E+03  0.20656743243E+03  0.00000000000E+00 0. -1.
        -12    1    4    4    0    0 -0.92411965811E+01 -0.48311676271E+02 -0.11043074076E+03  0.12088989322E+03  0.00000000000E+00 0.  1.
         -5    1    3    3    0  504 -0.27216538900E+02  0.62821795961E+02 -0.10137164111E+03  0.12241575739E+03  0.47000000000E+01 0.  1.
<mgrwt>
<rscale>  2 0.17451088E+03</rscale>
<asrwt>0</asrwt>
<pdfrwt beam="1">  1       21 0.32576400E-01 0.17578059E+03</pdfrwt>
<pdfrwt beam="2">  1       21 0.72244939E-01 0.17578059E+03</pdfrwt>
<totfact> 0.15840120E+04</totfact>
</mgrwt>
</event>
<event>
12    1  0.2742799E-001  0.2152742E+03  0.7546771E-02  0.1138423E+00
         21   -1    0    0  502  503  0.00000000000E+00  0.00000000000E+00  0.12763304103E+04  0.12763304103E+04  0.00000000000E+00 0.  1.
         21   -1    0    0  503  504 -0.00000000000E+00 -0.00000000000E+00 -0.46166429561E+02  0.46166429561E+02  0.00000000000E+00 0.  1.
         -6    2    1    2    0  504 -0.12261485869E+03 -0.11380198154E+01  0.30240817119E+03  0.37120571952E+03  0.17693864908E+03 0.  0.
        -24    2    3    3    0    0 -0.12246914292E+03  0.21915901391E+02  0.31195084438E+03  0.34581562051E+03  0.82438561228E+02 0.  0.
          6    2    1    2  502    0  0.12261485869E+03  0.11380198154E+01  0.92775580954E+03  0.95129112034E+03  0.17084570478E+03 0.  0.
         24    2    5    5    0    0  0.91208020797E+02 -0.53298612669E+02  0.59603895947E+03  0.61364056867E+03  0.10066112030E+03 0.  0.
          2    1    6    6  501    0  0.62879622066E+02 -0.38540218314E+02  0.15719889941E+03  0.17363953834E+03  0.00000000000E+00 0. -1.
         -1    1    6    6    0  501  0.28328398732E+02 -0.14758394355E+02  0.43884006006E+03  0.44000103033E+03  0.00000000000E+00 0.  1.
          5    1    5    5  502    0  0.31406837888E+02  0.54436632484E+02  0.33171685006E+03  0.33765055166E+03  0.47000000000E+01 0. -1.
         11    1    4    4    0    0 -0.73898267374E+02 -0.19145348648E+02  0.22834614759E+03  0.24076848094E+03  0.00000000000E+00 0. -1.
        -12    1    4    4    0    0 -0.48570875543E+02  0.41061250039E+02  0.83604696791E+02  0.10504713957E+03  0.00000000000E+00 0.  1.
         -5    1    3    3    0  504 -0.14571576815E+00 -0.23053921207E+02 -0.95426731872E+01  0.25390099008E+02  0.47000000000E+01 0.  1.
<mgrwt>
<rscale>  2 0.21401844E+03</rscale>
<asrwt>0</asrwt>
<pdfrwt beam="1">  1       21 0.19635850E+00 0.21527421E+03</pdfrwt>
<pdfrwt beam="2">  1       21 0.71025286E-02 0.21527421E+03</pdfrwt>
<totfact> 0.20564869E+04</totfact>
</mgrwt>
</event>
<event>
12    1  0.2742799E-001  0.2097836E+03  0.7546771E-02  0.1142280E+00
         21   -1    0    0  502  503  0.00000000000E+00  0.00000000000E+00  0.49413266514E+03  0.49413266514E+03  0.00000000000E+00 0. -1.
         21   -1    0    0  503  504 -0.00000000000E+00 -0.00000000000E+00 -0.15756589336E+03  0.15756589336E+03  0.00000000000E+00 0. -1.
         -6    2    1    2    0  504 -0.10440783607E+03 -0.53659875545E+02 -0.48973003379E+02  0.21277933489E+03  0.17057641050E+03 0.  0.
        -24    2    3    3    0    0 -0.11330377278E+02  0.14424368601E+02 -0.51664447257E+02  0.97331461339E+02  0.80422374978E+02 0.  0.
          6    2    1    2  502    0  0.10440783607E+03  0.53659875545E+02  0.38553977516E+03  0.43891922362E+03  0.17386428084E+03 0.  0.
         24    2    5    5    0    0  0.84157793327E+02 -0.23569784532E+02  0.15803467894E+03  0.19776544813E+03  0.80611065027E+02 0.  0.
          4    1    6    6  501    0  0.82322736038E+02 -0.66568218424E+01  0.16056939169E+03  0.18056543328E+03  0.00000000000E+00 0. -1.
         -3    1    6    6    0  501  0.18350572883E+01 -0.16912962690E+02 -0.25347127506E+01  0.17200014852E+02  0.00000000000E+00 0.  1.
          5    1    5    5  502    0  0.20250042746E+02  0.77229660077E+02  0.22750509622E+03  0.24115377549E+03  0.47000000000E+01 0. -1.
         11    1    4    4    0    0 -0.13782852830E+02 -0.19363081868E+02  0.10928180870E+02  0.26159531890E+02  0.00000000000E+00 0. -1.
        -12    1    4    4    0    0  0.24524755527E+01  0.33787450469E+02 -0.62592628127E+02  0.71171929449E+02  0.00000000000E+00 0.  1.
         -5    1    3    3    0  504 -0.93077458795E+02 -0.68084244146E+02  0.26914438789E+01  0.11544787355E+03  0.47000000000E+01 0.  1.
<mgrwt>
<rscale>  2 0.20910111E+03</rscale>
<asrwt>0</asrwt>
<pdfrwt beam="1">  1       21 0.76020410E-01 0.20978362E+03</pdfrwt>
<pdfrwt beam="2">  1       21 0.24240907E-01 0.20978362E+03</pdfrwt>
<totfact> 0.24536328E+04</totfact>
</mgrwt>
</event>
<event>
12    1  0.2742799E-001  0.1781198E+03  0.7546771E-02  0.1169878E+00
         21   -1    0    0  502  503  0.00000000000E+00  0.00000000000E+00  0.13871355998E+02  0.13871355998E+02  0.00000000000E+00 0.  1.
         21   -1    0    0  503  504 -0.00000000000E+00 -0.00000000000E+00 -0.29313254376E+04  0.29313254376E+04  0.00000000000E+00 0.  1.
         -6    2    1    2    0  504  0.30381000823E+01 -0.41777912090E+02 -0.21589155379E+04  0.21662509020E+04  0.17312436745E+03 0.  0.
        -24    2    3    3    0    0  0.37235942831E+02 -0.41173409939E+02 -0.20382960340E+04  0.20407877098E+04  0.84154555287E+02 0.  0.
          6    2    1    2  502    0 -0.30381000823E+01  0.41777912090E+02 -0.75853854363E+03  0.77894589153E+03  0.17210855811E+03 0.  0.
         24    2    5    5    0    0 -0.38139520196E+02 -0.30537544512E+01 -0.21598254842E+03  0.23339013274E+03  0.79740481689E+02 0.  0.
          2    1    6    6  501    0  0.67059463501E+01 -0.26897594067E+02 -0.31114845038E+02  0.41672339325E+02  0.00000000000E+00 0. -1.
         -1    1    6    6    0  501 -0.44845466546E+02  0.23843839616E+02 -0.18486770338E+03  0.19171779341E+03  0.00000000000E+00 0.  1.
          5    1    5    5  502    0  0.35101420113E+02  0.44831666542E+02 -0.54255599521E+03  0.54555575879E+03  0.47000000000E+01 0. -1.
         13    1    4    4    0    0  0.19436557346E+02 -0.46256832366E+01 -0.95553921711E+02  0.97620329139E+02  0.00000000000E+00 0. -1.
        -14    1    4    4    0    0  0.17799385485E+02 -0.36547726703E+02 -0.19427421123E+04  0.19431673806E+04  0.00000000000E+00 0.  1.
         -5    1    3    3    0  504 -0.34197842749E+02 -0.60450215119E+00 -0.12061950397E+03  0.12546319225E+03  0.47000000000E+01 0.  1.
<mgrwt>
<rscale>  2 0.17787252E+03</rscale>
<asrwt>0</asrwt>
<pdfrwt beam="1">  1       21 0.21340528E-02 0.17811982E+03</pdfrwt>
<pdfrwt beam="2">  1       21 0.45097355E+00 0.17811982E+03</pdfrwt>
<totfact> 0.46395776E+03</totfact>
</mgrwt>
</event>
<event>
12    1  0.2742799E-001  0.3005056E+03  0.7546771E-02  0.1085487E+00
         21   -1    0    0  502  503  0.00000000000E+00  0.00000000000E+00  0.81734742893E+03  0.81734742893E+03  0.00000000000E+00 0.  1.
         21   -1    0    0  503  504 -0.00000000000E+00 -0.00000000000E+00 -0.27786294695E+03  0.27786294695E+03  0.00000000000E+00 0.  1.
         -6    2    1    2    0  504  0.24019319801E+03  0.52817711212E+02 -0.15640735107E+03  0.33877261296E+03  0.17268798694E+03 0.  0.
        -24    2    3    3    0    0  0.18815439497E+03 -0.18924221154E+02 -0.75900195605E+02  0.21894592994E+03  0.80101673226E+02 0.  0.
          6    2    1    2  502    0 -0.24019319801E+03 -0.52817711212E+02  0.69589183305E+03  0.75643776291E+03  0.16568090679E+03 0.  0.
         24    2    5    5    0    0 -0.19043074844E+03  0.16180765754E+02  0.55126600900E+03  0.58858124623E+03  0.77511183759E+02 0.  0.
          2    1    6    6  501    0 -0.70236174982E+02  0.34862919804E+02  0.28954692571E+03  0.29997660849E+03  0.00000000000E+00 0. -1.
         -1    1    6    6    0  501 -0.12019457346E+03 -0.18682154050E+02  0.26171908329E+03  0.28860463774E+03  0.00000000000E+00 0.  1.
          5    1    5    5  502    0 -0.49762449568E+02 -0.68998476966E+02  0.14462582405E+03  0.16785651668E+03  0.47000000000E+01 0. -1.
         13    1    4    4    0    0  0.68573884858E+02 -0.23018351621E+02 -0.67604637458E+02  0.99008126947E+02  0.00000000000E+00 0. -1.
        -14    1    4    4    0    0  0.11958051011E+03  0.40941304668E+01 -0.82955581475E+01  0.11993780299E+03  0.00000000000E+00 0.  1.
         -5    1    3    3    0  504  0.52038803041E+02  0.71741932366E+02 -0.80507155464E+02  0.11982668302E+03  0.47000000000E+01 0.  1.
<mgrwt>
<rscale>  2 0.29950785E+03</rscale>
<asrwt>0</asrwt>
<pdfrwt beam="1">  1       21 0.12574576E+00 0.30050561E+03</pdfrwt>
<pdfrwt beam="2">  1       21 0.42748146E-01 0.30050561E+03</pdfrwt>
<totfact> 0.22850051E+03</totfact>
</mgrwt>
</event>
<event>
12    1  0.2742799E-001  0.2119370E+03  0.7546771E-02  0.1140066E+00
         21   -1    0    0  502  503  0.00000000000E+00  0.00000000000E+00  0.23553532907E+03  0.23553532907E+03  0.00000000000E+00 0. -1.
         21   -1    0    0  503  504 -0.00000000000E+00 -0.00000000000E+00 -0.20123986182E+03  0.20123986182E+03  0.00000000000E+00 0. -1.
         -6    2    1    2    0  504 -0.11883906600E+03 -0.27012251493E+02 -0.33100253873E+02  0.21438037049E+03  0.17323663327E+03 0.  0.
        -24    2    3    3    0    0 -0.14622115234E+03  0.13248713874E+01 -0.11170811459E+02  0.16903986288E+03  0.84067279839E+02 0.  0.
          6    2    1    2  502    0  0.11883906600E+03  0.27012251493E+02  0.67395721132E+02  0.22239482040E+03  0.17339229387E+03 0.  0.
         24    2    5    5    0    0  0.97334031441E+02 -0.46658822105E+02  0.49478770515E+02  0.14344546501E+03  0.80482876095E+02 0.  0.
          2    1    6    6  501    0  0.91622087297E+02 -0.15889944700E+02  0.10683483041E+02  0.93601463841E+02  0.00000000000E+00 0. -1.
         -1    1    6    6    0  501  0.57119441437E+01 -0.30768877405E+02  0.38795287474E+02  0.49844001173E+02  0.00000000000E+00 0.  1.
          5    1    5    5  502    0  0.21505034561E+02  0.73671073598E+02  0.17916950617E+02  0.78949355387E+02  0.47000000000E+01 0. -1.
         13    1    4    4    0    0 -0.11172016347E+03 -0.56536075118E+01 -0.44665476935E+02  0.12045066639E+03  0.00000000000E+00 0. -1.
        -14    1    4    4    0    0 -0.34500988868E+02  0.69784788993E+01  0.33494665476E+02  0.48589196495E+02  0.00000000000E+00 0.  1.
         -5    1    3    3    0  504  0.27382086338E+02 -0.28337122880E+02 -0.21929442414E+02  0.45340507606E+02  0.47000000000E+01 0.  1.
<mgrwt>
<rscale>  2 0.21190511E+03</rscale>
<asrwt>0</asrwt>
<pdfrwt beam="1">  1       21 0.36236204E-01 0.21193696E+03</pdfrwt>
<pdfrwt beam="2">  1       21 0.30959979E-01 0.21193696E+03</pdfrwt>
<totfact> 0.72979700E+04</totfact>
</mgrwt>
</event>
<event>
12    1  0.2742799E-001  0.1946429E+03  0.7546771E-02  0.1155051E+00
         21   -1    0    0  502  503  0.00000000000E+00  0.00000000000E+00  0.21514969395E+02  0.21514969395E+02  0.00000000000E+00 0.  1.
         21   -1    0    0  503  504 -0.00000000000E+00 -0.00000000000E+00 -0.17340365860E+04  0.17340365860E+04  0.00000000000E+00 0. -1.
         -6    2    1    2    0  504  0.85693924202E+02  0.18654531333E+02 -0.88043490089E+03  0.90100245649E+03  0.17014221026E+03 0.  0.
        -24    2    3    3    0    0  0.19426852410E+02  0.65884678384E+02 -0.57919074578E+03  0.58892531445E+03  0.81565388283E+02 0.  0.
          6    2    1    2  502    0 -0.85693924202E+02 -0.18654531333E+02 -0.83208671574E+03  0.85454909893E+03  0.17376541597E+03 0.  0.
         24    2    5    5    0    0  0.96065540958E+00  0.35883410582E+02 -0.47320929606E+03  0.48132196214E+03  0.80344578858E+02 0.  0.
          4    1    6    6  501    0 -0.26970441253E+02  0.45182197773E+02 -0.37858072535E+03  0.38222009537E+03  0.00000000000E+00 0. -1.
         -3    1    6    6    0  501  0.27931096663E+02 -0.92987871909E+01 -0.94628570708E+02  0.99101866775E+02  0.00000000000E+00 0.  1.
          5    1    5    5  502    0 -0.86654579612E+02 -0.54537941916E+02 -0.35887741968E+03  0.37322713679E+03  0.47000000000E+01 0. -1.
         11    1    4    4    0    0  0.36088985683E+02  0.60482485523E+02 -0.55268629468E+03  0.55715589046E+03  0.00000000000E+00 0. -1.
        -12    1    4    4    0    0 -0.16662133273E+02  0.54021928612E+01 -0.26504451095E+02  0.31769423991E+02  0.00000000000E+00 0.  1.
         -5    1    3    3    0  504  0.66267071792E+02 -0.47230147051E+02 -0.30124415511E+03  0.31207714204E+03  0.47000000000E+01 0.  1.
<mgrwt>
<rscale>  2 0.19383093E+03</rscale>
<asrwt>0</asrwt>
<pdfrwt beam="1">  1       21 0.33099954E-02 0.19464290E+03</pdfrwt>
<pdfrwt beam="2">  1       21 0.26677485E+00 0.19464290E+03</pdfrwt>
<totfact> 0.28476599E+04</totfact>
</mgrwt>
</event>
<event>
12    1  0.2742799E-001  0.2634730E+03  0.7546771E-02  0.1105165E+00
         21   -1    0    0  502  503  0.00000000000E+00  0.00000000000E+00  0.53030360643E+03  0.53030360643E+03  0.00000000000E+00 0. -1.
         21   -1    0    0  503  504 -0.00000000000E+00 -0.00000000000E+00 -0.14068446799E+03  0.14068446799E+03  0.00000000000E+00 0. -1.
         -6    2    1    2    0  504  0.18432211345E+03 -0.73813659269E+02  0.10476269555E+03  0.28296589606E+03  0.17225381898E+03 0.  0.
        -24    2    3    3    0    0  0.13666192475E+03 -0.10680126481E+03  0.37924267023E+02  0.19437051676E+03  0.79111667369E+02 0.  0.
          6    2    1    2  502    0 -0.18432211345E+03  0.73813659269E+02  0.28485644290E+03  0.38802217836E+03  0.17319041555E+03 0.  0.
         24    2    5    5    0    0 -0.15406400849E+03  0.66299628803E+02  0.12283347965E+03  0.22295993498E+03  0.80571144914E+02 0.  0.
          4    1    6    6  501    0 -0.13463210804E+03  0.68277671729E+02  0.13277835887E+03  0.20104163140E+03  0.00000000000E+00 0. -1.
         -3    1    6    6    0  501 -0.19431900455E+02 -0.19780429260E+01 -0.99448792244E+01  0.21918303582E+02  0.00000000000E+00 0.  1.
          5    1    5    5  502    0 -0.30258104956E+02  0.75140304656E+01  0.16202296325E+03  0.16506224338E+03  0.47000000000E+01 0. -1.
         13    1    4    4    0    0  0.87580483952E+02 -0.22316324738E+02  0.24160554164E+01  0.90411265022E+02  0.00000000000E+00 0. -1.
        -14    1    4    4    0    0  0.49081440795E+02 -0.84484940072E+02  0.35508211607E+02  0.10395925173E+03  0.00000000000E+00 0.  1.
         -5    1    3    3    0  504  0.47660188703E+02  0.32987605541E+02  0.66838428526E+02  0.88595379306E+02  0.47000000000E+01 0.  1.
<mgrwt>
<rscale>  2 0.26331918E+03</rscale>
<asrwt>0</asrwt>
<pdfrwt beam="1">  1       21 0.81585169E-01 0.26347299E+03</pdfrwt>
<pdfrwt beam="2">  1       21 0.21643765E-01 0.26347299E+03</pdfrwt>
<totfact> 0.25252360E+04</totfact>
</mgrwt>
</event>
<event>
12    1  0.2742799E-001  0.1782501E+03  0.7546771E-02  0.1170186E+00
         21   -1    0    0  502  503  0.00000000000E+00  0.00000000000E+00  0.25445982167E+03  0.25445982167E+03  0.00000000000E+00 0. -1.
         21   -1    0    0  503  504 -0.00000000000E+00 -0.00000000000E+00 -0.12319698372E+03  0.12319698372E+03  0.00000000000E+00 0. -1.
         -6    2    1    2    0  504  0.20268771458E+02  0.32595414206E+02  0.74616082964E+02  0.19323727606E+03  0.17406837996E+03 0.  0.
        -24    2    3    3    0    0 -0.31029580378E+02 -0.30590512900E+02  0.64134805852E+02  0.11104281485E+03  0.79489741911E+02 0.  0.
          6    2    1    2  502    0 -0.20268771458E+02 -0.32595414206E+02  0.56646754985E+02  0.18441952933E+03  0.17125543443E+03 0.  0.
         24    2    5    5    0    0 -0.35238785376E+00 -0.83733633194E+02  0.18556627723E+02  0.11745142071E+03  0.80243643291E+02 0.  0.
          4    1    6    6  501    0  0.33239217981E+02 -0.69041674878E+02  0.24197112736E+02  0.80356074734E+02  0.00000000000E+00 0. -1.
         -3    1    6    6    0  501 -0.33591605834E+02 -0.14691958316E+02 -0.56404850131E+01  0.37095345973E+02  0.00000000000E+00 0.  1.
          5    1    5    5  502    0 -0.19916383604E+02  0.51138218988E+02  0.38090127262E+02  0.66968108618E+02  0.47000000000E+01 0. -1.
         13    1    4    4    0    0 -0.60212749620E+01 -0.11472691183E+02 -0.18516719897E+02  0.22599719266E+02  0.00000000000E+00 0. -1.
        -14    1    4    4    0    0 -0.25008305416E+02 -0.19117821717E+02  0.82651525749E+02  0.88443095579E+02  0.00000000000E+00 0.  1.
         -5    1    3    3    0  504  0.51298351835E+02  0.63185927107E+02  0.10481277112E+02  0.82194461220E+02  0.47000000000E+01 0.  1.
<mgrwt>
<rscale>  2 0.17755958E+03</rscale>
<asrwt>0</asrwt>
<pdfrwt beam="1">  1       21 0.39147665E-01 0.17825006E+03</pdfrwt>
<pdfrwt beam="2">  1       21 0.18953382E-01 0.17825006E+03</pdfrwt>
<totfact> 0.16123791E+05</totfact>
</mgrwt>
</event>
<event>
12    1  0.2742799E-001  0.1820391E+03  0.7546771E-02  0.1165917E+00
         21   -1    0    0  502  503  0.00000000000E+00  0.00000000000E+00  0.56422245417E+02  0.56422245417E+02  0.00000000000E+00 0. -1.
         21   -1    0    0  503  504 -0.00000000000E+00 -0.00000000000E+00 -0.67824172320E+03  0.67824172320E+03  0.00000000000E+00 0. -1.
         -6    2    1    2    0  504  0.53267202403E+02  0.16146870987E+02 -0.44635059438E+03  0.48204470596E+03  0.17332088490E+03 0.  0.
        -24    2    3    3    0    0 -0.22181236153E+02  0.29828116777E+02 -0.35584382269E+03  0.36332988343E+03  0.63261791440E+02 0.  0.
          6    2    1    2  502    0 -0.53267202403E+02 -0.16146870987E+02 -0.17546888340E+03  0.25261926265E+03  0.17300013448E+03 0.  0.
         24    2    5    5    0    0  0.18657712238E+02 -0.48152659183E+02 -0.12980827598E+03  0.16148998693E+03  0.81006410574E+02 0.  0.
          4    1    6    6  501    0  0.35163333340E+02 -0.64080085791E+02 -0.10065328364E+03  0.12439373342E+03  0.00000000000E+00 0. -1.
         -3    1    6    6    0  501 -0.16505621102E+02  0.15927426608E+02 -0.29154992343E+02  0.37096253515E+02  0.00000000000E+00 0.  1.
          5    1    5    5  502    0 -0.71924914640E+02  0.32005788196E+02 -0.45660607418E+02  0.91129275723E+02  0.47000000000E+01 0. -1.
         13    1    4    4    0    0 -0.74557505538E+01 -0.13754437256E+02 -0.20576098323E+03  0.20635492477E+03  0.00000000000E+00 0. -1.
        -14    1    4    4    0    0 -0.14725485599E+02  0.43582554033E+02 -0.15008283947E+03  0.15697495866E+03  0.00000000000E+00 0.  1.
         -5    1    3    3    0  504  0.75448438556E+02 -0.13681245789E+02 -0.90506771689E+02  0.11871482253E+03  0.47000000000E+01 0.  1.
<mgrwt>
<rscale>  2 0.18196274E+03</rscale>
<asrwt>0</asrwt>
<pdfrwt beam="1">  1       21 0.86803450E-02 0.18203913E+03</pdfrwt>
<pdfrwt beam="2">  1       21 0.10434489E+00 0.18203913E+03</pdfrwt>
<totfact> 0.77552656E+04</totfact>
</mgrwt>
</event>
<event>
12    1  0.2742799E-001  0.1815344E+03  0.7546771E-02  0.1166560E+00
         21   -1    0    0  502  503  0.00000000000E+00  0.00000000000E+00  0.31390508221E+03  0.31390508221E+03  0.00000000000E+00 0. -1.
         21   -1    0    0  503  504 -0.00000000000E+00 -0.00000000000E+00 -0.10563472586E+03  0.10563472586E+03  0.00000000000E+00 0. -1.
         -6    2    1    2    0  504  0.42552743725E+02 -0.35097997760E+02  0.81361546188E+02  0.19804356452E+03  0.17192715552E+03 0.  0.
        -24    2    3    3    0    0  0.51708910100E+02 -0.32446626867E+02 -0.14529939297E+02  0.10156490295E+03  0.79860599770E+02 0.  0.
          6    2    1    2  502    0 -0.42552743725E+02  0.35097997760E+02  0.12690881017E+03  0.22149624355E+03  0.17295124852E+03 0.  0.
         24    2    5    5    0    0 -0.61819501662E+02  0.35023072729E+01  0.14740969236E+03  0.17893015624E+03  0.80327246108E+02 0.  0.
          4    1    6    6  501    0 -0.45445958352E+02  0.31421482115E+02  0.13197194133E+03  0.14307074462E+03  0.00000000000E+00 0. -1.
         -3    1    6    6    0  501 -0.16373543310E+02 -0.27919174842E+02  0.15437751030E+02  0.35859411613E+02  0.00000000000E+00 0.  1.
          5    1    5    5  502    0  0.19266757938E+02  0.31595690487E+02 -0.20500882188E+02  0.42566087315E+02  0.47000000000E+01 0. -1.
         13    1    4    4    0    0  0.11998416170E+02  0.21816239447E+02  0.13951524221E+02  0.28540415594E+02  0.00000000000E+00 0. -1.
        -14    1    4    4    0    0  0.39710493931E+02 -0.54262866314E+02 -0.28481463518E+02  0.73024487352E+02  0.00000000000E+00 0.  1.
         -5    1    3    3    0  504 -0.91561663759E+01 -0.26513708932E+01  0.95891485485E+02  0.96478661573E+02  0.47000000000E+01 0.  1.
<mgrwt>
<rscale>  2 0.18129006E+03</rscale>
<asrwt>0</asrwt>
<pdfrwt beam="1">  1       21 0.48293089E-01 0.18153440E+03</pdfrwt>
<pdfrwt beam="2">  1       21 0.16251496E-01 0.18153440E+03</pdfrwt>
<totfact> 0.13930999E+05</totfact>
</mgrwt>
</event>
<event>
12    1  0.2742799E-001  0.3099177E+03  0.7546771E-02  0.1080548E+00
         21   -1    0    0  502  503  0.00000000000E+00  0.00000000000E+00  0.15638562806E+03  0.15638562806E+03  0.00000000000E+00 0. -1.
         21   -1    0    0  503  504 -0.00000000000E+00 -0.00000000000E+00 -0.10515340265E+04  0.10515340265E+04  0.00000000000E+00 0.  1.
         -6    2    1    2    0  504  0.35819441931E+02  0.25263090048E+03 -0.83883522604E+03  0.89425586277E+03  0.17590795137E+03 0.  0.
        -24    2    3    3    0    0 -0.99732647593E+01  0.10831643711E+03 -0.22989105389E+03  0.26675388579E+03  0.80472494461E+02 0.  0.
          6    2    1    2  502    0 -0.35819441931E+02 -0.25263090048E+03 -0.56313172358E+02  0.31366379175E+03  0.17351771257E+03 0.  0.
         24    2    5    5    0    0  0.71597879189E+00 -0.14818742636E+03  0.32636864702E+02  0.17161635127E+03  0.80168454701E+02 0.  0.
          2    1    6    6  501    0 -0.21292768665E+02 -0.13393145459E+03  0.83429726866E+01  0.13586987053E+03  0.00000000000E+00 0. -1.
         -1    1    6    6    0  501  0.22008747457E+02 -0.14255971770E+02  0.24293892015E+02  0.35746480736E+02  0.00000000000E+00 0.  1.
          5    1    5    5  502    0 -0.36535420723E+02 -0.10444347412E+03 -0.88950037059E+02  0.14204744048E+03  0.47000000000E+01 0. -1.
         13    1    4    4    0    0 -0.39804243413E+02  0.25494663957E+02 -0.81596881533E+02  0.94299558642E+02  0.00000000000E+00 0. -1.
        -14    1    4    4    0    0  0.29830978654E+02  0.82821773157E+02 -0.14829417236E+03  0.17245432715E+03  0.00000000000E+00 0.  1.
         -5    1    3    3    0  504  0.45792706690E+02  0.14431446337E+03 -0.60894417214E+03  0.62750197698E+03  0.47000000000E+01 0.  1.
<mgrwt>
<rscale>  2 0.30957959E+03</rscale>
<asrwt>0</asrwt>
<pdfrwt beam="1">  1       21 0.24059327E-01 0.30991775E+03</pdfrwt>
<pdfrwt beam="2">  1       21 0.16177446E+00 0.30991775E+03</pdfrwt>
<totfact> 0.36621517E+03</totfact>
</mgrwt>
</event>
<event>
12    1  0.2742799E-001  0.2639636E+03  0.7546771E-02  0.1105072E+00
         21   -1    0    0  502  503  0.00000000000E+00  0.00000000000E+00  0.14164415955E+03  0.14164415955E+03  0.00000000000E+00 0.  1.
         21   -1    0    0  503  504 -0.00000000000E+00 -0.00000000000E+00 -0.52407131002E+03  0.52407131002E+03  0.00000000000E+00 0.  1.
         -6    2    1    2    0  504  0.22320413190E+02 -0.19816589923E+03 -0.27751017622E+03  0.38166557366E+03  0.16996701959E+03 0.  0.
        -24    2    3    3    0    0 -0.81369051413E+01 -0.29067118964E+02 -0.12813015889E+03  0.15394090371E+03  0.79808255132E+02 0.  0.
          6    2    1    2  502    0 -0.22320413190E+02  0.19816589923E+03 -0.10491697425E+03  0.28404989591E+03  0.17294174574E+03 0.  0.
         24    2    5    5    0    0  0.22609858179E+02  0.16408274995E+03 -0.12598103180E+03  0.22366633133E+03  0.81982027795E+02 0.  0.
          4    1    6    6  501    0  0.22246595042E+02  0.55809175474E+02 -0.92564265344E+02  0.11035269945E+03  0.00000000000E+00 0. -1.
         -3    1    6    6    0  501  0.36326313703E+00  0.10827357447E+03 -0.33416766457E+02  0.11331363188E+03  0.00000000000E+00 0.  1.
          5    1    5    5  502    0 -0.44930271369E+02  0.34083149282E+02  0.21064057555E+02  0.60383564576E+02  0.47000000000E+01 0. -1.
         13    1    4    4    0    0  0.25945145843E+02  0.14372187350E+02 -0.52528743149E+02  0.60323952282E+02  0.00000000000E+00 0. -1.
        -14    1    4    4    0    0 -0.34082050985E+02 -0.43439306314E+02 -0.75601415745E+02  0.93616951430E+02  0.00000000000E+00 0.  1.
         -5    1    3    3    0  504  0.30457318331E+02 -0.16909878027E+03 -0.14938001733E+03  0.22772466995E+03  0.47000000000E+01 0.  1.
<mgrwt>
<rscale>  2 0.26347741E+03</rscale>
<asrwt>0</asrwt>
<pdfrwt beam="1">  1       21 0.21791409E-01 0.26396358E+03</pdfrwt>
<pdfrwt beam="2">  1       21 0.80626355E-01 0.26396358E+03</pdfrwt>
<totfact> 0.25606053E+04</totfact>
</mgrwt>
</event>
<event>
12    1  0.2742799E-001  0.1972201E+03  0.7546771E-02  0.1153221E+00
         21   -1    0    0  502  503  0.00000000000E+00  0.00000000000E+00  0.13614686790E+03  0.13614686790E+03  0.00000000000E+00 0.  1.
         21   -1    0    0  503  504 -0.00000000000E+00 -0.00000000000E+00 -0.33908846389E+03  0.33908846389E+03  0.00000000000E+00 0.  1.
         -6    2    1    2    0  504 -0.56915022557E+02  0.58875088197E+02 -0.20314810074E+03  0.28313407979E+03  0.17941616566E+03 0.  0.
        -24    2    3    3    0    0 -0.81434331503E+02  0.97469686493E+02 -0.15978560897E+03  0.21994282073E+03  0.81923826961E+02 0.  0.
          6    2    1    2  502    0  0.56915022557E+02 -0.58875088197E+02  0.20650475875E+00  0.19210125200E+03  0.17377356696E+03 0.  0.
         24    2    5    5    0    0  0.30848930689E+02 -0.26861633045E+02  0.68323833475E+02  0.11231176067E+03  0.79199630739E+02 0.  0.
          2    1    6    6  501    0 -0.25438519478E+01  0.23361830649E+02  0.34810453511E+01  0.23756346326E+02  0.00000000000E+00 0. -1.
         -1    1    6    6    0  501  0.33392782636E+02 -0.50223463695E+02  0.64842788124E+02  0.88555414342E+02  0.00000000000E+00 0.  1.
          5    1    5    5  502    0  0.26066091869E+02 -0.32013455152E+02 -0.68117328716E+02  0.79789491335E+02  0.47000000000E+01 0. -1.
         11    1    4    4    0    0 -0.19797787191E+02  0.65095542009E+02 -0.33736068814E+02  0.75944086709E+02  0.00000000000E+00 0. -1.
        -12    1    4    4    0    0 -0.61636544312E+02  0.32374144484E+02 -0.12604954016E+03  0.14399873402E+03  0.00000000000E+00 0.  1.
         -5    1    3    3    0  504  0.24519308945E+02 -0.38594598296E+02 -0.43362491773E+02  0.63191259060E+02  0.47000000000E+01 0.  1.
<mgrwt>
<rscale>  2 0.19592769E+03</rscale>
<asrwt>0</asrwt>
<pdfrwt beam="1">  1       21 0.20945672E-01 0.19722007E+03</pdfrwt>
<pdfrwt beam="2">  1       21 0.52167455E-01 0.19722007E+03</pdfrwt>
<totfact> 0.73669534E+04</totfact>
</mgrwt>
</event>
<event>
12    1  0.2742799E-001  0.1754870E+03  0.7546771E-02  0.1172602E+00
         21   -1    0    0  502  503  0.00000000000E+00  0.00000000000E+00  0.35591378348E+03  0.35591378348E+03  0.00000000000E+00 0.  1.
         21   -1    0    0  503  504 -0.00000000000E+00 -0.00000000000E+00 -0.93244366531E+02  0.93244366531E+02  0.00000000000E+00 0.  1.
         -6    2    1    2    0  504  0.18212547658E+02 -0.13992630986E+02  0.67487856067E+02  0.18668618033E+03  0.17253877418E+03 0.  0.
        -24    2    3    3    0    0  0.37261971625E+02 -0.40920865343E+02  0.10226231349E+03  0.13852641239E+03  0.75292857680E+02 0.  0.
          6    2    1    2  502    0 -0.18212547658E+02  0.13992630986E+02  0.19518156088E+03  0.26247196968E+03  0.17397759208E+03 0.  0.
         24    2    5    5    0    0  0.33624535704E+02  0.66536034461E+01  0.29295409096E+02  0.88456884442E+02  0.76102033947E+02 0.  0.
          4    1    6    6  501    0 -0.37959794793E+01  0.32551006969E+02 -0.26152267398E+01  0.32875780231E+02  0.00000000000E+00 0. -1.
         -3    1    6    6    0  501  0.37420515184E+02 -0.25897403523E+02  0.31910635836E+02  0.55581104211E+02  0.00000000000E+00 0.  1.
          5    1    5    5  502    0 -0.51837083363E+02  0.73390275395E+01  0.16588615179E+03  0.17401508524E+03  0.47000000000E+01 0. -1.
         11    1    4    4    0    0  0.19987480333E+02 -0.61075079306E+02  0.56235064197E+02  0.85393484105E+02  0.00000000000E+00 0. -1.
        -12    1    4    4    0    0  0.17274491291E+02  0.20154213963E+02  0.46027249297E+02  0.53132928281E+02  0.00000000000E+00 0.  1.
         -5    1    3    3    0  504 -0.19049423967E+02  0.26928234358E+02 -0.34774457426E+02  0.48159767944E+02  0.47000000000E+01 0.  1.
<mgrwt>
<rscale>  2 0.17512934E+03</rscale>
<asrwt>0</asrwt>
<pdfrwt beam="1">  1       21 0.54755966E-01 0.17548702E+03</pdfrwt>
<pdfrwt beam="2">  1       21 0.14345287E-01 0.17548702E+03</pdfrwt>
<totfact> 0.13474782E+05</totfact>
</mgrwt>
</event>
<event>
12    1  0.2742799E-001  0.3371286E+03  0.7546771E-02  0.1068125E+00
         21   -1    0    0  502  503  0.00000000000E+00  0.00000000000E+00  0.26565912183E+03  0.26565912183E+03  0.00000000000E+00 0.  1.
         21   -1    0    0  503  504 -0.00000000000E+00 -0.00000000000E+00 -0.43494351668E+03  0.43494351668E+03  0.00000000000E+00 0. -1.
         -6    2    1    2    0  504 -0.14639206089E+03 -0.24910393713E+03 -0.36403561924E+02  0.33908836002E+03  0.17370172593E+03 0.  0.
        -24    2    3    3    0    0 -0.89094345565E+02 -0.19601160306E+03 -0.87074571379E+02  0.24586033141E+03  0.80665795927E+02 0.  0.
          6    2    1    2  502    0  0.14639206089E+03  0.24910393713E+03 -0.13288083293E+03  0.36151427850E+03  0.17190651765E+03 0.  0.
         24    2    5    5    0    0  0.69331324849E+02  0.49252926233E+02 -0.26265850850E+02  0.12220772196E+03  0.83738575573E+02 0.  0.
          2    1    6    6  501    0 -0.11936801954E+00 -0.19787621262E+02  0.29668471183E+01  0.20009157547E+02  0.00000000000E+00 0. -1.
         -1    1    6    6    0  501  0.69450692868E+02  0.69040547495E+02 -0.29232697968E+02  0.10219856442E+03  0.00000000000E+00 0.  1.
          5    1    5    5  502    0  0.77060736046E+02  0.19985101090E+03 -0.10661498208E+03  0.23930655653E+03  0.47000000000E+01 0. -1.
         13    1    4    4    0    0 -0.69622049838E+02 -0.93287317123E+02 -0.79645591450E+02  0.14104316218E+03  0.00000000000E+00 0. -1.
        -14    1    4    4    0    0 -0.19472295726E+02 -0.10272428594E+03 -0.74289799294E+01  0.10481716923E+03  0.00000000000E+00 0.  1.
         -5    1    3    3    0  504 -0.57297715330E+02 -0.53092334066E+02  0.50671009455E+02  0.93228028606E+02  0.47000000000E+01 0.  1.
<mgrwt>
<rscale>  2 0.33689801E+03</rscale>
<asrwt>0</asrwt>
<pdfrwt beam="1">  1       21 0.40870634E-01 0.33712861E+03</pdfrwt>
<pdfrwt beam="2">  1       21 0.66914387E-01 0.33712861E+03</pdfrwt>
<totfact> 0.10945882E+04</totfact>
</mgrwt>
</event>
<event>
12    1  0.2742799E-001  0.2554053E+03  0.7546771E-02  0.1110079E+00
         21   -1    0    0  502  503  0.00000000000E+00  0.00000000000E+00  0.20817754555E+03  0.20817754555E+03  0.00000000000E+00 0.  1.
         21   -1    0    0  503  504 -0.00000000000E+00 -0.00000000000E+00 -0.31243788841E+03  0.31243788841E+03  0.00000000000E+00 0.  1.
         -6    2    1    2    0  504  0.11066523036E+03 -0.15135399779E+03 -0.44905031139E+02  0.25840381263E+03  0.17205011683E+03 0.  0.
        -24    2    3    3    0    0  0.27183061468E+02 -0.89616851625E+02  0.34172221980E+02  0.12780500061E+03  0.79976737240E+02 0.  0.
          6    2    1    2  502    0 -0.11066523036E+03  0.15135399779E+03 -0.59355311731E+02  0.26221162133E+03  0.17342737809E+03 0.  0.
         24    2    5    5    0    0 -0.12694033660E+03  0.61530606510E+02 -0.44395155611E+02  0.16958863835E+03  0.83003083205E+02 0.  0.
          4    1    6    6  501    0 -0.97245131779E+02  0.28538002098E+02  0.71100802496E+01  0.10159520884E+03  0.00000000000E+00 0. -1.
         -3    1    6    6    0  501 -0.29695204825E+02  0.32992604412E+02 -0.51505235860E+02  0.67993429510E+02  0.00000000000E+00 0.  1.
          5    1    5    5  502    0  0.16275106242E+02  0.89823391284E+02 -0.14960156121E+02  0.92622982980E+02  0.47000000000E+01 0. -1.
         11    1    4    4    0    0 -0.19436253674E+02 -0.61242114271E+01 -0.97305198933E+01  0.22582226194E+02  0.00000000000E+00 0. -1.
        -12    1    4    4    0    0  0.46619315142E+02 -0.83492640198E+02  0.43902741874E+02  0.10522277442E+03  0.00000000000E+00 0.  1.
         -5    1    3    3    0  504  0.83482168894E+02 -0.61737146168E+02 -0.79077253119E+02  0.13059881202E+03  0.47000000000E+01 0.  1.
<mgrwt>
<rscale>  2 0.25517171E+03</rscale>
<asrwt>0</asrwt>
<pdfrwt beam="1">  1       21 0.32027315E-01 0.25540533E+03</pdfrwt>
<pdfrwt beam="2">  1       21 0.48067367E-01 0.25540533E+03</pdfrwt>
<totfact> 0.37653105E+04</totfact>
</mgrwt>
</event>
<event>
12    1  0.2742799E-001  0.1726709E+03  0.7546771E-02  0.1175289E+00
         21   -1    0    0  502  503  0.00000000000E+00  0.00000000000E+00  0.33274062934E+03  0.33274062934E+03  0.00000000000E+00 0. -1.
         21   -1    0    0  503  504 -0.00000000000E+00 -0.00000000000E+00 -0.89438231181E+02  0.89438231181E+02  0.00000000000E+00 0. -1.
         -6    2    1    2    0  504 -0.21098115484E+01 -0.18790021684E+02  0.13274343038E+03  0.21779821181E+03  0.17163253345E+03 0.  0.
        -24    2    3    3    0    0  0.29484804307E+02 -0.30631528946E+01  0.64396522051E+01  0.86572114806E+02  0.81083446836E+02 0.  0.
          6    2    1    2  502    0  0.21098115484E+01  0.18790021684E+02  0.11055896778E+03  0.20438064871E+03  0.17085270847E+03 0.  0.
         24    2    5    5    0    0 -0.28786767486E+02 -0.15105176054E+02  0.12837743883E+03  0.15495321770E+03  0.80454263714E+02 0.  0.
          4    1    6    6  501    0 -0.20577176287E+02 -0.18799181102E+02  0.13857522534E+03  0.14135035363E+03  0.00000000000E+00 0. -1.
         -3    1    6    6    0  501 -0.82095911982E+01  0.36940050473E+01 -0.10197786516E+02  0.13602864064E+02  0.00000000000E+00 0.  1.
          5    1    5    5  502    0  0.30896579034E+02  0.33895197738E+02 -0.17818471050E+02  0.49427431011E+02  0.47000000000E+01 0. -1.
         13    1    4    4    0    0  0.15584875005E+02  0.31607059234E+02  0.26575291769E+02  0.44137746373E+02  0.00000000000E+00 0. -1.
        -14    1    4    4    0    0  0.13899929302E+02 -0.34670212129E+02 -0.20135639564E+02  0.42434368433E+02  0.00000000000E+00 0.  1.
         -5    1    3    3    0  504 -0.31594615855E+02 -0.15726868790E+02  0.12630377818E+03  0.13122609700E+03  0.47000000000E+01 0.  1.
<mgrwt>
<rscale>  2 0.17247680E+03</rscale>
<asrwt>0</asrwt>
<pdfrwt beam="1">  1       21 0.51190866E-01 0.17267091E+03</pdfrwt>
<pdfrwt beam="2">  1       21 0.13759728E-01 0.17267091E+03</pdfrwt>
<totfact> 0.16748671E+05</totfact>
</mgrwt>
</event>
<event>
12    1  0.2742799E-001  0.2908589E+03  0.7546771E-02  0.1089962E+00
         21   -1    0    0  502  503  0.00000000000E+00  0.00000000000E+00  0.25623368860E+03  0.25623368860E+03  0.00000000000E+00 0.  1.
         21   -1    0    0  503  504 -0.00000000000E+00 -0.00000000000E+00 -0.14061125184E+04  0.14061125184E+04  0.00000000000E+00 0. -1.
         -6    2    1    2    0  504 -0.23361960626E+03  0.46887994829E+01 -0.13022988540E+04  0.13343842123E+04  0.17320166229E+03 0.  0.
        -24    2    3    3    0    0 -0.23287369651E+03 -0.34818121235E+02 -0.10653915733E+04  0.10941582712E+04  0.81735291408E+02 0.  0.
          6    2    1    2  502    0  0.23361960626E+03 -0.46887994829E+01  0.15242002416E+03  0.32796199467E+03  0.17241548920E+03 0.  0.
         24    2    5    5    0    0  0.22833992881E+03  0.29655940787E+02  0.97453573883E+02  0.26276355271E+03  0.80801532501E+02 0.  0.
          4    1    6    6  501    0  0.11869262380E+02  0.13503288950E+02  0.30844199944E+02  0.35701300706E+02  0.00000000000E+00 0. -1.
         -3    1    6    6    0  501  0.21647066643E+03  0.16152651837E+02  0.66609373939E+02  0.22706225200E+03  0.00000000000E+00 0.  1.
          5    1    5    5  502    0  0.52796774431E+01 -0.34344740270E+02  0.54966450280E+02  0.65198441964E+02  0.47000000000E+01 0. -1.
         13    1    4    4    0    0 -0.13602493612E+03  0.16394480438E+02 -0.51121294294E+03  0.52925441449E+03  0.00000000000E+00 0. -1.
        -14    1    4    4    0    0 -0.96848760397E+02 -0.51212601672E+02 -0.55417863034E+03  0.56490385667E+03  0.00000000000E+00 0.  1.
         -5    1    3    3    0  504 -0.74590974108E+00  0.39506920718E+02 -0.23690728070E+03  0.24022594118E+03  0.47000000000E+01 0.  1.
<mgrwt>
<rscale>  2 0.29074200E+03</rscale>
<asrwt>0</asrwt>
<pdfrwt beam="1">  1       21 0.39420567E-01 0.29085894E+03</pdfrwt>
<pdfrwt beam="2">  1       21 0.21632500E+00 0.29085894E+03</pdfrwt>
<totfact> 0.59631506E+02</totfact>
</mgrwt>
</event>
<event>
12    1  0.2742799E-001  0.1881510E+03  0.7546771E-02  0.1160246E+00
         21   -1    0    0  502  503  0.00000000000E+00  0.00000000000E+00  0.10678782061E+04  0.10678782061E+04  0.00000000000E+00 0. -1.
         21   -1    0    0  503  504 -0.00000000000E+00 -0.00000000000E+00 -0.34260995781E+02  0.34260995781E+02  0.00000000000E+00 0. -1.
         -6    2    1    2    0  504 -0.64118004132E+02 -0.36868627698E+02  0.41463620958E+03  0.45532843358E+03  0.17300399410E+03 0.  0.
        -24    2    3    3    0    0 -0.16986451684E+02 -0.18801166626E+02  0.75375015565E+02  0.11230064440E+03  0.79297026140E+02 0.  0.
          6    2    1    2  502    0  0.64118004132E+02  0.36868627698E+02  0.61898100072E+03  0.64681076828E+03  0.17250007694E+03 0.  0.
         24    2    5    5    0    0  0.43463051735E+00  0.71074030436E+02  0.45350216258E+03  0.46617046955E+03  0.81234158528E+02 0.  0.
          4    1    6    6  501    0  0.24712438867E+02  0.62236423093E+02  0.41109272991E+03  0.41651087570E+03  0.00000000000E+00 0. -1.
         -3    1    6    6    0  501 -0.24277808350E+02  0.88376073423E+01  0.42409432668E+02  0.49659593847E+02  0.00000000000E+00 0.  1.
          5    1    5    5  502    0  0.63683373615E+02 -0.34205402738E+02  0.16547883815E+03  0.18064029873E+03  0.47000000000E+01 0. -1.
         11    1    4    4    0    0 -0.31612260159E+02  0.69063974383E+01  0.76122416077E+02  0.82714300743E+02  0.00000000000E+00 0. -1.
        -12    1    4    4    0    0  0.14625808476E+02 -0.25707564064E+02 -0.74740051208E+00  0.29586343661E+02  0.00000000000E+00 0.  1.
         -5    1    3    3    0  504 -0.47131552448E+02 -0.18067461072E+02  0.33926119401E+03  0.34302778918E+03  0.47000000000E+01 0.  1.
<mgrwt>
<rscale>  2 0.18803507E+03</rscale>
<asrwt>0</asrwt>
<pdfrwt beam="1">  1       21 0.16428893E+00 0.18815099E+03</pdfrwt>
<pdfrwt beam="2">  1       21 0.52709232E-02 0.18815099E+03</pdfrwt>
<totfact> 0.57768257E+04</totfact>
</mgrwt>
</event>
<event>
12    1  0.2742799E-001  0.1889944E+03  0.7546771E-02  0.1160341E+00
         21   -1    0    0  502  503  0.00000000000E+00  0.00000000000E+00  0.11968437851E+04  0.11968437851E+04  0.00000000000E+00 0. -1.
         21   -1    0    0  503  504 -0.00000000000E+00 -0.00000000000E+00 -0.37669317961E+02  0.37669317961E+02  0.00000000000E+00 0.  1.
         -6    2    1    2    0  504  0.66948220627E+02 -0.88975453745E+01  0.29167379266E+03  0.34755214450E+03  0.17651532869E+03 0.  0.
        -24    2    3    3    0    0  0.89583592781E+02 -0.57503681452E+02  0.19895783160E+03  0.24034554035E+03  0.82763920507E+02 0.  0.
          6    2    1    2  502    0 -0.66948220627E+02  0.88975453745E+01  0.86750067453E+03  0.88696095861E+03  0.17199154407E+03 0.  0.
         24    2    5    5    0    0  0.29643855574E+02 -0.39976734393E+02  0.33201310148E+03  0.34062062942E+03  0.57557068787E+02 0.  0.
          2    1    6    6  501    0  0.41713210174E+02 -0.27767777243E+02  0.30126911702E+03  0.30540812404E+03  0.00000000000E+00 0. -1.
         -1    1    6    6    0  501 -0.12069354600E+02 -0.12208957149E+02  0.30743984453E+02  0.35212505381E+02  0.00000000000E+00 0.  1.
          5    1    5    5  502    0 -0.96592076201E+02  0.48874279767E+02  0.53548757305E+03  0.54634032919E+03  0.47000000000E+01 0. -1.
         11    1    4    4    0    0  0.34720829108E+02  0.11791504125E+02  0.10560579417E+03  0.11179069418E+03  0.00000000000E+00 0. -1.
        -12    1    4    4    0    0  0.54862763673E+02 -0.69295185578E+02  0.93352037425E+02  0.12855484617E+03  0.00000000000E+00 0.  1.
         -5    1    3    3    0  504 -0.22635372154E+02  0.48606136078E+02  0.92715961064E+02  0.10720660415E+03  0.47000000000E+01 0.  1.
<mgrwt>
<rscale>  2 0.18793098E+03</rscale>
<asrwt>0</asrwt>
<pdfrwt beam="1">  1       21 0.18412978E+00 0.18899442E+03</pdfrwt>
<pdfrwt beam="2">  1       21 0.57952806E-02 0.18899442E+03</pdfrwt>
<totfact> 0.35789600E+04</totfact>
</mgrwt>
</event>
<event>
12    1  0.2742799E-001  0.2249191E+03  0.7546771E-02  0.1130530E+00
         21   -1    0    0  502  503  0.00000000000E+00  0.00000000000E+00  0.37528302684E+03  0.37528302684E+03  0.00000000000E+00 0.  1.
         21   -1    0    0  503  504 -0.00000000000E+00 -0.00000000000E+00 -0.41198378937E+03  0.41198378937E+03  0.00000000000E+00 0. -1.
         -6    2    1    2    0  504  0.30428555528E+02 -0.14071243051E+03 -0.34174673461E+03  0.40912034091E+03  0.17280838416E+03 0.  0.
        -24    2    3    3    0    0 -0.30267647864E+02 -0.31068189877E+02 -0.21183867759E+03  0.22855433666E+03  0.74027674250E+02 0.  0.
          6    2    1    2  502    0 -0.30428555528E+02  0.14071243051E+03  0.30504597208E+03  0.37814647530E+03  0.17092637775E+03 0.  0.
         24    2    5    5    0    0  0.35526527225E+02  0.47517813168E+02  0.19763072939E+03  0.22131716042E+03  0.80020644809E+02 0.  0.
          2    1    6    6  501    0 -0.21011330511E+02 -0.58513673323E+01  0.40262785552E+02  0.45790898767E+02  0.00000000000E+00 0. -1.
         -1    1    6    6    0  501  0.56537857736E+02  0.53369180501E+02  0.15736794383E+03  0.17552626166E+03  0.00000000000E+00 0.  1.
          5    1    5    5  502    0 -0.65955082753E+02  0.93194617342E+02  0.10741524269E+03  0.15682931488E+03  0.47000000000E+01 0. -1.
         13    1    4    4    0    0  0.48938778529E+01 -0.46958998162E+02 -0.11655743293E+03  0.12575664086E+03  0.00000000000E+00 0. -1.
        -14    1    4    4    0    0 -0.35161525717E+02  0.15890808285E+02 -0.95281244660E+02  0.10279769580E+03  0.00000000000E+00 0.  1.
         -5    1    3    3    0  504  0.60696203392E+02 -0.10964424063E+03 -0.12990805702E+03  0.18056600424E+03  0.47000000000E+01 0.  1.
<mgrwt>
<rscale>  2 0.22455760E+03</rscale>
<asrwt>0</asrwt>
<pdfrwt beam="1">  1       21 0.57735850E-01 0.22491915E+03</pdfrwt>
<pdfrwt beam="2">  1       21 0.63382121E-01 0.22491915E+03</pdfrwt>
<totfact> 0.63294909E+03</totfact>
</mgrwt>
</event>
<event>
12    1  0.2742799E-001  0.2379187E+03  0.7546771E-02  0.1121914E+00
         21   -1    0    0  502  503  0.00000000000E+00  0.00000000000E+00  0.14291665209E+04  0.14291665209E+04  0.00000000000E+00 0. -1.
         21   -1    0    0  503  504 -0.00000000000E+00 -0.00000000000E+00 -0.48156409169E+02  0.48156409169E+02  0.00000000000E+00 0. -1.
         -6    2    1    2    0  504  0.10689393644E+03  0.11905472221E+03  0.37170750292E+03  0.44132957858E+03  0.17608233493E+03 0.  0.
        -24    2    3    3    0    0  0.31945184173E+02  0.82367679043E+02  0.97972023805E+02  0.15511906667E+03  0.81599497873E+02 0.  0.
          6    2    1    2  502    0 -0.10689393644E+03 -0.11905472221E+03  0.10093026088E+04  0.10359933515E+04  0.17026487495E+03 0.  0.
         24    2    5    5    0    0 -0.79792733448E+02 -0.75645687863E+02  0.93475209891E+03  0.94544674474E+03  0.89548368603E+02 0.  0.
          2    1    6    6  501    0 -0.64444832281E+02 -0.38167210038E+02  0.82616249554E+03  0.82955068643E+03  0.00000000000E+00 0. -1.
         -1    1    6    6    0  501 -0.15347901168E+02 -0.37478477825E+02  0.10858960337E+03  0.11589605830E+03  0.00000000000E+00 0.  1.
          5    1    5    5  502    0 -0.27101202994E+02 -0.43409034346E+02  0.74550509894E+02  0.90546606739E+02  0.47000000000E+01 0. -1.
         13    1    4    4    0    0 -0.27725937297E+02  0.30097508128E+02  0.34502521418E+02  0.53525802925E+02  0.00000000000E+00 0. -1.
        -14    1    4    4    0    0  0.59671121470E+02  0.52270170915E+02  0.63469502387E+02  0.10159326374E+03  0.00000000000E+00 0.  1.
         -5    1    3    3    0  504  0.74948752269E+02  0.36687043166E+02  0.27373547912E+03  0.28621051191E+03  0.47000000000E+01 0.  1.
<mgrwt>
<rscale>  2 0.23684330E+03</rscale>
<asrwt>0</asrwt>
<pdfrwt beam="1">  1       21 0.21987174E+00 0.23791874E+03</pdfrwt>
<pdfrwt beam="2">  1       21 0.74086794E-02 0.23791874E+03</pdfrwt>
<totfact> 0.13336336E+04</totfact>
</mgrwt>
</event>
<event>
12    1  0.2742799E-001  0.2334053E+03  0.7546771E-02  0.1127019E+00
         21   -1    0    0  502  503  0.00000000000E+00  0.00000000000E+00  0.26344825152E+03  0.26344825152E+03  0.00000000000E+00 0. -1.
         21   -1    0    0  503  504 -0.00000000000E+00 -0.00000000000E+00 -0.20001335544E+03  0.20001335544E+03  0.00000000000E+00 0.  1.
         -6    2    1    2    0  504 -0.68043781997E+02 -0.11484796298E+03 -0.11483655921E+02  0.21832731450E+03  0.17238019328E+03 0.  0.
        -24    2    3    3    0    0 -0.66711909217E+02 -0.13730711309E+03  0.24531988770E+02  0.17560256792E+03  0.83250953447E+02 0.  0.
          6    2    1    2  502    0  0.68043781997E+02  0.11484796298E+03  0.74918552003E+02  0.24513429245E+03  0.19146284505E+03 0.  0.
         24    2    5    5    0    0  0.97580983499E+01  0.92225034056E+02 -0.26722257857E+02  0.12571083554E+03  0.80550963484E+02 0.  0.
          2    1    6    6  501    0 -0.28682017748E+02  0.32535083130E+02  0.11782798558E+02  0.44944678420E+02  0.00000000000E+00 0. -1.
         -1    1    6    6    0  501  0.38440116098E+02  0.59689950925E+02 -0.38505056415E+02  0.80766157124E+02  0.00000000000E+00 0.  1.
          5    1    5    5  502    0  0.58285683647E+02  0.22622928925E+02  0.10164080986E+03  0.11942345691E+03  0.47000000000E+01 0. -1.
         13    1    4    4    0    0 -0.63224976397E+02 -0.39521438938E+02  0.21933914281E+02  0.77720257152E+02  0.00000000000E+00 0. -1.
        -14    1    4    4    0    0 -0.34869328204E+01 -0.97785674150E+02  0.25980744888E+01  0.97882310764E+02  0.00000000000E+00 0.  1.
         -5    1    3    3    0  504 -0.13318727795E+01  0.22459150107E+02 -0.36015644690E+02  0.42724746589E+02  0.47000000000E+01 0.  1.
<mgrwt>
<rscale>  2 0.22946141E+03</rscale>
<asrwt>0</asrwt>
<pdfrwt beam="1">  1       21 0.40530500E-01 0.23340530E+03</pdfrwt>
<pdfrwt beam="2">  1       21 0.30771285E-01 0.23340530E+03</pdfrwt>
<totfact> 0.58416674E+04</totfact>
</mgrwt>
</event>
<event>
12    1  0.2742799E-001  0.2027176E+03  0.7546771E-02  0.1147481E+00
         21   -1    0    0  502  503  0.00000000000E+00  0.00000000000E+00  0.93545200994E+02  0.93545200994E+02  0.00000000000E+00 0. -1.
         21   -1    0    0  503  504 -0.00000000000E+00 -0.00000000000E+00 -0.52208432472E+03  0.52208432472E+03  0.00000000000E+00 0. -1.
         -6    2    1    2    0  504 -0.20114227278E+02  0.10368806817E+03 -0.33692363359E+03  0.39317098166E+03  0.17294533334E+03 0.  0.
        -24    2    3    3    0    0  0.35854663181E+02  0.10505801017E+03 -0.28732724071E+03  0.31822909999E+03  0.79937941281E+02 0.  0.
          6    2    1    2  502    0  0.20114227278E+02 -0.10368806817E+03 -0.91615490136E+02  0.22245854406E+03  0.17302776705E+03 0.  0.
         24    2    5    5    0    0  0.15535238574E+02 -0.44959386635E+02 -0.12309075800E+03  0.15550477150E+03  0.82266087617E+02 0.  0.
          4    1    6    6  501    0  0.44941689636E+02 -0.32267979391E+02 -0.10509159634E+03  0.11876540566E+03  0.00000000000E+00 0. -1.
         -3    1    6    6    0  501 -0.29406451062E+02 -0.12691407245E+02 -0.17999161657E+02  0.36739365839E+02  0.00000000000E+00 0.  1.
          5    1    5    5  502    0  0.45789887039E+01 -0.58728681535E+02  0.31475267860E+02  0.66953772555E+02  0.47000000000E+01 0. -1.
         11    1    4    4    0    0  0.33016395336E+02  0.51185395615E+02 -0.23611513947E+03  0.24384500440E+03  0.00000000000E+00 0. -1.
        -12    1    4    4    0    0  0.28382678456E+01  0.53872614555E+02 -0.51212101235E+02  0.74384095587E+02  0.00000000000E+00 0.  1.
         -5    1    3    3    0  504 -0.55968890459E+02 -0.13699420003E+01 -0.49596392882E+02  0.74941881663E+02  0.47000000000E+01 0.  1.
<mgrwt>
<rscale>  2 0.20269996E+03</rscale>
<asrwt>0</asrwt>
<pdfrwt beam="1">  1       21 0.14391569E-01 0.20271755E+03</pdfrwt>
<pdfrwt beam="2">  1       21 0.80320666E-01 0.20271755E+03</pdfrwt>
<totfact> 0.57366993E+04</totfact>
</mgrwt>
</event>
<event>
12    1  0.2742799E-001  0.2809232E+03  0.7546771E-02  0.1095264E+00
         21   -1    0    0  502  503  0.00000000000E+00  0.00000000000E+00  0.44032034054E+03  0.44032034054E+03  0.00000000000E+00 0.  1.
         21   -1    0    0  503  504 -0.00000000000E+00 -0.00000000000E+00 -0.20975368695E+03  0.20975368695E+03  0.00000000000E+00 0.  1.
         -6    2    1    2    0  504 -0.10292440897E+03  0.19540538898E+03 -0.93506480518E+01  0.28107875424E+03  0.17361201417E+03 0.  0.
        -24    2    3    3    0    0 -0.22087568743E+02  0.17866172736E+03  0.44892582107E+01  0.19724213964E+03  0.80476298951E+02 0.  0.
          6    2    1    2  502    0  0.10292440897E+03 -0.19540538898E+03  0.23991730164E+03  0.36899527325E+03  0.17268613160E+03 0.  0.
         24    2    5    5    0    0  0.64122493778E+02 -0.21018979307E+03  0.22403400179E+03  0.32429027978E+03  0.81740493502E+02 0.  0.
          2    1    6    6  501    0  0.62797092863E+02 -0.99451930874E+02  0.78489693363E+02  0.14140294690E+03  0.00000000000E+00 0. -1.
         -1    1    6    6    0  501  0.13254009146E+01 -0.11073786220E+03  0.14554430843E+03  0.18288733288E+03  0.00000000000E+00 0.  1.
          5    1    5    5  502    0  0.38801915194E+02  0.14784404094E+02  0.15883299852E+02  0.44704993472E+02  0.47000000000E+01 0. -1.
         11    1    4    4    0    0 -0.17288334588E+02 -0.83725377291E+00  0.35888916442E+01  0.17676754508E+02  0.00000000000E+00 0. -1.
        -12    1    4    4    0    0 -0.47992341548E+01  0.17949898114E+03  0.90036656647E+00  0.17956538513E+03  0.00000000000E+00 0.  1.
         -5    1    3    3    0  504 -0.80836840229E+02  0.16743661615E+02 -0.13839906263E+02  0.83836614602E+02  0.47000000000E+01 0.  1.
<mgrwt>
<rscale>  2 0.28078025E+03</rscale>
<asrwt>0</asrwt>
<pdfrwt beam="1">  1       21 0.67741590E-01 0.28092318E+03</pdfrwt>
<pdfrwt beam="2">  1       21 0.32269798E-01 0.28092318E+03</pdfrwt>
<totfact> 0.17560447E+04</totfact>
</mgrwt>
</event>
